G5NPNcore-PETIM in water
119858
    1aaa     O1    1   5.602   6.022  10.013 -0.2020 -0.0765 -0.3130
    1aaa     C1    2   5.530   6.086   9.901 -0.1653 -0.0741 -0.1919
    1aaa     H1    3   5.421   6.073   9.900 -0.7528  3.6331 -0.5092
    1aaa     H2    4   5.556   6.036   9.807 -3.6545 -0.2840 -1.1746
    1aaa     C2    5   5.580   5.877  10.009  0.3701  0.1810  0.6368
    1aaa     H3    6   5.673   5.832   9.972 -1.1414 -1.2733 -1.6409
    1aaa     H4    7   5.508   5.833   9.938  0.4316 -1.7054  1.6567
    1aaa     C3    8   5.563   6.238   9.896 -0.7821  0.1314  0.3065
    1aaa     H5    9   5.512   6.289   9.813  0.9657  1.9472  0.2652
    1aaa     H6   10   5.670   6.251   9.875 -0.5748 -0.5335  0.9116
    1aaa     C4   11   5.555   5.823  10.148  0.0191 -0.2496 -0.7421
    1aaa     H7   12   5.539   5.715  10.165 -2.6984  0.3287  1.1236
    1aaa     H8   13   5.465   5.869  10.190  1.3199  1.8106 -0.0669
    1aaa     C5   14   5.522   6.327  10.024  0.2579 -0.1040 -0.3992
    1aaa     H9   15   5.443   6.401  10.004  0.1310  0.5911  2.2294
    1aaa    H10   16   5.488   6.262  10.105 -1.2519  1.8679  0.6412
    1aaa     C6   17   5.665   5.873  10.250  0.2691  0.3738 -0.0195
    1aaa    H11   18   5.682   5.981  10.242  0.5164  0.4764  1.6753
    1aaa    H12   19   5.759   5.824  10.222  0.9402  1.3261  0.5198
    1aaa     N1   20   5.640   6.399  10.081  0.4282  0.1355 -0.1974
    1aaa     N2   21   5.637   5.851  10.394 -0.2744 -0.3932  0.1377
    1aaa     C7   22   5.608   5.713  10.432 -0.8684  0.1662 -0.2737
    1aaa    H13   23   5.589   5.708  10.540 -0.7365  1.4057 -0.1842
    1aaa    H14   24   5.514   5.690  10.381 -0.1645  0.3823 -1.7163
    1aaa     C8   25   5.541   5.956  10.442  0.1040  0.3368 -0.0985
    1aaa    H15   26   5.578   6.058  10.422  0.7908 -0.1822 -1.6449
    1aaa    H16   27   5.445   5.948  10.390  0.6625 -1.4639 -0.9521
    1aaa     C9   28   5.613   6.454  10.213 -0.3632 -0.1017 -0.7677
    1aaa    H17   29   5.678   6.537  10.243 -1.1911  0.8493 -1.5218
    1aaa    H18   30   5.511   6.495  10.218 -0.6181 -0.8543  2.1634
    1aaa    C10   31   5.676   6.502   9.984  0.3730 -0.1062  0.6953
    1aaa    H19   32   5.666   6.470   9.880 -0.8952  0.8640  0.4932
    1aaa    H20   33   5.604   6.584   9.997 -0.6222 -0.7711 -0.3768
    1aaa    C11   34   5.710   5.604  10.383  0.3459 -0.0004 -0.3487
    1aaa    H21   35   5.699   5.603  10.274  1.7586  0.3960 -0.5158
    1aaa    H22   36   5.813   5.632  10.409  0.7207 -1.1193 -0.5982
    1aaa    C12   37   5.508   5.943  10.594  0.3719 -0.3003 -0.5257
    1aaa    H23   38   5.436   5.862  10.610  0.6199 -0.6376 -1.0651
    1aaa    H24   39   5.604   5.913  10.638 -0.3191 -1.3701  0.3107
    1aaa    C13   40   5.630   6.352  10.331 -0.3566  0.4984 -0.2008
    1aaa    H25   41   5.548   6.280  10.330 -1.1129  1.3467 -0.3802
    1aaa    H26   42   5.725   6.298  10.315 -0.0130  1.0896 -0.1741
    1aaa    C14   43   5.822   6.554  10.006  0.4074  0.1791  0.3592
    1aaa    H27   44   5.841   6.581  10.110 -0.1593 -1.2677  0.8572
    1aaa    H28   45   5.885   6.467   9.985 -1.8539 -1.4351 -0.1708
    1aaa    C15   46   5.871   6.673   9.919  0.2776  0.0286  0.4166
    1aaa    H29   47   5.843   6.767   9.967 -0.1993 -1.2171  2.7540
    1aaa    H30   48   5.981   6.672   9.915  0.2555  1.2697 -1.4423
    1aaa    C16   49   5.634   6.420  10.474  0.1512 -0.0928 -0.0140
    1aaa    H31   50   5.641   6.336  10.543 -1.1315 -0.8143 -0.7354
    1aaa    H32   51   5.720   6.489  10.465  0.5053 -0.6847 -1.4177
    1aaa    C17   52   5.444   6.079  10.642  0.1040  0.8901  0.3803
    1aaa    H33   53   5.497   6.147  10.574  0.2090 -1.3613 -1.9284
    1aaa    H34   54   5.337   6.094  10.625 -0.1490  0.0835  1.1968
    1aaa    C18   55   5.665   5.466  10.447  0.2481 -0.2556  0.1178
    1aaa    H35   56   5.566   5.449  10.401  0.1491  1.3565 -0.3498
    1aaa    H36   57   5.733   5.384  10.420  0.0488 -0.1316 -0.8254
    2bbb     N1   58   5.611   6.482   9.438 -0.5450 -0.0252  0.1340
    2bbb     C1   59   5.622   6.603   9.344 -0.3231  0.6753  0.2153
    2bbb     H1   60   5.724   6.641   9.337  0.8575 -2.0994  0.8108
    2bbb     H2   61   5.573   6.689   9.391  2.3290  3.7064 -2.0928
    2bbb     C2   62   5.468   6.450   9.454 -0.1943 -0.4870  0.1484
    2bbb     H3   63   5.430   6.410   9.360 -2.8565 -1.0260  1.3718
    2bbb     H4   64   5.410   6.542   9.470  1.2649  0.1397  2.3717
    2bbb     C3   65   5.676   6.516   9.567  0.0018  0.9766 -1.2088
    2bbb     H5   66   5.656   6.435   9.638  0.5029  3.6591  2.2971
    2bbb     H6   67   5.638   6.601   9.625  1.3944  0.6763  0.2255
    2bbb     C4   68   5.829   6.534   9.574 -0.0655  0.1109 -0.6399
    2bbb     H7   69   5.864   6.622   9.520 -0.5327  0.4625 -0.3797
    2bbb     H8   70   5.864   6.444   9.523  1.0697 -0.3814  0.9296
    2bbb     C5   71   5.566   6.577   9.202  0.1243 -0.4956  0.0669
    2bbb     H9   72   5.601   6.665   9.146  0.3575 -0.4212  0.3263
    2bbb    H10   73   5.457   6.576   9.194  0.1081 -2.9753 -0.4495
    2bbb     C6   74   5.435   6.362   9.573  0.0917 -0.2611  0.8639
    2bbb    H11   75   5.432   6.428   9.660 -0.1345 -0.2246  0.8287
    2bbb    H12   76   5.512   6.285   9.589 -0.6215 -1.6592 -1.7889
    2bbb     C7   77   5.891   6.545   9.714  0.0893  0.5452 -0.2361
    2bbb    H13   78   5.998   6.565   9.725 -0.4200  3.7096 -0.3244
    2bbb    H14   79   5.865   6.456   9.773 -1.7924  0.6280 -0.8757
    2bbb     C8   80   5.296   6.294   9.558  0.0945  0.5910 -0.0288
    2bbb    H15   81   5.297   6.235   9.465 -2.5581 -0.2179  0.3791
    2bbb    H16   82   5.222   6.374   9.547  1.9615  2.4574  0.4374
    2bbb     C9   83   5.615   6.448   9.136 -0.4003  0.2696  0.7638
    2bbb    H17   84   5.601   6.357   9.195  0.3038 -1.1325 -1.1438
    2bbb    H18   85   5.724   6.458   9.126 -0.4526  0.5974  0.4905
    2bbb     O1   86   5.826   6.653   9.787  0.3839  0.2949 -0.3532
    3bbb     N1   87   5.129   6.571  10.755 -0.7139  0.0747  0.1674
    3bbb     C1   88   5.110   6.694  10.835  0.6281  0.1174 -0.1403
    3bbb     H1   89   5.005   6.723  10.849  0.8220  1.1200 -0.6878
    3bbb     H2   90   5.149   6.780  10.779 -0.5446  0.7800  0.0380
    3bbb     C2   91   5.041   6.574  10.634  0.0529  0.4225  0.0890
    3bbb     H3   92   5.057   6.484  10.573 -1.8643 -1.7890  2.6101
    3bbb     H4   93   5.052   6.670  10.582 -1.6214  0.8484  0.4446
    3bbb     C3   94   5.277   6.544  10.729  0.9116  0.6564 -0.0363
    3bbb     H5   95   5.273   6.459  10.660 -1.2417  0.3077  0.4379
    3bbb     H6   96   5.321   6.516  10.826  0.7159  0.5332  0.0178
    3bbb     C4   97   5.362   6.636  10.644 -0.3652 -0.0972 -0.2187
    3bbb     H7   98   5.373   6.735  10.691 -1.1448 -0.0914 -0.0364
    3bbb     H8   99   5.312   6.661  10.549  2.1818  0.6792 -1.4378
    3bbb     C5  100   5.162   6.693  10.978 -0.1161  0.2705  0.2461
    3bbb     H9  101   5.256   6.635  10.983  0.1314  0.5976 -0.5639
    3bbb    H10  102   5.091   6.646  11.048  0.8345  1.4817  2.1309
    3bbb     C6  103   4.889   6.564  10.655 -0.4738  0.5417 -0.4127
    3bbb    H11  104   4.846   6.648  10.709 -1.5286 -0.1734 -0.0971
    3bbb    H12  105   4.884   6.477  10.722  0.4476 -0.7578 -1.9529
    3bbb     C7  106   5.508   6.586  10.609  0.0707  0.1866  1.3283
    3bbb    H13  107   5.561   6.544  10.695  1.7991 -1.2910 -0.4035
    3bbb    H14  108   5.567   6.673  10.576  2.3622 -1.4322  0.9435
    3bbb     C8  109   4.821   6.542  10.513 -0.2546 -0.3680 -0.1405
    3bbb    H15  110   4.712   6.526  10.508 -0.1421 -1.0864 -0.3736
    3bbb    H16  111   4.862   6.452  10.466  2.8162  0.1124  1.3730
    3bbb     C9  112   5.199   6.835  11.023 -0.3477 -0.7889 -0.2326
    3bbb    H17  113   5.116   6.905  11.006  0.3915  0.2644  0.3948
    3bbb    H18  114   5.278   6.873  10.957 -0.5241 -0.3028 -0.1685
    3bbb     O1  115   5.513   6.491  10.498  0.4728 -0.0042  0.2017
    4bbb     N1  116   5.310   6.219  11.108  0.4982  0.0955  0.4024
    4bbb     C1  117   5.249   6.353  11.109 -0.1899 -0.1965  0.3105
    4bbb     H1  118   5.271   6.409  11.018 -1.3175 -2.9701 -1.8101
    4bbb     H2  119   5.287   6.400  11.201  3.1566 -4.0884  1.2150
    4bbb     C2  120   5.270   6.135  11.222 -0.8757 -0.0406 -1.1999
    4bbb     H3  121   5.164   6.108  11.218 -0.1400 -3.1181 -2.1239
    4bbb     H4  122   5.298   6.186  11.315 -2.3591  1.2834 -1.4347
    4bbb     C3  123   5.456   6.223  11.078 -0.8856  0.5339  0.3730
    4bbb     H5  124   5.491   6.122  11.055 -2.0949 -0.5019  2.7038
    4bbb     H6  125   5.521   6.258  11.159  0.3259  0.8971 -0.7392
    4bbb     C4  126   5.503   6.298  10.943  0.6539 -0.1992  0.1060
    4bbb     H7  127   5.611   6.305  10.928  0.5440  1.8243 -0.0540
    4bbb     H8  128   5.470   6.401  10.960 -0.2678 -0.8134  2.2998
    4bbb     C5  129   5.101   6.341  11.107 -0.7777 -0.4073 -0.0028
    4bbb     H9  130   5.066   6.444  11.119  1.1981  0.4929 -1.4935
    4bbb    H10  131   5.062   6.279  11.189  0.8171 -1.0036  0.3557
    4bbb     C6  132   5.346   5.999  11.220  0.5285  0.0953 -0.2278
    4bbb    H11  133   5.310   5.935  11.302  0.1968 -0.7122 -0.9813
    4bbb    H12  134   5.455   6.008  11.227  0.6560 -1.0046 -0.6303
    4bbb     C7  135   5.432   6.244  10.818 -0.0760 -0.3232 -0.5316
    4bbb    H13  136   5.448   6.317  10.737 -1.5593  1.4225  0.6629
    4bbb    H14  137   5.323   6.241  10.825 -0.1318  1.7613  0.4800
    4bbb     C8  138   5.316   5.926  11.089 -0.1465  0.2087 -0.5783
    4bbb    H15  139   5.398   5.853  11.085 -0.0931  0.1335  1.0484
    4bbb    H16  140   5.323   5.994  11.003 -3.5138 -0.8990 -1.8991
    4bbb     C9  141   5.052   6.281  10.970  0.8523  0.1817  0.2332
    4bbb    H17  142   5.114   6.194  10.946  2.1407  0.4146  2.3775
    4bbb    H18  143   5.067   6.352  10.888  0.6821 -0.4564 -0.3618
    4bbb     O1  144   5.483   6.112  10.770  0.0209  0.5207 -0.0662
    5bbb     N1  145   5.753   5.721  10.946 -0.0437 -0.3573 -0.3191
    5bbb     C1  146   5.678   5.656  11.058 -0.3094  0.3159  0.0624
    5bbb     H1  147   5.686   5.547  11.069 -1.4082  0.2452  0.3162
    5bbb     H2  148   5.574   5.663  11.025 -0.1988 -3.0318 -1.3937
    5bbb     C2  149   5.756   5.867  10.951 -0.1965 -0.3226  0.7293
    5bbb     H3  150   5.811   5.911  11.035 -0.3681  3.6888 -0.9784
    5bbb     H4  151   5.652   5.901  10.955  0.3183  1.2393  1.6691
    5bbb     C3  152   5.739   5.660  10.814 -0.3253 -0.4428  1.1902
    5bbb     H5  153   5.821   5.693  10.750  0.5133 -2.2130  1.2911
    5bbb     H6  154   5.644   5.699  10.774 -0.8582 -0.4372  2.4120
    5bbb     C4  155   5.732   5.503  10.815 -0.1603 -0.3256 -0.2068
    5bbb     H7  156   5.633   5.467  10.844 -0.2792  1.5809  1.9689
    5bbb     H8  157   5.811   5.464  10.881  1.3537 -1.0935 -2.3527
    5bbb     C5  158   5.689   5.715  11.197  0.1858 -0.3475 -0.0028
    5bbb     H9  159   5.619   5.654  11.255  1.0151 -1.0267  0.3151
    5bbb    H10  160   5.647   5.816  11.206  1.0213  0.1799 -1.6152
    5bbb     C6  161   5.839   5.948  10.843  0.1533  0.7532  0.2035
    5bbb    H11  162   5.811   5.933  10.738  0.3127 -2.5944  0.5247
    5bbb    H12  163   5.940   5.906  10.844 -0.8139 -1.7548  0.1428
    5bbb     C7  164   5.751   5.441  10.672 -0.3791  0.2588 -0.7217
    5bbb    H13  165   5.743   5.332  10.680  0.7127  0.1476 -1.0065
    5bbb    H14  166   5.850   5.468  10.632  0.5405 -1.4270  0.3266
    5bbb     C8  167   5.834   6.103  10.864 -0.3543 -0.6122  0.0868
    5bbb    H15  168   5.882   6.125  10.961 -0.8299  1.5825 -0.1269
    5bbb    H16  169   5.735   6.146  10.876  0.2738  0.9048  0.0013
    5bbb     C9  170   5.823   5.706  11.260 -0.1675  0.4486 -0.4074
    5bbb    H17  171   5.897   5.780  11.226 -1.0209  1.3824 -0.2759
    5bbb    H18  172   5.862   5.604  11.245  1.7040  1.1847 -0.9177
    5bbb     O1  173   5.644   5.474  10.584  0.2169  0.0278 -0.1068
    6bbb     N1  174   5.105   6.050  10.037 -0.0509 -0.1574 -0.2880
    6bbb     C1  175   5.200   5.940  10.071 -0.1029 -0.2159 -0.0769
    6bbb     H1  176   5.293   5.986  10.105 -1.1290  2.7524 -0.9652
    6bbb     H2  177   5.234   5.874   9.990 -0.2220 -1.1514  0.6110
    6bbb     C2  178   5.049   6.134  10.143 -0.3862  0.4892 -0.3842
    6bbb     H3  179   5.002   6.075  10.222 -0.6442  1.6513  0.3690
    6bbb     H4  180   4.968   6.196  10.102 -0.0999  2.9816  2.4467
    6bbb     C3  181   5.125   6.127   9.911  0.1554 -1.4181 -0.5245
    6bbb     H5  182   5.217   6.183   9.931 -1.8291  1.3841  1.5566
    6bbb     H6  183   5.038   6.193   9.898  0.9473 -0.4193 -1.0049
    6bbb     C4  184   5.133   6.040   9.783 -0.2158 -0.0943  0.0855
    6bbb     H7  185   5.038   5.986   9.780 -1.3484  1.7797  0.4068
    6bbb     H8  186   5.222   5.977   9.791 -0.0272  0.0978 -0.4583
    6bbb     C5  187   5.150   5.836  10.181  0.1878 -0.6095 -0.0526
    6bbb     H9  188   5.130   5.883  10.278  2.5162 -2.2335  1.3097
    6bbb    H10  189   5.233   5.770  10.206 -0.6486 -0.9945  1.9139
    6bbb     C6  190   5.147   6.229  10.210 -0.6778 -0.4788 -0.6365
    6bbb    H11  191   5.200   6.285  10.132  2.7584 -2.2593  0.2065
    6bbb    H12  192   5.226   6.173  10.261 -0.6282  1.2545  1.3001
    6bbb     C7  193   5.155   6.111   9.650  0.0350 -0.1405  0.7190
    6bbb    H13  194   5.066   6.167   9.621 -0.1259 -1.2376 -1.0871
    6bbb    H14  195   5.188   6.046   9.568  0.7092  0.1863  0.7190
    6bbb     C8  196   5.096   6.329  10.317 -0.3096 -0.7247  0.2457
    6bbb    H15  197   5.034   6.408  10.273  0.5247  0.5439  1.2536
    6bbb    H16  198   5.177   6.388  10.362 -0.0172 -2.3126  1.9296
    6bbb     C9  199   5.026   5.749  10.147  0.2078 -0.0489 -0.1701
    6bbb    H17  200   4.949   5.813  10.102  0.6514  0.4471 -0.2347
    6bbb    H18  201   4.997   5.706  10.244  0.7639  3.3901  1.6996
    6bbb     O1  202   5.264   6.205   9.674 -0.4306  0.3824  0.0686
    7bbb     N1  203   5.141   6.203   8.797  0.1522  0.0464 -0.1664
    7bbb     C1  204   5.189   6.094   8.706  0.1046  0.5364 -0.0362
    7bbb     H1  205   5.274   6.139   8.653  0.4468  0.0098  0.0500
    7bbb     H2  206   5.109   6.080   8.633 -2.4331  5.7987  1.2758
    7bbb     C2  207   5.073   6.311   8.718 -0.3024  0.5935  0.0171
    7bbb     H3  208   5.004   6.260   8.649  0.2763 -0.1960  0.0115
    7bbb     H4  209   5.149   6.368   8.664  1.8515  0.3633  2.5855
    7bbb     C3  210   5.217   6.238   8.922 -0.2158 -0.8096 -0.1176
    7bbb     H5  211   5.235   6.156   8.994 -2.3048  0.6469  2.2611
    7bbb     H6  212   5.154   6.304   8.983  1.7047  2.6777 -1.6764
    7bbb     C4  213   5.344   6.320   8.902 -0.0791 -1.0333 -0.4473
    7bbb     H7  214   5.335   6.409   8.839 -1.1598  0.5256  1.7921
    7bbb     H8  215   5.404   6.247   8.846 -0.2080 -1.4330 -0.0711
    7bbb     C5  216   5.218   5.959   8.774  0.5793  0.0370 -0.3782
    7bbb     H9  217   5.140   5.943   8.850  0.8534  0.6999  0.0482
    7bbb    H10  218   5.314   5.966   8.827 -0.3480 -1.6403  1.6658
    7bbb     C6  219   4.980   6.408   8.795 -0.3286  0.4498 -0.2413
    7bbb    H11  220   4.933   6.462   8.712  0.4823  1.0520 -0.3207
    7bbb    H12  221   5.039   6.471   8.863 -3.1837  1.8165  1.1141
    7bbb     C7  222   5.412   6.373   9.035 -0.5749 -0.1740 -0.1373
    7bbb    H13  223   5.410   6.292   9.109 -3.9807  0.0935  0.2154
    7bbb    H14  224   5.344   6.454   9.066 -0.6792 -0.5400  0.6308
    7bbb     C8  225   4.872   6.338   8.882 -0.3364 -0.3460 -0.1616
    7bbb    H15  226   4.913   6.274   8.962 -1.6342  0.5811  1.2936
    7bbb    H16  227   4.799   6.281   8.822 -0.6464  0.6256 -0.7166
    7bbb     C9  228   5.223   5.836   8.685  0.6423 -0.6199 -0.5176
    7bbb    H17  229   5.315   5.843   8.625  1.1066 -0.6719  0.1724
    7bbb    H18  230   5.131   5.828   8.627 -0.1528  1.1487  0.3984
    7bbb     O1  231   5.550   6.423   9.011  0.1473 -0.0766 -0.8608
    8bbb     N1  232   4.752   6.936  10.024  0.8767 -0.0408 -0.2749
    8bbb     C1  233   4.879   7.011  10.009  0.0298  0.3493 -0.1213
    8bbb     H1  234   4.938   6.954   9.936  0.3499  0.1668  0.2816
    8bbb     H2  235   4.926   7.015  10.108 -1.3070  0.7238  0.5173
    8bbb     C2  236   4.663   6.940   9.901  0.0381  0.1683 -0.9344
    8bbb     H3  237   4.681   6.853   9.837  0.7406  1.6316 -2.8237
    8bbb     H4  238   4.680   7.030   9.841 -0.8415  0.3298 -0.9483
    8bbb     C3  239   4.759   6.797  10.084  0.3147  0.6186  0.2173
    8bbb     H5  240   4.828   6.733  10.026 -0.0442 -0.1638  0.6399
    8bbb     H6  241   4.665   6.740  10.089  1.1928 -0.9931 -0.6751
    8bbb     C4  242   4.815   6.805  10.233  0.2035 -0.4536 -0.1380
    8bbb     H7  243   4.750   6.870  10.292 -1.7871 -1.0534 -1.5856
    8bbb     H8  244   4.918   6.842  10.221 -0.7758  1.6361 -2.9313
    8bbb     C5  245   4.867   7.157   9.966  0.5349 -0.7524 -0.7058
    8bbb     H9  246   4.804   7.212  10.038 -0.4938  0.2795 -2.3313
    8bbb    H10  247   4.817   7.169   9.869 -0.2266 -0.3387 -0.2734
    8bbb     C6  248   4.516   6.938   9.941  0.5340  0.2753  0.6802
    8bbb    H11  249   4.486   7.027   9.998 -0.6083 -1.3356  2.7210
    8bbb    H12  250   4.500   6.850  10.004 -0.2276 -1.4223 -1.7704
    8bbb     C7  251   4.793   6.661  10.298 -0.0311  0.1491 -0.2469
    8bbb    H13  252   4.840   6.583  10.237  0.7358 -1.2271  1.9896
    8bbb    H14  253   4.693   6.619  10.309  0.3639 -0.5437  0.8279
    8bbb     C8  254   4.419   6.911   9.829 -0.2326 -0.2103  0.5685
    8bbb    H15  255   4.420   6.808   9.792 -2.4819 -0.9836  2.4585
    8bbb    H16  256   4.457   6.971   9.745  1.4152 -0.6747  0.9289
    8bbb     C9  257   5.001   7.239   9.979 -0.1082 -0.1990 -0.0867
    8bbb    H17  258   5.025   7.246  10.086  0.8801 -0.5704 -0.2759
    8bbb    H18  259   4.974   7.335   9.934 -0.8812 -1.4010 -2.3210
    8bbb     O1  260   4.854   6.662  10.431 -0.6954 -0.2176  0.9632
    9bbb     N1  261   5.154   7.182  11.451 -0.0267  0.0099  0.1295
    9bbb     C1  262   5.193   7.326  11.470 -0.4698 -0.1996  0.4356
    9bbb     H1  263   5.106   7.389  11.453  0.3290  0.5301 -1.1643
    9bbb     H2  264   5.262   7.358  11.391  0.5258 -3.7895 -0.3534
    9bbb     C2  265   5.061   7.123  11.552  0.1815  0.7510 -0.0535
    9bbb     H3  266   5.118   7.091  11.640 -0.2550 -0.2840 -0.1319
    9bbb     H4  267   5.022   7.032  11.505 -0.4975  0.7276  0.5377
    9bbb     C3  268   5.280   7.098  11.437  0.0444 -0.4378 -0.0146
    9bbb     H5  269   5.330   7.082  11.533 -0.6858 -1.7873  0.1641
    9bbb     H6  270   5.346   7.150  11.366 -1.2357  0.5942 -0.5093
    9bbb     C4  271   5.260   6.956  11.377  0.6597 -0.0372  0.4530
    9bbb     H7  272   5.167   6.907  11.409  1.8026 -3.0552 -0.5315
    9bbb     H8  273   5.347   6.892  11.401  0.5109  0.4407  2.5289
    9bbb     C5  274   5.257   7.370  11.607  0.3575 -0.4256 -0.2796
    9bbb     H9  275   5.355   7.329  11.633  1.0156  0.8824 -0.6157
    9bbb    H10  276   5.186   7.339  11.685  0.3163  0.2914 -0.0298
    9bbb     C6  277   4.940   7.208  11.587  0.5711 -0.0985 -0.5676
    9bbb    H11  278   4.885   7.249  11.502  0.2363  1.3537  0.3139
    9bbb    H12  279   4.971   7.292  11.651 -4.4296  0.0570  2.1914
    9bbb     C7  280   5.267   6.965  11.218  1.0369 -0.2167  0.0528
    9bbb    H13  281   5.367   6.996  11.186  0.2986 -0.1692 -2.3429
    9bbb    H14  282   5.192   7.038  11.185 -1.8978 -3.0189  0.0445
    9bbb     C8  283   4.831   7.131  11.672  0.2899 -0.7602  0.1184
    9bbb    H15  284   4.742   7.195  11.666  1.9083  1.6494  0.2970
    9bbb    H16  285   4.851   7.134  11.780  0.5999  1.3444  0.0605
    9bbb     C9  286   5.257   7.525  11.619  0.3542 -0.0271  0.0119
    9bbb    H17  287   5.300   7.547  11.717 -0.8336  0.0487  0.5331
    9bbb    H18  288   5.157   7.569  11.625  0.3595  0.0104 -0.1421
    9bbb     O1  289   5.241   6.834  11.163 -0.5748 -0.6435 -0.1150
   10bbb     N1  290   4.833   5.673  11.223 -0.5629 -0.3169 -0.1447
   10bbb     C1  291   4.744   5.610  11.129 -0.7683  0.0973 -0.4593
   10bbb     H1  292   4.796   5.519  11.097  0.6028  0.6417  0.1292
   10bbb     H2  293   4.729   5.654  11.030  0.9374 -2.3052 -1.9201
   10bbb     C2  294   4.786   5.801  11.279  0.4186 -0.0401  0.0663
   10bbb     H3  295   4.691   5.796  11.334 -0.5497 -0.2379 -1.5901
   10bbb     H4  296   4.762   5.863  11.192  0.8128  0.0311  0.0063
   10bbb     C3  297   4.976   5.668  11.177 -0.3832 -0.1551 -0.5315
   10bbb     H5  298   5.002   5.564  11.155  0.5127 -0.3933  1.4678
   10bbb     H6  299   5.049   5.697  11.253 -1.3379 -0.7113  0.6505
   10bbb     C4  300   4.992   5.731  11.036 -0.4013  0.3000 -0.0800
   10bbb     H7  301   4.918   5.808  11.013  1.2185  2.2922  1.0361
   10bbb     H8  302   4.966   5.651  10.966 -1.4862  1.8820 -1.5706
   10bbb     C5  303   4.611   5.576  11.193 -0.0831 -0.5183  0.2720
   10bbb     H9  304   4.550   5.536  11.111 -1.4284  0.1346  0.9161
   10bbb    H10  305   4.552   5.665  11.217 -0.5062 -0.4533 -0.9289
   10bbb     C6  306   4.883   5.873  11.368 -0.5687  0.1452  0.1557
   10bbb    H11  307   4.961   5.924  11.309  0.5113 -1.5857  0.0340
   10bbb    H12  308   4.932   5.814  11.446 -0.4061 -0.3759 -0.3379
   10bbb     C7  309   5.136   5.773  11.005 -0.7216 -0.0408 -0.4638
   10bbb    H13  310   5.146   5.819  10.906 -0.4017  1.8669  0.4064
   10bbb    H14  311   5.191   5.679  10.996 -0.6686  0.0940 -1.5922
   10bbb     C8  312   4.810   5.993  11.432 -0.3825  0.1380  0.6624
   10bbb    H15  313   4.723   5.953  11.486 -0.3907 -2.0546 -0.8831
   10bbb    H16  314   4.766   6.071  11.368  1.3415  0.6381  0.0343
   10bbb     C9  315   4.621   5.477  11.311  0.5678 -0.1387  0.0259
   10bbb    H17  316   4.695   5.503  11.387 -0.5406  0.1719  1.0389
   10bbb    H18  317   4.663   5.389  11.261  2.8222  0.9972 -0.1819
   10bbb     O1  318   5.183   5.872  11.100  0.4063  0.1045 -0.7699
   11bbb     N1  319   4.532   6.051  10.889  0.2590  0.0891  0.7738
   11bbb     C1  320   4.452   5.979  10.989 -0.1904  0.4379  0.2212
   11bbb     H1  321   4.344   5.978  10.973 -0.2681  2.0817  0.4195
   11bbb     H2  322   4.466   6.014  11.092 -0.1145 -0.0119  0.3660
   11bbb     C2  323   4.488   6.190  10.860  0.3772 -0.4490  0.5122
   11bbb     H3  324   4.500   6.257  10.946  0.4751 -0.4463  0.4960
   11bbb     H4  325   4.381   6.195  10.836  0.2895  0.8853  1.0718
   11bbb     C3  326   4.684   6.046  10.908  0.8186  0.5610  0.0045
   11bbb     H5  327   4.744   6.094  10.830  3.6256 -0.8986  1.1319
   11bbb     H6  328   4.716   5.942  10.922  1.6554  0.8866  0.6537
   11bbb     C4  329   4.726   6.108  11.045 -0.0081 -0.3366 -0.0429
   11bbb     H7  330   4.691   6.066  11.140  3.1671  0.1010  1.4459
   11bbb     H8  331   4.685   6.210  11.046  0.4240 -0.0476 -2.8890
   11bbb     C5  332   4.475   5.823  10.973 -0.7312  0.3653 -0.1504
   11bbb     H9  333   4.433   5.763  11.055  1.9935 -3.8075 -1.4687
   11bbb    H10  334   4.582   5.799  10.981 -0.1135  1.8928 -2.7581
   11bbb     C6  335   4.555   6.260  10.737 -0.2494  0.0739 -0.3115
   11bbb    H11  336   4.656   6.291  10.766  0.0374  2.3030 -3.2221
   11bbb    H12  337   4.503   6.355  10.719  0.9326  0.9619  0.7423
   11bbb     C7  338   4.879   6.125  11.051  0.2582  0.1252 -0.2342
   11bbb    H13  339   4.930   6.041  11.002 -2.2043 -1.2683 -0.5364
   11bbb    H14  340   4.915   6.125  11.154 -0.6620 -0.6064  0.0955
   11bbb     C8  341   4.575   6.164  10.612 -0.0583 -0.2737  0.4843
   11bbb    H15  342   4.494   6.091  10.602  0.5337 -0.8273 -0.3893
   11bbb    H16  343   4.663   6.100  10.629  0.0204  0.3632  2.8938
   11bbb     C9  344   4.433   5.765  10.832  0.3691  0.1865 -0.2428
   11bbb    H17  345   4.471   5.826  10.749 -0.2704 -0.5332 -1.0851
   11bbb    H18  346   4.324   5.758  10.834  0.3333  0.7701  1.4538
   11bbb     O1  347   4.915   6.242  10.989 -0.4082  0.2642  0.2107
   12bbb     N1  348   5.945   6.597  10.822  0.1559 -0.0629  0.1051
   12bbb     C1  349   6.058   6.675  10.869  0.1131 -0.1082 -0.8153
   12bbb     H1  350   6.032   6.749  10.946  2.0695 -0.0364 -0.1716
   12bbb     H2  351   6.108   6.734  10.791  1.9965 -0.1223  0.3111
   12bbb     C2  352   5.809   6.661  10.824 -0.7446 -0.1728 -0.6088
   12bbb     H3  353   5.737   6.595  10.773  1.0414 -1.0379 -2.1451
   12bbb     H4  354   5.811   6.750  10.760  1.8963  0.9904  0.9223
   12bbb     C3  355   5.959   6.540  10.687  0.0437 -0.5534 -0.8911
   12bbb     H5  356   6.068   6.537  10.675  0.4516 -1.9015  2.0563
   12bbb     H6  357   5.906   6.598  10.610  0.0336 -0.2879 -0.6871
   12bbb     C4  358   5.899   6.396  10.681  0.8390 -1.3966  0.0590
   12bbb     H7  359   5.933   6.353  10.585 -1.3073 -0.1529 -1.3415
   12bbb     H8  360   5.790   6.400  10.687  0.8384  0.4707 -0.5566
   12bbb     C5  361   6.160   6.582  10.932 -0.3319 -0.1076 -0.9391
   12bbb     H9  362   6.188   6.505  10.858 -0.2005 -0.0453 -0.9542
   12bbb    H10  363   6.116   6.521  11.012 -0.0941 -0.2903 -0.9464
   12bbb     C6  364   5.754   6.702  10.962  0.0205  0.2302 -0.0474
   12bbb    H11  365   5.818   6.780  11.005 -0.2478  1.0596 -1.1005
   12bbb    H12  366   5.761   6.616  11.030  0.2056 -0.9301 -1.4641
   12bbb     C7  367   5.957   6.300  10.787 -0.1530  0.7256  0.3635
   12bbb    H13  368   5.920   6.337  10.883  1.1533 -0.7417  1.4936
   12bbb    H14  369   6.066   6.306  10.781 -0.1922  1.5929  0.4750
   12bbb     C8  370   5.606   6.740  10.954 -0.9422 -0.2259 -0.3951
   12bbb    H15  371   5.574   6.758  11.058  1.4073 -1.2335  0.5579
   12bbb    H16  372   5.564   6.645  10.919  2.0052 -1.6989 -0.2769
   12bbb     C9  373   6.281   6.656  10.997 -0.0425 -0.2806  0.3848
   12bbb    H17  374   6.358   6.592  11.041 -0.3313  0.3594  1.9010
   12bbb    H18  375   6.249   6.713  11.085 -1.1973 -3.0471  1.8827
   12bbb     O1  376   5.911   6.165  10.755 -0.3523 -0.1587  0.7472
   13bbb     N1  377   5.795   5.814  11.824  0.8682 -0.6462 -0.0709
   13bbb     C1  378   5.847   5.727  11.936 -0.1231  0.6165  0.6688
   13bbb     H1  379   5.870   5.631  11.889  1.2614  1.0126  0.4838
   13bbb     H2  380   5.770   5.713  12.013 -0.6213 -1.6973 -0.1857
   13bbb     C2  381   5.750   5.957  11.864 -0.3514  0.2358 -0.3917
   13bbb     H3  382   5.714   6.004  11.772  0.5826  1.1280 -0.3141
   13bbb     H4  383   5.829   6.024  11.901 -0.0122 -0.8596  0.9567
   13bbb     C3  384   5.878   5.814  11.700  0.3773 -0.2096  0.0300
   13bbb     H5  385   5.982   5.839  11.726  0.0846  0.6710  0.3747
   13bbb     H6  386   5.854   5.895  11.631  0.1499  1.2766  1.7708
   13bbb     C4  387   5.864   5.677  11.632 -0.5047 -0.3462 -0.7517
   13bbb     H7  388   5.759   5.647  11.644 -0.5305  0.6389  2.0401
   13bbb     H8  389   5.918   5.599  11.688  0.0508  1.1360  0.8679
   13bbb     C5  390   5.982   5.766  12.003 -0.4304  0.4236 -0.6221
   13bbb     H9  391   6.051   5.818  11.936  1.4986 -1.5800 -0.2934
   13bbb    H10  392   6.040   5.677  12.028 -1.1462  0.3944  1.0846
   13bbb     C6  393   5.634   5.953  11.970  0.1491 -0.3086  0.2383
   13bbb    H11  394   5.652   5.880  12.049  1.8767 -2.3414 -1.8675
   13bbb    H12  395   5.544   5.915  11.919  1.1195 -3.0188  0.3643
   13bbb     C7  396   5.910   5.681  11.486 -0.5882  0.0538 -0.0335
   13bbb    H13  397   5.957   5.585  11.464  0.3134 -0.0031  1.9238
   13bbb    H14  398   5.987   5.759  11.475 -0.5792  0.4362  2.2910
   13bbb     C8  399   5.593   6.094  12.017 -0.4711 -0.1926  0.4000
   13bbb    H15  400   5.498   6.086  12.073 -0.4147 -0.6303  0.4322
   13bbb    H16  401   5.571   6.161  11.933 -0.1374  1.3949  1.5150
   13bbb     C9  402   5.951   5.851  12.134 -0.5160 -0.1081 -0.0367
   13bbb    H17  403   5.884   5.932  12.104  1.0867  0.8718 -1.1367
   13bbb    H18  404   6.043   5.898  12.171 -0.7538  1.4433 -1.2860
   13bbb     O1  405   5.797   5.721  11.398  0.6753 -0.0107 -0.7856
   14bbb     N1  406   5.071   5.892  10.607 -0.7523  0.2550 -0.2919
   14bbb     C1  407   5.143   5.774  10.649  0.9385  0.2465  0.4695
   14bbb     H1  408   5.085   5.701  10.707 -0.8332  0.4277 -1.0028
   14bbb     H2  409   5.209   5.818  10.725 -0.9062 -1.0661  2.9936
   14bbb     C2  410   4.953   5.861  10.525 -0.0624  0.0115  0.3936
   14bbb     H3  411   4.979   5.782  10.453 -2.4242 -1.4148  1.0053
   14bbb     H4  412   4.922   5.945  10.462  1.8923  0.1105 -0.5328
   14bbb     C3  413   5.059   6.005  10.701  0.2833 -0.0783  0.6077
   14bbb     H5  414   5.157   6.033  10.743 -1.0360  0.2200  3.7859
   14bbb     H6  415   4.995   5.974  10.785  0.4994 -1.6584  0.2153
   14bbb     C4  416   5.009   6.138  10.635  0.2858 -0.0484 -0.7263
   14bbb     H7  417   5.020   6.221  10.705  2.0368 -0.9217  0.1118
   14bbb     H8  418   4.903   6.121  10.615  0.5033 -0.4248 -1.6403
   14bbb     C5  419   5.203   5.690  10.535  0.0141  0.1664  0.2020
   14bbb     H9  420   5.265   5.761  10.478 -0.1615 -0.0375 -0.2455
   14bbb    H10  421   5.123   5.648  10.473  0.0738  0.3239  0.0169
   14bbb     C6  422   4.831   5.806  10.612  0.5711  0.4259 -0.0559
   14bbb    H11  423   4.816   5.868  10.701  2.2104 -0.9718  1.2504
   14bbb    H12  424   4.845   5.706  10.656 -1.8851  0.0186 -0.0883
   14bbb     C7  425   5.087   6.173  10.505 -0.4550  0.2240 -0.0788
   14bbb    H13  426   5.105   6.089  10.436  1.9509  1.0490 -0.5480
   14bbb    H14  427   5.184   6.208  10.541  0.7040 -1.4372 -1.3848
   14bbb     C8  428   4.706   5.803  10.530 -0.0887  0.6829  0.1784
   14bbb    H15  429   4.676   5.905  10.503  2.0714  1.6551  1.2646
   14bbb    H16  430   4.628   5.749  10.584 -0.5802  0.8456 -0.3602
   14bbb     C9  431   5.299   5.577  10.575  0.2392  0.2818  0.2851
   14bbb    H17  432   5.388   5.620  10.622  1.6577 -2.6035  0.5067
   14bbb    H18  433   5.341   5.528  10.486 -0.2848  1.9660 -0.9302
   14bbb     O1  434   5.018   6.267  10.424  0.1217  0.1725  0.2984
   15bbb     N1  435   5.060   5.516   9.641  0.5228  0.5525 -0.5922
   15bbb     C1  436   4.943   5.432   9.605 -0.4380 -0.2874 -0.1671
   15bbb     H1  437   4.853   5.493   9.625  0.4318  0.7066  0.8572
   15bbb     H2  438   4.940   5.344   9.669  0.4036  0.9764  1.6884
   15bbb     C2  439   5.189   5.451   9.635 -0.2749  0.1668 -0.4167
   15bbb     H3  440   5.202   5.424   9.530 -2.1801 -0.8985 -0.4185
   15bbb     H4  441   5.189   5.362   9.699  1.4207  0.8732  0.6264
   15bbb     C3  442   5.030   5.580   9.771 -0.6075  0.2702 -0.0377
   15bbb     H5  443   4.943   5.646   9.760  0.2856  1.2838 -1.3921
   15bbb     H6  444   5.111   5.646   9.804 -0.5005 -0.8604  2.1386
   15bbb     C4  445   5.015   5.486   9.890 -0.1365 -0.0290 -0.2402
   15bbb     H7  446   5.116   5.443   9.904  1.0914  2.4659 -0.8722
   15bbb     H8  447   4.952   5.398   9.872  1.1629 -1.1062  0.2328
   15bbb     C5  448   4.959   5.389   9.453  0.2248 -0.4138  0.0441
   15bbb     H9  449   4.869   5.343   9.412  0.6715 -0.9575 -0.3544
   15bbb    H10  450   5.039   5.313   9.443  1.4338  0.6081  1.5400
   15bbb     C6  451   5.317   5.541   9.673  0.4383 -0.4367 -1.0894
   15bbb    H11  452   5.401   5.472   9.661  0.5362 -1.1627  2.7843
   15bbb    H12  453   5.322   5.560   9.781  1.4768 -0.6453 -1.0864
   15bbb     C7  454   4.971   5.558  10.018 -0.3003 -0.3454 -0.4159
   15bbb    H13  455   4.951   5.485  10.097  0.1137  1.2354  1.2157
   15bbb    H14  456   4.874   5.609  10.007  1.2401  2.6575 -1.2817
   15bbb     C8  457   5.326   5.668   9.589 -0.2591 -0.1537 -0.4511
   15bbb    H15  458   5.226   5.701   9.557 -0.1184 -0.1026 -0.8371
   15bbb    H16  459   5.387   5.644   9.501  1.0869  0.3002  0.3227
   15bbb     C9  460   4.982   5.502   9.356 -0.3679  0.0984 -0.2362
   15bbb    H17  461   5.082   5.549   9.360 -1.2062  2.3731 -2.7652
   15bbb    H18  462   4.926   5.590   9.389  1.6752  0.8857  1.4029
   15bbb     O1  463   5.067   5.655  10.052 -0.2136  0.7153  0.0491
   16bbb     N1  464   4.568   6.622   9.325 -0.7687  0.2010  0.4932
   16bbb     C1  465   4.437   6.612   9.395 -0.4443  0.3669 -0.2793
   16bbb     H1  466   4.428   6.686   9.475  1.1056 -0.1510  0.4140
   16bbb     H2  467   4.421   6.516   9.447  2.7092 -0.3993 -0.5418
   16bbb     C2  468   4.687   6.630   9.415 -0.0606 -0.1547 -0.5357
   16bbb     H3  469   4.779   6.608   9.359 -1.7749 -2.4049 -2.6786
   16bbb     H4  470   4.689   6.545   9.485 -0.2677  1.4605  1.5264
   16bbb     C3  471   4.581   6.501   9.241  0.3073  0.0501 -0.1925
   16bbb     H5  472   4.483   6.473   9.201 -0.1768  0.3628  0.7472
   16bbb     H6  473   4.619   6.417   9.300  1.2087  0.6260  0.0723
   16bbb     C4  474   4.672   6.524   9.121  0.3056 -0.0185  0.3566
   16bbb     H7  475   4.758   6.587   9.149  1.2353 -0.6378 -1.0280
   16bbb     H8  476   4.604   6.590   9.064 -2.4138 -1.8471  1.2744
   16bbb     C5  477   4.308   6.638   9.308 -0.3673 -0.2938 -0.1102
   16bbb     H9  478   4.302   6.557   9.234 -1.1076  1.7236 -2.4112
   16bbb    H10  479   4.329   6.730   9.252 -1.8724  0.9295  1.2473
   16bbb     C6  480   4.703   6.754   9.504 -0.3919 -0.0753 -0.1333
   16bbb    H11  481   4.635   6.750   9.590  0.1654  0.1228  0.3207
   16bbb    H12  482   4.667   6.845   9.454  0.7939  0.6085  0.2136
   16bbb     C7  483   4.715   6.401   9.055 -0.3722  0.1848  0.2276
   16bbb    H13  484   4.635   6.354   8.997  0.0695  1.5309 -1.5550
   16bbb    H14  485   4.770   6.347   9.134  0.4480  2.9405  1.6549
   16bbb     C8  486   4.850   6.768   9.557 -0.4767  0.6462 -0.1997
   16bbb    H15  487   4.865   6.867   9.602  1.2609 -0.0935  0.9395
   16bbb    H16  488   4.918   6.763   9.472 -1.1145  1.1042 -0.7482
   16bbb     C9  489   4.173   6.647   9.381  0.5029 -0.2568 -0.5845
   16bbb    H17  490   4.099   6.658   9.301 -0.1461  0.9191  0.1470
   16bbb    H18  491   4.174   6.742   9.437  0.9052 -3.1841  5.0754
   16bbb     O1  492   4.804   6.452   8.953  0.7179 -0.0288  0.3802
   17bbb     N1  493   5.373   5.430   9.075  0.5465 -0.2504 -0.5123
   17bbb     C1  494   5.242   5.363   9.111 -0.9697  0.1297  0.3548
   17bbb     H1  495   5.197   5.323   9.019 -1.3949 -1.4473  1.2022
   17bbb     H2  496   5.166   5.435   9.143 -2.9949 -0.6223 -2.3124
   17bbb     C2  497   5.449   5.475   9.194  0.0918 -0.0428 -0.6723
   17bbb     H3  498   5.464   5.397   9.269  1.4120  0.5185 -0.3130
   17bbb     H4  499   5.405   5.558   9.251  0.6398 -0.4665  0.3855
   17bbb     C3  500   5.340   5.539   8.990 -0.1765 -0.1833 -0.1441
   17bbb     H5  501   5.428   5.603   8.976  0.9107 -1.8186 -1.2840
   17bbb     H6  502   5.256   5.601   9.024 -0.2919  1.6307 -3.3437
   17bbb     C4  503   5.301   5.498   8.850  0.3112  0.2085 -0.0654
   17bbb     H7  504   5.210   5.437   8.840  2.5414 -3.2949 -0.7027
   17bbb     H8  505   5.376   5.430   8.808  1.2520  0.5222  1.0704
   17bbb     C5  506   5.264   5.245   9.206 -0.4859  0.5620 -0.4812
   17bbb     H9  507   5.276   5.277   9.310 -1.2868 -1.4725  0.3080
   17bbb    H10  508   5.363   5.199   9.196 -0.5274  0.0679  1.0601
   17bbb     C6  509   5.588   5.519   9.152 -0.6432  0.0514  0.1765
   17bbb    H11  510   5.600   5.579   9.061  0.7471 -0.5896 -0.0878
   17bbb    H12  511   5.644   5.433   9.113 -1.8680  0.0968 -1.8659
   17bbb     C7  512   5.312   5.610   8.741  0.4604 -0.7938 -0.6727
   17bbb    H13  513   5.283   5.573   8.642 -1.1009  1.5040 -1.1566
   17bbb    H14  514   5.416   5.646   8.735  1.2588 -3.0996 -1.4167
   17bbb     C8  515   5.678   5.579   9.257 -0.0020  0.4307 -0.3633
   17bbb    H15  516   5.634   5.677   9.277 -2.2114 -0.5027 -0.4302
   17bbb    H16  517   5.784   5.584   9.229  0.4525 -1.3104  0.8397
   17bbb     C9  518   5.155   5.137   9.196  0.1252  0.5587  0.3838
   17bbb    H17  519   5.161   5.094   9.095 -0.6721 -0.0778  0.5926
   17bbb    H18  520   5.062   5.194   9.205 -0.2900  0.0836 -0.6652
   17bbb     O1  521   5.227   5.722   8.778  0.2030  0.3634  0.1928
   18bbb     N1  522   4.259   6.613   9.903 -0.2288  0.0468 -0.0538
   18bbb     C1  523   4.319   6.506   9.809 -0.0975  0.6901  0.2677
   18bbb     H1  524   4.300   6.533   9.705 -0.1297 -0.6724 -0.0972
   18bbb     H2  525   4.270   6.410   9.828 -1.1453  1.2647  0.5408
   18bbb     C2  526   4.250   6.566  10.050  0.0202 -0.5452 -0.3001
   18bbb     H3  527   4.333   6.496  10.063 -0.1754 -1.0529 -1.6582
   18bbb     H4  528   4.150   6.528  10.072 -1.6375  3.0982 -0.7271
   18bbb     C3  529   4.128   6.671   9.850  0.0391 -0.4100 -0.2986
   18bbb     H5  530   4.087   6.727   9.935  0.9366 -1.6637  1.0059
   18bbb     H6  531   4.065   6.589   9.814  0.5326 -1.2008  0.6056
   18bbb     C4  532   4.148   6.767   9.733 -0.3037 -0.2528 -0.0721
   18bbb     H7  533   4.057   6.767   9.673 -0.1086 -1.2789 -0.3813
   18bbb     H8  534   4.233   6.745   9.667  0.6818  1.4208  0.5846
   18bbb     C5  535   4.471   6.488   9.823 -0.0457  0.3989  0.5379
   18bbb     H9  536   4.501   6.441   9.918 -0.0904  0.8327  0.7700
   18bbb    H10  537   4.525   6.584   9.832  3.2094 -1.3391  1.3177
   18bbb     C6  538   4.257   6.684  10.152 -0.2064 -0.1946 -0.4781
   18bbb    H11  539   4.161   6.728  10.182  0.7756  0.4803  1.8214
   18bbb    H12  540   4.311   6.769  10.109 -2.1018  0.8156 -1.0041
   18bbb     C7  541   4.169   6.917   9.773 -0.1356  0.1632 -0.0456
   18bbb    H13  542   4.083   6.945   9.836 -0.8617 -0.0328 -0.9313
   18bbb    H14  543   4.186   6.975   9.682  0.2379 -2.0255 -1.4352
   18bbb     C8  544   4.329   6.646  10.277 -0.2395 -0.3914  0.3609
   18bbb    H15  545   4.351   6.737  10.334 -2.2409 -0.1773  0.8665
   18bbb    H16  546   4.427   6.603  10.254  1.0715  3.0969 -1.1577
   18bbb     C9  547   4.533   6.393   9.708 -0.3814 -0.6667 -0.0456
   18bbb    H17  548   4.641   6.386   9.723 -0.3046 -2.8319 -1.2033
   18bbb    H18  549   4.521   6.451   9.615 -1.9986  0.2512  0.6924
   18bbb     O1  550   4.283   6.942   9.866  0.0613  0.4216 -1.0423
   19bbb     N1  551   5.513   7.062  10.016  0.0855 -0.0121 -0.1695
   19bbb     C1  552   5.564   6.943  10.083 -0.5277 -0.3671 -0.1335
   19bbb     H1  553   5.672   6.946  10.067 -0.3054  2.2035  1.2470
   19bbb     H2  554   5.526   6.849  10.040  2.0728 -1.3453 -0.4544
   19bbb     C2  555   5.565   7.077   9.881  0.3416 -0.0450 -0.0302
   19bbb     H3  556   5.509   7.147   9.817 -0.9995 -1.1224 -0.0785
   19bbb     H4  557   5.557   6.978   9.835 -0.8106 -0.2335  0.5388
   19bbb     C3  558   5.367   7.090  10.039  0.2803 -0.2584 -0.0661
   19bbb     H5  559   5.342   7.088  10.146  1.3871 -2.4244  0.1889
   19bbb     H6  560   5.298   7.016   9.998 -1.3948  0.2043  1.7576
   19bbb     C4  561   5.316   7.237   9.997  0.1214 -0.2620  0.4187
   19bbb     H7  562   5.404   7.301   9.980 -0.3681  0.1602 -0.5965
   19bbb     H8  563   5.271   7.289  10.083  1.8814  1.1437  0.5561
   19bbb     C5  564   5.544   6.932  10.241 -0.0628 -0.0546 -0.4571
   19bbb     H9  565   5.441   6.929  10.279  0.2738 -0.2548  0.4492
   19bbb    H10  566   5.570   7.028  10.286 -0.9684  0.6353 -1.3502
   19bbb     C6  567   5.705   7.109   9.874 -0.1449 -0.4232 -0.5013
   19bbb    H11  568   5.759   7.014   9.882  0.3745 -0.2123 -1.3357
   19bbb    H12  569   5.727   7.162   9.967 -1.6465  0.5917 -0.6929
   19bbb     C7  570   5.220   7.253   9.881  0.2304  0.0912  0.3271
   19bbb    H13  571   5.270   7.216   9.791 -1.6098  0.6114 -0.9619
   19bbb    H14  572   5.197   7.359   9.862  0.3965 -0.2859 -2.3120
   19bbb     C8  573   5.758   7.189   9.755  0.1439 -0.1124 -0.4018
   19bbb    H15  574   5.863   7.221   9.758  0.5087 -1.3219  0.3703
   19bbb    H16  575   5.704   7.284   9.761 -0.6820 -0.6309  0.6935
   19bbb     C9  576   5.614   6.806  10.315  0.0232  0.5102  0.1636
   19bbb    H17  577   5.556   6.717  10.288 -0.3297  0.9561 -0.6042
   19bbb    H18  578   5.608   6.819  10.423 -0.6599 -1.3653  0.3739
   19bbb     O1  579   5.104   7.176   9.904 -0.2783  0.4668  0.4863
   20bbb     N1  580   4.835   6.645  11.387  0.5787  1.2554  0.3142
   20bbb     C1  581   4.730   6.595  11.289 -0.4162 -0.0582  0.0432
   20bbb     H1  582   4.625   6.605  11.320 -0.4392 -1.2160  0.4026
   20bbb     H2  583   4.739   6.485  11.285  0.9557 -0.0710  1.8890
   20bbb     C2  584   4.974   6.592  11.354  0.1426  0.2195 -0.0597
   20bbb     H3  585   5.017   6.651  11.272  0.1096  0.7939  0.3320
   20bbb     H4  586   4.957   6.487  11.329 -0.5597  0.3272 -0.0621
   20bbb     C3  587   4.837   6.792  11.403 -0.6932 -0.0187  0.2187
   20bbb     H5  588   4.849   6.840  11.306  2.0179 -0.9243  0.0183
   20bbb     H6  589   4.922   6.831  11.460 -0.2960  1.9440 -1.6015
   20bbb     C4  590   4.708   6.846  11.460 -0.3343 -0.5994  0.2149
   20bbb     H7  591   4.686   6.785  11.549  1.0096  0.7210  1.5289
   20bbb     H8  592   4.631   6.832  11.384  0.1512 -1.2659 -0.1658
   20bbb     C5  593   4.747   6.647  11.143 -0.3053 -0.0143  0.1814
   20bbb     H9  594   4.847   6.642  11.099 -0.6911  1.7765 -0.9910
   20bbb    H10  595   4.730   6.755  11.134  0.9264  0.0086 -4.2741
   20bbb     C6  596   5.071   6.593  11.474  0.0638 -0.0649 -0.1465
   20bbb    H11  597   5.046   6.515  11.547  0.9437 -1.4664 -1.2760
   20bbb    H12  598   5.079   6.690  11.523 -1.1378  0.0401 -0.1206
   20bbb     C7  599   4.717   6.995  11.499  0.2865 -0.0880 -1.3568
   20bbb    H13  600   4.620   7.037  11.528  1.1849  1.8004 -0.9070
   20bbb    H14  601   4.768   7.054  11.422  3.0567  1.4866  1.4151
   20bbb     C8  602   5.212   6.550  11.427  0.3970 -0.2082 -0.3046
   20bbb    H15  603   5.231   6.603  11.332 -0.4056 -0.7711 -0.7886
   20bbb    H16  604   5.210   6.444  11.400 -3.7577 -0.7023  1.2848
   20bbb     C9  605   4.654   6.599  11.031  0.0028 -0.7068  0.4201
   20bbb    H17  606   4.651   6.489  11.029 -2.6494 -0.6998 -1.1407
   20bbb    H18  607   4.691   6.629  10.932 -2.4602 -1.8772 -0.9627
   20bbb     O1  608   4.805   7.000  11.614  0.7969 -0.2590 -0.1215
   21bbb     N1  609   5.325   7.747  11.094 -0.1028 -0.9909  0.1757
   21bbb     C1  610   5.465   7.772  11.048  0.2701  0.4793 -0.3175
   21bbb     H1  611   5.483   7.750  10.942 -1.5666  1.2570 -0.8298
   21bbb     H2  612   5.538   7.709  11.099  1.0577  0.3317 -1.5636
   21bbb     C2  613   5.245   7.680  10.986  0.1310 -0.8587  0.1231
   21bbb     H3  614   5.151   7.643  11.028 -1.4177  0.9519 -1.5962
   21bbb     H4  615   5.302   7.590  10.958  0.2259 -0.5929 -0.5620
   21bbb     C3  616   5.304   7.682  11.230 -0.0715  0.6406  0.7061
   21bbb     H5  617   5.333   7.577  11.232 -3.3175 -0.4179 -0.3667
   21bbb     H6  618   5.195   7.674  11.244 -0.3062 -1.0346 -1.5336
   21bbb     C4  619   5.366   7.762  11.342  0.1820 -0.9245 -0.1707
   21bbb     H7  620   5.342   7.866  11.315 -0.7446 -1.4099 -1.3665
   21bbb     H8  621   5.475   7.759  11.341  0.1728 -1.2961 -1.2005
   21bbb     C5  622   5.506   7.918  11.072 -0.3909  0.2760  0.4776
   21bbb     H9  623   5.477   7.950  11.172  2.3805 -0.7372  1.6961
   21bbb    H10  624   5.439   7.977  11.008  0.2931 -0.9433 -1.4675
   21bbb     C6  625   5.213   7.757  10.855 -0.4364 -0.2339 -0.1737
   21bbb    H11  626   5.301   7.772  10.792 -0.3093 -0.0910  0.0353
   21bbb    H12  627   5.178   7.855  10.888  0.5457 -0.1472  0.6527
   21bbb     C7  628   5.303   7.720  11.484 -0.5521 -0.6892 -0.3440
   21bbb    H13  629   5.195   7.737  11.472 -0.4297  0.7616  0.4169
   21bbb    H14  630   5.341   7.784  11.564 -2.1847 -0.3483  0.1892
   21bbb     C8  631   5.105   7.691  10.760 -0.3020  0.3243  0.3529
   21bbb    H15  632   5.067   7.769  10.692 -0.2451  1.5660  1.6900
   21bbb    H16  633   5.023   7.647  10.818  0.2809 -0.5661  0.5159
   21bbb     C9  634   5.654   7.957  11.052 -0.4186 -0.0602  0.5846
   21bbb    H17  635   5.706   7.876  11.103  0.5557  0.4572  0.4449
   21bbb    H18  636   5.685   8.050  11.101  1.1402 -0.4024  0.2941
   21bbb     O1  637   5.329   7.579  11.507  0.0368  0.2822  0.4516
   22bbb     N1  638   5.182   6.183  11.841  0.4796 -1.1147  0.3853
   22bbb     C1  639   5.277   6.298  11.814  0.3583  0.5317 -0.2894
   22bbb     H1  640   5.232   6.371  11.746  1.6044  0.8087 -0.8556
   22bbb     H2  641   5.369   6.264  11.765  3.0151  1.3720  3.6105
   22bbb     C2  642   5.233   6.088  11.934 -0.7381  0.4169 -0.1329
   22bbb     H3  643   5.272   6.142  12.021 -1.4546  0.8166 -0.0507
   22bbb     H4  644   5.317   6.026  11.902  0.7833  2.3588 -0.1126
   22bbb     C3  645   5.131   6.112  11.717  0.5347 -0.6455 -0.3324
   22bbb     H5  646   5.046   6.048  11.744 -0.5530 -0.2282 -2.5654
   22bbb     H6  647   5.209   6.048  11.675  0.2596 -0.9247 -0.4134
   22bbb     C4  648   5.071   6.207  11.611 -0.1615 -0.3260  0.0669
   22bbb     H7  649   5.145   6.274  11.567 -0.5009  0.2640  0.3714
   22bbb     H8  650   4.997   6.273  11.660 -2.2698 -3.0081  0.7353
   22bbb     C5  651   5.336   6.374  11.944  0.0384  0.1312  0.7152
   22bbb     H9  652   5.387   6.306  12.013  0.0424  0.6388  1.2259
   22bbb    H10  653   5.255   6.419  12.003 -1.9311 -2.3770  0.1140
   22bbb     C6  654   5.135   5.978  11.993 -0.0180  0.1816  0.3343
   22bbb    H11  655   5.085   5.910  11.922  1.1054 -0.1840 -0.1256
   22bbb    H12  656   5.047   6.028  12.035 -1.1672 -0.4979 -1.1436
   22bbb     C7  657   4.998   6.133  11.484 -0.4662  0.3736 -1.0092
   22bbb    H13  658   5.078   6.080  11.431 -0.8913 -0.9067 -0.3994
   22bbb    H14  659   4.958   6.203  11.409  0.2223 -0.3128 -2.0400
   22bbb     C8  660   5.213   5.893  12.096  0.3251 -0.3549  0.4032
   22bbb    H15  661   5.311   5.854  12.065  0.5906  0.8146 -0.2974
   22bbb    H16  662   5.154   5.801  12.113 -1.0504  0.5168  0.5018
   22bbb     C9  663   5.431   6.484  11.900  0.0661  0.2767 -0.2681
   22bbb    H17  664   5.445   6.558  11.981 -0.2823 -0.1692  0.2088
   22bbb    H18  665   5.378   6.537  11.820  1.3474 -1.1086 -2.0974
   22bbb     O1  666   4.893   6.052  11.533  0.5406  0.7200  0.0567
   23bbb     N1  667   4.147   5.721  11.284  0.5413 -0.2057  0.6840
   23bbb     C1  668   4.108   5.822  11.388 -0.0677 -0.3646 -0.1191
   23bbb     H1  669   4.178   5.906  11.390  0.2544 -0.5978  2.7650
   23bbb     H2  670   4.111   5.780  11.489 -0.8154 -1.1839 -0.4210
   23bbb     C2  671   4.112   5.759  11.140  0.3364  0.5221 -0.8635
   23bbb     H3  672   4.175   5.838  11.099  2.4442 -0.6682 -0.0710
   23bbb     H4  673   4.011   5.800  11.125  0.0669 -0.9368 -3.5437
   23bbb     C3  674   4.286   5.680  11.313  0.2370  0.8622 -0.4514
   23bbb     H5  675   4.361   5.759  11.300  1.9452 -0.6310 -0.2648
   23bbb     H6  676   4.309   5.607  11.234 -2.5534  0.5506 -1.0822
   23bbb     C4  677   4.302   5.600  11.447 -0.1982 -0.1013  0.9008
   23bbb     H7  678   4.238   5.511  11.453 -0.4910  0.0005 -0.4151
   23bbb     H8  679   4.280   5.673  11.526 -0.2679  0.4050  0.4221
   23bbb     C5  680   3.969   5.895  11.375  0.1211 -0.2343  0.0908
   23bbb     H9  681   3.892   5.817  11.383 -0.0228  0.0317  1.5345
   23bbb    H10  682   3.964   5.943  11.277 -1.7934  0.7674  0.6335
   23bbb     C6  683   4.119   5.638  11.050  0.1341  0.5948  0.0197
   23bbb    H11  684   4.061   5.550  11.083 -1.3115  0.5675 -2.3205
   23bbb    H12  685   4.222   5.601  11.041  0.0068  0.5868 -1.6649
   23bbb     C7  686   4.451   5.554  11.454  0.1352 -0.3990 -0.1285
   23bbb    H13  687   4.461   5.505  11.551  0.4361  1.8578  1.0436
   23bbb    H14  688   4.517   5.642  11.455  1.1743 -1.1765  0.1870
   23bbb     C8  689   4.069   5.672  10.904 -0.2882 -0.1847  0.0622
   23bbb    H15  690   4.117   5.763  10.868  0.7048 -1.3074 -1.6329
   23bbb    H16  691   3.960   5.687  10.901 -0.2943 -0.3508 -1.6695
   23bbb     C9  692   3.953   6.001  11.489 -0.0634  0.1941  0.0528
   23bbb    H17  693   3.952   5.951  11.587  0.7116 -0.7021 -0.3720
   23bbb    H18  694   3.854   6.046  11.484 -1.2038 -2.2809 -1.7022
   23bbb     O1  695   4.492   5.458  11.359  0.3216  0.2131 -0.0960
   24bbb     N1  696   4.569   6.121  10.090  0.0221 -0.0134  0.3960
   24bbb     C1  697   4.442   6.188  10.052 -0.8012  0.2667  0.3473
   24bbb     H1  698   4.461   6.236   9.955  0.6415  0.4704  0.7187
   24bbb     H2  699   4.415   6.266  10.123  0.4664 -0.1703  1.3478
   24bbb     C2  700   4.609   6.006  10.011 -0.0653 -0.2334 -0.0118
   24bbb     H3  701   4.536   5.924  10.014 -1.4293  0.7363 -2.9625
   24bbb     H4  702   4.708   5.971  10.043  0.3956 -0.2459 -1.3702
   24bbb     C3  703   4.684   6.205  10.126 -0.0121  0.1735  0.0875
   24bbb     H5  704   4.725   6.273  10.050  0.4321 -0.1043  0.0755
   24bbb     H6  705   4.772   6.143  10.149  0.2377  0.7149  0.6050
   24bbb     C4  706   4.664   6.283  10.257  0.3198 -0.4069 -0.2921
   24bbb     H7  707   4.572   6.344  10.251 -0.5957 -1.7622 -0.6346
   24bbb     H8  708   4.749   6.348  10.280 -1.5963  2.2086 -0.1403
   24bbb     C5  709   4.322   6.103  10.035 -0.1553 -0.2757 -0.0971
   24bbb     H9  710   4.327   6.045   9.942 -2.5454  1.8011 -1.6444
   24bbb    H10  711   4.244   6.177  10.014 -1.1486 -0.8733  1.3661
   24bbb     C6  712   4.627   6.037   9.861  1.0118 -0.2883  0.0831
   24bbb    H11  713   4.649   6.144   9.848 -0.9972  0.2531  0.8178
   24bbb    H12  714   4.530   6.018   9.813  1.6125 -3.9537  0.0399
   24bbb     C7  715   4.644   6.183  10.374  0.0184 -0.7095 -0.0400
   24bbb    H13  716   4.735   6.126  10.396  0.0698 -0.3362  0.7526
   24bbb    H14  717   4.581   6.102  10.337  0.5857 -0.8013 -0.8445
   24bbb     C8  718   4.741   5.954   9.798  0.0369 -0.5907  0.3750
   24bbb    H15  719   4.730   5.855   9.842  2.7565 -1.0795  0.1004
   24bbb    H16  720   4.834   5.994   9.840 -0.2264 -0.1028  0.5089
   24bbb     C9  721   4.286   6.016  10.150 -0.0803  0.2631 -0.5729
   24bbb    H17  722   4.273   6.081  10.237 -1.1916  0.3430 -0.7737
   24bbb    H18  723   4.362   5.946  10.188 -0.4264  0.1549 -0.0535
   24bbb     O1  724   4.597   6.253  10.496 -0.2390  0.6111  0.4361
   25bbb     N1  725   4.719   5.285  10.843  0.8760 -0.4389  0.7927
   25bbb     C1  726   4.714   5.249  10.987 -0.5308 -0.3383 -0.4866
   25bbb     H1  727   4.618   5.287  11.022  0.0417  1.3948 -0.7185
   25bbb     H2  728   4.789   5.293  11.053 -0.5659 -1.2225  0.1712
   25bbb     C2  729   4.843   5.263  10.767 -0.3481 -0.8968 -0.2090
   25bbb     H3  730   4.889   5.165  10.787 -1.2329 -1.3259 -0.2029
   25bbb     H4  731   4.913   5.345  10.783 -1.1508 -0.3013  0.3393
   25bbb     C3  732   4.656   5.411  10.821 -1.0062 -0.8108 -0.2229
   25bbb     H5  733   4.720   5.476  10.760 -0.1016 -0.2663  1.2435
   25bbb     H6  734   4.641   5.463  10.916  2.3016 -0.0399  0.0084
   25bbb     C4  735   4.511   5.410  10.768  0.1081  0.0247  0.1562
   25bbb     H7  736   4.447   5.376  10.850  0.8319  1.0024  1.1596
   25bbb     H8  737   4.497   5.352  10.676 -0.0712 -0.9788  0.8032
   25bbb     C5  738   4.706   5.101  11.004  0.2481 -0.0259  0.0356
   25bbb     H9  739   4.798   5.045  10.986 -0.3352 -1.1001  0.3181
   25bbb    H10  740   4.630   5.071  10.930  0.8579 -1.5063 -0.0050
   25bbb     C6  741   4.817   5.267  10.616  0.2143 -0.1417 -0.3388
   25bbb    H11  742   4.772   5.363  10.588 -1.7418 -0.6530  0.8839
   25bbb    H12  743   4.739   5.192  10.596 -0.8207  1.3174 -2.0715
   25bbb     C7  744   4.464   5.550  10.726 -0.0540  0.6509  0.8564
   25bbb    H13  745   4.356   5.544  10.708  0.0614  0.7795  0.0767
   25bbb    H14  746   4.506   5.575  10.627  0.3397  0.7059  1.0363
   25bbb     C8  747   4.945   5.220  10.534 -0.4795  0.2497  0.3635
   25bbb    H15  748   4.996   5.131  10.573 -0.3454 -0.8649 -2.1236
   25bbb    H16  749   5.018   5.302  10.530  1.3848 -1.3558 -0.8558
   25bbb     C9  750   4.647   5.050  11.130  0.4296 -0.7409 -0.4438
   25bbb    H17  751   4.658   4.941  11.133  2.0006 -0.6105 -0.2833
   25bbb    H18  752   4.539   5.068  11.137  0.2802 -1.8661  0.5706
   25bbb     O1  753   4.491   5.630  10.839 -0.9347 -0.6071 -0.2645
   26bbb     N1  754   5.807   7.159  10.651 -0.7687  0.4274  0.3734
   26bbb     C1  755   5.886   7.146  10.524  0.1826 -0.2593 -0.6633
   26bbb     H1  756   5.812   7.149  10.442  0.3112  0.5455 -0.7563
   26bbb     H2  757   5.943   7.053  10.513  2.0761  0.7646  0.0377
   26bbb     C2  758   5.877   7.166  10.779 -0.2427 -0.3089  0.5702
   26bbb     H3  759   5.812   7.176  10.867 -1.1059 -0.6875 -0.0097
   26bbb     H4  760   5.940   7.256  10.778  0.6242 -0.9005  0.8208
   26bbb     C3  761   5.697   7.060  10.645  0.1318  0.0580 -0.3696
   26bbb     H5  762   5.736   6.958  10.660  0.8650  0.4870  0.7747
   26bbb     H6  763   5.649   7.063  10.546  0.0097 -0.2628 -0.3224
   26bbb     C4  764   5.584   7.070  10.750  0.0887 -0.0703 -0.0460
   26bbb     H7  765   5.492   7.033  10.705  0.7311 -1.1241 -0.5392
   26bbb     H8  766   5.574   7.176  10.777 -0.8775 -0.7175  2.3717
   26bbb     C5  767   5.973   7.270  10.507 -0.2643  0.5585 -0.4732
   26bbb     H9  768   6.061   7.247  10.569 -0.5482  0.2140 -0.1980
   26bbb    H10  769   5.934   7.358  10.561 -1.3717 -0.8678  1.1572
   26bbb     C6  770   5.974   7.046  10.800  0.1192  0.6808 -0.1848
   26bbb    H11  771   6.038   7.041  10.711 -1.0117 -0.5265 -0.9715
   26bbb    H12  772   5.914   6.956  10.783 -1.1453  1.5408 -0.4296
   26bbb     C7  773   5.609   6.986  10.878  0.3229  0.1640  0.3840
   26bbb    H13  774   5.550   7.030  10.959  1.7557 -0.6133  1.9079
   26bbb    H14  775   5.710   7.000  10.917  0.1100  0.1798  0.9288
   26bbb     C8  776   6.041   7.037  10.938 -0.9069 -1.1971  0.6388
   26bbb    H15  777   6.093   7.129  10.966  1.4798 -1.4430 -2.3961
   26bbb    H16  778   6.124   6.965  10.940 -1.4469 -1.8400  0.4334
   26bbb     C9  779   6.012   7.306  10.356  0.3476  0.9491 -0.0814
   26bbb    H17  780   6.045   7.410  10.364  1.8809  0.4862  0.1473
   26bbb    H18  781   5.924   7.299  10.292 -0.3926 -1.1734  1.0579
   26bbb     O1  782   5.576   6.846  10.857 -0.5045  0.4425  0.0457
   27bbb     N1  783   6.403   7.034  10.592  0.2151 -0.1826 -0.0818
   27bbb     C1  784   6.448   7.132  10.686 -0.4985  0.5538  0.1234
   27bbb     H1  785   6.482   7.220  10.630  1.5421 -0.8394 -0.9553
   27bbb     H2  786   6.527   7.079  10.740  0.1692 -3.8114 -4.4864
   27bbb     C2  787   6.503   7.015  10.480 -0.5928  1.0666  0.5227
   27bbb     H3  788   6.569   6.932  10.511 -0.1715  1.3503  0.3884
   27bbb     H4  789   6.563   7.106  10.475 -2.0607  2.0212 -0.2858
   27bbb     C3  790   6.361   6.903  10.652 -0.2824 -0.4985  0.0731
   27bbb     H5  791   6.336   6.843  10.564 -0.0083 -2.2193  1.1252
   27bbb     H6  792   6.268   6.909  10.710 -1.2809 -0.9046 -1.4420
   27bbb     C4  793   6.470   6.827  10.729  0.2504  0.5782  0.5925
   27bbb     H7  794   6.525   6.891  10.799  0.9725 -0.3749  0.9128
   27bbb     H8  795   6.542   6.784  10.658 -0.0048  0.3924  0.4440
   27bbb     C5  796   6.338   7.176  10.786 -0.2191  0.1906  0.4454
   27bbb     H9  797   6.294   7.088  10.833 -0.1351  0.3490  0.8222
   27bbb    H10  798   6.256   7.231  10.738 -0.8050 -1.8180 -0.9764
   27bbb     C6  799   6.429   6.979  10.351 -0.3819  0.2290  0.4225
   27bbb    H11  800   6.341   7.043  10.339 -1.1371 -1.0577 -1.5010
   27bbb    H12  801   6.402   6.873  10.356  0.6569 -0.2856 -2.5716
   27bbb     C7  802   6.418   6.706  10.801  0.3068  0.5182 -0.0114
   27bbb    H13  803   6.497   6.642  10.841  0.8033 -0.1688 -1.9815
   27bbb    H14  804   6.371   6.645  10.724 -0.1282  2.2514 -1.1807
   27bbb     C8  805   6.523   7.004  10.225 -0.0070  0.2658  0.0022
   27bbb    H15  806   6.473   6.960  10.137 -2.9499  1.2419  1.0726
   27bbb    H16  807   6.611   6.943  10.249 -0.4499  0.4259  2.2187
   27bbb     C9  808   6.390   7.282  10.891  0.7535 -0.3500 -0.7934
   27bbb    H17  809   6.401   7.388  10.864  0.8246 -0.2653 -0.4397
   27bbb    H18  810   6.492   7.251  10.916  1.4679  3.7865  2.5348
   27bbb     O1  811   6.330   6.755  10.904 -0.2234  0.6416  0.4224
   28bbb     N1  812   5.962   6.517  12.278  0.2033 -0.3104 -0.4239
   28bbb     C1  813   5.985   6.665  12.272 -0.1745 -0.8605  0.7276
   28bbb     H1  814   6.083   6.690  12.313  0.3408  0.4485 -1.1598
   28bbb     H2  815   5.912   6.718  12.334  0.1025 -0.2012  0.4960
   28bbb     C2  816   6.020   6.449  12.397 -0.3011  0.5809 -0.8611
   28bbb     H3  817   6.120   6.482  12.426 -0.5037  0.6210 -0.1763
   28bbb     H4  818   6.022   6.340  12.384 -1.4219 -0.0314  2.8880
   28bbb     C3  819   5.822   6.477  12.253  0.8112  1.0924  0.3082
   28bbb     H5  820   5.776   6.544  12.180  1.4419  1.8819  0.6216
   28bbb     H6  821   5.762   6.485  12.345  1.3280 -0.7519  0.8636
   28bbb     C4  822   5.816   6.327  12.205  0.0325  0.4778 -0.5200
   28bbb     H7  823   5.840   6.259  12.288  0.8470  1.9350  0.5063
   28bbb     H8  824   5.894   6.309  12.130  1.3230 -2.6032  1.3357
   28bbb     C5  825   5.982   6.733  12.135  0.0099  0.0609 -0.0978
   28bbb     H9  826   5.890   6.714  12.077  0.7555 -0.5426 -1.1192
   28bbb    H10  827   6.059   6.678  12.080 -0.8415 -2.2331  0.8920
   28bbb     C6  828   5.940   6.473  12.529  0.5122  0.0844 -0.0487
   28bbb    H11  829   6.010   6.437  12.606  1.3558 -0.9867 -1.2925
   28bbb    H12  830   5.849   6.414  12.516  0.2585  0.4903 -0.1107
   28bbb     C7  831   5.675   6.281  12.153 -0.5416 -0.7814 -0.4131
   28bbb    H13  832   5.640   6.353  12.078 -1.9898 -0.1617  0.8169
   28bbb    H14  833   5.597   6.277  12.230  0.3669  0.0943  0.5849
   28bbb     C8  834   5.886   6.607  12.571 -0.6826 -0.1211 -0.5717
   28bbb    H15  835   5.808   6.651  12.507 -0.2315  0.8339 -0.4897
   28bbb    H16  836   5.967   6.681  12.583 -0.6546 -0.3735  1.0906
   28bbb     C9  837   6.001   6.887  12.158 -0.2317  0.3863  0.0618
   28bbb    H17  838   6.107   6.911  12.177  0.2897 -0.8778 -1.0226
   28bbb    H18  839   5.930   6.909  12.238 -0.8495 -1.2034 -0.0247
   28bbb     O1  840   5.699   6.154  12.087  0.0284 -0.4541 -0.0814
   29bbb     N1  841   6.140   6.090  12.475  0.5000  0.5784  0.4479
   29bbb     C1  842   6.268   6.015  12.458 -0.4638 -0.6945  0.1276
   29bbb     H1  843   6.257   5.913  12.497  2.0198 -1.3565 -0.7245
   29bbb     H2  844   6.352   6.044  12.522 -1.9046 -1.0337  2.2693
   29bbb     C2  845   6.124   6.133  12.615 -0.1218  0.4638  0.4218
   29bbb     H3  846   6.109   6.045  12.678  1.7192  0.0402  0.3255
   29bbb     H4  847   6.033   6.194  12.614 -2.5108 -2.7942  1.7466
   29bbb     C3  848   6.020   6.035  12.412  0.3844 -0.3274 -0.7858
   29bbb     H5  849   6.042   6.035  12.305 -0.4417  1.5375 -0.9922
   29bbb     H6  850   5.937   6.105  12.422 -1.0251 -1.7388 -2.1371
   29bbb     C4  851   5.979   5.888  12.439 -0.3585 -0.0320 -0.3675
   29bbb     H7  852   5.940   5.877  12.541 -1.8244  0.7447 -0.8083
   29bbb     H8  853   6.062   5.817  12.434 -1.0492 -0.8455 -0.5175
   29bbb     C5  854   6.315   6.011  12.310  0.5162  0.4445  0.2856
   29bbb     H9  855   6.248   5.944  12.253  0.8190 -0.9590  1.5328
   29bbb    H10  856   6.406   5.950  12.306 -1.4974 -2.7675 -0.3885
   29bbb     C6  857   6.235   6.210  12.686  0.3786  0.2728  0.0429
   29bbb    H11  858   6.315   6.142  12.718  1.2634  0.5963 -1.3941
   29bbb    H12  859   6.198   6.252  12.780 -0.4802 -1.9529  0.7666
   29bbb     C7  860   5.863   5.827  12.359 -0.1866  0.6027  0.2857
   29bbb    H13  861   5.783   5.901  12.348  1.9919  3.0249 -0.4387
   29bbb    H14  862   5.815   5.747  12.416  0.4791  1.1255  1.6172
   29bbb     C8  863   6.304   6.315  12.591  0.1267 -0.1625  0.0376
   29bbb    H15  864   6.235   6.347  12.512  0.6423  1.3726  0.1629
   29bbb    H16  865   6.394   6.269  12.549  0.9395  1.6921 -0.3561
   29bbb     C9  866   6.326   6.151  12.240  0.1358  0.0129 -0.0210
   29bbb    H17  867   6.240   6.214  12.265 -2.1906 -2.9018 -0.1529
   29bbb    H18  868   6.307   6.147  12.132 -0.8463  0.9887  0.0968
   29bbb     O1  869   5.901   5.759  12.233  0.4937 -0.0019 -0.0261
   30bbb     N1  870   4.615   5.519   9.991 -0.1043  0.1013 -0.2038
   30bbb     C1  871   4.536   5.397  10.018 -0.0205  0.2971 -0.3822
   30bbb     H1  872   4.427   5.415  10.015 -0.0491  0.0629 -0.7346
   30bbb     H2  873   4.559   5.359  10.118  0.7781 -0.0030 -0.6785
   30bbb     C2  874   4.627   5.563   9.854  0.8797 -0.0898  0.0132
   30bbb     H3  875   4.673   5.486   9.791 -1.7085 -0.4535 -1.5430
   30bbb     H4  876   4.704   5.640   9.866  0.0197  0.6365  1.0221
   30bbb     C3  877   4.587   5.617  10.089 -0.4233 -0.4603  0.0959
   30bbb     H5  878   4.479   5.635  10.097 -0.3179  1.2433 -1.5889
   30bbb     H6  879   4.625   5.715  10.058 -2.2321 -0.1689 -1.4359
   30bbb     C4  880   4.640   5.595  10.233 -0.5501  0.2342  0.8069
   30bbb     H7  881   4.749   5.589  10.230 -0.5887 -2.0635  1.7335
   30bbb     H8  882   4.602   5.498  10.268 -0.3935  0.2274  0.9569
   30bbb     C5  883   4.549   5.282   9.918 -0.6147  1.0503  0.5957
   30bbb     H9  884   4.654   5.250   9.912 -0.2207  2.3024  0.5222
   30bbb    H10  885   4.524   5.301   9.813 -1.8972 -0.6061  0.5597
   30bbb     C6  886   4.503   5.623   9.787 -0.6803 -0.2049 -0.1962
   30bbb    H11  887   4.482   5.717   9.838 -1.3039 -1.5859  2.2683
   30bbb    H12  888   4.410   5.568   9.810 -1.7828  0.3541 -2.9337
   30bbb     C7  889   4.608   5.709  10.329 -0.6617 -0.0949 -0.9303
   30bbb    H13  890   4.536   5.674  10.403  0.5857  1.6322  1.2225
   30bbb    H14  891   4.570   5.795  10.273 -1.2200 -0.1086 -0.5752
   30bbb     C8  892   4.529   5.642   9.633  0.4596 -0.2312 -0.0875
   30bbb    H15  893   4.615   5.710   9.623  0.8914 -0.5374  1.3322
   30bbb    H16  894   4.444   5.682   9.576 -0.5715 -2.0423  0.0799
   30bbb     C9  895   4.457   5.156   9.958  0.5955 -0.1181  0.5733
   30bbb    H17  896   4.436   5.095   9.869  0.3993  2.3352 -1.1596
   30bbb    H18  897   4.359   5.199   9.982 -0.0414 -1.9619  1.5466
   30bbb     O1  898   4.727   5.732  10.400  0.4572 -0.2198 -0.7164
   31bbb     N1  899   5.372   5.129  10.902  0.0574  0.2077  0.5165
   31bbb     C1  900   5.462   5.047  10.990 -0.1403  0.1949  0.8050
   31bbb     H1  901   5.426   5.048  11.094  1.1476  1.3810  1.2835
   31bbb     H2  902   5.555   5.106  10.997 -1.1489  1.8874  0.6049
   31bbb     C2  903   5.255   5.053  10.860  0.3134 -0.2161  0.3578
   31bbb     H3  904   5.279   4.964  10.801  1.0519  0.0547  0.2334
   31bbb     H4  905   5.191   5.107  10.789 -0.1903 -0.0642  0.9211
   31bbb     C3  906   5.342   5.266  10.953 -0.2986  0.4945 -0.1149
   31bbb     H5  907   5.437   5.318  10.973  0.9181 -0.6773 -2.5107
   31bbb     H6  908   5.293   5.252  11.050 -1.5716  1.1872 -0.6345
   31bbb     C4  909   5.251   5.355  10.867 -0.2351 -0.6137  0.5577
   31bbb     H7  910   5.222   5.449  10.915 -1.6700 -0.3894 -0.6629
   31bbb     H8  911   5.155   5.311  10.837  0.2952 -0.0708 -2.2059
   31bbb     C5  912   5.489   4.899  10.957  0.3193  0.6843  0.5678
   31bbb     H9  913   5.494   4.877  10.849 -0.2908 -2.1947  1.0553
   31bbb    H10  914   5.407   4.835  10.990  0.0961  0.4962 -0.3074
   31bbb     C6  915   5.160   5.018  10.976  0.2863  0.5494  0.7042
   31bbb    H11  916   5.088   5.099  10.994 -1.6392 -0.7782 -0.6667
   31bbb    H12  917   5.215   4.986  11.065 -0.8281 -0.1525  1.1693
   31bbb     C7  918   5.319   5.389  10.726 -0.0414  0.6208 -0.3082
   31bbb    H13  919   5.327   5.298  10.666  0.0599 -0.4696  1.2785
   31bbb    H14  920   5.421   5.429  10.736  0.2610  0.0712 -1.1509
   31bbb     C8  921   5.074   4.894  10.943  0.4590  0.1154  0.6276
   31bbb    H15  922   4.992   4.889  11.016  2.5469 -0.3158  3.0789
   31bbb    H16  923   5.126   4.799  10.956 -1.3154 -1.2511 -1.5473
   31bbb     C9  924   5.625   4.845  11.015 -0.7566  0.2526  0.2846
   31bbb    H17  925   5.699   4.873  10.939  0.2682  0.1675  1.2263
   31bbb    H18  926   5.625   4.735  11.012 -0.8821  0.2734 -1.2085
   31bbb     O1  927   5.235   5.481  10.660  0.0585  0.0170 -0.5052
   32bbb     N1  928   5.834   5.892   9.556 -0.2292  0.4977  0.7501
   32bbb     C1  929   5.879   5.930   9.691 -0.7039 -0.4426  0.0712
   32bbb     H1  930   5.975   5.880   9.707  0.6370  1.6131 -1.0885
   32bbb     H2  931   5.805   5.896   9.764 -1.0956  1.6275  0.7026
   32bbb     C2  932   5.913   5.931   9.443  0.0785 -0.0269  0.0706
   32bbb     H3  933   5.914   6.040   9.430  0.7031  0.2140  1.9520
   32bbb     H4  934   5.871   5.882   9.354  1.7778 -0.6914 -0.4002
   32bbb     C3  935   5.692   5.918   9.530  0.7227  0.1015 -0.8339
   32bbb     H5  936   5.668   5.898   9.425 -1.3119  1.0782 -0.6006
   32bbb     H6  937   5.658   6.015   9.570 -0.2054 -0.8323  0.7638
   32bbb     C4  938   5.598   5.823   9.612  0.1304  0.6824 -0.2531
   32bbb     H7  939   5.623   5.812   9.718  2.3250 -0.1446 -0.8110
   32bbb     H8  940   5.603   5.722   9.570 -2.4264  1.5525 -3.0140
   32bbb     C5  941   5.905   6.084   9.708 -0.4965 -0.4099  0.1187
   32bbb     H9  942   5.822   6.147   9.672  0.5591  0.2612 -1.2243
   32bbb    H10  943   5.988   6.114   9.644 -1.0547  2.7022  0.7003
   32bbb     C6  944   6.057   5.887   9.444  0.1529 -0.2017 -0.2193
   32bbb    H11  945   6.120   5.924   9.526 -0.1383 -2.1035  0.9278
   32bbb    H12  946   6.098   5.914   9.346  0.2904 -0.8437 -0.3450
   32bbb     C7  947   5.454   5.871   9.600  0.0629 -0.3034  0.7003
   32bbb    H13  948   5.412   5.897   9.502  1.0437  3.2552  1.0693
   32bbb    H14  949   5.444   5.964   9.658  0.7597 -0.5725  1.2700
   32bbb     C8  950   6.069   5.736   9.465 -0.2410  0.0424 -0.6381
   32bbb    H15  951   6.032   5.692   9.371  1.8787  0.8078 -1.9208
   32bbb    H16  952   6.000   5.709   9.546  0.5886 -0.9427 -0.2309
   32bbb     C9  953   5.933   6.116   9.850 -0.1703 -0.0815 -0.0030
   32bbb    H17  954   5.838   6.086   9.894 -1.3758  1.7108 -1.2418
   32bbb    H18  955   5.960   6.223   9.849 -0.3127 -0.0323 -2.1257
   32bbb     O1  956   5.380   5.776   9.669 -0.4939 -0.1484 -0.1432
   33bbb     N1  957   4.815   5.331   8.835 -0.4212  0.2822 -0.0170
   33bbb     C1  958   4.800   5.186   8.821 -0.3278 -0.0349 -0.2395
   33bbb     H1  959   4.787   5.151   8.718  0.2845  0.7528 -0.5945
   33bbb     H2  960   4.715   5.160   8.886  0.0542 -0.1387  0.2262
   33bbb     C2  961   4.709   5.406   8.769  0.4212 -0.1141  0.4148
   33bbb     H3  962   4.705   5.511   8.800 -0.9737  0.3973 -1.3215
   33bbb     H4  963   4.612   5.356   8.778  0.9685 -0.7851  3.8407
   33bbb     C3  964   4.831   5.371   8.974 -0.3136  0.1148  0.5492
   33bbb     H5  965   4.902   5.303   9.023  2.0563  0.9429 -1.5286
   33bbb     H6  966   4.732   5.373   9.022  0.0110 -2.5744  1.4943
   33bbb     C4  967   4.902   5.508   8.989 -0.1614 -0.3096 -0.1702
   33bbb     H7  968   4.855   5.581   8.922  0.7722  1.2177  0.7790
   33bbb     H8  969   5.006   5.496   8.956 -0.0080  0.5724 -0.0366
   33bbb     C5  970   4.918   5.110   8.861 -0.3980 -0.1077  0.5506
   33bbb     H9  971   4.911   5.008   8.819  0.6160  0.1345 -0.2513
   33bbb    H10  972   4.910   5.102   8.970 -1.3525 -0.9963  0.4246
   33bbb     C6  973   4.744   5.428   8.625 -0.4702 -0.6875  0.4452
   33bbb    H11  974   4.678   5.504   8.582  1.2243  0.2796 -0.5425
   33bbb    H12  975   4.717   5.328   8.589 -0.2194 -0.0940 -1.5153
   33bbb     C7  976   4.898   5.563   9.133 -0.5267 -0.0513  0.6110
   33bbb    H13  977   4.795   5.597   9.150  0.2556  2.2663  1.1550
   33bbb    H14  978   4.966   5.647   9.155 -1.7311  0.4912  2.5005
   33bbb     C8  979   4.893   5.470   8.609  0.2057  0.4878  0.3170
   33bbb    H15  980   4.940   5.374   8.587 -0.8075  0.4308 -1.9075
   33bbb    H16  981   4.912   5.522   8.704 -1.2984 -0.5693  1.2384
   33bbb     C9  982   5.053   5.164   8.812  0.0052 -0.4456  0.5144
   33bbb    H17  983   5.138   5.119   8.865  0.0861  0.4118  1.1291
   33bbb    H18  984   5.061   5.272   8.828  1.0157 -0.4701  0.3030
   33bbb     O1  985   4.937   5.458   9.228  0.1871  0.1713  0.4783
   34bbb     N1  986   5.213   6.606   9.910  0.1090  0.3988 -0.2084
   34bbb     C1  987   5.170   6.608  10.055 -0.3966  0.1570  0.3030
   34bbb     H1  988   5.228   6.537  10.114 -0.5819  0.5768  0.9973
   34bbb     H2  989   5.066   6.576  10.066 -0.2743 -0.2239  0.3759
   34bbb     C2  990   5.353   6.639   9.880 -0.6482  0.1504 -0.1312
   34bbb     H3  991   5.401   6.544   9.856 -0.0914 -0.2070  2.2248
   34bbb     H4  992   5.401   6.685   9.967 -3.3716 -0.0443  1.6182
   34bbb     C3  993   5.157   6.499   9.830 -0.6143  0.3938 -0.3502
   34bbb     H5  994   5.161   6.415   9.900  2.0471  0.7634  0.0637
   34bbb     H6  995   5.221   6.474   9.744 -0.7139  0.1241 -0.3450
   34bbb     C4  996   5.012   6.511   9.775  0.1117 -0.5183 -0.5718
   34bbb     H7  997   4.938   6.533   9.853 -0.0462  3.5725 -1.6332
   34bbb     H8  998   4.979   6.415   9.734 -0.1688 -0.6860  0.0304
   34bbb     C5  999   5.182   6.754  10.113 -0.2079 -0.6111  0.1741
   34bbb     H9 1000   5.102   6.813  10.066  1.1468  1.2401  0.0783
   34bbb    H10 1001   5.275   6.799  10.078  0.1969 -1.5275  0.0284
   34bbb     C6 1002   5.373   6.729   9.755 -0.0065  0.4678 -0.1015
   34bbb    H11 1003   5.328   6.668   9.675 -0.1575 -2.6027  2.1276
   34bbb    H12 1004   5.480   6.750   9.747  0.2573 -0.7178  0.0095
   34bbb     C7 1005   5.000   6.615   9.666 -0.4024 -0.2812 -0.1963
   34bbb    H13 1006   5.026   6.563   9.573  1.7146  0.3086  0.0034
   34bbb    H14 1007   5.074   6.696   9.674  1.0399 -1.1187 -3.2458
   34bbb     C8 1008   5.292   6.862   9.761  0.6902 -0.7256  0.9554
   34bbb    H15 1009   5.328   6.931   9.838 -1.3181  1.5218  0.0142
   34bbb    H16 1010   5.188   6.844   9.792  1.5002 -2.6038  2.8242
   34bbb     C9 1011   5.175   6.754  10.264 -0.4219 -0.1462 -0.5344
   34bbb    H17 1012   5.264   6.711  10.312 -0.7822  2.4292  2.8085
   34bbb    H18 1013   5.088   6.696  10.296 -1.1953 -0.2652 -2.6644
   34bbb     O1 1014   4.863   6.661   9.651 -0.8108  0.1591  0.2870
   35bbb     N1 1015   3.825   6.251   9.720 -0.5954  0.1790  0.2190
   35bbb     C1 1016   3.890   6.116   9.689  0.2270 -0.0339 -0.1751
   35bbb     H1 1017   3.858   6.037   9.757  0.7407 -1.8766 -1.9856
   35bbb     H2 1018   3.997   6.137   9.688  0.8220 -2.7979 -0.0415
   35bbb     C2 1019   3.860   6.296   9.858  0.5676 -0.6538 -0.0743
   35bbb     H3 1020   3.833   6.402   9.868 -1.3279 -1.2114  1.5333
   35bbb     H4 1021   3.969   6.301   9.864  0.5920  0.7266 -1.1113
   35bbb     C3 1022   3.854   6.354   9.621 -0.8161  0.4390  0.6383
   35bbb     H5 1023   3.788   6.433   9.659 -0.4301  0.0779  2.1495
   35bbb     H6 1024   3.808   6.318   9.529 -2.3409 -0.3317  1.6620
   35bbb     C4 1025   4.003   6.387   9.595 -0.1115 -0.6295 -0.5666
   35bbb     H7 1026   4.056   6.301   9.551  2.9879  1.5139 -1.3631
   35bbb     H8 1027   4.050   6.406   9.692 -1.5701 -3.1230  0.7369
   35bbb     C5 1028   3.858   6.055   9.556  0.3398 -0.0606  0.4910
   35bbb     H9 1029   3.884   6.127   9.477 -0.2238 -1.1684 -0.7616
   35bbb    H10 1030   3.749   6.040   9.551  0.4318 -1.1006  1.3884
   35bbb     C6 1031   3.801   6.209   9.967 -1.0949 -0.2570 -0.5032
   35bbb    H11 1032   3.863   6.236  10.054  1.3766  1.6850 -2.6892
   35bbb    H12 1033   3.809   6.103   9.940  0.7285 -0.2905 -0.0241
   35bbb     C7 1034   4.011   6.504   9.500 -0.1845  0.2798  0.2590
   35bbb    H13 1035   3.957   6.586   9.550 -0.2280  0.8953 -0.7676
   35bbb    H14 1036   3.970   6.478   9.402  1.5881 -1.3109 -0.1202
   35bbb     C8 1037   3.652   6.254   9.994 -0.3768 -0.2498  0.8313
   35bbb    H15 1038   3.612   6.202  10.081  0.0550 -0.9926  0.5954
   35bbb    H16 1039   3.592   6.239   9.903 -0.5452 -1.0412  1.0697
   35bbb     C9 1040   3.934   5.925   9.510  0.1417  0.2856 -0.1701
   35bbb    H17 1041   3.927   5.912   9.402 -0.9952 -0.4491 -0.0273
   35bbb    H18 1042   3.873   5.846   9.556 -2.1999  2.8459  1.4257
   35bbb     O1 1043   4.151   6.535   9.476 -0.2036 -0.0429 -0.6917
   36bbb     N1 1044   5.853   5.442   9.847 -0.2169 -0.0573  0.5175
   36bbb     C1 1045   5.718   5.445   9.914 -0.2916  0.3746  0.5806
   36bbb     H1 1046   5.649   5.458   9.830  1.3173 -2.5453 -1.3855
   36bbb     H2 1047   5.707   5.537   9.972 -1.4635  0.2033  0.6450
   36bbb     C2 1048   5.975   5.474   9.935  0.5916  0.0988 -0.9329
   36bbb     H3 1049   6.070   5.450   9.885 -0.4862 -0.8299 -2.6594
   36bbb     H4 1050   5.975   5.409  10.023 -1.5478  0.6542 -0.4449
   36bbb     C3 1051   5.868   5.499   9.709 -0.1106  0.3514  0.1158
   36bbb     H5 1052   5.968   5.478   9.669 -1.0765  0.6957 -2.7294
   36bbb     H6 1053   5.861   5.608   9.717  0.2043  0.2713  1.7813
   36bbb     C4 1054   5.772   5.454   9.601  0.3598 -0.1946 -0.3223
   36bbb     H7 1055   5.670   5.475   9.637  0.1252 -0.5838 -0.7433
   36bbb     H8 1056   5.783   5.347   9.578  2.5452  0.0373 -0.5727
   36bbb     C5 1057   5.669   5.327   9.993  0.5719  0.3826 -0.5787
   36bbb     H9 1058   5.732   5.307  10.080  0.2344 -0.8540 -0.6030
   36bbb    H10 1059   5.681   5.243   9.925  0.1612 -0.0290 -0.1526
   36bbb     C6 1060   5.971   5.622   9.988  0.4493  0.2761 -0.2087
   36bbb    H11 1061   5.871   5.658  10.014  0.0952  1.4428 -2.8329
   36bbb    H12 1062   5.988   5.689   9.903 -1.0320  1.7085  0.5774
   36bbb     C7 1063   5.792   5.532   9.471  0.0975 -0.1276 -0.1697
   36bbb    H13 1064   5.886   5.502   9.424  0.7992  0.7262  0.6661
   36bbb    H14 1065   5.797   5.637   9.501  0.1966 -0.8419  2.5740
   36bbb     C8 1066   6.071   5.658  10.100  0.4803  0.1486  0.5125
   36bbb    H15 1067   6.052   5.762  10.132  0.3762  0.1384  0.4847
   36bbb    H16 1068   6.171   5.655  10.054 -0.4264 -1.3570 -1.5174
   36bbb     C9 1069   5.519   5.335  10.028 -0.0622  0.1401 -0.5632
   36bbb    H17 1070   5.470   5.238  10.014 -1.0146  0.3630  1.0143
   36bbb    H18 1071   5.468   5.398   9.953  0.6144  1.8806  0.3983
   36bbb     O1 1072   5.677   5.499   9.387 -0.2037 -0.5300  0.4939
   37bbb     N1 1073   5.207   4.693   9.406  0.7069  0.6454  0.0573
   37bbb     C1 1074   5.101   4.592   9.371 -0.0002  0.0432 -0.0636
   37bbb     H1 1075   5.135   4.502   9.318 -0.7547 -1.8474  2.4437
   37bbb     H2 1076   5.020   4.635   9.311  0.5473 -2.1907 -2.5917
   37bbb     C2 1077   5.335   4.636   9.454  0.8302  0.7496  0.3187
   37bbb     H3 1078   5.368   4.555   9.388  1.8304 -0.5432  2.3027
   37bbb     H4 1079   5.319   4.596   9.555  1.2057  2.2611  0.9973
   37bbb     C3 1080   5.161   4.806   9.489 -0.6321 -0.6612  0.6336
   37bbb     H5 1081   5.238   4.885   9.490  1.0444 -2.1563 -1.6371
   37bbb     H6 1082   5.143   4.789   9.596 -0.8397  1.3437  0.9578
   37bbb     C4 1083   5.031   4.883   9.438 -0.0066 -0.0734 -0.4945
   37bbb     H7 1084   4.999   4.955   9.514 -1.1219 -1.1784  0.1159
   37bbb     H8 1085   4.944   4.817   9.437 -1.2486  1.5198 -1.4179
   37bbb     C5 1086   5.033   4.528   9.494  0.1019 -0.1020 -0.1109
   37bbb     H9 1087   4.954   4.597   9.525  2.4249  1.9192  1.7854
   37bbb    H10 1088   5.101   4.526   9.581 -0.1787 -3.1197  0.1278
   37bbb     C6 1089   5.455   4.732   9.453  0.2368 -0.0139 -0.5159
   37bbb    H11 1090   5.548   4.674   9.448  1.2712  1.4993  0.3348
   37bbb    H12 1091   5.456   4.795   9.543 -2.7242  1.3225 -1.2799
   37bbb     C7 1092   5.051   4.953   9.303 -0.3670  0.0953 -0.7786
   37bbb    H13 1093   4.956   5.003   9.281  0.4012  1.5104 -1.0161
   37bbb    H14 1094   5.073   4.882   9.222 -2.2314 -1.0021 -0.3881
   37bbb     C8 1095   5.460   4.818   9.324 -0.0815 -0.0553  0.7397
   37bbb    H15 1096   5.418   4.918   9.339  2.2157  1.6542 -2.9854
   37bbb    H16 1097   5.400   4.782   9.240  1.2828  3.3551 -1.9451
   37bbb     C9 1098   4.957   4.395   9.463  0.3606 -0.2544  0.2513
   37bbb    H17 1099   4.890   4.416   9.379 -0.5431 -4.3251 -0.2635
   37bbb    H18 1100   4.891   4.360   9.543 -0.9640 -0.6651 -0.9665
   37bbb     O1 1101   5.151   5.051   9.307 -0.3073 -0.3933 -0.3203
   38bbb     N1 1102   4.094   6.196  10.553  0.0888  0.3108 -0.0766
   38bbb     C1 1103   3.956   6.227  10.526 -0.2835 -0.0815  0.4830
   38bbb     H1 1104   3.913   6.316  10.573 -0.7881 -0.7364  1.2901
   38bbb     H2 1105   3.902   6.148  10.580 -0.3111  0.6420  1.5300
   38bbb     C2 1106   4.132   6.049  10.555 -0.2300  0.0166 -0.2395
   38bbb     H3 1107   4.213   6.026  10.485 -0.0014  0.0967  0.0017
   38bbb     H4 1108   4.041   5.998  10.519 -0.5533 -1.0583  1.9115
   38bbb     C3 1109   4.198   6.289  10.507  0.4691  0.0945 -0.1561
   38bbb     H5 1110   4.198   6.290  10.398  3.4280  0.6662 -0.2391
   38bbb     H6 1111   4.300   6.260  10.534  1.9575  4.2291 -0.5879
   38bbb     C4 1112   4.189   6.437  10.561 -0.2688 -0.0109 -0.0448
   38bbb     H7 1113   4.208   6.454  10.668  0.8099  0.3490 -0.2799
   38bbb     H8 1114   4.090   6.477  10.539 -0.3975 -1.0933 -1.5298
   38bbb     C5 1115   3.935   6.222  10.373 -0.1639  0.2729  0.7818
   38bbb     H9 1116   4.015   6.158  10.333  2.6713  1.8047  3.6159
   38bbb    H10 1117   3.956   6.323  10.337  1.2516 -0.4466 -0.5326
   38bbb     C6 1118   4.160   5.985  10.696 -0.7803 -0.5748 -0.2924
   38bbb    H11 1119   4.255   6.028  10.732 -2.3237  2.9342 -0.0183
   38bbb    H12 1120   4.184   5.879  10.677  0.3405 -0.8121  2.0925
   38bbb     C7 1121   4.295   6.525  10.490  0.1859 -0.6631  0.0249
   38bbb    H13 1122   4.392   6.475  10.492  0.0006 -0.9942  1.1156
   38bbb    H14 1123   4.314   6.623  10.535 -2.0325 -0.4855  0.7155
   38bbb     C8 1124   4.046   6.003  10.793  0.0707 -0.6075 -0.0387
   38bbb    H15 1125   4.028   6.110  10.802  1.2881 -0.4159  0.4064
   38bbb    H16 1126   4.077   5.963  10.891 -1.2134 -2.6254 -0.3942
   38bbb     C9 1127   3.789   6.166  10.334 -0.7840  0.1189 -0.4276
   38bbb    H17 1128   3.780   6.058  10.352  0.4542 -0.0182 -0.5634
   38bbb    H18 1129   3.765   6.201  10.232 -0.9384  1.9954  0.2042
   38bbb     O1 1130   4.247   6.553  10.359 -0.0684 -0.2902 -0.1525
   39bbb     N1 1131   4.383   6.113   9.281  0.1512 -0.1972  0.3794
   39bbb     C1 1132   4.255   6.097   9.211  0.9092  0.3598 -0.0908
   39bbb     H1 1133   4.246   5.991   9.184  2.4886  0.5097 -1.3721
   39bbb     H2 1134   4.264   6.145   9.112  1.5163 -1.2051 -0.8229
   39bbb     C2 1135   4.501   6.140   9.197  0.3847 -0.3314 -0.6035
   39bbb     H3 1136   4.586   6.173   9.258  0.4603  0.5112 -1.1454
   39bbb     H4 1137   4.472   6.225   9.134  0.5929 -0.2503 -0.5907
   39bbb     C3 1138   4.407   6.032   9.402  0.8349  0.3232  0.5374
   39bbb     H5 1139   4.504   5.981   9.394  0.4466 -0.1955 -1.2235
   39bbb     H6 1140   4.339   5.946   9.405 -0.6823  1.5049  1.7131
   39bbb     C4 1141   4.379   6.101   9.538  0.0339 -0.0406 -0.2589
   39bbb     H7 1142   4.396   6.031   9.621  0.3348 -0.8150 -0.9561
   39bbb     H8 1143   4.275   6.131   9.561  0.1690 -0.1166  0.5028
   39bbb     C5 1144   4.138   6.151   9.296  0.2510 -0.1330 -0.0936
   39bbb     H9 1145   4.156   6.250   9.338 -2.7217  0.1372  0.7345
   39bbb    H10 1146   4.125   6.080   9.378  1.6723  0.9588  1.1264
   39bbb     C6 1147   4.541   6.020   9.114  0.2674  0.0554  0.2889
   39bbb    H11 1148   4.467   5.986   9.040 -0.8812  0.2150  1.3485
   39bbb    H12 1149   4.566   5.928   9.169  2.2344  1.1623  1.3512
   39bbb     C7 1150   4.480   6.216   9.560 -0.1043  0.1754 -0.2731
   39bbb    H13 1151   4.459   6.295   9.486  2.3505  1.8875  0.7145
   39bbb    H14 1152   4.583   6.179   9.545  0.2585  0.7968  0.5860
   39bbb     C8 1153   4.670   6.063   9.039  0.0720 -0.4674  0.0053
   39bbb    H15 1154   4.732   6.121   9.107 -0.6561  0.2435  0.0801
   39bbb    H16 1155   4.645   6.131   8.956  3.0971  0.6701 -0.0675
   39bbb     C9 1156   4.002   6.149   9.215 -0.2089 -0.1630 -0.6654
   39bbb    H17 1157   3.916   6.180   9.276  1.0102 -0.0150  1.0403
   39bbb    H18 1158   3.983   6.045   9.187 -0.3025  0.5719 -3.7480
   39bbb     O1 1159   4.458   6.270   9.689  0.1965  0.5524  0.3346
   40bbb     N1 1160   5.651   7.011   9.224 -0.1778  0.8918  0.0799
   40bbb     C1 1161   5.504   6.997   9.218  0.3622 -0.2676  0.0699
   40bbb     H1 1162   5.452   7.086   9.256  0.4050 -1.6944  3.8465
   40bbb     H2 1163   5.479   6.920   9.292  1.5591 -0.8217 -0.0833
   40bbb     C2 1164   5.736   6.916   9.150 -0.2747  0.2595  0.2100
   40bbb     H3 1165   5.692   6.896   9.052  0.2457  0.9608 -0.1737
   40bbb     H4 1166   5.738   6.817   9.196 -2.3923 -0.7015 -1.5987
   40bbb     C3 1167   5.703   7.068   9.348  0.4096 -0.8348  0.5549
   40bbb     H5 1168   5.625   7.131   9.392 -0.3980  0.2513 -2.2437
   40bbb     H6 1169   5.782   7.143   9.330 -1.9781  1.5097 -0.8476
   40bbb     C4 1170   5.742   6.970   9.458 -0.5470 -0.1030 -0.3185
   40bbb     H7 1171   5.816   6.901   9.416  2.4459  1.9005  1.3141
   40bbb     H8 1172   5.654   6.916   9.494 -0.1250 -0.2539  0.4982
   40bbb     C5 1173   5.442   6.947   9.090  0.3474 -0.0004  0.1774
   40bbb     H9 1174   5.338   6.927   9.116  0.1926 -0.3275 -0.6581
   40bbb    H10 1175   5.483   6.850   9.060 -0.9538 -0.9013  1.1903
   40bbb     C6 1176   5.882   6.958   9.126 -0.1447 -0.3324 -0.1742
   40bbb    H11 1177   5.927   7.001   9.217 -1.8676  0.5803  0.2770
   40bbb    H12 1178   5.883   7.033   9.047 -1.5316  1.2299  1.2186
   40bbb     C7 1179   5.813   7.037   9.575  0.3478 -0.0409 -0.2442
   40bbb    H13 1180   5.900   7.090   9.535 -0.3633  0.0882 -1.6898
   40bbb    H14 1181   5.833   6.961   9.652  0.7429  1.3685  1.1030
   40bbb     C8 1182   5.961   6.828   9.082  0.5601 -0.2616 -0.1780
   40bbb    H15 1183   6.058   6.843   9.032  1.7640 -3.6540  0.8102
   40bbb    H16 1184   5.905   6.781   9.000  0.8231 -0.7464 -0.0838
   40bbb     C9 1185   5.447   7.042   8.972  0.1029 -0.8657  0.0189
   40bbb    H17 1186   5.403   7.137   9.005  0.2715 -1.4440  2.0636
   40bbb    H18 1187   5.376   7.009   8.895  0.6520  0.5835 -1.1390
   40bbb     O1 1188   5.715   7.124   9.630 -0.2296 -0.1760 -0.0499
   41bbb     N1 1189   6.165   6.656  10.297 -0.3339 -0.9061  0.0801
   41bbb     C1 1190   6.228   6.543  10.372  0.5502 -0.0144 -0.9440
   41bbb     H1 1191   6.229   6.557  10.481 -1.1957 -1.4432 -0.6980
   41bbb     H2 1192   6.335   6.541  10.351  1.0909 -0.2047  1.5251
   41bbb     C2 1193   6.201   6.678  10.157 -0.6691  0.2148 -0.1206
   41bbb     H3 1194   6.183   6.783  10.131  0.4055  0.2175 -0.9144
   41bbb     H4 1195   6.133   6.629  10.086  0.0858  1.5548 -1.8355
   41bbb     C3 1196   6.034   6.690  10.340 -0.1400  0.4399  0.1605
   41bbb     H5 1197   6.030   6.680  10.450  3.2737  0.3397  0.3738
   41bbb     H6 1198   5.955   6.626  10.300  0.6895 -0.0654 -0.7170
   41bbb     C4 1199   5.994   6.834  10.302  0.4802  0.0010  0.6777
   41bbb     H7 1200   5.998   6.848  10.193  0.8932  0.8021  0.7828
   41bbb     H8 1201   6.067   6.904  10.345 -0.6563  1.9702 -0.4434
   41bbb     C5 1202   6.155   6.407  10.343 -0.4685 -0.1863 -0.2147
   41bbb     H9 1203   6.154   6.380  10.237 -1.6724 -0.3226 -0.1810
   41bbb    H10 1204   6.051   6.423  10.372 -0.3278 -0.1279  0.2745
   41bbb     C6 1205   6.351   6.658  10.125  1.0119  0.0629  0.5327
   41bbb    H11 1206   6.388   6.560  10.156  2.6273 -0.2883 -2.1487
   41bbb    H12 1207   6.418   6.723  10.183  1.3353 -0.7388  1.0708
   41bbb     C7 1208   5.855   6.879  10.345 -0.0085  0.3794  0.5003
   41bbb    H13 1209   5.834   6.980  10.309  2.5628  0.5201 -0.8296
   41bbb    H14 1210   5.843   6.869  10.454  3.6937 -3.9884  0.8352
   41bbb     C8 1211   6.385   6.694   9.976  0.8155 -0.6834  0.3385
   41bbb    H15 1212   6.493   6.682   9.965  0.6441 -3.3206  0.6648
   41bbb    H16 1213   6.348   6.793   9.947 -0.0411 -1.4779 -1.4769
   41bbb     C9 1214   6.204   6.282  10.422 -0.0671 -0.1324 -0.0844
   41bbb    H17 1215   6.260   6.319  10.509  2.9440 -0.5082 -1.7299
   41bbb    H18 1216   6.277   6.218  10.371 -2.1050 -1.8229 -1.0365
   41bbb     O1 1217   5.760   6.793  10.279 -0.3278  0.5774  0.1974
   42bbb     N1 1218   5.565   6.189  11.467  0.2610 -0.2915 -0.3093
   42bbb     C1 1219   5.511   6.071  11.551 -0.3011 -0.5889  0.1696
   42bbb     H1 1220   5.402   6.071  11.542 -0.1846 -1.0061 -1.6747
   42bbb     H2 1221   5.536   6.096  11.655 -2.2755 -1.2524  0.8409
   42bbb     C2 1222   5.712   6.189  11.463  0.2385  0.0161  0.1992
   42bbb     H3 1223   5.764   6.124  11.535  1.5475  1.5830  0.7131
   42bbb     H4 1224   5.756   6.288  11.478 -1.6432  0.8783  0.3033
   42bbb     C3 1225   5.493   6.318  11.515  0.2183  0.6019 -0.4672
   42bbb     H5 1226   5.538   6.340  11.612 -1.5727 -1.5241  0.9439
   42bbb     H6 1227   5.388   6.292  11.534  0.3354 -0.2617 -0.9501
   42bbb     C4 1228   5.513   6.447  11.429 -0.0167 -0.5650  0.7938
   42bbb     H7 1229   5.462   6.431  11.333  0.0142 -1.5624  0.9337
   42bbb     H8 1230   5.620   6.469  11.419 -0.1057  1.1462  2.9849
   42bbb     C5 1231   5.556   5.923  11.514 -0.1711  0.5791  0.4575
   42bbb     H9 1232   5.665   5.917  11.501 -0.0179 -0.4953  1.9238
   42bbb    H10 1233   5.516   5.900  11.415 -3.8015 -1.8931  2.2562
   42bbb     C6 1234   5.765   6.149  11.323 -0.3246  1.0955  0.5078
   42bbb    H11 1235   5.767   6.232  11.252  1.8285  0.9984  0.3990
   42bbb    H12 1236   5.697   6.077  11.276  2.1425 -1.2616  0.2922
   42bbb     C7 1237   5.453   6.581  11.484  0.3996  0.3775  0.4646
   42bbb    H13 1238   5.463   6.660  11.408 -0.4107 -0.3841 -0.4710
   42bbb    H14 1239   5.514   6.604  11.572  0.4638 -0.3482  0.6148
   42bbb     C8 1240   5.902   6.078  11.334  0.2539  0.7005  0.1410
   42bbb    H15 1241   5.893   5.983  11.389  1.5848 -0.1616 -1.0588
   42bbb    H16 1242   5.968   6.152  11.381  1.4018 -0.5821  0.6395
   42bbb     C9 1243   5.504   5.809  11.599 -0.0417  0.2161  0.1849
   42bbb    H17 1244   5.538   5.836  11.700 -0.4029 -1.8193  0.9075
   42bbb    H18 1245   5.553   5.713  11.580  0.6110  0.2759  1.4237
   42bbb     O1 1246   5.313   6.574  11.523  0.2904 -0.0122  0.5562
   43bbb     N1 1247   4.268   6.377  11.089  0.0934 -0.3154  0.0706
   43bbb     C1 1248   4.171   6.336  10.984 -0.3536 -0.4428 -0.3630
   43bbb     H1 1249   4.191   6.233  10.952  0.6187 -0.2212 -0.4772
   43bbb     H2 1250   4.187   6.394  10.892  0.0484  1.4873  0.8676
   43bbb     C2 1251   4.306   6.287  11.196 -0.0032  0.5693  0.7632
   43bbb     H3 1252   4.320   6.189  11.148 -0.0603  1.7700 -1.8644
   43bbb     H4 1253   4.226   6.281  11.272 -1.6187  3.1809 -0.5974
   43bbb     C3 1254   4.252   6.519  11.126  0.1304 -0.4261  0.0328
   43bbb     H5 1255   4.312   6.541  11.215 -1.7852  1.2944  0.9733
   43bbb     H6 1256   4.148   6.544  11.152  1.0459  3.0101  0.9450
   43bbb     C4 1257   4.287   6.615  11.006 -0.0252  0.2905  0.9155
   43bbb     H7 1258   4.281   6.721  11.032 -1.1334  0.1407  1.3041
   43bbb     H8 1259   4.223   6.599  10.919  0.1464 -3.8769  1.3433
   43bbb     C5 1260   4.016   6.347  11.011  0.1292  0.1631  0.1900
   43bbb     H9 1261   3.954   6.311  10.928  2.0705  0.0369 -1.2922
   43bbb    H10 1262   3.992   6.452  11.032  0.8743  0.1169  1.3568
   43bbb     C6 1263   4.433   6.315  11.268  0.4139 -0.3817 -0.0578
   43bbb    H11 1264   4.414   6.400  11.334 -1.8856 -0.1496 -0.9326
   43bbb    H12 1265   4.510   6.344  11.196 -0.3498  0.1585 -0.6615
   43bbb     C7 1266   4.432   6.595  10.962 -0.0925  0.9026 -0.1999
   43bbb    H13 1267   4.446   6.660  10.875 -1.1340  1.4754  0.0566
   43bbb    H14 1268   4.445   6.488  10.941  0.7564  0.1341  3.5401
   43bbb     C8 1269   4.476   6.195  11.354 -0.4997 -0.5528  0.2028
   43bbb    H15 1270   4.502   6.113  11.286  0.8080  1.7354 -2.2345
   43bbb    H16 1271   4.388   6.159  11.409 -1.3732 -0.5765 -1.1784
   43bbb     C9 1272   3.970   6.277  11.135  0.0525 -0.3118  0.2749
   43bbb    H17 1273   4.020   6.320  11.223  0.6531 -0.3798 -0.0223
   43bbb    H18 1274   3.994   6.169  11.133  1.2563 -0.0467 -0.6581
   43bbb     O1 1275   4.521   6.636  11.066 -0.2026 -0.1742  0.1533
   44bbb     N1 1276   5.487   7.482  10.521  0.2778  0.1163 -0.3746
   44bbb     C1 1277   5.530   7.477  10.379 -0.1518  0.1111  0.3631
   44bbb     H1 1278   5.588   7.569  10.361  1.1761 -0.3181  2.1496
   44bbb     H2 1279   5.447   7.502  10.311  0.0896  2.1532  0.7378
   44bbb     C2 1280   5.603   7.479  10.623  0.4237 -0.1916 -0.1672
   44bbb     H3 1281   5.685   7.543  10.589  0.7219 -1.3479 -1.7152
   44bbb     H4 1282   5.637   7.377  10.645 -0.3495 -0.1333  1.5068
   44bbb     C3 1283   5.371   7.395  10.553  1.2145 -0.1349 -0.7161
   44bbb     H5 1284   5.357   7.390  10.661  1.8178 -2.8973 -0.6991
   44bbb     H6 1285   5.379   7.291  10.520  3.2991  0.3515 -1.9765
   44bbb     C4 1286   5.240   7.455  10.496  0.2502  0.1780 -0.1034
   44bbb     H7 1287   5.160   7.385  10.525  0.4591  0.8279  2.2729
   44bbb     H8 1288   5.247   7.451  10.387  2.0843  2.2456 -0.1263
   44bbb     C5 1289   5.607   7.355  10.325 -0.2679 -0.1894 -0.2983
   44bbb     H9 1290   5.529   7.279  10.336 -2.9397  2.3820 -0.1078
   44bbb    H10 1291   5.694   7.324  10.383 -3.2258 -0.2372  4.7187
   44bbb     C6 1292   5.574   7.533  10.764  0.0080  0.0017  0.4673
   44bbb    H11 1293   5.481   7.485  10.796 -0.4971  0.9264  0.4160
   44bbb    H12 1294   5.563   7.641  10.749  0.4176 -0.1261 -0.9388
   44bbb     C7 1295   5.212   7.597  10.551 -0.0071 -0.0016  0.0932
   44bbb    H13 1296   5.131   7.646  10.496  0.0148  0.3009  0.3301
   44bbb    H14 1297   5.313   7.641  10.542  0.9310 -1.8214  1.1275
   44bbb     C8 1298   5.680   7.480  10.862 -0.3210 -0.7857  0.5050
   44bbb    H15 1299   5.716   7.382  10.826  0.3981 -0.6968  0.9710
   44bbb    H16 1300   5.627   7.465  10.957  1.0365 -0.7753  1.2810
   44bbb     C9 1301   5.641   7.375  10.178  0.1657  0.5439  0.0649
   44bbb    H17 1302   5.546   7.394  10.126 -1.1105 -1.2017  1.6258
   44bbb    H18 1303   5.691   7.284  10.143 -1.6297  0.3585 -2.2839
   44bbb     O1 1304   5.169   7.578  10.687  0.4526  0.1013  0.1587
   45bbb     N1 1305   5.799   7.887  10.476  0.0750  0.0397 -0.3672
   45bbb     C1 1306   5.726   7.993  10.404  0.1367 -0.0017 -0.1677
   45bbb     H1 1307   5.771   8.000  10.304 -0.1648 -0.7079 -0.3563
   45bbb     H2 1308   5.748   8.094  10.440  1.4018  0.7493 -2.7839
   45bbb     C2 1309   5.821   7.761  10.411  0.2814  0.2038  0.2555
   45bbb     H3 1310   5.845   7.791  10.308 -1.8343  1.1416 -0.0071
   45bbb     H4 1311   5.731   7.699  10.404  1.3670 -1.5245  0.7546
   45bbb     C3 1312   5.773   7.885  10.618 -0.8080 -0.1687 -0.2529
   45bbb     H5 1313   5.835   7.804  10.655  0.4091  1.2921  1.0167
   45bbb     H6 1314   5.668   7.859  10.637 -0.5031 -1.5383 -0.3212
   45bbb     C4 1315   5.819   8.011  10.701 -0.8186  0.6899 -0.5029
   45bbb     H7 1316   5.752   8.095  10.682 -3.1289 -0.8997  0.2417
   45bbb     H8 1317   5.925   8.028  10.675 -0.5483  0.9857  0.7259
   45bbb     C5 1318   5.571   7.971  10.402 -0.6185  0.2020 -0.6465
   45bbb     H9 1319   5.520   8.068  10.405 -1.9099 -0.4885  0.4027
   45bbb    H10 1320   5.551   7.937  10.504  1.9143 -2.0876 -0.8056
   45bbb     C6 1321   5.936   7.667  10.455 -0.3229 -0.3618  0.1898
   45bbb    H11 1322   5.955   7.584  10.386  3.2412 -0.6876  1.3462
   45bbb    H12 1323   5.911   7.615  10.549 -0.1037 -0.1923  0.3454
   45bbb     C7 1324   5.810   7.977  10.848  0.1627  0.0364  0.1436
   45bbb    H13 1325   5.857   8.067  10.891  0.5300  0.7632 -1.6994
   45bbb    H14 1326   5.873   7.893  10.880  1.6721  0.5160 -1.4351
   45bbb     C8 1327   6.073   7.744  10.469 -0.0529  0.2310 -0.5069
   45bbb    H15 1328   6.077   7.775  10.574 -0.4899  0.1162 -0.4536
   45bbb    H16 1329   6.073   7.835  10.408  1.0218  1.0206  0.6156
   45bbb     C9 1330   5.508   7.878  10.296  0.4388  0.4011  0.3047
   45bbb    H17 1331   5.400   7.891  10.310  0.7646  1.6554  1.9372
   45bbb    H18 1332   5.518   7.772  10.323 -3.0653 -0.0619  0.3181
   45bbb     O1 1333   5.674   7.964  10.907  0.6446 -0.3455  0.2831
   46bbb     N1 1334   5.423   6.236  12.491 -0.5458 -0.0656 -0.1593
   46bbb     C1 1335   5.504   6.192  12.609 -0.7461  0.9273  0.2763
   46bbb     H1 1336   5.452   6.107  12.654 -0.1912 -0.0244 -0.8348
   46bbb     H2 1337   5.509   6.264  12.692 -0.6988  1.4664 -0.1830
   46bbb     C2 1338   5.459   6.377  12.432 -0.0678  0.7167  0.6516
   46bbb     H3 1339   5.562   6.380  12.393 -0.3417 -0.3372 -0.1977
   46bbb     H4 1340   5.460   6.450  12.514 -2.4836 -2.0692  3.4057
   46bbb     C3 1341   5.407   6.127  12.389  0.0556 -0.0570 -0.8156
   46bbb     H5 1342   5.508   6.107  12.350 -0.8780 -2.6551 -2.1557
   46bbb     H6 1343   5.339   6.167  12.313  0.3330 -0.9698 -1.5545
   46bbb     C4 1344   5.339   5.991  12.441 -0.0060 -0.4562  0.2879
   46bbb     H7 1345   5.243   6.010  12.489 -0.2161 -0.0914 -0.2672
   46bbb     H8 1346   5.397   5.925  12.507 -0.8879 -2.4894 -0.8652
   46bbb     C5 1347   5.646   6.134  12.591 -0.0901  0.1149 -0.1670
   46bbb     H9 1348   5.720   6.211  12.565  0.6491 -0.8187 -0.9240
   46bbb    H10 1349   5.656   6.069  12.503  2.6005  0.5421 -0.2579
   46bbb     C6 1350   5.367   6.416  12.314 -0.0407  0.0682 -0.3733
   46bbb    H11 1351   5.269   6.409  12.364 -0.4790  2.4474 -0.7584
   46bbb    H12 1352   5.376   6.345  12.231 -2.4998 -0.1602 -0.5181
   46bbb     C7 1353   5.309   5.899  12.324  0.1406  0.2964  0.0971
   46bbb    H13 1354   5.271   5.804  12.363 -0.8904  0.8678  0.5089
   46bbb    H14 1355   5.404   5.875  12.274 -0.0596  0.8210 -0.5502
   46bbb     C8 1356   5.380   6.570  12.273  0.1171  0.4472  0.0508
   46bbb    H15 1357   5.359   6.613  12.371  1.7567  0.3516  0.4769
   46bbb    H16 1358   5.302   6.597  12.201  0.5641 -1.7063 -1.3625
   46bbb     C9 1359   5.697   6.061  12.713 -0.8606 -0.3830 -0.2467
   46bbb    H17 1360   5.795   6.029  12.677 -0.5855  1.5708 -1.3710
   46bbb    H18 1361   5.640   5.976  12.753 -1.9184  1.0735  1.5448
   46bbb     O1 1362   5.221   5.957  12.223 -0.3725  0.2498  1.1085
   47bbb     N1 1363   6.044   6.426  11.757 -0.3324 -0.7908  0.2603
   47bbb     C1 1364   6.168   6.506  11.781  0.3800  0.2232 -0.5586
   47bbb     H1 1365   6.254   6.452  11.738  0.7427  0.0641  0.3533
   47bbb     H2 1366   6.185   6.521  11.888 -0.0470 -0.0674 -0.4463
   47bbb     C2 1367   6.069   6.278  11.741  0.9134 -0.4163 -0.1500
   47bbb     H3 1368   6.149   6.257  11.669  2.0891  3.3664 -0.1606
   47bbb     H4 1369   5.978   6.225  11.710  0.7192  0.6479 -1.5224
   47bbb     C3 1370   5.927   6.480  11.842  0.7946  0.3163  0.0832
   47bbb     H5 1371   5.915   6.586  11.819  1.7357  0.3068 -0.4850
   47bbb     H6 1372   5.935   6.468  11.951 -1.8398  1.3879  0.4825
   47bbb     C4 1373   5.796   6.417  11.796  0.5091  0.6180  0.8863
   47bbb     H7 1374   5.794   6.313  11.832  4.8027 -0.1849 -0.5185
   47bbb     H8 1375   5.777   6.421  11.688  1.9988  0.0389  0.5669
   47bbb     C5 1376   6.166   6.638  11.701 -0.0033  0.0720 -0.0410
   47bbb     H9 1377   6.073   6.690  11.726 -0.4491  0.4457 -2.2422
   47bbb    H10 1378   6.170   6.604  11.596  0.3498  0.9835 -0.3313
   47bbb     C6 1379   6.132   6.206  11.860 -0.1793  0.3212 -0.4035
   47bbb    H11 1380   6.063   6.200  11.945  0.5582  0.1442  0.2032
   47bbb    H12 1381   6.219   6.262  11.898  0.8590 -1.1282 -0.5642
   47bbb     C7 1382   5.677   6.502  11.852  0.0234 -0.7630 -0.1081
   47bbb    H13 1383   5.659   6.594  11.794 -0.6471  0.0020  1.2620
   47bbb    H14 1384   5.700   6.525  11.956 -0.9554  0.1213 -0.0707
   47bbb     C8 1385   6.167   6.055  11.833  0.4130 -0.7012  0.0092
   47bbb    H15 1386   6.074   6.007  11.800  0.8113 -0.0486 -2.2020
   47bbb    H16 1387   6.206   6.014  11.927  1.2096  1.0594  0.4920
   47bbb     C9 1388   6.284   6.739  11.723  0.2166 -0.1084  0.2930
   47bbb    H17 1389   6.377   6.693  11.688 -0.1147  1.8660 -3.7995
   47bbb    H18 1390   6.288   6.767  11.829 -0.1677  0.1152  0.2513
   47bbb     O1 1391   5.555   6.426  11.848 -0.5681 -0.0881 -0.3194
   48bbb     N1 1392   4.196   5.378  10.382  0.3328  0.1240  0.5577
   48bbb     C1 1393   4.222   5.413  10.239 -0.0253  0.0333 -0.2422
   48bbb     H1 1394   4.235   5.316  10.190  0.1658  1.0848 -2.4128
   48bbb     H2 1395   4.306   5.482  10.224 -0.0368 -0.1359 -1.1638
   48bbb     C2 1396   4.315   5.311  10.446 -0.1164  0.6867  0.2384
   48bbb     H3 1397   4.285   5.268  10.542 -0.6515 -1.6585 -0.8921
   48bbb     H4 1398   4.402   5.375  10.458  0.3040 -0.4197  4.6131
   48bbb     C3 1399   4.163   5.499  10.458 -0.6397 -0.0427  0.1805
   48bbb     H5 1400   4.104   5.568  10.395  0.6995  0.3825 -0.6445
   48bbb     H6 1401   4.253   5.557  10.482 -0.7718 -0.2918  1.3611
   48bbb     C4 1402   4.095   5.466  10.593  0.1340  0.0053 -0.1675
   48bbb     H7 1403   4.152   5.398  10.659 -0.0586  0.9606  1.0194
   48bbb     H8 1404   3.991   5.434  10.581  0.1891  0.4236 -2.0153
   48bbb     C5 1405   4.098   5.452  10.159  0.0694 -0.1906  0.7237
   48bbb     H9 1406   4.051   5.537  10.209 -0.8201 -0.2646  0.0484
   48bbb    H10 1407   4.031   5.365  10.163  0.7614 -0.8070 -0.5371
   48bbb     C6 1408   4.367   5.183  10.372 -0.1811 -0.1080 -0.1118
   48bbb    H11 1409   4.397   5.208  10.270  0.2136  0.3044  0.1026
   48bbb    H12 1410   4.286   5.110  10.357 -0.3466  0.2895 -1.2772
   48bbb     C7 1411   4.088   5.598  10.683  0.1192  0.0959  0.6884
   48bbb    H13 1412   3.995   5.653  10.667 -0.1945 -0.4073  0.7576
   48bbb    H14 1413   4.168   5.665  10.649  0.7562 -0.8247  0.3351
   48bbb     C8 1414   4.482   5.130  10.454  0.1798  0.1313 -0.1096
   48bbb    H15 1415   4.542   5.210  10.499 -0.2796 -0.4899  1.6753
   48bbb    H16 1416   4.551   5.070  10.394  1.4916  1.3713  0.1136
   48bbb     C9 1417   4.128   5.467  10.004  0.3621  0.2186  0.7640
   48bbb    H17 1418   4.202   5.547   9.991 -0.4633  0.9978  0.7966
   48bbb    H18 1419   4.034   5.502   9.961 -1.0533  1.0120  4.1599
   48bbb     O1 1420   4.104   5.561  10.822  0.1602 -0.5484 -0.1489
   49bbb     N1 1421   4.295   6.490  11.685 -0.0136 -0.6368 -0.3277
   49bbb     C1 1422   4.311   6.460  11.828 -0.0147  0.1576  0.6895
   49bbb     H1 1423   4.409   6.487  11.868  0.1275  1.6785 -0.6014
   49bbb     H2 1424   4.304   6.351  11.836 -0.3641 -0.0290 -1.4921
   49bbb     C2 1425   4.294   6.638  11.668 -0.6232 -0.2789 -0.0429
   49bbb     H3 1426   4.383   6.680  11.715  0.1327 -3.2852  1.4292
   49bbb     H4 1427   4.200   6.683  11.703 -0.7564 -0.4099 -0.2268
   49bbb     C3 1428   4.174   6.422  11.623 -0.3450 -0.0167  0.2013
   49bbb     H5 1429   4.165   6.454  11.518 -0.3275  0.3203  0.3023
   49bbb     H6 1430   4.086   6.446  11.683 -1.0166 -0.6927 -0.4802
   49bbb     C4 1431   4.174   6.272  11.617 -0.5762  0.1062  0.2291
   49bbb     H7 1432   4.195   6.227  11.715  0.8150 -2.7744 -1.2590
   49bbb     H8 1433   4.245   6.248  11.537  0.5921 -0.2944  1.3672
   49bbb     C5 1434   4.210   6.516  11.930  0.2635 -0.0837 -0.5183
   49bbb     H9 1435   4.111   6.507  11.884 -0.0511  1.4248 -0.2034
   49bbb    H10 1436   4.221   6.624  11.948 -1.7799 -0.2488  2.4500
   49bbb     C6 1437   4.299   6.690  11.519 -0.4642 -0.5570 -0.0645
   49bbb    H11 1438   4.209   6.654  11.467 -0.5847 -0.4243  0.0529
   49bbb    H12 1439   4.386   6.644  11.471  1.5786  1.8029  1.1346
   49bbb     C7 1440   4.041   6.203  11.577  0.5631 -0.4944 -0.3413
   49bbb    H13 1441   3.976   6.282  11.535  0.8439 -0.3343 -0.4815
   49bbb    H14 1442   3.979   6.167  11.660  1.6885 -1.4803  0.0928
   49bbb     C8 1443   4.327   6.841  11.497  0.3042  0.3621  0.2866
   49bbb    H15 1444   4.418   6.877  11.547 -0.6308  1.6468  1.1318
   49bbb    H16 1445   4.243   6.898  11.537  0.0907 -0.7889  1.5686
   49bbb     C9 1446   4.216   6.450  12.069  0.3512 -0.3769 -0.4547
   49bbb    H17 1447   4.315   6.478  12.107  0.9534 -2.0756 -0.6969
   49bbb    H18 1448   4.211   6.342  12.050 -0.0734 -0.6024  0.8236
   49bbb     O1 1449   4.059   6.099  11.480  0.2065 -0.1328  0.4372
   50bbb     N1 1450   4.949   6.091   9.367  0.3544  0.7322 -0.5375
   50bbb     C1 1451   4.937   6.215   9.293 -0.5484 -0.2702 -0.3138
   50bbb     H1 1452   4.843   6.267   9.314  0.0380 -0.0445  1.9712
   50bbb     H2 1453   4.925   6.189   9.187  0.6132 -1.9222 -0.0779
   50bbb     C2 1454   5.065   6.006   9.339  0.7492  0.8919  0.3688
   50bbb     H3 1455   5.062   5.935   9.421  0.6172  0.6414  0.1478
   50bbb     H4 1456   5.161   6.059   9.350  0.9228  0.5474  0.5127
   50bbb     C3 1457   4.811   6.022   9.364 -0.1922 -0.2471  0.2511
   50bbb     H5 1458   4.789   6.007   9.257  3.0570 -3.1677 -0.2098
   50bbb     H6 1459   4.745   6.100   9.402 -0.5705 -0.7900  0.7240
   50bbb     C4 1460   4.789   5.884   9.431  0.0688  0.6157  0.8346
   50bbb     H7 1461   4.849   5.812   9.375  1.9651  1.5276  1.6115
   50bbb     H8 1462   4.684   5.856   9.418  0.0894  1.4943 -1.8310
   50bbb     C5 1463   5.053   6.315   9.308 -0.9595 -0.1038 -0.1386
   50bbb     H9 1464   5.141   6.268   9.263  0.0190  0.7745  0.8260
   50bbb    H10 1465   5.074   6.331   9.414 -0.4789  0.2106 -0.2815
   50bbb     C6 1466   5.066   5.933   9.201 -0.2271 -0.8774 -0.7913
   50bbb    H11 1467   5.071   6.007   9.121  2.6970 -0.5888 -0.4516
   50bbb    H12 1468   4.975   5.874   9.183 -1.0539 -0.4399  1.5882
   50bbb     C7 1469   4.817   5.884   9.578 -0.5560  0.4641  0.0768
   50bbb    H13 1470   4.916   5.927   9.594 -0.0175  0.0375 -1.8548
   50bbb    H14 1471   4.820   5.781   9.616 -1.9751  0.0883 -0.7267
   50bbb     C8 1472   5.192   5.853   9.179 -0.5476 -0.2947  0.4150
   50bbb    H15 1473   5.189   5.798   9.084  2.4733  0.4033 -0.1988
   50bbb    H16 1474   5.213   5.776   9.254  0.0164 -0.7862 -0.2398
   50bbb     C9 1475   5.043   6.454   9.238 -0.2951  0.3980 -0.9430
   50bbb    H17 1476   4.957   6.509   9.276 -1.5554 -1.0661 -1.5517
   50bbb    H18 1477   5.022   6.428   9.133 -1.8721  0.1012 -0.5710
   50bbb     O1 1478   4.720   5.957   9.650  0.7135 -0.0381 -0.5678
   51bbb     N1 1479   3.730   5.739  10.265  0.4029 -0.2826 -0.3292
   51bbb     C1 1480   3.650   5.832  10.177  0.5341  0.3500 -1.3017
   51bbb     H1 1481   3.699   5.824  10.078  0.2287 -1.1448 -1.3659
   51bbb     H2 1482   3.660   5.933  10.217 -0.0502 -0.5972  1.4099
   51bbb     C2 1483   3.659   5.699  10.391  0.0851  0.2159 -0.1339
   51bbb     H3 1484   3.555   5.671  10.371  0.1827 -0.1450 -0.1601
   51bbb     H4 1485   3.651   5.789  10.453  0.0228 -0.2338  0.5281
   51bbb     C3 1486   3.866   5.791  10.294  0.5336 -0.7712  0.4021
   51bbb     H5 1487   3.916   5.704  10.338  1.9518 -0.5697 -0.7315
   51bbb     H6 1488   3.870   5.868  10.371 -2.7948  0.7499 -0.7527
   51bbb     C4 1489   3.949   5.841  10.176 -0.9017  0.0549 -0.2745
   51bbb     H7 1490   3.916   5.942  10.148  1.3203  0.6198 -1.0703
   51bbb     H8 1491   3.934   5.786  10.083 -0.8292  0.1918 -0.3683
   51bbb     C5 1492   3.500   5.807  10.165 -0.3202 -0.5608  0.7514
   51bbb     H9 1493   3.450   5.850  10.253 -1.1426  0.0526 -0.0017
   51bbb    H10 1494   3.481   5.699  10.170  1.1467 -0.9372 -0.9102
   51bbb     C6 1495   3.733   5.587  10.474  1.0256 -0.6162 -0.2395
   51bbb    H11 1496   3.830   5.623  10.511  0.2256 -1.2111  2.6405
   51bbb    H12 1497   3.751   5.506  10.402  0.3912 -0.6252 -0.3916
   51bbb     C7 1498   4.099   5.853  10.200 -0.5017 -0.1311 -0.0079
   51bbb    H13 1499   4.144   5.753  10.205  0.0081 -0.0085 -1.4495
   51bbb    H14 1500   4.094   5.897  10.300  0.8027  3.5879 -1.4010
   51bbb     C8 1501   3.660   5.526  10.597 -0.4932 -0.3029  0.5693
   51bbb    H15 1502   3.556   5.500  10.571 -0.5478 -0.3106  0.8004
   51bbb    H16 1503   3.652   5.601  10.676 -0.6191  0.8379 -0.4856
   51bbb     C9 1504   3.446   5.886  10.042  0.4323 -0.5206  0.1506
   51bbb    H17 1505   3.461   5.993  10.061  0.0748 -0.6402  1.1770
   51bbb    H18 1506   3.339   5.868  10.031  0.6038 -1.0198 -0.7849
   51bbb     O1 1507   4.162   5.951  10.109  0.4865  0.3002  0.3391
   52bbb     N1 1508   4.921   5.145   9.969 -0.1407  0.1916  0.0061
   52bbb     C1 1509   4.833   5.021   9.969 -0.5967  0.8171 -0.0967
   52bbb     H1 1510   4.735   5.035  10.016 -2.5915  1.8816 -4.1153
   52bbb     H2 1511   4.895   4.950  10.026  0.6596  1.8590 -0.1047
   52bbb     C2 1512   5.039   5.133   9.874  0.0810  0.8279 -0.1239
   52bbb     H3 1513   5.090   5.229   9.862  3.4080 -0.9879 -1.8983
   52bbb     H4 1514   5.008   5.098   9.775  2.0649 -0.0692 -0.4740
   52bbb     C3 1515   4.959   5.179  10.104  0.1408 -0.6104  0.2877
   52bbb     H5 1516   5.037   5.256  10.103 -0.4139  0.2539  4.3757
   52bbb     H6 1517   5.001   5.091  10.154  2.1877 -1.1809 -2.2286
   52bbb     C4 1518   4.834   5.248  10.177  0.2346  0.8731  0.3321
   52bbb     H7 1519   4.760   5.170  10.196  1.6184 -0.0026  2.6477
   52bbb     H8 1520   4.793   5.321  10.107  1.0585  2.0769  1.0619
   52bbb     C5 1521   4.803   4.951   9.833  0.0687  0.1927  0.3488
   52bbb     H9 1522   4.750   4.857   9.853  0.7171 -0.3859 -0.6014
   52bbb    H10 1523   4.900   4.918   9.796  0.5599  1.2154  0.6727
   52bbb     C6 1524   5.147   5.039   9.924 -0.3899 -0.3487  0.0094
   52bbb    H11 1525   5.100   4.941   9.935  0.6930 -1.0934 -1.5131
   52bbb    H12 1526   5.195   5.073  10.017 -0.7774 -0.5222  0.2704
   52bbb     C7 1527   4.854   5.303  10.315  0.3580 -0.6993 -0.5182
   52bbb    H13 1528   4.755   5.335  10.353  1.2213  0.8628  0.5410
   52bbb    H14 1529   4.918   5.391  10.302 -0.0633 -0.4877 -1.2547
   52bbb     C8 1530   5.255   5.032   9.814  0.2374  0.1865  0.8151
   52bbb    H15 1531   5.220   4.991   9.718  1.7700 -0.6796  0.5797
   52bbb    H16 1532   5.332   4.966   9.856  1.4095  1.5086  0.7927
   52bbb     C9 1533   4.736   5.038   9.715 -0.6384 -0.1349 -0.0454
   52bbb    H17 1534   4.806   5.120   9.696 -1.5331  0.6066 -0.1726
   52bbb    H18 1535   4.644   5.081   9.755 -0.2560  0.7319 -0.0821
   52bbb     O1 1536   4.911   5.196  10.396  0.2576 -0.4925 -0.3332
   53bbb     N1 1537   5.150   5.204  11.456  0.2104  0.2300  0.7401
   53bbb     C1 1538   5.234   5.292  11.368  0.6250 -0.1806  0.3742
   53bbb     H1 1539   5.182   5.322  11.276  0.6123 -0.2992  0.3420
   53bbb     H2 1540   5.326   5.239  11.339  2.7015  3.6263 -0.5692
   53bbb     C2 1541   5.218   5.144  11.573 -0.4827  0.7573 -0.0778
   53bbb     H3 1542   5.145   5.088  11.632 -1.3552  0.6383 -1.2404
   53bbb     H4 1543   5.253   5.221  11.644  0.2175  0.9815 -0.6526
   53bbb     C3 1544   5.070   5.100  11.385 -0.0868 -0.3176 -0.6219
   53bbb     H5 1545   5.047   5.015  11.451 -0.8845  0.9205  0.7588
   53bbb     H6 1546   5.128   5.072  11.297 -0.5348 -0.1568 -0.9714
   53bbb     C4 1547   4.932   5.155  11.348  0.0643 -0.2124 -0.4678
   53bbb     H7 1548   4.935   5.239  11.277  0.7066 -1.2934 -1.7472
   53bbb     H8 1549   4.882   5.195  11.438 -0.7792 -2.5502  0.1573
   53bbb     C5 1550   5.283   5.421  11.440  0.0071 -0.2034  0.1573
   53bbb     H9 1551   5.343   5.392  11.528 -1.0746  1.2309  1.4157
   53bbb    H10 1552   5.205   5.486  11.481  1.4584  0.7813  1.4740
   53bbb     C6 1553   5.331   5.038  11.550 -0.4991 -0.4890  0.4835
   53bbb    H11 1554   5.407   5.079  11.483 -0.3131  1.3556  1.7434
   53bbb    H12 1555   5.284   4.957  11.492 -3.5933  2.3642 -1.3464
   53bbb     C7 1556   4.848   5.045  11.277  0.2064 -0.9007  0.5665
   53bbb    H13 1557   4.834   4.960  11.345  1.5003 -1.6756 -0.0925
   53bbb    H14 1558   4.909   5.007  11.194  1.4671 -0.2195  1.1482
   53bbb     C8 1559   5.402   4.990  11.681  0.3709  0.0222 -0.0512
   53bbb    H15 1560   5.494   4.936  11.656 -0.9019 -1.9085 -0.7793
   53bbb    H16 1561   5.328   4.921  11.723 -0.4613  0.9704  0.0790
   53bbb     C9 1562   5.379   5.509  11.354  0.3028  0.1682  0.3014
   53bbb    H17 1563   5.404   5.603  11.406 -0.6296  0.2627  0.5929
   53bbb    H18 1564   5.326   5.536  11.262 -1.0532  0.2939  1.1033
   53bbb     O1 1565   4.720   5.106  11.243 -0.5553  0.0067 -0.3970
   54bbb     N1 1566   5.703   7.249  11.302  0.3811 -0.2942 -0.4047
   54bbb     C1 1567   5.608   7.340  11.229  0.0842 -0.0530 -0.2015
   54bbb     H1 1568   5.660   7.431  11.196  0.0549 -0.8778 -2.7048
   54bbb     H2 1569   5.539   7.378  11.305  0.7277 -0.5399  0.6435
   54bbb     C2 1570   5.756   7.314  11.426 -0.0224 -0.2246 -0.9130
   54bbb     H3 1571   5.809   7.405  11.398 -1.3844  1.7232  2.2716
   54bbb     H4 1572   5.835   7.247  11.464  0.0212 -0.6429 -1.7150
   54bbb     C3 1573   5.810   7.204  11.206  0.2723  0.9747 -0.0057
   54bbb     H5 1574   5.896   7.273  11.205  1.7756 -0.8160 -1.2394
   54bbb     H6 1575   5.792   7.191  11.099  2.6415 -2.1643 -0.1754
   54bbb     C4 1576   5.857   7.067  11.258 -0.4965  0.5115 -0.2119
   54bbb     H7 1577   5.771   7.000  11.243 -0.6382  0.0575  2.2362
   54bbb     H8 1578   5.889   7.075  11.363  0.2165  0.5035 -0.4214
   54bbb     C5 1579   5.542   7.261  11.116  0.6409 -0.4158  0.6112
   54bbb     H9 1580   5.517   7.162  11.157 -1.6377 -0.1434 -0.0006
   54bbb    H10 1581   5.612   7.250  11.032 -0.2346  1.2467 -0.3713
   54bbb     C6 1582   5.647   7.347  11.528  1.0105 -0.0968  0.7434
   54bbb    H11 1583   5.574   7.266  11.526  0.6248  0.2480 -1.5137
   54bbb    H12 1584   5.592   7.437  11.497 -0.3268 -1.6245 -1.5429
   54bbb     C7 1585   5.977   7.017  11.171  0.4423 -0.0876 -0.4107
   54bbb    H13 1586   6.000   6.915  11.205 -0.1917  0.8430  3.1185
   54bbb    H14 1587   6.072   7.070  11.187  0.0264  0.2315  1.1587
   54bbb     C8 1588   5.716   7.358  11.665  0.4428  0.0282  0.2037
   54bbb    H15 1589   5.786   7.443  11.660  0.6245 -0.1182  0.2685
   54bbb    H16 1590   5.775   7.273  11.700 -0.5352 -0.5392  0.5082
   54bbb     C9 1591   5.404   7.323  11.073  0.3150 -0.4478 -0.4165
   54bbb    H17 1592   5.424   7.423  11.033 -1.5062 -0.3626 -1.1971
   54bbb    H18 1593   5.342   7.335  11.163  1.7808 -0.0215  0.5879
   54bbb     O1 1594   5.938   7.004  11.030  0.0005  0.2808  0.1409
   55bbb     N1 1595   6.219   7.119   9.851 -0.1724  0.4257  0.2890
   55bbb     C1 1596   6.248   7.262   9.815 -0.5521 -0.1046 -0.3024
   55bbb     H1 1597   6.316   7.299   9.892  0.4740 -2.0207 -0.2450
   55bbb     H2 1598   6.150   7.310   9.832 -0.6395 -0.7194  1.0925
   55bbb     C2 1599   6.124   7.051   9.760 -0.5144  0.2265 -0.0978
   55bbb     H3 1600   6.127   7.095   9.659 -0.7514  1.7478  0.5375
   55bbb     H4 1601   6.021   7.054   9.796 -0.6103  0.6479 -0.3996
   55bbb     C3 1602   6.207   7.075   9.996 -0.2005  0.2457  0.3308
   55bbb     H5 1603   6.306   7.086  10.041  0.4216  1.5482 -1.2220
   55bbb     H6 1604   6.165   6.974   9.989 -2.1424  1.1202 -3.1755
   55bbb     C4 1605   6.108   7.169  10.076 -0.2368 -0.1238  0.1926
   55bbb     H7 1606   6.025   7.111  10.119 -3.1241  2.2702 -1.7070
   55bbb     H8 1607   6.060   7.235  10.003  1.8952  2.2245  0.7683
   55bbb     C5 1608   6.308   7.296   9.675 -0.1452 -0.1852  0.3384
   55bbb     H9 1609   6.240   7.251   9.601  0.0861 -1.7206  1.0162
   55bbb    H10 1610   6.406   7.246   9.663  0.0945 -0.4361  2.7443
   55bbb     C6 1611   6.172   6.902   9.730 -0.0490 -0.6992 -0.1640
   55bbb    H11 1612   6.156   6.846   9.824 -1.0611  1.1795  0.8361
   55bbb    H12 1613   6.281   6.903   9.725  0.0955 -0.5105  1.9374
   55bbb     C7 1614   6.174   7.255  10.188  0.1009  0.1567 -0.4699
   55bbb    H13 1615   6.160   7.361  10.166  1.6376 -0.0350 -2.8050
   55bbb    H14 1616   6.278   7.224  10.206 -0.1862  0.9366  3.2707
   55bbb     C8 1617   6.101   6.834   9.612  0.0783  0.5568  0.3912
   55bbb    H15 1618   5.994   6.824   9.635 -0.0911 -0.5142 -0.7575
   55bbb    H16 1619   6.149   6.736   9.596 -0.4354  0.1720  1.1388
   55bbb     C9 1620   6.321   7.445   9.635 -0.2565  0.0704 -0.2438
   55bbb    H17 1621   6.368   7.510   9.710 -0.9888  0.6541 -0.2804
   55bbb    H18 1622   6.218   7.483   9.645 -0.7470 -0.8209 -1.7391
   55bbb     O1 1623   6.115   7.213  10.314 -0.9799  0.0731  0.6657
   56bbb     N1 1624   6.761   7.268   9.821 -0.3978 -0.2182 -0.1740
   56bbb     C1 1625   6.874   7.311   9.734 -0.8745  0.1812  0.1250
   56bbb     H1 1626   6.840   7.387   9.663  1.3410 -0.7592 -2.0503
   56bbb     H2 1627   6.903   7.224   9.675 -0.0271  0.4957  0.0666
   56bbb     C2 1628   6.642   7.217   9.745 -0.2851 -0.3497  0.3731
   56bbb     H3 1629   6.630   7.263   9.646 -0.4649  0.0593  0.5845
   56bbb     H4 1630   6.553   7.245   9.802  0.2308  0.3839  0.8408
   56bbb     C3 1631   6.734   7.356   9.947 -0.2220  0.0909  0.5198
   56bbb     H5 1632   6.717   7.458   9.910 -0.6191 -0.6030 -1.2926
   56bbb     H6 1633   6.823   7.371  10.009  0.2392  1.9627 -0.5150
   56bbb     C4 1634   6.615   7.315  10.039 -0.1809 -0.7751  0.0276
   56bbb     H7 1635   6.516   7.331   9.995  0.2396  0.6782 -0.4444
   56bbb     H8 1636   6.619   7.385  10.124  1.2480  3.0727 -2.9087
   56bbb     C5 1637   7.005   7.366   9.796  0.1640 -0.1009  0.1863
   56bbb     H9 1638   7.010   7.317   9.894 -2.9335 -0.7299  0.1130
   56bbb    H10 1639   6.994   7.474   9.810  1.0046  0.1439 -0.8291
   56bbb     C6 1640   6.652   7.067   9.707 -0.8122  0.4089  0.3912
   56bbb    H11 1641   6.654   7.005   9.798 -0.4686 -0.9760 -0.5270
   56bbb    H12 1642   6.753   7.040   9.673  0.3748  1.4379  2.8669
   56bbb     C7 1643   6.630   7.176  10.105 -0.9365 -0.9415  0.6568
   56bbb    H13 1644   6.728   7.170  10.153 -1.3209 -2.1536  1.3377
   56bbb    H14 1645   6.627   7.111  10.017 -2.9184  0.6872 -0.5860
   56bbb     C8 1646   6.548   7.016   9.603  0.6166  0.5569  0.6222
   56bbb    H15 1647   6.569   7.080   9.517  0.1234  0.9247  0.7716
   56bbb    H16 1648   6.446   7.042   9.633  0.3921 -0.7476  1.0505
   56bbb     C9 1649   7.138   7.339   9.712  0.2310 -0.0857  0.5590
   56bbb    H17 1650   7.130   7.244   9.658  2.2119  0.2517 -0.4198
   56bbb    H18 1651   7.231   7.335   9.771  1.2796 -0.1197 -1.0473
   56bbb     O1 1652   6.543   7.147  10.211  0.8513  0.5156 -0.0498
   57bbb     N1 1653   6.201   7.458  11.457 -1.0006 -0.0830 -0.6178
   57bbb     C1 1654   6.065   7.501  11.423  0.5941  0.2795 -0.0535
   57bbb     H1 1655   5.999   7.504  11.510 -1.0698  1.4888 -1.2851
   57bbb     H2 1656   6.033   7.424  11.352  1.2118 -2.8046  2.7556
   57bbb     C2 1657   6.263   7.542  11.562 -1.2187 -0.0301  0.4765
   57bbb     H3 1658   6.299   7.637  11.519  2.2651 -1.6148 -0.5211
   57bbb     H4 1659   6.359   7.495  11.586  0.3704  1.6898 -1.9936
   57bbb     C3 1660   6.291   7.435  11.343 -0.2736  0.0036  0.0167
   57bbb     H5 1661   6.373   7.375  11.384 -0.0004  0.8097  0.6926
   57bbb     H6 1662   6.330   7.525  11.293 -0.1987 -0.3865 -0.6314
   57bbb     C4 1663   6.242   7.353  11.229 -0.2484  0.8530  0.1055
   57bbb     H7 1664   6.170   7.413  11.172  0.2271 -0.0786 -1.5559
   57bbb     H8 1665   6.198   7.258  11.261 -0.4340  0.0754 -2.2382
   57bbb     C5 1666   6.051   7.633  11.358 -0.2569 -0.0756 -0.6653
   57bbb     H9 1667   6.117   7.641  11.270 -0.3862 -1.4808 -0.9136
   57bbb    H10 1668   6.073   7.711  11.432 -1.8362  0.8022 -1.0840
   57bbb     C6 1669   6.186   7.570  11.690  0.1462  0.2874 -0.2260
   57bbb    H11 1670   6.093   7.623  11.667 -0.6816 -1.3818 -0.8188
   57bbb    H12 1671   6.249   7.645  11.740 -0.4728  0.8773 -0.3219
   57bbb     C7 1672   6.358   7.325  11.136  0.4570  0.5001 -0.0532
   57bbb    H13 1673   6.427   7.256  11.186 -0.4212 -0.1882  0.2307
   57bbb    H14 1674   6.414   7.416  11.109  2.0130  0.4804  2.7518
   57bbb     C8 1675   6.161   7.448  11.778 -0.5347 -0.7768  0.2961
   57bbb    H15 1676   6.105   7.370  11.725  1.2383 -2.3876  0.6406
   57bbb    H16 1677   6.101   7.484  11.862  1.2854  1.1926  0.8478
   57bbb     C9 1678   5.900   7.656  11.326  0.2133  0.4063  0.4262
   57bbb    H17 1679   5.853   7.579  11.264 -0.5830  1.2072  0.0180
   57bbb    H18 1680   5.895   7.743  11.259 -1.1760  1.3149  1.6390
   57bbb     O1 1681   6.304   7.273  11.009  0.1849  0.1364  0.5824
   58bbb     N1 1682   5.443   6.524  13.014  0.0146 -0.0956 -0.0661
   58bbb     C1 1683   5.298   6.496  13.023 -0.1815  0.7047 -0.0628
   58bbb     H1 1684   5.282   6.394  12.987  3.3006 -0.1854  0.5193
   58bbb     H2 1685   5.252   6.544  12.936 -1.5925 -0.1736  0.1733
   58bbb     C2 1686   5.517   6.476  13.134 -0.5282  0.1572 -0.1234
   58bbb     H3 1687   5.483   6.532  13.222 -0.1778  2.5058 -1.3966
   58bbb     H4 1688   5.619   6.514  13.123 -1.1652  1.5717 -1.6704
   58bbb     C3 1689   5.498   6.511  12.876 -0.4142  0.0446 -0.3755
   58bbb     H5 1690   5.441   6.575  12.807  2.0460  2.6553 -0.1582
   58bbb     H6 1691   5.501   6.406  12.847  0.7849 -0.1456  0.3770
   58bbb     C4 1692   5.642   6.567  12.859  0.7048  0.5688  0.6730
   58bbb     H7 1693   5.705   6.523  12.938 -0.8004  0.3437  1.7892
   58bbb     H8 1694   5.644   6.673  12.885 -0.2408  0.6864  0.2918
   58bbb     C5 1695   5.227   6.517  13.160 -0.6017 -0.9187  0.0505
   58bbb     H9 1696   5.250   6.617  13.199  0.7371 -0.9610 -0.5832
   58bbb    H10 1697   5.262   6.446  13.235 -0.8873  0.3450  1.4272
   58bbb     C6 1698   5.521   6.321  13.142  0.0830  0.0229 -0.6310
   58bbb    H11 1699   5.580   6.269  13.066 -0.0161 -2.2519  0.7543
   58bbb    H12 1700   5.422   6.285  13.111 -1.8455  1.5988  3.0291
   58bbb     C7 1701   5.692   6.549  12.713  0.8658 -0.1879 -0.5950
   58bbb    H13 1702   5.625   6.606  12.648  0.5818  1.1490  0.8273
   58bbb    H14 1703   5.673   6.444  12.686 -0.1634  0.4056 -2.3505
   58bbb     C8 1704   5.552   6.273  13.288 -0.0104  0.2095 -0.1517
   58bbb    H15 1705   5.495   6.318  13.371 -0.0486 -0.1061 -0.0031
   58bbb    H16 1706   5.655   6.300  13.314  0.5726 -1.3289 -0.7487
   58bbb     C9 1707   5.070   6.510  13.158  0.2927  0.4744 -0.5748
   58bbb    H17 1708   5.023   6.567  13.078 -2.9119 -0.8079  0.2272
   58bbb    H18 1709   5.030   6.545  13.254 -0.1820 -3.3582  0.8069
   58bbb     O1 1710   5.830   6.590  12.705 -0.4852 -0.1201  0.0901
   59bbb     N1 1711   5.742   6.874  11.666 -0.4495  0.3305  0.1199
   59bbb     C1 1712   5.657   6.991  11.645  0.1859  0.3450 -0.2984
   59bbb     H1 1713   5.609   6.980  11.547 -1.9454 -0.6953  0.7836
   59bbb     H2 1714   5.716   7.083  11.635  0.6049  0.0776 -0.3391
   59bbb     C2 1715   5.827   6.838  11.550  0.2890 -0.1611  1.2039
   59bbb     H3 1716   5.926   6.883  11.560 -0.6306  1.9956  1.2144
   59bbb     H4 1717   5.777   6.869  11.457 -0.7912 -1.5221  1.2976
   59bbb     C3 1718   5.812   6.871  11.798  0.3257 -0.3293 -0.6113
   59bbb     H5 1719   5.865   6.775  11.800 -1.6850 -1.5916 -2.6732
   59bbb     H6 1720   5.743   6.868  11.883 -0.0506 -2.6655 -0.9416
   59bbb     C4 1721   5.922   6.979  11.817 -0.3586  0.8404 -0.0161
   59bbb     H7 1722   5.869   7.073  11.838  0.0961  0.7264  1.7569
   59bbb     H8 1723   5.980   7.008  11.728  2.7154  2.6712  2.3765
   59bbb     C5 1724   5.547   7.008  11.753  0.0573  0.1332 -0.7488
   59bbb     H9 1725   5.467   7.073  11.715  0.7528  1.6816  0.3556
   59bbb    H10 1726   5.586   7.040  11.850  0.7482 -0.9217 -0.6594
   59bbb     C6 1727   5.850   6.691  11.522 -0.0216 -0.3357 -0.3415
   59bbb    H11 1728   5.751   6.649  11.543 -1.0750  2.0206 -0.3801
   59bbb    H12 1729   5.921   6.650  11.595  0.3165  0.1921 -0.3734
   59bbb     C7 1730   6.023   6.945  11.923 -0.0966  0.1571  0.6641
   59bbb    H13 1731   6.097   7.026  11.925  0.4304 -0.1983 -1.5580
   59bbb    H14 1732   6.073   6.848  11.910 -1.7808 -0.6344 -0.1977
   59bbb     C8 1733   5.907   6.653  11.381  0.1808 -0.3679 -0.0661
   59bbb    H15 1734   6.004   6.704  11.375  0.0618 -0.1726 -0.3479
   59bbb    H16 1735   5.849   6.684  11.294 -0.7881 -1.3849  0.1970
   59bbb     C9 1736   5.464   6.876  11.783 -0.1989  0.1333 -0.3596
   59bbb    H17 1737   5.537   6.822  11.844 -2.0473  0.6320  2.4514
   59bbb    H18 1738   5.453   6.829  11.684  0.6991 -0.3889 -0.2266
   59bbb     O1 1739   5.954   6.960  12.048  0.0740 -0.1787  0.2037
   60bbb     N1 1740   6.360   6.718  12.900  0.2150  0.2440 -0.1435
   60bbb     C1 1741   6.469   6.794  12.966 -0.1181 -0.1066  0.1496
   60bbb     H1 1742   6.449   6.899  12.943 -0.3437 -0.4972 -1.5662
   60bbb     H2 1743   6.562   6.759  12.919 -1.5515 -0.0131 -2.9463
   60bbb     C2 1744   6.225   6.759  12.946  0.1185 -0.4539 -0.8390
   60bbb     H3 1745   6.196   6.850  12.892  0.4349  1.2471  1.7039
   60bbb     H4 1746   6.224   6.777  13.054  0.0098 -3.0771 -0.3480
   60bbb     C3 1747   6.370   6.705  12.752  0.0241  0.3516 -0.0562
   60bbb     H5 1748   6.383   6.800  12.699  0.8712  0.7721  0.8641
   60bbb     H6 1749   6.275   6.663  12.717 -0.6924  1.2862  0.7078
   60bbb     C4 1750   6.483   6.620  12.694  0.0155  0.1818 -0.1252
   60bbb     H7 1751   6.557   6.575  12.762  0.1087 -2.0657 -1.6118
   60bbb     H8 1752   6.534   6.695  12.632  0.2275  0.5950  0.5378
   60bbb     C5 1753   6.483   6.772  13.126 -1.1020 -0.2036  0.6027
   60bbb     H9 1754   6.390   6.822  13.157  0.0277  2.5135 -0.1075
   60bbb    H10 1755   6.570   6.824  13.168 -0.4945 -0.7839  0.0903
   60bbb     C6 1756   6.115   6.658  12.916  0.1577 -0.0416  0.4071
   60bbb    H11 1757   6.160   6.559  12.930 -2.1026 -1.0896  0.6825
   60bbb    H12 1758   6.073   6.664  12.815  0.3565  1.4114  0.3834
   60bbb     C7 1759   6.437   6.510  12.599 -0.9745  0.2212 -0.2705
   60bbb    H13 1760   6.522   6.451  12.562 -1.0888 -0.9356  1.1951
   60bbb    H14 1761   6.390   6.546  12.506  2.7372 -0.4983 -2.6263
   60bbb     C8 1762   5.996   6.666  13.017 -0.2589  0.2514  0.7949
   60bbb    H15 1763   5.922   6.599  12.973  0.7780 -0.3550 -0.0652
   60bbb    H16 1764   5.938   6.759  13.022 -1.5677 -0.5159  0.2219
   60bbb     C9 1765   6.489   6.629  13.183  0.4791  0.7756 -0.6319
   60bbb    H17 1766   6.576   6.564  13.164 -1.7076 -1.6781 -3.1299
   60bbb    H18 1767   6.406   6.577  13.135 -0.2337  0.9702  0.3622
   60bbb     O1 1768   6.343   6.433  12.669  0.3018  0.1387  0.4536
   61bbb     N1 1769   6.612   6.553  12.093 -0.1868 -0.4732  0.3784
   61bbb     C1 1770   6.729   6.648  12.082  0.7135 -1.0249 -0.0678
   61bbb     H1 1771   6.689   6.749  12.099 -0.2409 -1.0454 -1.9793
   61bbb     H2 1772   6.766   6.644  11.979 -1.7280  0.3225 -1.0900
   61bbb     C2 1773   6.489   6.604  12.023 -0.3411 -0.3103 -0.0429
   61bbb     H3 1774   6.413   6.526  12.010 -2.1431  1.1587  1.1160
   61bbb     H4 1775   6.511   6.630  11.918 -0.0935  1.9305  0.5132
   61bbb     C3 1776   6.660   6.416  12.051  0.3042  0.0020 -0.1458
   61bbb     H5 1777   6.754   6.383  12.097 -1.5302 -2.9559  1.7593
   61bbb     H6 1778   6.662   6.410  11.942 -2.0985  1.3810 -0.3457
   61bbb     C4 1779   6.554   6.311  12.089  0.6346 -0.0456 -0.0175
   61bbb     H7 1780   6.600   6.212  12.085  0.2403 -0.2284 -0.0328
   61bbb     H8 1781   6.467   6.303  12.023  0.9598 -0.2901 -0.4208
   61bbb     C5 1782   6.854   6.619  12.173 -0.3475 -0.0462  0.3184
   61bbb     H9 1783   6.932   6.691  12.146 -0.0380  0.3970  2.1888
   61bbb    H10 1784   6.892   6.519  12.151 -1.2095  0.0087 -1.5611
   61bbb     C6 1785   6.417   6.725  12.100  0.7895  0.4912 -0.3934
   61bbb    H11 1786   6.335   6.759  12.036 -0.1014 -2.8753 -1.2262
   61bbb    H12 1787   6.483   6.813  12.100  0.6283  0.6346 -1.7460
   61bbb     C7 1788   6.491   6.337  12.230  0.3567  0.3892  0.0040
   61bbb    H13 1789   6.407   6.408  12.230 -0.2349 -0.1944 -2.5964
   61bbb    H14 1790   6.569   6.375  12.296  0.7942  1.2543 -0.9793
   61bbb     C8 1791   6.375   6.689  12.247  0.2061  0.0581  0.5541
   61bbb    H15 1792   6.456   6.653  12.311 -0.7358  0.8658  2.2953
   61bbb    H16 1793   6.297   6.611  12.245  1.4644 -1.2504 -2.0707
   61bbb     C9 1794   6.815   6.648  12.322 -0.4523  0.5437 -0.2821
   61bbb    H17 1795   6.735   6.576  12.342 -0.9489  1.1616  0.0087
   61bbb    H18 1796   6.779   6.750  12.339  0.8884  1.0124 -0.1414
   61bbb     O1 1797   6.447   6.206  12.284 -0.4923 -0.5683 -0.1419
   62ccc     C1 1798   4.365   5.342   9.459 -0.4976 -0.4153  0.3819
   62ccc     H1 1799   4.447   5.270   9.447  0.5105  0.5513  1.3061
   62ccc     H2 1800   4.348   5.342   9.567  0.3184 -0.5349  0.5128
   62ccc     C2 1801   4.397   5.471   9.389 -0.6038 -0.5775  0.2373
   62ccc     H3 1802   4.393   5.468   9.279  0.6288  0.7367  0.1260
   62ccc     H4 1803   4.324   5.550   9.415 -3.6063 -1.7587 -3.6089
   62ccc     C3 1804   4.545   5.509   9.435  0.6385 -0.3845  0.0255
   62ccc     H5 1805   4.574   5.605   9.390 -1.3277 -0.9012 -2.5401
   62ccc     H6 1806   4.618   5.433   9.404  0.2482 -0.7550  0.0222
   62ccc     N1 1807   4.252   5.277   9.383 -0.0650 -0.5165  0.1544
   62ccc     H7 1808   4.225   5.194   9.435 -1.4215 -1.0094 -1.2596
   62ccc     H8 1809   4.175   5.344   9.388  1.6317  2.2613 -4.4990
   62ccc     O1 1810   4.552   5.514   9.576 -0.5467 -0.3454 -0.0847
   63ccc     C1 1811   4.389   4.739  10.203  0.3494  0.9120  0.2837
   63ccc     H1 1812   4.346   4.717  10.302  0.0701 -2.0789 -0.4043
   63ccc     H2 1813   4.310   4.731  10.127  0.3139  4.3430 -0.1829
   63ccc     C2 1814   4.446   4.879  10.191  0.4575 -0.3329 -0.4997
   63ccc     H3 1815   4.420   4.928  10.286  0.1116  0.1684 -0.8440
   63ccc     H4 1816   4.555   4.868  10.186  0.7765  1.8598  0.4162
   63ccc     C3 1817   4.404   4.967  10.072  0.1942  0.4861  0.6346
   63ccc     H5 1818   4.307   5.018  10.077  0.0745  0.4100 -0.6708
   63ccc     H6 1819   4.417   4.905   9.983  0.3085 -0.3502  1.2161
   63ccc     N1 1820   4.494   4.637  10.168  1.0588 -0.0470  0.2729
   63ccc     H7 1821   4.453   4.551  10.204 -0.6205  0.1501 -1.0740
   63ccc     H8 1822   4.476   4.621  10.069  2.0860  0.9226 -0.0980
   63ccc     O1 1823   4.493   5.072  10.066  0.0932 -0.1436  0.2995
   64ccc     C1 1824   5.001   4.822  10.523  0.5854 -0.4875  0.2426
   64ccc     H1 1825   5.093   4.854  10.574 -1.3772  3.7243  1.6169
   64ccc     H2 1826   5.011   4.715  10.500  0.9016 -0.4238  0.0866
   64ccc     C2 1827   4.880   4.843  10.625 -0.1868 -0.4274 -0.3246
   64ccc     H3 1828   4.853   4.949  10.628 -1.4650 -0.7295 -0.2312
   64ccc     H4 1829   4.795   4.789  10.580  0.0883 -0.7347 -0.4814
   64ccc     C3 1830   4.912   4.811  10.775  0.3167 -0.5655  0.9714
   64ccc     H5 1831   4.951   4.708  10.774  1.4447 -0.1435 -0.0577
   64ccc     H6 1832   4.824   4.821  10.840 -1.7840  0.6700 -1.8707
   64ccc     N1 1833   4.990   4.885  10.397 -0.1914 -1.0245  0.4264
   64ccc     H7 1834   4.981   4.986  10.413  1.3346 -0.5957 -1.0707
   64ccc     H8 1835   5.079   4.871  10.349 -0.4872  1.1874 -0.9311
   64ccc     O1 1836   5.027   4.897  10.807 -0.0978  0.3667  0.1616
   65ccc     C1 1837   5.776   4.749  11.407  0.6414 -0.0049  0.2994
   65ccc     H1 1838   5.811   4.761  11.510  0.1072  0.0213  0.4802
   65ccc     H2 1839   5.730   4.650  11.395 -0.0851  0.2836  0.6337
   65ccc     C2 1840   5.664   4.858  11.395  0.8413 -0.3049  0.4730
   65ccc     H3 1841   5.589   4.845  11.474 -0.3417  0.0688 -0.5503
   65ccc     H4 1842   5.700   4.961  11.407  1.0139  0.1482 -3.0223
   65ccc     C3 1843   5.581   4.856  11.259  0.3411  0.0762  0.1409
   65ccc     H5 1844   5.504   4.932  11.274  0.5271  0.3541 -0.3056
   65ccc     H6 1845   5.535   4.759  11.237 -1.5936  1.1890 -0.9637
   65ccc     N1 1846   5.882   4.782  11.316  0.0452  0.1951  0.2608
   65ccc     H7 1847   5.843   4.841  11.242  2.2956  2.4853  0.7599
   65ccc     H8 1848   5.929   4.856  11.368  0.3761  0.2981 -0.1760
   65ccc     O1 1849   5.661   4.898  11.145  0.1381  0.1322  0.5606
   66ccc     C1 1850   6.491   5.684   9.558 -0.7716 -0.4383  0.1268
   66ccc     H1 1851   6.489   5.694   9.449  0.6293 -1.1285  0.0157
   66ccc     H2 1852   6.494   5.788   9.593  1.2954 -0.4655  0.1518
   66ccc     C2 1853   6.379   5.613   9.630  0.0794  0.5641 -0.7885
   66ccc     H3 1854   6.365   5.516   9.580 -2.6727  0.1866  0.5279
   66ccc     H4 1855   6.403   5.583   9.732  2.6530 -4.5781 -2.5688
   66ccc     C3 1856   6.242   5.682   9.625  0.1514  0.3125  0.3269
   66ccc     H5 1857   6.240   5.775   9.684 -0.2100  0.2745  0.3734
   66ccc     H6 1858   6.169   5.614   9.671  0.9049 -0.6870  0.0751
   66ccc     N1 1859   6.625   5.620   9.596  0.8014  0.2299  0.0474
   66ccc     H7 1860   6.648   5.652   9.690  0.9099 -1.0861  0.4892
   66ccc     H8 1861   6.600   5.523   9.612 -0.4917  0.6572  0.7987
   66ccc     O1 1862   6.209   5.707   9.489 -0.2315 -0.8229 -0.3727
   67ccc     C1 1863   6.359   6.052   9.981  0.1731 -0.8016  0.8628
   67ccc     H1 1864   6.353   6.039   9.872  3.5244  2.7660 -0.0009
   67ccc     H2 1865   6.382   6.158   9.999  0.3088 -0.4310 -1.2226
   67ccc     C2 1866   6.229   6.003  10.049 -0.2382 -0.0389  0.2974
   67ccc     H3 1867   6.214   5.896  10.030 -0.2445  0.0387 -0.1383
   67ccc     H4 1868   6.248   6.007  10.157  0.2432 -2.1064  0.3326
   67ccc     C3 1869   6.102   6.081  10.014  0.7930  0.7983 -1.2106
   67ccc     H5 1870   6.124   6.188  10.023 -0.9196  0.9907  2.4297
   67ccc     H6 1871   6.023   6.055  10.086  1.8965  2.5496  0.7286
   67ccc     N1 1872   6.475   5.986  10.040  0.4566  0.0999 -0.9360
   67ccc     H7 1873   6.473   6.018  10.137 -1.1387 -1.4127 -0.4135
   67ccc     H8 1874   6.449   5.888  10.030 -0.9792  0.5746 -2.3417
   67ccc     O1 1875   6.049   6.040   9.892 -0.1577 -0.3864  0.5621
   68ccc     C1 1876   4.937   5.699   8.235 -0.4894  0.0675  0.5232
   68ccc     H1 1877   4.971   5.620   8.166  0.1150 -1.0523  2.0517
   68ccc     H2 1878   4.841   5.661   8.271 -0.2539 -1.3025 -0.2021
   68ccc     C2 1879   5.031   5.708   8.358 -0.0176 -0.8259 -0.2152
   68ccc     H3 1880   5.136   5.722   8.327 -0.3673  0.0483 -1.0516
   68ccc     H4 1881   5.003   5.796   8.417  0.5968 -0.7960  0.0389
   68ccc     C3 1882   5.040   5.581   8.445  0.6160 -0.3292 -0.1914
   68ccc     H5 1883   5.114   5.602   8.524  2.3104  0.5461 -1.9178
   68ccc     H6 1884   5.070   5.495   8.384 -0.4185 -0.5133 -0.4491
   68ccc     N1 1885   4.925   5.829   8.160 -0.1282  0.4450 -0.4484
   68ccc     H7 1886   4.908   5.896   8.235 -1.1482  0.3485 -0.5709
   68ccc     H8 1887   5.016   5.858   8.125  0.3864 -2.2629 -1.6315
   68ccc     O1 1888   4.906   5.559   8.490  0.7504  0.1252  0.1497
   69ccc     C1 1889   5.209   5.039   8.424 -0.3466  0.2019  0.1947
   69ccc     H1 1890   5.126   4.976   8.459 -2.4952  1.8755 -1.5781
   69ccc     H2 1891   5.222   5.027   8.316  0.8240  0.2146  0.3173
   69ccc     C2 1892   5.184   5.188   8.466  0.1067 -0.0270  0.1066
   69ccc     H3 1893   5.261   5.251   8.420 -0.4706  0.4508 -0.2243
   69ccc     H4 1894   5.087   5.226   8.432 -0.4168 -1.1102  0.3381
   69ccc     C3 1895   5.177   5.201   8.617 -0.0984 -0.3591  0.3972
   69ccc     H5 1896   5.154   5.308   8.627 -0.6281 -0.4105 -0.2077
   69ccc     H6 1897   5.270   5.172   8.668  1.0708  0.3335 -1.2173
   69ccc     N1 1898   5.340   5.001   8.490 -0.1622 -0.1444 -0.1457
   69ccc     H7 1899   5.315   4.992   8.588  1.8850  0.4401  0.4762
   69ccc     H8 1900   5.370   4.909   8.457 -0.0252 -0.1339 -0.0514
   69ccc     O1 1901   5.066   5.130   8.673  0.2960  0.2842  0.2534
   70ccc     C1 1902   5.282   7.191   9.487  0.2190  0.8259  0.3353
   70ccc     H1 1903   5.292   7.251   9.396  0.2768 -1.0678 -0.9635
   70ccc     H2 1904   5.223   7.254   9.555  0.2454  0.4191  0.7467
   70ccc     C2 1905   5.200   7.064   9.457  0.0032 -0.0635  0.5850
   70ccc     H3 1906   5.106   7.100   9.413  0.0614  0.6920  1.0671
   70ccc     H4 1907   5.254   7.010   9.379 -0.2366  0.5837 -0.0416
   70ccc     C3 1908   5.171   6.973   9.575 -0.1830  0.1312 -0.2046
   70ccc     H5 1909   5.106   6.886   9.556  0.8355 -0.5562 -0.6186
   70ccc     H6 1910   5.120   7.038   9.647  1.3746  1.4582 -0.2588
   70ccc     N1 1911   5.404   7.173   9.552 -1.1351  0.3599  0.3735
   70ccc     H7 1912   5.394   7.109   9.630 -0.1501 -0.7473 -0.3653
   70ccc     H8 1913   5.455   7.118   9.483 -0.9919  1.9680 -0.8567
   70ccc     O1 1914   5.291   6.918   9.626 -0.0170 -0.0729  0.6290
   71ccc     C1 1915   4.997   7.089  10.438 -0.3422  0.1885 -0.4582
   71ccc     H1 1916   4.995   7.190  10.481  0.0699 -0.0422  0.1226
   71ccc     H2 1917   4.989   7.088  10.329  1.4565 -0.3819 -0.6154
   71ccc     C2 1918   5.140   7.054  10.476 -0.2989  0.4520  0.0464
   71ccc     H3 1919   5.210   7.104  10.408 -2.4886  0.5448 -2.2813
   71ccc     H4 1920   5.161   7.096  10.575 -2.3030  3.0642 -0.5429
   71ccc     C3 1921   5.181   6.905  10.457 -0.1589 -0.1466  0.2545
   71ccc     H5 1922   5.111   6.842  10.513 -0.6595  1.3254  1.3469
   71ccc     H6 1923   5.285   6.889  10.490  0.3364  2.9448  0.4784
   71ccc     N1 1924   4.893   7.006  10.488  0.9479  0.5625  0.1494
   71ccc     H7 1925   4.809   7.050  10.450  0.7493  0.5730  0.5976
   71ccc     H8 1926   4.907   6.920  10.434 -0.1870 -0.2440  1.0967
   71ccc     O1 1927   5.174   6.884  10.318 -0.4263  0.1087 -0.0129
   72ccc     C1 1928   3.471   6.714  10.027 -0.3183  0.0015  0.2349
   72ccc     H1 1929   3.514   6.815  10.026  2.0950 -0.9383  1.1553
   72ccc     H2 1930   3.406   6.705   9.939 -0.8063  2.2456  0.2950
   72ccc     C2 1931   3.586   6.613  10.031 -0.1775  0.0088  0.7761
   72ccc     H3 1932   3.639   6.626   9.936 -2.3776  0.4848 -0.4511
   72ccc     H4 1933   3.650   6.629  10.119 -1.0911 -1.8963  1.8695
   72ccc     C3 1934   3.538   6.466  10.029  0.4094 -0.1100 -0.3652
   72ccc     H5 1935   3.472   6.440   9.945 -0.3402 -0.1180  0.2123
   72ccc     H6 1936   3.490   6.443  10.125 -0.6966  0.9948 -0.6279
   72ccc     N1 1937   3.385   6.705  10.143  0.3659 -0.2605  0.4522
   72ccc     H7 1938   3.301   6.753  10.112  0.6606 -0.3480 -0.5059
   72ccc     H8 1939   3.352   6.610  10.127  0.0269 -0.0934  0.1739
   72ccc     O1 1940   3.666   6.395  10.016 -0.8155  0.5010 -0.4455
   73ccc     C1 1941   4.163   5.783   9.813 -0.1910 -0.4613 -0.1306
   73ccc     H1 1942   4.181   5.722   9.902 -0.5817  0.9186  0.9417
   73ccc     H2 1943   4.258   5.836   9.794 -1.0063  0.4158 -1.9252
   73ccc     C2 1944   4.121   5.705   9.688 -0.3300 -0.1088  0.4775
   73ccc     H3 1945   4.176   5.612   9.670  0.2659  0.4379 -0.6856
   73ccc     H4 1946   4.021   5.664   9.701 -0.9183  1.1402  0.0530
   73ccc     C3 1947   4.130   5.789   9.556 -0.7057 -0.4940  0.0737
   73ccc     H5 1948   4.106   5.726   9.470 -1.8242 -0.8430  0.6239
   73ccc     H6 1949   4.234   5.822   9.543 -1.4264  2.6993  1.5572
   73ccc     N1 1950   4.064   5.889   9.850 -0.3094  0.5177  0.8343
   73ccc     H7 1951   4.059   5.948   9.767  2.5403 -0.8601 -0.4651
   73ccc     H8 1952   4.117   5.942   9.919  1.3746 -1.5817  1.2871
   73ccc     O1 1953   4.067   5.916   9.569 -0.8356 -0.5933 -0.3085
   74ccc     C1 1954   6.255   5.545  10.521 -0.2729  0.6105  0.3714
   74ccc     H1 1955   6.334   5.479  10.483 -1.5774 -0.8661  0.1354
   74ccc     H2 1956   6.293   5.648  10.522  1.0330  0.6683 -6.1812
   74ccc     C2 1957   6.130   5.529  10.431  0.1736  0.1872  0.1335
   74ccc     H3 1958   6.100   5.424  10.424 -0.1818  0.2932  0.0888
   74ccc     H4 1959   6.049   5.593  10.467  0.8696  1.7805 -1.0482
   74ccc     C3 1960   6.164   5.573  10.287 -0.0582  0.2364 -0.5927
   74ccc     H5 1961   6.234   5.500  10.244 -0.8939 -1.1766  0.3381
   74ccc     H6 1962   6.198   5.677  10.285 -0.2596  0.3666  1.2329
   74ccc     N1 1963   6.211   5.495  10.653 -0.0320  0.0322  0.4357
   74ccc     H7 1964   6.304   5.492  10.694  0.8816  1.9672 -1.3433
   74ccc     H8 1965   6.172   5.579  10.695  0.6206 -0.1526  1.4548
   74ccc     O1 1966   6.051   5.568  10.206  0.2496  0.1860  0.2411
   75ccc     C1 1967   5.340   5.251  10.351 -0.5830 -0.3232  0.3114
   75ccc     H1 1968   5.429   5.203  10.309 -3.1751 -2.5354 -3.2203
   75ccc     H2 1969   5.364   5.318  10.435  2.3296  0.4274 -1.0108
   75ccc     C2 1970   5.285   5.334  10.237 -0.2435 -0.4393 -0.3171
   75ccc     H3 1971   5.278   5.267  10.150 -0.9450  2.0563 -2.3311
   75ccc     H4 1972   5.186   5.362  10.275  0.4390  0.1016  1.1366
   75ccc     C3 1973   5.377   5.451  10.184 -0.4865  0.1134  0.3997
   75ccc     H5 1974   5.386   5.532  10.257 -1.0719  0.9878 -0.4832
   75ccc     H6 1975   5.333   5.491  10.092 -0.9938 -1.7920 -0.2485
   75ccc     N1 1976   5.240   5.152  10.398 -0.0210 -0.5215 -0.3339
   75ccc     H7 1977   5.158   5.202  10.433  0.6311  0.2030  0.1827
   75ccc     H8 1978   5.204   5.103  10.316  0.7636  0.4280 -1.2908
   75ccc     O1 1979   5.510   5.398  10.157  0.2173 -0.5713 -0.3027
   76ccc     C1 1980   5.807   5.015   9.031 -0.4602 -0.5391  0.0214
   76ccc     H1 1981   5.911   4.992   9.006 -0.3386 -1.9261  1.6084
   76ccc     H2 1982   5.745   4.983   8.947 -0.4928  0.0962 -0.2052
   76ccc     C2 1983   5.765   4.922   9.144 -0.4701  0.5587  0.9390
   76ccc     H3 1984   5.807   4.823   9.127  0.6429  0.7626  2.3350
   76ccc     H4 1985   5.801   4.968   9.237 -0.1877 -0.6881  1.4574
   76ccc     C3 1986   5.609   4.906   9.164  0.4129 -0.3871  0.7695
   76ccc     H5 1987   5.561   4.856   9.079  0.5726  0.3758  0.2278
   76ccc     H6 1988   5.563   5.005   9.169 -1.7256 -1.3030  0.3645
   76ccc     N1 1989   5.784   5.166   9.052  0.1209  0.0281  0.1276
   76ccc     H7 1990   5.835   5.197   8.970  0.4121 -2.6881 -0.8257
   76ccc     H8 1991   5.688   5.180   9.023  1.2672  1.0521 -3.7046
   76ccc     O1 1992   5.597   4.836   9.284  0.4196 -0.3683 -0.2600
   77ccc     C1 1993   5.011   3.904   9.393  0.2718  0.3080 -0.2133
   77ccc     H1 1994   4.987   3.898   9.499  0.6802  2.8535  0.0849
   77ccc     H2 1995   4.927   3.885   9.325  0.0662 -1.4409  0.4738
   77ccc     C2 1996   5.078   4.046   9.367  0.0387 -0.0575 -0.6669
   77ccc     H3 1997   5.171   4.051   9.425  0.1954 -1.5282 -0.7682
   77ccc     H4 1998   5.098   4.049   9.260  0.1803  1.0714 -0.6257
   77ccc     C3 1999   4.984   4.157   9.422 -0.1719 -0.6426  0.5493
   77ccc     H5 2000   4.948   4.146   9.525 -1.6533  2.4040  0.4715
   77ccc     H6 2001   4.892   4.151   9.362  0.4681  0.5760 -0.6087
   77ccc     N1 2002   5.108   3.792   9.377 -0.4555  0.1544  0.4800
   77ccc     H7 2003   5.169   3.789   9.458 -0.3030  0.8347  0.3977
   77ccc     H8 2004   5.053   3.708   9.389 -1.1745  0.0806 -2.5498
   77ccc     O1 2005   5.043   4.290   9.409  0.6752  0.0541  0.0540
   78ccc     C1 2006   3.558   5.943  10.753 -0.5467  0.0696 -0.1822
   78ccc     H1 2007   3.558   6.052  10.742 -0.1665  0.2219  1.1457
   78ccc     H2 2008   3.491   5.897  10.679  1.5986 -2.1682 -0.9069
   78ccc     C2 2009   3.696   5.885  10.728 -0.5878 -0.5587 -0.0764
   78ccc     H3 2010   3.699   5.778  10.752 -0.8254 -0.5041  0.1982
   78ccc     H4 2011   3.713   5.911  10.623 -1.0468  1.9970  0.4201
   78ccc     C3 2012   3.805   5.960  10.806 -0.1742  0.0602  0.1301
   78ccc     H5 2013   3.806   5.917  10.907 -0.4626 -4.8959 -1.6894
   78ccc     H6 2014   3.783   6.067  10.798 -1.5007 -0.1648  0.4965
   78ccc     N1 2015   3.507   5.923  10.888  0.1708 -0.0136 -0.1569
   78ccc     H7 2016   3.406   5.931  10.872 -0.5683 -2.7169  2.2694
   78ccc     H8 2017   3.520   5.830  10.926 -0.5303 -1.0326 -2.2909
   78ccc     O1 2018   3.930   5.930  10.744 -0.3664 -0.2795 -0.2156
   79ccc     C1 2019   3.625   6.433  10.619 -0.8813 -0.5597 -0.1675
   79ccc     H1 2020   3.640   6.331  10.656  0.9079 -0.1120  0.4536
   79ccc     H2 2021   3.721   6.485  10.625 -0.3007 -1.7528  1.5265
   79ccc     C2 2022   3.562   6.426  10.480  0.3612  0.0584  0.4899
   79ccc     H3 2023   3.467   6.371  10.483  0.8398 -0.9656 -1.4753
   79ccc     H4 2024   3.534   6.529  10.453  2.3219  0.4540 -0.1882
   79ccc     C3 2025   3.661   6.359  10.376 -0.3834 -0.6695  0.0105
   79ccc     H5 2026   3.758   6.410  10.372 -0.2949 -0.7312  1.2480
   79ccc     H6 2027   3.621   6.369  10.274  0.3097  1.1954 -0.1134
   79ccc     N1 2028   3.541   6.495  10.712 -0.1284  0.2827  0.2616
   79ccc     H7 2029   3.457   6.437  10.713  2.0969 -3.1455  0.8874
   79ccc     H8 2030   3.572   6.469  10.805  2.4718  0.6651 -0.4346
   79ccc     O1 2031   3.682   6.221  10.408 -0.5631  0.6081 -0.5110
   80ccc     C1 2032   4.810   5.814   8.729  0.2351  0.2954  0.4932
   80ccc     H1 2033   4.911   5.770   8.723  1.4513  2.7658  1.4512
   80ccc     H2 2034   4.756   5.747   8.797 -0.1463 -1.3698 -1.3529
   80ccc     C2 2035   4.844   5.958   8.778  0.5501  0.5127  0.5594
   80ccc     H3 2036   4.934   5.999   8.731 -0.9539  0.4311 -2.6745
   80ccc     H4 2037   4.765   6.028   8.747  0.9242 -0.0276 -1.8092
   80ccc     C3 2038   4.860   5.960   8.929 -0.1510  0.5484 -1.1350
   80ccc     H5 2039   4.915   6.048   8.964  0.1897  0.3019 -1.0391
   80ccc     H6 2040   4.919   5.868   8.943 -0.1380  0.4890 -1.5600
   80ccc     N1 2041   4.765   5.809   8.591  0.5822  0.8694 -0.0590
   80ccc     H7 2042   4.792   5.718   8.555  0.5280  0.7898  0.1024
   80ccc     H8 2043   4.663   5.805   8.599  0.5428  2.2290  0.4590
   80ccc     O1 2044   4.737   5.947   8.994 -0.3390  0.2088 -0.0643
   81ccc     C1 2045   4.194   6.409   8.960  0.7906  0.7245 -0.0324
   81ccc     H1 2046   4.248   6.462   9.039  0.8951  0.4139  0.1058
   81ccc     H2 2047   4.211   6.302   8.973 -1.2472  0.2949 -0.4474
   81ccc     C2 2048   4.038   6.436   8.978 -0.1596  0.4934 -0.5805
   81ccc     H3 2049   4.020   6.544   8.983  0.2182  0.5980 -1.3028
   81ccc     H4 2050   3.984   6.399   8.889  0.5246  0.2229 -0.8901
   81ccc     C3 2051   3.975   6.359   9.107  0.0032  0.1166  0.8230
   81ccc     H5 2052   3.865   6.363   9.106 -0.0490  0.3984 -2.1295
   81ccc     H6 2053   4.014   6.407   9.197  1.0028 -0.3954  0.6767
   81ccc     N1 2054   4.238   6.455   8.835  0.1065 -0.0613 -0.2281
   81ccc     H7 2055   4.330   6.417   8.813  0.1434  0.4815 -1.0683
   81ccc     H8 2056   4.179   6.412   8.764  0.2679 -1.7175  0.6060
   81ccc     O1 2057   4.014   6.221   9.097  0.1403 -0.1390  0.1615
   82ccc     C1 2058   6.100   6.408   9.284 -0.4909  0.3158 -0.1674
   82ccc     H1 2059   6.207   6.411   9.262 -0.5790 -2.3028 -1.3410
   82ccc     H2 2060   6.087   6.354   9.378 -0.8543 -0.5753 -0.7075
   82ccc     C2 2061   6.062   6.551   9.306 -0.0748 -0.2057  0.5374
   82ccc     H3 2062   5.965   6.551   9.357  0.2632 -1.3417  1.2309
   82ccc     H4 2063   6.139   6.594   9.371 -1.6076  3.7001  0.0121
   82ccc     C3 2064   6.056   6.638   9.183  0.3107 -0.7532 -0.1333
   82ccc     H5 2065   6.021   6.576   9.099  2.2337 -2.5105  0.2917
   82ccc     H6 2066   6.156   6.680   9.163  0.9255 -0.1167  3.5212
   82ccc     N1 2067   6.024   6.338   9.181  0.5339  0.1036 -0.7301
   82ccc     H7 2068   6.055   6.378   9.093 -0.0721 -1.7585 -1.8373
   82ccc     H8 2069   6.072   6.248   9.172  0.8631  0.1226  0.5574
   82ccc     O1 2070   5.962   6.742   9.195 -0.0306 -0.0852 -0.0661
   83ccc     C1 2071   5.665   7.284   8.630 -0.3021  0.3196  0.1504
   83ccc     H1 2072   5.701   7.374   8.681  2.3386 -0.2778 -0.4845
   83ccc     H2 2073   5.730   7.269   8.543 -0.6851 -1.3373  0.1070
   83ccc     C2 2074   5.673   7.159   8.715  0.0326  0.1515 -0.0346
   83ccc     H3 2075   5.652   7.070   8.655  1.7306  0.9127 -1.8693
   83ccc     H4 2076   5.775   7.154   8.756  0.4735  0.2930 -1.0769
   83ccc     C3 2077   5.563   7.178   8.819  0.2341  0.7019  0.7394
   83ccc     H5 2078   5.462   7.179   8.776  0.6500  0.8479 -0.2842
   83ccc     H6 2079   5.574   7.271   8.875 -2.0236  1.2229  0.4354
   83ccc     N1 2080   5.536   7.311   8.576 -0.0080  0.0937  0.3982
   83ccc     H7 2081   5.549   7.385   8.507 -0.6718  0.3031  0.4871
   83ccc     H8 2082   5.507   7.233   8.517 -1.5146  0.0649  1.1325
   83ccc     O1 2083   5.575   7.071   8.914 -0.1194  0.0920 -0.2402
   84ccc     C1 2084   6.327   6.344   9.726  0.3676 -0.5025  0.2602
   84ccc     H1 2085   6.287   6.324   9.826 -1.5646  1.5190 -0.0218
   84ccc     H2 2086   6.276   6.271   9.662 -2.2220  0.1244  1.4696
   84ccc     C2 2087   6.293   6.487   9.670  0.0890 -0.4629  0.1360
   84ccc     H3 2088   6.330   6.481   9.567 -1.2761 -1.3278 -0.3205
   84ccc     H4 2089   6.185   6.501   9.673  0.0758 -0.3886  3.7028
   84ccc     C3 2090   6.365   6.603   9.747  0.4649 -0.4737  0.3543
   84ccc     H5 2091   6.340   6.696   9.694  0.9922 -1.3360 -1.4592
   84ccc     H6 2092   6.474   6.594   9.740  0.6675 -0.5986  2.7468
   84ccc     N1 2093   6.462   6.317   9.741  0.2828 -0.4630  0.0823
   84ccc     H7 2094   6.479   6.218   9.762  1.4050 -0.3650 -0.2897
   84ccc     H8 2095   6.513   6.336   9.655  0.2818 -1.0449 -0.0513
   84ccc     O1 2096   6.328   6.593   9.884  0.5540  0.4441 -0.4214
   85ccc     C1 2097   6.038   5.903  10.489 -0.7315 -0.4661 -0.1747
   85ccc     H1 2098   5.978   5.820  10.530 -1.1459  0.0792  0.3454
   85ccc     H2 2099   6.109   5.873  10.412 -0.0208  1.1624 -0.1843
   85ccc     C2 2100   5.956   6.013  10.425 -0.4024  0.4376  0.1269
   85ccc     H3 2101   5.904   5.962  10.342 -0.6588  2.9799 -1.3881
   85ccc     H4 2102   5.872   6.037  10.491 -1.3242 -0.1780 -0.7882
   85ccc     C3 2103   6.034   6.126  10.363 -0.5136 -0.1015 -0.5153
   85ccc     H5 2104   5.963   6.185  10.304 -0.2594 -2.0080 -2.9255
   85ccc     H6 2105   6.114   6.096  10.294  0.4591  0.7971  0.2055
   85ccc     N1 2106   6.122   5.965  10.589  0.1924 -0.0927 -0.4224
   85ccc     H7 2107   6.156   6.053  10.551  0.6034  0.3032  0.7952
   85ccc     H8 2108   6.049   5.997  10.652 -0.8316  0.8463 -2.0189
   85ccc     O1 2109   6.086   6.215  10.457 -0.4111  0.5093 -0.1267
   86ccc     C1 2110   6.312   6.011  11.075 -0.0442 -0.0142  0.3697
   86ccc     H1 2111   6.352   6.111  11.096 -1.2221  0.5663 -0.0716
   86ccc     H2 2112   6.342   5.952  11.163 -3.2328 -1.0964  0.8427
   86ccc     C2 2113   6.153   6.004  11.078  0.3309  0.7571  0.4777
   86ccc     H3 2114   6.114   6.080  11.010 -0.1463  0.5397  0.5024
   86ccc     H4 2115   6.118   5.910  11.035  2.6447  0.0497 -0.0006
   86ccc     C3 2116   6.098   6.027  11.217 -0.9656 -0.3492  0.1926
   86ccc     H5 2117   6.151   6.110  11.264  0.1319  0.5737 -2.4812
   86ccc     H6 2118   6.116   5.941  11.283  0.1710  0.9141  1.5748
   86ccc     N1 2119   6.371   5.951  10.961  0.0648 -0.2993  0.0015
   86ccc     H7 2120   6.340   6.019  10.892  0.7673 -0.7289 -0.7457
   86ccc     H8 2121   6.467   5.983  10.975  0.2700 -0.4169 -1.0403
   86ccc     O1 2122   5.956   6.054  11.201  0.2621  0.1095 -0.5476
   87ccc     C1 2123   5.084   5.589  11.739 -0.1747 -0.0356 -0.1034
   87ccc     H1 2124   5.136   5.501  11.699 -0.3923 -0.0530 -0.3516
   87ccc     H2 2125   5.091   5.596  11.848 -1.1059 -0.8653  0.0289
   87ccc     C2 2126   5.144   5.715  11.676  0.1955 -0.3392  0.2012
   87ccc     H3 2127   5.124   5.714  11.568 -0.5187  1.7176  0.2765
   87ccc     H4 2128   5.097   5.804  11.719  0.2811 -0.3172  0.2503
   87ccc     C3 2129   5.302   5.737  11.699  0.0284  0.4496 -0.5216
   87ccc     H5 2130   5.360   5.646  11.721 -1.7449 -0.3933  0.9790
   87ccc     H6 2131   5.319   5.803  11.786  0.7409 -0.2767 -0.0868
   87ccc     N1 2132   4.947   5.550  11.700  0.9950 -0.6207  0.3156
   87ccc     H7 2133   4.902   5.641  11.708 -1.0403 -1.5655  0.1503
   87ccc     H8 2134   4.958   5.551  11.599  0.4457  4.2946  0.0308
   87ccc     O1 2135   5.361   5.806  11.596 -0.2592  0.2599 -0.4566
   88ccc     C1 2136   4.633   6.514  11.680  0.5982  0.2435 -0.9171
   88ccc     H1 2137   4.553   6.571  11.632 -0.0045  0.6410  0.5070
   88ccc     H2 2138   4.596   6.485  11.779 -0.4464 -0.6586 -1.5467
   88ccc     C2 2139   4.677   6.397  11.594  0.5413  0.2235 -0.2848
   88ccc     H3 2140   4.730   6.443  11.510 -0.0872  1.2833 -0.1261
   88ccc     H4 2141   4.743   6.332  11.652 -0.2429 -1.2608 -0.9989
   88ccc     C3 2142   4.561   6.307  11.552  0.4112 -0.3119 -0.6667
   88ccc     H5 2143   4.478   6.375  11.531  1.0920  0.4540 -0.9527
   88ccc     H6 2144   4.536   6.243  11.637  0.0827  1.2444  0.4442
   88ccc     N1 2145   4.742   6.607  11.707  0.1198 -0.4695 -0.2967
   88ccc     H7 2146   4.808   6.536  11.737 -1.1021 -1.5437 -0.0569
   88ccc     H8 2147   4.777   6.635  11.616  1.4386  2.9912  1.0913
   88ccc     O1 2148   4.588   6.229  11.433 -0.1984 -0.6620 -0.4853
   89ccc     C1 2149   3.553   6.170  11.371 -0.2665  0.1298  0.4407
   89ccc     H1 2150   3.589   6.068  11.390 -1.6457 -0.2867  1.0308
   89ccc     H2 2151   3.575   6.235  11.457 -1.6555 -0.7885  1.5510
   89ccc     C2 2152   3.615   6.228  11.247  0.3776  0.1026 -0.5557
   89ccc     H3 2153   3.579   6.170  11.162  5.8482 -3.1421 -1.1149
   89ccc     H4 2154   3.588   6.334  11.239 -1.7274 -0.5236 -2.8167
   89ccc     C3 2155   3.762   6.208  11.249 -0.1890  0.2343  0.7625
   89ccc     H5 2156   3.783   6.101  11.231  0.7422  0.3571  1.0549
   89ccc     H6 2157   3.806   6.239  11.345 -0.1440  1.7327  0.2719
   89ccc     N1 2158   3.409   6.179  11.361  0.1968  0.5046 -0.1019
   89ccc     H7 2159   3.384   6.093  11.313  1.2208 -0.8169  1.6485
   89ccc     H8 2160   3.372   6.155  11.452 -0.4821 -0.7502 -0.6905
   89ccc     O1 2161   3.827   6.281  11.140  0.1942  0.2819 -0.0146
   90ccc     C1 2162   6.079   7.518  10.792  0.3569 -0.0717 -0.1845
   90ccc     H1 2163   6.096   7.411  10.810 -1.4289 -0.2704  0.4660
   90ccc     H2 2164   6.007   7.534  10.711  1.4728  2.2303 -0.8274
   90ccc     C2 2165   6.020   7.574  10.929  0.7995  0.2634  0.5586
   90ccc     H3 2166   6.090   7.554  11.012  2.6501  4.9907  0.4641
   90ccc     H4 2167   6.005   7.682  10.917 -2.5369 -0.2141 -0.4931
   90ccc     C3 2168   5.888   7.504  10.967 -0.0964  0.1790 -0.8379
   90ccc     H5 2169   5.871   7.509  11.076  1.1935  0.2765 -0.6252
   90ccc     H6 2170   5.901   7.397  10.949  2.2330 -0.1855  2.2706
   90ccc     N1 2171   6.201   7.592  10.757  0.1067  0.1553  0.5277
   90ccc     H7 2172   6.214   7.576  10.657  1.9022 -0.2993  0.7909
   90ccc     H8 2173   6.182   7.692  10.764  2.1161  0.5647  0.8814
   90ccc     O1 2174   5.787   7.569  10.884  0.1500 -0.7019 -0.3198
   91ccc     C1 2175   5.991   7.629  10.044  0.8222 -0.5426 -1.1495
   91ccc     H1 2176   6.043   7.725  10.036  2.7483 -1.5898 -1.6795
   91ccc     H2 2177   6.028   7.578  10.134  0.7417  2.9883  1.0715
   91ccc     C2 2178   5.834   7.650  10.029 -0.2028 -0.3948  0.1317
   91ccc     H3 2179   5.808   7.710  10.118 -1.5402  0.4500 -0.7862
   91ccc     H4 2180   5.809   7.722   9.951  1.2258 -0.2999 -0.2710
   91ccc     C3 2181   5.745   7.524  10.026  0.3487  0.2446  0.1159
   91ccc     H5 2182   5.809   7.440   9.996  0.8828  1.0692 -1.1320
   91ccc     H6 2183   5.668   7.525   9.949  0.8894 -1.3192 -0.4936
   91ccc     N1 2184   6.032   7.544   9.932 -0.1945 -0.0958  0.1480
   91ccc     H7 2185   5.999   7.451   9.960 -1.5594  0.0201 -0.9816
   91ccc     H8 2186   6.130   7.534   9.960  0.3300  0.1313 -1.5217
   91ccc     O1 2187   5.717   7.496  10.159 -0.4400 -0.7345 -0.1580
   92ccc     C1 2188   6.371   7.456  10.451 -0.9257  0.0797 -0.6444
   92ccc     H1 2189   6.366   7.461  10.560  0.7050 -0.4473 -0.5209
   92ccc     H2 2190   6.284   7.413  10.398 -1.6126 -0.1427  0.6279
   92ccc     C2 2191   6.413   7.590  10.395  0.8827 -0.1353 -0.7039
   92ccc     H3 2192   6.513   7.624  10.423  0.5263  1.3659 -1.1300
   92ccc     H4 2193   6.405   7.593  10.285 -2.8655  2.9452 -0.5773
   92ccc     C3 2194   6.314   7.704  10.441 -0.2697  0.4656 -1.0344
   92ccc     H5 2195   6.335   7.789  10.375 -1.2140  0.3083 -1.5565
   92ccc     H6 2196   6.329   7.729  10.547 -0.4345  3.0353 -1.5439
   92ccc     N1 2197   6.474   7.360  10.428  0.2120 -0.3378 -0.1763
   92ccc     H7 2198   6.448   7.271  10.469  1.1843 -0.9022 -0.7233
   92ccc     H8 2199   6.469   7.353  10.326 -1.6851 -1.9509 -0.0187
   92ccc     O1 2200   6.181   7.658  10.432  0.3405  0.5422 -0.1935
   93ccc     C1 2201   5.327   7.737   9.926 -1.2043 -0.9042  0.7199
   93ccc     H1 2202   5.303   7.648   9.985 -1.1263 -1.7812 -0.5372
   93ccc     H2 2203   5.239   7.777   9.874 -3.6374 -2.0091  3.7091
   93ccc     C2 2204   5.392   7.853  10.009 -0.6142 -0.0484  0.5324
   93ccc     H3 2205   5.394   7.946   9.952 -1.6020 -0.9901 -1.1097
   93ccc     H4 2206   5.327   7.874  10.095 -1.8748  0.6336 -0.5628
   93ccc     C3 2207   5.532   7.805  10.067  0.0199 -0.2275  0.0680
   93ccc     H5 2208   5.610   7.820   9.991 -0.9317  0.5822 -0.7921
   93ccc     H6 2209   5.529   7.702  10.105  0.1357  0.4809  2.0752
   93ccc     N1 2210   5.422   7.692   9.823  0.4638  0.1224 -0.1849
   93ccc     H7 2211   5.488   7.641   9.881  0.7475  1.8290  1.0623
   93ccc     H8 2212   5.363   7.626   9.772  0.1839 -0.3407  0.7309
   93ccc     O1 2213   5.568   7.903  10.171 -0.2536 -0.1412  0.1048
   94ccc     C1 2214   5.378   6.893  12.209  0.6574 -0.6742 -0.2600
   94ccc     H1 2215   5.313   6.929  12.127  0.2367 -0.5795  0.1132
   94ccc     H2 2216   5.321   6.826  12.274 -0.2800  0.7325  0.4135
   94ccc     C2 2217   5.494   6.824  12.138 -0.3868 -0.0110 -0.9804
   94ccc     H3 2218   5.438   6.761  12.067 -1.7088  0.0016  0.0065
   94ccc     H4 2219   5.565   6.884  12.081  0.6717 -1.4950 -1.2745
   94ccc     C3 2220   5.574   6.723  12.231  0.0816 -0.2417  0.2396
   94ccc     H5 2221   5.570   6.754  12.336 -3.5873  0.0661  0.1353
   94ccc     H6 2222   5.681   6.722  12.207  0.3891  2.3902  1.1771
   94ccc     N1 2223   5.431   7.017  12.283  0.7035  0.5796 -0.3955
   94ccc     H7 2224   5.346   7.047  12.329  0.9397 -0.0542  0.4813
   94ccc     H8 2225   5.484   6.969  12.356  0.2315  0.1979 -0.2981
   94ccc     O1 2226   5.517   6.588  12.228  0.1004  0.5238 -0.1550
   95ccc     C1 2227   6.005   6.268  12.939 -0.6543  0.2268  0.4807
   95ccc     H1 2228   6.067   6.182  12.911 -1.6891  0.2175 -2.0609
   95ccc     H2 2229   5.995   6.332  12.850 -0.6294 -0.1976  0.1697
   95ccc     C2 2230   5.869   6.223  13.004 -0.4391  0.1303  0.0601
   95ccc     H3 2231   5.877   6.188  13.107 -1.5132 -1.4784 -0.3729
   95ccc     H4 2232   5.802   6.309  13.014 -2.8492 -1.5197 -0.9769
   95ccc     C3 2233   5.801   6.104  12.926 -0.3496  0.1697 -0.2220
   95ccc     H5 2234   5.738   6.057  13.002  0.9117 -1.6021 -0.2156
   95ccc     H6 2235   5.883   6.043  12.888  0.0050  0.9058 -0.6614
   95ccc     N1 2236   6.082   6.337  13.038  0.0693 -0.0539  0.4552
   95ccc     H7 2237   6.175   6.338  12.996 -0.0413 -1.5469  0.0894
   95ccc     H8 2238   6.046   6.431  13.054  2.0995  0.9735 -0.6088
   95ccc     O1 2239   5.725   6.157  12.820  0.0498  0.1307 -0.0769
   96ccc     C1 2240   6.495   5.993  11.568  0.5689  0.1910 -0.4892
   96ccc     H1 2241   6.516   5.900  11.622 -0.5283  1.2079  1.8194
   96ccc     H2 2242   6.399   5.988  11.516  0.9965 -3.6481 -1.1553
   96ccc     C2 2243   6.496   6.116  11.664  0.1344 -0.6279  0.1872
   96ccc     H3 2244   6.595   6.131  11.707  0.0114 -0.9689  0.5919
   96ccc     H4 2245   6.473   6.205  11.604  0.5776 -1.7155 -1.6768
   96ccc     C3 2246   6.401   6.105  11.776  0.5569 -0.3637 -0.4377
   96ccc     H5 2247   6.384   6.207  11.812 -0.0953 -0.7287  0.3339
   96ccc     H6 2248   6.445   6.049  11.859 -1.0347 -0.4289  0.3912
   96ccc     N1 2249   6.606   5.999  11.471  0.4037  0.1735 -0.4598
   96ccc     H7 2250   6.687   5.977  11.530 -0.6005 -1.1054  0.5161
   96ccc     H8 2251   6.584   5.912  11.422 -0.3497 -0.2422  0.5695
   96ccc     O1 2252   6.270   6.050  11.731 -0.0898 -0.7810 -0.6561
   97ccc     C1 2253   6.339   7.031  11.410  0.5009  0.2405  0.2451
   97ccc     H1 2254   6.315   6.925  11.394 -0.9770  0.5281  0.3418
   97ccc     H2 2255   6.284   7.092  11.337 -0.1168  0.3452  0.7874
   97ccc     C2 2256   6.319   7.076  11.551 -0.2090  0.1327 -0.2409
   97ccc     H3 2257   6.386   7.161  11.568 -0.1079 -0.1443  0.8010
   97ccc     H4 2258   6.216   7.111  11.568 -0.4052 -1.1202  1.3097
   97ccc     C3 2259   6.345   6.969  11.658 -0.2913 -0.0421  0.5211
   97ccc     H5 2260   6.308   7.016  11.750 -0.5016 -0.8222  0.8449
   97ccc     H6 2261   6.450   6.939  11.666 -0.2270  0.1163  0.2893
   97ccc     N1 2262   6.474   7.046  11.362  0.2620  0.0566 -0.1888
   97ccc     H7 2263   6.464   7.015  11.265 -0.3537  1.3958 -0.5810
   97ccc     H8 2264   6.497   7.145  11.352  0.7417 -0.0382 -0.0703
   97ccc     O1 2265   6.262   6.857  11.629  0.0971 -0.2500 -0.1014
   98ccc     C1 2266   4.493   4.819  10.857 -0.0325 -0.2838  0.9548
   98ccc     H1 2267   4.593   4.862  10.863  0.1921  0.1933 -3.2532
   98ccc     H2 2268   4.437   4.821  10.952 -0.5697  1.0036  0.6333
   98ccc     C2 2269   4.423   4.916  10.753 -0.0216  0.6352  0.7766
   98ccc     H3 2270   4.344   4.859  10.703  0.5659  0.0413  0.5111
   98ccc     H4 2271   4.377   5.000  10.807  1.2055  0.7849  1.6291
   98ccc     C3 2272   4.508   4.971  10.638  0.1336  0.0123  0.7349
   98ccc     H5 2273   4.542   4.886  10.577  2.2896  1.6172 -0.4759
   98ccc     H6 2274   4.598   5.021  10.677  0.2699  0.1332  0.2723
   98ccc     N1 2275   4.523   4.684  10.807 -0.0987  0.7917 -0.0088
   98ccc     H7 2276   4.606   4.696  10.749  0.9010 -0.7205  1.0233
   98ccc     H8 2277   4.554   4.632  10.889  0.4052  0.9542 -0.0903
   98ccc     O1 2278   4.420   5.051  10.555 -0.2205 -0.2840  0.2258
   99ccc     C1 2279   4.003   5.151   9.813  0.1509  0.3012 -0.2055
   99ccc     H1 2280   4.088   5.082   9.821  1.2665  1.0815 -3.6758
   99ccc     H2 2281   3.961   5.190   9.907 -0.3376  1.4880 -0.8913
   99ccc     C2 2282   4.052   5.280   9.749  0.6686 -0.2557  0.2673
   99ccc     H3 2283   4.062   5.270   9.640  0.1482 -0.2783  0.2166
   99ccc     H4 2284   3.980   5.364   9.753 -0.4491 -1.0707 -1.6100
   99ccc     C3 2285   4.182   5.336   9.808  0.8271 -0.0843 -0.8929
   99ccc     H5 2286   4.202   5.432   9.760 -0.7956 -1.5362 -4.8513
   99ccc     H6 2287   4.259   5.263   9.779  0.4438 -0.4221 -1.0831
   99ccc     N1 2288   3.887   5.089   9.741 -0.7542 -0.2288  0.0205
   99ccc     H7 2289   3.812   5.157   9.749  0.2831  1.0264 -0.4990
   99ccc     H8 2290   3.917   5.082   9.644  1.2214 -2.6605  0.6787
   99ccc     O1 2291   4.176   5.342   9.954  0.2150  0.0815  0.3814
  100ccc     C1 2292   4.477   7.117  11.143  0.0505 -0.5953  0.2773
  100ccc     H1 2293   4.517   7.130  11.041  0.0026 -0.2883  0.2969
  100ccc     H2 2294   4.389   7.183  11.142 -0.7199 -1.5836 -1.0725
  100ccc     C2 2295   4.427   6.979  11.173  0.4667 -0.3293 -0.2788
  100ccc     H3 2296   4.352   6.947  11.099  0.8136 -0.0465 -0.7547
  100ccc     H4 2297   4.514   6.912  11.175  1.6604  1.1718  1.0557
  100ccc     C3 2298   4.367   6.984  11.317 -0.0962 -0.0069  0.7764
  100ccc     H5 2299   4.288   7.060  11.330 -0.7352 -0.7308  1.2091
  100ccc     H6 2300   4.446   7.016  11.385  1.4808  1.8369 -1.7718
  100ccc     N1 2301   4.573   7.165  11.241  0.6560  0.5268  0.6300
  100ccc     H7 2302   4.592   7.258  11.204  3.5215 -0.7749 -1.5191
  100ccc     H8 2303   4.529   7.191  11.329  1.0089  0.8974  0.6985
  100ccc     O1 2304   4.329   6.850  11.352  0.5913 -0.3967 -0.1968
  101ccc     C1 2305   3.881   6.335  12.208  0.3384  0.1420 -0.3717
  101ccc     H1 2306   3.806   6.257  12.225 -2.3144  1.9896 -2.7168
  101ccc     H2 2307   3.837   6.428  12.246 -1.2937 -0.5864 -0.3808
  101ccc     C2 2308   4.021   6.296  12.266 -0.0029  0.0254  0.2960
  101ccc     H3 2309   4.008   6.255  12.367 -1.2798  3.7211  1.7949
  101ccc     H4 2310   4.070   6.223  12.201 -0.9703  0.5551 -1.0488
  101ccc     C3 2311   4.112   6.419  12.285  0.6499  0.5806  0.1980
  101ccc     H5 2312   4.213   6.390  12.317 -0.1876  0.8441  3.3986
  101ccc     H6 2313   4.069   6.472  12.371  1.1019  1.7958 -0.2963
  101ccc     N1 2314   3.880   6.352  12.061  0.2595  0.1942  0.3002
  101ccc     H7 2315   3.800   6.410  12.038  0.3670 -0.0421 -0.7234
  101ccc     H8 2316   3.967   6.402  12.042  0.8489 -1.2146 -0.9494
  101ccc     O1 2317   4.113   6.493  12.161 -0.1510 -0.0526 -0.1027
  102ccc     C1 2318   5.661   5.924   9.100  0.1303  0.1669 -0.2409
  102ccc     H1 2319   5.703   5.868   9.184 -0.5757  1.0565  0.7253
  102ccc     H2 2320   5.655   5.852   9.017  1.3005 -0.3843  0.1345
  102ccc     C2 2321   5.532   5.988   9.143 -0.2729 -0.2824  0.2956
  102ccc     H3 2322   5.549   6.056   9.227  0.3325 -0.6776  0.4970
  102ccc     H4 2323   5.491   6.042   9.057 -1.4000  0.3546  1.1977
  102ccc     C3 2324   5.432   5.885   9.174 -0.6760  0.2376  0.4371
  102ccc     H5 2325   5.448   5.830   9.267 -3.3308 -0.3285  0.6370
  102ccc     H6 2326   5.441   5.804   9.100  1.4770 -0.5659  1.4734
  102ccc     N1 2327   5.751   6.023   9.051  0.3706 -0.5795  0.1119
  102ccc     H7 2328   5.788   6.071   9.134  0.9518 -0.7329 -0.0580
  102ccc     H8 2329   5.839   5.979   9.025  1.6670  1.0543  1.4376
  102ccc     O1 2330   5.308   5.942   9.180  0.0452 -0.3819 -0.0806
  103ccc     C1 2331   5.211   6.668   8.988  0.7773 -0.3481  0.0517
  103ccc     H1 2332   5.315   6.674   9.021  0.8381 -2.0219  0.2241
  103ccc     H2 2333   5.203   6.560   8.973  2.2051 -0.7625  1.8643
  103ccc     C2 2334   5.117   6.723   9.107  0.2779  0.0322 -0.5702
  103ccc     H3 2335   5.112   6.833   9.106  0.0436  0.0570 -3.1286
  103ccc     H4 2336   5.013   6.691   9.089  0.2677 -0.2878  0.0448
  103ccc     C3 2337   5.157   6.665   9.251 -0.0602 -0.0963  0.0984
  103ccc     H5 2338   5.082   6.701   9.321 -0.8915  0.6387 -1.1256
  103ccc     H6 2339   5.255   6.703   9.280 -0.8049 -0.3574  3.2745
  103ccc     N1 2340   5.184   6.741   8.864  0.2939 -0.4891  0.1048
  103ccc     H7 2341   5.093   6.719   8.824  0.2358  1.2691 -0.8463
  103ccc     H8 2342   5.167   6.839   8.886  0.9697  0.7818 -4.1507
  103ccc     O1 2343   5.163   6.523   9.255 -0.8498  0.4786  0.1275
  104ccc     C1 2344   3.823   5.354  10.947 -0.2750 -0.1375 -0.3611
  104ccc     H1 2345   3.897   5.424  10.905  0.3728  1.0545  2.5012
  104ccc     H2 2346   3.746   5.407  11.004  0.8709 -1.5726  2.7542
  104ccc     C2 2347   3.769   5.268  10.833  0.4708  0.2804  0.4749
  104ccc     H3 2348   3.839   5.216  10.766 -1.7478 -2.5420  0.1549
  104ccc     H4 2349   3.711   5.186  10.877  2.0121  1.1161  4.5073
  104ccc     C3 2350   3.669   5.353  10.752 -1.0690 -0.0124  0.0642
  104ccc     H5 2351   3.639   5.437  10.816  0.0755  0.1580  0.3913
  104ccc     H6 2352   3.581   5.289  10.736 -1.0872 -0.0814  0.4243
  104ccc     N1 2353   3.898   5.270  11.044 -0.1672 -0.4127 -0.1885
  104ccc     H7 2354   3.850   5.180  11.039 -3.2609  0.8477  2.7356
  104ccc     H8 2355   3.986   5.256  10.994 -1.0278  1.2147 -2.3213
  104ccc     O1 2356   3.726   5.401  10.633 -0.2066  0.8603  0.1593
  105ccc     C1 2357   3.504   5.750   9.628 -0.5953 -0.5245  0.0440
  105ccc     H1 2358   3.536   5.672   9.698 -1.2593  0.4695  1.5055
  105ccc     H2 2359   3.394   5.749   9.626 -0.6151 -2.4822 -2.0218
  105ccc     C2 2360   3.556   5.887   9.685  0.0592 -1.0115  0.2038
  105ccc     H3 2361   3.663   5.877   9.709  0.4338 -2.4488 -1.8733
  105ccc     H4 2362   3.531   5.959   9.606 -0.7911 -3.3995 -1.8091
  105ccc     C3 2363   3.493   5.942   9.818  0.7792  0.1367  0.1850
  105ccc     H5 2364   3.387   5.969   9.820  0.8069  0.5087 -1.6091
  105ccc     H6 2365   3.546   6.036   9.841  1.1996 -0.0125 -0.1602
  105ccc     N1 2366   3.568   5.724   9.500  0.1122 -0.4795 -0.4374
  105ccc     H7 2367   3.667   5.708   9.517 -0.0347 -1.1591 -0.2078
  105ccc     H8 2368   3.534   5.630   9.483 -3.5845  0.1435  2.2571
  105ccc     O1 2369   3.512   5.843   9.920 -0.0624 -0.4203  0.3187
  106ccc     C1 2370   5.539   5.188   9.472 -0.7535  0.6167 -0.6863
  106ccc     H1 2371   5.524   5.198   9.363 -0.1153 -1.4648 -1.0133
  106ccc     H2 2372   5.582   5.285   9.499 -0.8801  0.3351  0.5521
  106ccc     C2 2373   5.419   5.162   9.563 -0.4533 -0.3439  0.7700
  106ccc     H3 2374   5.337   5.232   9.541 -1.7330 -2.0495 -0.1189
  106ccc     H4 2375   5.374   5.066   9.532  0.9242 -0.4408 -1.1259
  106ccc     C3 2376   5.435   5.160   9.713 -0.6310  0.7357 -0.0146
  106ccc     H5 2377   5.477   5.256   9.748 -1.8145  0.0995  3.5659
  106ccc     H6 2378   5.505   5.088   9.757 -0.5433  2.7470  3.5294
  106ccc     N1 2379   5.648   5.091   9.478  0.7787 -0.3622 -0.2677
  106ccc     H7 2380   5.607   5.014   9.426 -1.0623  1.0709 -1.0554
  106ccc     H8 2381   5.721   5.124   9.416  1.3608 -0.6422  0.2549
  106ccc     O1 2382   5.311   5.159   9.782  0.5279 -0.1795  0.2954
  107ccc     C1 2383   4.611   5.076   9.253  0.2455  0.2362  0.3635
  107ccc     H1 2384   4.561   5.164   9.295  0.3511 -0.2586  1.5807
  107ccc     H2 2385   4.707   5.116   9.217 -0.2924 -0.4429 -1.9701
  107ccc     C2 2386   4.644   4.962   9.358 -0.3544  0.3153 -0.1639
  107ccc     H3 2387   4.556   4.908   9.396 -1.5196  1.3807 -1.2216
  107ccc     H4 2388   4.709   4.888   9.310  1.5464  0.8793  1.4407
  107ccc     C3 2389   4.710   5.042   9.478  0.0726  0.1058 -0.7381
  107ccc     H5 2390   4.659   5.139   9.493 -0.1103 -0.1770  0.6812
  107ccc     H6 2391   4.812   5.074   9.455 -0.0463  1.3179  0.3114
  107ccc     N1 2392   4.539   5.036   9.133  0.2263 -0.8183 -0.6199
  107ccc     H7 2393   4.611   4.981   9.086 -0.1371 -2.0459  0.1983
  107ccc     H8 2394   4.526   5.119   9.076  1.4765 -1.0024 -1.2015
  107ccc     O1 2395   4.704   4.961   9.598 -0.4800 -0.2403  0.0921
  108ccc     C1 2396   5.602   5.425  11.776 -0.0321 -0.4788  0.6216
  108ccc     H1 2397   5.701   5.420  11.729  0.2418  0.5000  1.0811
  108ccc     H2 2398   5.531   5.455  11.699  1.1004 -0.1103 -0.3015
  108ccc     C2 2399   5.555   5.294  11.836 -0.0075 -0.0660 -0.0889
  108ccc     H3 2400   5.620   5.266  11.919  1.0659 -2.9714 -1.7756
  108ccc     H4 2401   5.456   5.305  11.882  0.8847 -0.6151  2.0886
  108ccc     C3 2402   5.531   5.185  11.735  0.3241 -0.3891  0.0897
  108ccc     H5 2403   5.624   5.130  11.719  2.5143  1.9085  3.5142
  108ccc     H6 2404   5.499   5.236  11.643 -1.2064  1.6384  1.6515
  108ccc     N1 2405   5.604   5.536  11.875 -0.2128  0.4016 -0.4949
  108ccc     H7 2406   5.651   5.508  11.961 -0.6919  0.9603 -0.0483
  108ccc     H8 2407   5.656   5.616  11.839 -0.5596  0.8816  0.0613
  108ccc     O1 2408   5.421   5.093  11.776  0.0998  0.0353  0.4204
  109ccc     C1 2409   5.688   5.222  11.220 -0.4370  0.2369  0.3820
  109ccc     H1 2410   5.605   5.159  11.255 -0.7794  0.4231 -0.0829
  109ccc     H2 2411   5.667   5.269  11.123  1.0835  0.2587  0.0354
  109ccc     C2 2412   5.714   5.342  11.316  0.9715 -0.2784 -0.4647
  109ccc     H3 2413   5.773   5.310  11.403 -0.8241  1.0187  1.3395
  109ccc     H4 2414   5.776   5.422  11.274  1.2565 -0.1801  0.1282
  109ccc     C3 2415   5.586   5.392  11.394  0.1517  0.0182 -0.5836
  109ccc     H5 2416   5.609   5.480  11.456 -1.2530  0.5099 -0.7316
  109ccc     H6 2417   5.545   5.305  11.447  1.0604  1.2353  2.3604
  109ccc     N1 2418   5.810   5.147  11.194  0.1804  0.6045  0.5796
  109ccc     H7 2419   5.870   5.201  11.132 -0.9725 -1.0066 -2.1084
  109ccc     H8 2420   5.781   5.060  11.150  2.3966 -0.1830  0.5862
  109ccc     O1 2421   5.498   5.444  11.296  0.2788  0.3833  0.3737
  110ccc     C1 2422   5.527   7.308  12.045 -0.0093  0.5430 -0.2997
  110ccc     H1 2423   5.471   7.261  11.963 -0.8240 -1.4408  1.3192
  110ccc     H2 2424   5.621   7.254  12.058 -1.0777 -0.9932  1.4695
  110ccc     C2 2425   5.548   7.452  11.985  0.1098 -0.4290  0.1154
  110ccc     H3 2426   5.455   7.486  11.938 -0.0940 -0.6725  0.3375
  110ccc     H4 2427   5.570   7.512  12.074 -0.1826 -2.7395  1.8468
  110ccc     C3 2428   5.657   7.444  11.873 -0.2039 -0.5809 -0.5251
  110ccc     H5 2429   5.738   7.397  11.930  0.6356  0.0562 -1.1548
  110ccc     H6 2430   5.690   7.545  11.844  0.0232  0.0122  1.6514
  110ccc     N1 2431   5.440   7.300  12.155 -0.0651  0.3315 -0.2252
  110ccc     H7 2432   5.347   7.293  12.113 -1.1495  1.2235  1.8850
  110ccc     H8 2433   5.455   7.203  12.182 -0.4059  0.5505  0.8282
  110ccc     O1 2434   5.612   7.376  11.758  0.1137  0.5071 -0.0763
  111ccc     C1 2435   4.990   7.260  10.823  0.1279 -0.3881  1.1139
  111ccc     H1 2436   4.986   7.368  10.842 -0.0836  0.1118 -1.3593
  111ccc     H2 2437   4.959   7.230  10.722  0.3626 -0.3742  1.0386
  111ccc     C2 2438   5.133   7.206  10.843  0.7870 -0.2950  0.1345
  111ccc     H3 2439   5.137   7.102  10.878 -1.0238 -1.4773 -2.8015
  111ccc     H4 2440   5.196   7.213  10.754 -0.2504 -0.1767 -0.6098
  111ccc     C3 2441   5.203   7.293  10.949  0.1270 -0.1149  0.3019
  111ccc     H5 2442   5.140   7.292  11.039  0.0059  1.3976  0.2665
  111ccc     H6 2443   5.209   7.396  10.912 -0.8732 -0.8076 -2.0041
  111ccc     N1 2444   4.897   7.197  10.913  0.6312  0.3775  0.5293
  111ccc     H7 2445   4.923   7.225  11.007 -0.6021  2.5389  0.2899
  111ccc     H8 2446   4.819   7.262  10.909 -0.8059 -1.3085 -0.5267
  111ccc     O1 2447   5.336   7.247  10.976 -0.0445  0.3967 -0.1303
  112ccc     C1 2448   6.169   7.100   9.273  1.6099  0.1002  0.7295
  112ccc     H1 2449   6.151   7.080   9.167  2.1324  1.3961  0.3762
  112ccc     H2 2450   6.072   7.099   9.324  1.7580  0.7618  1.0221
  112ccc     C2 2451   6.285   7.022   9.348  0.1132 -0.6767  0.4254
  112ccc     H3 2452   6.370   7.007   9.281 -2.0250  1.7154 -3.1554
  112ccc     H4 2453   6.320   7.075   9.438  0.8666 -0.3308 -0.0596
  112ccc     C3 2454   6.240   6.895   9.413  0.6519  0.9437 -0.1458
  112ccc     H5 2455   6.326   6.863   9.473 -2.0365 -0.6415  3.1766
  112ccc     H6 2456   6.206   6.831   9.331 -1.6489  1.8725  0.0061
  112ccc     N1 2457   6.209   7.236   9.257 -0.4133 -0.3734 -0.1066
  112ccc     H7 2458   6.130   7.294   9.231  0.1512  0.5512  0.2128
  112ccc     H8 2459   6.214   7.263   9.355 -2.0733 -1.5612  0.3502
  112ccc     O1 2460   6.121   6.904   9.487  0.0365  0.0763  0.7937
  113ccc     C1 2461   6.592   7.472   9.299  0.3052  0.0143 -0.0464
  113ccc     H1 2462   6.644   7.512   9.211  0.0996 -0.7346 -0.5153
  113ccc     H2 2463   6.673   7.468   9.372 -0.6035  0.2259  0.9991
  113ccc     C2 2464   6.484   7.580   9.337 -0.3296  0.4446 -0.3223
  113ccc     H3 2465   6.517   7.680   9.308  2.1592  0.4500  2.1398
  113ccc     H4 2466   6.391   7.555   9.283 -0.7992 -0.4230  0.8426
  113ccc     C3 2467   6.446   7.581   9.488  0.0759 -0.0874  0.5367
  113ccc     H5 2468   6.377   7.665   9.504 -2.5833 -2.3541  1.8480
  113ccc     H6 2469   6.534   7.584   9.553  1.3812  0.2047 -1.1641
  113ccc     N1 2470   6.529   7.345   9.271  0.3099  0.2793  0.1138
  113ccc     H7 2471   6.607   7.279   9.267 -0.2738 -0.4437  0.4869
  113ccc     H8 2472   6.485   7.327   9.361 -0.6481 -1.4599 -0.6444
  113ccc     O1 2473   6.382   7.458   9.509  0.7866  0.4071  0.4783
  114ccc     C1 2474   6.733   6.629   9.623 -0.9072  0.1543  0.2879
  114ccc     H1 2475   6.676   6.672   9.706 -1.0922  1.9957 -0.7513
  114ccc     H2 2476   6.729   6.521   9.641  0.6079  0.4068  2.3842
  114ccc     C2 2477   6.668   6.673   9.494 -0.5401  0.7119  0.2546
  114ccc     H3 2478   6.729   6.650   9.405  1.2172 -0.9292  1.8069
  114ccc     H4 2479   6.571   6.622   9.501 -0.0536 -0.4144 -0.8120
  114ccc     C3 2480   6.650   6.827   9.483 -0.0913  0.0021  0.0407
  114ccc     H5 2481   6.618   6.868   9.386  2.0563  2.1747  0.1452
  114ccc     H6 2482   6.749   6.872   9.500  0.3870 -0.8299 -0.4965
  114ccc     N1 2483   6.877   6.663   9.640 -0.0308 -0.2640 -0.2821
  114ccc     H7 2484   6.896   6.604   9.720 -2.2669  0.9334  1.2322
  114ccc     H8 2485   6.935   6.630   9.563  2.5554  1.9453  0.5817
  114ccc     O1 2486   6.550   6.872   9.578  0.2960  0.2952 -0.2375
  115ccc     C1 2487   7.298   7.663   9.472 -0.2063  0.3740 -0.7109
  115ccc     H1 2488   7.271   7.675   9.578 -1.1334 -0.2329 -0.8684
  115ccc     H2 2489   7.405   7.685   9.484 -0.8421  2.5092  2.4816
  115ccc     C2 2490   7.273   7.518   9.419  0.6260  0.1177 -0.0490
  115ccc     H3 2491   7.194   7.524   9.343  0.3908 -0.8573  0.1111
  115ccc     H4 2492   7.357   7.488   9.357  0.3979  2.2863 -1.5402
  115ccc     C3 2493   7.269   7.411   9.527  0.0398  0.3535  0.1023
  115ccc     H5 2494   7.355   7.422   9.593 -0.2146 -1.8489  0.8595
  115ccc     H6 2495   7.261   7.311   9.483 -1.4537 -0.1435  1.3964
  115ccc     N1 2496   7.235   7.763   9.385  0.0925  0.7649 -0.0843
  115ccc     H7 2497   7.138   7.751   9.412  0.2708 -0.5741  0.0411
  115ccc     H8 2498   7.275   7.855   9.405  0.3012  1.2794 -2.5373
  115ccc     O1 2499   7.158   7.437   9.611 -0.1451 -0.2539 -0.6682
  116ccc     C1 2500   6.243   7.458  12.105 -0.8335 -1.3342 -0.0188
  116ccc     H1 2501   6.351   7.452  12.120 -1.0331 -1.1097  1.7455
  116ccc     H2 2502   6.219   7.541  12.038  0.4362  0.2790  1.4484
  116ccc     C2 2503   6.198   7.321  12.046 -0.1764 -0.0711 -0.8527
  116ccc     H3 2504   6.214   7.249  12.127 -0.1474  1.1604  0.2805
  116ccc     H4 2505   6.090   7.320  12.029 -0.3963  0.7816  0.3523
  116ccc     C3 2506   6.277   7.280  11.915  0.3983 -0.0536 -0.7543
  116ccc     H5 2507   6.213   7.211  11.860  0.2349  0.4293 -1.1750
  116ccc     H6 2508   6.375   7.249  11.953 -0.1911  1.1957  2.1046
  116ccc     N1 2509   6.176   7.500  12.225  0.0188 -0.1317 -0.0585
  116ccc     H7 2510   6.201   7.597  12.245  0.4089  0.0015 -1.1540
  116ccc     H8 2511   6.083   7.507  12.184  1.3660  0.4781 -3.3019
  116ccc     O1 2512   6.291   7.400  11.833  0.2905 -0.0772 -0.4420
  117ccc     C1 2513   5.606   7.794  11.672  0.2220  0.7500 -0.0849
  117ccc     H1 2514   5.555   7.874  11.617  1.3070  1.6142  0.1371
  117ccc     H2 2515   5.564   7.695  11.651  1.0281  0.0388  1.4470
  117ccc     C2 2516   5.762   7.793  11.658 -0.6025 -0.2011  0.4780
  117ccc     H3 2517   5.798   7.883  11.710  1.6062 -1.1520  0.7064
  117ccc     H4 2518   5.809   7.707  11.707  0.1539  0.3394  0.7244
  117ccc     C3 2519   5.825   7.802  11.512 -0.2924 -0.1448  0.2936
  117ccc     H5 2520   5.927   7.843  11.520 -0.0080 -0.6264 -0.7635
  117ccc     H6 2521   5.768   7.870  11.448  1.0519  1.3711  0.6370
  117ccc     N1 2522   5.576   7.831  11.811  0.0386  0.7820  0.1222
  117ccc     H7 2523   5.474   7.827  11.817  0.0609 -0.3641 -0.1660
  117ccc     H8 2524   5.589   7.749  11.869 -1.6029 -0.7830 -1.6042
  117ccc     O1 2525   5.824   7.673  11.444  0.2935  0.1620 -0.8521
  118ccc     C1 2526   5.450   5.875  13.348  0.4129 -0.2975 -0.6172
  118ccc     H1 2527   5.394   5.901  13.438  1.5248 -0.7872  0.2379
  118ccc     H2 2528   5.411   5.921  13.256  1.2989 -1.3039 -1.5306
  118ccc     C2 2529   5.598   5.914  13.366  0.5984  0.5700  0.1873
  118ccc     H3 2530   5.643   5.858  13.449  4.3062  1.6525 -0.8965
  118ccc     H4 2531   5.650   5.887  13.273 -3.8324  0.1531 -2.4737
  118ccc     C3 2532   5.613   6.063  13.388  0.0263  0.0794 -0.2956
  118ccc     H5 2533   5.721   6.082  13.385 -0.1723  1.2602 -0.4417
  118ccc     H6 2534   5.572   6.089  13.487  0.1628 -0.9913  0.0582
  118ccc     N1 2535   5.436   5.726  13.329  0.4742  0.8365  0.0812
  118ccc     H7 2536   5.448   5.675  13.416 -0.9857 -0.6330 -0.5399
  118ccc     H8 2537   5.334   5.728  13.320  0.4425  4.8351 -0.3974
  118ccc     O1 2538   5.544   6.132  13.286 -0.1009 -0.3576 -0.1290
  119ccc     C1 2539   4.928   6.187  12.939  0.6646  1.3599  0.1105
  119ccc     H1 2540   4.886   6.254  12.864  0.5321  0.7191 -0.3949
  119ccc     H2 2541   5.037   6.190  12.951  0.5272 -0.3278  2.5700
  119ccc     C2 2542   4.859   6.215  13.077  0.2871 -0.3790  0.4462
  119ccc     H3 2543   4.751   6.199  13.069  0.3476 -0.0769 -1.4807
  119ccc     H4 2544   4.888   6.154  13.163 -2.3552  0.1898  1.8431
  119ccc     C3 2545   4.888   6.364  13.112 -0.6754  0.3896  0.3203
  119ccc     H5 2546   4.830   6.407  13.195 -3.0462  1.0333 -1.5296
  119ccc     H6 2547   4.858   6.431  13.029  0.6764  0.6302  0.0107
  119ccc     N1 2548   4.911   6.051  12.890  0.2651  0.1194  0.1131
  119ccc     H7 2549   4.926   5.992  12.972 -1.0241 -1.6958 -0.8780
  119ccc     H8 2550   4.809   6.047  12.896  0.1088  2.2644 -0.4109
  119ccc     O1 2551   5.030   6.376  13.131 -0.5042 -0.5325  0.1976
  120ccc     C1 2552   6.183   6.348  11.416 -0.4038  0.1614  0.4149
  120ccc     H1 2553   6.160   6.406  11.506 -1.6519  0.5591 -0.1407
  120ccc     H2 2554   6.130   6.252  11.418 -0.3171  0.0756 -0.7043
  120ccc     C2 2555   6.147   6.431  11.295  0.3865 -0.2254 -0.3060
  120ccc     H3 2556   6.189   6.531  11.313  2.2273 -1.4521  3.1971
  120ccc     H4 2557   6.203   6.402  11.205  2.0680  2.6500 -0.3172
  120ccc     C3 2558   5.994   6.453  11.264  0.3261 -0.6000 -0.2176
  120ccc     H5 2559   5.942   6.360  11.240 -2.5802  0.1894  2.3027
  120ccc     H6 2560   5.981   6.515  11.174 -0.9622  1.1844  1.1032
  120ccc     N1 2561   6.333   6.328  11.425 -0.1619  1.0139 -0.2936
  120ccc     H7 2562   6.379   6.418  11.437  1.4220  0.1966  0.0610
  120ccc     H8 2563   6.350   6.276  11.511 -0.7982 -0.9786 -1.3004
  120ccc     O1 2564   5.926   6.511  11.376 -0.1529  0.2307  0.0536
  121ccc     C1 2565   5.100   6.754  11.952 -0.9265  0.5234 -0.5586
  121ccc     H1 2566   5.114   6.658  11.899  1.0479  0.5927 -0.2565
  121ccc     H2 2567   5.189   6.765  12.015 -0.3795 -1.1454 -0.9629
  121ccc     C2 2568   5.102   6.857  11.848 -0.4837 -0.0337  0.0766
  121ccc     H3 2569   5.019   6.829  11.782 -1.4308 -1.7612  1.8927
  121ccc     H4 2570   5.093   6.955  11.896  2.7079  0.8130 -0.8434
  121ccc     C3 2571   5.230   6.849  11.767  0.2225  1.1802 -0.5461
  121ccc     H5 2572   5.209   6.914  11.681 -1.0944  0.1745 -1.0135
  121ccc     H6 2573   5.248   6.745  11.734  1.2739  1.9351 -2.5401
  121ccc     N1 2574   4.978   6.738  12.034  0.7041 -0.2285 -0.3076
  121ccc     H7 2575   4.900   6.757  11.972  0.5516 -0.2260 -0.1166
  121ccc     H8 2576   4.976   6.804  12.112  0.9027 -0.2455 -0.2878
  121ccc     O1 2577   5.332   6.903  11.840  0.5000  0.4405 -0.0273
  122ccc     C1 2578   5.804   6.609  13.447  0.1716  0.4009 -0.1088
  122ccc     H1 2579   5.700   6.576  13.450  0.1966  0.2315 -0.9039
  122ccc     H2 2580   5.855   6.545  13.521 -1.4591 -1.1280 -0.2399
  122ccc     C2 2581   5.856   6.599  13.298  0.2187  0.9601  0.2596
  122ccc     H3 2582   5.866   6.491  13.280  0.3934  0.4113  3.1529
  122ccc     H4 2583   5.775   6.642  13.238 -0.3565 -0.5257 -0.0644
  122ccc     C3 2584   5.992   6.667  13.267  0.3729 -0.3382  0.1760
  122ccc     H5 2585   6.064   6.627  13.339 -0.1339 -0.0985  0.8226
  122ccc     H6 2586   5.971   6.774  13.268 -0.8626 -0.5329 -1.0097
  122ccc     N1 2587   5.795   6.753  13.480 -0.1173 -0.2563 -0.0859
  122ccc     H7 2588   5.746   6.787  13.397  0.1923  1.8864  0.5508
  122ccc     H8 2589   5.730   6.763  13.558 -1.8437 -0.8124 -1.3654
  122ccc     O1 2590   6.046   6.618  13.141  0.4600 -0.6890 -0.1123
  123ccc     C1 2591   6.314   6.554  13.595 -0.9629 -0.4167  0.0777
  123ccc     H1 2592   6.231   6.506  13.541 -1.5509  0.2734  0.3509
  123ccc     H2 2593   6.311   6.529  13.702 -2.1275  1.4986  0.5513
  123ccc     C2 2594   6.451   6.513  13.533  0.5876  0.0539 -0.4771
  123ccc     H3 2595   6.536   6.574  13.566 -1.3861  1.7388  1.8568
  123ccc     H4 2596   6.451   6.417  13.586 -1.3078  1.3468  2.0459
  123ccc     C3 2597   6.439   6.509  13.378 -0.2919 -0.3097  0.1234
  123ccc     H5 2598   6.340   6.475  13.344  0.4475 -0.9097 -1.5422
  123ccc     H6 2599   6.506   6.433  13.336  1.0161  0.7925  0.1457
  123ccc     N1 2600   6.286   6.697  13.596  0.3901  0.0539 -0.1496
  123ccc     H7 2601   6.302   6.733  13.502  1.4572  0.2042  0.0817
  123ccc     H8 2602   6.185   6.707  13.591  0.5129  0.7657 -3.1282
  123ccc     O1 2603   6.462   6.633  13.327  0.4329  0.4927  0.5527
  124ccc     C1 2604   6.134   6.923  12.511  0.2137 -0.0087  0.7460
  124ccc     H1 2605   6.091   6.904  12.412 -0.0481  1.7535  0.4942
  124ccc     H2 2606   6.122   6.837  12.578  1.4852 -0.5057  0.3731
  124ccc     C2 2607   6.285   6.956  12.491  0.1651  0.4551 -0.2480
  124ccc     H3 2608   6.298   7.043  12.424 -1.1089  0.7913 -0.0944
  124ccc     H4 2609   6.322   6.984  12.590 -0.4397 -0.6363  0.3068
  124ccc     C3 2610   6.360   6.834  12.436 -0.3517 -0.1812 -0.3406
  124ccc     H5 2611   6.331   6.748  12.498  0.3976 -0.4191 -0.3144
  124ccc     H6 2612   6.468   6.854  12.441 -0.3528  0.1913 -1.4908
  124ccc     N1 2613   6.060   7.021  12.588 -0.2062 -0.3893 -0.1647
  124ccc     H7 2614   6.116   7.083  12.645 -0.9005  2.2104 -2.1261
  124ccc     H8 2615   6.023   7.089  12.522  0.1512  0.9289  0.9503
  124ccc     O1 2616   6.327   6.820  12.298 -0.4532  0.7047  0.2588
  125ccc     C1 2617   7.088   6.866  12.530 -0.0145 -0.5162  0.0828
  125ccc     H1 2618   7.093   6.970  12.563 -0.8955  0.0591 -1.4902
  125ccc     H2 2619   7.158   6.797  12.580 -0.8326 -0.3090  1.5495
  125ccc     C2 2620   6.946   6.818  12.559  0.1201  0.4011  0.3878
  125ccc     H3 2621   6.921   6.837  12.664 -0.9765 -1.2093  0.4679
  125ccc     H4 2622   6.871   6.873  12.500  1.2783 -0.4274 -1.9847
  125ccc     C3 2623   6.913   6.670  12.546  0.2425  0.2172  0.4092
  125ccc     H5 2624   6.820   6.648  12.600 -0.8229  1.1359 -0.9688
  125ccc     H6 2625   6.995   6.617  12.596 -0.1885 -0.6528  0.2120
  125ccc     N1 2626   7.112   6.865  12.382  0.2717 -0.1387  0.0937
  125ccc     H7 2627   7.070   6.775  12.359 -0.5130 -0.1243  1.3555
  125ccc     H8 2628   7.040   6.935  12.361 -1.1979 -2.1884 -2.2588
  125ccc     O1 2629   6.926   6.632  12.412 -0.6715 -0.5555  0.0145
  126SOL     OW 2630   8.387   2.203   3.067  0.9081 -0.5888  0.1938
  126SOL    HW1 2631   8.339   2.122   3.082 -1.5138  0.8454  0.8015
  126SOL    HW2 2632   8.471   2.175   3.030  0.0679 -3.3194  0.1342
  127SOL     OW 2633   7.439   2.010   6.541  0.0511 -0.3858  0.0344
  127SOL    HW1 2634   7.351   1.992   6.509  0.7868 -0.6945 -1.9508
  127SOL    HW2 2635   7.478   2.066   6.474  1.4533 -0.4703  0.7472
  128SOL     OW 2636   2.485   6.292   8.704 -0.4808 -0.1324  0.1340
  128SOL    HW1 2637   2.540   6.360   8.665 -1.0306 -0.4889 -1.3328
  128SOL    HW2 2638   2.530   6.268   8.784  1.0096  0.2433 -0.5534
  129SOL     OW 2639   5.311   0.002   1.113  0.0858 -0.2159 -0.4269
  129SOL    HW1 2640   5.255   0.078   1.132  0.7900  0.0538  0.6994
  129SOL    HW2 2641   5.317  -0.044   1.197  1.3054 -0.4006 -0.6054
  130SOL     OW 2642   2.974   2.326   1.875 -0.3830 -0.0101 -0.6894
  130SOL    HW1 2643   3.059   2.363   1.853 -0.3758 -0.1001 -0.8134
  130SOL    HW2 2644   2.969   2.245   1.824 -1.0695  0.6313 -1.6823
  131SOL     OW 2645   4.852   4.420   4.330 -0.2550 -0.5140  0.1534
  131SOL    HW1 2646   4.933   4.416   4.279  1.8537  1.7631  3.0057
  131SOL    HW2 2647   4.827   4.512   4.328 -0.3743 -0.4272  2.7114
  132SOL     OW 2648   8.116   5.954   4.640  0.4054 -0.3938 -0.0556
  132SOL    HW1 2649   8.181   5.885   4.641  0.6744 -0.1429 -0.0465
  132SOL    HW2 2650   8.053   5.930   4.708  0.0109 -1.0906 -0.6542
  133SOL     OW 2651  10.292   7.023   2.696  0.0945  0.1870 -0.0774
  133SOL    HW1 2652  10.225   7.036   2.763 -1.0226 -0.3234 -1.0560
  133SOL    HW2 2653  10.303   6.928   2.691 -0.2345  0.1806 -0.9639
  134SOL     OW 2654   4.121   3.574   6.201  0.1084 -0.1542  0.0269
  134SOL    HW1 2655   4.178   3.650   6.213  1.8583 -1.6584  1.7890
  134SOL    HW2 2656   4.057   3.580   6.272 -1.8212  1.3076 -1.7064
  135SOL     OW 2657   4.462   4.734   3.381  0.4045 -0.2734 -0.8910
  135SOL    HW1 2658   4.490   4.649   3.345 -0.2876 -0.0871 -1.9291
  135SOL    HW2 2659   4.489   4.731   3.473 -0.4746 -2.0322 -0.6364
  136SOL     OW 2660   3.685   7.169   6.142  0.3803 -0.3341 -0.0480
  136SOL    HW1 2661   3.734   7.231   6.089 -2.4683 -0.2047 -2.8650
  136SOL    HW2 2662   3.636   7.223   6.204 -1.8603  0.3864 -2.2909
  137SOL     OW 2663   4.181   9.855   8.356 -0.2929  0.3523  0.2238
  137SOL    HW1 2664   4.138   9.866   8.272 -1.5409  1.6189  0.9821
  137SOL    HW2 2665   4.157   9.766   8.384 -3.2550  1.2855  0.9967
  138SOL     OW 2666   7.544   3.213   8.443 -0.1181 -1.2488  0.4552
  138SOL    HW1 2667   7.592   3.135   8.414 -1.4695 -2.1161  0.4971
  138SOL    HW2 2668   7.537   3.267   8.364  0.7353 -1.2053  0.4019
  139SOL     OW 2669   0.716   0.810   6.585  0.2681  0.1000 -0.0045
  139SOL    HW1 2670   0.809   0.830   6.597  0.3050 -0.0279 -0.0808
  139SOL    HW2 2671   0.689   0.866   6.512  0.1185  0.6463  0.4553
  140SOL     OW 2672   7.849   8.413   0.443  0.1704  0.2261 -0.0305
  140SOL    HW1 2673   7.809   8.346   0.389 -3.6529  0.7303  1.8342
  140SOL    HW2 2674   7.902   8.364   0.507 -0.2032 -0.7726 -0.4729
  141SOL     OW 2675   3.226   0.263   1.270 -0.0544  0.5888  0.0911
  141SOL    HW1 2676   3.233   0.241   1.177  1.3008 -0.9113  0.4840
  141SOL    HW2 2677   3.305   0.313   1.288 -0.8205  1.7715  0.2385
  142SOL     OW 2678  10.628  10.137   2.407  0.1713  0.4398  0.1549
  142SOL    HW1 2679  10.566  10.207   2.428 -1.7988 -0.8956 -0.7687
  142SOL    HW2 2680  10.644  10.093   2.491 -0.7920  0.3529  0.3149
  143SOL     OW 2681   4.790   2.014   3.750  0.5645  0.1187 -0.1132
  143SOL    HW1 2682   4.708   2.047   3.714 -0.0615  0.1410  1.2585
  143SOL    HW2 2683   4.857   2.073   3.715 -0.2544  1.3670  0.3644
  144SOL     OW 2684   1.985   4.911   9.879  0.3086 -0.5479 -0.2853
  144SOL    HW1 2685   2.063   4.876   9.923 -0.8673 -2.4299  0.4060
  144SOL    HW2 2686   1.976   4.858   9.800 -0.8161 -1.0255  0.1436
  145SOL     OW 2687  10.363   4.770   8.661 -0.2972  0.3004 -0.4003
  145SOL    HW1 2688  10.373   4.773   8.566 -1.6228 -1.4919 -0.6607
  145SOL    HW2 2689  10.441   4.813   8.695 -0.0662  1.5078 -2.2844
  146SOL     OW 2690   0.388   4.896   2.026 -0.1888 -0.2121 -0.1151
  146SOL    HW1 2691   0.292   4.899   2.031 -0.2015  0.3417 -0.5509
  146SOL    HW2 2692   0.417   4.895   2.117 -0.5829  0.8097  0.0348
  147SOL     OW 2693   5.725   3.832   4.959 -0.5531  0.5034 -0.1928
  147SOL    HW1 2694   5.792   3.851   5.025  1.6230 -1.2383 -1.7292
  147SOL    HW2 2695   5.699   3.741   4.977  1.3565 -0.6397 -2.6197
  148SOL     OW 2696   2.560   8.096   4.143  0.0067 -0.5584 -0.7883
  148SOL    HW1 2697   2.496   8.025   4.151 -0.9340  0.0964 -2.1987
  148SOL    HW2 2698   2.635   8.056   4.098  0.4904 -1.2396  0.5690
  149SOL     OW 2699   7.711   8.710   0.247  0.2439  0.0304  0.1802
  149SOL    HW1 2700   7.654   8.786   0.256  0.5347  0.1812  0.7634
  149SOL    HW2 2701   7.652   8.635   0.253 -0.3791  0.1717 -2.4938
  150SOL     OW 2702   0.266   4.891   3.883 -0.2861 -0.1561 -0.1345
  150SOL    HW1 2703   0.306   4.809   3.855 -0.4058 -0.0185 -0.7293
  150SOL    HW2 2704   0.329   4.928   3.946 -0.7832 -1.2467  1.0347
  151SOL     OW 2705   6.018   4.120  10.645 -0.3242 -0.3744  0.2252
  151SOL    HW1 2706   6.019   4.117  10.549 -0.0084  1.5388  0.1348
  151SOL    HW2 2707   6.008   4.213  10.666 -0.9283 -0.8117  2.0579
  152SOL     OW 2708   6.934   8.083   7.768  0.2164 -0.1205 -0.1538
  152SOL    HW1 2709   6.873   8.102   7.839  2.0257  1.5690  1.0481
  152SOL    HW2 2710   6.962   7.993   7.785  0.2507  0.0947  1.0132
  153SOL     OW 2711   7.803   7.812   8.474 -0.2637  0.6166  0.1158
  153SOL    HW1 2712   7.793   7.763   8.392 -2.0609  0.3906  0.4212
  153SOL    HW2 2713   7.760   7.758   8.540  3.4534 -0.5113  1.8646
  154SOL     OW 2714   1.271   5.824   7.032 -0.3974  0.0329 -0.0853
  154SOL    HW1 2715   1.351   5.771   7.030 -0.8155 -0.6198 -0.0564
  154SOL    HW2 2716   1.296   5.904   7.078  0.4681  0.2278 -0.8643
  155SOL     OW 2717   3.581   1.379   1.147  0.0980  0.7214 -0.2297
  155SOL    HW1 2718   3.593   1.285   1.165 -1.7481  1.0596  4.0041
  155SOL    HW2 2719   3.487   1.392   1.147  0.2645  2.4547 -2.2871
  156SOL     OW 2720   5.313   2.421   6.914  0.0396  0.0157  0.0498
  156SOL    HW1 2721   5.346   2.476   6.843 -2.1329  0.8214 -0.4017
  156SOL    HW2 2722   5.327   2.331   6.884 -0.6097  0.3426 -1.3219
  157SOL     OW 2723   1.669   4.451   6.814 -0.1642  0.2305 -0.7400
  157SOL    HW1 2724   1.763   4.466   6.807 -0.1212  0.5863  0.4192
  157SOL    HW2 2725   1.632   4.538   6.833 -0.5695 -0.1180  0.1373
  158SOL     OW 2726   3.845  10.243   8.658 -0.9909  0.9854 -0.0074
  158SOL    HW1 2727   3.792  10.281   8.728 -0.3221 -0.4070  1.3123
  158SOL    HW2 2728   3.842  10.149   8.673 -1.0318  0.6188 -2.0415
  159SOL     OW 2729   5.581  10.121   1.973  0.1393  0.2263  0.4930
  159SOL    HW1 2730   5.535  10.063   2.034  0.3854 -0.5898 -0.0899
  159SOL    HW2 2731   5.526  10.122   1.895  1.5001 -1.4439 -0.5387
  160SOL     OW 2732   3.204   8.789   6.413 -0.7282 -0.9541 -0.9102
  160SOL    HW1 2733   3.154   8.728   6.466 -0.0910 -0.4489  0.3024
  160SOL    HW2 2734   3.284   8.742   6.389 -0.1402 -0.5592  0.2002
  161SOL     OW 2735   1.520   2.107   6.265  0.6905 -0.3201  0.2985
  161SOL    HW1 2736   1.450   2.042   6.267  0.5757 -0.2400 -0.8235
  161SOL    HW2 2737   1.493   2.173   6.329  0.1467 -0.6879  0.4529
  162SOL     OW 2738   5.846   8.388   7.761 -0.4487 -0.2314  0.0667
  162SOL    HW1 2739   5.890   8.342   7.690 -0.3590  0.3330 -0.2563
  162SOL    HW2 2740   5.913   8.400   7.828 -0.1085  0.5506 -0.3883
  163SOL     OW 2741  10.323   0.158   3.994 -0.0679  0.2978 -0.5798
  163SOL    HW1 2742  10.365   0.094   4.052  1.9668 -0.4462 -2.7141
  163SOL    HW2 2743  10.333   0.241   4.040 -0.0321 -0.4614  0.8687
  164SOL     OW 2744   3.515   9.692   4.374 -0.0483 -0.3046 -0.0729
  164SOL    HW1 2745   3.473   9.606   4.383 -0.8141 -0.0542 -1.0123
  164SOL    HW2 2746   3.574   9.698   4.449  0.8436 -2.1172 -0.5593
  165SOL     OW 2747   0.661   5.503  10.415  0.0777 -0.1376 -0.0838
  165SOL    HW1 2748   0.630   5.562  10.347  1.1311  1.7627  0.9765
  165SOL    HW2 2749   0.748   5.537  10.438 -0.1522 -0.8068  2.0320
  166SOL     OW 2750   2.712   8.343  10.375  0.1251 -0.3054 -0.5103
  166SOL    HW1 2751   2.794   8.295  10.360  0.9932  0.4465  1.4408
  166SOL    HW2 2752   2.706   8.348  10.470 -1.6562  0.6042 -0.6488
  167SOL     OW 2753   1.641   0.354   1.906 -0.1841 -0.2631 -0.0517
  167SOL    HW1 2754   1.610   0.274   1.863 -2.0598  0.6493 -0.4936
  167SOL    HW2 2755   1.585   0.364   1.982 -0.9808  1.3806 -0.7957
  168SOL     OW 2756   9.954   4.422   9.507 -0.6070  0.2613  0.1232
  168SOL    HW1 2757   9.920   4.417   9.417  1.4416 -0.0194 -0.6959
  168SOL    HW2 2758  10.049   4.419   9.496 -0.1882  2.7275  2.1357
  169SOL     OW 2759   4.589   3.792   9.417 -0.0465 -0.0508  0.4308
  169SOL    HW1 2760   4.628   3.781   9.504  0.3906 -0.0237  0.2404
  169SOL    HW2 2761   4.563   3.884   9.415 -2.0280 -0.5312  1.3314
  170SOL     OW 2762   0.798  10.408   2.184 -0.2267  0.4296  0.3459
  170SOL    HW1 2763   0.776  10.370   2.098 -1.0065 -1.1634  1.1960
  170SOL    HW2 2764   0.789  10.335   2.245  1.6815  1.1948  1.6208
  171SOL     OW 2765   1.024   6.560   2.056  0.5693 -0.2604  0.3245
  171SOL    HW1 2766   0.990   6.645   2.029  1.1622 -0.2254 -0.3368
  171SOL    HW2 2767   1.020   6.562   2.152 -1.0234 -0.1596  0.2855
  172SOL     OW 2768   0.688   9.261   5.418  0.0006 -0.5819  0.0025
  172SOL    HW1 2769   0.606   9.295   5.384  0.9037  0.2515 -1.4693
  172SOL    HW2 2770   0.666   9.174   5.452 -1.7949  0.2836  1.2256
  173SOL     OW 2771   6.434   2.018   5.553 -0.2073  0.5717  0.0412
  173SOL    HW1 2772   6.457   1.938   5.601 -2.5040  0.5047  1.1540
  173SOL    HW2 2773   6.381   1.987   5.480 -0.6751  1.0184  0.1858
  174SOL     OW 2774   4.996   2.239   0.626 -0.7043  0.4567  0.4848
  174SOL    HW1 2775   4.911   2.196   0.621 -0.1382 -0.6532 -0.1493
  174SOL    HW2 2776   5.055   2.180   0.578  0.6328  0.6470  1.8222
  175SOL     OW 2777   8.043   2.296   0.089 -0.3354  0.8824  0.1480
  175SOL    HW1 2778   7.952   2.275   0.072 -0.7677  2.5516  0.1563
  175SOL    HW2 2779   8.093   2.236   0.034 -1.4963  1.2861 -1.4192
  176SOL     OW 2780   2.382   8.514   9.278 -0.1127 -0.2824  0.5076
  176SOL    HW1 2781   2.328   8.590   9.300 -0.8538 -0.2361 -1.3043
  176SOL    HW2 2782   2.354   8.489   9.190  2.0867 -0.9209 -0.0860
  177SOL     OW 2783   3.215   3.544   0.247  0.0996  0.0222 -0.3145
  177SOL    HW1 2784   3.164   3.480   0.198  0.7362 -0.3237 -0.5423
  177SOL    HW2 2785   3.151   3.590   0.301 -0.1331 -2.2215  1.4559
  178SOL     OW 2786   6.100   2.422   9.256  0.3879  0.8300 -0.0242
  178SOL    HW1 2787   6.195   2.431   9.266  0.0843  2.3111  2.5735
  178SOL    HW2 2788   6.078   2.345   9.308  0.2895 -0.6410 -2.1305
  179SOL     OW 2789   7.096   4.452   3.601  0.5584 -0.2864  0.3866
  179SOL    HW1 2790   7.082   4.359   3.619 -0.0639 -0.1740  0.5101
  179SOL    HW2 2791   7.136   4.486   3.681  1.1441 -0.5256  0.1963
  180SOL     OW 2792   9.303   2.363   0.293 -0.2262  0.7533 -0.3950
  180SOL    HW1 2793   9.378   2.304   0.297 -0.3285  0.6118 -0.5347
  180SOL    HW2 2794   9.256   2.350   0.375 -0.0134  0.9556 -0.2394
  181SOL     OW 2795   8.783   9.384   9.423 -0.6256  0.0039  0.3019
  181SOL    HW1 2796   8.781   9.472   9.384  0.8731  0.2403  0.6776
  181SOL    HW2 2797   8.824   9.397   9.509  2.9146 -1.4616 -0.9793
  182SOL     OW 2798   5.454   0.431   3.871  0.3715 -0.3271 -0.0832
  182SOL    HW1 2799   5.510   0.503   3.899 -0.1394  0.1062 -0.1520
  182SOL    HW2 2800   5.511   0.355   3.871  0.5313 -0.2438  1.6039
  183SOL     OW 2801   0.158   6.728   0.883  0.3104 -0.1782 -0.4555
  183SOL    HW1 2802   0.087   6.720   0.818 -1.1403 -0.2256  1.0773
  183SOL    HW2 2803   0.237   6.739   0.830 -0.6735 -1.2420 -2.2589
  184SOL     OW 2804   9.712   7.502   1.879 -0.5436  0.0766  0.2741
  184SOL    HW1 2805   9.672   7.559   1.813 -2.3692 -0.6816  0.6670
  184SOL    HW2 2806   9.762   7.438   1.827  2.1434  2.3273 -0.1514
  185SOL     OW 2807   9.825   6.003   6.613 -0.0391 -0.0452  0.3351
  185SOL    HW1 2808   9.794   5.951   6.539  0.1801 -1.1930  1.0371
  185SOL    HW2 2809   9.888   5.947   6.657  0.6884  1.0706  0.7436
  186SOL     OW 2810   9.988   2.821   5.267 -0.4492 -0.0601 -0.6387
  186SOL    HW1 2811  10.054   2.856   5.206  0.5094  1.0802  0.9731
  186SOL    HW2 2812   9.932   2.896   5.286 -2.2686 -1.0148 -1.9625
  187SOL     OW 2813   0.889   8.030   0.832 -0.0273  0.2673 -0.1164
  187SOL    HW1 2814   0.892   8.055   0.740 -0.9271 -0.3235 -0.3123
  187SOL    HW2 2815   0.804   8.061   0.863 -0.2904 -0.7247  0.1711
  188SOL     OW 2816   2.829   3.657   3.534  0.2016 -0.4529  0.1226
  188SOL    HW1 2817   2.836   3.750   3.556 -2.2002 -0.3348  0.6885
  188SOL    HW2 2818   2.916   3.622   3.550  0.9694  1.5477  0.6425
  189SOL     OW 2819   2.784   3.409   8.670  0.3900 -0.0387 -0.4215
  189SOL    HW1 2820   2.792   3.328   8.619 -1.6357  1.6111 -3.7451
  189SOL    HW2 2821   2.835   3.473   8.621 -0.6876  1.3938  0.2698
  190SOL     OW 2822   1.326   2.141   8.152 -0.4282 -0.3964  0.1887
  190SOL    HW1 2823   1.248   2.133   8.097  0.8201 -2.0182 -1.4711
  190SOL    HW2 2824   1.399   2.139   8.090  0.9944 -0.0631  1.7787
  191SOL     OW 2825   3.467   4.898   2.729  0.4948 -0.8883 -0.3353
  191SOL    HW1 2826   3.408   4.823   2.730  3.2300 -3.1728 -0.4087
  191SOL    HW2 2827   3.513   4.892   2.645  1.1660  0.5676 -0.1172
  192SOL     OW 2828  10.607  10.571   8.219 -0.1345  0.5062  0.4350
  192SOL    HW1 2829  10.687  10.561   8.271  0.6759 -0.4614 -0.9425
  192SOL    HW2 2830  10.595  10.486   8.176 -2.9204  0.0081  1.9388
  193SOL     OW 2831   0.874   8.051   6.604 -0.3703  0.0913 -0.3194
  193SOL    HW1 2832   0.811   8.121   6.589  0.5006  1.4400  1.9147
  193SOL    HW2 2833   0.955   8.095   6.628  1.3208 -1.6172 -2.3530
  194SOL     OW 2834   1.946   6.407   5.729  0.6020 -0.1251 -0.2743
  194SOL    HW1 2835   1.904   6.353   5.661  1.2719  0.7592 -1.4314
  194SOL    HW2 2836   1.926   6.362   5.811 -2.1270 -0.0900 -0.7953
  195SOL     OW 2837   1.695   2.762   8.812 -0.1142 -0.4050  0.4137
  195SOL    HW1 2838   1.624   2.783   8.751 -1.0195  0.6693  1.7860
  195SOL    HW2 2839   1.765   2.823   8.788 -0.0532 -0.7256 -0.2449
  196SOL     OW 2840   8.607   1.416   7.741 -0.2640  0.8109 -0.4495
  196SOL    HW1 2841   8.540   1.360   7.702 -2.9206  3.1002  0.5518
  196SOL    HW2 2842   8.666   1.355   7.786 -1.3709 -1.3248 -1.7240
  197SOL     OW 2843   3.155   2.555   3.818  0.4375  0.1359 -0.5330
  197SOL    HW1 2844   3.239   2.548   3.863  0.6732  0.5060 -0.9100
  197SOL    HW2 2845   3.175   2.602   3.737  0.0062 -0.4398 -0.9849
  198SOL     OW 2846   9.093   0.926   0.213  0.3037  0.2190 -0.2795
  198SOL    HW1 2847   9.150   0.931   0.290  2.6659  1.7178 -1.9700
  198SOL    HW2 2848   9.057   1.015   0.205 -0.7491 -0.2064 -0.3503
  199SOL     OW 2849   7.278   3.809   4.197  0.3212  0.4450  0.1435
  199SOL    HW1 2850   7.208   3.872   4.215  1.2357  2.0161 -1.5583
  199SOL    HW2 2851   7.357   3.849   4.233  1.0313  0.6079 -1.5131
  200SOL     OW 2852   4.857   1.025   3.019 -0.6424  0.4601  0.4705
  200SOL    HW1 2853   4.815   1.044   2.935 -0.9932 -0.3704  0.4555
  200SOL    HW2 2854   4.918   1.098   3.031 -0.7072  0.6821 -0.4257
  201SOL     OW 2855   0.616   7.704   0.406  0.2264  0.6765 -0.3178
  201SOL    HW1 2856   0.690   7.679   0.351  0.0751 -0.5555 -0.0089
  201SOL    HW2 2857   0.655   7.751   0.479  0.7995 -0.4584  0.1394
  202SOL     OW 2858   1.059   4.027   3.133 -0.4079 -0.2222  0.5953
  202SOL    HW1 2859   1.068   4.080   3.054  0.8554 -0.7318  0.3765
  202SOL    HW2 2860   0.982   3.972   3.116  0.4089 -1.0156 -0.7000
  203SOL     OW 2861   6.512   4.371   4.619  0.4188 -0.3639  0.2628
  203SOL    HW1 2862   6.452   4.342   4.551 -1.8522  3.4019  0.3856
  203SOL    HW2 2863   6.527   4.464   4.599  2.8124 -0.1058  2.7252
  204SOL     OW 2864   6.063   1.646   8.027  0.0365  0.2601 -0.3507
  204SOL    HW1 2865   6.082   1.607   8.113 -0.3251  0.0954 -0.3467
  204SOL    HW2 2866   6.144   1.634   7.978  0.3171  0.5402  0.0349
  205SOL     OW 2867   6.440   5.251   5.185  0.2389  0.3553  0.2154
  205SOL    HW1 2868   6.386   5.318   5.226  0.3128  0.9538 -0.6311
  205SOL    HW2 2869   6.516   5.299   5.152  0.5207 -0.2198  0.0129
  206SOL     OW 2870   0.477   5.160   1.134 -0.4319  0.3640  0.2295
  206SOL    HW1 2871   0.447   5.150   1.224  2.7649 -3.5622  1.1175
  206SOL    HW2 2872   0.419   5.103   1.083  0.1438 -0.4841  0.5041
  207SOL     OW 2873   8.032   2.512   6.677  0.1298 -0.4631  0.2556
  207SOL    HW1 2874   7.995   2.584   6.626 -0.7606 -1.0833  0.0082
  207SOL    HW2 2875   8.090   2.466   6.617  0.4400 -0.1487  0.3160
  208SOL     OW 2876   7.193   7.349   8.411 -0.8798 -0.6863  0.7760
  208SOL    HW1 2877   7.287   7.361   8.424 -1.1048  1.3263  0.8941
  208SOL    HW2 2878   7.184   7.258   8.384  1.1699 -0.7700  0.1842
  209SOL     OW 2879  10.460   0.574   6.932  0.2661  0.4514  0.2399
  209SOL    HW1 2880  10.397   0.604   6.998  0.4646  0.4137  0.4456
  209SOL    HW2 2881  10.491   0.655   6.891 -0.7412  0.4224 -0.6327
  210SOL     OW 2882   7.946  10.646   4.023 -0.0946 -0.7163  0.0495
  210SOL    HW1 2883   7.928  10.562   4.066 -0.7568 -1.5241 -1.6922
  210SOL    HW2 2884   7.934  10.628   3.930  0.1681  1.2273 -0.4041
  211SOL     OW 2885   2.916   4.928   1.077  0.4720 -0.1481  0.3101
  211SOL    HW1 2886   2.906   4.889   1.164 -2.1485 -2.2432 -0.8065
  211SOL    HW2 2887   2.951   4.858   1.023  0.9296  0.7648 -0.6103
  212SOL     OW 2888   5.799   1.722   2.156  0.2761 -0.0593 -0.0520
  212SOL    HW1 2889   5.837   1.634   2.163 -0.1175 -0.1766  0.6340
  212SOL    HW2 2890   5.822   1.765   2.238 -2.4536 -0.7006  1.1467
  213SOL     OW 2891   3.654   0.362   7.702 -0.5036  0.2641 -0.5419
  213SOL    HW1 2892   3.691   0.441   7.741 -0.4050  0.0077 -0.1061
  213SOL    HW2 2893   3.729   0.311   7.673 -0.4685 -0.4604  0.7443
  214SOL     OW 2894   8.692   3.858   3.179  0.5484 -0.6971  0.4882
  214SOL    HW1 2895   8.737   3.892   3.257  0.3897 -2.8609  1.5723
  214SOL    HW2 2896   8.603   3.839   3.208 -0.6090  1.6628 -1.1538
  215SOL     OW 2897   2.104   6.569   0.454  0.3269 -0.6826 -0.7416
  215SOL    HW1 2898   2.163   6.497   0.477  0.2091 -0.9902 -1.3928
  215SOL    HW2 2899   2.161   6.645   0.446  0.3934 -0.5988  0.3936
  216SOL     OW 2900   5.251   8.544   2.373 -0.4806  0.3874 -0.2491
  216SOL    HW1 2901   5.284   8.454   2.371 -0.5855  0.3350  0.1405
  216SOL    HW2 2902   5.283   8.584   2.292  1.7476  0.7604  0.7354
  217SOL     OW 2903  10.105   1.439   4.568 -0.6824  0.2730  0.2737
  217SOL    HW1 2904  10.161   1.486   4.629  0.2920 -0.2222 -0.2244
  217SOL    HW2 2905  10.045   1.506   4.534  1.4069  1.4907 -1.2901
  218SOL     OW 2906   7.623   7.382   4.500 -0.1892 -0.0654  0.3681
  218SOL    HW1 2907   7.646   7.473   4.517 -1.5421  0.0279  1.9508
  218SOL    HW2 2908   7.697   7.331   4.535 -0.6016  0.3480  1.9009
  219SOL     OW 2909   7.714   2.809   3.603 -0.0494  0.0042  0.3631
  219SOL    HW1 2910   7.794   2.846   3.566  1.0895 -1.0379  1.6797
  219SOL    HW2 2911   7.658   2.792   3.527  0.4512  1.9005 -0.4746
  220SOL     OW 2912   3.223   8.867   2.477  0.4131 -0.0224  0.1019
  220SOL    HW1 2913   3.316   8.852   2.459  0.2092 -4.1293  1.3129
  220SOL    HW2 2914   3.214   8.852   2.571 -1.7148 -2.1683 -0.3419
  221SOL     OW 2915  10.648   2.944   4.173 -0.0183  0.1197 -0.0014
  221SOL    HW1 2916  10.601   2.990   4.243 -0.4345 -0.7535  0.3117
  221SOL    HW2 2917  10.695   2.874   4.218  1.2525  0.7157 -0.3692
  222SOL     OW 2918   1.025   5.953   7.245 -0.3360 -0.3103 -0.0341
  222SOL    HW1 2919   0.999   5.920   7.159 -0.4394  0.5064 -0.3244
  222SOL    HW2 2920   1.110   5.995   7.229 -0.5990  0.2999  0.1533
  223SOL     OW 2921   4.640   1.132   2.829  0.2889 -0.3214 -0.3594
  223SOL    HW1 2922   4.689   1.214   2.839 -1.1549  0.5273  0.1374
  223SOL    HW2 2923   4.621   1.105   2.918  0.9031 -1.3220 -0.5184
  224SOL     OW 2924  10.567   5.113   0.859 -0.2672 -0.3778  0.3198
  224SOL    HW1 2925  10.556   5.032   0.808 -2.8112  0.2242 -0.2149
  224SOL    HW2 2926  10.583   5.181   0.794 -0.5991 -0.0655  0.5610
  225SOL     OW 2927   1.892   8.991   4.263 -0.8155 -0.1776 -0.4359
  225SOL    HW1 2928   1.907   9.079   4.228  0.2395 -0.5790 -1.0550
  225SOL    HW2 2929   1.971   8.943   4.240 -0.9598 -1.0219  0.7789
  226SOL     OW 2930   4.036   5.057   6.210  0.0663 -0.0765 -0.3868
  226SOL    HW1 2931   4.033   5.027   6.300  1.8986  1.2807  0.1862
  226SOL    HW2 2932   4.049   4.977   6.158  0.5328 -0.7164  0.6874
  227SOL     OW 2933   0.907   1.173   9.828  0.0669 -0.5485  0.4434
  227SOL    HW1 2934   0.818   1.139   9.818  0.1047 -0.4189 -0.4342
  227SOL    HW2 2935   0.941   1.127   9.904 -0.6930 -0.7220  0.6962
  228SOL     OW 2936   1.255   3.892   9.305 -0.4946  0.1582  0.0421
  228SOL    HW1 2937   1.300   3.837   9.241 -2.4186 -0.4568 -0.8721
  228SOL    HW2 2938   1.289   3.980   9.289  0.4942 -0.3028 -0.4753
  229SOL     OW 2939   2.600   9.300   0.731  0.0718  0.1012 -0.2883
  229SOL    HW1 2940   2.533   9.275   0.795 -0.0598 -0.1060 -0.5067
  229SOL    HW2 2941   2.581   9.392   0.712 -1.1556 -0.3727 -1.5481
  230SOL     OW 2942  10.315   2.302   5.920  0.4572 -0.2689 -0.8838
  230SOL    HW1 2943  10.401   2.341   5.910  0.3447  0.1784 -0.1894
  230SOL    HW2 2944  10.259   2.352   5.861  0.3727  0.4428 -0.2102
  231SOL     OW 2945   0.382   5.338   5.079 -0.2925 -0.0623  0.4681
  231SOL    HW1 2946   0.300   5.293   5.058 -0.3021 -0.0703  0.5233
  231SOL    HW2 2947   0.414   5.293   5.157  0.7263 -1.3189 -0.6234
  232SOL     OW 2948   1.906   2.224   0.733 -0.1889  0.2335  0.4553
  232SOL    HW1 2949   1.991   2.267   0.735  0.5096 -0.9517 -1.3586
  232SOL    HW2 2950   1.868   2.241   0.820  1.1097  2.2731  0.7001
  233SOL     OW 2951   7.773   5.083   9.854  0.1650 -0.0228 -0.1861
  233SOL    HW1 2952   7.764   5.127   9.770  0.3116 -2.1820 -1.3897
  233SOL    HW2 2953   7.867   5.073   9.866  0.1102 -1.6283 -0.8604
  234SOL     OW 2954   4.773   6.342   5.471 -0.0677 -0.1214  0.1103
  234SOL    HW1 2955   4.706   6.293   5.519 -0.8450  0.8861  0.1117
  234SOL    HW2 2956   4.793   6.416   5.529  0.2277  0.1899 -0.3834
  235SOL     OW 2957   4.225   2.349   9.829 -0.4620  0.5779  0.0420
  235SOL    HW1 2958   4.176   2.411   9.883  0.0862 -0.8797  2.3458
  235SOL    HW2 2959   4.316   2.363   9.855 -0.0785  0.3877 -1.1475
  236SOL     OW 2960   0.717   6.631   1.811 -0.5787  0.4842 -0.6601
  236SOL    HW1 2961   0.665   6.554   1.789 -0.5832  0.9501 -2.4993
  236SOL    HW2 2962   0.652   6.700   1.828 -0.5974 -0.0843  1.9216
  237SOL     OW 2963   8.172   3.926  10.422 -0.0106  0.0606 -0.5180
  237SOL    HW1 2964   8.235   3.989  10.389 -0.0130 -0.9112 -2.5441
  237SOL    HW2 2965   8.087   3.960  10.395 -0.0576 -0.4905 -1.0824
  238SOL     OW 2966   8.909   3.543   5.329  0.4049  0.4706 -0.2251
  238SOL    HW1 2967   8.829   3.508   5.291  0.2131  0.2701  0.3462
  238SOL    HW2 2968   8.883   3.624   5.372  0.8253  1.2720 -1.4286
  239SOL     OW 2969   0.218   5.600  10.147 -0.0476 -0.0964  0.3035
  239SOL    HW1 2970   0.171   5.534  10.198 -0.7749 -0.5612 -0.9203
  239SOL    HW2 2971   0.211   5.680  10.199 -1.8125 -0.2586  0.3705
  240SOL     OW 2972   4.378   1.503   0.038  0.1053  0.0028 -1.0093
  240SOL    HW1 2973   4.321   1.433   0.005 -0.4469  0.9857 -2.2183
  240SOL    HW2 2974   4.328   1.583   0.024  0.9968  0.7087 -0.2587
  241SOL     OW 2975   6.507   4.137  10.429  0.1272 -0.0135 -0.9881
  241SOL    HW1 2976   6.539   4.220  10.394 -1.1330  1.3198  0.8321
  241SOL    HW2 2977   6.418   4.156  10.458  0.1315 -1.7525  0.3151
  242SOL     OW 2978  10.630   9.451   8.045  0.2667 -0.3794  0.5499
  242SOL    HW1 2979  10.639   9.430   7.952 -3.0442 -1.7609  0.3839
  242SOL    HW2 2980  10.661   9.372   8.090 -0.5755 -0.7859  0.4502
  243SOL     OW 2981  10.304   1.483   8.740  0.5222 -0.8814 -0.4003
  243SOL    HW1 2982  10.380   1.466   8.795 -0.4261 -1.4965  0.7696
  243SOL    HW2 2983  10.284   1.576   8.755  0.1477 -1.0975  0.4702
  244SOL     OW 2984   2.763   9.293  10.579  0.4322  0.0945  0.1741
  244SOL    HW1 2985   2.702   9.347  10.529  1.1029 -0.9314 -1.8938
  244SOL    HW2 2986   2.781   9.343  10.658 -2.2291  0.9044  0.3588
  245SOL     OW 2987   7.381   9.325   4.422 -0.1656  0.8783  0.1287
  245SOL    HW1 2988   7.308   9.295   4.476  1.3809 -1.7489  0.9339
  245SOL    HW2 2989   7.371   9.278   4.339 -0.2080  1.6825 -0.3351
  246SOL     OW 2990   8.035   0.484   6.534 -0.2438 -0.7652 -0.5254
  246SOL    HW1 2991   8.089   0.466   6.457 -0.4218  0.2865 -0.9129
  246SOL    HW2 2992   8.016   0.398   6.571 -0.8208 -1.3367 -2.1058
  247SOL     OW 2993   0.291   6.934   0.650 -0.1143 -0.4847 -0.1073
  247SOL    HW1 2994   0.357   6.997   0.621  0.6421 -1.0794  0.2835
  247SOL    HW2 2995   0.341   6.866   0.695 -0.8117 -1.8020 -1.2360
  248SOL     OW 2996   9.684   8.658   7.059 -1.1156 -0.4701 -0.1910
  248SOL    HW1 2997   9.653   8.577   7.019 -0.1154 -0.5570 -0.8249
  248SOL    HW2 2998   9.616   8.682   7.122 -2.1958 -0.9240 -1.1595
  249SOL     OW 2999   4.298   4.147   6.330 -0.1116  0.2732 -0.5731
  249SOL    HW1 3000   4.309   4.236   6.296 -0.5420  1.5608  2.3376
  249SOL    HW2 3001   4.212   4.119   6.297 -0.2501  1.1872 -1.0249
  250SOL     OW 3002  10.146   9.651   3.252  0.2269 -0.1558  0.1890
  250SOL    HW1 3003  10.079   9.601   3.299  0.3033  0.6415  1.1775
  250SOL    HW2 3004  10.133   9.741   3.282  1.5181  0.0605  0.1307
  251SOL     OW 3005   9.179   4.924   5.890 -0.5757  0.0680 -0.2074
  251SOL    HW1 3006   9.206   4.894   5.977 -3.6136  0.2712  0.9165
  251SOL    HW2 3007   9.234   5.001   5.874  3.0453 -2.2883 -0.4733
  252SOL     OW 3008   3.708   3.012   9.626 -0.1286 -0.5342  0.7041
  252SOL    HW1 3009   3.781   2.973   9.674  2.1435  1.2272 -1.0961
  252SOL    HW2 3010   3.679   3.084   9.682 -1.2338 -1.8373  1.8850
  253SOL     OW 3011  10.033   9.090   2.418 -1.0018 -0.5356 -0.8040
  253SOL    HW1 3012  10.067   9.126   2.499 -1.6487  0.6354 -1.0258
  253SOL    HW2 3013  10.110   9.066   2.367 -0.5121  1.2246 -0.9352
  254SOL     OW 3014   1.302   9.459   6.817  0.3511 -0.2256 -0.1751
  254SOL    HW1 3015   1.356   9.489   6.890 -0.1683 -0.3952  0.2923
  254SOL    HW2 3016   1.285   9.366   6.837 -0.2909 -0.1171 -0.1879
  255SOL     OW 3017   1.427  10.487   7.537  0.2021  0.3319  0.0681
  255SOL    HW1 3018   1.368  10.471   7.611 -0.0840  1.4785  0.1058
  255SOL    HW2 3019   1.423  10.406   7.486  0.5983 -0.5794  1.4238
  256SOL     OW 3020   2.579   6.047   3.271 -0.0372 -0.9952 -0.5934
  256SOL    HW1 3021   2.663   6.087   3.294  1.2314 -2.2717 -2.7328
  256SOL    HW2 3022   2.534   6.113   3.218  0.1595 -0.7825 -0.4962
  257SOL     OW 3023   5.632   9.534   9.166 -0.2102 -0.0813 -0.4841
  257SOL    HW1 3024   5.588   9.449   9.169  1.3808 -0.9547 -0.9578
  257SOL    HW2 3025   5.578   9.590   9.222 -1.4606 -1.3047 -0.4007
  258SOL     OW 3026   9.937   4.967  10.567 -0.1685  0.3102 -0.5809
  258SOL    HW1 3027   9.910   5.035  10.505 -1.7584 -1.4807 -1.9968
  258SOL    HW2 3028   9.855   4.937  10.606  0.5677 -0.3425  0.5120
  259SOL     OW 3029   7.981   3.653   1.440 -0.3014 -0.6066  0.2436
  259SOL    HW1 3030   7.923   3.600   1.494 -1.1418  1.1754  1.1873
  259SOL    HW2 3031   7.925   3.720   1.402  0.6895 -0.4493 -1.0575
  260SOL     OW 3032   5.482   1.077   6.677 -0.6248 -0.2557 -0.4806
  260SOL    HW1 3033   5.456   1.042   6.591  1.7400 -1.9938 -0.5993
  260SOL    HW2 3034   5.493   0.999   6.732  2.3937  0.3789 -0.0090
  261SOL     OW 3035  10.062   7.348   0.893 -0.1576 -0.1852 -0.3679
  261SOL    HW1 3036  10.132   7.285   0.874 -0.8479 -0.4283 -2.3963
  261SOL    HW2 3037  10.024   7.367   0.807 -1.0346  1.7661  0.3980
  262SOL     OW 3038   9.740   4.078   1.243 -0.1522  0.1177  0.5406
  262SOL    HW1 3039   9.678   4.112   1.177  1.1105 -0.2178 -0.8708
  262SOL    HW2 3040   9.825   4.084   1.201  0.6884 -0.2746  2.1197
  263SOL     OW 3041  10.590   1.642   8.547  0.2606 -0.1757 -0.2947
  263SOL    HW1 3042  10.608   1.723   8.596  2.2563  0.8203 -2.4641
  263SOL    HW2 3043  10.495   1.640   8.538  0.0835  1.3221  0.7597
  264SOL     OW 3044   7.706  10.643   1.261 -0.3176 -0.0705 -0.3895
  264SOL    HW1 3045   7.704  10.722   1.207 -0.3103  0.6849  0.7009
  264SOL    HW2 3046   7.646  10.661   1.333  0.2212 -0.7876  0.2548
  265SOL     OW 3047   2.043   2.334   6.495 -0.1501  0.4385  0.1157
  265SOL    HW1 3048   2.034   2.405   6.558 -0.0203  1.1107 -0.6088
  265SOL    HW2 3049   1.995   2.261   6.534 -1.0384  1.1922  0.4610
  266SOL     OW 3050   3.670   3.461   1.824  0.3000  0.2141 -0.4629
  266SOL    HW1 3051   3.642   3.552   1.822  1.7812  0.7051 -0.3305
  266SOL    HW2 3052   3.704   3.447   1.912 -2.1949 -1.2478  0.3716
  267SOL     OW 3053   2.544   7.782   6.741 -0.0182  0.0865 -0.3084
  267SOL    HW1 3054   2.563   7.873   6.761  0.6247  0.3144 -1.8718
  267SOL    HW2 3055   2.621   7.734   6.773 -0.6089 -0.0182  1.0508
  268SOL     OW 3056   3.213   3.161   1.871  0.0404  0.3865 -0.1567
  268SOL    HW1 3057   3.176   3.227   1.930 -3.6289 -0.5457 -1.1294
  268SOL    HW2 3058   3.207   3.199   1.784  1.3779  0.1160 -0.3966
  269SOL     OW 3059   7.922   4.979   6.207  0.2601  0.4470 -0.5400
  269SOL    HW1 3060   7.984   5.050   6.191  0.1460  0.5740 -0.4214
  269SOL    HW2 3061   7.867   4.978   6.128  0.5741  0.1664 -0.7576
  270SOL     OW 3062   2.539   7.775   6.048 -0.2408  0.1643 -0.0848
  270SOL    HW1 3063   2.611   7.805   5.993 -1.2307  1.1948 -0.8562
  270SOL    HW2 3064   2.506   7.697   6.004  0.2580 -0.1959  0.1644
  271SOL     OW 3065   6.590   3.709   6.475 -0.2117 -0.1207  0.1176
  271SOL    HW1 3066   6.676   3.711   6.435 -1.6386 -2.3626 -3.5675
  271SOL    HW2 3067   6.543   3.783   6.436 -0.1184  0.9096  1.8725
  272SOL     OW 3068   6.084   5.033   5.377 -0.5835 -0.2645 -0.1542
  272SOL    HW1 3069   6.176   5.044   5.401 -1.2688  1.1224  2.1612
  272SOL    HW2 3070   6.035   5.071   5.450 -3.0135 -0.0883 -1.7405
  273SOL     OW 3071   0.439   5.678   5.822 -0.4274  0.6011 -0.0091
  273SOL    HW1 3072   0.425   5.741   5.892 -0.6711  0.0260  0.4757
  273SOL    HW2 3073   0.456   5.731   5.744 -0.4949  1.2537  0.4151
  274SOL     OW 3074   6.569   1.266   8.697  0.1162 -0.1982  0.3032
  274SOL    HW1 3075   6.490   1.292   8.744  1.1198  3.5456  0.2080
  274SOL    HW2 3076   6.542   1.260   8.606 -0.0398  1.4347  0.2206
  275SOL     OW 3077   1.220   8.972   6.192  0.1542 -0.9370 -0.2639
  275SOL    HW1 3078   1.125   8.973   6.207 -0.0685 -1.1605 -1.5899
  275SOL    HW2 3079   1.243   9.064   6.178  0.0172 -0.9520 -0.5980
  276SOL     OW 3080   9.924   0.545   0.213 -0.9756 -0.2245  0.3558
  276SOL    HW1 3081  10.012   0.558   0.177 -0.9813  2.0392  0.9743
  276SOL    HW2 3082   9.902   0.454   0.192  0.9436 -0.4298 -1.0215
  277SOL     OW 3083   0.916   1.443   3.979  0.6622 -0.2112 -0.2036
  277SOL    HW1 3084   0.900   1.478   4.067  0.7439  0.9908 -0.6540
  277SOL    HW2 3085   0.995   1.487   3.950 -0.0596  0.3581 -1.3767
  278SOL     OW 3086   8.768   5.869   9.057  0.6313  0.2924 -0.2026
  278SOL    HW1 3087   8.693   5.823   9.021  0.5480  1.8682 -2.2108
  278SOL    HW2 3088   8.844   5.819   9.026  0.6030  2.0055 -3.4252
  279SOL     OW 3089   0.224   3.077   9.164  0.2246  0.1374  0.7040
  279SOL    HW1 3090   0.237   3.083   9.069 -0.2023 -1.4199  0.5169
  279SOL    HW2 3091   0.232   3.167   9.195 -2.4149  1.1733 -1.1946
  280SOL     OW 3092   5.019   0.326   6.251  0.3515  0.6059  0.1495
  280SOL    HW1 3093   4.962   0.396   6.219 -1.7442 -1.4435 -0.9997
  280SOL    HW2 3094   5.037   0.349   6.342 -0.1715  2.6535 -0.2116
  281SOL     OW 3095   5.882   0.479   8.376 -0.0866  0.4552  0.5764
  281SOL    HW1 3096   5.959   0.536   8.370  0.1579 -0.0323 -2.3479
  281SOL    HW2 3097   5.917   0.397   8.412  0.6846  0.3881 -0.2963
  282SOL     OW 3098   0.786   3.147   5.859 -0.0825 -0.2614  0.0382
  282SOL    HW1 3099   0.752   3.233   5.885  1.1253  0.0672  0.6056
  282SOL    HW2 3100   0.874   3.145   5.894  0.2721 -1.3382 -0.8625
  283SOL     OW 3101   0.253   9.272   9.970 -0.3485 -0.0717 -0.1669
  283SOL    HW1 3102   0.161   9.262   9.994 -0.7206  0.3849 -1.3256
  283SOL    HW2 3103   0.251   9.329   9.893  1.0479  1.5858  0.9634
  284SOL     OW 3104   7.371   6.143   6.444  0.0323  0.3943 -0.0757
  284SOL    HW1 3105   7.353   6.217   6.387 -0.7732  1.3139  1.3158
  284SOL    HW2 3106   7.348   6.174   6.532  0.2309 -1.3095  0.6169
  285SOL     OW 3107   1.854   1.746   3.632 -0.3897 -0.5558  0.2807
  285SOL    HW1 3108   1.906   1.676   3.671 -0.6154 -0.8210  0.1126
  285SOL    HW2 3109   1.906   1.825   3.645 -0.5019 -0.6206  1.1982
  286SOL     OW 3110   7.910   3.677  10.518  0.4665 -0.7016 -0.0356
  286SOL    HW1 3111   7.878   3.591  10.544  0.9524 -1.2290 -1.0854
  286SOL    HW2 3112   7.932   3.667  10.425 -0.3284  0.8135 -0.4134
  287SOL     OW 3113   3.320   6.713  10.425  0.1034  0.2899 -0.1305
  287SOL    HW1 3114   3.373   6.767  10.483 -0.4106  0.5396  0.1173
  287SOL    HW2 3115   3.374   6.699  10.347  0.1856  1.2749 -0.2547
  288SOL     OW 3116  10.052   6.857   8.018 -0.1847  0.3581  0.1334
  288SOL    HW1 3117  10.135   6.820   8.049  0.0222  0.3409 -0.4395
  288SOL    HW2 3118   9.995   6.854   8.095  0.1375 -0.2329  0.3582
  289SOL     OW 3119   9.795   2.779   3.804  0.1194 -0.5588 -0.4256
  289SOL    HW1 3120   9.840   2.713   3.857  0.1300 -1.5627 -1.6322
  289SOL    HW2 3121   9.736   2.728   3.748 -2.3614  0.7007  0.9083
  290SOL     OW 3122   8.771   3.235   4.858  0.8532  0.2176 -0.0396
  290SOL    HW1 3123   8.802   3.325   4.863  0.2306  0.4360 -0.0381
  290SOL    HW2 3124   8.801   3.195   4.940 -0.3866  0.9230  0.8026
  291SOL     OW 3125   5.152   1.497   4.539 -0.0026 -0.0668  0.2187
  291SOL    HW1 3126   5.227   1.454   4.580  0.5923 -0.5984 -1.3674
  291SOL    HW2 3127   5.189   1.545   4.465 -1.2847 -0.9393 -1.0553
  292SOL     OW 3128   1.589   1.339   2.009 -0.7444 -0.2150 -0.4018
  292SOL    HW1 3129   1.538   1.384   2.076 -1.8290 -1.2833 -0.4824
  292SOL    HW2 3130   1.679   1.367   2.025 -1.0583 -0.0086  1.1270
  293SOL     OW 3131   4.807   8.872   1.218  0.2219  0.7836 -0.1506
  293SOL    HW1 3132   4.847   8.937   1.160  2.4200 -0.9047 -0.6769
  293SOL    HW2 3133   4.788   8.920   1.298  0.1106  2.4447 -1.1167
  294SOL     OW 3134   8.435   6.503   6.800 -0.0393 -0.0646 -0.3975
  294SOL    HW1 3135   8.375   6.542   6.736 -1.1041 -1.1611 -0.1034
  294SOL    HW2 3136   8.410   6.543   6.884  1.7306  1.8010 -0.6857
  295SOL     OW 3137   1.142   0.377   9.298  0.0814 -0.3200  0.3165
  295SOL    HW1 3138   1.073   0.441   9.317 -0.3626 -0.5109 -0.6281
  295SOL    HW2 3139   1.153   0.329   9.380 -2.7296 -2.0162 -0.1653
  296SOL     OW 3140   7.539  10.412   8.697 -0.4494 -0.6030  0.2356
  296SOL    HW1 3141   7.453  10.440   8.730  0.1727 -1.2740  2.6290
  296SOL    HW2 3142   7.600  10.478   8.732  0.1313 -0.7114 -0.5615
  297SOL     OW 3143   7.330   5.320   3.470  0.0830  0.0016  0.3839
  297SOL    HW1 3144   7.242   5.298   3.440  0.1634  1.3063 -0.9085
  297SOL    HW2 3145   7.369   5.235   3.493 -1.0933 -0.7163 -0.1620
  298SOL     OW 3146   0.751   9.643   5.225  0.0292  0.0161 -0.3124
  298SOL    HW1 3147   0.674   9.700   5.230  0.4246  0.5030  0.4041
  298SOL    HW2 3148   0.741   9.584   5.299  0.4261  0.1877 -0.1218
  299SOL     OW 3149   6.873   4.708   7.054  0.0839 -0.7999 -0.1905
  299SOL    HW1 3150   6.793   4.656   7.042  0.3077 -1.1582 -0.1276
  299SOL    HW2 3151   6.862   4.748   7.140 -0.2607 -0.4319 -0.3957
  300SOL     OW 3152   6.639   3.908   5.569 -0.1106 -0.4386 -0.1929
  300SOL    HW1 3153   6.714   3.850   5.553  1.3748  1.6489 -1.1589
  300SOL    HW2 3154   6.584   3.897   5.491  0.7365  0.2449 -0.9096
  301SOL     OW 3155   8.072   3.149   1.930 -0.1997 -1.0373 -0.6696
  301SOL    HW1 3156   8.054   3.129   1.839 -0.6836 -1.2425 -0.5300
  301SOL    HW2 3157   8.167   3.136   1.939  0.3123  1.4406 -1.7515
  302SOL     OW 3158   9.051   5.912   5.409  0.3250  0.1376 -0.2370
  302SOL    HW1 3159   9.046   5.952   5.322  2.5639 -0.9735 -0.9572
  302SOL    HW2 3160   9.057   5.818   5.391  0.4945 -0.1332  1.1520
  303SOL     OW 3161   6.909   7.458   6.253  0.7269  0.2959  0.7757
  303SOL    HW1 3162   6.880   7.425   6.168  0.5120  2.1518  0.0802
  303SOL    HW2 3163   6.850   7.417   6.316 -1.3894  1.5114 -0.3219
  304SOL     OW 3164   6.865  10.385   8.654  0.1828  0.0483  0.3658
  304SOL    HW1 3165   6.855  10.332   8.575 -1.1333  0.7737  0.0102
  304SOL    HW2 3166   6.959  10.389   8.668  0.4928  0.3516 -1.5026
  305SOL     OW 3167   8.078   5.995  10.578  0.4469 -0.0545 -0.0154
  305SOL    HW1 3168   8.145   5.926  10.579 -1.5177 -2.0676  0.3472
  305SOL    HW2 3169   8.059   6.012  10.670 -0.3002 -0.3028 -0.1162
  306SOL     OW 3170   4.578   9.710   7.238 -0.7380  0.4418  0.3727
  306SOL    HW1 3171   4.642   9.780   7.228 -0.3396  0.0359  0.0502
  306SOL    HW2 3172   4.622   9.632   7.205 -1.9730  0.4431 -1.4523
  307SOL     OW 3173   2.990   7.194   8.565 -0.1867 -0.1391 -0.5563
  307SOL    HW1 3174   3.069   7.231   8.606 -0.7622 -0.3074  0.7715
  307SOL    HW2 3175   3.017   7.174   8.475  1.1331  0.2857 -0.2864
  308SOL     OW 3176   4.200   0.974   9.999 -0.8488  0.3025 -0.2063
  308SOL    HW1 3177   4.176   0.999   9.910 -2.4818  1.3652  0.4876
  308SOL    HW2 3178   4.123   0.927  10.031  0.0774 -0.8602  0.3633
  309SOL     OW 3179   9.550   0.389  10.289  0.0273  0.2715 -0.0818
  309SOL    HW1 3180   9.555   0.334  10.212 -0.7377  1.1341 -0.7678
  309SOL    HW2 3181   9.543   0.328  10.363  0.8192 -0.5543 -0.6797
  310SOL     OW 3182   1.674   2.984  10.298  0.2482 -0.3011  0.0838
  310SOL    HW1 3183   1.592   2.957  10.257 -0.2154 -1.1436  1.5179
  310SOL    HW2 3184   1.648   3.049  10.363  0.6218 -1.0668  1.0165
  311SOL     OW 3185   2.108   8.227   3.292  0.2440 -0.3090  0.3191
  311SOL    HW1 3186   2.156   8.301   3.255  1.7724 -1.0722  0.6734
  311SOL    HW2 3187   2.097   8.167   3.218 -1.3895  0.4098 -0.0764
  312SOL     OW 3188   2.283   7.002   5.937 -0.3250 -0.6205 -0.0620
  312SOL    HW1 3189   2.256   7.064   5.870 -0.2923  0.0232  0.5061
  312SOL    HW2 3190   2.376   6.986   5.919 -0.1906 -0.0625  0.1269
  313SOL     OW 3191   0.766   1.334   4.398 -0.1172  0.0291 -0.1634
  313SOL    HW1 3192   0.730   1.373   4.477  0.5224 -0.1656  0.2360
  313SOL    HW2 3193   0.691   1.318   4.342 -0.3692  2.1276 -0.4760
  314SOL     OW 3194   3.907   2.060   5.650  0.4141  0.5072 -0.5642
  314SOL    HW1 3195   3.970   2.010   5.598  1.8094 -0.1462  1.6382
  314SOL    HW2 3196   3.865   1.995   5.706 -1.8968  1.0192 -1.5863
  315SOL     OW 3197   5.167   2.939   7.098  0.6843  0.3292 -0.1743
  315SOL    HW1 3198   5.172   2.984   7.182  2.0217  1.5903 -0.8627
  315SOL    HW2 3199   5.075   2.916   7.088  0.5664 -0.2098  1.7948
  316SOL     OW 3200   1.901   3.534   4.324 -0.0113  0.3367  0.7839
  316SOL    HW1 3201   1.830   3.583   4.282 -1.9262 -0.2532  3.1332
  316SOL    HW2 3202   1.969   3.528   4.256 -1.2219  2.9031 -0.8184
  317SOL     OW 3203   6.541   7.474   2.642  0.3441 -0.0884  0.4845
  317SOL    HW1 3204   6.494   7.486   2.725  1.4767  0.0486  1.1385
  317SOL    HW2 3205   6.617   7.421   2.665  0.4770 -0.3688 -0.5535
  318SOL     OW 3206   2.628   5.416  10.629  0.5151 -0.1951  0.8742
  318SOL    HW1 3207   2.700   5.378  10.578 -0.0013 -1.5852  1.1354
  318SOL    HW2 3208   2.612   5.501  10.588 -0.8205 -1.8026 -2.2999
  319SOL     OW 3209   2.105   6.291   5.263  0.3602  0.5287  0.3966
  319SOL    HW1 3210   2.191   6.254   5.242 -0.2347 -1.2853  0.9679
  319SOL    HW2 3211   2.123   6.359   5.328  1.2684 -0.8752  1.6761
  320SOL     OW 3212   8.690   4.005   9.453 -1.0571 -0.6194  0.0962
  320SOL    HW1 3213   8.727   3.955   9.380 -0.1536  1.3705 -0.8903
  320SOL    HW2 3214   8.608   4.042   9.419 -0.4693  0.5876 -0.0647
  321SOL     OW 3215   8.446   8.621   3.476 -0.2655 -0.0640 -0.0980
  321SOL    HW1 3216   8.366   8.573   3.457  0.5013 -0.8554 -1.5427
  321SOL    HW2 3217   8.503   8.557   3.519 -0.0403  0.1744 -0.0345
  322SOL     OW 3218   8.817   7.672   0.690  0.0146 -0.0094 -0.1368
  322SOL    HW1 3219   8.826   7.576   0.689  1.6939  0.1246 -0.1343
  322SOL    HW2 3220   8.747   7.690   0.627  0.0825 -1.1983 -0.5801
  323SOL     OW 3221   4.106   8.934   4.073  0.5742  0.5293 -0.0638
  323SOL    HW1 3222   4.016   8.945   4.104 -0.1341  1.1401 -2.1760
  323SOL    HW2 3223   4.160   8.963   4.147 -1.0327  3.5956  0.0852
  324SOL     OW 3224   8.586   9.864  10.224  0.2817 -0.2810  0.7181
  324SOL    HW1 3225   8.513   9.902  10.273 -0.2966  0.7808 -0.9004
  324SOL    HW2 3226   8.547   9.790  10.178  0.6314 -0.7589  1.1781
  325SOL     OW 3227   0.812   8.253   6.928 -0.1314 -0.3553  0.6259
  325SOL    HW1 3228   0.739   8.215   6.880 -1.2082 -1.8314  3.1992
  325SOL    HW2 3229   0.847   8.321   6.870 -1.3989 -1.8571 -2.0459
  326SOL     OW 3230  10.544   5.150   9.049  0.1649  0.1342  0.1493
  326SOL    HW1 3231  10.606   5.078   9.048 -1.6601 -1.5513  0.9560
  326SOL    HW2 3232  10.510   5.152   9.138  0.7539  2.5860  0.3947
  327SOL     OW 3233   5.767   9.214   7.338  0.0458 -0.0400 -0.5618
  327SOL    HW1 3234   5.849   9.209   7.288 -0.1238  0.6179 -0.9125
  327SOL    HW2 3235   5.792   9.252   7.422 -0.1354  1.6363 -1.2373
  328SOL     OW 3236   2.535   2.175  10.492 -0.2025 -0.6136  0.0609
  328SOL    HW1 3237   2.612   2.147  10.541  1.4935  1.0440 -1.5011
  328SOL    HW2 3238   2.501   2.250  10.540 -0.0008 -0.4840  0.0006
  329SOL     OW 3239   8.506   4.558   4.630 -0.2534 -0.4237  0.2170
  329SOL    HW1 3240   8.492   4.479   4.683 -1.7968  0.3701  1.0508
  329SOL    HW2 3241   8.507   4.630   4.693  0.8037  0.2873 -0.5653
  330SOL     OW 3242   4.738   2.853   0.159  0.0676  0.0175  0.3016
  330SOL    HW1 3243   4.823   2.810   0.173 -0.0447 -0.4828 -0.4644
  330SOL    HW2 3244   4.703   2.810   0.081 -1.6911 -0.9987  1.5936
  331SOL     OW 3245   8.641   4.210   5.317  0.0946 -0.3853 -0.1101
  331SOL    HW1 3246   8.685   4.241   5.237 -1.2456 -1.2686 -1.2437
  331SOL    HW2 3247   8.562   4.263   5.323 -0.1979 -0.8535  0.1966
  332SOL     OW 3248   5.783   5.965   6.724  0.3454  0.6445  0.2824
  332SOL    HW1 3249   5.776   6.016   6.643 -1.6826 -0.6233 -0.4031
  332SOL    HW2 3250   5.735   6.016   6.789 -1.1072 -0.0087 -0.2381
  333SOL     OW 3251   5.846   9.647   7.745  0.7378  0.2608  0.4066
  333SOL    HW1 3252   5.760   9.607   7.760  0.3379  0.9974  0.1296
  333SOL    HW2 3253   5.850   9.719   7.808 -0.5243  2.7333 -2.1280
  334SOL     OW 3254   5.897   9.541   6.370 -0.3255  0.1891 -0.2769
  334SOL    HW1 3255   5.844   9.462   6.360 -0.1674  0.2355 -1.5305
  334SOL    HW2 3256   5.918   9.568   6.281  0.8256  0.8391  0.1731
  335SOL     OW 3257   8.799   4.731  10.618 -0.3459  0.0439 -0.0739
  335SOL    HW1 3258   8.706   4.712  10.613 -0.1578 -1.7153  1.8221
  335SOL    HW2 3259   8.842   4.646  10.605  0.8697  0.3504  1.5302
  336SOL     OW 3260   6.705   8.291  10.621  0.4242 -0.0065 -0.8104
  336SOL    HW1 3261   6.675   8.306  10.711  0.0030  0.2700 -0.9943
  336SOL    HW2 3262   6.791   8.333  10.617 -0.4719  1.8994 -1.1496
  337SOL     OW 3263   0.440   4.931   0.459  0.8716 -0.2160  0.1659
  337SOL    HW1 3264   0.467   5.011   0.414  1.3109 -1.5230 -2.0784
  337SOL    HW2 3265   0.346   4.926   0.444  0.9066 -0.2979 -0.0367
  338SOL     OW 3266   5.780   7.223   5.288 -0.4319 -0.2263 -0.1919
  338SOL    HW1 3267   5.847   7.243   5.223  1.9810  0.0640  2.2024
  338SOL    HW2 3268   5.783   7.128   5.298 -0.9453 -0.2924 -0.6057
  339SOL     OW 3269   6.704   0.916  10.441  0.4945 -0.0939 -0.5828
  339SOL    HW1 3270   6.660   0.962  10.369 -0.6829 -0.6091 -0.2158
  339SOL    HW2 3271   6.751   0.984  10.488 -0.9950  0.7156 -0.2135
  340SOL     OW 3272   5.944   4.260   7.127  0.1830 -0.3956 -0.7055
  340SOL    HW1 3273   5.898   4.180   7.154 -2.4558  0.5608 -2.0348
  340SOL    HW2 3274   6.001   4.281   7.201 -2.0761 -1.3089  1.4486
  341SOL     OW 3275   5.572   0.388   1.679  0.1957  0.8390  0.1733
  341SOL    HW1 3276   5.597   0.372   1.588 -0.3427  1.2761 -0.0532
  341SOL    HW2 3277   5.641   0.444   1.713  1.6825 -1.1986  0.7385
  342SOL     OW 3278   8.201   7.500   1.213  0.0483 -0.0912 -0.1652
  342SOL    HW1 3279   8.240   7.506   1.300 -0.0544  0.8203 -0.1680
  342SOL    HW2 3280   8.131   7.435   1.223  0.2717 -0.2646  0.3348
  343SOL     OW 3281   0.057   7.091   0.665  0.0775 -0.7688  0.2496
  343SOL    HW1 3282   0.142   7.047   0.666  0.3879 -0.1941  0.8883
  343SOL    HW2 3283   0.074   7.175   0.622 -0.6983 -1.5868 -1.7602
  344SOL     OW 3284   4.758   3.488   4.972 -0.3845 -0.6284  0.5346
  344SOL    HW1 3285   4.781   3.573   4.936  1.4140 -0.5958  1.6585
  344SOL    HW2 3286   4.819   3.475   5.045 -2.0259 -1.9433  1.7441
  345SOL     OW 3287   9.386   0.025   9.546  0.2671 -0.3641  0.1248
  345SOL    HW1 3288   9.450   0.025   9.617  2.7656 -0.2488 -1.9770
  345SOL    HW2 3289   9.427  -0.027   9.476 -1.2738  0.9394 -1.8718
  346SOL     OW 3290   3.548   3.522   5.512 -0.0218 -0.8156  0.0638
  346SOL    HW1 3291   3.592   3.525   5.597  0.5358 -0.1711 -0.2399
  346SOL    HW2 3292   3.482   3.591   5.517 -1.5897 -2.3143  0.8189
  347SOL     OW 3293   8.671   8.517   7.742 -0.5420 -0.4749 -0.8025
  347SOL    HW1 3294   8.653   8.433   7.786  2.2810 -0.4425  0.6838
  347SOL    HW2 3295   8.651   8.583   7.809 -1.6329 -0.0023 -1.5719
  348SOL     OW 3296   0.968   1.387   7.682  0.1120 -0.3646 -0.3703
  348SOL    HW1 3297   1.060   1.384   7.658 -0.3491  1.6640 -2.7880
  348SOL    HW2 3298   0.935   1.299   7.664  1.4798 -1.0400  0.2982
  349SOL     OW 3299   5.544   3.111   7.216 -0.0226  0.2125  0.0807
  349SOL    HW1 3300   5.614   3.156   7.263 -1.2704  1.2756  0.9749
  349SOL    HW2 3301   5.475   3.100   7.281 -0.3036 -1.7960 -0.4864
  350SOL     OW 3302   8.731   5.845   0.899  0.0725 -0.2253 -0.4599
  350SOL    HW1 3303   8.749   5.894   0.819  0.8180  0.8739  0.3549
  350SOL    HW2 3304   8.812   5.798   0.918  0.2051  0.2232  0.1198
  351SOL     OW 3305   0.067   1.281   2.419 -0.1212 -0.0399 -0.5245
  351SOL    HW1 3306  -0.003   1.302   2.481  1.5008  1.7117  0.8558
  351SOL    HW2 3307   0.106   1.200   2.453 -1.0296 -0.6675 -0.9365
  352SOL     OW 3308   2.001   2.374  10.654 -0.1107  0.4153 -0.2418
  352SOL    HW1 3309   1.916   2.387  10.611 -1.3028 -0.1557  1.8050
  352SOL    HW2 3310   1.982   2.314  10.726  2.0581  0.2837  0.2817
  353SOL     OW 3311   9.334   2.574   1.273  0.4982 -0.1718  0.0589
  353SOL    HW1 3312   9.411   2.548   1.223  0.3209 -0.2724 -0.1664
  353SOL    HW2 3313   9.260   2.541   1.222  0.2274  1.4368 -0.6554
  354SOL     OW 3314   5.050   6.944   3.386 -0.4699  0.5761  0.2490
  354SOL    HW1 3315   4.990   6.901   3.447 -0.3248  1.8574  1.3548
  354SOL    HW2 3316   5.014   7.032   3.375 -2.2536 -0.4447 -4.0091
  355SOL     OW 3317   2.350   0.593   1.469 -0.1624  0.2823 -0.2702
  355SOL    HW1 3318   2.317   0.527   1.529  2.4892 -0.7071  0.2302
  355SOL    HW2 3319   2.430   0.626   1.510  1.6154 -0.2191 -3.0367
  356SOL     OW 3320   7.283   8.823   9.847 -0.1409  0.4549  0.0951
  356SOL    HW1 3321   7.349   8.753   9.856 -0.4491  0.1598  0.0801
  356SOL    HW2 3322   7.335   8.902   9.831  0.2616  0.4089  1.1020
  357SOL     OW 3323   1.969   8.137  10.380 -0.1401 -0.1071 -0.1158
  357SOL    HW1 3324   2.002   8.152  10.469 -0.4740  0.7092 -0.1218
  357SOL    HW2 3325   1.878   8.166  10.384 -0.0362  0.3405 -0.8335
  358SOL     OW 3326   5.337   8.901   6.900 -0.3718  0.0778 -0.8888
  358SOL    HW1 3327   5.354   8.989   6.934  1.3944 -0.7344  0.4777
  358SOL    HW2 3328   5.313   8.915   6.808  0.3051  1.9495 -0.8177
  359SOL     OW 3329   0.928   7.429   6.002 -0.3212 -0.7501 -0.7702
  359SOL    HW1 3330   1.006   7.408   5.950 -0.0746 -0.0027 -0.7134
  359SOL    HW2 3331   0.926   7.525   6.004 -0.5912 -0.7729  0.2125
  360SOL     OW 3332   8.323   3.974   6.448  0.5777  0.3317 -0.7855
  360SOL    HW1 3333   8.287   4.024   6.521 -0.3578  1.3229 -1.8925
  360SOL    HW2 3334   8.256   3.909   6.427  1.8241 -1.6027  0.7138
  361SOL     OW 3335  10.384   7.554   0.401 -0.1730  0.3612  0.3359
  361SOL    HW1 3336  10.428   7.612   0.463 -0.4981  1.6708 -0.6075
  361SOL    HW2 3337  10.382   7.604   0.319 -1.7858 -0.3819 -0.1280
  362SOL     OW 3338   3.622   9.770   1.497 -0.1424 -0.3273 -0.1888
  362SOL    HW1 3339   3.652   9.693   1.449 -3.1869 -0.4278 -2.2111
  362SOL    HW2 3340   3.616   9.838   1.431  0.7064  1.1832  1.2127
  363SOL     OW 3341   1.552   4.833   0.895 -0.6307 -0.4848  0.3106
  363SOL    HW1 3342   1.504   4.754   0.921 -0.2783 -0.9632 -0.4539
  363SOL    HW2 3343   1.492   4.905   0.916 -0.6882 -0.8914  1.6331
  364SOL     OW 3344   5.405   8.704   6.402 -0.3900 -0.3328  0.1652
  364SOL    HW1 3345   5.370   8.618   6.428 -1.1720 -0.1125 -0.1334
  364SOL    HW2 3346   5.499   8.697   6.419 -0.4869 -1.1418  0.4432
  365SOL     OW 3347   4.815   2.152   2.176 -0.4249  0.2497  0.0114
  365SOL    HW1 3348   4.903   2.182   2.196  0.5839 -2.2149 -0.4179
  365SOL    HW2 3349   4.777   2.222   2.123  2.2084  0.3416 -1.9805
  366SOL     OW 3350   0.426   4.838   8.190 -0.0280 -0.5893  0.1039
  366SOL    HW1 3351   0.514   4.801   8.197  0.2012 -0.3389 -1.2488
  366SOL    HW2 3352   0.407   4.838   8.096 -1.0489  0.3536  0.2913
  367SOL     OW 3353   0.541  10.341   5.279 -0.5889  1.2004 -0.1725
  367SOL    HW1 3354   0.455  10.383   5.283 -0.1058  2.1466  0.9277
  367SOL    HW2 3355   0.553  10.303   5.366 -0.3621  0.0846 -0.6812
  368SOL     OW 3356   3.746   2.720   2.640 -0.1071  0.0232 -0.0912
  368SOL    HW1 3357   3.761   2.641   2.587  1.1823  0.1401  0.0644
  368SOL    HW2 3358   3.655   2.743   2.623  0.8356  1.5843 -4.3733
  369SOL     OW 3359   6.698   3.147   8.354  0.2022 -0.0661  0.0490
  369SOL    HW1 3360   6.644   3.173   8.429  1.5096  0.9935  0.6749
  369SOL    HW2 3361   6.668   3.202   8.282 -1.8919 -1.9287 -0.6140
  370SOL     OW 3362   9.677   8.933   4.453 -0.1645  0.1067  0.2388
  370SOL    HW1 3363   9.635   8.971   4.530  0.4330 -0.2582  0.7509
  370SOL    HW2 3364   9.627   8.853   4.436  0.0546 -0.1130  0.6015
  371SOL     OW 3365   6.996   7.198   3.434  0.6814  0.2147  0.0890
  371SOL    HW1 3366   7.073   7.143   3.415  1.5952  1.5300 -0.2212
  371SOL    HW2 3367   7.033   7.283   3.456 -0.5335  0.0037  3.5649
  372SOL     OW 3368   8.700   6.444   6.745  0.1112 -0.0873 -0.2228
  372SOL    HW1 3369   8.675   6.497   6.669 -0.1900  2.8913  1.8040
  372SOL    HW2 3370   8.624   6.447   6.802  1.4008  0.4151  1.5425
  373SOL     OW 3371   3.978   1.147   6.899 -0.3830  0.4793  0.1954
  373SOL    HW1 3372   3.883   1.138   6.887 -0.1769 -1.6220 -0.2366
  373SOL    HW2 3373   3.993   1.122   6.991 -0.3479  2.0016  0.6288
  374SOL     OW 3374   6.575   3.675   5.011  0.1692  0.4038 -0.0279
  374SOL    HW1 3375   6.512   3.606   5.033  1.3106 -1.0480 -1.1466
  374SOL    HW2 3376   6.520   3.753   4.997 -1.1534 -0.2563  1.1937
  375SOL     OW 3377   7.045   8.517   2.035  0.7539 -0.4100  0.5608
  375SOL    HW1 3378   7.057   8.549   1.946 -0.9073  0.4610  0.6098
  375SOL    HW2 3379   6.986   8.581   2.076  1.8677 -0.5082  2.4507
  376SOL     OW 3380   3.542   5.545   2.476  0.3513  0.2649  0.1793
  376SOL    HW1 3381   3.597   5.534   2.554 -0.1918  1.3725  0.7475
  376SOL    HW2 3382   3.592   5.504   2.406  0.0220 -2.4428  1.4089
  377SOL     OW 3383   5.496  10.540   9.512 -0.3706 -0.0125 -0.0769
  377SOL    HW1 3384   5.419  10.487   9.490  0.2257 -1.5234  1.2774
  377SOL    HW2 3385   5.561  10.516   9.447 -0.2761 -0.5711  0.2169
  378SOL     OW 3386   1.884   2.123   1.034  0.9341  0.2338  0.2217
  378SOL    HW1 3387   1.869   2.054   1.099 -0.3975  0.0433 -0.2571
  378SOL    HW2 3388   1.810   2.116   0.974  0.2629  2.6147  0.6348
  379SOL     OW 3389   9.944   8.338  10.286  0.0883 -0.5521 -0.1436
  379SOL    HW1 3390  10.012   8.324  10.220  0.1166 -1.8489  0.1442
  379SOL    HW2 3391   9.869   8.369  10.236  1.0672  1.6982 -0.3876
  380SOL     OW 3392   6.443   7.763   0.698 -0.0497  0.1765 -0.3544
  380SOL    HW1 3393   6.517   7.721   0.742  0.7404  1.3925 -0.4793
  380SOL    HW2 3394   6.404   7.694   0.645 -0.2201 -0.9916  1.2060
  381SOL     OW 3395   4.274   4.065   6.742 -0.1703  0.3174 -0.0243
  381SOL    HW1 3396   4.303   4.022   6.822 -0.7520  0.4204  0.2442
  381SOL    HW2 3397   4.291   4.158   6.757  0.6072  0.2475 -0.4023
  382SOL     OW 3398   7.273   7.360   4.106 -0.6873 -0.1673  0.0640
  382SOL    HW1 3399   7.186   7.392   4.133 -0.9838  0.0625 -1.1069
  382SOL    HW2 3400   7.262   7.338   4.013  0.5158 -0.0956 -0.1018
  383SOL     OW 3401   1.947   7.292   4.094  0.3788  0.1530  0.1620
  383SOL    HW1 3402   1.916   7.311   4.005 -0.4278 -1.6076  0.0178
  383SOL    HW2 3403   1.882   7.330   4.152 -1.5354 -2.4230 -0.1233
  384SOL     OW 3404   9.710  10.146   6.079 -0.1588  0.1754  0.4592
  384SOL    HW1 3405   9.749  10.208   6.017 -1.3932 -0.3866 -0.9535
  384SOL    HW2 3406   9.732  10.181   6.165  0.8670  1.4778 -0.2920
  385SOL     OW 3407   6.206   2.822   5.622 -0.7160  0.6350  0.1793
  385SOL    HW1 3408   6.195   2.878   5.699  0.9246  3.1202 -1.2397
  385SOL    HW2 3409   6.258   2.748   5.653 -0.9462  1.0619  1.6484
  386SOL     OW 3410   8.278   4.307   2.745 -0.2277 -0.4443 -0.0489
  386SOL    HW1 3411   8.294   4.401   2.749  0.9440 -0.3879 -3.1563
  386SOL    HW2 3412   8.306   4.282   2.657 -0.6737 -3.6883  0.6105
  387SOL     OW 3413   6.601   8.260   8.385 -0.4644 -0.1267 -0.0686
  387SOL    HW1 3414   6.546   8.234   8.311  1.3497  0.6067 -1.7667
  387SOL    HW2 3415   6.689   8.234   8.359 -0.0532 -2.2116  3.0114
  388SOL     OW 3416   3.397   3.540   3.921 -0.2656  0.2816  0.0672
  388SOL    HW1 3417   3.344   3.460   3.924  0.4401 -0.2885 -1.7514
  388SOL    HW2 3418   3.343   3.603   3.872  0.3812 -0.0437 -1.0853
  389SOL     OW 3419   8.943   6.920   5.788 -0.5580  0.1873  0.9821
  389SOL    HW1 3420   9.006   6.985   5.758  1.2209 -1.1357  1.6610
  389SOL    HW2 3421   8.878   6.915   5.718  1.1735  0.1870 -0.7166
  390SOL     OW 3422   6.036   9.969   4.004 -0.1156 -0.5879  0.1705
  390SOL    HW1 3423   6.080  10.051   4.026 -0.5858  0.1919 -1.6080
  390SOL    HW2 3424   6.072   9.905   4.066  2.1601  0.3948 -0.0177
  391SOL     OW 3425   1.967   2.706   3.557 -0.1090  0.4363  0.1148
  391SOL    HW1 3426   1.963   2.753   3.474  0.4951 -2.4969 -1.7270
  391SOL    HW2 3427   2.056   2.721   3.589 -0.1849  1.1801 -0.0086
  392SOL     OW 3428   7.966   0.562   8.137 -0.1603  0.1798  0.3342
  392SOL    HW1 3429   8.008   0.514   8.065 -0.5137 -0.4040  0.5159
  392SOL    HW2 3430   7.897   0.613   8.094 -0.3144 -0.1017  0.2459
  393SOL     OW 3431   6.919   5.360   6.682 -0.0316  0.3417  0.4697
  393SOL    HW1 3432   6.869   5.287   6.645  0.6371 -0.2777  0.7470
  393SOL    HW2 3433   6.856   5.407   6.737 -0.3438 -0.3521  0.7167
  394SOL     OW 3434   3.653   2.150   6.967  0.1946 -0.3117  0.7076
  394SOL    HW1 3435   3.629   2.140   6.874  1.3140  0.0851  0.3544
  394SOL    HW2 3436   3.635   2.242   6.986  0.6525 -0.2173  0.6780
  395SOL     OW 3437   0.773   8.182   2.962  0.3323 -0.1960  0.6864
  395SOL    HW1 3438   0.838   8.121   2.997  0.7031  0.7153  1.6386
  395SOL    HW2 3439   0.779   8.259   3.018 -0.4072  0.5716 -0.2402
  396SOL     OW 3440   8.720   2.460   8.734  0.0768 -0.0702  0.2622
  396SOL    HW1 3441   8.777   2.471   8.810 -0.8818  0.1772  0.9794
  396SOL    HW2 3442   8.639   2.505   8.759 -0.6017 -0.8165 -0.5222
  397SOL     OW 3443   2.358   4.945   2.123 -0.2324 -0.5974 -0.1730
  397SOL    HW1 3444   2.446   4.981   2.135 -0.7475  0.3037  1.0539
  397SOL    HW2 3445   2.369   4.851   2.132  0.5881 -0.4828  0.0716
  398SOL     OW 3446   5.805   0.225   0.629  1.0238 -0.3839 -0.2397
  398SOL    HW1 3447   5.740   0.241   0.697 -0.4859 -0.5245 -1.5893
  398SOL    HW2 3448   5.787   0.136   0.598  2.4166 -0.7456 -0.0743
  399SOL     OW 3449   8.886   0.551   8.977  0.1852 -0.1641  0.1871
  399SOL    HW1 3450   8.826   0.477   8.970  1.5287 -1.2184 -0.9138
  399SOL    HW2 3451   8.924   0.542   9.065 -0.1868 -0.3567  0.3298
  400SOL     OW 3452   5.406   4.651   1.581  0.5040  0.2957  0.4961
  400SOL    HW1 3453   5.394   4.741   1.551 -0.2405  0.1056  0.1811
  400SOL    HW2 3454   5.389   4.653   1.675 -0.8089  0.2725  0.2791
  401SOL     OW 3455   2.239   9.524   1.499 -0.0463  0.2437 -0.4138
  401SOL    HW1 3456   2.313   9.491   1.447 -0.3668  1.0320 -1.4076
  401SOL    HW2 3457   2.275   9.600   1.545 -0.1740  0.5113 -0.7484
  402SOL     OW 3458   7.712   4.251   8.895  0.3063 -0.3371 -0.2933
  402SOL    HW1 3459   7.729   4.341   8.865 -0.4047  0.0382  0.3857
  402SOL    HW2 3460   7.642   4.260   8.960  1.1502 -1.2401  0.7795
  403SOL     OW 3461   4.124   2.631   9.591 -0.0136  0.0610 -0.4987
  403SOL    HW1 3462   4.100   2.702   9.650  0.4684  0.2778 -0.5665
  403SOL    HW2 3463   4.195   2.666   9.538  0.3173 -0.5186 -0.4401
  404SOL     OW 3464   5.991   3.993   8.923  0.1104  0.2228 -0.2815
  404SOL    HW1 3465   6.004   4.075   8.971 -0.3735  0.4861 -0.5928
  404SOL    HW2 3466   5.927   3.945   8.975  0.2640  0.1156 -0.1901
  405SOL     OW 3467   3.177   5.945   5.520 -0.6772 -0.2019 -0.3521
  405SOL    HW1 3468   3.258   5.913   5.559 -0.5866  0.1799 -0.2305
  405SOL    HW2 3469   3.185   5.924   5.427 -1.3539 -2.0961 -0.0325
  406SOL     OW 3470  10.588   0.400   4.595 -0.0378 -0.0083 -0.3426
  406SOL    HW1 3471  10.582   0.304   4.590  0.1409 -0.0125 -0.4908
  406SOL    HW2 3472  10.674   0.416   4.633  0.2318  0.1053 -0.9885
  407SOL     OW 3473   8.527   6.825   7.862  0.0888 -0.7820 -0.0347
  407SOL    HW1 3474   8.531   6.770   7.940 -1.4895  1.3633  1.6899
  407SOL    HW2 3475   8.609   6.807   7.815  0.8099 -2.5695  1.7852
  408SOL     OW 3476   2.937   3.470   2.759 -0.1668  0.6813  0.7177
  408SOL    HW1 3477   2.879   3.425   2.821 -0.8656  0.2082 -0.2418
  408SOL    HW2 3478   2.969   3.547   2.807 -1.6120  0.9667  1.2809
  409SOL     OW 3479   1.295   0.527   8.298 -0.2521  0.0576 -0.1235
  409SOL    HW1 3480   1.278   0.542   8.391  2.6820 -0.5479  0.6058
  409SOL    HW2 3481   1.274   0.610   8.256  0.0061  0.9047  1.3510
  410SOL     OW 3482   9.916   9.758   4.846  0.2337 -0.2508  0.6641
  410SOL    HW1 3483   9.991   9.714   4.806 -1.1344 -0.6640 -1.6021
  410SOL    HW2 3484   9.913   9.724   4.935  1.8648 -1.3073  0.3605
  411SOL     OW 3485   4.618   9.067   4.054  0.0942  0.4857  0.0284
  411SOL    HW1 3486   4.602   9.123   4.129  0.5415  1.8259 -0.8400
  411SOL    HW2 3487   4.670   8.994   4.089 -0.4670  0.6179  1.1693
  412SOL     OW 3488   6.483   8.823   3.739  0.6481 -0.5130  0.4100
  412SOL    HW1 3489   6.488   8.824   3.643  0.4244 -0.6988  0.3958
  412SOL    HW2 3490   6.534   8.747   3.765 -0.2379 -1.1356  0.3767
  413SOL     OW 3491   3.806   6.584   1.111  0.2972  0.1242  0.1278
  413SOL    HW1 3492   3.882   6.630   1.147 -0.3130  2.9584 -1.8554
  413SOL    HW2 3493   3.738   6.595   1.177  0.8270  0.0706  0.6845
  414SOL     OW 3494   3.792   4.228   2.910  0.1916 -0.1282 -0.1635
  414SOL    HW1 3495   3.816   4.271   2.992 -0.8086 -1.5416  0.9395
  414SOL    HW2 3496   3.696   4.225   2.912  0.1960 -1.3211 -0.7345
  415SOL     OW 3497   3.536   7.832   2.551 -0.2819 -0.0186 -0.7322
  415SOL    HW1 3498   3.534   7.765   2.482 -0.8777 -0.5377 -0.2317
  415SOL    HW2 3499   3.606   7.891   2.525  0.1277 -0.7307 -1.2944
  416SOL     OW 3500   7.117   2.438   5.049  0.6248 -0.7912  0.2552
  416SOL    HW1 3501   7.048   2.373   5.061 -1.5539  1.2348 -0.4344
  416SOL    HW2 3502   7.163   2.409   4.970 -0.4704 -1.3532 -0.1975
  417SOL     OW 3503   7.287   7.942   5.610  0.1705  0.3444  0.9765
  417SOL    HW1 3504   7.313   7.969   5.522 -1.5570  0.7639  0.5452
  417SOL    HW2 3505   7.223   8.007   5.637 -0.9279 -0.9535  1.6525
  418SOL     OW 3506   0.912   7.956   2.342  0.1850 -0.4089 -0.0342
  418SOL    HW1 3507   0.832   7.969   2.291  0.5329 -1.0992 -0.7725
  418SOL    HW2 3508   0.880   7.939   2.431 -0.4778 -0.2888 -0.2407
  419SOL     OW 3509   2.118   2.015   2.256 -0.0404 -0.1447 -0.0419
  419SOL    HW1 3510   2.092   1.962   2.331 -1.0293  0.6216  0.1774
  419SOL    HW2 3511   2.203   1.979   2.229 -0.0699 -0.9652  0.9141
  420SOL     OW 3512   0.819   2.070   6.731 -0.2152  0.6409  0.2707
  420SOL    HW1 3513   0.759   2.064   6.805  0.4240 -0.7442  0.7254
  420SOL    HW2 3514   0.903   2.093   6.770  0.1618 -0.2618  0.0338
  421SOL     OW 3515   4.689   1.331   3.203  0.1014 -0.2471  0.3593
  421SOL    HW1 3516   4.782   1.330   3.180 -0.2239  0.4207 -1.1139
  421SOL    HW2 3517   4.673   1.422   3.229  0.1301 -0.6636  1.9456
  422SOL     OW 3518   1.965   3.195   5.963  0.2204 -0.6913  0.5184
  422SOL    HW1 3519   2.016   3.157   6.035  1.0920 -1.3234 -0.4086
  422SOL    HW2 3520   1.956   3.124   5.900 -0.0631  0.0087 -0.2416
  423SOL     OW 3521   6.542   9.228   1.031  0.0671 -0.8494 -0.5409
  423SOL    HW1 3522   6.550   9.194   1.120 -0.1915 -0.5215 -0.3888
  423SOL    HW2 3523   6.451   9.258   1.025  0.6830  1.2454 -0.1351
  424SOL     OW 3524   7.967   2.888   2.022 -0.0540 -0.1875 -0.2246
  424SOL    HW1 3525   7.920   2.958   1.976 -0.3359  0.4473  0.9631
  424SOL    HW2 3526   8.056   2.892   1.988  0.1312  1.2837  0.3566
  425SOL     OW 3527   3.393   0.198   2.200  0.0426 -0.7666  0.4531
  425SOL    HW1 3528   3.483   0.169   2.215  0.6084  0.9714  0.6161
  425SOL    HW2 3529   3.401   0.284   2.159 -1.5490 -0.8017 -0.0189
  426SOL     OW 3530   4.256   9.277   7.880  0.2461 -0.3815  0.4469
  426SOL    HW1 3531   4.177   9.320   7.847  0.2710 -1.8064 -1.6150
  426SOL    HW2 3532   4.226   9.228   7.957 -1.0497 -1.3991 -0.6622
  427SOL     OW 3533   3.589   4.972   3.327  0.4599  0.0177  0.0117
  427SOL    HW1 3534   3.616   4.921   3.403  0.7588 -0.2188 -0.2490
  427SOL    HW2 3535   3.565   4.906   3.261 -0.8570  0.2106  0.2589
  428SOL     OW 3536   2.952   7.473   8.395  0.9203  0.3930  0.2863
  428SOL    HW1 3537   2.995   7.518   8.322  0.6146  0.1779 -0.0308
  428SOL    HW2 3538   2.984   7.518   8.473 -0.0793  1.7865 -0.0629
  429SOL     OW 3539   0.828   2.182   9.764  0.0995  0.0732  0.3946
  429SOL    HW1 3540   0.853   2.269   9.733 -0.1424 -0.1801 -0.5543
  429SOL    HW2 3541   0.764   2.198   9.833  0.0373  0.6472  0.2102
  430SOL     OW 3542   1.817   9.047   5.704 -0.5139 -0.1399  0.8616
  430SOL    HW1 3543   1.804   9.045   5.609  0.4724  2.4310  0.5943
  430SOL    HW2 3544   1.906   9.014   5.717 -0.3869  0.1780  0.8100
  431SOL     OW 3545   1.236   1.892   7.974  0.0104 -0.0867 -0.6336
  431SOL    HW1 3546   1.155   1.941   7.990  0.4501  0.3761  0.2794
  431SOL    HW2 3547   1.207   1.808   7.940 -0.8141  0.3984 -1.1784
  432SOL     OW 3548   0.268   3.647  10.004 -0.0334 -0.3778 -0.0500
  432SOL    HW1 3549   0.201   3.656  10.071  0.2638 -2.4448  0.6141
  432SOL    HW2 3550   0.298   3.736   9.986 -2.0547  0.4713  0.5340
  433SOL     OW 3551   3.887   7.841  10.441 -0.1689  0.2912 -0.3211
  433SOL    HW1 3552   3.925   7.928  10.433 -0.6518  0.5275 -0.1073
  433SOL    HW2 3553   3.793   7.855  10.428 -0.1102 -0.3911 -1.5882
  434SOL     OW 3554   1.504   8.291   1.552 -0.3146  0.2671 -0.5819
  434SOL    HW1 3555   1.550   8.248   1.625 -1.9063  0.5903  0.6978
  434SOL    HW2 3556   1.447   8.222   1.517  0.5863  0.0591 -1.6932
  435SOL     OW 3557   9.829   1.511   3.768  0.2174 -0.2539 -0.3086
  435SOL    HW1 3558   9.834   1.425   3.726 -0.5431  0.2459 -1.4463
  435SOL    HW2 3559   9.895   1.563   3.723  0.8997 -0.3165  0.5981
  436SOL     OW 3560   2.102   6.197   7.182 -0.3038  0.2833 -0.2263
  436SOL    HW1 3561   2.091   6.162   7.094 -1.5686 -0.6333  0.2596
  436SOL    HW2 3562   2.112   6.119   7.237  0.0474  0.8296  0.4903
  437SOL     OW 3563   3.566   1.825   7.358 -0.6310  0.4262  0.0212
  437SOL    HW1 3564   3.647   1.875   7.357 -0.6833  0.5393 -1.6606
  437SOL    HW2 3565   3.497   1.891   7.366 -0.6665  0.6131 -1.5068
  438SOL     OW 3566   4.532   1.392   6.114  0.7676  0.2327  0.1061
  438SOL    HW1 3567   4.514   1.365   6.204 -3.3361  1.8427 -0.0178
  438SOL    HW2 3568   4.543   1.487   6.120  1.1867  0.2651 -1.0542
  439SOL     OW 3569   6.810   5.001   4.144 -0.4744 -0.1484  0.3246
  439SOL    HW1 3570   6.877   5.068   4.128 -0.5497  0.0585  0.8756
  439SOL    HW2 3571   6.824   4.936   4.074  0.2670 -0.0838  0.4084
  440SOL     OW 3572   0.909   2.623   4.795  0.5568  0.1760  0.5113
  440SOL    HW1 3573   0.979   2.686   4.776 -1.3681  1.8526 -1.4552
  440SOL    HW2 3574   0.924   2.551   4.735 -0.2714  1.2985 -1.1165
  441SOL     OW 3575   8.603  10.274   2.626 -0.0347  0.2982  0.4350
  441SOL    HW1 3576   8.509  10.281   2.612  0.1573 -0.4523 -1.4315
  441SOL    HW2 3577   8.631  10.363   2.646 -1.2116  0.4183  1.6934
  442SOL     OW 3578   2.840   8.428   0.818  0.6303 -0.4679 -0.4740
  442SOL    HW1 3579   2.776   8.398   0.883  2.4702 -1.5886  0.9079
  442SOL    HW2 3580   2.826   8.523   0.814  1.0959 -0.1720  2.3702
  443SOL     OW 3581   1.509   8.625   8.917  0.6047 -0.1782  0.5351
  443SOL    HW1 3582   1.424   8.633   8.874 -0.0380 -0.6278  1.6835
  443SOL    HW2 3583   1.564   8.580   8.853  0.2259  0.8327 -0.5295
  444SOL     OW 3584   9.306   4.335   5.730  0.6469 -0.3998  0.0959
  444SOL    HW1 3585   9.255   4.316   5.809  1.2293  1.0665  0.8437
  444SOL    HW2 3586   9.272   4.273   5.665 -0.0362 -1.4403  1.3968
  445SOL     OW 3587   1.988   9.667   7.701 -0.1552 -0.0007 -0.5485
  445SOL    HW1 3588   2.018   9.625   7.620  2.5798  0.3150  0.1909
  445SOL    HW2 3589   2.026   9.755   7.698 -0.1289  0.0659  0.9945
  446SOL     OW 3590   9.063   6.477   7.403  0.1741  0.1612  0.0050
  446SOL    HW1 3591   8.981   6.487   7.354 -0.3074  0.9544  0.9453
  446SOL    HW2 3592   9.059   6.544   7.470  1.5814  0.1582  0.1096
  447SOL     OW 3593   7.245   7.768   6.578 -0.6927  0.0337  0.0550
  447SOL    HW1 3594   7.185   7.778   6.503 -0.7780  0.4615  0.1760
  447SOL    HW2 3595   7.276   7.678   6.572 -0.5724  0.1141 -0.5915
  448SOL     OW 3596   2.287   6.995   2.352 -0.3831 -0.3651 -0.3039
  448SOL    HW1 3597   2.284   6.909   2.310 -0.3076 -0.4517 -0.1317
  448SOL    HW2 3598   2.375   7.001   2.390 -0.7283 -0.6455  0.5848
  449SOL     OW 3599   9.706   5.975   3.747 -0.3690  0.0360 -0.3794
  449SOL    HW1 3600   9.684   6.023   3.827  0.9073 -0.7792  0.4869
  449SOL    HW2 3601   9.730   5.887   3.777 -0.0083 -0.3293 -1.6682
  450SOL     OW 3602   9.302  10.407   5.612  0.1319  0.2633  0.2233
  450SOL    HW1 3603   9.213  10.423   5.580  0.6994  1.0558 -1.0034
  450SOL    HW2 3604   9.334  10.335   5.557  0.2753  0.0119  0.6315
  451SOL     OW 3605   7.070   5.904  10.282 -0.0812  0.2646 -0.1404
  451SOL    HW1 3606   7.076   6.000  10.285 -0.1416  0.2813 -0.4659
  451SOL    HW2 3607   7.061   5.884  10.188 -0.1384 -0.0549 -0.0667
  452SOL     OW 3608   5.436   0.533   8.006 -0.4356  0.0234 -0.5171
  452SOL    HW1 3609   5.495   0.608   8.008  1.2054 -1.1009 -2.6598
  452SOL    HW2 3610   5.355   0.567   7.967 -0.5892  1.1570  0.7129
  453SOL     OW 3611   0.077   9.352   0.332 -0.3440 -0.0356 -0.5086
  453SOL    HW1 3612   0.035   9.402   0.262 -0.2241  2.9041  1.3207
  453SOL    HW2 3613   0.031   9.268   0.333 -2.6646  1.1103 -1.8971
  454SOL     OW 3614   5.714   0.699   0.442 -0.0350  0.4250  0.3980
  454SOL    HW1 3615   5.708   0.606   0.466 -0.0044 -0.0219 -1.2213
  454SOL    HW2 3616   5.769   0.737   0.510 -1.3612 -0.3770  2.0137
  455SOL     OW 3617   7.955   9.163   8.981 -0.6086  0.3868 -0.2805
  455SOL    HW1 3618   8.001   9.082   9.004  0.3747  1.0025 -0.0235
  455SOL    HW2 3619   7.967   9.219   9.058 -0.9266  0.9309 -0.6243
  456SOL     OW 3620   9.723   4.946   8.870  0.2095  0.2556  0.4091
  456SOL    HW1 3621   9.749   4.915   8.957  0.4436  1.4557  0.7956
  456SOL    HW2 3622   9.756   4.880   8.810 -2.0833 -1.9185  1.3403
  457SOL     OW 3623   1.084   5.928   8.984  0.0524 -0.8032  0.2100
  457SOL    HW1 3624   1.082   6.024   8.993  0.6162 -0.7511 -0.1450
  457SOL    HW2 3625   1.027   5.910   8.909  0.9818 -0.6216 -0.5615
  458SOL     OW 3626  10.638   3.639   3.992 -0.0532 -0.1700  0.2358
  458SOL    HW1 3627  10.671   3.549   3.998 -1.4247 -0.6642  0.9210
  458SOL    HW2 3628  10.682   3.685   4.063 -0.4120 -0.6823  0.8079
  459SOL     OW 3629   9.864   7.500   1.311 -0.2128 -0.6106  0.1013
  459SOL    HW1 3630   9.778   7.466   1.335 -1.1819 -0.2173 -2.4877
  459SOL    HW2 3631   9.916   7.421   1.292 -1.6624 -0.8960 -3.3511
  460SOL     OW 3632   0.731   1.758   9.192 -0.2623  0.4774  0.2262
  460SOL    HW1 3633   0.705   1.706   9.116 -0.3109  0.2697  0.3833
  460SOL    HW2 3634   0.663   1.742   9.257  0.0395  0.2570  0.4940
  461SOL     OW 3635   2.504   7.636  10.242  0.1573  0.0350 -0.3601
  461SOL    HW1 3636   2.409   7.649  10.242  0.0311 -0.8205  0.2825
  461SOL    HW2 3637   2.535   7.686  10.166 -0.9016 -0.3845 -1.0850
  462SOL     OW 3638   3.052   2.560  10.535  0.0207 -0.3946  0.2624
  462SOL    HW1 3639   2.991   2.598  10.472  0.9864  0.5124 -0.1531
  462SOL    HW2 3640   3.033   2.466  10.533 -1.4573 -0.1247  0.2733
  463SOL     OW 3641   2.518   8.804   4.697 -0.3057  0.4382  0.2174
  463SOL    HW1 3642   2.577   8.729   4.688  0.9510  1.5842 -1.7502
  463SOL    HW2 3643   2.562   8.861   4.760  1.0320  1.5146 -1.6045
  464SOL     OW 3644   2.129   0.079  10.067  0.1513 -0.0864 -0.0731
  464SOL    HW1 3645   2.128   0.040  10.155  1.1531  2.1838  1.0250
  464SOL    HW2 3646   2.186   0.021  10.017 -0.4525 -1.4454  0.7566
  465SOL     OW 3647   7.033   9.673   9.086  0.2817 -0.4782  0.2886
  465SOL    HW1 3648   7.034   9.577   9.079  1.2092 -0.5025  0.6686
  465SOL    HW2 3649   7.119   9.696   9.121  0.3697  0.5529 -0.5405
  466SOL     OW 3650   8.131   7.874   8.613  0.3897 -0.2806  0.2611
  466SOL    HW1 3651   8.035   7.874   8.610  0.4016  0.1164 -0.2854
  466SOL    HW2 3652   8.152   7.810   8.681 -0.2203 -2.2705 -1.2804
  467SOL     OW 3653   6.959   2.451   4.527  0.2210 -0.7421  0.3083
  467SOL    HW1 3654   6.910   2.468   4.447 -2.2477 -2.2446  1.3778
  467SOL    HW2 3655   7.025   2.386   4.502 -0.8033 -1.5235 -0.4681
  468SOL     OW 3656   3.726   8.244   4.213  0.6047 -0.2966  0.0540
  468SOL    HW1 3657   3.648   8.286   4.248  0.7860 -0.0011  0.1013
  468SOL    HW2 3658   3.725   8.266   4.120  0.2974 -0.8147 -0.0734
  469SOL     OW 3659   0.904   9.797   2.417 -0.0081 -0.7202 -0.3559
  469SOL    HW1 3660   0.902   9.737   2.343  0.3369 -1.4067  0.1794
  469SOL    HW2 3661   0.918   9.883   2.378  1.9545 -1.2792 -0.9732
  470SOL     OW 3662   1.215   9.179   6.858 -0.0225  0.5483  0.1224
  470SOL    HW1 3663   1.290   9.145   6.810  0.2925  0.0267  0.9617
  470SOL    HW2 3664   1.141   9.170   6.797  0.4214  0.1989 -0.3702
  471SOL     OW 3665   6.760   7.093   0.188 -0.6361  0.4958 -0.1774
  471SOL    HW1 3666   6.762   7.185   0.212  1.6810  0.7235 -0.9216
  471SOL    HW2 3667   6.779   7.092   0.094 -0.6914 -0.7354 -0.1966
  472SOL     OW 3668   4.753  10.004   2.742 -0.4799  0.2089  0.2092
  472SOL    HW1 3669   4.748  10.025   2.649 -0.1047 -0.2772  0.0745
  472SOL    HW2 3670   4.720   9.915   2.749  0.7846 -0.2670  0.3431
  473SOL     OW 3671   3.506   0.207   5.873 -0.0707  0.3432  0.2055
  473SOL    HW1 3672   3.453   0.130   5.896  0.8177 -0.4061 -0.1971
  473SOL    HW2 3673   3.444   0.265   5.828 -0.5188 -0.6085 -0.4527
  474SOL     OW 3674   9.097   4.348   7.196 -0.1201  0.5057  0.3501
  474SOL    HW1 3675   9.020   4.307   7.235 -1.3247  0.8986 -1.4858
  474SOL    HW2 3676   9.110   4.301   7.114  1.5686  0.5039  0.5910
  475SOL     OW 3677   3.863   7.764  10.007 -0.2619 -0.2100 -0.4868
  475SOL    HW1 3678   3.828   7.725   9.927 -0.2399 -2.0150  0.3326
  475SOL    HW2 3679   3.793   7.756  10.071  0.3022 -0.3269  0.1295
  476SOL     OW 3680   5.342   2.037   2.720  0.1088  0.3035  0.0173
  476SOL    HW1 3681   5.337   2.105   2.653  1.1144  1.8388  1.4304
  476SOL    HW2 3682   5.282   1.969   2.689  0.1222  1.1849 -2.1429
  477SOL     OW 3683   9.103   1.460   4.305  0.0897 -0.4206  0.1494
  477SOL    HW1 3684   9.085   1.378   4.351  1.7988 -1.0761 -0.2621
  477SOL    HW2 3685   9.152   1.433   4.227  2.2455  1.0907  0.8746
  478SOL     OW 3686   6.416   9.161   7.460 -0.2438  0.0169  0.3970
  478SOL    HW1 3687   6.483   9.187   7.396  0.1072 -0.2735  0.6440
  478SOL    HW2 3688   6.462   9.105   7.522 -1.1126 -1.7047 -0.4522
  479SOL     OW 3689   4.674   1.171   6.031  0.4283  0.1339 -0.7150
  479SOL    HW1 3690   4.627   1.245   6.070  1.0200 -0.7133  1.7895
  479SOL    HW2 3691   4.756   1.209   5.998  0.1872  0.7829 -0.5796
  480SOL     OW 3692   2.583   5.620   5.509  0.1585  0.0922 -0.2905
  480SOL    HW1 3693   2.584   5.585   5.599  1.1113  0.5866 -0.0940
  480SOL    HW2 3694   2.526   5.697   5.514 -0.3987 -0.3170 -0.2846
  481SOL     OW 3695   1.308   6.613   7.608 -0.5360  0.2865 -0.1008
  481SOL    HW1 3696   1.249   6.638   7.680 -1.3645 -0.9287 -0.3176
  481SOL    HW2 3697   1.253   6.616   7.530 -0.5686 -1.5886 -0.2131
  482SOL     OW 3698   4.542   1.118   5.748 -0.2442  0.0560 -0.3601
  482SOL    HW1 3699   4.495   1.036   5.734  2.6215 -1.6455 -0.6854
  482SOL    HW2 3700   4.570   1.114   5.839 -1.2672  1.4093  0.0540
  483SOL     OW 3701   6.434   1.491   5.731 -0.7418 -0.2163 -0.0189
  483SOL    HW1 3702   6.427   1.458   5.820  0.1330 -0.3813 -0.0006
  483SOL    HW2 3703   6.476   1.419   5.683  0.1439  0.4268 -0.2311
  484SOL     OW 3704   3.682   7.308  10.269 -0.3188  0.0566 -0.4161
  484SOL    HW1 3705   3.648   7.242  10.208  0.3591 -1.7858  1.0934
  484SOL    HW2 3706   3.618   7.378  10.267 -1.9569 -1.3795 -0.8726
  485SOL     OW 3707   0.099   6.405   6.006 -0.2032  0.2092  0.4765
  485SOL    HW1 3708   0.076   6.497   6.016  1.0070  0.5244  0.4929
  485SOL    HW2 3709   0.181   6.395   6.054 -0.9406 -1.1634  1.4875
  486SOL     OW 3710   3.572   2.993   4.569 -0.0511  0.2685  0.1295
  486SOL    HW1 3711   3.490   3.042   4.561 -0.5038  0.3582  3.8357
  486SOL    HW2 3712   3.630   3.051   4.617  1.3181 -0.8041 -0.1694
  487SOL     OW 3713   7.629   4.545   5.723 -0.1058 -0.0843 -0.3319
  487SOL    HW1 3714   7.666   4.470   5.770 -1.7333 -1.6231 -1.3670
  487SOL    HW2 3715   7.546   4.513   5.687 -0.4578  1.9646 -1.5569
  488SOL     OW 3716   3.840   8.997   2.544  0.3954 -0.7035  0.1456
  488SOL    HW1 3717   3.825   9.073   2.600  1.3908  2.6622 -3.6853
  488SOL    HW2 3718   3.935   8.988   2.540  0.3322 -1.0759 -0.7224
  489SOL     OW 3719   1.126   5.102   4.591 -0.0264  0.3111  0.3427
  489SOL    HW1 3720   1.053   5.085   4.651 -0.1248 -0.8577 -0.0731
  489SOL    HW2 3721   1.103   5.053   4.512  0.8307  0.5859 -0.0878
  490SOL     OW 3722   8.290  10.340   0.330 -0.0350  0.2286 -0.3060
  490SOL    HW1 3723   8.293  10.317   0.423  3.0400  1.6931  0.0995
  490SOL    HW2 3724   8.272  10.257   0.285 -1.4621 -0.5332  1.5261
  491SOL     OW 3725   7.092   4.015   8.597 -0.1364  0.2543 -0.2875
  491SOL    HW1 3726   7.179   4.003   8.559 -0.5561  0.2588 -1.2832
  491SOL    HW2 3727   7.103   3.990   8.689  0.5226 -1.3939 -0.7705
  492SOL     OW 3728   8.975   0.597   7.643  0.7741  0.0880 -0.0360
  492SOL    HW1 3729   9.041   0.638   7.698  1.2323 -1.6135  0.7404
  492SOL    HW2 3730   8.896   0.594   7.697  0.3974  0.9743 -0.5132
  493SOL     OW 3731   1.941   3.073  10.462  1.1722 -0.1410  0.3017
  493SOL    HW1 3732   1.907   3.053  10.375 -0.9817  1.1071  0.7914
  493SOL    HW2 3733   2.000   3.148  10.448  0.5677  0.2745 -0.0397
  494SOL     OW 3734   1.067   9.448   4.147  0.3054  0.3870  0.1989
  494SOL    HW1 3735   1.088   9.392   4.071  2.2303 -1.4344  1.9294
  494SOL    HW2 3736   0.972   9.441   4.156  0.1228 -0.0095 -1.5293
  495SOL     OW 3737   5.770  10.398   6.283  0.4833  0.2401  0.0161
  495SOL    HW1 3738   5.779  10.437   6.196  0.2522 -0.0069 -0.1179
  495SOL    HW2 3739   5.721  10.317   6.268 -0.8016  0.8844  0.5422
  496SOL     OW 3740   4.369   4.762   8.036  0.3006  0.1515 -0.8333
  496SOL    HW1 3741   4.304   4.830   8.017 -0.0634 -0.2702 -1.1278
  496SOL    HW2 3742   4.382   4.719   7.951 -2.2843 -2.6102 -0.0071
  497SOL     OW 3743   1.541   0.779   2.673 -0.0071  0.3096  0.0409
  497SOL    HW1 3744   1.457   0.794   2.716 -0.1531 -0.4462  0.0284
  497SOL    HW2 3745   1.572   0.867   2.649 -0.5076  0.6384  0.5763
  498SOL     OW 3746   6.602   6.151   5.391  0.1511 -0.5818  0.5785
  498SOL    HW1 3747   6.634   6.091   5.324  0.0515 -0.2539  0.2323
  498SOL    HW2 3748   6.675   6.160   5.452  1.0343  0.7213 -0.5865
  499SOL     OW 3749   2.437   8.609   1.306  0.7966  0.5934 -0.3653
  499SOL    HW1 3750   2.505   8.613   1.238  1.0182  0.6563 -0.1381
  499SOL    HW2 3751   2.411   8.700   1.319 -0.6402  0.4468 -1.7661
  500SOL     OW 3752   4.559   0.609   1.360  0.0413 -0.1319 -0.4443
  500SOL    HW1 3753   4.585   0.689   1.407 -1.3772  0.0818  0.0268
  500SOL    HW2 3754   4.640   0.577   1.320  0.5035  2.0426 -1.4000
  501SOL     OW 3755   1.198   8.262   3.923  0.1252  0.4847  0.1379
  501SOL    HW1 3756   1.259   8.300   3.987  1.7501  0.5214 -1.3492
  501SOL    HW2 3757   1.232   8.174   3.907  0.5586  0.9274 -1.6180
  502SOL     OW 3758   4.346   3.254   4.477  0.2260 -0.3793  0.2702
  502SOL    HW1 3759   4.352   3.302   4.394  0.9116 -1.1489 -0.1399
  502SOL    HW2 3760   4.298   3.313   4.535  0.0868  0.3414 -0.5508
  503SOL     OW 3761   1.037   9.870   1.877  0.4429 -0.2395 -0.3481
  503SOL    HW1 3762   0.993   9.822   1.947 -1.4661  1.4501 -0.2660
  503SOL    HW2 3763   0.987   9.849   1.798 -0.2019  1.2164 -0.3712
  504SOL     OW 3764   7.437   9.873   0.219  0.1481 -0.0887  0.1845
  504SOL    HW1 3765   7.501   9.874   0.290  0.5723 -1.0678 -0.1694
  504SOL    HW2 3766   7.353   9.857   0.263  0.0724  1.5190  0.6819
  505SOL     OW 3767   6.378   2.456   7.999  0.7472 -0.5290  0.1761
  505SOL    HW1 3768   6.384   2.427   7.908  0.9852  1.3455 -0.4429
  505SOL    HW2 3769   6.469   2.457   8.029  0.7343 -0.4872  0.2136
  506SOL     OW 3770   9.576   0.680   7.301 -0.3605  0.1517 -0.4597
  506SOL    HW1 3771   9.648   0.690   7.238 -0.8941 -0.2330 -1.1393
  506SOL    HW2 3772   9.572   0.764   7.345  2.9457 -0.8954  2.2625
  507SOL     OW 3773   5.097   7.229   5.535  0.8098 -0.5062  0.9858
  507SOL    HW1 3774   5.048   7.250   5.614  1.8747  0.6344  1.3789
  507SOL    HW2 3775   5.179   7.278   5.543  1.0927 -0.6234 -0.6737
  508SOL     OW 3776   0.708   0.524   0.558  0.3637 -0.3181 -0.8355
  508SOL    HW1 3777   0.647   0.554   0.491 -0.5580  1.2971  0.6469
  508SOL    HW2 3778   0.793   0.562   0.532 -0.2413  1.3968 -0.4711
  509SOL     OW 3779   8.127   3.307   2.427 -0.3980 -0.1311  0.5124
  509SOL    HW1 3780   8.088   3.386   2.389  0.6501  0.6831  1.0416
  509SOL    HW2 3781   8.120   3.241   2.358  1.2756  1.2355 -1.0815
  510SOL     OW 3782   5.031  10.361   0.539  0.2976 -0.0743  0.1477
  510SOL    HW1 3783   4.937  10.361   0.554  0.3583 -0.2116  0.5525
  510SOL    HW2 3784   5.065  10.430   0.595  0.6024 -1.0215  1.1717
  511SOL     OW 3785   5.291   0.254   5.555 -0.3473 -0.0501 -0.3768
  511SOL    HW1 3786   5.265   0.324   5.496  0.6644 -0.6214 -1.5410
  511SOL    HW2 3787   5.296   0.296   5.641 -1.2874  0.9273 -0.7782
  512SOL     OW 3788   6.411   1.235   5.622  0.1097  0.1687 -0.0576
  512SOL    HW1 3789   6.384   1.162   5.677 -0.3381  0.5679  0.2535
  512SOL    HW2 3790   6.468   1.195   5.556  1.7072 -0.1258  1.4464
  513SOL     OW 3791   0.178   1.038   3.169  0.1842  0.6151  0.3401
  513SOL    HW1 3792   0.271   1.031   3.189  0.1449 -0.3452  0.2688
  513SOL    HW2 3793   0.150   1.120   3.209  1.2324  1.3356 -0.3423
  514SOL     OW 3794   7.831   7.308   9.818  0.1758  0.1963 -0.6830
  514SOL    HW1 3795   7.829   7.229   9.872  1.8953  0.2063 -0.5423
  514SOL    HW2 3796   7.756   7.360   9.847 -1.8700 -1.9684 -1.7476
  515SOL     OW 3797   5.389   9.772   8.715  0.6224 -0.0993  0.0619
  515SOL    HW1 3798   5.402   9.773   8.621  1.2429 -1.6628  0.1050
  515SOL    HW2 3799   5.461   9.824   8.750  1.4285 -0.9966 -0.2363
  516SOL     OW 3800  10.255   4.625   1.088  0.3542  0.2612  0.1176
  516SOL    HW1 3801  10.304   4.672   1.156  0.0784  1.7975 -0.6977
  516SOL    HW2 3802  10.163   4.631   1.117  0.3406  0.0022  0.1303
  517SOL     OW 3803   8.155   1.675   2.382 -0.1621  0.0647  0.4749
  517SOL    HW1 3804   8.164   1.757   2.333 -1.7976  1.4036  2.2742
  517SOL    HW2 3805   8.080   1.631   2.341  1.0718 -0.8885 -0.8692
  518SOL     OW 3806   9.537   5.827   2.729  0.4639  0.1971  0.0134
  518SOL    HW1 3807   9.449   5.806   2.697 -0.9336  1.6683  2.5748
  518SOL    HW2 3808   9.591   5.753   2.700 -1.1970  0.0300 -3.0268
  519SOL     OW 3809   4.235   3.559   8.201  0.4187 -0.4024 -0.3661
  519SOL    HW1 3810   4.328   3.546   8.182  0.6886 -0.0647  0.6484
  519SOL    HW2 3811   4.208   3.479   8.245  0.0241 -0.8176 -1.3463
  520SOL     OW 3812   2.232   1.944   7.422  0.3623 -0.1578 -0.1300
  520SOL    HW1 3813   2.288   1.913   7.493  1.9775  1.8536 -0.4445
  520SOL    HW2 3814   2.270   1.905   7.343 -1.0774 -1.9080 -0.0371
  521SOL     OW 3815   0.915   9.776   7.673  0.7905 -0.3270 -0.2400
  521SOL    HW1 3816   0.871   9.844   7.724 -0.4407 -0.0454 -1.6151
  521SOL    HW2 3817   0.965   9.726   7.738  0.3856  0.8440  1.0305
  522SOL     OW 3818   3.394   4.345   4.207 -0.0253 -0.1936 -0.3250
  522SOL    HW1 3819   3.361   4.298   4.131 -0.1170  0.3586 -0.6267
  522SOL    HW2 3820   3.364   4.435   4.196 -0.5066 -0.2218  0.6444
  523SOL     OW 3821  10.424   6.157   9.137 -0.1193  0.4992  0.4171
  523SOL    HW1 3822  10.399   6.086   9.196 -0.6390  0.4570  0.1541
  523SOL    HW2 3823  10.383   6.135   9.054  0.1913  0.8152  0.1753
  524SOL     OW 3824   4.532   2.215   6.484  0.2600 -0.0085 -0.4293
  524SOL    HW1 3825   4.523   2.188   6.393  0.8262 -1.8190  0.0059
  524SOL    HW2 3826   4.488   2.146   6.534 -1.0824  1.5311  0.6585
  525SOL     OW 3827   3.171   8.465   2.962 -0.2368 -0.6202 -0.6581
  525SOL    HW1 3828   3.262   8.485   2.939  0.0006 -0.1377  0.6512
  525SOL    HW2 3829   3.121   8.539   2.927 -0.1022 -0.7319 -1.1026
  526SOL     OW 3830   9.818   4.883   5.884  0.0469 -0.4186  0.2674
  526SOL    HW1 3831   9.726   4.885   5.910 -0.0724 -0.9825 -0.0840
  526SOL    HW2 3832   9.867   4.902   5.964 -0.4056  1.0204  0.2233
  527SOL     OW 3833   5.097   7.917  10.421  0.4284  0.4458 -0.0469
  527SOL    HW1 3834   5.128   7.947  10.335  0.1080  0.4838 -0.1484
  527SOL    HW2 3835   5.160   7.954  10.483  0.8347  0.1713 -0.2878
  528SOL     OW 3836   0.053   2.725   6.001  0.2510  0.6624  0.5109
  528SOL    HW1 3837   0.008   2.757   6.079  1.9398  0.7978  1.4949
  528SOL    HW2 3838   0.096   2.644   6.030 -0.6785 -0.3518 -0.8366
  529SOL     OW 3839   8.586   3.302   2.270 -0.4431 -0.2081 -0.8548
  529SOL    HW1 3840   8.624   3.386   2.297  0.9169 -0.8081 -0.7864
  529SOL    HW2 3841   8.652   3.237   2.296 -1.6452 -1.3457 -0.5319
  530SOL     OW 3842   7.280   8.051   0.469  0.1361  0.0889 -0.1374
  530SOL    HW1 3843   7.280   8.126   0.410 -0.0540  0.4116  0.2617
  530SOL    HW2 3844   7.206   8.067   0.528  0.6832  0.0789  0.5644
  531SOL     OW 3845   4.500   2.083   0.007  0.6396 -0.7693  0.2533
  531SOL    HW1 3846   4.545   2.156  -0.035  0.5474 -0.9992 -0.2494
  531SOL    HW2 3847   4.566   2.013   0.010  0.9400 -0.4677  1.3290
  532SOL     OW 3848   9.986   7.999   2.933 -0.5357  0.6651  0.0538
  532SOL    HW1 3849   9.976   8.094   2.941  1.1123  1.2125 -2.9369
  532SOL    HW2 3850  10.081   7.985   2.929 -0.7661 -0.8650 -1.2540
  533SOL     OW 3851   7.368   1.276   7.063  0.0590 -0.1430 -0.0573
  533SOL    HW1 3852   7.365   1.209   6.995  0.1555  0.9240 -1.1488
  533SOL    HW2 3853   7.364   1.359   7.015 -0.6001  0.6313  1.2872
  534SOL     OW 3854   6.434   7.543   2.050  0.0328  0.0484 -0.5209
  534SOL    HW1 3855   6.474   7.459   2.031 -0.1284 -0.2616  0.4667
  534SOL    HW2 3856   6.493   7.585   2.112 -1.0352 -0.3319  0.8068
  535SOL     OW 3857   3.655   0.893   0.146  0.0050 -0.0646 -0.1450
  535SOL    HW1 3858   3.702   0.949   0.208 -0.4245 -0.6310  0.7224
  535SOL    HW2 3859   3.704   0.900   0.065 -0.4526  2.1446 -0.2969
  536SOL     OW 3860   9.525   5.702   1.970  0.4735  0.0309  0.6402
  536SOL    HW1 3861   9.455   5.767   1.983  0.0515  0.1518 -1.8362
  536SOL    HW2 3862   9.482   5.629   1.926  1.6269 -0.5366  0.4306
  537SOL     OW 3863   2.848   7.407   9.950 -0.4355 -0.1490 -0.3429
  537SOL    HW1 3864   2.808   7.494   9.943 -0.0605  0.2821  1.8774
  537SOL    HW2 3865   2.850   7.373   9.861  0.6979  2.7056 -1.5233
  538SOL     OW 3866  10.019   7.412   7.512  0.0712 -0.3378 -0.3226
  538SOL    HW1 3867  10.068   7.374   7.585  1.7713  0.0343 -1.2153
  538SOL    HW2 3868  10.081   7.413   7.439 -1.0146  0.9300 -1.2841
  539SOL     OW 3869   8.411   6.332   1.224  0.1937  0.0114  0.0154
  539SOL    HW1 3870   8.459   6.260   1.263 -0.1269  0.0058  0.3962
  539SOL    HW2 3871   8.441   6.410   1.272  0.9470  0.2195 -0.7503
  540SOL     OW 3872   5.573   9.811   0.982  0.5247 -0.0194  0.1113
  540SOL    HW1 3873   5.522   9.843   1.056  1.8339 -3.5137  2.7582
  540SOL    HW2 3874   5.632   9.884   0.960 -1.1751  1.7699  1.1620
  541SOL     OW 3875   4.770  10.374   9.026 -0.3368 -0.5104 -0.8477
  541SOL    HW1 3876   4.791  10.293   9.073 -0.9772  0.6638  1.6229
  541SOL    HW2 3877   4.676  10.385   9.037  0.0444  1.6873  0.9047
  542SOL     OW 3878   1.680   8.105   1.723 -1.0651 -0.0349 -0.2046
  542SOL    HW1 3879   1.740   8.125   1.652 -1.8081 -1.9744 -1.4694
  542SOL    HW2 3880   1.736   8.073   1.794 -0.4764 -0.0280 -0.6649
  543SOL     OW 3881   1.003   8.381   0.731  0.3526  0.0649  0.4258
  543SOL    HW1 3882   1.073   8.315   0.730 -0.1576 -0.4906  0.6427
  543SOL    HW2 3883   0.924   8.331   0.712 -0.0016  0.6729  0.3009
  544SOL     OW 3884   8.793   7.441   3.309  0.0265 -0.2530 -0.0753
  544SOL    HW1 3885   8.856   7.381   3.349 -0.9219 -0.4926  1.1196
  544SOL    HW2 3886   8.726   7.384   3.271  0.3153  0.0099 -1.0052
  545SOL     OW 3887   9.988   9.969   5.743 -0.5745 -0.0311 -0.4906
  545SOL    HW1 3888   9.960   9.878   5.753  1.0717 -0.7251 -1.8719
  545SOL    HW2 3889   9.918  10.010   5.693 -0.8653 -0.7888 -0.7183
  546SOL     OW 3890   3.068   3.570   9.585 -0.1870  0.6481  0.7636
  546SOL    HW1 3891   3.018   3.595   9.508 -0.3919 -0.2952  0.5813
  546SOL    HW2 3892   3.158   3.596   9.565  0.0965 -1.1225 -0.5464
  547SOL     OW 3893   4.477   7.245   7.058  0.1480 -0.8633 -0.1400
  547SOL    HW1 3894   4.435   7.182   7.000  0.5170 -1.8997  0.6790
  547SOL    HW2 3895   4.563   7.261   7.017  0.1905 -1.1628 -0.1708
  548SOL     OW 3896   0.118   6.454   9.848  0.2148  0.0113  0.0602
  548SOL    HW1 3897   0.102   6.365   9.880 -0.9127  0.0739 -0.2801
  548SOL    HW2 3898   0.133   6.505   9.927  0.2351 -0.3598  0.3009
  549SOL     OW 3899   3.192   5.744  10.504 -0.3833  0.0852 -0.5069
  549SOL    HW1 3900   3.160   5.787  10.584  0.0250  0.3555 -0.4869
  549SOL    HW2 3901   3.219   5.657  10.533 -1.4883 -0.3031 -0.6000
  550SOL     OW 3902   1.103   8.329   8.815  0.2508 -1.0267  0.6949
  550SOL    HW1 3903   1.084   8.237   8.797 -1.8631 -1.0293  2.5761
  550SOL    HW2 3904   1.022   8.375   8.792  2.0698  0.8825 -2.8188
  551SOL     OW 3905   7.599   7.347   9.422  0.4928 -0.4501 -0.4172
  551SOL    HW1 3906   7.617   7.420   9.363 -1.1649 -0.5821 -1.1262
  551SOL    HW2 3907   7.588   7.387   9.508  0.2804  0.0527 -0.6757
  552SOL     OW 3908   8.009   3.946   9.376  0.2931  0.1848  0.5348
  552SOL    HW1 3909   8.031   3.984   9.461 -0.4339  0.7226  0.4976
  552SOL    HW2 3910   7.965   4.017   9.329  0.2533 -0.2561 -0.1072
  553SOL     OW 3911   4.308   0.420   7.027 -0.0372  0.1985  0.1625
  553SOL    HW1 3912   4.325   0.425   7.121 -1.9323  1.1120  0.5236
  553SOL    HW2 3913   4.371   0.480   6.988  1.9015 -1.4474  0.6205
  554SOL     OW 3914   1.105   9.598   5.715  0.7940 -0.4115  0.1926
  554SOL    HW1 3915   1.118   9.631   5.626  1.0350 -1.5031 -0.2001
  554SOL    HW2 3916   1.041   9.657   5.754  0.7352  0.1169 -0.6824
  555SOL     OW 3917   0.796   9.715   1.777  0.2062  0.4589  0.1387
  555SOL    HW1 3918   0.723   9.717   1.715 -0.9137 -3.6288  1.0715
  555SOL    HW2 3919   0.762   9.755   1.857 -0.9615 -1.0452  0.4308
  556SOL     OW 3920   4.111   1.613   9.954  0.0724 -0.1644 -0.7496
  556SOL    HW1 3921   4.169   1.552   9.999  1.0324  0.0365 -1.6697
  556SOL    HW2 3922   4.163   1.693   9.945 -2.1437  2.0524  3.2677
  557SOL     OW 3923   6.643   0.934   2.739 -0.4282  0.2255  0.0435
  557SOL    HW1 3924   6.563   0.896   2.775 -0.9109  1.3521  0.2004
  557SOL    HW2 3925   6.653   1.017   2.786  2.5339 -1.2295  2.2696
  558SOL     OW 3926   2.485   5.053   7.048 -0.2077 -0.1622  0.1327
  558SOL    HW1 3927   2.544   5.110   6.998 -0.0473 -1.7896 -1.6370
  558SOL    HW2 3928   2.419   5.112   7.083  1.3635  1.4467  0.5250
  559SOL     OW 3929   3.845   2.702   6.657  0.0823 -0.3385  0.2262
  559SOL    HW1 3930   3.917   2.765   6.665 -0.2745  1.0107 -4.2893
  559SOL    HW2 3931   3.886   2.616   6.666  1.6542  0.4436  0.8231
  560SOL     OW 3932   2.444   0.292   2.326 -0.1918 -0.1538 -0.1955
  560SOL    HW1 3933   2.515   0.233   2.302 -1.6591 -2.3053  0.3803
  560SOL    HW2 3934   2.372   0.268   2.268  0.1034  3.5233 -2.3463
  561SOL     OW 3935   0.426   6.702   0.756 -0.0356 -0.0484  0.4529
  561SOL    HW1 3936   0.467   6.636   0.700  0.3277 -1.1120  1.9303
  561SOL    HW2 3937   0.499   6.755   0.788 -0.1919  0.2558  0.3097
  562SOL     OW 3938   7.511   0.775  10.143  0.3837 -0.1115 -0.3457
  562SOL    HW1 3939   7.531   0.826  10.222  0.5774  0.6807 -0.8887
  562SOL    HW2 3940   7.419   0.792  10.127  0.1014 -1.0242  0.2250
  563SOL     OW 3941   0.721   8.030   3.402 -0.0756 -0.4241  0.3611
  563SOL    HW1 3942   0.798   8.013   3.348  0.2271  1.0332  0.3075
  563SOL    HW2 3943   0.756   8.045   3.490 -0.3933 -0.6891  0.5370
  564SOL     OW 3944   8.885   1.155   4.889  0.0545 -0.5304 -0.2557
  564SOL    HW1 3945   8.966   1.156   4.941 -1.0124 -1.7639  1.5284
  564SOL    HW2 3946   8.913   1.126   4.802  1.6515 -0.0667  0.0666
  565SOL     OW 3947  10.555   2.003   3.163  0.2430 -0.8929 -0.1853
  565SOL    HW1 3948  10.590   1.932   3.109  0.3711  0.1383 -1.5118
  565SOL    HW2 3949  10.624   2.020   3.228  1.7250  0.2364 -1.9501
  566SOL     OW 3950   7.149   8.529   2.526 -0.3437  0.7354 -0.2263
  566SOL    HW1 3951   7.162   8.596   2.460  3.9597  1.5852  1.1578
  566SOL    HW2 3952   7.086   8.567   2.587  0.6338  2.7823 -0.4107
  567SOL     OW 3953   0.115   2.526  10.595 -0.0468 -0.9557  0.2122
  567SOL    HW1 3954   0.040   2.479  10.558 -0.1994 -1.0173  0.5876
  567SOL    HW2 3955   0.189   2.503  10.539 -0.3949 -0.5409 -0.4322
  568SOL     OW 3956   5.420   0.964   9.586  0.0619  0.0296  0.6965
  568SOL    HW1 3957   5.467   0.881   9.584 -0.0683 -0.0374  0.3961
  568SOL    HW2 3958   5.346   0.952   9.527 -0.5073  0.0390  1.3812
  569SOL     OW 3959   2.970   0.949   1.743 -0.8001 -0.4260  0.0540
  569SOL    HW1 3960   2.937   0.896   1.816 -1.1081  0.3628  0.5079
  569SOL    HW2 3961   2.949   0.898   1.665 -2.4816 -0.3008  0.3683
  570SOL     OW 3962   7.449   9.835   5.283 -0.8013 -0.5330 -0.1589
  570SOL    HW1 3963   7.411   9.810   5.367 -0.0454 -1.0132  0.0513
  570SOL    HW2 3964   7.534   9.791   5.281 -0.0663  0.8382 -0.4325
  571SOL     OW 3965   0.738   3.052   7.676  0.1796  0.3448  0.4166
  571SOL    HW1 3966   0.779   3.111   7.740 -1.4574  1.1968  0.7469
  571SOL    HW2 3967   0.708   2.978   7.728  1.1034 -0.1896  0.2052
  572SOL     OW 3968  10.189   3.960   8.407 -0.4551  0.4639  0.2743
  572SOL    HW1 3969  10.265   3.917   8.367  0.3372  1.0145  1.1189
  572SOL    HW2 3970  10.137   3.888   8.442 -0.3972  0.0663 -0.4416
  573SOL     OW 3971   7.252   8.997   2.892 -0.8773  0.7895  0.5540
  573SOL    HW1 3972   7.289   9.073   2.936  0.2019  1.1432 -0.8893
  573SOL    HW2 3973   7.278   8.923   2.946  1.1022  1.1336  0.1455
  574SOL     OW 3974   0.389   6.296   8.222  0.0617 -0.1131 -0.3133
  574SOL    HW1 3975   0.378   6.266   8.313 -2.5113 -0.4377 -0.6714
  574SOL    HW2 3976   0.420   6.218   8.176 -1.5691 -0.8354 -0.2492
  575SOL     OW 3977   3.560   2.921   7.562 -0.6434 -0.0764  0.3747
  575SOL    HW1 3978   3.549   3.009   7.598 -1.1896  1.1026 -2.4122
  575SOL    HW2 3979   3.509   2.865   7.621 -1.8401  1.7541  1.1752
  576SOL     OW 3980   4.444   5.153   4.317 -0.0351  0.4166  0.1277
  576SOL    HW1 3981   4.527   5.133   4.361 -0.0106 -0.8040 -0.4182
  576SOL    HW2 3982   4.391   5.074   4.329 -1.4339  1.4472  1.1039
  577SOL     OW 3983   0.626   4.566   6.498  0.1968  0.1051 -0.1676
  577SOL    HW1 3984   0.700   4.512   6.527 -0.3730 -1.7497 -1.9577
  577SOL    HW2 3985   0.579   4.586   6.579  0.5735 -1.9040  0.6315
  578SOL     OW 3986   7.239   2.819   5.882 -0.4733  0.1528  0.4239
  578SOL    HW1 3987   7.227   2.894   5.824 -1.6622  0.7096  1.3362
  578SOL    HW2 3988   7.295   2.759   5.833 -1.8332  0.3685 -1.5018
  579SOL     OW 3989   9.303   5.545   7.916  0.2207  0.1702  0.5486
  579SOL    HW1 3990   9.278   5.459   7.950 -0.0239 -0.6221 -1.4845
  579SOL    HW2 3991   9.237   5.564   7.849  0.9912  1.3698  0.0992
  580SOL     OW 3992   2.877   6.518   1.787  0.9731 -0.4391 -0.0723
  580SOL    HW1 3993   2.808   6.518   1.853  1.2418 -0.5201  0.2069
  580SOL    HW2 3994   2.922   6.602   1.799  1.0288 -0.4581 -0.1499
  581SOL     OW 3995   8.146   4.849   1.135 -0.5037  0.5589  0.7372
  581SOL    HW1 3996   8.081   4.871   1.202 -0.0651  3.0673  0.4515
  581SOL    HW2 3997   8.180   4.934   1.106  0.6877 -0.5336 -1.3227
  582SOL     OW 3998   9.542   5.714   7.171  0.1772 -0.2049  0.1429
  582SOL    HW1 3999   9.517   5.802   7.198 -0.9662 -1.0328  1.9688
  582SOL    HW2 4000   9.633   5.721   7.144  0.5079  1.2843  1.5519
  583SOL     OW 4001   7.987   8.556   1.806 -0.8458  0.1819 -0.0755
  583SOL    HW1 4002   8.024   8.591   1.887  0.1537  1.4952 -1.0547
  583SOL    HW2 4003   8.033   8.473   1.792 -1.4163 -0.3346  0.9469
  584SOL     OW 4004   9.699   2.334   6.535  0.2446 -0.1172 -0.1982
  584SOL    HW1 4005   9.604   2.349   6.539 -0.4819 -3.9698 -0.0119
  584SOL    HW2 4006   9.732   2.369   6.618 -1.0358  0.8508 -0.0556
  585SOL     OW 4007   5.987   5.231  10.481 -0.1366 -0.2088  0.0165
  585SOL    HW1 4008   6.010   5.270  10.566 -0.7340  1.1698 -0.4215
  585SOL    HW2 4009   5.898   5.198  10.493  0.0849 -0.7742  0.1566
  586SOL     OW 4010   3.437   8.739   4.579  0.5651  0.5688 -0.1400
  586SOL    HW1 4011   3.358   8.703   4.540 -1.1460  1.5869  2.1226
  586SOL    HW2 4012   3.458   8.679   4.651 -0.3445  2.1352  1.5328
  587SOL     OW 4013   5.097   6.981   3.730  0.5226 -0.0774  0.5288
  587SOL    HW1 4014   5.127   6.962   3.641 -0.1021  1.1367  0.0376
  587SOL    HW2 4015   5.015   6.932   3.738 -1.0502  2.1587 -0.7119
  588SOL     OW 4016   2.232   5.755   0.809  0.8476 -0.1632 -0.1782
  588SOL    HW1 4017   2.170   5.784   0.876 -0.2873  2.6464 -2.2279
  588SOL    HW2 4018   2.317   5.787   0.838  1.2884 -2.9851  2.0537
  589SOL     OW 4019   0.806   9.017   2.520  0.5111  0.2841 -0.1997
  589SOL    HW1 4020   0.728   8.963   2.511  0.3868  0.4359 -0.0446
  589SOL    HW2 4021   0.855   8.976   2.592  0.1667  0.6793  0.2603
  590SOL     OW 4022   9.144   5.297   3.782  0.1290  0.3553  0.0920
  590SOL    HW1 4023   9.143   5.204   3.806 -1.4343 -0.1325 -1.6658
  590SOL    HW2 4024   9.117   5.299   3.690 -1.3687  2.6453  0.4969
  591SOL     OW 4025   1.748   0.231   3.098  0.4727  0.4179  0.0960
  591SOL    HW1 4026   1.775   0.222   3.189  1.1590  1.3020 -0.0088
  591SOL    HW2 4027   1.681   0.300   3.099 -1.6442 -1.5359  0.3082
  592SOL     OW 4028   3.199   7.829   8.055  0.0730 -0.3145 -0.1941
  592SOL    HW1 4029   3.270   7.884   8.023 -0.8891  0.3116 -1.3208
  592SOL    HW2 4030   3.172   7.778   7.979 -1.4389  0.3137 -0.1182
  593SOL     OW 4031   2.827   6.853   7.426  0.1525 -0.5529 -0.9903
  593SOL    HW1 4032   2.862   6.887   7.343  0.4317  2.0497  0.1105
  593SOL    HW2 4033   2.750   6.802   7.401  0.7175 -0.5444 -2.8988
  594SOL     OW 4034   9.594   2.037   4.501  0.3028 -0.0540 -0.0552
  594SOL    HW1 4035   9.502   2.020   4.520 -0.8771  2.8240 -2.3639
  594SOL    HW2 4036   9.627   2.085   4.577 -0.7990  0.8640 -0.1414
  595SOL     OW 4037   0.446   1.229   0.423 -0.4686 -0.2986 -0.1749
  595SOL    HW1 4038   0.379   1.198   0.361  1.1380 -0.7381 -1.7531
  595SOL    HW2 4039   0.424   1.321   0.437 -1.8087 -0.6007 -0.1065
  596SOL     OW 4040   5.802   9.488   0.841  0.1108 -0.0863  0.4447
  596SOL    HW1 4041   5.786   9.553   0.909 -1.6434 -0.5507  0.5304
  596SOL    HW2 4042   5.793   9.404   0.886  1.0319 -0.4006  0.0633
  597SOL     OW 4043   9.095   5.924   2.239  0.0675  0.3239  0.3335
  597SOL    HW1 4044   9.106   6.016   2.216 -0.1085  0.0990 -0.6948
  597SOL    HW2 4045   9.101   5.878   2.155  0.2388 -0.6088  0.8487
  598SOL     OW 4046   8.807  10.214   0.459 -0.1506  0.2215  0.4327
  598SOL    HW1 4047   8.848  10.170   0.384  0.7683  0.7960  0.5871
  598SOL    HW2 4048   8.714  10.198   0.447 -0.1730  1.4670 -1.6167
  599SOL     OW 4049   5.476   2.652   2.151 -0.4678  0.5358 -0.2716
  599SOL    HW1 4050   5.471   2.746   2.172  1.4870  0.2783  1.5976
  599SOL    HW2 4051   5.560   2.642   2.106 -0.0821 -0.5096  0.6560
  600SOL     OW 4052   1.075   1.110   8.685  0.0647 -0.1233 -0.3225
  600SOL    HW1 4053   1.067   1.186   8.743 -0.2317 -1.0608  0.8907
  600SOL    HW2 4054   1.077   1.148   8.597 -1.7480  1.2016  0.1399
  601SOL     OW 4055   5.735   1.243   6.233  0.1360 -0.1380  0.3223
  601SOL    HW1 4056   5.748   1.149   6.244 -0.3296 -0.1256  1.0758
  601SOL    HW2 4057   5.674   1.251   6.160 -1.4587 -0.5327  1.5619
  602SOL     OW 4058   6.297   9.261   9.211 -0.3564  0.2583 -0.0639
  602SOL    HW1 4059   6.296   9.341   9.158  0.7912  0.4725  0.2010
  602SOL    HW2 4060   6.253   9.195   9.157 -0.0813  0.7249 -0.8673
  603SOL     OW 4061   9.789   9.621   2.552  0.1013 -0.5456 -0.0526
  603SOL    HW1 4062   9.836   9.571   2.485  0.7927 -0.9033  0.6803
  603SOL    HW2 4063   9.839   9.702   2.560 -1.7959  0.9654 -2.2308
  604SOL     OW 4064  10.561   5.369   2.446  0.1881  0.4082 -0.8333
  604SOL    HW1 4065  10.654   5.386   2.455  0.5213 -0.7993 -1.6467
  604SOL    HW2 4066  10.519   5.425   2.511  1.5648  0.1044  0.3598
  605SOL     OW 4067   8.091   4.868   2.359  0.0302 -0.5345  0.2522
  605SOL    HW1 4068   8.084   4.801   2.291 -1.5532 -1.3946  1.2197
  605SOL    HW2 4069   8.034   4.837   2.430 -1.0421  2.0166  0.5885
  606SOL     OW 4070   5.626   0.537   6.889  0.2991  0.2932  0.1645
  606SOL    HW1 4071   5.719   0.544   6.908  0.3315 -1.2207  0.7082
  606SOL    HW2 4072   5.614   0.583   6.806  1.8916 -1.1131 -0.8969
  607SOL     OW 4073   6.540   2.659   9.913 -0.4840 -0.8225 -0.4989
  607SOL    HW1 4074   6.603   2.694   9.976 -0.3507 -1.4466 -0.2690
  607SOL    HW2 4075   6.524   2.730   9.852 -0.1435 -0.4060 -0.1098
  608SOL     OW 4076   6.364   2.515   4.560 -0.0675 -0.0780 -0.0719
  608SOL    HW1 4077   6.297   2.580   4.538 -0.0935  0.5329  1.6590
  608SOL    HW2 4078   6.348   2.442   4.500 -0.0793  1.4503 -2.0500
  609SOL     OW 4079   5.442   2.311   9.860  0.0650 -0.2462 -0.0731
  609SOL    HW1 4080   5.485   2.226   9.855 -0.5533 -0.6050  0.4611
  609SOL    HW2 4081   5.401   2.312   9.947 -0.7433  0.1965 -0.4491
  610SOL     OW 4082   7.821   6.796   1.036  0.1651 -0.6959  0.0357
  610SOL    HW1 4083   7.840   6.707   1.066 -0.3914 -0.6089  0.6829
  610SOL    HW2 4084   7.735   6.790   0.995 -0.4052 -0.2458  1.1269
  611SOL     OW 4085   4.385   9.831   0.486 -0.0293  0.3456  0.3188
  611SOL    HW1 4086   4.310   9.888   0.465 -0.6757 -0.0954  1.4048
  611SOL    HW2 4087   4.358   9.782   0.563  1.3724  0.1454  0.7106
  612SOL     OW 4088   2.962   4.216   4.127 -0.4670 -0.0362  0.2983
  612SOL    HW1 4089   3.016   4.276   4.075 -0.0126 -0.4909  0.2399
  612SOL    HW2 4090   2.900   4.273   4.173 -1.6884  0.3182 -1.6536
  613SOL     OW 4091   9.238   4.418   1.285  0.1526  0.7091 -0.6729
  613SOL    HW1 4092   9.261   4.489   1.224  1.2833  1.5053  0.6175
  613SOL    HW2 4093   9.143   4.411   1.279 -0.0668  2.8320 -0.3409
  614SOL     OW 4094  10.516   0.357   8.756  0.2776  0.1720 -0.6443
  614SOL    HW1 4095  10.425   0.347   8.728  0.1448  1.9611 -0.9227
  614SOL    HW2 4096  10.567   0.312   8.688 -0.3179  0.4595 -1.2985
  615SOL     OW 4097   1.496   1.969   8.356 -0.0268  0.1764  0.0804
  615SOL    HW1 4098   1.488   1.915   8.278  0.8421  2.5713 -1.8205
  615SOL    HW2 4099   1.427   2.035   8.346  0.5527  0.9441  0.9620
  616SOL     OW 4100   2.441   5.426   3.983 -0.0787 -0.1195  0.1254
  616SOL    HW1 4101   2.439   5.516   3.950  0.9953 -0.7433 -1.7422
  616SOL    HW2 4102   2.503   5.381   3.927 -0.3141 -1.9637  1.2724
  617SOL     OW 4103   4.746   6.838   5.712  0.2626  0.0994 -0.0934
  617SOL    HW1 4104   4.725   6.745   5.705 -0.5371  0.3639 -1.4303
  617SOL    HW2 4105   4.674   6.874   5.764 -0.0821  0.1875 -0.6331
  618SOL     OW 4106   9.993   8.827   3.371 -0.4730 -0.3668  0.1372
  618SOL    HW1 4107  10.051   8.755   3.397 -0.4304 -0.2830  0.2788
  618SOL    HW2 4108  10.052   8.897   3.343 -0.5225 -0.5210 -0.3633
  619SOL     OW 4109   6.058   8.866   1.686  0.1553  0.2948 -0.6001
  619SOL    HW1 4110   6.025   8.906   1.767 -0.7418  0.7147 -1.1523
  619SOL    HW2 4111   5.979   8.832   1.644  0.4958  0.8641 -1.7175
  620SOL     OW 4112   8.490  10.058   4.333  0.2028 -0.3178  0.3984
  620SOL    HW1 4113   8.401  10.093   4.340  0.4442 -0.0240  3.4607
  620SOL    HW2 4114   8.544  10.133   4.308  0.0097  0.3379  1.8582
  621SOL     OW 4115  10.401   7.013  10.096 -0.0325  0.1867 -0.3318
  621SOL    HW1 4116  10.473   6.988  10.154  1.2339  0.5484 -1.7024
  621SOL    HW2 4117  10.443   7.041  10.015 -1.6585  1.5827 -0.7586
  622SOL     OW 4118   0.343   5.996   9.048 -0.1317  0.3791  0.5563
  622SOL    HW1 4119   0.334   5.926   9.113 -2.1556 -0.9101 -0.9920
  622SOL    HW2 4120   0.268   6.054   9.063 -1.0143 -0.3022 -0.9733
  623SOL     OW 4121   8.077  10.297   6.736  0.3266  0.0478  0.0485
  623SOL    HW1 4122   8.035  10.271   6.818  1.6670 -1.3987  0.3109
  623SOL    HW2 4123   8.014  10.357   6.695 -0.8802 -0.1231  1.5612
  624SOL     OW 4124  10.623   2.720   0.608  0.0164 -0.0303 -0.7676
  624SOL    HW1 4125  10.548   2.753   0.658  0.5351 -0.2794  0.2082
  624SOL    HW2 4126  10.589   2.647   0.558 -0.2186 -0.7389  0.3799
  625SOL     OW 4127   9.924   1.635   9.023  0.4329 -0.6446 -0.2365
  625SOL    HW1 4128   9.947   1.590   9.104 -2.4490  0.3439  1.2921
  625SOL    HW2 4129   9.899   1.566   8.963  0.5321 -1.3114  0.4731
  626SOL     OW 4130  10.077   6.072   3.448 -0.1675  0.9482  0.0474
  626SOL    HW1 4131  10.130   6.116   3.515  0.6077 -0.7416  0.6082
  626SOL    HW2 4132  10.025   6.009   3.497  1.5476 -1.4295 -1.0073
  627SOL     OW 4133   8.359   2.615   7.509  0.4074 -0.1981  0.7631
  627SOL    HW1 4134   8.332   2.703   7.484  1.0106  0.2864  1.7497
  627SOL    HW2 4135   8.450   2.624   7.536  0.5979 -1.2035  0.5312
  628SOL     OW 4136   6.892   3.538   8.879  0.6858  0.0369  0.0959
  628SOL    HW1 4137   6.962   3.529   8.944 -0.3523  1.3598  1.4838
  628SOL    HW2 4138   6.868   3.630   8.883 -2.0098 -0.6059  0.6520
  629SOL     OW 4139   4.847   0.569   9.263 -0.0135  0.3502 -0.5941
  629SOL    HW1 4140   4.778   0.555   9.328 -0.1589 -1.4593 -1.0689
  629SOL    HW2 4141   4.808   0.540   9.181  1.4254 -1.1955 -0.7907
  630SOL     OW 4142  10.326   8.148   9.589  0.2554  0.4762  0.3670
  630SOL    HW1 4143  10.414   8.112   9.581 -0.0436 -0.1659 -0.0915
  630SOL    HW2 4144  10.325   8.221   9.526  1.1529  1.9308  1.9443
  631SOL     OW 4145   0.801   5.785   2.588 -0.2405 -0.1602  0.5775
  631SOL    HW1 4146   0.896   5.791   2.579 -0.4409  0.8486 -1.1900
  631SOL    HW2 4147   0.788   5.733   2.668  1.7785 -2.1655 -0.2912
  632SOL     OW 4148   0.763   4.338   2.771 -0.6386 -0.1111 -0.2483
  632SOL    HW1 4149   0.701   4.351   2.700 -0.2023  1.6660 -0.3592
  632SOL    HW2 4150   0.753   4.416   2.826  1.1579  0.0276 -0.0406
  633SOL     OW 4151   0.399   3.881   3.035  0.0139  0.4886 -0.4169
  633SOL    HW1 4152   0.346   3.804   3.020  0.7348 -0.1998  0.4376
  633SOL    HW2 4153   0.402   3.926   2.951 -1.1934  0.0961 -0.6801
  634SOL     OW 4154   9.650   7.424   0.746 -0.5421 -0.3064  0.1967
  634SOL    HW1 4155   9.661   7.413   0.841 -1.1693  1.1856  0.4608
  634SOL    HW2 4156   9.579   7.487   0.737  0.7069  0.9596 -1.2323
  635SOL     OW 4157   5.643   2.619   8.252 -0.0016 -0.5365  0.2391
  635SOL    HW1 4158   5.652   2.710   8.224 -0.4230 -0.5172  0.1667
  635SOL    HW2 4159   5.713   2.573   8.206 -1.5570 -0.7819 -2.0547
  636SOL     OW 4160   7.877   3.154   4.333 -0.2335 -0.3526  0.0763
  636SOL    HW1 4161   7.945   3.111   4.385 -0.1042 -1.8294 -1.2356
  636SOL    HW2 4162   7.808   3.088   4.324 -0.7650  0.2806 -0.6396
  637SOL     OW 4163   3.478   8.271   9.149  0.4828  0.2768  0.5974
  637SOL    HW1 4164   3.559   8.302   9.190  1.8818 -0.9096 -1.1441
  637SOL    HW2 4165   3.506   8.238   9.064 -1.7723 -0.7283  0.2015
  638SOL     OW 4166   2.042   6.370   6.519 -0.4952 -0.2311 -0.5573
  638SOL    HW1 4167   1.975   6.370   6.587 -0.4404  0.6438 -0.5010
  638SOL    HW2 4168   2.010   6.308   6.454 -0.4842 -1.2035  0.3179
  639SOL     OW 4169   5.143   3.743   0.990  0.0690  0.0367  0.3877
  639SOL    HW1 4170   5.079   3.714   1.055 -0.3090 -0.0860 -0.0331
  639SOL    HW2 4171   5.131   3.838   0.986 -0.7998 -0.0778 -0.4014
  640SOL     OW 4172   5.249   1.983   6.648 -0.2729 -0.2980  0.3275
  640SOL    HW1 4173   5.269   1.896   6.682 -1.1399 -0.2638  0.9575
  640SOL    HW2 4174   5.329   2.010   6.603  0.1852 -1.2007  0.5733
  641SOL     OW 4175   6.466   4.645   8.675 -0.4675  0.2302  0.0015
  641SOL    HW1 4176   6.385   4.606   8.642 -0.8930  0.7588  0.3921
  641SOL    HW2 4177   6.470   4.620   8.767 -0.3762  0.5080  0.0759
  642SOL     OW 4178   8.927   2.511   0.361  0.0328 -0.0336  0.3179
  642SOL    HW1 4179   8.843   2.552   0.341 -0.2126 -0.9487 -0.7076
  642SOL    HW2 4180   8.933   2.439   0.297  0.9568 -0.8417  1.2815
  643SOL     OW 4181   6.411   5.345   2.659 -0.1074  0.0637  0.2109
  643SOL    HW1 4182   6.437   5.258   2.630 -0.4362 -0.0459  0.2429
  643SOL    HW2 4183   6.382   5.389   2.580  1.0864  0.5223  0.0061
  644SOL     OW 4184   4.925   0.999   5.909 -0.2803  0.3793 -0.1120
  644SOL    HW1 4185   4.897   1.079   5.863  0.6006 -0.9467 -3.2635
  644SOL    HW2 4186   5.020   1.010   5.921 -0.4717  0.6161  1.2499
  645SOL     OW 4187   9.100   7.229   8.174 -0.4273  0.1407  0.5733
  645SOL    HW1 4188   9.110   7.203   8.082  0.3802  1.7387  0.1733
  645SOL    HW2 4189   9.009   7.209   8.195 -1.2513  1.6681 -1.2538
  646SOL     OW 4190   9.459   6.275   5.795  0.0276 -0.1729  0.6599
  646SOL    HW1 4191   9.465   6.350   5.735 -0.1408  1.0604  2.1040
  646SOL    HW2 4192   9.550   6.246   5.805 -0.0166 -0.8565 -0.7029
  647SOL     OW 4193  10.144   3.388   0.959 -0.1622  0.0599 -0.2466
  647SOL    HW1 4194  10.150   3.373   0.864  2.1602 -2.2163  0.1518
  647SOL    HW2 4195  10.228   3.427   0.982 -1.5370  2.7399  0.6653
  648SOL     OW 4196   7.768   0.450   2.925  0.0982 -0.4813  0.2002
  648SOL    HW1 4197   7.681   0.478   2.951 -0.1948 -2.3462  1.4227
  648SOL    HW2 4198   7.826   0.521   2.954 -0.7186 -0.4836  1.9942
  649SOL     OW 4199   6.611   4.659   2.557 -0.1325  0.0951 -0.0922
  649SOL    HW1 4200   6.545   4.591   2.543 -1.0947  1.1386 -0.7577
  649SOL    HW2 4201   6.565   4.730   2.601  0.0460  1.5415 -2.0645
  650SOL     OW 4202   3.007   1.364   1.848 -0.8607  0.5033  0.0651
  650SOL    HW1 4203   3.039   1.306   1.779 -0.3385  3.0979 -2.0706
  650SOL    HW2 4204   3.055   1.446   1.834 -2.1222  1.7254  2.3694
  651SOL     OW 4205   9.352   7.501   4.214 -0.1247 -0.7974  0.1520
  651SOL    HW1 4206   9.358   7.406   4.210 -0.4415 -0.8696  1.1017
  651SOL    HW2 4207   9.344   7.521   4.307  0.1814  0.1776 -0.0151
  652SOL     OW 4208   8.290   4.581   3.125 -0.3275 -0.4881  0.0388
  652SOL    HW1 4209   8.300   4.624   3.040  1.4606 -0.4542  0.2216
  652SOL    HW2 4210   8.369   4.527   3.133 -1.3324 -1.8983  0.9009
  653SOL     OW 4211   3.827   2.224   7.270 -0.4376  0.3815 -0.3159
  653SOL    HW1 4212   3.829   2.252   7.178  0.0162  0.5132 -0.2703
  653SOL    HW2 4213   3.902   2.268   7.310 -1.0646  0.9055  0.2971
  654SOL     OW 4214  10.466   9.637  10.247 -0.0097 -0.0674 -0.1180
  654SOL    HW1 4215  10.436   9.555  10.287 -2.0614 -0.4499 -2.1829
  654SOL    HW2 4216  10.538   9.611  10.190 -1.4500 -0.7467 -1.7199
  655SOL     OW 4217   7.624   4.949   2.086  0.3212  0.3758 -0.2750
  655SOL    HW1 4218   7.648   4.869   2.134 -1.5656 -0.0713 -0.0084
  655SOL    HW2 4219   7.547   4.924   2.035  0.5742  1.6518 -1.3404
  656SOL     OW 4220   6.116   8.257   9.749 -0.6676 -0.4654  0.1565
  656SOL    HW1 4221   6.099   8.332   9.805 -0.8128  0.6493 -1.3031
  656SOL    HW2 4222   6.160   8.193   9.805 -0.1715  0.8709  1.3317
  657SOL     OW 4223   6.634   5.221   4.137  0.8702  0.1524 -0.2809
  657SOL    HW1 4224   6.676   5.271   4.067 -1.2206 -0.3656 -1.9781
  657SOL    HW2 4225   6.682   5.138   4.139 -0.8275 -1.0462 -3.2180
  658SOL     OW 4226   6.963   0.714   5.512  0.1274  0.2770 -0.0559
  658SOL    HW1 4227   7.003   0.709   5.425  1.5099 -1.1883  0.6135
  658SOL    HW2 4228   6.872   0.738   5.495  0.0614 -1.1039 -1.9957
  659SOL     OW 4229   5.380   0.018   7.848  0.1781  0.0788  1.3350
  659SOL    HW1 4230   5.461   0.032   7.798 -0.0311  1.6598  1.3986
  659SOL    HW2 4231   5.381  -0.076   7.869  0.6371 -0.5070 -0.9939
  660SOL     OW 4232   3.341   3.603   9.632 -0.2288  0.2670 -0.0919
  660SOL    HW1 4233   3.394   3.636   9.559 -2.3211  2.5717 -0.7534
  660SOL    HW2 4234   3.337   3.676   9.694 -0.1393 -0.9449  1.4040
  661SOL     OW 4235   3.509   9.401   5.277  0.5761 -0.2831 -0.3457
  661SOL    HW1 4236   3.565   9.477   5.265  0.1858  0.4895  2.1611
  661SOL    HW2 4237   3.426   9.425   5.237 -0.1407  1.4507  1.9428
  662SOL     OW 4238   8.224   9.198   2.776  0.2405 -0.5996 -0.2128
  662SOL    HW1 4239   8.280   9.261   2.821  0.3124 -0.2704 -0.7546
  662SOL    HW2 4240   8.241   9.114   2.819  0.7714 -0.4031 -0.0428
  663SOL     OW 4241   6.306   1.628   5.365  0.2393 -0.1137  0.2162
  663SOL    HW1 4242   6.242   1.602   5.299  0.0976  1.6252 -0.3952
  663SOL    HW2 4243   6.365   1.688   5.319  0.2194  1.0340  1.6032
  664SOL     OW 4244   2.726   1.400   3.479  0.0905 -0.0475 -0.2965
  664SOL    HW1 4245   2.784   1.475   3.496  0.1365 -0.2607  0.5279
  664SOL    HW2 4246   2.672   1.393   3.558  0.7597 -1.4728  0.0801
  665SOL     OW 4247   7.343   5.887   3.305 -0.6529 -0.2730 -0.0463
  665SOL    HW1 4248   7.278   5.957   3.309  0.8824  1.1652  0.6735
  665SOL    HW2 4249   7.366   5.880   3.212  0.0636  1.0604  0.0059
  666SOL     OW 4250   9.400   2.719   5.764  0.4619  0.3183 -0.4782
  666SOL    HW1 4251   9.479   2.666   5.775 -0.5611 -1.9679 -2.8965
  666SOL    HW2 4252   9.406   2.753   5.675 -2.3701 -2.1237 -1.7620
  667SOL     OW 4253   8.311   5.622   7.365 -0.4468  0.3134 -0.3761
  667SOL    HW1 4254   8.259   5.618   7.446  0.4737  3.2353  0.4883
  667SOL    HW2 4255   8.383   5.562   7.380 -0.6879  0.2628  0.6910
  668SOL     OW 4256   1.130   5.091   4.052 -0.1061 -0.0136  0.4077
  668SOL    HW1 4257   1.115   5.183   4.075 -1.5146 -0.3520  0.8926
  668SOL    HW2 4258   1.050   5.064   4.007  1.0829 -0.4513 -1.5885
  669SOL     OW 4259   5.254   1.655   9.006  0.0814  0.0040 -0.0491
  669SOL    HW1 4260   5.306   1.713   8.949  0.6078 -0.0179  0.3964
  669SOL    HW2 4261   5.164   1.666   8.976  0.1296  1.3071  0.2418
  670SOL     OW 4262   9.816   0.412   8.386 -0.5984 -0.5688  0.1616
  670SOL    HW1 4263   9.837   0.374   8.471 -0.9759 -0.8142  0.1502
  670SOL    HW2 4264   9.858   0.354   8.323 -2.4203 -1.8983  0.0699
  671SOL     OW 4265   7.831   1.020   6.008 -0.1467 -0.4350  0.9076
  671SOL    HW1 4266   7.907   1.023   6.065  0.2193  2.8669  0.4057
  671SOL    HW2 4267   7.762   1.063   6.058 -1.3946 -2.2254  0.8359
  672SOL     OW 4268   7.954   1.407   2.005 -0.5211  0.1158  0.6625
  672SOL    HW1 4269   8.031   1.434   1.955  0.5788 -1.5669  1.3494
  672SOL    HW2 4270   7.895   1.482   2.000  0.0659  0.5326 -2.0490
  673SOL     OW 4271  10.179   4.842   6.462 -0.2693  0.2349  0.0381
  673SOL    HW1 4272  10.235   4.835   6.385 -0.8632 -0.9324 -0.3086
  673SOL    HW2 4273  10.234   4.883   6.528  0.8083 -0.3376 -0.4786
  674SOL     OW 4274   7.033   9.550   3.606  0.0878 -0.2745 -0.8001
  674SOL    HW1 4275   6.947   9.535   3.568  0.5416  1.1152 -2.4924
  674SOL    HW2 4276   7.019   9.618   3.672 -0.1034 -0.0510 -1.0732
  675SOL     OW 4277   0.123   4.133   5.581 -0.0513  0.2360 -0.5230
  675SOL    HW1 4278   0.062   4.060   5.569 -0.4263  0.7264 -1.7158
  675SOL    HW2 4279   0.204   4.103   5.540  0.5543 -0.4222  1.0768
  676SOL     OW 4280   6.689  10.094   5.723  0.2010 -0.0535  0.4728
  676SOL    HW1 4281   6.716  10.039   5.797 -0.7685  0.0927  0.9425
  676SOL    HW2 4282   6.698  10.036   5.647 -0.9688 -0.9521  0.9757
  677SOL     OW 4283   7.859   3.051   6.783 -0.0901  0.0552 -0.2652
  677SOL    HW1 4284   7.905   2.974   6.816  1.9616  2.1447  2.1526
  677SOL    HW2 4285   7.929   3.110   6.755 -1.5808  1.3910 -1.3348
  678SOL     OW 4286   2.902   0.213   3.649  0.0522  0.2670 -0.6293
  678SOL    HW1 4287   2.863   0.202   3.562  0.9356  0.8022 -1.1083
  678SOL    HW2 4288   2.975   0.273   3.635  0.2356  0.3226  0.4822
  679SOL     OW 4289   4.800   4.623   6.688  0.1588 -0.5565  0.1466
  679SOL    HW1 4290   4.880   4.576   6.707  0.5109  0.7273  2.1623
  679SOL    HW2 4291   4.739   4.597   6.757 -0.4481  0.0699 -0.1323
  680SOL     OW 4292   3.632   6.150   9.129 -0.0565  0.0562  0.5627
  680SOL    HW1 4293   3.621   6.180   9.220  0.3199  0.2835  0.5367
  680SOL    HW2 4294   3.568   6.080   9.119  0.6595 -0.7519  1.3573
  681SOL     OW 4295   0.831   8.522   6.381  0.8768 -0.4961 -0.5426
  681SOL    HW1 4296   0.796   8.443   6.423  0.0223  0.8340  1.3929
  681SOL    HW2 4297   0.761   8.550   6.321  0.8432 -0.7411 -0.6212
  682SOL     OW 4298   6.703   4.314   8.571  0.6567  0.0113 -0.0131
  682SOL    HW1 4299   6.787   4.314   8.525  0.9882  1.5767  0.5343
  682SOL    HW2 4300   6.640   4.346   8.506  1.0164  1.6177  0.3835
  683SOL     OW 4301   4.637   8.436   1.933  0.6978 -0.2944 -0.0096
  683SOL    HW1 4302   4.606   8.435   2.023  0.4823 -1.3461 -0.0828
  683SOL    HW2 4303   4.636   8.344   1.906 -1.3932  0.1842 -1.8290
  684SOL     OW 4304   5.023   8.545   3.721 -0.1497 -0.8476 -0.7235
  684SOL    HW1 4305   5.071   8.462   3.724  0.8519 -0.3506 -2.0065
  684SOL    HW2 4306   5.059   8.595   3.795  0.4264 -0.9474 -0.9276
  685SOL     OW 4307   2.026   9.548   1.298 -0.8226  0.1476  0.1006
  685SOL    HW1 4308   2.076   9.479   1.342  0.8644  0.0732 -1.7788
  685SOL    HW2 4309   2.090   9.618   1.282 -1.4792  0.4034 -1.6546
  686SOL     OW 4310  10.212  10.444   8.576  0.3265  0.2790  0.2799
  686SOL    HW1 4311  10.154  10.435   8.501  0.6003 -0.3521  0.1405
  686SOL    HW2 4312  10.296  10.472   8.539  1.2717 -2.5956 -0.0153
  687SOL     OW 4313   8.900   7.766   2.407 -0.8235  0.0176 -0.0515
  687SOL    HW1 4314   8.980   7.816   2.421 -0.2012 -1.1044  0.5600
  687SOL    HW2 4315   8.840   7.795   2.476 -0.5187  0.0278  0.2089
  688SOL     OW 4316   7.700   2.019  10.345  0.0773 -0.1050  0.0769
  688SOL    HW1 4317   7.723   2.106  10.378 -0.4779 -0.0943  0.4492
  688SOL    HW2 4318   7.750   1.959  10.399  0.1398 -0.0384  0.0940
  689SOL     OW 4319   3.567   8.790   3.905  0.3911  0.5971  0.0491
  689SOL    HW1 4320   3.559   8.858   3.838 -1.2423 -1.2912 -1.8093
  689SOL    HW2 4321   3.639   8.735   3.875  0.6974  0.6371  0.7077
  690SOL     OW 4322   5.614   1.008  10.128 -0.1384  0.2258 -0.3624
  690SOL    HW1 4323   5.655   0.984  10.045 -0.4627 -0.6984 -0.2703
  690SOL    HW2 4324   5.686   1.004  10.192 -0.3823 -1.7137 -0.1419
  691SOL     OW 4325   9.809   4.335   9.143  0.2452 -0.3513 -0.4343
  691SOL    HW1 4326   9.837   4.421   9.175 -0.0824 -0.1503 -0.6885
  691SOL    HW2 4327   9.832   4.275   9.214  3.1025 -0.5070 -1.3399
  692SOL     OW 4328   1.973   5.312   7.485  0.5117  0.0835 -0.0379
  692SOL    HW1 4329   2.063   5.313   7.515 -0.4312  0.3661  3.0767
  692SOL    HW2 4330   1.950   5.404   7.472  0.5532  0.0261 -0.5737
  693SOL     OW 4331   8.074   5.237   8.444  0.5865  0.2567 -0.6525
  693SOL    HW1 4332   8.099   5.313   8.393 -2.1073  3.2551  2.0630
  693SOL    HW2 4333   8.137   5.233   8.515 -0.1799  1.0039  0.0892
  694SOL     OW 4334   7.948   3.795   7.426 -0.1055  1.1966 -0.4824
  694SOL    HW1 4335   7.879   3.741   7.389  0.2103  2.2171 -2.7360
  694SOL    HW2 4336   8.012   3.804   7.355  3.4971 -1.4090  2.0790
  695SOL     OW 4337  10.172   9.301   1.509 -0.0693 -0.5192  0.1112
  695SOL    HW1 4338  10.138   9.354   1.581  1.0796 -1.7820  1.6502
  695SOL    HW2 4339  10.264   9.324   1.503  0.1407 -1.3662 -0.0790
  696SOL     OW 4340   5.806   3.395   2.267  0.0565  0.0626  0.2985
  696SOL    HW1 4341   5.868   3.458   2.231  0.8270  0.7640  2.7212
  696SOL    HW2 4342   5.859   3.317   2.285 -0.5216 -0.6462 -0.8715
  697SOL     OW 4343   6.048   3.070   6.223  0.4778 -0.2374  0.4678
  697SOL    HW1 4344   6.067   3.023   6.305 -1.4285 -0.4727  0.8265
  697SOL    HW2 4345   5.964   3.034   6.194  0.6990  0.4740 -1.1392
  698SOL     OW 4346   0.734   5.126   5.546  0.1044  0.5123 -0.6870
  698SOL    HW1 4347   0.728   5.063   5.617 -0.5852 -1.0982 -2.1124
  698SOL    HW2 4348   0.668   5.098   5.483 -0.2549  2.7027 -1.3682
  699SOL     OW 4349   7.599   7.275   2.627 -0.2163 -0.2371  0.2974
  699SOL    HW1 4350   7.508   7.248   2.620 -0.2181 -0.4530  1.0880
  699SOL    HW2 4351   7.636   7.258   2.540 -0.8963 -0.2485  0.0092
  700SOL     OW 4352   3.185   1.111   0.697 -0.3411 -0.1443 -0.0762
  700SOL    HW1 4353   3.261   1.062   0.729  1.1958  1.4695 -1.0551
  700SOL    HW2 4354   3.110   1.068   0.738  1.1374 -1.3092  1.5825
  701SOL     OW 4355   3.163   9.867   6.931  0.7711  0.9140 -0.3002
  701SOL    HW1 4356   3.211   9.948   6.944  1.3471  0.2952  1.7634
  701SOL    HW2 4357   3.225   9.808   6.889  1.3435  0.6062  0.9511
  702SOL     OW 4358  10.029   1.690   7.632 -0.0439  0.3335  0.1276
  702SOL    HW1 4359   9.988   1.624   7.576  0.7412  0.1969 -0.3014
  702SOL    HW2 4360  10.103   1.722   7.581  1.3342 -0.5499  1.4695
  703SOL     OW 4361   3.199   8.384   5.368  0.2708 -0.2732  0.2789
  703SOL    HW1 4362   3.237   8.310   5.320  0.4149 -0.3155  0.4549
  703SOL    HW2 4363   3.154   8.344   5.442 -0.3990 -0.2460 -0.1029
  704SOL     OW 4364   0.700   4.634   4.472  0.0039  0.0641  0.0536
  704SOL    HW1 4365   0.741   4.700   4.416 -1.1602 -0.9562 -2.1186
  704SOL    HW2 4366   0.685   4.559   4.414 -1.2658 -1.0540  1.7449
  705SOL     OW 4367   2.237   5.500   7.548 -0.0952 -0.0436 -0.1921
  705SOL    HW1 4368   2.265   5.417   7.586  0.6392  0.1962 -0.2039
  705SOL    HW2 4369   2.199   5.549   7.621 -0.6356 -0.4279 -0.2085
  706SOL     OW 4370   8.174   8.137   3.005 -0.3351  0.2247  0.1445
  706SOL    HW1 4371   8.268   8.155   3.016 -0.3195  0.0395  0.3162
  706SOL    HW2 4372   8.160   8.143   2.911  0.6081 -3.4008 -0.3901
  707SOL     OW 4373  10.370   6.230   1.529  0.1267  0.6508 -0.3425
  707SOL    HW1 4374  10.308   6.266   1.593  0.5654  0.8369 -0.0177
  707SOL    HW2 4375  10.436   6.299   1.519  0.2580  0.4714 -0.7228
  708SOL     OW 4376   4.628   2.332   0.165 -0.0931 -0.1822 -0.2456
  708SOL    HW1 4377   4.706   2.379   0.195  0.9232 -1.1055 -1.3624
  708SOL    HW2 4378   4.630   2.341   0.070 -1.2218 -0.4401 -0.3083
  709SOL     OW 4379   0.499   5.864   5.043 -0.0516 -0.3117  0.3150
  709SOL    HW1 4380   0.549   5.932   5.088  0.3151  0.1823 -0.8216
  709SOL    HW2 4381   0.434   5.912   4.991 -0.0657 -0.8430 -0.1698
  710SOL     OW 4382   5.549   2.513   1.795 -0.2141 -0.7110 -0.0035
  710SOL    HW1 4383   5.609   2.522   1.721 -0.4841 -1.5968 -0.3444
  710SOL    HW2 4384   5.579   2.578   1.859  0.3041 -0.2546 -0.6988
  711SOL     OW 4385  10.653   5.492   1.844 -0.1993  0.0838  0.6132
  711SOL    HW1 4386  10.727   5.441   1.813  0.4067  1.2754  0.0261
  711SOL    HW2 4387  10.576   5.445   1.813  0.3359 -0.5006  0.1510
  712SOL     OW 4388   3.575   5.140   9.382 -0.1359  0.2710 -0.2614
  712SOL    HW1 4389   3.665   5.108   9.390 -0.4447 -0.8557 -1.0379
  712SOL    HW2 4390   3.570   5.177   9.294 -0.3587  0.5985 -0.1140
  713SOL     OW 4391   5.475   9.979   7.337 -0.0420 -0.3578  0.0744
  713SOL    HW1 4392   5.457  10.054   7.280  0.2994  0.2351  0.7415
  713SOL    HW2 4393   5.501   9.909   7.277 -2.8006 -0.7657 -0.8317
  714SOL     OW 4394   7.332   9.984   1.298 -0.3060 -0.0925  0.4364
  714SOL    HW1 4395   7.370  10.050   1.240  0.2437  1.0628  2.0337
  714SOL    HW2 4396   7.396   9.974   1.368  0.3529 -3.4722 -0.4586
  715SOL     OW 4397   9.899   1.481   0.447  0.0218 -0.0724 -0.3950
  715SOL    HW1 4398   9.884   1.570   0.479  1.5150 -0.3756  1.3235
  715SOL    HW2 4399   9.991   1.464   0.466  0.0731 -1.5917 -1.7621
  716SOL     OW 4400   0.398   3.981   7.384  0.7356 -0.1951 -0.0133
  716SOL    HW1 4401   0.490   3.989   7.360  0.4165 -0.5219 -1.4290
  716SOL    HW2 4402   0.368   3.903   7.338 -0.5758  0.6510 -0.6709
  717SOL     OW 4403   5.167   0.483   3.483 -0.3704  0.0629 -0.1406
  717SOL    HW1 4404   5.086   0.525   3.513  0.3624  1.5902 -0.2055
  717SOL    HW2 4405   5.237   0.531   3.527  0.5625 -0.1232 -1.3574
  718SOL     OW 4406   5.387   8.738   8.778  0.3993  0.5521 -0.3937
  718SOL    HW1 4407   5.342   8.819   8.753  1.7041  0.8877 -1.7671
  718SOL    HW2 4408   5.369   8.678   8.706 -0.5210 -0.4179  0.5929
  719SOL     OW 4409   4.111   3.658   6.773 -0.1406  0.1744  0.3510
  719SOL    HW1 4410   4.190   3.710   6.754  0.1729 -0.5337 -0.3373
  719SOL    HW2 4411   4.066   3.708   6.841 -1.0994  2.6780 -1.8943
  720SOL     OW 4412   8.066   3.714   9.024  0.5586 -0.1284 -0.2589
  720SOL    HW1 4413   8.046   3.776   9.093 -0.0159  0.3755 -0.8624
  720SOL    HW2 4414   8.119   3.764   8.961 -0.1704 -0.1374 -0.9015
  721SOL     OW 4415   3.141   2.309   7.747  0.2818 -0.1264  0.1320
  721SOL    HW1 4416   3.162   2.389   7.796  1.7758  0.5163 -1.4744
  721SOL    HW2 4417   3.079   2.263   7.803  2.0091  0.4783  2.7372
  722SOL     OW 4418   2.458   9.078   5.343 -0.6733  0.2506  0.6876
  722SOL    HW1 4419   2.491   9.010   5.402 -0.5256  0.4447  0.8274
  722SOL    HW2 4420   2.367   9.052   5.326 -0.4827 -0.2331  0.3743
  723SOL     OW 4421   4.330   8.985   3.514 -0.0196 -0.1204 -0.1157
  723SOL    HW1 4422   4.347   8.971   3.421 -2.4748  1.8014 -0.9601
  723SOL    HW2 4423   4.389   9.056   3.539 -1.0482  1.0765 -0.9292
  724SOL     OW 4424  10.005   5.731   0.033 -0.6776 -0.4094 -0.0733
  724SOL    HW1 4425  10.086   5.771  -0.001 -0.0522 -1.1436  0.5065
  724SOL    HW2 4426   9.939   5.750  -0.033 -0.4842  1.8151  0.3101
  725SOL     OW 4427   1.333   8.809   9.191 -0.0634  0.3765  0.2384
  725SOL    HW1 4428   1.291   8.811   9.278 -0.2764  0.5277  0.1326
  725SOL    HW2 4429   1.375   8.723   9.187  0.8378  0.7626  0.9125
  726SOL     OW 4430   9.798   4.118   2.260  0.5185  0.4096  0.0652
  726SOL    HW1 4431   9.786   4.169   2.180 -0.7226  0.3910  0.2296
  726SOL    HW2 4432   9.863   4.052   2.236  1.4007  1.4153 -0.4385
  727SOL     OW 4433   8.867   0.160   3.501 -0.8456  0.5737 -0.0992
  727SOL    HW1 4434   8.811   0.131   3.429 -0.2631 -1.1171  0.0838
  727SOL    HW2 4435   8.952   0.178   3.460  0.3211 -2.9772  0.3889
  728SOL     OW 4436   3.012   9.733   1.794  0.7412  0.0046 -0.0700
  728SOL    HW1 4437   3.104   9.710   1.779  0.4450  0.2514 -2.6694
  728SOL    HW2 4438   3.005   9.824   1.765 -0.5594 -0.4016 -1.1433
  729SOL     OW 4439   7.821   0.893   1.272 -0.6195  0.0527  0.2588
  729SOL    HW1 4440   7.734   0.922   1.244  0.0345  1.3719 -0.4897
  729SOL    HW2 4441   7.804   0.837   1.348 -2.2247 -1.1343 -0.9096
  730SOL     OW 4442   7.001   1.674   9.973  0.0719 -0.6153 -0.2708
  730SOL    HW1 4443   7.000   1.646  10.065  1.3787 -0.3123 -0.1446
  730SOL    HW2 4444   7.058   1.611   9.929  0.6428  0.0953 -0.5688
  731SOL     OW 4445   2.113   1.106   2.375  0.2380  0.5398  0.1639
  731SOL    HW1 4446   2.109   1.123   2.281  1.9749  0.2006 -0.0013
  731SOL    HW2 4447   2.206   1.091   2.393 -0.3909 -2.7513  1.3314
  732SOL     OW 4448   3.573   5.553   9.918  0.4365 -0.1426 -0.4287
  732SOL    HW1 4449   3.514   5.479   9.936  0.4723 -0.0156  0.2420
  732SOL    HW2 4450   3.521   5.630   9.939  0.1507  0.0677 -1.8325
  733SOL     OW 4451   4.802   5.108   3.131  0.0286  0.1992  0.1743
  733SOL    HW1 4452   4.745   5.137   3.201 -0.7568 -0.7410 -0.0491
  733SOL    HW2 4453   4.746   5.107   3.053  0.6541  0.3801 -0.2895
  734SOL     OW 4454   0.952  10.037   6.210  0.4547  0.0392 -0.3325
  734SOL    HW1 4455   0.983  10.031   6.301 -1.1964 -2.5347  0.1750
  734SOL    HW2 4456   0.903   9.956   6.197 -0.8877  1.1754 -2.9749
  735SOL     OW 4457  10.087   1.076   8.496 -0.4525  0.1487  0.0455
  735SOL    HW1 4458  10.019   1.130   8.456 -0.6671  0.3584  0.6810
  735SOL    HW2 4459  10.139   1.137   8.548  0.2776  0.0022 -0.5075
  736SOL     OW 4460   2.935   1.787   0.377  0.3700  0.1603  0.3612
  736SOL    HW1 4461   3.009   1.742   0.418  0.9763  0.2134 -0.6520
  736SOL    HW2 4462   2.971   1.826   0.298 -0.9317 -0.6076 -0.6613
  737SOL     OW 4463   6.382   9.090   4.309 -0.1913 -0.8755 -0.5941
  737SOL    HW1 4464   6.463   9.127   4.344 -0.8091  0.1002 -0.1439
  737SOL    HW2 4465   6.373   9.006   4.354  0.9319 -1.3357 -1.1932
  738SOL     OW 4466   3.707   9.403   6.447  0.2026 -0.4954 -0.2402
  738SOL    HW1 4467   3.650   9.376   6.375 -0.5454 -0.4295  0.3125
  738SOL    HW2 4468   3.667   9.365   6.525  1.7257 -1.6720  0.0099
  739SOL     OW 4469   7.954  10.295   2.116  0.6336  0.9619 -0.2540
  739SOL    HW1 4470   7.947  10.200   2.107 -0.2885  0.7294  2.1331
  739SOL    HW2 4471   7.863  10.326   2.115  0.7562  1.4930  1.3530
  740SOL     OW 4472   4.009   2.215   0.206  0.0988 -0.2064  0.6198
  740SOL    HW1 4473   4.063   2.154   0.155  0.8732  0.4181  0.6667
  740SOL    HW2 4474   3.925   2.171   0.216 -0.0736 -0.3689 -1.1863
  741SOL     OW 4475   4.605   9.873   7.928  0.1643 -0.2899  0.1955
  741SOL    HW1 4476   4.572   9.943   7.872  4.2520  0.4644 -1.6346
  741SOL    HW2 4477   4.625   9.916   8.011  0.9274  0.3583 -0.3062
  742SOL     OW 4478   7.043   1.902   0.458  0.3410 -0.0658  0.1724
  742SOL    HW1 4479   7.002   1.825   0.418  0.3069 -0.1948  0.4513
  742SOL    HW2 4480   7.000   1.911   0.542 -0.2451  0.7629 -0.2036
  743SOL     OW 4481   7.389   8.749   4.087 -0.1791  0.0146 -0.2298
  743SOL    HW1 4482   7.300   8.748   4.124 -0.2148  0.2213 -0.3057
  743SOL    HW2 4483   7.446   8.768   4.162 -0.3517  1.5550 -0.4568
  744SOL     OW 4484   8.785   3.729   9.076  0.1322  0.1856  0.9696
  744SOL    HW1 4485   8.777   3.801   9.013  0.9765  1.0069  1.7537
  744SOL    HW2 4486   8.797   3.651   9.022  3.5634  1.1881  0.0337
  745SOL     OW 4487   4.776   0.220   2.387  0.2475 -0.5718  0.8360
  745SOL    HW1 4488   4.788   0.313   2.402  0.7922 -0.2973 -1.0337
  745SOL    HW2 4489   4.729   0.189   2.464 -1.3371  1.5261  0.7826
  746SOL     OW 4490   3.007   9.561   7.711  0.2339 -0.5198 -0.5926
  746SOL    HW1 4491   3.099   9.589   7.710 -0.0413  1.0593  2.9276
  746SOL    HW2 4492   3.012   9.466   7.723  1.4015 -0.5199 -0.9303
  747SOL     OW 4493   2.869   6.779  10.516  0.0197 -0.4543  0.9202
  747SOL    HW1 4494   2.931   6.767  10.444 -0.0664 -1.6236  1.0236
  747SOL    HW2 4495   2.916   6.833  10.580 -0.3173  1.6033 -0.4869
  748SOL     OW 4496   8.898   6.946   0.210  0.1738  0.0593 -0.0277
  748SOL    HW1 4497   8.821   6.982   0.253 -0.0367  1.2085 -1.2849
  748SOL    HW2 4498   8.934   6.884   0.273  0.1405  1.9480  1.9763
  749SOL     OW 4499   4.451   9.824   5.486  0.7998  0.2051 -0.3463
  749SOL    HW1 4500   4.459   9.821   5.390  1.1510 -0.7231 -0.2958
  749SOL    HW2 4501   4.357   9.823   5.502  0.7425 -0.0227 -0.6775
  750SOL     OW 4502   1.204   9.294   8.117  0.0595  0.3940  0.3206
  750SOL    HW1 4503   1.267   9.249   8.060 -0.7428  0.2084 -0.4508
  750SOL    HW2 4504   1.118   9.274   8.078 -0.3741  1.9992  0.3555
  751SOL     OW 4505   4.420   1.987   7.217  0.4087  0.0619 -0.3003
  751SOL    HW1 4506   4.389   1.899   7.199 -1.8905  0.5029  1.0071
  751SOL    HW2 4507   4.348   2.044   7.187  2.2292  1.5882 -2.0021
  752SOL     OW 4508   6.942   6.955   2.989  0.1236  0.5893  0.1252
  752SOL    HW1 4509   6.872   6.946   2.924  0.1986 -1.4720  0.2656
  752SOL    HW2 4510   6.900   6.998   3.064 -0.8876 -0.1670  0.0153
  753SOL     OW 4511   8.344  10.608   1.484 -0.6160 -0.1367 -0.2758
  753SOL    HW1 4512   8.343  10.691   1.531 -1.4427 -1.5738  2.4528
  753SOL    HW2 4513   8.412  10.556   1.528 -2.4536 -2.0727  0.4473
  754SOL     OW 4514   4.309   9.915   2.561 -0.6160  0.9915  0.3641
  754SOL    HW1 4515   4.336   9.823   2.564 -2.9780  0.0928 -2.0790
  754SOL    HW2 4516   4.378   9.962   2.608  1.0851 -1.9136  0.9867
  755SOL     OW 4517   3.589   6.415   5.260 -0.1286 -0.6707  1.0768
  755SOL    HW1 4518   3.675   6.400   5.300  0.9850  0.2282 -0.8651
  755SOL    HW2 4519   3.594   6.504   5.224 -2.7602  0.4039  3.0019
  756SOL     OW 4520   3.507   4.231   0.860  0.6417  0.1613  0.3183
  756SOL    HW1 4521   3.483   4.142   0.833  0.5024  0.1691  0.4191
  756SOL    HW2 4522   3.462   4.288   0.798  1.6089  0.1296 -0.4352
  757SOL     OW 4523   6.988   3.499   9.988  0.0797 -0.9071  0.3038
  757SOL    HW1 4524   7.008   3.437   9.918 -2.0197 -1.0342 -0.2346
  757SOL    HW2 4525   7.037   3.578   9.964  1.6868 -1.8654  0.2813
  758SOL     OW 4526   0.051   0.028   0.185 -0.2550 -0.3843 -0.1357
  758SOL    HW1 4527   0.032  -0.053   0.233 -0.9908 -0.1855 -0.0780
  758SOL    HW2 4528   0.057   0.000   0.094  1.4106 -0.8080  0.0728
  759SOL     OW 4529   0.107   2.367   3.548 -0.2594 -0.1822 -0.0171
  759SOL    HW1 4530   0.153   2.439   3.591  1.0970 -0.8718 -0.2433
  759SOL    HW2 4531   0.111   2.389   3.455 -0.3821 -0.2508 -0.0384
  760SOL     OW 4532   3.840   8.917   0.226  0.4517 -0.3262  0.0699
  760SOL    HW1 4533   3.848   8.901   0.132 -1.6261  0.7286 -0.3624
  760SOL    HW2 4534   3.877   8.839   0.267  1.6368 -0.6982 -1.6001
  761SOL     OW 4535   4.421   5.649   3.069 -0.0697  0.0558 -0.2105
  761SOL    HW1 4536   4.429   5.744   3.080  0.4980  0.0848 -0.8086
  761SOL    HW2 4537   4.469   5.612   3.143 -0.7201  0.2291  0.3043
  762SOL     OW 4538   3.190   1.812   5.142  0.1525  0.4560  0.2113
  762SOL    HW1 4539   3.115   1.756   5.119  2.0706 -1.6409 -1.5000
  762SOL    HW2 4540   3.164   1.855   5.223 -3.6375  1.3855 -1.2534
  763SOL     OW 4541   5.584   3.139   1.662  0.1311  0.4041  0.0100
  763SOL    HW1 4542   5.582   3.226   1.702  0.3993 -0.1487  1.2879
  763SOL    HW2 4543   5.601   3.079   1.735  2.9214 -0.4807 -1.2184
  764SOL     OW 4544  10.568   4.178   2.029  0.5453  0.1275 -0.1518
  764SOL    HW1 4545  10.514   4.255   2.009 -0.7321 -0.8327 -0.5428
  764SOL    HW2 4546  10.629   4.172   1.956 -0.0369  0.1962 -0.6547
  765SOL     OW 4547   9.608   9.723  10.497 -0.3603 -0.4227 -0.0817
  765SOL    HW1 4548   9.540   9.655  10.496  0.1596 -1.0140  1.7030
  765SOL    HW2 4549   9.683   9.680  10.456  0.3008 -1.3636  1.9820
  766SOL     OW 4550   1.138   9.819   5.993 -0.3681 -0.5235  0.6357
  766SOL    HW1 4551   1.161   9.758   6.063 -0.0471 -0.3419  0.6947
  766SOL    HW2 4552   1.070   9.774   5.943 -0.4628 -0.7342  0.9510
  767SOL     OW 4553   9.874   2.425   5.644 -0.3724  0.3687  0.4935
  767SOL    HW1 4554   9.906   2.514   5.633 -0.7855  0.3889 -0.7398
  767SOL    HW2 4555   9.797   2.420   5.588 -1.2498 -0.3263  1.7058
  768SOL     OW 4556   0.198   0.844   2.910 -0.6599  0.2334 -0.3664
  768SOL    HW1 4557   0.166   0.900   2.981  0.0655 -0.0150  0.1704
  768SOL    HW2 4558   0.252   0.902   2.857  0.6939 -0.0796  0.5978
  769SOL     OW 4559   5.320   2.174   2.018 -0.5293 -0.4722 -0.3340
  769SOL    HW1 4560   5.289   2.256   2.058 -0.3488 -0.0344 -1.0637
  769SOL    HW2 4561   5.379   2.203   1.948 -1.1754 -1.1950 -1.2021
  770SOL     OW 4562   9.644  10.358   2.055  0.2090  0.2732  0.2072
  770SOL    HW1 4563   9.584  10.433   2.059  0.6679  0.5989  2.0345
  770SOL    HW2 4564   9.727  10.396   2.025 -0.3490 -0.1171 -1.9888
  771SOL     OW 4565   8.995   1.231   3.623 -0.3341  0.1884  0.7653
  771SOL    HW1 4566   9.057   1.223   3.551 -1.5540  1.0762 -0.4373
  771SOL    HW2 4567   8.969   1.141   3.642 -1.4146  0.0175 -1.2224
  772SOL     OW 4568   0.713   5.601   5.909 -0.1898 -0.4252 -0.0164
  772SOL    HW1 4569   0.752   5.535   5.852  2.2101 -0.1201  1.1520
  772SOL    HW2 4570   0.625   5.615   5.873  0.9041 -0.7936 -3.1587
  773SOL     OW 4571   4.747   3.190   0.659  0.1806  0.4197 -0.2355
  773SOL    HW1 4572   4.780   3.261   0.604 -1.7505  2.8431  1.5410
  773SOL    HW2 4573   4.663   3.166   0.620 -1.7595  2.9346  2.0363
  774SOL     OW 4574   1.496  10.185   0.637 -0.2042 -0.0427 -0.2384
  774SOL    HW1 4575   1.527  10.118   0.575 -1.9334 -1.2512  0.1521
  774SOL    HW2 4576   1.570  10.196   0.697  0.8446 -0.1397 -1.4443
  775SOL     OW 4577   9.809   5.391   4.097 -0.1497  0.6280  0.0200
  775SOL    HW1 4578   9.791   5.306   4.137  1.2140  0.4561  0.3180
  775SOL    HW2 4579   9.893   5.418   4.134  0.4098  1.1792 -1.5483
  776SOL     OW 4580   4.008   0.119   2.252 -0.2982  0.1152 -0.1377
  776SOL    HW1 4581   4.083   0.092   2.200  0.3429 -1.3440  1.4598
  776SOL    HW2 4582   3.932   0.087   2.203  0.3011 -1.4426 -0.0844
  777SOL     OW 4583   6.349   3.406   2.819  0.6691 -0.1137 -0.5205
  777SOL    HW1 4584   6.382   3.316   2.819 -0.7003 -0.6365  0.2590
  777SOL    HW2 4585   6.420   3.457   2.860  0.3630 -1.2903  1.6183
  778SOL     OW 4586   3.811   2.431   5.779  0.7669 -0.0377  0.5676
  778SOL    HW1 4587   3.801   2.514   5.826  0.4027 -1.0349  2.3905
  778SOL    HW2 4588   3.894   2.395   5.811  0.2655 -0.9709  0.8926
  779SOL     OW 4589   3.819   5.370   6.343  0.1178 -0.2557  0.1529
  779SOL    HW1 4590   3.837   5.418   6.424 -1.4021 -1.5444  1.3382
  779SOL    HW2 4591   3.752   5.421   6.299  2.0250  1.2684 -1.1473
  780SOL     OW 4592   4.953   8.759   2.716  0.4290 -0.0460 -0.2121
  780SOL    HW1 4593   4.999   8.838   2.690  2.0056 -0.4201  1.2549
  780SOL    HW2 4594   4.995   8.689   2.665 -0.1917 -0.0705 -0.6853
  781SOL     OW 4595   6.896   9.407   9.112 -0.1114 -0.4541 -0.3888
  781SOL    HW1 4596   6.938   9.345   9.172 -1.1351 -0.9847 -0.1988
  781SOL    HW2 4597   6.845   9.464   9.168 -0.6896 -0.6428 -0.7180
  782SOL     OW 4598   1.483   5.391   3.988  0.4335  0.2302 -0.2068
  782SOL    HW1 4599   1.469   5.417   4.079  1.5783  1.6612 -0.4186
  782SOL    HW2 4600   1.578   5.393   3.977  0.5101 -2.4446 -0.7444
  783SOL     OW 4601   7.184   7.382  10.439 -0.2166 -0.3000  0.5529
  783SOL    HW1 4602   7.234   7.440  10.382  0.9621 -1.1598  0.6661
  783SOL    HW2 4603   7.220   7.398  10.527  0.6871 -1.7302  0.4753
  784SOL     OW 4604   7.329   5.175  10.098  0.1692  0.1376  0.0328
  784SOL    HW1 4605   7.335   5.131  10.014  0.4266  0.3265 -0.0486
  784SOL    HW2 4606   7.333   5.268  10.077 -1.9996  0.2920  0.0469
  785SOL     OW 4607   1.306   2.873   5.048  0.2907  0.3822  0.0308
  785SOL    HW1 4608   1.300   2.778   5.058 -1.5941  0.4819  0.0714
  785SOL    HW2 4609   1.331   2.886   4.957  0.6368 -0.1370  0.0462
  786SOL     OW 4610   8.302   9.132   8.218  0.1296  0.0319 -0.4375
  786SOL    HW1 4611   8.210   9.118   8.237  0.5256 -0.2439  1.4580
  786SOL    HW2 4612   8.349   9.081   8.284  1.7231 -2.7172 -3.4062
  787SOL     OW 4613  10.456   1.294   5.456 -0.5203 -0.1921  0.1248
  787SOL    HW1 4614  10.545   1.265   5.477 -0.2651  0.2343 -0.3465
  787SOL    HW2 4615  10.429   1.237   5.383 -0.8550 -0.7033  0.6428
  788SOL     OW 4616   6.498   9.710   9.830  0.5116 -0.1259 -0.4639
  788SOL    HW1 4617   6.586   9.714   9.867  0.0617  0.5187  0.5848
  788SOL    HW2 4618   6.456   9.637   9.876  0.0764  0.4322  0.0554
  789SOL     OW 4619   0.761   8.467   1.847  0.5555  0.2962 -0.3202
  789SOL    HW1 4620   0.731   8.447   1.758  0.2708 -2.5383  0.3281
  789SOL    HW2 4621   0.856   8.456   1.844  0.2854 -3.1020  0.3680
  790SOL     OW 4622   4.606   9.607   4.796 -0.2504  0.1428  0.0724
  790SOL    HW1 4623   4.652   9.553   4.732  0.3419 -0.9915  1.4139
  790SOL    HW2 4624   4.645   9.584   4.880 -1.3945  1.1755  0.9251
  791SOL     OW 4625   4.770   4.304   2.157  0.0123 -0.1396  0.4551
  791SOL    HW1 4626   4.821   4.246   2.102  2.9600  1.3785  1.3987
  791SOL    HW2 4627   4.731   4.367   2.097  1.5648  0.3352 -0.0773
  792SOL     OW 4628   0.138   3.017   2.096 -0.1144 -0.5902 -0.4987
  792SOL    HW1 4629   0.062   2.978   2.140 -0.5195  0.3518 -0.3249
  792SOL    HW2 4630   0.135   2.982   2.007 -0.6517 -0.7023 -0.4395
  793SOL     OW 4631   1.772  10.271   0.306  0.0455 -0.1662  0.1852
  793SOL    HW1 4632   1.806  10.212   0.373  0.0818  1.3985  1.6401
  793SOL    HW2 4633   1.715  10.217   0.252 -0.3601 -1.4097  1.7864
  794SOL     OW 4634   5.333   2.382   4.743 -0.1902  0.3562 -0.3727
  794SOL    HW1 4635   5.428   2.391   4.735  0.3794 -2.6704  1.5986
  794SOL    HW2 4636   5.304   2.465   4.780  1.9840  0.6807  0.7609
  795SOL     OW 4637   7.001   0.597   7.851  0.3130 -0.4079 -0.1630
  795SOL    HW1 4638   6.951   0.578   7.772  1.4482 -0.5105 -0.8839
  795SOL    HW2 4639   7.073   0.652   7.821  0.1927  0.4099  0.9792
  796SOL     OW 4640   9.074   3.988   6.264 -0.1720  0.5805 -0.2325
  796SOL    HW1 4641   9.086   4.009   6.172  1.0221  1.3372  0.0666
  796SOL    HW2 4642   9.038   4.068   6.303  0.0642  0.5329  0.0932
  797SOL     OW 4643   9.765   5.457   6.265 -0.2030  0.4346 -0.1906
  797SOL    HW1 4644   9.697   5.436   6.329 -0.3788 -0.5459 -0.6714
  797SOL    HW2 4645   9.749   5.548   6.241 -0.0239  0.8763  1.2756
  798SOL     OW 4646   7.838   4.824   6.566  0.3356  0.3794  0.0620
  798SOL    HW1 4647   7.804   4.871   6.643 -1.2517 -0.0162 -0.3484
  798SOL    HW2 4648   7.924   4.793   6.593 -0.4868 -0.3857  1.9680
  799SOL     OW 4649   8.609   5.760   8.747 -0.2300  0.2982 -0.2320
  799SOL    HW1 4650   8.665   5.838   8.749 -1.8006  1.4656  1.1468
  799SOL    HW2 4651   8.649   5.704   8.681  1.0741  2.1811 -1.1447
  800SOL     OW 4652   3.927   9.503   0.793 -0.0075  0.2641 -0.0397
  800SOL    HW1 4653   3.974   9.420   0.785  0.6816  0.7224 -1.0554
  800SOL    HW2 4654   3.966   9.558   0.725 -1.2868  1.0239 -0.1780
  801SOL     OW 4655   9.360   9.419   9.855  0.7183 -0.0766  0.8558
  801SOL    HW1 4656   9.293   9.361   9.819 -0.3153 -0.2627  2.9622
  801SOL    HW2 4657   9.428   9.421   9.787  0.1525 -2.5847  0.0999
  802SOL     OW 4658   4.787   0.241   3.967 -0.0681 -0.4683  0.3689
  802SOL    HW1 4659   4.724   0.175   3.996 -1.1453  0.5403  0.3816
  802SOL    HW2 4660   4.837   0.198   3.898 -1.0985 -1.1354  0.0188
  803SOL     OW 4661   2.996   1.333   4.334 -0.7737  0.1713  0.0831
  803SOL    HW1 4662   3.047   1.413   4.353 -1.6013  0.6398  0.3596
  803SOL    HW2 4663   3.040   1.264   4.384 -0.0657  0.4489 -0.1331
  804SOL     OW 4664   5.242   2.572   2.342  0.0972 -0.3130  0.1106
  804SOL    HW1 4665   5.296   2.612   2.274 -0.8177 -0.1897 -0.5656
  804SOL    HW2 4666   5.247   2.633   2.415  2.8501 -1.4944  1.0187
  805SOL     OW 4667   3.882   8.363   6.257 -0.4838  0.1444 -0.5419
  805SOL    HW1 4668   3.974   8.339   6.271 -0.4883  0.5049  0.1715
  805SOL    HW2 4669   3.885   8.451   6.221 -0.5421  0.0443 -0.7914
  806SOL     OW 4670   0.946   5.759   9.770 -0.4528  0.2251  0.2309
  806SOL    HW1 4671   0.931   5.725   9.681  0.4770  2.2816 -0.7862
  806SOL    HW2 4672   1.036   5.734   9.789 -0.0642  1.2664 -0.1587
  807SOL     OW 4673   5.001   7.485   4.565  0.2371  0.5895  0.5482
  807SOL    HW1 4674   4.972   7.479   4.474  1.6388 -1.4560  0.1734
  807SOL    HW2 4675   4.969   7.571   4.594  0.7457  1.8283 -2.2076
  808SOL     OW 4676   6.002   9.699   5.578  0.3993 -0.4595 -0.1260
  808SOL    HW1 4677   5.912   9.720   5.603  0.5303  0.1730 -0.1612
  808SOL    HW2 4678   5.998   9.608   5.548 -0.7438  0.3084 -2.5576
  809SOL     OW 4679   6.926   2.085   2.624  0.2395  0.6168 -0.3015
  809SOL    HW1 4680   7.019   2.064   2.633  0.3983  0.7519 -1.4812
  809SOL    HW2 4681   6.925   2.169   2.577 -0.4764  0.4738 -0.5445
  810SOL     OW 4682   8.919   3.783   0.357 -0.0164 -0.1728 -0.1541
  810SOL    HW1 4683   8.968   3.803   0.437  1.8516 -0.1521 -1.2612
  810SOL    HW2 4684   8.960   3.703   0.324  1.2184  1.3774 -2.6123
  811SOL     OW 4685   4.570   4.293   4.516  0.0950 -0.0488  0.4246
  811SOL    HW1 4686   4.572   4.385   4.490 -1.1100  0.3735  1.7338
  811SOL    HW2 4687   4.657   4.260   4.493  0.0208  0.9678 -1.5528
  812SOL     OW 4688   7.015   2.083   4.620 -0.2134  0.2481  0.1462
  812SOL    HW1 4689   6.929   2.102   4.581 -0.0792  0.0058 -0.2814
  812SOL    HW2 4690   7.074   2.076   4.544  0.1744  0.3669  0.4339
  813SOL     OW 4691   6.212   6.898   5.793 -1.3445  0.8781 -0.2740
  813SOL    HW1 4692   6.185   6.950   5.717  1.8559  0.4722 -1.8479
  813SOL    HW2 4693   6.260   6.959   5.849 -0.8750  0.4681 -0.2195
  814SOL     OW 4694   2.348   8.918   4.520  0.2369 -0.0985 -0.3739
  814SOL    HW1 4695   2.406   8.880   4.586  0.1848 -1.1352 -0.9063
  814SOL    HW2 4696   2.324   9.004   4.556  0.9491 -0.2552  0.5142
  815SOL     OW 4697   7.592   8.912   1.938  0.0386 -0.1475 -0.5612
  815SOL    HW1 4698   7.543   8.993   1.950 -1.8853 -1.2788 -0.5124
  815SOL    HW2 4699   7.589   8.896   1.844  2.2210  0.8523 -0.8810
  816SOL     OW 4700   9.184   2.692   3.205  0.8592 -0.4547  0.3884
  816SOL    HW1 4701   9.196   2.603   3.238  0.2146 -0.3811  0.8411
  816SOL    HW2 4702   9.090   2.709   3.216  1.2204  0.8709  1.8762
  817SOL     OW 4703   7.111   6.879   7.921  0.3937  0.2627  0.2690
  817SOL    HW1 4704   7.017   6.864   7.932  0.1296  0.9179 -0.9458
  817SOL    HW2 4705   7.143   6.800   7.877  0.1253  0.6552 -0.6521
  818SOL     OW 4706   4.486   8.058   8.634  0.3725 -0.2054  0.0789
  818SOL    HW1 4707   4.495   7.992   8.702  2.4287 -0.3729 -0.2985
  818SOL    HW2 4708   4.430   8.126   8.674 -1.1934 -1.7887  0.7113
  819SOL     OW 4709  10.436   2.930   7.869  0.0931  0.1209 -0.2937
  819SOL    HW1 4710  10.423   3.016   7.909  1.5452  0.4876 -0.5691
  819SOL    HW2 4711  10.510   2.941   7.810 -0.6956 -0.9356 -1.5591
  820SOL     OW 4712   1.152   8.298   5.559  0.0847  0.5490 -0.4471
  820SOL    HW1 4713   1.105   8.357   5.617 -0.6579  0.4305 -0.9134
  820SOL    HW2 4714   1.238   8.338   5.549  0.9273 -0.3631  2.2090
  821SOL     OW 4715   9.172   5.027   0.969  0.3887 -0.0298  0.3423
  821SOL    HW1 4716   9.253   5.008   0.922 -0.6375 -2.7587 -0.5044
  821SOL    HW2 4717   9.113   5.063   0.903 -0.1254 -1.2060  0.1235
  822SOL     OW 4718   4.185   1.036   5.330  0.1720 -0.1708  0.1035
  822SOL    HW1 4719   4.254   0.977   5.298  0.4037 -0.1283  0.5267
  822SOL    HW2 4720   4.177   1.015   5.423  0.1419  0.3601  0.2195
  823SOL     OW 4721   9.233   6.253   9.848 -1.0098 -0.0687  0.8918
  823SOL    HW1 4722   9.197   6.221   9.765  0.1140 -1.7592  1.0044
  823SOL    HW2 4723   9.250   6.174   9.899 -1.1749  0.9152  2.5472
  824SOL     OW 4724   6.335   2.505   9.830  0.2088 -0.3574 -0.2008
  824SOL    HW1 4725   6.365   2.480   9.743 -2.1197  1.4469 -1.6545
  824SOL    HW2 4726   6.408   2.552   9.869  1.6644 -2.1104 -0.7136
  825SOL     OW 4727   1.034   1.254   7.398  0.0659  0.8633 -0.1719
  825SOL    HW1 4728   1.114   1.211   7.429 -1.4552 -3.1477 -1.2523
  825SOL    HW2 4729   0.964   1.216   7.450 -1.3708  2.9378 -0.4831
  826SOL     OW 4730   2.918  10.006   1.648 -0.2838  0.2701 -0.2531
  826SOL    HW1 4731   2.833  10.011   1.690 -0.3300  0.8396 -0.4047
  826SOL    HW2 4732   2.898   9.995   1.555 -0.3050  4.1636 -0.8572
  827SOL     OW 4733  10.042   2.890   8.547 -0.0410 -0.1064 -0.6483
  827SOL    HW1 4734   9.980   2.819   8.566 -0.0554 -0.0899 -0.6328
  827SOL    HW2 4735  10.048   2.892   8.452 -0.9958  0.6828 -0.7179
  828SOL     OW 4736   4.324   5.488   1.865 -0.1178 -0.3185 -0.1554
  828SOL    HW1 4737   4.402   5.439   1.838  0.4179 -0.2696  1.2327
  828SOL    HW2 4738   4.305   5.545   1.791  1.2188 -0.2652 -0.4859
  829SOL     OW 4739   3.526   7.417   0.136  0.7503  0.5543  0.4773
  829SOL    HW1 4740   3.485   7.500   0.160  0.8056  0.7839 -0.2235
  829SOL    HW2 4741   3.585   7.438   0.064 -0.3329 -0.3348 -0.7112
  830SOL     OW 4742   7.913  10.175   5.037 -0.2501 -0.3752 -0.5265
  830SOL    HW1 4743   7.936  10.095   5.085 -0.1769  0.4053  0.7804
  830SOL    HW2 4744   7.961  10.245   5.082 -1.7758  0.6767 -0.4652
  831SOL     OW 4745   9.180   1.122   5.832  0.2233  0.3283  0.2402
  831SOL    HW1 4746   9.182   1.027   5.838 -0.0975  0.3544  0.8987
  831SOL    HW2 4747   9.271   1.147   5.818  0.0327 -0.1907 -2.3991
  832SOL     OW 4748   9.629   1.512   8.061 -0.3128 -0.3593 -0.0785
  832SOL    HW1 4749   9.590   1.452   7.998  0.3570 -0.0356 -0.8226
  832SOL    HW2 4750   9.710   1.541   8.019  0.0835 -0.0361  0.8791
  833SOL     OW 4751   3.812   3.845   9.111  0.6615  0.2317  0.3447
  833SOL    HW1 4752   3.813   3.752   9.136  1.1680  0.1047 -0.1282
  833SOL    HW2 4753   3.723   3.874   9.130  1.2505  0.4179  3.2486
  834SOL     OW 4754   3.308   7.114   2.076  0.0918 -0.6149  0.9306
  834SOL    HW1 4755   3.339   7.204   2.088  0.3826 -0.3735 -1.2787
  834SOL    HW2 4756   3.377   7.060   2.113  2.4086 -0.0210 -2.1208
  835SOL     OW 4757  10.552   1.696   6.758  0.6529  0.0188  0.2097
  835SOL    HW1 4758  10.577   1.627   6.698  0.3640  0.7404 -0.7643
  835SOL    HW2 4759  10.456   1.699   6.752  0.6331  0.2153  0.5736
  836SOL     OW 4760   1.396   7.190   3.954  0.2566  0.0551 -0.2809
  836SOL    HW1 4761   1.336   7.247   4.003  0.4479  0.6867 -0.7720
  836SOL    HW2 4762   1.478   7.194   4.003  0.9989  2.0942 -1.5512
  837SOL     OW 4763   1.544   6.202   9.662 -0.8252 -0.1579  0.1574
  837SOL    HW1 4764   1.565   6.215   9.754  0.4460 -2.1418  0.2114
  837SOL    HW2 4765   1.482   6.129   9.662  0.5121 -1.3427 -0.6097
  838SOL     OW 4766   1.581   6.429   2.642  0.1722 -0.0528 -0.5859
  838SOL    HW1 4767   1.525   6.440   2.565 -1.4864  0.7407  0.6567
  838SOL    HW2 4768   1.575   6.513   2.687 -0.4618 -1.0833  1.3708
  839SOL     OW 4769   8.831   3.177   2.328 -0.3516  0.0790 -0.2403
  839SOL    HW1 4770   8.857   3.117   2.397 -0.2065 -1.3499 -1.4925
  839SOL    HW2 4771   8.912   3.222   2.303 -0.6151  1.5342  1.3103
  840SOL     OW 4772   0.543   1.120  10.420 -0.1276  0.3277  0.3367
  840SOL    HW1 4773   0.597   1.194  10.395  0.6342  0.1083  1.2916
  840SOL    HW2 4774   0.559   1.108  10.513 -0.5676 -0.7735  0.2912
  841SOL     OW 4775   7.207   5.271   4.781  0.1951  0.7062 -0.5366
  841SOL    HW1 4776   7.193   5.233   4.694  0.3950  1.4094 -0.8824
  841SOL    HW2 4777   7.119   5.287   4.814  0.0624 -1.1490  0.1226
  842SOL     OW 4778   3.190   5.476   4.890  0.3648  0.5999  0.3495
  842SOL    HW1 4779   3.154   5.425   4.963  0.7476  0.3000  0.3275
  842SOL    HW2 4780   3.193   5.566   4.924  1.5467  0.3062  1.1033
  843SOL     OW 4781   0.464   0.560   5.771  0.0655  0.5857  0.2511
  843SOL    HW1 4782   0.381   0.515   5.785  0.6689 -0.3411  0.9462
  843SOL    HW2 4783   0.505   0.564   5.857  1.6718 -0.8786 -0.3705
  844SOL     OW 4784   5.009   6.507   8.439  0.8531 -0.5482 -0.1352
  844SOL    HW1 4785   5.069   6.438   8.465  1.3800  0.2116  0.7154
  844SOL    HW2 4786   5.041   6.536   8.354  0.9718 -0.9540 -0.2324
  845SOL     OW 4787   3.059   2.073   4.411 -0.3944  0.0885 -0.1717
  845SOL    HW1 4788   3.032   2.147   4.355 -0.2581  1.5626  1.6065
  845SOL    HW2 4789   3.136   2.105   4.457 -2.5058  0.4002  3.5180
  846SOL     OW 4790  10.630   5.914   0.658 -0.1368  0.2666  0.2841
  846SOL    HW1 4791  10.609   5.830   0.618 -0.0866  0.2305  0.3328
  846SOL    HW2 4792  10.711   5.898   0.706  0.1122  0.4574 -0.0694
  847SOL     OW 4793  10.342   9.597   9.031  0.1632  0.3136  0.3834
  847SOL    HW1 4794  10.429   9.634   9.045 -0.0455  0.9481  0.0381
  847SOL    HW2 4795  10.318   9.625   8.943  0.7107 -2.0897 -0.6191
  848SOL     OW 4796   3.330   6.333   5.670 -0.5924  0.6971  0.2417
  848SOL    HW1 4797   3.284   6.327   5.587 -0.6282 -1.1495  0.3341
  848SOL    HW2 4798   3.420   6.308   5.649 -0.3779  1.1696  0.5929
  849SOL     OW 4799  10.612   3.152   8.680  0.3017 -0.2866  0.6473
  849SOL    HW1 4800  10.525   3.129   8.713 -0.2967  0.2682 -0.4981
  849SOL    HW2 4801  10.653   3.201   8.752 -0.4798 -0.2117  1.0495
  850SOL     OW 4802   7.275   9.778   5.505  0.0191  0.2491 -0.1673
  850SOL    HW1 4803   7.180   9.768   5.503  0.1665 -1.2676 -1.1025
  850SOL    HW2 4804   7.306   9.701   5.552  0.8689 -0.1772 -1.3718
  851SOL     OW 4805   4.703   9.912  10.288  0.0345 -0.1297 -0.0852
  851SOL    HW1 4806   4.674   9.981  10.228 -1.2551  0.9515  1.7049
  851SOL    HW2 4807   4.746   9.959  10.359  0.5983 -1.3051  0.3745
  852SOL     OW 4808   2.683   5.751   2.635  0.5538  0.0236 -0.4222
  852SOL    HW1 4809   2.731   5.710   2.563  1.2924  0.0721  0.0255
  852SOL    HW2 4810   2.685   5.686   2.706 -1.8455 -0.8109 -1.0589
  853SOL     OW 4811   4.569   7.492   1.515  0.3168  0.3116 -0.2690
  853SOL    HW1 4812   4.623   7.455   1.585 -0.7142 -0.0415  0.3653
  853SOL    HW2 4813   4.518   7.560   1.559  2.7048  3.1828 -1.5285
  854SOL     OW 4814  10.411  10.553   7.050  0.4330  0.3863 -0.1832
  854SOL    HW1 4815  10.440  10.633   7.006  0.7072  0.6065  0.3883
  854SOL    HW2 4816  10.380  10.583   7.136 -1.4532  0.1604 -0.7367
  855SOL     OW 4817   0.780   4.598   0.132 -0.4239  0.1023 -1.1102
  855SOL    HW1 4818   0.865   4.584   0.174  0.0973  1.2008 -1.7453
  855SOL    HW2 4819   0.722   4.626   0.203 -0.0075  0.2354 -0.8189
  856SOL     OW 4820   1.469   5.347   4.740  0.0065 -0.1918  0.6295
  856SOL    HW1 4821   1.445   5.390   4.657 -1.7100 -1.5015  0.4014
  856SOL    HW2 4822   1.560   5.372   4.754  0.8633 -1.0960 -2.4548
  857SOL     OW 4823   3.079   0.572   8.588 -0.7026  0.0271  0.3704
  857SOL    HW1 4824   3.045   0.612   8.509  2.0690  2.4687  0.2515
  857SOL    HW2 4825   3.024   0.605   8.658 -1.2263  0.3832 -0.2040
  858SOL     OW 4826   0.491   9.411   4.140 -0.1726  0.4784  0.1607
  858SOL    HW1 4827   0.493   9.477   4.070 -1.9038 -0.1056 -0.5048
  858SOL    HW2 4828   0.412   9.431   4.189  0.7448  0.5386  1.6644
  859SOL     OW 4829   2.006   0.022   8.775 -0.5700  0.0530  0.2462
  859SOL    HW1 4830   2.025  -0.055   8.722  0.1562 -1.3560  2.4449
  859SOL    HW2 4831   1.916   0.045   8.751  0.4089  0.9613 -3.2254
  860SOL     OW 4832   9.510   9.626   0.737 -0.4375  0.7520 -0.0024
  860SOL    HW1 4833   9.477   9.661   0.654 -1.2900 -1.4454 -0.6669
  860SOL    HW2 4834   9.432   9.600   0.785  0.1370 -0.3568  0.3701
  861SOL     OW 4835   4.807   8.331   8.238 -0.0507 -0.2252  0.1445
  861SOL    HW1 4836   4.897   8.303   8.256 -0.5695 -1.7212  0.5665
  861SOL    HW2 4837   4.753   8.274   8.293 -1.2526  0.9215  0.2087
  862SOL     OW 4838   9.938   5.641   4.029  0.1891 -0.0476  0.0117
  862SOL    HW1 4839   9.938   5.673   3.938  1.2877 -1.3815 -0.5001
  862SOL    HW2 4840   9.883   5.563   4.026 -0.6561  0.5108  0.7468
  863SOL     OW 4841   6.939   0.454   9.354  0.4957 -0.4203  0.3814
  863SOL    HW1 4842   7.026   0.446   9.314 -0.2737 -0.9067 -1.2692
  863SOL    HW2 4843   6.932   0.377   9.411 -0.1228 -2.3610 -2.1263
  864SOL     OW 4844   1.194   7.665   5.220  0.3468 -0.3577  0.0832
  864SOL    HW1 4845   1.144   7.698   5.295  1.0294  0.8991  0.0091
  864SOL    HW2 4846   1.176   7.728   5.150  0.3201 -1.1024 -0.5900
  865SOL     OW 4847   7.294   4.452   9.404 -0.6062  0.0833 -0.1282
  865SOL    HW1 4848   7.264   4.515   9.470  1.2269  0.2904  0.5611
  865SOL    HW2 4849   7.364   4.497   9.358  0.3258 -1.2234 -0.0371
  866SOL     OW 4850   0.720   0.935   6.344  0.5027  0.6164  0.0461
  866SOL    HW1 4851   0.810   0.960   6.361  0.7008 -0.4167  0.5823
  866SOL    HW2 4852   0.674   1.018   6.329  0.9889  1.3689  2.3674
  867SOL     OW 4853  10.217   3.724   4.934  0.3136  0.3430 -0.4364
  867SOL    HW1 4854  10.241   3.658   4.999 -0.6307  1.1340  0.7513
  867SOL    HW2 4855  10.136   3.691   4.896  1.7063 -0.9511 -2.4718
  868SOL     OW 4856  10.615   6.279   3.209  0.0824  0.2823 -1.2169
  868SOL    HW1 4857  10.691   6.275   3.151 -0.2377 -1.6632 -1.5792
  868SOL    HW2 4858  10.603   6.189   3.239 -0.9773  0.8880  0.3003
  869SOL     OW 4859   9.455   1.175   3.393  0.1666  0.1753  0.0621
  869SOL    HW1 4860   9.515   1.115   3.348  0.6110  1.7407 -1.5163
  869SOL    HW2 4861   9.445   1.249   3.333 -2.3062  0.5874  0.8877
  870SOL     OW 4862   0.492   1.581   6.072 -0.7266 -0.3691 -0.0619
  870SOL    HW1 4863   0.539   1.524   6.010  0.5164  1.1515 -0.5938
  870SOL    HW2 4864   0.438   1.637   6.017 -1.0209 -0.2211  0.3738
  871SOL     OW 4865   1.665   9.138   2.589  0.0694 -0.0032  0.3965
  871SOL    HW1 4866   1.618   9.140   2.673  3.0929  1.4170  2.2285
  871SOL    HW2 4867   1.691   9.046   2.579 -0.9046 -0.3181  0.6042
  872SOL     OW 4868   5.923   4.633   7.425 -0.2736 -0.1324 -0.0744
  872SOL    HW1 4869   5.884   4.555   7.466 -0.8685 -0.2023 -0.7533
  872SOL    HW2 4870   5.964   4.680   7.497 -0.2238 -0.8936  0.4036
  873SOL     OW 4871   1.515   6.860  10.067  0.3276 -0.1572  0.3129
  873SOL    HW1 4872   1.489   6.771  10.090  1.5144 -0.4219  0.7159
  873SOL    HW2 4873   1.589   6.879  10.125  1.1402  0.4845 -0.8882
  874SOL     OW 4874   1.746   0.247   7.076 -0.2491  0.6691  0.1613
  874SOL    HW1 4875   1.831   0.231   7.034  0.2081  0.1049  1.2729
  874SOL    HW2 4876   1.683   0.235   7.005  0.3849 -1.8522 -0.0545
  875SOL     OW 4877   1.270   6.510   8.114 -0.6035  0.1585  0.2364
  875SOL    HW1 4878   1.328   6.453   8.063  0.7810  1.2859  0.4704
  875SOL    HW2 4879   1.195   6.455   8.135  0.6764 -1.5987  0.4697
  876SOL     OW 4880   3.301   7.076   0.143 -0.3766 -0.3571 -0.0900
  876SOL    HW1 4881   3.309   7.032   0.228 -0.5911  0.9114  0.6155
  876SOL    HW2 4882   3.347   7.159   0.155  1.6482 -1.1166 -1.9647
  877SOL     OW 4883   1.636   4.144   1.054 -0.4779  0.1366  0.1501
  877SOL    HW1 4884   1.679   4.074   1.103  0.9297  0.3063 -0.7782
  877SOL    HW2 4885   1.628   4.216   1.116 -0.3740 -0.2582  0.6249
  878SOL     OW 4886   8.238   0.264   4.988 -0.0451  0.4451 -0.0503
  878SOL    HW1 4887   8.145   0.242   4.981  0.0964 -0.4972  0.7762
  878SOL    HW2 4888   8.257   0.315   4.910 -1.3468  0.9655 -0.0435
  879SOL     OW 4889   9.478   1.149   3.916 -0.1411 -0.7625  0.5640
  879SOL    HW1 4890   9.478   1.158   4.012  1.5444 -0.9668  0.6236
  879SOL    HW2 4891   9.492   1.055   3.901  0.1072 -0.6592  0.1312
  880SOL     OW 4892   3.198   2.225   2.482 -0.0802 -0.1898 -0.2557
  880SOL    HW1 4893   3.236   2.142   2.510  1.1866  0.8481  1.3027
  880SOL    HW2 4894   3.111   2.227   2.520 -0.8500 -1.5414 -1.8179
  881SOL     OW 4895   6.594   7.001   8.533  0.1389  0.1525 -0.2540
  881SOL    HW1 4896   6.665   6.938   8.523 -1.0008 -0.9122 -2.7488
  881SOL    HW2 4897   6.625   7.080   8.488  0.2371  0.1203 -0.2418
  882SOL     OW 4898   2.246  10.188  10.637 -0.1420  0.2337 -0.0828
  882SOL    HW1 4899   2.306  10.118  10.660 -1.6695 -1.0575  0.1211
  882SOL    HW2 4900   2.300  10.252  10.590  1.6568 -0.1867  1.3195
  883SOL     OW 4901   9.560   2.758   6.807 -0.3544 -0.4118  0.0242
  883SOL    HW1 4902   9.531   2.833   6.859 -0.5741 -1.6122  1.7344
  883SOL    HW2 4903   9.479   2.709   6.790  0.0158 -1.2158  0.5428
  884SOL     OW 4904   2.427   7.552   7.324 -0.2289 -0.0350 -0.1088
  884SOL    HW1 4905   2.504   7.517   7.370 -0.7604  0.5606  1.3128
  884SOL    HW2 4906   2.462   7.621   7.268  0.0817  2.1422  2.5430
  885SOL     OW 4907   0.563   2.028   9.828 -0.0896 -0.2765  0.0046
  885SOL    HW1 4908   0.593   2.098   9.771 -0.5697  0.6929  0.8995
  885SOL    HW2 4909   0.529   2.073   9.906 -2.0528 -1.3845 -0.1288
  886SOL     OW 4910   8.221   0.288   2.290 -0.2805 -0.0481 -0.2821
  886SOL    HW1 4911   8.156   0.352   2.261 -1.1350 -0.1710  1.2610
  886SOL    HW2 4912   8.183   0.249   2.369  1.9927  0.4492  1.1666
  887SOL     OW 4913   4.166   4.250  10.104 -0.0219 -0.1515  0.4872
  887SOL    HW1 4914   4.222   4.268  10.180 -1.2643 -1.4000  1.7774
  887SOL    HW2 4915   4.102   4.320  10.104  0.4017  0.2415  0.1452
  888SOL     OW 4916   9.972   5.508   6.988 -0.4972 -0.1081  0.3650
  888SOL    HW1 4917  10.036   5.485   7.055  0.5077  0.4870 -0.3543
  888SOL    HW2 4918   9.936   5.424   6.960 -1.2582 -0.3372  1.9248
  889SOL     OW 4919   9.478   1.386   5.406 -0.1573 -0.1159 -0.4497
  889SOL    HW1 4920   9.475   1.386   5.502 -2.0429  2.6649 -0.4069
  889SOL    HW2 4921   9.555   1.333   5.385 -0.2323 -1.6210  2.5331
  890SOL     OW 4922   9.872   8.714   2.004  0.1298  0.4784 -0.6210
  890SOL    HW1 4923   9.963   8.693   2.024  0.1786  1.5639  0.4191
  890SOL    HW2 4924   9.823   8.637   2.032  0.6054  0.4013  0.0272
  891SOL     OW 4925   1.203   2.632   8.764 -0.2305 -0.5215 -0.1776
  891SOL    HW1 4926   1.221   2.583   8.844  0.1362 -0.2217 -0.0698
  891SOL    HW2 4927   1.173   2.718   8.795 -1.8182 -0.9767 -0.3540
  892SOL     OW 4928   0.141   3.037   9.826  0.5640 -0.1740 -0.0229
  892SOL    HW1 4929   0.147   3.133   9.830 -0.6335 -0.1157  0.8180
  892SOL    HW2 4930   0.178   3.007   9.909  0.2982 -0.3972  0.0170
  893SOL     OW 4931   4.916   3.681   1.132  0.3801 -0.0755 -0.1120
  893SOL    HW1 4932   4.890   3.598   1.092 -0.8960  0.7817 -1.1473
  893SOL    HW2 4933   4.841   3.739   1.117  1.2649  1.2858  0.5460
  894SOL     OW 4934   9.950   0.330   3.133 -0.3790 -0.0893  0.4698
  894SOL    HW1 4935   9.926   0.245   3.096  0.5312  0.0181 -0.4003
  894SOL    HW2 4936   9.872   0.358   3.181 -0.9251 -1.1020  0.2063
  895SOL     OW 4937   0.584   8.831   9.742  0.1701 -0.0495  0.0662
  895SOL    HW1 4938   0.634   8.754   9.768  1.3400  0.1082 -1.5493
  895SOL    HW2 4939   0.501   8.823   9.790  1.7771 -0.1888  2.9848
  896SOL     OW 4940   6.289   0.868   7.796  0.3741 -0.1298 -0.0359
  896SOL    HW1 4941   6.329   0.808   7.733  0.3383 -0.5735  0.3569
  896SOL    HW2 4942   6.353   0.939   7.805  0.9451 -0.6763  0.3482
  897SOL     OW 4943  10.346   6.209   4.195 -0.6832 -0.5762  0.0896
  897SOL    HW1 4944  10.397   6.131   4.171 -2.0216 -1.7916  1.0047
  897SOL    HW2 4945  10.264   6.200   4.146 -0.7722  0.3908  0.0353
  898SOL     OW 4946   0.913   6.760   0.887 -0.4205 -0.1380  0.1120
  898SOL    HW1 4947   0.913   6.846   0.846 -2.4077 -0.7179 -1.3064
  898SOL    HW2 4948   1.004   6.730   0.883 -0.0595  1.0691 -1.2143
  899SOL     OW 4949   4.307   9.972   1.177 -0.1093  0.3159 -0.0336
  899SOL    HW1 4950   4.275  10.030   1.109 -0.3779 -0.4551 -0.5845
  899SOL    HW2 4951   4.228   9.946   1.225 -0.0228  0.2252  0.0598
  900SOL     OW 4952   0.558   4.153   0.519  0.0214 -0.3459 -0.3191
  900SOL    HW1 4953   0.486   4.093   0.499 -0.3500 -0.6402  1.6878
  900SOL    HW2 4954   0.602   4.114   0.595  0.8788  0.9970 -0.0846
  901SOL     OW 4955   8.791   9.130  10.143 -0.6254  0.1159 -0.2126
  901SOL    HW1 4956   8.767   9.113  10.234  0.1164 -0.3130 -0.0863
  901SOL    HW2 4957   8.746   9.062  10.093 -2.2104  1.2154 -0.3489
  902SOL     OW 4958   4.849   8.527   4.227 -0.3329  0.0527 -0.5971
  902SOL    HW1 4959   4.925   8.487   4.185 -0.1787 -1.1082  0.7272
  902SOL    HW2 4960   4.819   8.462   4.291 -0.0831  2.0147  1.6678
  903SOL     OW 4961   7.816   0.935   3.802 -0.2815 -0.3356 -0.2423
  903SOL    HW1 4962   7.852   1.023   3.800 -0.3347 -0.3208 -0.4868
  903SOL    HW2 4963   7.723   0.947   3.817 -0.4899 -0.2995 -1.4756
  904SOL     OW 4964   4.792   7.472   3.323  0.1687  0.0306 -0.5012
  904SOL    HW1 4965   4.876   7.501   3.359 -0.4620 -0.0681  1.1611
  904SOL    HW2 4966   4.742   7.553   3.311  1.1214  0.3031 -3.3765
  905SOL     OW 4967   0.490   8.982   3.012  0.1298  0.3475 -0.2177
  905SOL    HW1 4968   0.568   8.965   2.959  1.0306 -0.7507  1.3588
  905SOL    HW2 4969   0.427   9.018   2.951  1.4848  0.1831 -1.7938
  906SOL     OW 4970   7.374   5.982  10.280 -0.9877 -0.1457  0.0980
  906SOL    HW1 4971   7.356   6.076  10.270  0.7185  0.4851  2.2544
  906SOL    HW2 4972   7.321   5.941  10.212 -1.0120  2.4378 -1.6030
  907SOL     OW 4973   1.354   6.768   8.633 -0.5974  0.3014  0.1363
  907SOL    HW1 4974   1.437   6.721   8.639 -1.1262 -0.5918  0.7818
  907SOL    HW2 4975   1.344   6.789   8.540 -0.2391 -0.6747 -0.1312
  908SOL     OW 4976   7.884   4.025   3.419 -0.1026  0.3167 -0.0053
  908SOL    HW1 4977   7.955   4.044   3.357  1.2911  1.1879  1.7745
  908SOL    HW2 4978   7.834   4.106   3.425 -0.3644  0.1662 -0.1591
  909SOL     OW 4979   3.146   5.283   6.323 -0.2603  0.1420  0.1530
  909SOL    HW1 4980   3.086   5.358   6.320  0.2116  0.5184  0.0790
  909SOL    HW2 4981   3.149   5.251   6.233  0.3946  0.7169 -0.0326
  910SOL     OW 4982   5.187   8.510   0.425 -0.8460 -0.1598  0.0685
  910SOL    HW1 4983   5.139   8.590   0.404 -2.1842 -0.8020  0.5843
  910SOL    HW2 4984   5.269   8.518   0.375 -2.2761  0.1143 -2.4014
  911SOL     OW 4985   6.765   0.039   8.864  0.2381  0.7192  0.3432
  911SOL    HW1 4986   6.706   0.114   8.856 -0.2763  0.4206  1.2841
  911SOL    HW2 4987   6.780   0.030   8.958  0.4225 -0.2707  0.2253
  912SOL     OW 4988   2.299   2.633   7.370 -0.0241  0.0017 -0.0682
  912SOL    HW1 4989   2.322   2.551   7.328 -1.2763 -0.4573  0.0897
  912SOL    HW2 4990   2.262   2.607   7.455  0.5253  0.7839  0.4233
  913SOL     OW 4991   8.931   8.776   1.805  0.0294  0.2316 -0.2693
  913SOL    HW1 4992   8.887   8.722   1.871  1.2894 -3.4906 -2.1789
  913SOL    HW2 4993   8.878   8.764   1.726  2.3891 -1.5155 -1.7128
  914SOL     OW 4994   6.321   9.521   9.095  0.2302  0.7538  0.0934
  914SOL    HW1 4995   6.300   9.593   9.155  0.9293  1.8356 -0.8957
  914SOL    HW2 4996   6.307   9.558   9.008  2.2788  0.2967 -0.4937
  915SOL     OW 4997   4.674   7.430   4.033  0.1010 -0.7787 -0.6185
  915SOL    HW1 4998   4.756   7.466   3.999 -0.5536  0.8511 -0.5571
  915SOL    HW2 4999   4.606   7.486   3.995 -0.9657 -1.8602 -0.3582
  916SOL     OW 5000   2.189   4.231   4.343  0.1802  0.1701  0.0450
  916SOL    HW1 5001   2.146   4.174   4.406  3.2827 -0.5594  1.7107
  916SOL    HW2 5002   2.179   4.319   4.380  0.0198  0.0268  0.3447
  917SOL     OW 5003   1.151   2.701   2.150 -0.4986 -0.9403 -0.4786
  917SOL    HW1 5004   1.194   2.743   2.224 -2.0812  0.1166 -0.1123
  917SOL    HW2 5005   1.222   2.659   2.101  0.7194 -0.5871  0.9384
  918SOL     OW 5006   4.358   0.922   4.594 -0.3442 -0.8175 -0.0586
  918SOL    HW1 5007   4.306   0.909   4.515 -2.0413 -1.6252  1.1393
  918SOL    HW2 5008   4.373   0.834   4.628  0.2085 -0.4708  0.6394
  919SOL     OW 5009   5.938   4.136   1.605  0.5921 -0.2313 -0.0365
  919SOL    HW1 5010   5.903   4.164   1.689 -0.8671 -0.2610 -0.5978
  919SOL    HW2 5011   6.007   4.074   1.627  0.8444  0.4315  1.1390
  920SOL     OW 5012   4.485   6.626   4.271 -0.2938  0.1081 -0.5074
  920SOL    HW1 5013   4.524   6.677   4.200 -1.1309 -1.1454 -1.9061
  920SOL    HW2 5014   4.560   6.600   4.325  0.4317  0.5538 -1.2752
  921SOL     OW 5015   4.446   1.784   0.762 -0.1528  0.1051 -0.0626
  921SOL    HW1 5016   4.530   1.806   0.721  0.1614 -1.1028 -0.0892
  921SOL    HW2 5017   4.433   1.692   0.742 -0.9912  0.0180  0.8263
  922SOL     OW 5018   1.207   0.849   6.772 -0.4631 -0.2879 -0.0039
  922SOL    HW1 5019   1.270   0.802   6.718 -0.1892 -3.1124  2.5143
  922SOL    HW2 5020   1.259   0.916   6.817 -0.0165 -0.2410 -0.5816
  923SOL     OW 5021   5.140   2.524   0.369  0.0424  0.3312 -0.4960
  923SOL    HW1 5022   5.069   2.505   0.308  0.1197 -1.5122 -0.0921
  923SOL    HW2 5023   5.098   2.531   0.454  0.1860  0.6389 -0.4490
  924SOL     OW 5024   1.922   2.474   9.557 -0.0564 -0.2902 -0.1395
  924SOL    HW1 5025   1.867   2.539   9.512 -1.5545 -0.4400  1.3808
  924SOL    HW2 5026   2.011   2.501   9.537 -0.6598  1.0330 -1.2334
  925SOL     OW 5027   6.672   5.341   6.292  0.1090 -0.7662 -0.0507
  925SOL    HW1 5028   6.714   5.257   6.273 -1.5128 -1.0005 -3.2219
  925SOL    HW2 5029   6.587   5.317   6.329 -0.3463 -0.5727 -0.9364
  926SOL     OW 5030   5.099   8.703  10.438 -0.3485  0.0505  0.7754
  926SOL    HW1 5031   5.128   8.718  10.348  1.8644  0.3053  1.4707
  926SOL    HW2 5032   5.064   8.787  10.466  1.1420  0.6711  0.8728
  927SOL     OW 5033   1.007   2.920   8.278 -0.0155  0.2098  0.0345
  927SOL    HW1 5034   1.080   2.883   8.229 -0.0439 -0.0890  0.2125
  927SOL    HW2 5035   1.011   2.877   8.363  0.2437  0.9843  0.4190
  928SOL     OW 5036   0.485   2.719   5.840 -0.1882  0.2424  0.6358
  928SOL    HW1 5037   0.530   2.640   5.870 -1.3117 -0.4781  0.4745
  928SOL    HW2 5038   0.555   2.777   5.812  0.6790 -0.5475  1.1119
  929SOL     OW 5039   8.925   3.384   7.494  0.3296  0.3325 -0.1492
  929SOL    HW1 5040   8.915   3.289   7.504 -1.1239  0.5750  1.0611
  929SOL    HW2 5041   9.018   3.400   7.509  0.7326 -0.9574 -1.0765
  930SOL     OW 5042   0.838   8.326   8.120 -0.1929 -0.6922 -0.2529
  930SOL    HW1 5043   0.760   8.345   8.173  0.1158 -0.2136  0.0399
  930SOL    HW2 5044   0.850   8.232   8.128 -0.2797 -0.6545  0.3526
  931SOL     OW 5045   5.556   5.090   0.016  0.5339  0.0557 -0.3102
  931SOL    HW1 5046   5.496   5.047  -0.046  0.9606 -0.4721 -0.3723
  931SOL    HW2 5047   5.501   5.115   0.090  0.1854 -0.1621 -0.4937
  932SOL     OW 5048   7.986   8.263   2.111  0.3941 -1.0836  0.0629
  932SOL    HW1 5049   7.996   8.232   2.201 -1.0575  1.6666  1.3283
  932SOL    HW2 5050   8.067   8.311   2.094 -0.8260  1.7785  1.5625
  933SOL     OW 5051   9.828   7.091   0.698  0.7079 -0.0940 -0.1466
  933SOL    HW1 5052   9.793   7.175   0.724 -0.0539 -1.0272  2.0204
  933SOL    HW2 5053   9.784   7.027   0.754  0.2275 -2.1182 -2.6273
  934SOL     OW 5054  10.163   2.903   4.609 -0.1708  0.0590  0.7633
  934SOL    HW1 5055  10.101   2.866   4.546 -0.5043  2.7235 -0.6331
  934SOL    HW2 5056  10.247   2.864   4.586 -0.5235 -0.0026 -0.5068
  935SOL     OW 5057   0.289   6.237   0.758  0.0761  0.0017  0.3659
  935SOL    HW1 5058   0.211   6.290   0.773  1.0958  1.8171 -0.4109
  935SOL    HW2 5059   0.361   6.291   0.790  1.0218 -1.6731  1.1500
  936SOL     OW 5060   9.985   6.498   2.190  0.1523  0.0540  0.3950
  936SOL    HW1 5061   9.912   6.457   2.144 -0.4985  1.8790 -0.2963
  936SOL    HW2 5062   9.946   6.576   2.230  1.8389  1.4548 -0.5755
  937SOL     OW 5063   0.177   2.916   4.524 -0.5565  0.6197  0.3434
  937SOL    HW1 5064   0.160   2.824   4.543 -0.8751  0.2223 -1.6321
  937SOL    HW2 5065   0.093   2.950   4.493  0.2956  0.6475 -2.1712
  938SOL     OW 5066   7.968   5.589   2.825  0.3049 -0.1603  0.3262
  938SOL    HW1 5067   7.990   5.679   2.846  2.1491 -0.7304  1.0741
  938SOL    HW2 5068   8.020   5.569   2.747 -0.4232 -0.4726 -0.0972
  939SOL     OW 5069   3.557   6.124   4.325  0.2109 -0.4911 -0.5486
  939SOL    HW1 5070   3.495   6.186   4.286  0.8553 -0.4275 -1.4894
  939SOL    HW2 5071   3.632   6.178   4.349  0.2137 -0.6918 -0.1038
  940SOL     OW 5072  10.130   9.439  10.422 -0.2692  0.0725 -0.0934
  940SOL    HW1 5073  10.056   9.416  10.478 -0.1344 -1.1768 -0.3945
  940SOL    HW2 5074  10.093   9.498  10.357 -0.3673  1.7943  1.4555
  941SOL     OW 5075   0.311   1.051   7.845  0.3908 -0.0989  0.0079
  941SOL    HW1 5076   0.230   1.023   7.804  1.1628 -3.0813  0.2238
  941SOL    HW2 5077   0.378   1.041   7.777  0.5842  2.8492 -0.3410
  942SOL     OW 5078   7.630   3.584   6.811 -0.4510 -0.1697 -0.1192
  942SOL    HW1 5079   7.559   3.522   6.792 -1.7061  0.9172  0.8634
  942SOL    HW2 5080   7.668   3.553   6.893 -0.1032 -0.4679 -0.3895
  943SOL     OW 5081  10.622   9.626   8.729  0.5258  0.2158 -0.3068
  943SOL    HW1 5082  10.626   9.656   8.638 -1.6431  1.1799 -0.1386
  943SOL    HW2 5083  10.529   9.626   8.750  0.7388 -2.5598  1.1070
  944SOL     OW 5084   4.721   4.043   6.477  0.0316 -0.2900  0.1933
  944SOL    HW1 5085   4.769   4.125   6.493  1.1242 -0.7284 -0.7367
  944SOL    HW2 5086   4.629   4.068   6.484  0.3558  0.9032  0.4794
  945SOL     OW 5087  10.489   2.978   2.468 -0.6868 -0.2355  0.0073
  945SOL    HW1 5088  10.573   3.006   2.505 -1.3188  0.4790  0.9252
  945SOL    HW2 5089  10.509   2.958   2.376  0.4629  0.0306  0.1861
  946SOL     OW 5090   3.089   0.032  10.124  0.3227  0.1593 -0.3536
  946SOL    HW1 5091   3.134   0.017  10.207  0.6163  2.8440  0.0638
  946SOL    HW2 5092   3.158   0.030  10.058  0.4188  0.2026 -0.2536
  947SOL     OW 5093   0.507   2.289   0.914  0.3551 -0.5221 -0.1264
  947SOL    HW1 5094   0.415   2.309   0.932  0.8774  1.7785  0.3726
  947SOL    HW2 5095   0.507   2.249   0.827 -1.1216 -0.8144 -0.0189
  948SOL     OW 5096   3.300   7.710   7.825  0.7940 -0.3219 -0.0241
  948SOL    HW1 5097   3.339   7.639   7.773  0.4925  1.0101 -2.1889
  948SOL    HW2 5098   3.353   7.713   7.905  1.6992 -2.0498 -0.5091
  949SOL     OW 5099   7.769   5.941   3.654  0.3015  0.3872 -0.2265
  949SOL    HW1 5100   7.767   5.913   3.562 -3.4239 -1.8190  0.3229
  949SOL    HW2 5101   7.754   6.035   3.650 -2.4261 -0.0100 -1.9472
  950SOL     OW 5102   9.287   1.818   6.179  0.5177  0.1961  0.2281
  950SOL    HW1 5103   9.264   1.902   6.219 -0.0126  0.0641  0.2083
  950SOL    HW2 5104   9.245   1.820   6.093  1.4164  0.3597 -0.2151
  951SOL     OW 5105   8.056   3.080   0.956  0.1214  0.4068 -0.5490
  951SOL    HW1 5106   8.083   2.992   0.932  0.0449 -0.1744  1.3648
  951SOL    HW2 5107   8.126   3.112   1.012 -0.5204  1.0332 -0.0917
  952SOL     OW 5108   1.891   2.090   9.823  0.0301  0.4495  0.5481
  952SOL    HW1 5109   1.959   2.044   9.773  0.9173  1.6040  0.6424
  952SOL    HW2 5110   1.903   2.182   9.800 -2.3408  0.5952 -0.3951
  953SOL     OW 5111   5.882   3.482   8.506 -0.7663  0.0179 -0.4358
  953SOL    HW1 5112   5.861   3.504   8.597 -0.6036 -0.2286 -0.3360
  953SOL    HW2 5113   5.879   3.386   8.504 -0.0118 -0.0051 -0.5031
  954SOL     OW 5114   5.780   4.953   4.519 -0.1766 -0.4143 -0.1930
  954SOL    HW1 5115   5.821   4.958   4.432  1.1592 -0.0384  0.4362
  954SOL    HW2 5116   5.797   5.038   4.558  1.6267 -1.4568  1.4573
  955SOL     OW 5117   4.418   2.911   1.449  0.0645 -0.1468 -0.2629
  955SOL    HW1 5118   4.463   2.980   1.400 -2.0274  0.7579 -1.0409
  955SOL    HW2 5119   4.386   2.955   1.528  0.5336 -0.7920  0.3055
  956SOL     OW 5120   4.583   2.653   8.027 -0.8134  0.3889 -0.4806
  956SOL    HW1 5121   4.670   2.641   8.064 -0.8926  1.0154 -0.0764
  956SOL    HW2 5122   4.586   2.739   7.985 -1.2508  0.4369 -0.4198
  957SOL     OW 5123   9.804   4.379   0.359 -0.2437  0.2504  0.0065
  957SOL    HW1 5124   9.868   4.312   0.338 -0.3678 -0.2438  1.1144
  957SOL    HW2 5125   9.774   4.412   0.274 -0.1394 -1.0583 -0.5597
  958SOL     OW 5126   6.657   7.883   7.452  0.3612 -0.1741  0.7261
  958SOL    HW1 5127   6.669   7.955   7.514 -1.1460 -0.5128  1.4569
  958SOL    HW2 5128   6.605   7.919   7.381 -0.6422 -0.5636  1.2294
  959SOL     OW 5129   6.966   3.964   5.261  0.5847  0.0240 -0.0801
  959SOL    HW1 5130   6.969   3.880   5.215 -0.7273  0.5828 -1.2734
  959SOL    HW2 5131   7.051   4.005   5.241  1.4966 -1.2433  1.0424
  960SOL     OW 5132   3.776   3.644   3.166 -0.4083  0.2255  0.6423
  960SOL    HW1 5133   3.792   3.679   3.253  0.7011  0.2905  0.4216
  960SOL    HW2 5134   3.847   3.679   3.112 -0.9330 -0.0198 -0.2312
  961SOL     OW 5135   8.643   0.484   3.093  0.1227  0.6658 -0.2667
  961SOL    HW1 5136   8.727   0.527   3.082 -0.0029  1.7629  2.3838
  961SOL    HW2 5137   8.580   0.555   3.099 -0.6562 -0.0426  0.1232
  962SOL     OW 5138   7.205   8.884   9.107  0.2617  0.1160 -0.1984
  962SOL    HW1 5139   7.268   8.848   9.044  0.5905  2.1499 -1.1264
  962SOL    HW2 5140   7.254   8.891   9.189  0.1808 -1.4659  0.0197
  963SOL     OW 5141   5.536   0.088   8.420 -0.1196  0.3345  0.0169
  963SOL    HW1 5142   5.581   0.008   8.449 -0.5795 -0.8385 -2.3081
  963SOL    HW2 5143   5.443   0.068   8.429 -0.2382  0.9910  0.3236
  964SOL     OW 5144   0.514   4.231   6.157  0.0926  0.1657 -0.2061
  964SOL    HW1 5145   0.442   4.181   6.119 -0.0703  0.8634 -0.8356
  964SOL    HW2 5146   0.544   4.178   6.231 -1.4914  0.1460  0.4739
  965SOL     OW 5147   1.871   2.220   9.484  0.0333 -0.0595 -0.1492
  965SOL    HW1 5148   1.784   2.197   9.517  0.8670 -1.5690  1.1213
  965SOL    HW2 5149   1.883   2.312   9.508 -0.4453 -0.3804  1.4176
  966SOL     OW 5150   2.171   5.492   7.267 -0.2314  0.3908 -0.5005
  966SOL    HW1 5151   2.180   5.486   7.362 -2.4782  3.1888  0.0422
  966SOL    HW2 5152   2.251   5.536   7.238 -0.0226  0.5395  0.2822
  967SOL     OW 5153   5.144   0.980   3.113  0.3470  0.2621  0.4524
  967SOL    HW1 5154   5.104   1.067   3.125 -2.6217 -1.0266  0.8352
  967SOL    HW2 5155   5.125   0.934   3.194  3.1377 -0.3765  0.8238
  968SOL     OW 5156   7.915   3.587   4.558 -0.2543  0.3188  0.1287
  968SOL    HW1 5157   7.856   3.521   4.593  0.7556 -0.0367  1.2125
  968SOL    HW2 5158   7.978   3.538   4.505 -0.8410  0.6827 -0.9379
  969SOL     OW 5159   5.443   1.674   7.511  0.4277 -0.0057  0.1854
  969SOL    HW1 5160   5.388   1.612   7.559  2.5416 -1.5859  0.6832
  969SOL    HW2 5161   5.381   1.728   7.462 -1.5313 -1.9433  0.3997
  970SOL     OW 5162   9.310   7.727   2.188  0.1006 -0.4123 -0.3811
  970SOL    HW1 5163   9.236   7.689   2.140 -1.2846  1.5607  0.0411
  970SOL    HW2 5164   9.281   7.816   2.209  1.8080 -0.2613  1.6178
  971SOL     OW 5165   9.309   5.160   2.830 -0.5282  0.1617 -0.0511
  971SOL    HW1 5166   9.239   5.112   2.874 -0.8361 -0.9761 -1.7051
  971SOL    HW2 5167   9.381   5.098   2.824 -0.4443  0.3331 -1.0165
  972SOL     OW 5168   8.907   9.037   1.652 -0.6186  0.3009 -0.5042
  972SOL    HW1 5169   8.957   9.096   1.707 -3.0737  0.4261  1.8132
  972SOL    HW2 5170   8.885   9.089   1.575  0.3754  1.1417 -0.2487
  973SOL     OW 5171   1.111   6.562   0.882  0.1635  0.0407  0.4130
  973SOL    HW1 5172   1.057   6.485   0.898 -0.7115  0.6291  0.3648
  973SOL    HW2 5173   1.183   6.555   0.944  0.3227 -1.0271  0.1178
  974SOL     OW 5174   5.167   3.583   1.875  0.7424  0.1901  0.2419
  974SOL    HW1 5175   5.219   3.662   1.894 -0.4512  1.1106 -0.1955
  974SOL    HW2 5176   5.101   3.581   1.944 -0.2500  0.5076 -0.6845
  975SOL     OW 5177   8.228  10.629   0.999 -0.1936  0.1260 -0.2085
  975SOL    HW1 5178   8.307  10.603   1.047 -0.8791  1.6188  1.8586
  975SOL    HW2 5179   8.159  10.629   1.065 -1.1567  2.4794 -1.1052
  976SOL     OW 5180   8.938   8.817   3.791 -0.3144  0.6019 -0.5418
  976SOL    HW1 5181   8.999   8.788   3.723 -1.7068 -0.9726 -1.2000
  976SOL    HW2 5182   8.853   8.781   3.764 -1.4010  2.0774  0.7291
  977SOL     OW 5183   8.564   4.393  10.080 -0.0282  0.2082 -0.4003
  977SOL    HW1 5184   8.654   4.361  10.072 -0.1891 -0.0738 -1.1674
  977SOL    HW2 5185   8.566   4.481  10.044  0.1148  0.5431  0.3960
  978SOL     OW 5186   0.184   7.484   4.235 -1.0344  0.1643  0.0309
  978SOL    HW1 5187   0.120   7.548   4.202  0.1352  0.8509 -1.0337
  978SOL    HW2 5188   0.269   7.524   4.214 -0.2513 -0.5964  1.6421
  979SOL     OW 5189   8.361   1.447   1.085  0.0979  0.1581 -0.0051
  979SOL    HW1 5190   8.363   1.453   1.181  0.4537  1.2929 -0.0662
  979SOL    HW2 5191   8.277   1.484   1.060  0.6581  1.3501 -0.1968
  980SOL     OW 5192   4.055   5.235   3.763  0.1796  0.1359  0.0104
  980SOL    HW1 5193   4.121   5.277   3.818  0.6660  0.1049 -0.5494
  980SOL    HW2 5194   4.104   5.190   3.695 -0.4200  0.1836 -0.4648
  981SOL     OW 5195  10.415   5.717   7.495  0.0309 -0.0413 -0.1071
  981SOL    HW1 5196  10.370   5.783   7.548  1.4696 -0.8397  2.2670
  981SOL    HW2 5197  10.358   5.640   7.499  0.0854 -0.0664  0.1941
  982SOL     OW 5198   8.575   0.910   6.942 -0.5278  0.0989  0.0227
  982SOL    HW1 5199   8.612   0.989   6.980 -2.2069  1.1706 -0.4841
  982SOL    HW2 5200   8.546   0.858   7.017  1.0766 -0.3362  0.3825
  983SOL     OW 5201  10.394   8.469   6.533  0.1592  0.1914 -0.1353
  983SOL    HW1 5202  10.432   8.501   6.451  0.3561  0.2715 -0.0131
  983SOL    HW2 5203  10.301   8.494   6.528  0.2300  0.4388 -0.2109
  984SOL     OW 5204   3.405   9.899   1.346  0.1703 -0.1958  0.0048
  984SOL    HW1 5205   3.337   9.866   1.404  1.5516 -0.8596  1.3330
  984SOL    HW2 5206   3.420   9.827   1.284  0.0860 -0.2831  0.0851
  985SOL     OW 5207   6.500   5.526   9.108 -0.7035 -0.1050 -0.0180
  985SOL    HW1 5208   6.592   5.502   9.101 -0.5965  0.2749  0.0593
  985SOL    HW2 5209   6.467   5.473   9.181  0.0798  1.5614  1.6247
  986SOL     OW 5210   8.111   6.103   4.010 -0.0963  0.0419  0.2327
  986SOL    HW1 5211   8.019   6.093   4.034  0.1010 -1.0606  0.6017
  986SOL    HW2 5212   8.140   6.013   3.991  0.6748  0.4770 -0.7273
  987SOL     OW 5213   6.992   9.547   7.876  0.1140 -0.0226 -0.9999
  987SOL    HW1 5214   6.964   9.541   7.967  0.0396  0.6733 -0.9675
  987SOL    HW2 5215   6.910   9.541   7.826  0.0812  0.2558 -0.9847
  988SOL     OW 5216   5.133   4.014   4.364 -0.1865  0.0959  0.3364
  988SOL    HW1 5217   5.109   3.992   4.454  0.1114 -0.2436  0.3339
  988SOL    HW2 5218   5.080   4.091   4.343 -0.9642 -0.3911  0.4769
  989SOL     OW 5219   1.908   4.420   6.391  0.1759  0.2947 -0.7148
  989SOL    HW1 5220   1.829   4.370   6.369  0.2699 -0.1525 -0.0649
  989SOL    HW2 5221   1.883   4.473   6.466  0.3233  0.6124 -0.8874
  990SOL     OW 5222   6.565   7.710   1.564  0.1460  1.0592 -0.4106
  990SOL    HW1 5223   6.571   7.625   1.606  1.9342  0.1918 -2.2570
  990SOL    HW2 5224   6.471   7.722   1.547  0.0110 -1.9519 -2.6822
  991SOL     OW 5225   7.648   9.511   0.323  0.1813  0.0847  0.3179
  991SOL    HW1 5226   7.590   9.512   0.247  0.6545  0.8027 -0.0520
  991SOL    HW2 5227   7.628   9.430   0.369 -1.3006  0.4472  0.3454
  992SOL     OW 5228   4.088   0.775   8.557 -0.2841  0.4127 -0.2590
  992SOL    HW1 5229   4.051   0.694   8.521 -1.2256  0.8170 -0.2116
  992SOL    HW2 5230   4.183   0.762   8.550 -0.4242 -0.5047 -0.6731
  993SOL     OW 5231   2.962   2.367   2.191 -0.0392  0.7567 -0.0159
  993SOL    HW1 5232   3.047   2.367   2.235 -0.4537 -1.5658  0.9201
  993SOL    HW2 5233   2.980   2.334   2.103 -0.2053 -2.0377  0.9092
  994SOL     OW 5234   3.116   5.860   9.796  0.1543  0.0916 -0.0255
  994SOL    HW1 5235   3.183   5.923   9.823  0.0759  1.1927 -2.1932
  994SOL    HW2 5236   3.045   5.913   9.762 -0.8098 -1.1338  0.0118
  995SOL     OW 5237  10.152   7.920   4.745 -0.3464  0.9875 -0.3755
  995SOL    HW1 5238  10.087   7.850   4.752 -0.1918  0.7625 -1.0764
  995SOL    HW2 5239  10.213   7.889   4.677  1.2265  0.6054  1.1400
  996SOL     OW 5240  10.564  10.003   5.617 -0.0902 -0.3962 -0.1899
  996SOL    HW1 5241  10.575   9.981   5.709  0.5301  2.1922  0.4181
  996SOL    HW2 5242  10.646   9.975   5.576 -0.1698 -1.1087  0.1306
  997SOL     OW 5243   9.944   0.876   7.562  0.0378 -0.1998 -0.1963
  997SOL    HW1 5244   9.868   0.910   7.610  0.1723  0.7917 -0.6619
  997SOL    HW2 5245  10.010   0.945   7.572  0.9116 -1.0903  0.2702
  998SOL     OW 5246   6.773   4.994   1.874  0.0150  0.8142 -0.0803
  998SOL    HW1 5247   6.724   4.984   1.793 -0.4154  0.0046  0.2652
  998SOL    HW2 5248   6.800   4.905   1.897  2.5410  1.3091 -0.7764
  999SOL     OW 5249   8.854   7.133   1.845 -0.2466 -0.5470  0.6481
  999SOL    HW1 5250   8.829   7.162   1.933  0.6352  0.5576  0.5492
  999SOL    HW2 5251   8.920   7.065   1.860  0.7265  0.4227  0.8421
 1000SOL     OW 5252   9.675   2.924   4.009  0.1219  0.4680 -0.0204
 1000SOL    HW1 5253   9.746   2.944   3.948  1.7366 -1.0215  1.2515
 1000SOL    HW2 5254   9.651   2.834   3.989  0.9203 -0.1717  1.6855
 1001SOL     OW 5255   5.887   5.978   6.009 -0.0372 -0.0020  0.2672
 1001SOL    HW1 5256   5.883   5.892   6.052 -1.0465  0.4979  1.2384
 1001SOL    HW2 5257   5.944   6.030   6.066  1.2163 -0.2292 -0.7395
 1002SOL     OW 5258   4.029   6.886   0.660 -0.0882 -0.3077 -0.0055
 1002SOL    HW1 5259   4.122   6.899   0.681 -0.5861  0.7929  1.7626
 1002SOL    HW2 5260   3.994   6.835   0.733 -0.9302 -0.5597 -0.5633
 1003SOL     OW 5261   9.841   7.798  10.289 -0.1526 -0.2296  0.3802
 1003SOL    HW1 5262   9.912   7.833  10.343  1.0553 -1.8938 -0.0525
 1003SOL    HW2 5263   9.783   7.755  10.352 -0.4942  0.6170  0.6665
 1004SOL     OW 5264   2.223   1.037   9.715  0.0075 -0.5205 -0.0407
 1004SOL    HW1 5265   2.240   1.091   9.792  1.6695 -2.0105  0.7060
 1004SOL    HW2 5266   2.309   1.021   9.677 -0.3113 -3.1181  0.1522
 1005SOL     OW 5267   3.173   6.080   6.121  0.3193  0.3578  0.0357
 1005SOL    HW1 5268   3.147   6.091   6.030  3.0836  1.8189 -0.7012
 1005SOL    HW2 5269   3.230   6.003   6.121 -0.5081 -0.2792  0.7752
 1006SOL     OW 5270   7.783   6.039   3.954  0.2194 -1.2281 -0.0810
 1006SOL    HW1 5271   7.767   6.010   3.864 -1.2834 -1.3372  0.1846
 1006SOL    HW2 5272   7.720   5.989   4.006 -0.9514  0.9031  0.6746
 1007SOL     OW 5273   2.550  10.355  10.243 -0.2296 -0.2849  0.1589
 1007SOL    HW1 5274   2.494  10.313  10.178  1.7229 -1.6530 -0.7182
 1007SOL    HW2 5275   2.538  10.302  10.322  0.6114 -1.2559 -0.3417
 1008SOL     OW 5276   7.378   3.034   4.717  0.2108  0.2731  0.0658
 1008SOL    HW1 5277   7.463   2.988   4.715 -0.5247 -1.1460 -0.2798
 1008SOL    HW2 5278   7.344   3.016   4.805 -0.2248 -0.1513 -0.1814
 1009SOL     OW 5279   5.081   2.200   0.901  0.5748  0.1781  0.2832
 1009SOL    HW1 5280   5.030   2.119   0.902 -0.1082  0.4897 -2.2302
 1009SOL    HW2 5281   5.072   2.234   0.812  0.4699  3.2600  1.3187
 1010SOL     OW 5282   9.736   0.814   3.705 -0.0836 -0.1515  0.1136
 1010SOL    HW1 5283   9.796   0.864   3.650  0.1507 -0.6542 -0.0889
 1010SOL    HW2 5284   9.790   0.744   3.742 -0.5425 -0.6025 -0.0660
 1011SOL     OW 5285   7.414   5.549   8.690 -0.7817 -0.6488  0.3341
 1011SOL    HW1 5286   7.477   5.595   8.634  1.1327 -3.5314 -0.1177
 1011SOL    HW2 5287   7.348   5.516   8.629 -2.1929  1.3424  0.6657
 1012SOL     OW 5288   5.062   7.981  10.032 -0.8565 -0.4731 -0.5231
 1012SOL    HW1 5289   5.126   7.992  10.102 -1.1466 -0.5014 -0.2513
 1012SOL    HW2 5290   5.028   7.893  10.045 -0.4168 -0.7360 -1.1179
 1013SOL     OW 5291   9.721   0.024   7.315  0.0758  0.1624 -0.2692
 1013SOL    HW1 5292   9.655   0.050   7.379  1.5037  0.8415  0.9864
 1013SOL    HW2 5293   9.674  -0.033   7.254 -2.0923  2.0479 -0.4792
 1014SOL     OW 5294   5.961   7.040   6.227  0.0042 -0.0627  0.3180
 1014SOL    HW1 5295   5.926   7.002   6.147  0.5481 -0.4272  0.2485
 1014SOL    HW2 5296   5.897   7.107   6.251  1.1847  2.0043 -1.9243
 1015SOL     OW 5297   5.744   9.203   2.330 -0.1260  0.5866  0.4594
 1015SOL    HW1 5298   5.740   9.113   2.300 -1.1434 -0.1203  2.5252
 1015SOL    HW2 5299   5.816   9.204   2.393 -0.0746  1.2463  0.4000
 1016SOL     OW 5300   5.329   2.946   3.862  0.2065 -0.1755  0.4913
 1016SOL    HW1 5301   5.346   3.038   3.884  0.4212 -0.1114  0.0679
 1016SOL    HW2 5302   5.324   2.945   3.766  0.3307 -0.6288  0.4885
 1017SOL     OW 5303   5.547   4.402   2.076 -0.0315  0.5921 -0.4435
 1017SOL    HW1 5304   5.641   4.416   2.062  0.0893  0.4549  0.1872
 1017SOL    HW2 5305   5.543   4.323   2.131 -0.5838 -0.4043 -1.8345
 1018SOL     OW 5306   0.579   8.353   9.575 -0.0584 -0.4209  0.0240
 1018SOL    HW1 5307   0.592   8.315   9.488  0.8298 -1.4370  0.5758
 1018SOL    HW2 5308   0.605   8.284   9.636  1.3648  0.9641  1.0892
 1019SOL     OW 5309   2.364   0.932   8.969 -0.2538  0.2211 -0.1410
 1019SOL    HW1 5310   2.269   0.945   8.975 -0.4662  0.9389 -3.2696
 1019SOL    HW2 5311   2.375   0.837   8.960 -0.4986 -0.0070  1.5814
 1020SOL     OW 5312   7.970   2.308   0.401 -0.1872  0.1359  0.1287
 1020SOL    HW1 5313   7.908   2.342   0.337  0.3033 -0.1907 -0.5374
 1020SOL    HW2 5314   7.918   2.250   0.457 -0.6505  0.5361  0.1201
 1021SOL     OW 5315   9.411   4.693   1.607  0.1386 -0.1310 -0.5583
 1021SOL    HW1 5316   9.499   4.674   1.640  0.7051 -0.1509 -2.0493
 1021SOL    HW2 5317   9.357   4.624   1.646  0.7733 -0.1526  0.3271
 1022SOL     OW 5318   6.782   2.971   2.129 -0.3381 -0.1050 -0.8033
 1022SOL    HW1 5319   6.803   2.889   2.084  0.6600 -0.7496  0.7452
 1022SOL    HW2 5320   6.719   2.946   2.196  0.4877  0.2215  0.1350
 1023SOL     OW 5321   3.522   8.074   4.652  0.4592 -0.3488 -0.0369
 1023SOL    HW1 5322   3.601   8.120   4.682  0.5296 -0.7446  0.3924
 1023SOL    HW2 5323   3.526   7.989   4.696 -0.2857 -0.3159  0.1016
 1024SOL     OW 5324   7.728  10.236   4.683 -0.5166 -0.3849  0.3298
 1024SOL    HW1 5325   7.674  10.193   4.617 -0.8611  1.6064 -0.7625
 1024SOL    HW2 5326   7.666  10.286   4.736 -0.1275 -1.1750  1.5820
 1025SOL     OW 5327   8.594   3.162   9.183  0.0416  0.5378  0.4096
 1025SOL    HW1 5328   8.503   3.182   9.160  0.0208 -0.2050 -0.1882
 1025SOL    HW2 5329   8.644   3.236   9.149 -0.1057 -0.0560 -1.1875
 1026SOL     OW 5330   8.484   2.386  10.537  0.4377 -0.2384  0.0841
 1026SOL    HW1 5331   8.484   2.473  10.577  1.3203  0.1945 -0.8364
 1026SOL    HW2 5332   8.402   2.383  10.487  0.0104 -0.2578  0.7693
 1027SOL     OW 5333   3.032   5.163   2.523  0.4357 -0.1399  0.6298
 1027SOL    HW1 5334   3.123   5.180   2.501 -0.1652 -0.8678 -3.0434
 1027SOL    HW2 5335   2.983   5.233   2.478 -0.8888 -0.2758  1.7946
 1028SOL     OW 5336  10.389   4.059   1.340 -0.3905  0.2150  0.5445
 1028SOL    HW1 5337  10.481   4.034   1.342  0.0751  1.0545 -3.3304
 1028SOL    HW2 5338  10.344   3.986   1.299 -0.6261  1.5474 -1.7293
 1029SOL     OW 5339   6.094   1.769  10.225  0.5443 -0.0114 -0.0147
 1029SOL    HW1 5340   6.010   1.771  10.269 -0.0110  0.4406 -1.0607
 1029SOL    HW2 5341   6.159   1.780  10.295 -0.1706 -1.7143  0.9827
 1030SOL     OW 5342   7.106   0.231   3.169  0.0583  0.2485  0.4582
 1030SOL    HW1 5343   7.142   0.290   3.102 -0.2355  0.3275  0.3685
 1030SOL    HW2 5344   7.174   0.166   3.182 -0.2023 -0.2565 -0.5378
 1031SOL     OW 5345   1.282   2.176   4.592 -0.5762 -0.5549 -0.2049
 1031SOL    HW1 5346   1.268   2.223   4.510 -0.0882  1.8424  0.9694
 1031SOL    HW2 5347   1.326   2.095   4.567  0.3821  0.5080 -2.2366
 1032SOL     OW 5348   1.784  10.611   8.503  0.4408  0.6129 -0.0707
 1032SOL    HW1 5349   1.790  10.542   8.570 -0.0627  0.6265 -0.0072
 1032SOL    HW2 5350   1.725  10.575   8.437  1.9396  0.0709 -1.1642
 1033SOL     OW 5351   7.794   0.704   9.381  0.0803  0.0675 -0.5515
 1033SOL    HW1 5352   7.726   0.640   9.402 -0.4278  0.9839  0.7901
 1033SOL    HW2 5353   7.755   0.760   9.313  1.0922 -1.8912 -2.8711
 1034SOL     OW 5354   3.680   3.889   3.047  0.7449  0.1586  0.0055
 1034SOL    HW1 5355   3.740   3.820   3.073 -0.3111 -1.2439 -1.1597
 1034SOL    HW2 5356   3.599   3.869   3.094  0.6063  0.9918  0.1453
 1035SOL     OW 5357   1.360   5.579   3.701 -0.5146  0.3281 -0.6144
 1035SOL    HW1 5358   1.291   5.609   3.641 -0.6206  2.0268  0.2914
 1035SOL    HW2 5359   1.317   5.575   3.786  0.4176  1.1077 -0.0948
 1036SOL     OW 5360   5.554   1.989   2.471  0.0928  0.9867  0.3260
 1036SOL    HW1 5361   5.579   1.943   2.551 -0.1198  1.1646  0.4973
 1036SOL    HW2 5362   5.516   2.071   2.501 -1.1984  0.4938  0.1120
 1037SOL     OW 5363   1.943   5.045   3.816  0.7841  0.6934  0.2590
 1037SOL    HW1 5364   1.976   4.991   3.888  1.5075  1.2079  0.3263
 1037SOL    HW2 5365   1.848   5.035   3.821  0.8795 -2.9345 -1.5661
 1038SOL     OW 5366   2.308   9.205   3.145 -0.8172  0.2686  0.0813
 1038SOL    HW1 5367   2.374   9.141   3.173 -0.1602  0.2958 -1.3423
 1038SOL    HW2 5368   2.346   9.246   3.067 -2.0239  1.1142 -0.0858
 1039SOL     OW 5369   0.740   9.839   3.136 -0.2321 -0.4403  0.0584
 1039SOL    HW1 5370   0.742   9.866   3.044  0.1044 -0.6547  0.0034
 1039SOL    HW2 5371   0.720   9.920   3.184 -0.1074 -0.2670 -0.1801
 1040SOL     OW 5372   2.681   9.001   1.400 -0.3330  0.3473  0.4116
 1040SOL    HW1 5373   2.681   8.920   1.350  0.0721  0.7622 -0.2829
 1040SOL    HW2 5374   2.628   8.982   1.478 -0.5714 -0.4520  0.0605
 1041SOL     OW 5375   1.716   6.998   0.805  0.1704 -0.0946  0.1006
 1041SOL    HW1 5376   1.798   6.950   0.795  1.2334  1.3058  1.5599
 1041SOL    HW2 5377   1.743   7.088   0.825 -1.7344  0.6612 -0.4370
 1042SOL     OW 5378   7.909   5.786   7.196  0.3530  0.3052  0.9096
 1042SOL    HW1 5379   7.836   5.804   7.136  0.4522  0.0964  0.7248
 1042SOL    HW2 5380   7.871   5.733   7.266  0.1822  0.7588  1.1606
 1043SOL     OW 5381   7.535   3.893   4.276  0.0481  0.2811  0.1951
 1043SOL    HW1 5382   7.574   3.981   4.276 -0.9560  0.7462  1.1509
 1043SOL    HW2 5383   7.589   3.842   4.336  0.1509  0.4702  0.2635
 1044SOL     OW 5384   0.037   2.443   7.010 -0.6161 -0.2976  0.4780
 1044SOL    HW1 5385   0.074   2.488   6.934 -0.5268  0.1465  0.7814
 1044SOL    HW2 5386  -0.030   2.385   6.973 -2.0103  1.3724  0.2084
 1045SOL     OW 5387   7.347  10.561   5.358  0.2347 -0.0010 -0.5262
 1045SOL    HW1 5388   7.368  10.538   5.268 -0.4463  0.9324 -0.9386
 1045SOL    HW2 5389   7.425  10.536   5.407  0.6524 -0.4342 -1.3839
 1046SOL     OW 5390   7.067   3.113   6.652  0.0532  0.1338 -0.5270
 1046SOL    HW1 5391   7.034   3.138   6.566 -1.1808 -0.5016 -0.2672
 1046SOL    HW2 5392   7.069   3.017   6.650 -0.6047  0.0815  0.3503
 1047SOL     OW 5393   6.929   8.412   0.031  0.6241 -0.1935  0.4789
 1047SOL    HW1 5394   7.017   8.438   0.006  0.9468 -0.9750  0.7727
 1047SOL    HW2 5395   6.934   8.397   0.125  0.0233  0.3630  0.6014
 1048SOL     OW 5396   7.947  10.047   2.056 -0.3736 -0.1879 -0.5530
 1048SOL    HW1 5397   8.019   9.989   2.079  0.4632  0.8495 -0.4541
 1048SOL    HW2 5398   7.868   9.995   2.070  0.3473 -1.2639 -0.4115
 1049SOL     OW 5399   6.894   6.633   2.198 -0.0455 -0.0950 -0.0540
 1049SOL    HW1 5400   6.926   6.559   2.250 -0.9184 -1.7053 -1.6871
 1049SOL    HW2 5401   6.827   6.595   2.142 -1.0960  2.1348 -0.4043
 1050SOL     OW 5402   7.508   3.555   1.581  0.3626  0.4249  0.0379
 1050SOL    HW1 5403   7.509   3.468   1.621 -0.0353 -0.0371 -0.9217
 1050SOL    HW2 5404   7.507   3.539   1.487 -0.7686  1.4429 -0.1571
 1051SOL     OW 5405   9.413   7.920   3.287 -0.0555  0.3103 -0.9721
 1051SOL    HW1 5406   9.335   7.956   3.245 -0.8457 -0.9938 -0.6889
 1051SOL    HW2 5407   9.381   7.843   3.334  1.0838  0.7695  0.6587
 1052SOL     OW 5408   2.546   3.734   6.585  0.0070 -0.3177 -0.4338
 1052SOL    HW1 5409   2.531   3.770   6.673  0.3904 -0.5794 -0.2607
 1052SOL    HW2 5410   2.493   3.655   6.583  1.0435 -1.0480  0.0513
 1053SOL     OW 5411   2.977  10.001   0.347  0.0413 -0.0144 -0.2836
 1053SOL    HW1 5412   2.975  10.087   0.306 -1.5208 -0.1541 -0.5707
 1053SOL    HW2 5413   3.046   9.954   0.302 -1.3099 -0.0117 -2.4774
 1054SOL     OW 5414   3.197   6.727   7.203  0.7389  0.8854 -0.7698
 1054SOL    HW1 5415   3.183   6.793   7.135  0.2188 -0.6504 -2.2220
 1054SOL    HW2 5416   3.132   6.659   7.183  2.2879 -0.7963 -0.3044
 1055SOL     OW 5417   1.191   1.856   8.282  0.5107 -0.4328  0.2850
 1055SOL    HW1 5418   1.204   1.877   8.190  0.3946 -0.2640  0.3069
 1055SOL    HW2 5419   1.117   1.796   8.283 -0.7545  1.0750  0.4308
 1056SOL     OW 5420   3.601   0.481   4.727 -0.1739  0.2400  0.4381
 1056SOL    HW1 5421   3.642   0.503   4.810 -0.3972  0.5663  0.4655
 1056SOL    HW2 5422   3.524   0.539   4.722 -0.5191 -0.2258  0.2986
 1057SOL     OW 5423   5.885   9.916   1.278 -0.5166  0.1014 -0.2315
 1057SOL    HW1 5424   5.804   9.871   1.300 -1.3690  2.3613  1.6895
 1057SOL    HW2 5425   5.872  10.007   1.307  2.4462  0.7249 -0.4433
 1058SOL     OW 5426   1.900   4.327   2.460 -0.0428 -0.2957 -0.3096
 1058SOL    HW1 5427   1.809   4.347   2.480  0.4584  0.9809  0.8516
 1058SOL    HW2 5428   1.910   4.347   2.367 -0.6840  0.6699 -0.1832
 1059SOL     OW 5429   1.862   1.148   6.773 -0.1908 -0.1520 -0.5036
 1059SOL    HW1 5430   1.866   1.212   6.702 -0.3237 -0.0956 -0.4608
 1059SOL    HW2 5431   1.826   1.197   6.847 -0.8654 -0.4232 -0.6401
 1060SOL     OW 5432   5.222   4.455   6.904  0.4342  0.8663  0.0852
 1060SOL    HW1 5433   5.268   4.373   6.920 -1.3254 -0.0642  0.5594
 1060SOL    HW2 5434   5.238   4.507   6.983  0.5173  0.4698  0.3346
 1061SOL     OW 5435   2.223   4.522   9.037  0.7885 -0.7027  0.3483
 1061SOL    HW1 5436   2.153   4.495   8.978  1.0946  1.6000 -1.2024
 1061SOL    HW2 5437   2.180   4.576   9.103  0.9105 -0.5018  0.2631
 1062SOL     OW 5438   4.011   4.971   7.377  0.3202  0.6459 -0.0679
 1062SOL    HW1 5439   3.966   4.904   7.325 -1.8927  0.7455  1.5811
 1062SOL    HW2 5440   3.951   4.990   7.449  2.1089  2.4242  1.0578
 1063SOL     OW 5441   5.763   1.767   2.642  0.0682  0.1813 -0.1243
 1063SOL    HW1 5442   5.775   1.680   2.604  1.1708 -0.8458  2.3829
 1063SOL    HW2 5443   5.701   1.752   2.714  1.1370  1.2370  1.0368
 1064SOL     OW 5444   5.785   5.182   3.738 -0.3263 -0.6650 -0.0175
 1064SOL    HW1 5445   5.804   5.094   3.770  0.8167 -0.6803 -0.6871
 1064SOL    HW2 5446   5.850   5.237   3.781 -1.4838 -0.0153  0.9503
 1065SOL     OW 5447   2.659   0.248  10.609 -0.1644 -0.5298  0.2871
 1065SOL    HW1 5448   2.664   0.314  10.678 -0.2280  1.7302 -1.7232
 1065SOL    HW2 5449   2.750   0.232  10.584 -0.2268  0.4180 -0.6143
 1066SOL     OW 5450   6.929   2.656   5.314  0.1036  0.7481  0.0957
 1066SOL    HW1 5451   6.886   2.613   5.240  0.1398  1.6828 -0.4875
 1066SOL    HW2 5452   6.871   2.729   5.337 -0.2020  0.1288  1.3777
 1067SOL     OW 5453   3.132   2.887   4.465  0.1145 -0.4173  0.4481
 1067SOL    HW1 5454   3.133   2.795   4.440  0.4087 -0.2649 -0.1157
 1067SOL    HW2 5455   3.220   2.919   4.445  0.7456 -0.5365  2.6934
 1068SOL     OW 5456   7.717   3.893   0.386 -0.1520 -0.5852 -0.2440
 1068SOL    HW1 5457   7.629   3.888   0.347 -0.4797  2.0447  0.0138
 1068SOL    HW2 5458   7.705   3.862   0.476 -0.5721 -1.2532 -0.5212
 1069SOL     OW 5459   6.267   1.204   8.746  1.0964 -0.0166 -0.7600
 1069SOL    HW1 5460   6.176   1.174   8.737  1.3925 -0.9025 -0.9197
 1069SOL    HW2 5461   6.266   1.261   8.823  0.8662 -2.0550  0.8483
 1070SOL     OW 5462   1.953   9.213   8.499 -0.1196 -0.4194  0.4702
 1070SOL    HW1 5463   1.967   9.303   8.467 -0.7295 -0.5005 -0.0416
 1070SOL    HW2 5464   1.953   9.222   8.594 -1.1930  0.2968  0.4279
 1071SOL     OW 5465   6.408   1.894   8.126 -0.5589 -0.0709 -0.4982
 1071SOL    HW1 5466   6.451   1.833   8.186  0.4069  0.2688 -0.8144
 1071SOL    HW2 5467   6.430   1.862   8.039  1.6842  1.7777 -0.7239
 1072SOL     OW 5468   2.612   3.602   5.795 -0.2418  0.0675 -0.1467
 1072SOL    HW1 5469   2.697   3.604   5.751  0.2379 -1.6995  0.6430
 1072SOL    HW2 5470   2.600   3.692   5.825  1.6448  0.2291  0.2696
 1073SOL     OW 5471   0.018   7.060   5.525  0.2555  0.0699  0.4493
 1073SOL    HW1 5472   0.032   7.016   5.441 -0.1180 -1.9574  1.4031
 1073SOL    HW2 5473   0.105   7.062   5.565  0.1986 -0.2325  0.5937
 1074SOL     OW 5474   4.816   7.260   4.475  0.2915 -0.7708  0.4546
 1074SOL    HW1 5475   4.836   7.278   4.567 -0.3733  0.6212  0.3634
 1074SOL    HW2 5476   4.724   7.233   4.475  0.6699 -2.1093  0.3306
 1075SOL     OW 5477   5.243  10.223   4.630 -0.3057 -0.0115  0.1686
 1075SOL    HW1 5478   5.290  10.209   4.548 -2.0507 -2.7422 -0.4890
 1075SOL    HW2 5479   5.220  10.316   4.629  0.8351  0.3031 -1.7873
 1076SOL     OW 5480   1.565   3.006   3.111  0.1837 -0.0388  0.0913
 1076SOL    HW1 5481   1.646   3.051   3.087 -0.7906  1.3717 -0.7375
 1076SOL    HW2 5482   1.562   3.011   3.207  0.3692  1.2537  0.0495
 1077SOL     OW 5483   3.161   1.288   3.376 -0.1321  0.4457  0.3707
 1077SOL    HW1 5484   3.070   1.258   3.380 -0.5617  1.6298 -0.1726
 1077SOL    HW2 5485   3.156   1.383   3.375  1.1673  0.5589  1.2084
 1078SOL     OW 5486   4.719   2.373   0.760 -0.5189 -0.3818 -0.2064
 1078SOL    HW1 5487   4.795   2.315   0.766  0.2713  0.6700  0.4359
 1078SOL    HW2 5488   4.673   2.344   0.681  0.8309 -0.7482 -0.8967
 1079SOL     OW 5489   2.206   2.208   8.312 -0.0496 -0.1852  0.0205
 1079SOL    HW1 5490   2.181   2.164   8.231 -1.6482  1.7276 -0.6182
 1079SOL    HW2 5491   2.129   2.260   8.336  2.0966  3.4422 -0.1676
 1080SOL     OW 5492   1.284   7.013   1.985  0.1195 -0.5767 -0.1663
 1080SOL    HW1 5493   1.354   7.073   2.011  0.2408 -1.0421  0.6251
 1080SOL    HW2 5494   1.245   6.984   2.068 -0.8809 -0.4826 -0.5844
 1081SOL     OW 5495   8.348   5.074   9.535  0.2154 -0.3492  0.2070
 1081SOL    HW1 5496   8.318   5.161   9.510  0.0434 -1.1252 -2.6516
 1081SOL    HW2 5497   8.348   5.075   9.631 -1.9189  2.0419  0.2959
 1082SOL     OW 5498   6.016   4.397  10.604  0.7738 -0.0407 -0.2237
 1082SOL    HW1 5499   6.070   4.446  10.666  1.0316  1.2423 -1.3922
 1082SOL    HW2 5500   6.006   4.457  10.529 -2.1016 -0.2998 -0.1599
 1083SOL     OW 5501   4.058   2.925   9.516  0.2305 -0.1632 -0.1543
 1083SOL    HW1 5502   4.117   2.995   9.489 -1.8217  0.5083 -3.4507
 1083SOL    HW2 5503   4.085   2.849   9.465 -0.4040 -0.4554 -0.0743
 1084SOL     OW 5504   0.769   6.523   0.961  0.6359  0.1915  0.2898
 1084SOL    HW1 5505   0.816   6.606   0.970  0.5099  0.3595 -0.4808
 1084SOL    HW2 5506   0.831   6.464   0.918  0.3603  0.2311 -0.1742
 1085SOL     OW 5507   4.827   5.929   4.175  0.4064 -0.2130  0.0396
 1085SOL    HW1 5508   4.802   5.901   4.087  0.9506  0.1178 -0.2262
 1085SOL    HW2 5509   4.802   5.856   4.231 -1.2463  0.1427 -0.1944
 1086SOL     OW 5510   5.683   9.621   8.599  0.9754  0.1467  0.1800
 1086SOL    HW1 5511   5.642   9.653   8.679  1.0989 -0.8287  0.6563
 1086SOL    HW2 5512   5.624   9.649   8.529  0.0167 -0.3442  0.7620
 1087SOL     OW 5513   0.612   4.026   8.019 -0.2997 -0.2467 -0.3335
 1087SOL    HW1 5514   0.529   4.036   7.973  0.6711 -0.7242 -2.2934
 1087SOL    HW2 5515   0.594   4.056   8.108 -1.8621  2.4501 -1.4227
 1088SOL     OW 5516   7.189   4.275   2.963 -0.4923  0.2879 -0.2432
 1088SOL    HW1 5517   7.095   4.288   2.954 -0.2218  2.1949 -0.9351
 1088SOL    HW2 5518   7.220   4.358   3.002  0.7710 -0.7151  0.9884
 1089SOL     OW 5519   9.855  10.115   9.665  0.1311  0.1616  0.6533
 1089SOL    HW1 5520   9.896  10.065   9.595 -0.0191  0.6760  0.1860
 1089SOL    HW2 5521   9.765  10.083   9.669  0.6819 -1.3533  2.0453
 1090SOL     OW 5522   0.623   2.464   2.992 -0.2897  0.0161 -0.1541
 1090SOL    HW1 5523   0.663   2.477   2.906  1.5799 -0.4069  0.5855
 1090SOL    HW2 5524   0.529   2.473   2.977  0.0500  0.8533 -2.0570
 1091SOL     OW 5525   4.961  10.142   1.754 -0.6696 -0.2065  0.2625
 1091SOL    HW1 5526   4.979  10.056   1.794  0.9054  0.7374  1.7286
 1091SOL    HW2 5527   4.894  10.181   1.810 -1.1904 -0.3469 -0.2496
 1092SOL     OW 5528   5.379   1.440   9.108 -0.0712  0.3576  0.5194
 1092SOL    HW1 5529   5.416   1.474   9.190 -1.9410 -0.3608  1.7329
 1092SOL    HW2 5530   5.361   1.518   9.056  2.1495  0.7814  0.2786
 1093SOL     OW 5531   5.029   0.810   0.615  0.1311  0.3539  0.0516
 1093SOL    HW1 5532   5.016   0.905   0.615  0.0626  0.3438 -0.2176
 1093SOL    HW2 5533   4.991   0.782   0.699  0.5984  0.6217  0.3603
 1094SOL     OW 5534   1.377   1.436   8.399  0.1834 -0.2129  0.3589
 1094SOL    HW1 5535   1.370   1.365   8.462  0.0042  1.0222  1.7761
 1094SOL    HW2 5536   1.470   1.456   8.396  0.5633 -1.8637 -1.6767
 1095SOL     OW 5537   7.198  10.409   2.016 -0.3159  0.1481 -0.6390
 1095SOL    HW1 5538   7.144  10.440   1.943  1.2837  0.5851 -1.6766
 1095SOL    HW2 5539   7.287  10.406   1.981  0.9765  2.8242  1.9388
 1096SOL     OW 5540   6.770   1.477   7.151 -0.6108 -0.4005  0.6620
 1096SOL    HW1 5541   6.680   1.448   7.164 -0.7371 -0.9399 -1.1035
 1096SOL    HW2 5542   6.766   1.534   7.075  0.6413 -1.0841  0.0527
 1097SOL     OW 5543   5.000   2.235   6.321  0.1139 -0.6742 -0.3662
 1097SOL    HW1 5544   4.945   2.190   6.384 -0.5983  0.4073 -0.1870
 1097SOL    HW2 5545   4.942   2.299   6.279  0.9009 -0.4460 -1.1497
 1098SOL     OW 5546  10.364   5.553   2.545 -0.3313 -0.5397  0.1678
 1098SOL    HW1 5547  10.307   5.630   2.540  0.9078  0.4466  0.5093
 1098SOL    HW2 5548  10.330   5.503   2.619  0.2522  0.9486  1.5272
 1099SOL     OW 5549   4.254   3.777   2.128  0.4808 -0.4097 -0.2106
 1099SOL    HW1 5550   4.346   3.801   2.117 -0.2584  2.3102 -1.3178
 1099SOL    HW2 5551   4.243   3.766   2.223  2.0161 -1.2967 -0.1022
 1100SOL     OW 5552   9.316   4.013   4.031 -1.0439 -0.3591  0.0434
 1100SOL    HW1 5553   9.403   3.980   4.052 -0.5185  0.7808 -0.2610
 1100SOL    HW2 5554   9.301   3.985   3.940 -0.8420 -0.2431 -0.0262
 1101SOL     OW 5555   6.152   9.558   0.519 -0.3438 -0.1529 -0.2915
 1101SOL    HW1 5556   6.113   9.472   0.532 -0.2689 -0.0346  0.8955
 1101SOL    HW2 5557   6.109   9.593   0.442 -0.0483 -1.4290 -1.0641
 1102SOL     OW 5558   8.570   3.793   4.820  0.1591  0.2051 -0.3933
 1102SOL    HW1 5559   8.560   3.766   4.911  0.2240  0.4735 -0.3035
 1102SOL    HW2 5560   8.515   3.733   4.770 -1.9262  1.5939  0.0794
 1103SOL     OW 5561   4.562   0.235   8.134  0.0216 -0.6448 -0.0480
 1103SOL    HW1 5562   4.511   0.194   8.064  1.0435 -0.0860 -1.1447
 1103SOL    HW2 5563   4.636   0.176   8.148  0.5130 -0.1109 -0.3523
 1104SOL     OW 5564   9.388   0.522   0.467  0.1313  0.9600 -0.4033
 1104SOL    HW1 5565   9.354   0.601   0.509 -1.8817  0.9347 -1.8451
 1104SOL    HW2 5566   9.475   0.510   0.506 -0.1906  2.9053  1.0841
 1105SOL     OW 5567   2.692   6.544   8.542 -0.8769 -0.2927 -0.1058
 1105SOL    HW1 5568   2.760   6.504   8.487 -1.1775 -2.0071  0.7153
 1105SOL    HW2 5569   2.740   6.589   8.611 -0.5208  1.2379 -1.2894
 1106SOL     OW 5570   1.731   0.154   0.732  0.2181  0.1641 -0.1407
 1106SOL    HW1 5571   1.680   0.100   0.793 -1.6512  1.6568 -0.2914
 1106SOL    HW2 5572   1.820   0.151   0.766 -0.3863 -0.6899  1.4803
 1107SOL     OW 5573   2.024   8.753   0.659  0.1854  0.3870  0.0622
 1107SOL    HW1 5574   1.942   8.705   0.645 -0.6145  2.0715 -1.5621
 1107SOL    HW2 5575   2.081   8.723   0.588  0.1880  0.8029 -0.1113
 1108SOL     OW 5576   9.285   0.628   7.302 -0.3004  0.5086 -0.9334
 1108SOL    HW1 5577   9.252   0.718   7.303 -0.8789  0.3090  0.9248
 1108SOL    HW2 5578   9.375   0.635   7.336 -0.6178  0.3122 -0.0238
 1109SOL     OW 5579   1.118   3.004   7.162  0.1973  0.3443  0.5886
 1109SOL    HW1 5580   1.065   2.924   7.153 -2.5772  1.9015  1.8669
 1109SOL    HW2 5581   1.188   2.993   7.098 -3.2066 -0.7474 -3.4366
 1110SOL     OW 5582   5.942   0.865   5.441 -0.0901 -0.0531 -0.5420
 1110SOL    HW1 5583   5.927   0.954   5.471 -1.8108 -0.9336  1.4843
 1110SOL    HW2 5584   5.908   0.864   5.351  1.0051  1.5631 -1.0072
 1111SOL     OW 5585   1.251   9.990   5.745  0.3362 -0.0935  0.2398
 1111SOL    HW1 5586   1.236   9.912   5.691  0.4671 -1.1527  1.6601
 1111SOL    HW2 5587   1.282  10.056   5.684  1.4770 -1.5524 -0.8364
 1112SOL     OW 5588  10.330   6.657   2.014 -0.0956  0.4451  0.1764
 1112SOL    HW1 5589  10.361   6.609   2.091  0.6670 -0.9508 -0.9641
 1112SOL    HW2 5590  10.305   6.743   2.049 -0.7236 -0.4618  2.1391
 1113SOL     OW 5591   7.085   3.483   2.143  0.5281 -0.5558  0.4504
 1113SOL    HW1 5592   7.000   3.499   2.184  0.3235  1.1985 -0.5799
 1113SOL    HW2 5593   7.066   3.475   2.050  1.5592  0.4076  0.1441
 1114SOL     OW 5594   8.239  10.254   6.001 -0.3301  0.1961 -0.2069
 1114SOL    HW1 5595   8.256  10.181   5.941 -1.7279 -0.7761  0.5320
 1114SOL    HW2 5596   8.204  10.323   5.944  1.8835  0.6903 -1.0607
 1115SOL     OW 5597   6.268   5.954   8.218 -0.4946 -0.0056  0.0448
 1115SOL    HW1 5598   6.231   5.871   8.249 -3.3405  1.8243  2.0202
 1115SOL    HW2 5599   6.295   5.999   8.298  0.1110  1.3580 -0.8961
 1116SOL     OW 5600   8.073   7.388   2.250  0.1418  0.5868 -0.5057
 1116SOL    HW1 5601   8.007   7.350   2.308  0.9991  1.2455  0.9553
 1116SOL    HW2 5602   8.035   7.471   2.222  1.0251  1.8932  1.8593
 1117SOL     OW 5603   5.400  10.398   7.890 -0.3491 -0.1987  0.2767
 1117SOL    HW1 5604   5.367  10.316   7.929  1.4014 -0.3099  1.6299
 1117SOL    HW2 5605   5.458  10.369   7.820 -2.2489 -0.0085 -1.4831
 1118SOL     OW 5606   7.373   2.218   7.373 -0.3774  0.2079 -0.2891
 1118SOL    HW1 5607   7.376   2.198   7.467 -1.0641  0.6616 -0.1599
 1118SOL    HW2 5608   7.281   2.235   7.356 -0.1123  1.2185 -0.8097
 1119SOL     OW 5609   6.117   1.834   4.151  1.1310 -0.3087 -0.5108
 1119SOL    HW1 5610   6.035   1.785   4.143 -0.7516  2.2336  1.4906
 1119SOL    HW2 5611   6.138   1.862   4.062 -1.5874  1.0044 -0.8405
 1120SOL     OW 5612   1.772   5.492   1.434  0.4861  0.3618  0.0354
 1120SOL    HW1 5613   1.735   5.580   1.441  0.1603  0.0938  2.2360
 1120SOL    HW2 5614   1.713   5.437   1.485  1.3671 -0.9242 -0.2780
 1121SOL     OW 5615   0.225   2.307   1.559  0.3006 -0.3031  0.1312
 1121SOL    HW1 5616   0.192   2.312   1.649 -0.0306  1.4745 -0.0582
 1121SOL    HW2 5617   0.164   2.361   1.508  1.1851 -0.2842 -0.9442
 1122SOL     OW 5618  10.636   2.362   7.758  0.3860  0.2785 -0.1679
 1122SOL    HW1 5619  10.625   2.330   7.848 -2.4618 -1.1164 -0.8809
 1122SOL    HW2 5620  10.623   2.457   7.764 -4.5940 -0.1681  0.5247
 1123SOL     OW 5621   2.304   4.224   2.017  0.2869 -0.8395 -0.5157
 1123SOL    HW1 5622   2.226   4.172   1.995 -0.5587 -0.3195  1.1246
 1123SOL    HW2 5623   2.288   4.255   2.106  1.9386  0.1127 -0.5161
 1124SOL     OW 5624   1.928   7.549   1.608  0.5827 -0.5397  0.2139
 1124SOL    HW1 5625   1.945   7.510   1.523  0.9010  0.1429 -0.0463
 1124SOL    HW2 5626   1.960   7.639   1.600  0.5937 -0.4592  1.0436
 1125SOL     OW 5627  10.553   3.902   2.542 -0.1671  0.0517 -0.1473
 1125SOL    HW1 5628  10.466   3.862   2.537  0.3027 -1.8141  3.4995
 1125SOL    HW2 5629  10.610   3.841   2.496 -0.1942 -1.0960  1.2654
 1126SOL     OW 5630   9.659   4.461   8.889  0.1034 -0.1324  0.5103
 1126SOL    HW1 5631   9.611   4.414   8.958 -1.3604  0.8041  0.1633
 1126SOL    HW2 5632   9.736   4.497   8.934 -1.4193  1.4521  1.9789
 1127SOL     OW 5633   9.038   1.953   1.762 -0.1303  0.2082  0.0160
 1127SOL    HW1 5634   9.074   1.999   1.686  1.2336 -0.9534 -0.0933
 1127SOL    HW2 5635   8.987   1.881   1.725 -1.8708  1.2974  0.1928
 1128SOL     OW 5636   2.038   2.936   2.746  0.1167  0.2525 -0.2736
 1128SOL    HW1 5637   2.081   2.874   2.687  0.0733  0.3920 -0.4537
 1128SOL    HW2 5638   1.955   2.894   2.767 -1.2673  1.5060 -2.7432
 1129SOL     OW 5639   1.970  10.074  10.109  0.2182 -0.0242  0.0350
 1129SOL    HW1 5640   2.037  10.055  10.175 -0.6035 -0.4650  0.7657
 1129SOL    HW2 5641   1.981  10.005  10.044 -0.6093 -1.1291  1.0116
 1130SOL     OW 5642   8.883   2.970   7.786 -0.4451  0.0453 -0.3521
 1130SOL    HW1 5643   8.975   2.986   7.806 -0.1646  0.5791 -1.9463
 1130SOL    HW2 5644   8.844   3.057   7.780 -0.8651 -0.1560 -0.5316
 1131SOL     OW 5645   9.850   6.361   7.200  0.5197  0.6338  0.7374
 1131SOL    HW1 5646   9.775   6.393   7.149  0.9880  0.7412  0.1126
 1131SOL    HW2 5647   9.875   6.279   7.159  0.4513  0.3551  1.2418
 1132SOL     OW 5648   2.355   4.321   4.708  0.4530  0.2337  0.0700
 1132SOL    HW1 5649   2.266   4.348   4.686  1.1788  1.7478 -1.1647
 1132SOL    HW2 5650   2.412   4.380   4.658  2.1683 -1.5437 -0.2109
 1133SOL     OW 5651   0.367   6.818   4.229  0.2750  0.4212  0.4713
 1133SOL    HW1 5652   0.455   6.845   4.201 -0.5723  2.8205 -0.1081
 1133SOL    HW2 5653   0.352   6.866   4.310 -0.9103  0.9004 -0.0112
 1134SOL     OW 5654   0.846   7.781   8.852  0.0449  0.2833  0.1118
 1134SOL    HW1 5655   0.939   7.785   8.875  0.7508  0.6448 -2.4834
 1134SOL    HW2 5656   0.826   7.688   8.852  0.5678  0.1634  0.1319
 1135SOL     OW 5657   4.814   4.181   6.792  0.0964  0.6216 -0.3405
 1135SOL    HW1 5658   4.866   4.114   6.747  0.1540 -1.1596  2.1469
 1135SOL    HW2 5659   4.820   4.258   6.736  3.2345 -0.2866 -1.4819
 1136SOL     OW 5660   0.291   8.583   7.512  0.5525 -0.2274  0.2035
 1136SOL    HW1 5661   0.254   8.666   7.483  0.6479 -0.2683 -0.0321
 1136SOL    HW2 5662   0.385   8.599   7.519  0.4410  0.0378  1.3323
 1137SOL     OW 5663   2.418   5.735   7.489  0.2335  0.8796 -0.6100
 1137SOL    HW1 5664   2.426   5.688   7.406  0.3388 -0.3290  0.0531
 1137SOL    HW2 5665   2.344   5.693   7.533  1.8571 -0.4361  1.0760
 1138SOL     OW 5666   7.097   1.905   1.239 -0.5106 -0.0222  0.2598
 1138SOL    HW1 5667   7.167   1.946   1.290  0.0325 -0.6350  0.0228
 1138SOL    HW2 5668   7.136   1.891   1.153 -0.3368 -1.9200  0.6075
 1139SOL     OW 5669   0.766   1.816   7.234 -0.1968  0.3819 -0.0326
 1139SOL    HW1 5670   0.737   1.729   7.207 -1.0430  1.1644 -1.7439
 1139SOL    HW2 5671   0.829   1.798   7.304 -0.5940 -1.5864 -0.0996
 1140SOL     OW 5672   6.145   7.247   8.692  0.4475 -0.3842  0.4003
 1140SOL    HW1 5673   6.107   7.223   8.777  1.0811  0.3471  0.8992
 1140SOL    HW2 5674   6.127   7.171   8.636 -2.2710  0.1634  0.4182
 1141SOL     OW 5675  10.350   1.017   0.167  0.1203 -0.2249 -0.4050
 1141SOL    HW1 5676  10.383   0.942   0.118 -0.0344 -0.2757 -0.4298
 1141SOL    HW2 5677  10.264   0.989   0.199 -0.3921  0.3176 -1.2794
 1142SOL     OW 5678   4.771   0.333   1.243  0.2551 -0.2184  0.1525
 1142SOL    HW1 5679   4.788   0.246   1.280 -0.3608  0.2528  1.6548
 1142SOL    HW2 5680   4.687   0.324   1.197  0.3686 -0.5026  0.0004
 1143SOL     OW 5681   3.783   5.805   6.753 -0.2363  0.3746 -0.6474
 1143SOL    HW1 5682   3.831   5.809   6.670  1.0641 -0.7440 -0.0026
 1143SOL    HW2 5683   3.822   5.874   6.806  2.2012 -1.7429  0.5673
 1144SOL     OW 5684   3.388   2.709   8.839  0.6972  0.3403  0.5520
 1144SOL    HW1 5685   3.380   2.698   8.934  2.2316 -0.0056  0.6816
 1144SOL    HW2 5686   3.477   2.744   8.827  0.4501  0.5738 -0.7432
 1145SOL     OW 5687   7.931   6.502   1.413 -0.5790  0.7175 -0.3237
 1145SOL    HW1 5688   7.989   6.427   1.395  0.9070  1.7062  0.1445
 1145SOL    HW2 5689   7.848   6.462   1.440 -0.3161 -0.7557 -1.5129
 1146SOL     OW 5690   6.086   3.769   5.976 -0.3948 -0.7096 -0.0635
 1146SOL    HW1 5691   6.151   3.812   5.919  0.2123 -2.2344 -0.5727
 1146SOL    HW2 5692   6.132   3.754   6.058 -0.4306 -0.8908 -0.0769
 1147SOL     OW 5693   5.147   3.206   4.381  0.2992 -0.2002 -0.4047
 1147SOL    HW1 5694   5.148   3.289   4.333  0.6094 -0.5090 -0.9555
 1147SOL    HW2 5695   5.239   3.189   4.400  0.2657 -0.5679 -0.5673
 1148SOL     OW 5696   7.762   9.594   5.755  0.0972 -0.0770  0.0875
 1148SOL    HW1 5697   7.698   9.525   5.772  0.6206 -0.4304  0.7104
 1148SOL    HW2 5698   7.784   9.628   5.842  0.4480  0.3140 -0.1499
 1149SOL     OW 5699   8.255   8.965   7.398  0.2262 -0.2969  0.3461
 1149SOL    HW1 5700   8.281   9.035   7.339  2.0977  0.0367  1.4690
 1149SOL    HW2 5701   8.206   8.904   7.343  1.7196  0.0812 -1.5186
 1150SOL     OW 5702   5.192   0.096   7.606  0.0063 -0.5026  0.1624
 1150SOL    HW1 5703   5.205   0.183   7.645  3.3568  0.0317 -1.7727
 1150SOL    HW2 5704   5.267   0.045   7.637 -0.2338 -1.7411 -1.2099
 1151SOL     OW 5705   6.724   3.505   7.642  0.2837  0.3940 -0.2871
 1151SOL    HW1 5706   6.780   3.502   7.719 -0.7098  2.0117  0.5544
 1151SOL    HW2 5707   6.765   3.444   7.580  1.5185 -0.3823  1.2193
 1152SOL     OW 5708   5.571   0.925   1.584  0.1549 -0.0228  0.2388
 1152SOL    HW1 5709   5.597   0.999   1.638 -0.3170  0.7543 -0.5843
 1152SOL    HW2 5710   5.625   0.933   1.504 -0.3700 -0.1826 -0.1346
 1153SOL     OW 5711   7.812   8.344   8.459 -0.0033 -0.0096  0.7591
 1153SOL    HW1 5712   7.826   8.250   8.456  1.8971  0.2458 -1.1052
 1153SOL    HW2 5713   7.855   8.372   8.539  0.4500 -0.6140  0.7366
 1154SOL     OW 5714   6.193   3.518   0.862  0.2003  0.0431 -0.1902
 1154SOL    HW1 5715   6.247   3.585   0.818  0.6839 -1.6121 -2.2749
 1154SOL    HW2 5716   6.111   3.563   0.883  0.8706  1.5399 -0.6249
 1155SOL     OW 5717   3.108   9.713   5.277 -0.7307 -0.7138 -0.3705
 1155SOL    HW1 5718   3.179   9.756   5.325 -0.7581  0.3111 -1.2177
 1155SOL    HW2 5719   3.053   9.675   5.345  0.1556 -0.7705  0.3336
 1156SOL     OW 5720   8.557   8.853   6.719 -0.4607 -0.0214  0.2329
 1156SOL    HW1 5721   8.559   8.807   6.803  1.0025 -0.9366 -0.2524
 1156SOL    HW2 5722   8.640   8.901   6.717  0.1760 -1.1209 -1.2546
 1157SOL     OW 5723   2.041   1.342   1.297 -0.3218 -0.0183  0.5996
 1157SOL    HW1 5724   2.084   1.325   1.213 -2.8140  0.2146 -0.8067
 1157SOL    HW2 5725   2.027   1.255   1.335 -0.4635 -0.2220  0.0897
 1158SOL     OW 5726  10.067   7.512   6.332 -0.3755  0.5040  0.5049
 1158SOL    HW1 5727  10.034   7.447   6.270  0.8720 -0.5588  0.9167
 1158SOL    HW2 5728  10.106   7.580   6.277 -0.7880  0.4226  0.0998
 1159SOL     OW 5729   4.160   7.658   0.065 -0.3314  0.0982 -0.8247
 1159SOL    HW1 5730   4.212   7.626   0.140 -0.3182  2.2529  0.1520
 1159SOL    HW2 5731   4.208   7.626  -0.012  1.8552  1.0117  0.0590
 1160SOL     OW 5732   6.558  10.020   8.855 -0.2574  0.3330 -0.0532
 1160SOL    HW1 5733   6.632  10.059   8.901  0.7955 -0.6736 -0.8286
 1160SOL    HW2 5734   6.591  10.001   8.767 -1.6348  0.4277 -0.6290
 1161SOL     OW 5735   6.331   6.744   8.893 -0.1464  0.1461  0.0419
 1161SOL    HW1 5736   6.291   6.658   8.905 -0.3249 -0.0925 -2.0158
 1161SOL    HW2 5737   6.404   6.729   8.833 -0.4640  1.4821 -0.7189
 1162SOL     OW 5738   3.265   8.385   2.627  0.8473  0.1159 -0.2462
 1162SOL    HW1 5739   3.328   8.312   2.623 -2.0398 -2.8904  2.5711
 1162SOL    HW2 5740   3.307   8.450   2.683  2.6192 -0.3807 -0.9162
 1163SOL     OW 5741   8.240   2.173   4.261  0.4270  0.5972 -0.1937
 1163SOL    HW1 5742   8.148   2.156   4.243  0.5102 -0.7436  0.4870
 1163SOL    HW2 5743   8.278   2.086   4.275  1.6766  1.1604  0.0803
 1164SOL     OW 5744   7.481   4.260   3.314  0.0531  0.0130 -0.0702
 1164SOL    HW1 5745   7.474   4.241   3.407  0.5927  0.6552  0.1087
 1164SOL    HW2 5746   7.462   4.177   3.271  1.3291 -0.6836  0.6554
 1165SOL     OW 5747   8.110   5.591   1.818  0.1514  0.3264 -0.2587
 1165SOL    HW1 5748   8.030   5.567   1.772  0.7491 -2.0286 -0.1583
 1165SOL    HW2 5749   8.167   5.628   1.751 -0.6217  1.1087 -0.5072
 1166SOL     OW 5750   4.511   6.689   1.519 -0.1689 -0.3536 -1.2227
 1166SOL    HW1 5751   4.587   6.654   1.472 -1.5767 -0.9579 -3.2030
 1166SOL    HW2 5752   4.507   6.639   1.600  1.6183 -0.1759 -0.9860
 1167SOL     OW 5753   3.199   4.319   1.028  0.0764 -0.5415 -0.3130
 1167SOL    HW1 5754   3.169   4.229   1.014 -0.5549 -0.3866 -0.0073
 1167SOL    HW2 5755   3.291   4.318   1.002  0.0856 -1.2848 -0.2807
 1168SOL     OW 5756   9.151   0.767   5.820  0.0304  0.3407  0.2379
 1168SOL    HW1 5757   9.109   0.682   5.833  0.8020  0.0238  0.7446
 1168SOL    HW2 5758   9.203   0.780   5.899  0.7971  0.7651 -0.3196
 1169SOL     OW 5759   4.590   6.561   8.707  0.0681  0.1831 -0.0928
 1169SOL    HW1 5760   4.664   6.580   8.649  0.6553 -0.1825  0.5213
 1169SOL    HW2 5761   4.593   6.632   8.772  0.7990 -0.6161  0.7932
 1170SOL     OW 5762   3.890   6.984  10.223  0.0019 -0.5143 -0.7478
 1170SOL    HW1 5763   3.904   6.893  10.250 -1.3401 -0.5606 -0.1451
 1170SOL    HW2 5764   3.814   6.981  10.166 -0.4616  0.3107 -0.1917
 1171SOL     OW 5765   6.162  10.464   7.036 -0.0594 -0.1439 -0.1343
 1171SOL    HW1 5766   6.206  10.385   7.004  1.0813  0.7509 -0.8365
 1171SOL    HW2 5767   6.228  10.507   7.091 -1.1468 -0.3736  1.4429
 1172SOL     OW 5768   6.242   0.410   8.242  0.2051 -0.0080  0.3105
 1172SOL    HW1 5769   6.196   0.327   8.254  0.2023  0.0838  0.9328
 1172SOL    HW2 5770   6.297   0.419   8.320  4.1997 -1.9371 -1.9276
 1173SOL     OW 5771   4.665   8.774   5.242  0.1702  0.2782 -0.0681
 1173SOL    HW1 5772   4.702   8.783   5.154  1.8870  0.2218  0.6041
 1173SOL    HW2 5773   4.727   8.718   5.288  0.2833  1.7930  1.7099
 1174SOL     OW 5774   5.733   2.997   2.955 -0.5979 -0.1322 -0.0944
 1174SOL    HW1 5775   5.652   3.042   2.978  0.6236  0.9958  2.3961
 1174SOL    HW2 5776   5.799   3.066   2.947  0.0385 -0.9151 -3.0331
 1175SOL     OW 5777   1.216   9.608  10.009  0.0724 -0.0863  0.2103
 1175SOL    HW1 5778   1.188   9.608   9.917  0.3307  0.7149  0.1253
 1175SOL    HW2 5779   1.303   9.647  10.008  0.6723 -1.3718  0.6359
 1176SOL     OW 5780   1.844   6.710   9.238  0.0574  0.0244  0.6839
 1176SOL    HW1 5781   1.878   6.798   9.252 -0.8448  0.4612  0.2372
 1176SOL    HW2 5782   1.751   6.723   9.218  0.3869 -0.8119 -1.7331
 1177SOL     OW 5783   8.725   6.351   6.180  0.1584 -0.7238  1.0031
 1177SOL    HW1 5784   8.630   6.364   6.178  0.1769 -0.5867 -0.4369
 1177SOL    HW2 5785   8.761   6.438   6.195  0.0801 -0.4885 -0.0953
 1178SOL     OW 5786   1.062   7.795   3.050 -0.3933 -0.0579  0.7975
 1178SOL    HW1 5787   1.121   7.764   2.982  0.4662 -0.4200  1.6838
 1178SOL    HW2 5788   1.032   7.716   3.095  0.7615  0.2677  2.2142
 1179SOL     OW 5789   6.522   7.845   6.753 -0.1828  0.4026  0.5133
 1179SOL    HW1 5790   6.592   7.904   6.780  1.0416  0.2885 -2.0617
 1179SOL    HW2 5791   6.480   7.890   6.679 -0.3249 -1.1654 -0.4055
 1180SOL     OW 5792   4.798   6.645   2.221 -0.5715 -0.5785  0.1722
 1180SOL    HW1 5793   4.757   6.623   2.305  0.1072 -0.3089  0.5821
 1180SOL    HW2 5794   4.745   6.716   2.186 -1.2961 -1.1866  0.0200
 1181SOL     OW 5795   8.409   2.144   2.193 -0.0584  0.3172 -0.5582
 1181SOL    HW1 5796   8.361   2.224   2.171  0.6495  0.6541 -0.9039
 1181SOL    HW2 5797   8.500   2.173   2.202  0.4558 -0.7032 -2.1936
 1182SOL     OW 5798   5.619   6.750   7.158  0.0964  0.1379  0.4847
 1182SOL    HW1 5799   5.564   6.728   7.083  1.6119 -1.4723 -0.2199
 1182SOL    HW2 5800   5.612   6.673   7.216  1.0444  0.2017  0.7036
 1183SOL     OW 5801   9.042   1.242   5.619 -0.4159 -0.3063  0.3062
 1183SOL    HW1 5802   9.081   1.208   5.700 -1.2768  0.8333  1.2361
 1183SOL    HW2 5803   8.970   1.182   5.600  0.8217 -1.5729 -0.6076
 1184SOL     OW 5804   6.337   2.719   4.044 -0.2902 -0.0198 -0.2583
 1184SOL    HW1 5805   6.259   2.769   4.067  0.5372  0.3649  1.8883
 1184SOL    HW2 5806   6.393   2.782   3.997 -0.5177  0.2133 -0.2157
 1185SOL     OW 5807   0.193   6.652   3.312 -0.7660 -0.2054  0.2417
 1185SOL    HW1 5808   0.114   6.608   3.341 -1.2181 -0.8446 -1.8253
 1185SOL    HW2 5809   0.166   6.742   3.293 -0.9577 -0.3820 -0.3160
 1186SOL     OW 5810   3.697   3.255   5.833  0.0984  0.3513  0.0110
 1186SOL    HW1 5811   3.742   3.177   5.800  1.3935  1.3462 -0.6103
 1186SOL    HW2 5812   3.606   3.226   5.843  0.5273 -1.2177 -0.2917
 1187SOL     OW 5813   2.228   1.437   3.047  0.4431 -0.2884 -0.1368
 1187SOL    HW1 5814   2.134   1.419   3.050  0.3949 -0.8377 -2.8475
 1187SOL    HW2 5815   2.252   1.426   2.955  3.3212 -0.9154  0.5983
 1188SOL     OW 5816   3.491  10.231   8.942 -0.1273 -0.0576 -0.0222
 1188SOL    HW1 5817   3.501  10.148   8.895 -1.5770  0.9766 -2.3658
 1188SOL    HW2 5818   3.439  10.209   9.019 -1.0036 -1.2627 -0.9159
 1189SOL     OW 5819   8.799   3.879   8.859 -0.4428 -0.5235 -0.3762
 1189SOL    HW1 5820   8.776   3.912   8.772 -0.7809 -1.6345 -0.7248
 1189SOL    HW2 5821   8.891   3.854   8.851  0.1214  1.2251  0.1854
 1190SOL     OW 5822   1.322   4.697   6.626  0.0716  0.0747 -0.0974
 1190SOL    HW1 5823   1.404   4.730   6.664  0.8863  0.4469 -2.0385
 1190SOL    HW2 5824   1.331   4.602   6.628 -0.1171  0.0638  1.0239
 1191SOL     OW 5825   9.553   7.078  10.549 -0.2376  0.2038  0.2615
 1191SOL    HW1 5826   9.524   7.036  10.468 -1.2915  0.6046  0.4116
 1191SOL    HW2 5827   9.550   7.009  10.615 -1.2402  0.3151  0.3497
 1192SOL     OW 5828   9.457   2.346   2.838  0.0626 -0.2015 -0.1999
 1192SOL    HW1 5829   9.482   2.273   2.781  0.1243 -0.2523 -0.1067
 1192SOL    HW2 5830   9.485   2.320   2.925 -1.3409 -0.7763  0.1172
 1193SOL     OW 5831   5.214   1.297   9.917  0.0374  0.3753 -0.2230
 1193SOL    HW1 5832   5.257   1.215   9.942  0.1670  0.3571 -0.5015
 1193SOL    HW2 5833   5.160   1.320   9.993 -0.7128 -0.4442 -0.4840
 1194SOL     OW 5834   6.666   1.493   6.661 -0.0449 -0.2003 -0.4546
 1194SOL    HW1 5835   6.697   1.403   6.660  0.2993 -0.1164  0.8334
 1194SOL    HW2 5836   6.644   1.510   6.753  2.9377  2.0545 -0.0259
 1195SOL     OW 5837   3.788   2.755   3.047  0.2751  0.0802 -0.0757
 1195SOL    HW1 5838   3.715   2.779   2.989  0.8888 -0.8007 -1.2660
 1195SOL    HW2 5839   3.794   2.660   3.039  1.2935  0.1046  0.3379
 1196SOL     OW 5840   9.342  10.632   3.001  0.3482  0.0216 -0.0589
 1196SOL    HW1 5841   9.306  10.704   3.053  0.0109 -0.1267 -0.0832
 1196SOL    HW2 5842   9.436  10.636   3.016  0.2139 -0.2868  0.9116
 1197SOL     OW 5843   2.134   3.851   0.027 -0.0218  0.6254 -0.0088
 1197SOL    HW1 5844   2.160   3.824   0.116  1.5484 -0.4523 -0.7465
 1197SOL    HW2 5845   2.213   3.888  -0.011 -0.3068 -0.1038 -1.3858
 1198SOL     OW 5846   9.773   9.352   3.195  0.3624 -0.3105 -0.3376
 1198SOL    HW1 5847   9.862   9.325   3.174  0.4883  0.2842 -0.5772
 1198SOL    HW2 5848   9.722   9.271   3.190  0.7377 -0.5121 -1.0079
 1199SOL     OW 5849   4.957   6.110   3.396 -0.0885 -0.2191 -0.3888
 1199SOL    HW1 5850   4.895   6.044   3.429 -0.4581  0.1584 -0.3117
 1199SOL    HW2 5851   4.976   6.165   3.473 -1.4286  1.0421 -0.9080
 1200SOL     OW 5852   8.881   6.758   9.004  0.1418 -0.0810 -0.4402
 1200SOL    HW1 5853   8.821   6.748   8.930 -1.0461 -0.6139  0.5567
 1200SOL    HW2 5854   8.830   6.805   9.070  1.7560  2.0130 -0.5705
 1201SOL     OW 5855   6.645   1.349  10.513 -0.4878 -0.2807  0.1066
 1201SOL    HW1 5856   6.634   1.332  10.607  2.9665  0.0829  0.6971
 1201SOL    HW2 5857   6.685   1.269  10.478  0.5108  0.4595 -0.5069
 1202SOL     OW 5858   4.959   1.087   7.082 -0.0206 -0.4006  0.1049
 1202SOL    HW1 5859   5.012   1.133   7.016  0.1728  0.1799  0.6505
 1202SOL    HW2 5860   4.921   1.157   7.135  3.8374 -0.6921  3.8493
 1203SOL     OW 5861   4.483   6.676   2.225 -0.6176  0.2807 -0.3185
 1203SOL    HW1 5862   4.514   6.743   2.286 -1.1210  1.1350 -0.9739
 1203SOL    HW2 5863   4.480   6.721   2.140 -1.1011 -0.5373 -0.7427
 1204SOL     OW 5864   1.763  10.457   0.960  0.7319 -0.1157 -0.0124
 1204SOL    HW1 5865   1.772  10.363   0.974 -2.8451 -0.5402  0.5276
 1204SOL    HW2 5866   1.702  10.465   0.886  0.9029  1.7894 -0.0137
 1205SOL     OW 5867   8.529   6.025   6.737  0.4572  0.3290  0.0677
 1205SOL    HW1 5868   8.453   6.060   6.784  1.1373  1.3890  0.4276
 1205SOL    HW2 5869   8.492   5.983   6.660 -0.6834 -1.3110  1.4314
 1206SOL     OW 5870   1.297   6.323   8.568 -0.0560  0.1137  0.1973
 1206SOL    HW1 5871   1.232   6.256   8.545  1.9801 -1.5506 -1.1345
 1206SOL    HW2 5872   1.252   6.406   8.556 -1.9787 -0.9770 -0.4935
 1207SOL     OW 5873   1.217  10.039   9.455 -0.4496 -0.7162 -0.4604
 1207SOL    HW1 5874   1.258  10.103   9.396 -1.7054  0.6861  0.1172
 1207SOL    HW2 5875   1.168   9.981   9.396 -0.1289 -0.5342 -0.9212
 1208SOL     OW 5876   0.400   4.065   4.491 -0.0594  0.0010 -0.4280
 1208SOL    HW1 5877   0.332   4.107   4.438 -0.1052  1.7861  0.9502
 1208SOL    HW2 5878   0.370   4.076   4.581  1.0787 -1.0013  0.0946
 1209SOL     OW 5879   9.094   9.456   9.549 -0.3162 -0.0195  0.4422
 1209SOL    HW1 5880   9.070   9.520   9.616 -1.0005  0.6104 -0.3867
 1209SOL    HW2 5881   9.188   9.468   9.536 -0.1920 -0.0857  1.2093
 1210SOL     OW 5882   8.429   5.610   1.906 -0.8805  0.4170 -0.3584
 1210SOL    HW1 5883   8.452   5.580   1.994 -1.2715  2.4274  0.4840
 1210SOL    HW2 5884   8.377   5.539   1.869 -1.0641 -0.2977  1.1931
 1211SOL     OW 5885   3.217   6.093   9.459  0.3426  0.2769 -1.0345
 1211SOL    HW1 5886   3.204   6.114   9.367 -0.3348 -1.1924 -1.3159
 1211SOL    HW2 5887   3.284   6.024   9.458 -0.2975 -0.3738 -0.5264
 1212SOL     OW 5888   3.444   2.670   7.706  0.1063 -0.0919  0.3239
 1212SOL    HW1 5889   3.464   2.594   7.762 -1.1491 -0.4098  0.3805
 1212SOL    HW2 5890   3.353   2.691   7.727 -0.1541  0.2455 -1.0742
 1213SOL     OW 5891   7.737   1.614  10.389  0.1683 -0.2091  0.1797
 1213SOL    HW1 5892   7.809   1.577  10.439 -1.6222 -1.7320  1.7969
 1213SOL    HW2 5893   7.777   1.683  10.335  2.8141 -1.1757  0.7910
 1214SOL     OW 5894   1.087   5.706   6.502  0.2766 -0.0147  0.0295
 1214SOL    HW1 5895   1.061   5.755   6.581 -0.0045  1.4534 -0.9260
 1214SOL    HW2 5896   1.017   5.643   6.488  0.4882 -0.5220  1.1195
 1215SOL     OW 5897   1.297  10.297   9.700 -0.2400 -0.0717 -0.0311
 1215SOL    HW1 5898   1.256  10.335   9.622 -0.4403  1.0832  0.6113
 1215SOL    HW2 5899   1.295  10.203   9.685 -2.8222 -0.0550 -0.2131
 1216SOL     OW 5900   6.289   7.551   6.971 -0.1166 -0.1064 -0.5856
 1216SOL    HW1 5901   6.367   7.519   7.016  0.3165  0.2143 -1.1000
 1216SOL    HW2 5902   6.217   7.527   7.029  0.3796 -0.2120  0.0003
 1217SOL     OW 5903   5.403   8.520   1.988 -0.9018 -0.1978  0.4623
 1217SOL    HW1 5904   5.473   8.536   1.924 -0.8067  0.2380  0.6719
 1217SOL    HW2 5905   5.428   8.572   2.064 -1.0032 -0.7365  0.8692
 1218SOL     OW 5906   1.074  10.636   8.073  0.2637  0.3997 -0.1713
 1218SOL    HW1 5907   1.104  10.547   8.093 -0.4941  0.2093  0.1667
 1218SOL    HW2 5908   1.042  10.631   7.983  1.2784  0.6204 -0.5578
 1219SOL     OW 5909  10.072   6.540   1.419  0.5453 -0.3920  0.8759
 1219SOL    HW1 5910  10.055   6.536   1.513 -0.6455  2.1644  0.8681
 1219SOL    HW2 5911   9.999   6.491   1.380  0.4405 -0.5284  1.2378
 1220SOL     OW 5912   6.514   7.921   1.824  0.2680  0.2670 -0.0697
 1220SOL    HW1 5913   6.536   8.008   1.859 -0.3843  0.9955 -1.4059
 1220SOL    HW2 5914   6.454   7.884   1.889  0.7860  0.6781  0.6624
 1221SOL     OW 5915   6.283   1.371   8.073 -0.0764 -0.2996  0.4543
 1221SOL    HW1 5916   6.204   1.318   8.075  0.7653 -1.6523 -0.3112
 1221SOL    HW2 5917   6.265   1.438   8.007 -0.7669 -0.2823  0.6541
 1222SOL     OW 5918   1.468   3.698   9.133 -0.4980 -0.1188  0.0405
 1222SOL    HW1 5919   1.468   3.776   9.078  1.7809  0.6064  0.9446
 1222SOL    HW2 5920   1.528   3.638   9.089 -0.8888 -0.6753  0.2568
 1223SOL     OW 5921   5.807   7.065   3.525  0.7507 -0.1125  0.0594
 1223SOL    HW1 5922   5.842   7.070   3.436 -0.6960 -0.6382 -0.5624
 1223SOL    HW2 5923   5.727   7.118   3.522 -0.0768 -1.2859  0.6452
 1224SOL     OW 5924   4.761   3.712   1.502 -0.3356 -0.4459 -0.0464
 1224SOL    HW1 5925   4.805   3.722   1.586  0.4134  0.1857 -0.4882
 1224SOL    HW2 5926   4.756   3.801   1.467 -0.9219 -0.6621 -0.5256
 1225SOL     OW 5927   9.043   3.116   0.150 -0.4892 -0.2392 -0.3617
 1225SOL    HW1 5928   9.027   3.176   0.077 -1.7788 -0.5198 -0.3394
 1225SOL    HW2 5929   9.063   3.032   0.109 -1.7094 -0.5184 -0.4099
 1226SOL     OW 5930   4.111   3.365   0.877 -0.6737  0.3335  0.1877
 1226SOL    HW1 5931   4.047   3.296   0.862 -1.0716  0.6412  0.4689
 1226SOL    HW2 5932   4.099   3.390   0.968 -0.6626  0.9087  0.0341
 1227SOL     OW 5933   2.574   5.172   2.752 -0.8689 -0.0459 -0.5377
 1227SOL    HW1 5934   2.529   5.111   2.811 -1.2342 -0.1493 -0.9217
 1227SOL    HW2 5935   2.570   5.256   2.799 -0.3557 -0.3113 -0.0058
 1228SOL     OW 5936   4.910   0.082   1.913 -0.9920  0.2105  0.2908
 1228SOL    HW1 5937   4.920   0.089   2.008 -0.4817  0.0666  0.2499
 1228SOL    HW2 5938   4.990   0.121   1.878 -0.9994 -0.1003 -0.0734
 1229SOL     OW 5939   1.009   7.861   1.286 -0.2923  0.0206 -0.1370
 1229SOL    HW1 5940   0.956   7.883   1.362 -0.9498 -0.8974 -0.3262
 1229SOL    HW2 5941   0.998   7.935   1.227 -2.5353 -0.7624 -0.7929
 1230SOL     OW 5942   2.070   1.406  10.563 -0.0542  0.5492  0.3355
 1230SOL    HW1 5943   2.027   1.475  10.613 -0.7588  0.7525 -0.5284
 1230SOL    HW2 5944   2.125   1.360  10.627 -0.0455  1.5257  1.0389
 1231SOL     OW 5945   0.941   7.276  10.502  0.3196  0.1968  0.0579
 1231SOL    HW1 5946   0.856   7.243  10.474 -0.3586  1.1869  0.8507
 1231SOL    HW2 5947   0.921   7.332  10.577  1.5097  1.5781 -0.6049
 1232SOL     OW 5948   5.707   8.828   8.021 -0.3147  0.4269  0.4202
 1232SOL    HW1 5949   5.682   8.863   7.936 -0.2870  1.7714  0.9263
 1232SOL    HW2 5950   5.634   8.852   8.079 -0.5135 -0.8043  0.6982
 1233SOL     OW 5951   8.977   9.081  10.485  0.2083  0.3278 -0.3470
 1233SOL    HW1 5952   9.038   9.010  10.464 -0.7433 -0.0949 -1.8288
 1233SOL    HW2 5953   9.030   9.160  10.475  1.2236 -0.1161  1.1059
 1234SOL     OW 5954   8.318   3.048   3.110  0.4932 -0.3472 -0.0733
 1234SOL    HW1 5955   8.244   3.109   3.101  0.5240 -0.3537 -0.3592
 1234SOL    HW2 5956   8.344   3.029   3.021  1.3009  0.2069  0.0380
 1235SOL     OW 5957   2.159   1.656   2.609  0.3916  0.0267 -0.3066
 1235SOL    HW1 5958   2.112   1.629   2.688  2.5964 -2.3291  0.3410
 1235SOL    HW2 5959   2.237   1.700   2.641  1.2175 -0.7888 -1.1273
 1236SOL     OW 5960   9.579   4.356   2.731 -0.1523 -0.2617 -0.5917
 1236SOL    HW1 5961   9.565   4.326   2.641 -0.1083  0.5285 -0.8698
 1236SOL    HW2 5962   9.532   4.292   2.785  0.5719 -1.2643 -1.1077
 1237SOL     OW 5963   0.610   0.569   9.144 -0.0638  0.2835 -0.2095
 1237SOL    HW1 5964   0.691   0.532   9.111  0.6525  1.3721  0.2690
 1237SOL    HW2 5965   0.541   0.517   9.103  0.8625 -0.3840 -0.9502
 1238SOL     OW 5966   8.959   2.359   9.821 -0.2044  0.4457  0.5409
 1238SOL    HW1 5967   9.044   2.389   9.852  0.1418  0.1618 -0.1099
 1238SOL    HW2 5968   8.958   2.382   9.728  0.2009 -1.7603 -0.0694
 1239SOL     OW 5969   0.262   5.325   2.474 -0.1524 -0.3593  0.4319
 1239SOL    HW1 5970   0.355   5.304   2.466 -0.1324 -0.5120  1.0405
 1239SOL    HW2 5971   0.235   5.284   2.556 -0.6313  0.1580  0.5362
 1240SOL     OW 5972   9.930   4.921   6.563 -0.3688 -0.2253 -0.0892
 1240SOL    HW1 5973   9.913   5.013   6.541 -1.0766 -0.3393 -0.0510
 1240SOL    HW2 5974  10.023   4.909   6.546  0.4593  1.3069  2.6871
 1241SOL     OW 5975   0.863   6.833  10.398 -0.1476 -0.6330  0.0946
 1241SOL    HW1 5976   0.919   6.758  10.376  2.2157  0.9585  0.4034
 1241SOL    HW2 5977   0.914   6.885  10.459 -1.7964  1.1745  0.0419
 1242SOL     OW 5978   1.803   1.538   7.204 -0.0318  0.1134  0.2499
 1242SOL    HW1 5979   1.872   1.604   7.212 -2.3282  2.7254  0.2289
 1242SOL    HW2 5980   1.724   1.589   7.181 -1.8316 -2.7563 -0.4262
 1243SOL     OW 5981   1.572   7.629   6.448  0.9326 -0.1188  0.4681
 1243SOL    HW1 5982   1.567   7.537   6.474  1.7836 -0.6948 -1.2570
 1243SOL    HW2 5983   1.664   7.644   6.429  0.6022  0.7009 -0.5788
 1244SOL     OW 5984   7.618   0.520   0.200  0.5730 -0.1358 -0.3234
 1244SOL    HW1 5985   7.564   0.563   0.134 -0.2272 -3.0841 -1.7714
 1244SOL    HW2 5986   7.571   0.535   0.282 -1.8108 -1.4029 -1.3432
 1245SOL     OW 5987   3.238   9.938   6.092 -0.3547  0.2119 -0.0422
 1245SOL    HW1 5988   3.259   9.966   6.181  2.5761 -0.4145 -0.4276
 1245SOL    HW2 5989   3.172  10.001   6.062 -0.5231  1.1674  2.1426
 1246SOL     OW 5990   5.615   9.867   2.321 -0.3131 -0.0557 -0.0904
 1246SOL    HW1 5991   5.544   9.880   2.384  0.4474  0.7686  0.6321
 1246SOL    HW2 5992   5.679   9.936   2.343  1.3672 -1.6464  0.2319
 1247SOL     OW 5993   1.464   5.322   6.803  0.6506 -0.2901  0.0814
 1247SOL    HW1 5994   1.452   5.325   6.708  0.8268 -1.5500 -0.0046
 1247SOL    HW2 5995   1.386   5.277   6.836  1.8823 -2.5013  0.1952
 1248SOL     OW 5996   6.342   7.864   1.348 -0.4048  0.2327  0.2546
 1248SOL    HW1 5997   6.423   7.815   1.342 -0.1317  0.4989  1.4534
 1248SOL    HW2 5998   6.326   7.873   1.442 -2.3626 -0.6957  0.0673
 1249SOL     OW 5999   5.117   7.478   6.719  0.0243  0.0501  0.2304
 1249SOL    HW1 6000   5.163   7.428   6.651 -1.2182 -0.1639 -0.4863
 1249SOL    HW2 6001   5.149   7.568   6.709  2.0778 -0.4969  1.3571
 1250SOL     OW 6002   1.538   9.792   6.364 -0.1509  0.0813 -0.0341
 1250SOL    HW1 6003   1.516   9.838   6.282 -2.8798 -0.8856  0.0371
 1250SOL    HW2 6004   1.541   9.700   6.340  0.9606 -0.0736  0.6291
 1251SOL     OW 6005   3.150   9.124   6.822  0.0044 -0.6731 -0.1046
 1251SOL    HW1 6006   3.059   9.145   6.844  0.1519  1.2497 -1.0859
 1251SOL    HW2 6007   3.147   9.100   6.729  0.6451  0.9380 -0.5881
 1252SOL     OW 6008   1.886  10.006   4.484  0.3768  0.1366  0.0320
 1252SOL    HW1 6009   1.874  10.060   4.562 -4.6606  0.6879 -0.7341
 1252SOL    HW2 6010   1.870   9.916   4.513 -0.7849  0.2637 -0.1448
 1253SOL     OW 6011   4.486   4.074   5.694 -0.0418 -0.4699 -0.1207
 1253SOL    HW1 6012   4.537   4.008   5.649  1.0762  0.0709  0.3231
 1253SOL    HW2 6013   4.398   4.037   5.699  0.1653 -1.1957 -1.3587
 1254SOL     OW 6014   2.796  10.233  10.124  0.0241  0.6400 -0.1106
 1254SOL    HW1 6015   2.779  10.273  10.038  0.2423  1.3154  0.1542
 1254SOL    HW2 6016   2.726  10.265  10.180 -0.8337 -0.7833 -0.3244
 1255SOL     OW 6017   9.314   3.555   8.056 -0.2735 -0.3474 -0.0805
 1255SOL    HW1 6018   9.386   3.618   8.051 -1.9612  1.5940 -2.0621
 1255SOL    HW2 6019   9.267   3.578   8.136  0.1695 -0.3670  0.1928
 1256SOL     OW 6020   7.924   1.057  10.130  0.1504 -0.0802 -0.0529
 1256SOL    HW1 6021   7.925   0.974  10.082  1.6368 -0.3879  0.4559
 1256SOL    HW2 6022   7.832   1.077  10.141 -0.2362 -0.8288 -1.6071
 1257SOL     OW 6023   3.922   2.892   0.607 -0.5569  0.0864  0.5873
 1257SOL    HW1 6024   3.969   2.814   0.637  1.6119 -0.2364 -3.0499
 1257SOL    HW2 6025   3.845   2.857   0.562 -0.1201  0.0761 -0.1656
 1258SOL     OW 6026   1.472   0.837  10.503  0.4154 -0.1761 -0.6949
 1258SOL    HW1 6027   1.463   0.839  10.598 -2.5901 -0.6528 -0.8656
 1258SOL    HW2 6028   1.505   0.924  10.480  1.6117 -0.2043  0.7583
 1259SOL     OW 6029   8.218   8.446   3.438  0.0240 -0.0673 -0.1294
 1259SOL    HW1 6030   8.156   8.373   3.445  1.3665 -1.2439  0.0622
 1259SOL    HW2 6031   8.291   8.410   3.387  1.1666  0.8385  0.8296
 1260SOL     OW 6032   9.320   5.359   2.052  0.0051  0.1109  0.3614
 1260SOL    HW1 6033   9.229   5.381   2.030 -0.4339 -0.6277  1.3451
 1260SOL    HW2 6034   9.349   5.302   1.981 -0.4277  0.0622  0.2230
 1261SOL     OW 6035   3.165   6.510   1.529  0.6879  0.5009 -0.2117
 1261SOL    HW1 6036   3.180   6.481   1.619  0.9721 -0.2772 -0.5045
 1261SOL    HW2 6037   3.248   6.548   1.501 -0.1218  3.1771  0.7137
 1262SOL     OW 6038   6.999   3.218   0.057 -0.3684 -0.2317 -0.5690
 1262SOL    HW1 6039   6.969   3.128   0.051  0.1703 -0.4371 -0.2304
 1262SOL    HW2 6040   7.091   3.215   0.031  0.3434 -0.1929  1.7318
 1263SOL     OW 6041   6.713   7.657   6.985 -0.4728 -0.4763  0.2021
 1263SOL    HW1 6042   6.651   7.638   6.915 -1.1465 -0.1406  0.6909
 1263SOL    HW2 6043   6.753   7.740   6.960 -0.4246 -0.5513  0.0263
 1264SOL     OW 6044   6.015   8.958   6.086  0.1972  0.3854 -0.0554
 1264SOL    HW1 6045   5.935   8.999   6.053 -0.8534 -0.3839  1.4484
 1264SOL    HW2 6046   5.992   8.866   6.097  1.0131  0.3172  1.2563
 1265SOL     OW 6047   8.509   8.529   7.541  0.2249 -0.4079  0.2393
 1265SOL    HW1 6048   8.450   8.455   7.552  2.1303 -1.9442  0.7624
 1265SOL    HW2 6049   8.562   8.529   7.621  0.9856  0.8616 -0.2340
 1266SOL     OW 6050   2.351   1.288   2.055 -0.0452  0.4103  0.2892
 1266SOL    HW1 6051   2.259   1.264   2.064  0.0459 -0.8124 -1.6414
 1266SOL    HW2 6052   2.399   1.211   2.084  0.3587  0.6190  0.1766
 1267SOL     OW 6053   4.392   7.750   7.860 -0.2940 -0.6160 -0.2148
 1267SOL    HW1 6054   4.352   7.714   7.781 -0.0976 -1.6272  0.1242
 1267SOL    HW2 6055   4.461   7.687   7.882 -0.7120 -0.6465  1.0663
 1268SOL     OW 6056   1.026  10.564   9.962  0.0743  0.7934 -0.1943
 1268SOL    HW1 6057   1.067  10.619   9.895  0.5118  2.1163  1.1060
 1268SOL    HW2 6058   1.078  10.580  10.041 -1.1020  0.1346  0.7427
 1269SOL     OW 6059   3.682   0.207   4.784  0.1815  0.7451 -0.1487
 1269SOL    HW1 6060   3.760   0.247   4.821  0.1955  1.4015 -0.8545
 1269SOL    HW2 6061   3.628   0.282   4.757 -0.3160  0.2894 -0.4227
 1270SOL     OW 6062   5.439   7.022   8.447  0.1718  0.1307 -0.0094
 1270SOL    HW1 6063   5.362   7.079   8.449  1.1843  1.5728  2.2761
 1270SOL    HW2 6064   5.410   6.941   8.490 -0.0646  0.6962  0.9160
 1271SOL     OW 6065   2.493   8.505   9.530  0.0186 -0.2178 -0.7382
 1271SOL    HW1 6066   2.425   8.441   9.553  0.1835 -0.5863 -1.2618
 1271SOL    HW2 6067   2.476   8.526   9.437 -0.0724  0.5450 -0.5607
 1272SOL     OW 6068   0.986   2.293   4.854 -0.1928  0.6030  0.1701
 1272SOL    HW1 6069   1.002   2.213   4.803  0.9678 -0.1917  1.6596
 1272SOL    HW2 6070   0.965   2.360   4.789 -1.2224 -0.9151 -1.1278
 1273SOL     OW 6071   2.245   2.580   1.213  0.3278 -0.2659 -0.1110
 1273SOL    HW1 6072   2.167   2.557   1.163  1.7398  0.4381 -2.8169
 1273SOL    HW2 6073   2.241   2.523   1.290 -1.2740 -2.4699 -1.6830
 1274SOL     OW 6074  10.124   0.504   3.676 -0.9779 -0.0821 -0.5722
 1274SOL    HW1 6075  10.219   0.498   3.684 -1.1141 -1.5404  0.3186
 1274SOL    HW2 6076  10.110   0.568   3.607  0.6127  1.2983  0.3194
 1275SOL     OW 6077   8.538   1.862   6.801  1.2235 -0.1617  0.5260
 1275SOL    HW1 6078   8.546   1.841   6.708 -0.3791 -2.2013  0.7678
 1275SOL    HW2 6079   8.550   1.957   6.806 -1.9229  0.5570 -2.2722
 1276SOL     OW 6080   0.436   5.666   0.704 -0.4866 -0.5413  0.1129
 1276SOL    HW1 6081   0.378   5.589   0.701 -0.8275 -0.4343  2.3563
 1276SOL    HW2 6082   0.489   5.653   0.783  0.2651  0.9700 -0.1080
 1277SOL     OW 6083   3.387   6.807   4.137 -0.1093 -0.6614 -0.2131
 1277SOL    HW1 6084   3.384   6.892   4.092  2.5542 -0.0868  0.5276
 1277SOL    HW2 6085   3.323   6.816   4.208 -0.7402  0.2696 -0.8678
 1278SOL     OW 6086   9.268   8.573   2.805 -0.3622  0.1730  0.1494
 1278SOL    HW1 6087   9.313   8.503   2.853  0.7670  0.7113 -0.0974
 1278SOL    HW2 6088   9.286   8.554   2.713  0.3906  1.0625  0.1010
 1279SOL     OW 6089   2.106   1.538  10.333 -0.0919 -0.3639  0.1632
 1279SOL    HW1 6090   2.129   1.510  10.421  0.4323  1.6005  0.6895
 1279SOL    HW2 6091   2.081   1.630  10.342  0.8544  0.1467 -1.8610
 1280SOL     OW 6092   8.249   5.472   1.027 -0.3481 -0.1724 -0.2997
 1280SOL    HW1 6093   8.186   5.419   0.978  1.9759 -3.1402 -0.3165
 1280SOL    HW2 6094   8.262   5.550   0.972 -2.9038 -0.0829 -0.9297
 1281SOL     OW 6095   5.752   1.018   5.697 -0.2113 -0.2511 -0.1019
 1281SOL    HW1 6096   5.845   1.015   5.674 -0.5941 -2.2674 -1.6901
 1281SOL    HW2 6097   5.748   0.983   5.786  0.4059 -2.2621 -0.8107
 1282SOL     OW 6098   4.797   8.589   6.280  0.6240 -0.0463 -0.3229
 1282SOL    HW1 6099   4.758   8.650   6.217  1.8029  1.7607  0.6142
 1282SOL    HW2 6100   4.745   8.601   6.359  2.4173  1.7254  0.6624
 1283SOL     OW 6101   0.646   1.385   6.360 -0.3130 -0.0829 -0.1728
 1283SOL    HW1 6102   0.710   1.431   6.306  2.1475 -1.9166  1.0015
 1283SOL    HW2 6103   0.671   1.403   6.450 -0.7421 -1.7054  0.3179
 1284SOL     OW 6104   5.130  10.442   6.509  0.3679 -0.4033  0.5197
 1284SOL    HW1 6105   5.064  10.416   6.572 -0.9733  1.3037 -0.1089
 1284SOL    HW2 6106   5.193  10.494   6.559  0.1979 -0.4292  0.7585
 1285SOL     OW 6107   0.266   4.698   2.311 -0.0310 -0.3842 -0.1938
 1285SOL    HW1 6108   0.213   4.776   2.294  1.9240  0.8688 -0.8726
 1285SOL    HW2 6109   0.227   4.631   2.254  0.7049  1.2421 -2.7715
 1286SOL     OW 6110  10.269   5.855   7.670  0.2795  0.1403 -0.8384
 1286SOL    HW1 6111  10.247   5.942   7.704 -0.7357 -0.1676 -0.6756
 1286SOL    HW2 6112  10.189   5.825   7.627  0.0498 -1.3858  0.5357
 1287SOL     OW 6113   4.436   8.224   3.619  0.1127 -0.2773  0.3574
 1287SOL    HW1 6114   4.354   8.224   3.668  0.8704 -1.2635  1.6828
 1287SOL    HW2 6115   4.503   8.247   3.684  0.9513  0.0644 -0.5988
 1288SOL     OW 6116   0.548   6.525   8.103 -0.3777  0.3260 -0.3171
 1288SOL    HW1 6117   0.501   6.546   8.022 -0.0993 -0.2822 -0.6478
 1288SOL    HW2 6118   0.486   6.472   8.153 -0.3122  0.1437 -0.4276
 1289SOL     OW 6119   8.276  10.581   8.422  0.1900 -0.0708 -0.2187
 1289SOL    HW1 6120   8.254  10.674   8.409 -0.5883 -0.4089 -1.4128
 1289SOL    HW2 6121   8.345  10.564   8.359 -1.2825 -0.8720 -1.6861
 1290SOL     OW 6122   3.692   7.177   7.906  0.0898 -0.5320  0.9646
 1290SOL    HW1 6123   3.676   7.100   7.852 -1.3287 -0.1473  0.7919
 1290SOL    HW2 6124   3.722   7.142   7.990  1.1783 -1.1770  0.3327
 1291SOL     OW 6125   3.418   5.940   9.370 -0.6515  0.2541 -0.0257
 1291SOL    HW1 6126   3.413   5.927   9.275 -0.8850  1.2861 -0.1644
 1291SOL    HW2 6127   3.469   5.865   9.401  0.8969  0.7704 -1.1828
 1292SOL     OW 6128   4.166   3.475   8.919 -0.1185 -0.1379 -0.0795
 1292SOL    HW1 6129   4.179   3.409   8.986  2.4500  0.2018 -0.1675
 1292SOL    HW2 6130   4.221   3.548   8.945 -1.6026  1.3306 -0.8665
 1293SOL     OW 6131   9.330  10.401   2.209  0.3419 -0.2211 -0.5014
 1293SOL    HW1 6132   9.415  10.439   2.231  0.5054 -1.2072  0.7136
 1293SOL    HW2 6133   9.267  10.468   2.237  0.6334 -0.6444  1.3117
 1294SOL     OW 6134  10.405   4.121   7.448  0.3165  0.8521 -0.0798
 1294SOL    HW1 6135  10.472   4.091   7.510  0.7514  1.4681 -0.2489
 1294SOL    HW2 6136  10.377   4.041   7.403  0.3879  0.4792  0.5264
 1295SOL     OW 6137   2.147   2.133   8.034  0.0462 -0.1042 -0.1924
 1295SOL    HW1 6138   2.206   2.107   7.963  0.4461  1.5537 -0.5096
 1295SOL    HW2 6139   2.120   2.223   8.011  1.7697  1.3076  2.7312
 1296SOL     OW 6140   8.247   8.810   2.150 -0.3359 -0.5375  0.2008
 1296SOL    HW1 6141   8.244   8.873   2.078 -2.3245 -1.9512 -1.0474
 1296SOL    HW2 6142   8.183   8.841   2.213 -1.2637 -1.2305 -0.3807
 1297SOL     OW 6143   6.605   2.278   0.136 -0.2140  0.1588  0.8033
 1297SOL    HW1 6144   6.639   2.196   0.101  0.3193  0.3535  0.8523
 1297SOL    HW2 6145   6.603   2.264   0.231 -1.3188 -0.2413  0.7319
 1298SOL     OW 6146   3.550   2.657   7.271 -0.0958 -0.2780  0.2428
 1298SOL    HW1 6147   3.536   2.622   7.360 -0.2816  0.2346  0.4193
 1298SOL    HW2 6148   3.641   2.684   7.271 -0.4889  1.1530  0.8011
 1299SOL     OW 6149   4.359   2.723   9.823  0.2709 -0.3415  0.4704
 1299SOL    HW1 6150   4.354   2.817   9.811 -1.1386 -0.5178 -0.6767
 1299SOL    HW2 6151   4.398   2.691   9.741 -0.8756 -0.8606  0.1006
 1300SOL     OW 6152   3.464   5.055   3.916  0.1096  0.1543  0.2236
 1300SOL    HW1 6153   3.545   5.080   3.960 -0.8575  0.0288  2.2259
 1300SOL    HW2 6154   3.472   5.091   3.828  2.6307 -0.4808  0.1001
 1301SOL     OW 6155   1.073   6.109   4.114 -0.0685 -0.1088 -0.1573
 1301SOL    HW1 6156   1.085   6.197   4.149 -0.5617 -0.4686  0.9678
 1301SOL    HW2 6157   1.003   6.119   4.049  0.0259  0.3644 -0.1918
 1302SOL     OW 6158   7.903   3.234   8.217 -0.1540  0.1349 -0.1434
 1302SOL    HW1 6159   7.916   3.304   8.281  1.5161  0.5841 -0.9064
 1302SOL    HW2 6160   7.882   3.280   8.135  1.0796 -0.1936 -0.6784
 1303SOL     OW 6161   8.957   4.816   8.371 -0.0002  0.0591 -0.2073
 1303SOL    HW1 6162   9.041   4.844   8.407  0.2806 -0.3792 -0.5251
 1303SOL    HW2 6163   8.937   4.882   8.305  0.1599  0.0830 -0.2328
 1304SOL     OW 6164   0.072  10.642   5.379  0.1534  0.5333 -0.4384
 1304SOL    HW1 6165   0.029  10.578   5.436 -1.2917  0.7170 -1.2750
 1304SOL    HW2 6166   0.015  10.647   5.302  1.4898  1.1027 -1.4091
 1305SOL     OW 6167   9.297   3.357   6.279 -0.3336 -0.2501  0.6300
 1305SOL    HW1 6168   9.385   3.331   6.305 -0.7335 -1.5211  0.7762
 1305SOL    HW2 6169   9.293   3.450   6.299  1.8239  0.4523 -1.7073
 1306SOL     OW 6170   8.097   0.072   7.845 -0.2171 -0.1616  0.4409
 1306SOL    HW1 6171   8.028   0.022   7.888  0.3372  0.3057  1.9303
 1306SOL    HW2 6172   8.161   0.006   7.817 -0.7311 -0.4950  0.0404
 1307SOL     OW 6173   7.239   2.169   8.475  0.0354  0.4549  0.4039
 1307SOL    HW1 6174   7.210   2.078   8.480 -0.2836  0.5290  0.0390
 1307SOL    HW2 6175   7.202   2.210   8.553 -0.9304  0.5629 -0.0907
 1308SOL     OW 6176   2.671   8.123   7.007  0.5934  0.1502  0.1687
 1308SOL    HW1 6177   2.605   8.096   7.071  2.3433 -0.4918  1.8051
 1308SOL    HW2 6178   2.641   8.085   6.924 -1.2161  0.1467  0.7885
 1309SOL     OW 6179   4.004   2.716   6.321  0.4373  0.1092 -0.4146
 1309SOL    HW1 6180   3.992   2.673   6.405  2.2320  0.5252  0.0957
 1309SOL    HW2 6181   3.917   2.750   6.298 -0.4522 -1.5246  0.3948
 1310SOL     OW 6182   8.243   4.049   3.391 -0.1468  0.1367  0.2377
 1310SOL    HW1 6183   8.189   4.017   3.464  0.0041  2.5293  1.4696
 1310SOL    HW2 6184   8.179   4.080   3.326 -0.2791 -1.9405 -0.7299
 1311SOL     OW 6185   5.423   2.600   0.368  0.6253 -0.5968  0.5964
 1311SOL    HW1 6186   5.329   2.590   0.380  0.4402 -0.5899 -0.6430
 1311SOL    HW2 6187   5.433   2.687   0.329  0.9406 -1.3349 -1.0564
 1312SOL     OW 6188   9.814   9.263   2.359 -0.4624 -0.1716 -0.3930
 1312SOL    HW1 6189   9.769   9.318   2.423  0.8382  1.1150 -0.5606
 1312SOL    HW2 6190   9.899   9.243   2.399  0.1454  0.1926 -1.4718
 1313SOL     OW 6191   6.736  10.415   5.288  0.1079  0.4750 -0.0628
 1313SOL    HW1 6192   6.665  10.365   5.328  0.8462  0.8200  1.8086
 1313SOL    HW2 6193   6.777  10.355   5.226  0.3227 -0.9104  1.3634
 1314SOL     OW 6194   0.799   3.565   5.622 -0.2596  0.1637  0.4691
 1314SOL    HW1 6195   0.710   3.572   5.588 -0.1338  0.0521  0.1117
 1314SOL    HW2 6196   0.854   3.602   5.554 -0.0016 -0.0943  0.5329
 1315SOL     OW 6197   8.544   6.789   7.307 -0.1601 -0.0751  0.3670
 1315SOL    HW1 6198   8.561   6.877   7.276 -0.5353 -0.0418  0.2559
 1315SOL    HW2 6199   8.481   6.752   7.245 -1.0131  0.0329  1.1289
 1316SOL     OW 6200   3.803   3.679   8.804  0.3463 -0.1673 -0.0735
 1316SOL    HW1 6201   3.710   3.695   8.791 -0.1052 -2.9043 -0.7061
 1316SOL    HW2 6202   3.807   3.599   8.857  2.3527  0.3947  0.7415
 1317SOL     OW 6203   9.538   1.600   7.498 -0.7899 -0.0292  0.0386
 1317SOL    HW1 6204   9.509   1.689   7.476  0.3033  0.6143  1.1117
 1317SOL    HW2 6205   9.457   1.549   7.500 -1.3929  0.8232 -1.0304
 1318SOL     OW 6206   4.191   9.847   3.972 -0.0619 -0.1610  0.2179
 1318SOL    HW1 6207   4.133   9.923   3.975 -0.1868 -0.2506  0.0815
 1318SOL    HW2 6208   4.200   9.828   3.879 -0.5350 -0.6970  0.2784
 1319SOL     OW 6209   3.520   2.603   2.421 -0.0365 -0.2637  0.1433
 1319SOL    HW1 6210   3.467   2.621   2.499 -0.8251  0.1718 -0.4821
 1319SOL    HW2 6211   3.462   2.622   2.348  1.4278  1.5655 -0.5960
 1320SOL     OW 6212   2.803   3.752   3.133  0.2067  0.1854 -0.4442
 1320SOL    HW1 6213   2.755   3.718   3.057 -1.2596 -1.3377  1.0661
 1320SOL    HW2 6214   2.878   3.693   3.142  1.2231  1.2556 -1.5185
 1321SOL     OW 6215   2.975   2.099   9.764 -0.3307 -0.2507  0.2097
 1321SOL    HW1 6216   2.984   2.146   9.681 -1.8274 -0.8961 -0.3491
 1321SOL    HW2 6217   2.951   2.010   9.740 -0.1996 -0.6111  1.3223
 1322SOL     OW 6218   0.521   9.966   0.919 -0.2342 -0.1377  0.0236
 1322SOL    HW1 6219   0.496  10.056   0.940 -1.9156  0.1353 -2.6382
 1322SOL    HW2 6220   0.556   9.931   1.001 -0.3037  2.6492  1.3636
 1323SOL     OW 6221   5.792   4.198   1.834  0.3264  0.9343  0.7441
 1323SOL    HW1 6222   5.720   4.205   1.772  2.0697  1.8493 -1.3124
 1323SOL    HW2 6223   5.774   4.263   1.901 -0.2459  1.8939 -0.3193
 1324SOL     OW 6224   9.234   2.736   4.987  0.0658 -0.4465 -0.7002
 1324SOL    HW1 6225   9.324   2.757   4.965  0.3936 -0.9554  0.0909
 1324SOL    HW2 6226   9.220   2.775   5.073 -0.6222  0.0289 -1.0202
 1325SOL     OW 6227  10.114   9.992   4.670  0.5031  0.0117  0.0044
 1325SOL    HW1 6228  10.175   9.956   4.606 -0.0426 -1.5479  0.3203
 1325SOL    HW2 6229  10.038  10.018   4.617  1.5004  2.3464 -0.4489
 1326SOL     OW 6230   4.530   3.209   6.130  0.3956 -0.3763 -0.8613
 1326SOL    HW1 6231   4.513   3.290   6.083  0.8434 -0.1941 -0.7081
 1326SOL    HW2 6232   4.445   3.164   6.131 -0.8725  1.7438  2.2606
 1327SOL     OW 6233   6.352   2.111   5.266  0.0735 -0.2963  0.0803
 1327SOL    HW1 6234   6.391   2.041   5.214 -0.7207 -0.2395 -0.6148
 1327SOL    HW2 6235   6.393   2.191   5.234 -1.0041 -0.1757 -1.0577
 1328SOL     OW 6236   8.300   6.912   7.126  0.0905  0.1545  0.3620
 1328SOL    HW1 6237   8.295   6.894   7.032  1.2960  0.8477  0.1476
 1328SOL    HW2 6238   8.248   6.843   7.166 -0.8765  0.1516 -0.8446
 1329SOL     OW 6239   3.129   0.053   2.559  0.2158  0.1111  0.3533
 1329SOL    HW1 6240   3.109   0.081   2.469 -0.0748 -0.7216  0.1491
 1329SOL    HW2 6241   3.223   0.068   2.569  0.3642 -0.3319 -0.2978
 1330SOL     OW 6242  10.340   6.299   7.266 -0.0447 -0.0866 -0.6699
 1330SOL    HW1 6243  10.423   6.288   7.313  0.1744 -0.1866 -1.0682
 1330SOL    HW2 6244  10.291   6.362   7.318  1.1401  1.6044 -1.5340
 1331SOL     OW 6245  10.074   2.510   2.559  0.6764  0.0196  0.3025
 1331SOL    HW1 6246  10.157   2.515   2.512  0.2988 -2.1211 -0.7074
 1331SOL    HW2 6247  10.082   2.432   2.613 -0.5841 -0.0898  0.3666
 1332SOL     OW 6248   7.002   6.037   0.899 -0.0035  0.1491 -0.9908
 1332SOL    HW1 6249   7.029   6.127   0.917  2.1872 -0.6585  0.1405
 1332SOL    HW2 6250   7.067   5.983   0.943 -1.2609 -2.0183 -1.6252
 1333SOL     OW 6251   0.258   8.612   1.240  0.5715 -0.6858 -0.4954
 1333SOL    HW1 6252   0.279   8.519   1.238 -0.4249 -0.9421  0.3958
 1333SOL    HW2 6253   0.186   8.622   1.178 -1.2051 -1.0313  1.4278
 1334SOL     OW 6254   9.919   1.559   2.027  0.4591 -0.4190  0.3091
 1334SOL    HW1 6255   9.930   1.653   2.043  1.9552 -0.5440  0.1662
 1334SOL    HW2 6256   9.844   1.534   2.082 -0.6542  1.0479 -0.4866
 1335SOL     OW 6257   4.555   8.598   8.345 -0.0303  0.3841  0.2648
 1335SOL    HW1 6258   4.612   8.557   8.410 -1.8461 -0.6455  1.2814
 1335SOL    HW2 6259   4.470   8.557   8.358 -0.6379  0.6046 -2.3488
 1336SOL     OW 6260   9.826   6.999  10.349  0.0004 -0.1682 -0.4441
 1336SOL    HW1 6261   9.800   6.941  10.420  1.9992 -1.3342 -0.5800
 1336SOL    HW2 6262   9.883   6.945  10.294  2.1033  1.9220 -0.4845
 1337SOL     OW 6263   8.952   5.723   0.953  0.1181  0.3410 -0.7341
 1337SOL    HW1 6264   9.007   5.761   1.022 -0.1171 -0.1200 -0.2857
 1337SOL    HW2 6265   8.981   5.632   0.948  0.7522  0.5950 -1.8727
 1338SOL     OW 6266   7.193  10.087   8.233  0.4279 -0.3029  0.1459
 1338SOL    HW1 6267   7.240  10.027   8.175 -0.5472 -0.0197 -0.9761
 1338SOL    HW2 6268   7.224  10.174   8.208  0.8797 -0.2354  0.8904
 1339SOL     OW 6269   2.062   9.032   0.548  0.4067  0.1574  0.4947
 1339SOL    HW1 6270   2.140   9.057   0.597 -0.1196 -0.3249  1.6126
 1339SOL    HW2 6271   2.091   8.960   0.492  1.1652  1.1376 -0.3872
 1340SOL     OW 6272  10.102   8.804   0.003 -0.1102 -0.3760  0.2090
 1340SOL    HW1 6273  10.067   8.836  -0.080 -1.1813  0.0762  0.8109
 1340SOL    HW2 6274  10.193   8.782  -0.016  0.2673  1.6415 -0.6018
 1341SOL     OW 6275   6.048   5.708   4.680  0.0843 -0.1598 -0.6158
 1341SOL    HW1 6276   6.134   5.673   4.702 -0.5513 -0.8101  1.0283
 1341SOL    HW2 6277   5.988   5.634   4.694 -0.9154  0.7153 -0.1051
 1342SOL     OW 6278   1.945   7.475   8.314  0.2308 -0.5945 -0.3171
 1342SOL    HW1 6279   1.856   7.441   8.322 -0.1797  0.2256 -1.3142
 1342SOL    HW2 6280   1.988   7.415   8.254  0.7159 -1.6446  1.0143
 1343SOL     OW 6281   0.222   2.167   9.827  1.1978 -0.7613 -0.5768
 1343SOL    HW1 6282   0.225   2.240   9.766  1.4997  0.2706  0.6218
 1343SOL    HW2 6283   0.262   2.093   9.780  0.9971 -0.1283 -1.7594
 1344SOL     OW 6284  10.137   3.656   3.839 -0.3467 -0.1486  0.6406
 1344SOL    HW1 6285  10.143   3.721   3.909 -1.5322 -0.4610  1.0663
 1344SOL    HW2 6286  10.094   3.581   3.881  0.4261 -0.9667 -0.0046
 1345SOL     OW 6287   8.711   1.871   4.442 -0.0741  0.3896  0.1374
 1345SOL    HW1 6288   8.768   1.947   4.446 -0.5368  0.8052 -0.8278
 1345SOL    HW2 6289   8.633   1.897   4.491  0.2125  0.1279  0.7406
 1346SOL     OW 6290  10.366   8.541   7.238  0.1023  0.5557  0.2346
 1346SOL    HW1 6291  10.449   8.495   7.225 -0.9677 -1.4964  0.2819
 1346SOL    HW2 6292  10.332   8.506   7.321 -1.7604 -0.2211 -0.7924
 1347SOL     OW 6293   2.960   9.694   8.033  0.3488 -0.6913  0.2912
 1347SOL    HW1 6294   2.957   9.778   8.078  0.6404  0.8119 -2.3194
 1347SOL    HW2 6295   3.051   9.665   8.042  1.1348  0.9961 -1.6337
 1348SOL     OW 6296  10.119   4.507   4.096  0.3924 -0.2752  0.4116
 1348SOL    HW1 6297  10.104   4.601   4.086  1.1611 -0.1858  0.0686
 1348SOL    HW2 6298  10.209   4.500   4.127  1.1447 -0.9711 -1.7501
 1349SOL     OW 6299   5.290   3.471   1.341  0.0746 -0.3118  0.0304
 1349SOL    HW1 6300   5.326   3.507   1.260  0.4041 -0.5545  0.0681
 1349SOL    HW2 6301   5.359   3.413   1.374 -0.2384 -0.5576  0.2510
 1350SOL     OW 6302   6.737   3.384   5.107  0.3197 -0.4773 -0.4703
 1350SOL    HW1 6303   6.700   3.457   5.156  1.1587 -0.9469  0.8962
 1350SOL    HW2 6304   6.748   3.314   5.171  0.5573 -1.4470 -1.5242
 1351SOL     OW 6305   0.272   4.677   5.538  0.2439  0.0964 -0.3931
 1351SOL    HW1 6306   0.193   4.645   5.495 -0.1421  1.9829 -1.2029
 1351SOL    HW2 6307   0.259   4.772   5.545  2.0854  0.3568  0.1961
 1352SOL     OW 6308   2.915   0.916   8.064  0.4338 -0.0960  0.0490
 1352SOL    HW1 6309   2.872   0.831   8.057 -0.3071 -0.0292  2.7390
 1352SOL    HW2 6310   2.845   0.976   8.091  1.4946  0.7605  0.9810
 1353SOL     OW 6311   9.313   9.225   2.343 -0.3414 -0.3247  0.0925
 1353SOL    HW1 6312   9.284   9.136   2.323 -1.5707 -0.0597  0.5649
 1353SOL    HW2 6313   9.404   9.228   2.316 -0.3228 -1.6889 -0.0475
 1354SOL     OW 6314   2.332   0.948   0.341  0.4440  0.1780  0.3729
 1354SOL    HW1 6315   2.315   1.012   0.411 -0.5181 -0.2987  0.5916
 1354SOL    HW2 6316   2.245   0.925   0.308  0.9007  0.7352 -1.3115
 1355SOL     OW 6317   7.205   9.365   9.749  0.1249  0.2988  0.0740
 1355SOL    HW1 6318   7.297   9.357   9.775  0.5876 -0.6092 -1.6097
 1355SOL    HW2 6319   7.180   9.275   9.724 -1.6766  0.2453  1.7859
 1356SOL     OW 6320   1.759   8.273   7.460  0.4900 -0.8645 -0.4404
 1356SOL    HW1 6321   1.760   8.358   7.503 -2.2724 -0.4504 -0.9488
 1356SOL    HW2 6322   1.779   8.293   7.368  3.0210 -1.2727 -0.0301
 1357SOL     OW 6323  10.274   9.685   4.226 -0.2870 -0.6246 -0.1324
 1357SOL    HW1 6324  10.306   9.746   4.159  1.1835 -1.1900  0.0086
 1357SOL    HW2 6325  10.333   9.698   4.300 -1.3389 -0.6454  0.7288
 1358SOL     OW 6326   1.872   3.773   9.176  0.4572  0.0433  0.4095
 1358SOL    HW1 6327   1.885   3.789   9.082  1.8688  1.4188  0.7883
 1358SOL    HW2 6328   1.859   3.679   9.183 -2.3535  0.1859 -1.4134
 1359SOL     OW 6329   6.882   6.546   7.360 -0.3605  0.2509  0.6360
 1359SOL    HW1 6330   6.846   6.464   7.392 -1.5791 -0.0862 -1.3781
 1359SOL    HW2 6331   6.808   6.587   7.314  0.2266  2.4600  1.5449
 1360SOL     OW 6332   1.280   2.214   1.194 -0.3518  0.2183 -0.6052
 1360SOL    HW1 6333   1.241   2.256   1.271  0.3188  1.0956 -0.7312
 1360SOL    HW2 6334   1.206   2.201   1.134 -0.6005  1.0895 -0.5018
 1361SOL     OW 6335   5.197   9.820   5.772  0.5177  0.0716 -0.1056
 1361SOL    HW1 6336   5.206   9.749   5.836  0.9146  1.0883  1.0178
 1361SOL    HW2 6337   5.103   9.824   5.753  0.6138 -1.3879 -0.9489
 1362SOL     OW 6338   9.695   4.336   8.644 -0.1351 -0.5352 -0.6711
 1362SOL    HW1 6339   9.702   4.395   8.720  0.3393 -0.7354 -0.5594
 1362SOL    HW2 6340   9.689   4.249   8.682 -0.7764 -0.5730 -0.8413
 1363SOL     OW 6341   9.586   4.609   9.397 -0.0332  0.7037 -0.2780
 1363SOL    HW1 6342   9.588   4.596   9.492 -0.5463 -0.0030 -0.3542
 1363SOL    HW2 6343   9.676   4.589   9.369 -0.3803 -1.2432 -0.1784
 1364SOL     OW 6344   6.303   5.124   6.549 -0.3243  0.3089  0.5804
 1364SOL    HW1 6345   6.320   5.032   6.568 -1.3834  0.0836  0.5338
 1364SOL    HW2 6346   6.224   5.123   6.495  1.7065  1.0309 -2.6570
 1365SOL     OW 6347   1.257  10.372  10.233 -0.4744  0.2106  0.1075
 1365SOL    HW1 6348   1.213  10.451  10.202 -0.3969  0.3947  0.4524
 1365SOL    HW2 6349   1.350  10.388  10.216 -0.4005  0.4442  0.7026
 1366SOL     OW 6350   1.427  10.246   7.038  0.0364 -0.4307  0.0732
 1366SOL    HW1 6351   1.378  10.163   7.035  0.7457 -0.8480 -0.1844
 1366SOL    HW2 6352   1.518  10.220   7.026  0.5481  0.1352  2.2661
 1367SOL     OW 6353   9.645   4.549   9.836 -0.3041 -0.9523  0.1606
 1367SOL    HW1 6354   9.655   4.494   9.914  1.2360 -1.7348 -0.5475
 1367SOL    HW2 6355   9.735   4.565   9.807 -0.8063  0.5292 -0.6335
 1368SOL     OW 6356   8.166   5.574   4.503  0.2731  0.3695  0.0060
 1368SOL    HW1 6357   8.247   5.548   4.547 -0.1778 -2.5533 -0.6905
 1368SOL    HW2 6358   8.101   5.580   4.573  0.6659  0.8140  0.3348
 1369SOL     OW 6359   4.945   1.996   4.828  0.1794 -0.1975  0.1329
 1369SOL    HW1 6360   5.037   1.973   4.843  0.2299 -0.4012 -0.4614
 1369SOL    HW2 6361   4.937   2.003   4.732 -0.5434 -0.7024  0.1449
 1370SOL     OW 6362  10.011   2.474   7.581  0.6752  0.3807  0.1527
 1370SOL    HW1 6363  10.042   2.461   7.671  2.6714 -0.2894 -0.5719
 1370SOL    HW2 6364   9.999   2.386   7.547 -1.0950  0.6286  0.0439
 1371SOL     OW 6365   5.467   4.240   3.437 -0.1683  0.3353  0.6063
 1371SOL    HW1 6366   5.557   4.264   3.414 -1.2676  2.3233 -2.2479
 1371SOL    HW2 6367   5.476   4.173   3.505  3.4598 -0.2624 -0.2723
 1372SOL     OW 6368   7.323   9.390   0.469  0.2161 -0.7748 -0.1206
 1372SOL    HW1 6369   7.330   9.407   0.375 -1.0246  1.2677  0.0972
 1372SOL    HW2 6370   7.278   9.467   0.504 -0.2258 -1.9346  2.0157
 1373SOL     OW 6371   7.445   8.191   9.128  0.0112 -0.0617  0.1267
 1373SOL    HW1 6372   7.460   8.096   9.131  0.3293 -0.0017  0.8220
 1373SOL    HW2 6373   7.533   8.229   9.128 -0.1155  0.2307 -0.2443
 1374SOL     OW 6374   0.638   6.360   7.462 -0.1946 -0.0391 -0.1385
 1374SOL    HW1 6375   0.689   6.438   7.482  2.4031 -1.3231 -1.3106
 1374SOL    HW2 6376   0.669   6.295   7.525 -1.0127 -0.6711 -0.3651
 1375SOL     OW 6377   4.057  10.430   7.065  0.4661 -0.1763 -0.2489
 1375SOL    HW1 6378   4.046  10.380   7.146  1.6397 -1.6177 -0.9313
 1375SOL    HW2 6379   3.970  10.466   7.047 -0.3688 -1.7700  0.4152
 1376SOL     OW 6380   5.690   0.298   9.901  0.9080  0.3101 -0.1558
 1376SOL    HW1 6381   5.740   0.218   9.884  1.8576  1.0162 -0.7927
 1376SOL    HW2 6382   5.664   0.291   9.993 -0.5355 -1.5341 -0.6522
 1377SOL     OW 6383   3.693   6.447   4.005  0.0678 -0.3073  0.3012
 1377SOL    HW1 6384   3.713   6.537   4.029 -1.9068  0.4125 -0.5802
 1377SOL    HW2 6385   3.623   6.421   4.064  0.2507 -1.0887  0.1903
 1378SOL     OW 6386   0.864   2.626   0.695  0.3449  0.0798  0.3848
 1378SOL    HW1 6387   0.929   2.604   0.762 -2.1747 -1.2504  2.5895
 1378SOL    HW2 6388   0.838   2.716   0.715 -0.3339 -0.2822  1.1867
 1379SOL     OW 6389   8.304   1.091   2.204  0.4333  0.3709 -0.5019
 1379SOL    HW1 6390   8.311   1.169   2.260 -0.1193  0.0568  0.0183
 1379SOL    HW2 6391   8.299   1.018   2.265 -1.7455  0.1318 -0.8722
 1380SOL     OW 6392   5.840   6.823   7.583  0.8342  0.3697 -0.1448
 1380SOL    HW1 6393   5.802   6.763   7.519  0.5547 -0.1313  0.4899
 1380SOL    HW2 6394   5.774   6.831   7.652  1.2891  0.5964  0.2720
 1381SOL     OW 6395   3.690  10.484   0.489 -0.2425  0.2822  0.0124
 1381SOL    HW1 6396   3.739  10.501   0.409  0.4294  0.4890  0.4659
 1381SOL    HW2 6397   3.607  10.531   0.477 -0.6076 -0.5896 -1.0220
 1382SOL     OW 6398   6.990   4.924   0.408 -0.2453  0.5294  0.0538
 1382SOL    HW1 6399   7.071   4.913   0.358 -0.3045  0.1353  0.0438
 1382SOL    HW2 6400   6.954   5.007   0.376  0.3674  0.9260  0.3632
 1383SOL     OW 6401   2.324   9.613   5.238 -0.3946  0.2628  0.4301
 1383SOL    HW1 6402   2.391   9.555   5.201 -0.8346 -1.0602  1.6200
 1383SOL    HW2 6403   2.330   9.599   5.332 -1.0282  1.6146  0.6872
 1384SOL     OW 6404   4.447   0.488   4.314 -0.3960 -1.0159  0.0851
 1384SOL    HW1 6405   4.398   0.546   4.256 -1.0873 -3.0407 -1.4378
 1384SOL    HW2 6406   4.481   0.419   4.257  0.1456 -2.2956  1.8589
 1385SOL     OW 6407   6.577   6.035   7.288  0.3471  0.3251 -0.4552
 1385SOL    HW1 6408   6.514   6.020   7.358 -1.2750  0.6627 -1.7629
 1385SOL    HW2 6409   6.637   5.961   7.292 -0.0966  0.0184  0.8678
 1386SOL     OW 6410   7.290  10.575   6.723 -0.0615  0.7346 -0.5779
 1386SOL    HW1 6411   7.307  10.507   6.658  0.5893  0.5557 -0.2280
 1386SOL    HW2 6412   7.205  10.611   6.699 -1.0661 -1.1143  0.0088
 1387SOL     OW 6413   8.443   3.535   6.698  0.1549 -0.6910  0.0233
 1387SOL    HW1 6414   8.522   3.482   6.691 -1.0707 -2.5012 -0.7841
 1387SOL    HW2 6415   8.373   3.480   6.661 -1.2750  1.3060 -0.4190
 1388SOL     OW 6416   7.028   3.874   6.509 -0.1617  0.0128  0.2278
 1388SOL    HW1 6417   7.111   3.922   6.506  0.6104 -1.0253  2.4202
 1388SOL    HW2 6418   6.972   3.919   6.447  2.0463  0.7212 -1.3773
 1389SOL     OW 6419   9.675   0.335   6.244  0.5447 -0.0253 -0.2461
 1389SOL    HW1 6420   9.606   0.371   6.300  2.0719 -0.4707  2.0543
 1389SOL    HW2 6421   9.734   0.409   6.227  0.2897  0.0176 -0.9580
 1390SOL     OW 6422   2.740   0.989   6.326 -0.0260  0.2286 -0.0593
 1390SOL    HW1 6423   2.732   0.989   6.422  1.2636 -1.9638  0.1262
 1390SOL    HW2 6424   2.657   1.024   6.295 -0.4979  0.9398  1.8619
 1391SOL     OW 6425   3.846   4.197   4.235 -0.5982 -0.6710  0.0299
 1391SOL    HW1 6426   3.819   4.124   4.291 -0.9762 -0.2030  0.4731
 1391SOL    HW2 6427   3.903   4.249   4.291 -0.7052 -0.3846 -0.1302
 1392SOL     OW 6428   6.648   1.638   6.425 -0.3364  0.1317 -0.2474
 1392SOL    HW1 6429   6.660   1.594   6.509 -3.4727  0.0609  0.2885
 1392SOL    HW2 6430   6.609   1.722   6.448  0.8174  1.0715 -1.5589
 1393SOL     OW 6431   7.318   7.144   1.932 -0.1235 -0.1953  0.0938
 1393SOL    HW1 6432   7.284   7.214   1.876 -1.9895 -1.6106 -0.6203
 1393SOL    HW2 6433   7.247   7.124   1.993  1.4758  0.5577  2.3765
 1394SOL     OW 6434   9.690   0.794   2.115  0.7800  0.1852  0.0132
 1394SOL    HW1 6435   9.683   0.885   2.086  0.7103 -0.0027 -0.5678
 1394SOL    HW2 6436   9.775   0.790   2.159  0.4809  0.6958  0.6688
 1395SOL     OW 6437   8.498  10.362   3.870  0.0942  0.0097 -0.4661
 1395SOL    HW1 6438   8.459  10.373   3.784 -0.1279 -0.1173 -0.3815
 1395SOL    HW2 6439   8.446  10.419   3.928  0.8793  0.8981 -0.6008
 1396SOL     OW 6440   4.803   3.943   3.155 -0.0393  0.2375  0.2276
 1396SOL    HW1 6441   4.845   3.984   3.230  0.6472  0.8820 -0.4850
 1396SOL    HW2 6442   4.857   3.969   3.080 -0.2372 -1.0552 -0.3972
 1397SOL     OW 6443   2.813   4.033   2.586 -0.3130 -0.3401 -0.1759
 1397SOL    HW1 6444   2.786   4.119   2.617 -2.0221 -0.0439 -2.1926
 1397SOL    HW2 6445   2.730   3.985   2.574  0.2055 -0.7128 -3.1691
 1398SOL     OW 6446   1.402   3.126   0.548  0.0091  0.5178 -0.0281
 1398SOL    HW1 6447   1.311   3.149   0.569 -0.6383 -2.1360  0.4100
 1398SOL    HW2 6448   1.416   3.162   0.461 -2.3293 -1.0690 -1.1515
 1399SOL     OW 6449   1.841   2.863   2.229 -0.1432 -0.3751  0.1039
 1399SOL    HW1 6450   1.802   2.776   2.218  0.0246 -0.1714 -2.6616
 1399SOL    HW2 6451   1.867   2.890   2.141 -1.2268  2.9994  0.6696
 1400SOL     OW 6452   6.636   5.764   4.986 -0.6193  0.4707 -0.6225
 1400SOL    HW1 6453   6.704   5.696   4.993  1.1692  2.2241 -0.1862
 1400SOL    HW2 6454   6.636   5.787   4.893 -1.1368 -0.0132 -0.7477
 1401SOL     OW 6455   2.480   6.437   2.393 -0.3559 -0.0468 -0.0642
 1401SOL    HW1 6456   2.475   6.373   2.322  1.2155  0.3605 -0.5608
 1401SOL    HW2 6457   2.419   6.506   2.367  0.8724  0.5383 -1.4967
 1402SOL     OW 6458   5.173   4.085   8.939  0.1307 -0.0717  0.3281
 1402SOL    HW1 6459   5.186   4.014   9.002  1.7779 -0.7134 -0.6606
 1402SOL    HW2 6460   5.085   4.071   8.904 -0.1658 -0.6915  1.2860
 1403SOL     OW 6461   4.683   3.740   7.205 -0.1464 -0.9796 -0.1422
 1403SOL    HW1 6462   4.757   3.750   7.265  1.1516  0.6295 -1.9099
 1403SOL    HW2 6463   4.616   3.801   7.238 -0.9535 -2.7189  1.6872
 1404SOL     OW 6464   3.686   9.021   3.039 -0.9519  0.3157  0.0186
 1404SOL    HW1 6465   3.672   8.988   2.951  1.5132 -1.9826  0.3415
 1404SOL    HW2 6466   3.626   8.969   3.094 -0.2724 -0.5233 -0.0006
 1405SOL     OW 6467   1.291   7.589   3.298  0.3368 -0.0520  0.1613
 1405SOL    HW1 6468   1.310   7.523   3.230 -1.5748  1.5269 -2.0989
 1405SOL    HW2 6469   1.205   7.564   3.332 -0.3220  1.1011 -0.5863
 1406SOL     OW 6470   4.875   3.922   4.266 -0.2328  0.0906 -0.6518
 1406SOL    HW1 6471   4.965   3.942   4.289 -0.8496  1.4618  0.7893
 1406SOL    HW2 6472   4.843   4.002   4.224 -1.1255  0.0906  0.0028
 1407SOL     OW 6473   5.156   6.362   2.786  0.3244 -0.0358  0.3889
 1407SOL    HW1 6474   5.158   6.408   2.703 -1.2195 -0.9692 -0.2248
 1407SOL    HW2 6475   5.178   6.428   2.851  1.4697  0.7336 -0.7330
 1408SOL     OW 6476   0.923   7.670   9.228  0.0643  0.3231 -0.0265
 1408SOL    HW1 6477   0.936   7.756   9.269  0.6498  2.2210 -3.8107
 1408SOL    HW2 6478   1.011   7.633   9.222 -0.2294 -0.8877  1.9908
 1409SOL     OW 6479   7.282   1.851   1.049 -0.1108 -0.1992  0.7663
 1409SOL    HW1 6480   7.306   1.927   0.997  0.8899  0.7424  2.5014
 1409SOL    HW2 6481   7.361   1.796   1.051 -0.1816 -0.2947  1.1509
 1410SOL     OW 6482   9.537   6.755   6.063 -0.3259 -0.0195 -0.0753
 1410SOL    HW1 6483   9.550   6.807   5.984 -1.5062 -1.7448 -1.4817
 1410SOL    HW2 6484   9.457   6.789   6.101  0.7306  1.4351  0.9566
 1411SOL     OW 6485   9.906   9.407   3.608 -0.2847 -0.2831  0.2754
 1411SOL    HW1 6486   9.934   9.324   3.571 -2.1023 -0.7320 -0.1710
 1411SOL    HW2 6487   9.846   9.383   3.679 -0.3186  0.6344  0.5696
 1412SOL     OW 6488   0.615   6.921   4.164  0.5025 -0.3747 -0.1470
 1412SOL    HW1 6489   0.693   6.867   4.172 -0.4808 -1.7132  1.0405
 1412SOL    HW2 6490   0.611   6.969   4.247  0.8965  0.9151 -0.8448
 1413SOL     OW 6491   4.000   7.450   9.831 -0.4561 -0.2568 -0.0459
 1413SOL    HW1 6492   4.012   7.366   9.787  0.2951  0.0726 -0.4787
 1413SOL    HW2 6493   4.088   7.485   9.841 -0.8277  0.9011 -0.6932
 1414SOL     OW 6494   9.254   6.462   3.702  0.3339 -0.2079  0.2422
 1414SOL    HW1 6495   9.241   6.487   3.610 -0.2549 -0.2176  0.3186
 1414SOL    HW2 6496   9.166   6.464   3.740  0.7691  1.5161  1.2582
 1415SOL     OW 6497   0.997   8.805   7.752 -0.5601  0.0907 -0.3561
 1415SOL    HW1 6498   1.047   8.781   7.830 -0.2168  0.4353 -0.4659
 1415SOL    HW2 6499   1.028   8.893   7.731 -0.9736  0.1719 -0.6218
 1416SOL     OW 6500   0.866   2.310   0.839  0.1329  0.4847  0.2543
 1416SOL    HW1 6501   0.949   2.267   0.818  0.2945  1.3429 -0.9696
 1416SOL    HW2 6502   0.821   2.319   0.755 -0.6830  1.0918  0.7404
 1417SOL     OW 6503   3.186   1.668   9.171  0.0533  0.4761  0.0239
 1417SOL    HW1 6504   3.160   1.701   9.256 -0.1493 -0.4874  0.3439
 1417SOL    HW2 6505   3.124   1.708   9.109  1.3548  2.6849  0.0525
 1418SOL     OW 6506   1.129  10.303   2.786  0.1725 -0.4267  0.4274
 1418SOL    HW1 6507   1.069  10.360   2.835 -0.3554 -1.5097  1.1014
 1418SOL    HW2 6508   1.134  10.223   2.840  0.3302 -1.2854 -0.8278
 1419SOL     OW 6509   6.835   0.007   2.556 -0.0003  0.3162 -0.2785
 1419SOL    HW1 6510   6.845   0.051   2.640 -0.2162  0.2852 -0.2350
 1419SOL    HW2 6511   6.885  -0.074   2.565 -1.8474 -0.7879  0.6329
 1420SOL     OW 6512   1.056   9.017   4.719  0.2885 -0.0068  0.3478
 1420SOL    HW1 6513   1.142   9.056   4.703  0.8929 -1.6649 -0.7055
 1420SOL    HW2 6514   1.062   8.979   4.807  0.9506 -0.8572 -0.0524
 1421SOL     OW 6515  10.557   2.073   5.831 -0.7435  0.0095 -0.5743
 1421SOL    HW1 6516  10.634   2.038   5.788  2.5862  1.8063  3.2834
 1421SOL    HW2 6517  10.564   2.168   5.821 -0.8523  0.3763  2.0541
 1422SOL     OW 6518   1.713   8.754  10.240 -0.5401 -0.0290  0.3124
 1422SOL    HW1 6519   1.633   8.709  10.211 -0.6306 -0.1494  0.7411
 1422SOL    HW2 6520   1.707   8.754  10.335 -0.2717  0.4139  0.3312
 1423SOL     OW 6521   0.207   6.813   4.983 -0.1547 -0.1502  0.0317
 1423SOL    HW1 6522   0.289   6.859   4.967  0.2493 -0.6574  0.5692
 1423SOL    HW2 6523   0.232   6.720   4.983 -0.8277 -0.3343 -0.3643
 1424SOL     OW 6524  10.247   0.540   8.819  0.0804  0.3038  0.1973
 1424SOL    HW1 6525  10.258   0.534   8.724  0.7974  2.6331  0.0582
 1424SOL    HW2 6526  10.209   0.627   8.833 -1.0825 -0.4317  1.9947
 1425SOL     OW 6527   7.488   9.291   7.196 -0.0790 -0.3850  0.1418
 1425SOL    HW1 6528   7.432   9.279   7.273  0.5505  2.8161  1.2529
 1425SOL    HW2 6529   7.437   9.345   7.137  1.1167  1.0917  0.3984
 1426SOL     OW 6530   9.232   0.879   6.569  0.4525  0.0328 -0.0352
 1426SOL    HW1 6531   9.326   0.867   6.578  0.6151  1.4052  0.2993
 1426SOL    HW2 6532   9.213   0.959   6.618 -0.9843 -0.5346  0.4103
 1427SOL     OW 6533   2.015   7.979   4.093  0.2423  0.2925  0.2230
 1427SOL    HW1 6534   2.019   7.883   4.092  0.0914  0.2839  0.4451
 1427SOL    HW2 6535   1.922   7.999   4.106  0.1686  0.4741 -0.5602
 1428SOL     OW 6536   0.552  10.161   6.535  0.0191  0.1676  0.3176
 1428SOL    HW1 6537   0.570  10.183   6.626  0.5399  1.8603 -0.1650
 1428SOL    HW2 6538   0.479  10.219   6.510 -0.1640 -0.3273 -0.3308
 1429SOL     OW 6539   0.334  10.160  10.554  0.7228  0.0084 -0.2388
 1429SOL    HW1 6540   0.373  10.188  10.636  2.0825  2.1016 -1.4889
 1429SOL    HW2 6541   0.295  10.240  10.517 -0.2459 -0.9599 -1.4269
 1430SOL     OW 6542   4.044   8.769   9.811 -0.4788 -0.0826  0.2512
 1430SOL    HW1 6543   4.133   8.750   9.839  0.9739  2.7931 -1.8562
 1430SOL    HW2 6544   4.015   8.690   9.766  2.2700 -0.0948 -1.7140
 1431SOL     OW 6545   0.067   8.513   3.072 -0.0461  0.1919  0.0518
 1431SOL    HW1 6546   0.048   8.577   3.140 -0.0308  0.4192 -0.1550
 1431SOL    HW2 6547  -0.018   8.477   3.048 -0.1393  0.6729 -0.3531
 1432SOL     OW 6548   2.205   1.794   3.260 -0.6289  0.2301 -0.1373
 1432SOL    HW1 6549   2.258   1.855   3.311 -0.3228  1.2324 -1.5840
 1432SOL    HW2 6550   2.208   1.712   3.309  1.0056  0.6922  0.5889
 1433SOL     OW 6551   7.686   5.497   4.279 -0.0726 -0.2322 -0.1944
 1433SOL    HW1 6552   7.739   5.577   4.279  0.5544 -0.6315 -0.7134
 1433SOL    HW2 6553   7.741   5.431   4.321 -0.5419 -0.4186  0.1334
 1434SOL     OW 6554   8.210   6.534   5.506 -0.1401  0.6711 -0.1078
 1434SOL    HW1 6555   8.122   6.503   5.526 -0.7476  1.5551 -1.3094
 1434SOL    HW2 6556   8.259   6.455   5.484 -0.8561  0.2642 -0.2558
 1435SOL     OW 6557   5.178   2.675   5.534 -0.2109 -0.4589 -0.2597
 1435SOL    HW1 6558   5.238   2.601   5.547  0.8322  0.6317  1.8438
 1435SOL    HW2 6559   5.194   2.703   5.444  2.4708 -0.2728  0.1836
 1436SOL     OW 6560   5.169   9.285   2.304  0.7031  0.3604  0.3040
 1436SOL    HW1 6561   5.255   9.255   2.275 -0.8714 -1.6309 -2.9708
 1436SOL    HW2 6562   5.151   9.363   2.251 -0.2978 -0.5232 -0.7346
 1437SOL     OW 6563   9.905   6.022   0.588  1.1093 -0.2259 -0.4527
 1437SOL    HW1 6564   9.941   5.936   0.570  2.3840  0.6235 -2.2548
 1437SOL    HW2 6565   9.890   6.060   0.502 -2.2155  0.2969  0.2175
 1438SOL     OW 6566   4.225   1.206   6.847  0.5755  0.0538 -0.4797
 1438SOL    HW1 6567   4.255   1.125   6.888 -1.5345 -0.2381  0.6530
 1438SOL    HW2 6568   4.130   1.207   6.864  0.5277  2.7092 -0.5542
 1439SOL     OW 6569   7.206   5.376   0.622 -0.2712 -0.4473 -0.4434
 1439SOL    HW1 6570   7.166   5.347   0.540  0.7607 -1.7161 -0.5306
 1439SOL    HW2 6571   7.299   5.361   0.609 -0.2273 -2.5479  1.6489
 1440SOL     OW 6572   8.015   8.882   6.077 -0.6802 -0.1020  0.8134
 1440SOL    HW1 6573   8.073   8.913   6.008  0.2215 -1.3339  0.9805
 1440SOL    HW2 6574   7.932   8.865   6.034 -0.2156 -0.5586  0.0835
 1441SOL     OW 6575   2.761   8.067   3.640  0.0063 -0.2513 -0.4501
 1441SOL    HW1 6576   2.671   8.034   3.644  0.3539 -1.0762  1.6780
 1441SOL    HW2 6577   2.788   8.051   3.549 -1.0096 -2.7629 -0.3967
 1442SOL     OW 6578   8.194   5.619   7.651 -0.4487 -0.5569  0.4211
 1442SOL    HW1 6579   8.100   5.602   7.655 -1.0064  2.1870  0.3315
 1442SOL    HW2 6580   8.209   5.690   7.713  1.2762  0.1668 -0.7494
 1443SOL     OW 6581   2.931   4.543   8.511 -0.3384 -0.7613  0.1058
 1443SOL    HW1 6582   2.846   4.571   8.547  0.2387 -0.8043  1.5454
 1443SOL    HW2 6583   2.942   4.454   8.543  0.5880 -0.4923  0.5721
 1444SOL     OW 6584   9.317   7.435   7.069  0.6561 -0.8856 -0.1344
 1444SOL    HW1 6585   9.320   7.339   7.068 -1.7225 -1.0156  0.1663
 1444SOL    HW2 6586   9.233   7.456   7.029  0.0070  0.9832  2.0319
 1445SOL     OW 6587   8.016   1.660   9.609 -0.0565  0.0990  0.0433
 1445SOL    HW1 6588   8.027   1.669   9.704  2.2881  1.4488 -0.2799
 1445SOL    HW2 6589   7.998   1.567   9.596  3.9233 -1.1150  1.5759
 1446SOL     OW 6590   4.785   1.190   0.914 -0.4641  0.6328  0.4877
 1446SOL    HW1 6591   4.698   1.217   0.945  0.0740  1.6754  1.0971
 1446SOL    HW2 6592   4.844   1.208   0.987  0.3106  0.1021  0.0083
 1447SOL     OW 6593   2.346   9.242   1.976 -0.5433 -0.4794 -0.3045
 1447SOL    HW1 6594   2.428   9.285   1.999 -1.2231 -0.0177  1.4121
 1447SOL    HW2 6595   2.304   9.301   1.913  0.1551 -0.4201 -0.7177
 1448SOL     OW 6596   0.915   8.360   3.555 -0.0578  0.7299  0.0307
 1448SOL    HW1 6597   0.909   8.310   3.636 -3.3731  0.1980 -0.4259
 1448SOL    HW2 6598   0.928   8.450   3.584  3.0035  0.1312  0.9220
 1449SOL     OW 6599   7.704   2.885   5.303 -0.5791 -0.4392  0.4422
 1449SOL    HW1 6600   7.741   2.814   5.356 -0.8433 -0.3314  0.7790
 1449SOL    HW2 6601   7.635   2.922   5.358 -2.8092 -2.1260 -1.0507
 1450SOL     OW 6602   8.955   8.074  10.022 -0.0494 -0.1621 -0.0984
 1450SOL    HW1 6603   9.012   8.037   9.955  0.5680  0.4969  0.0419
 1450SOL    HW2 6604   8.936   8.163   9.991 -0.6293 -0.2127  0.0852
 1451SOL     OW 6605   8.166   7.411   1.993 -0.5274 -0.1767 -0.0624
 1451SOL    HW1 6606   8.182   7.469   2.068 -0.0076 -1.5626  0.9295
 1451SOL    HW2 6607   8.115   7.339   2.028  1.9003 -2.1908 -0.3826
 1452SOL     OW 6608   8.259   5.577   4.079  0.1508 -0.0371  0.7545
 1452SOL    HW1 6609   8.293   5.488   4.072 -1.9590 -0.8580  0.0060
 1452SOL    HW2 6610   8.333   5.633   4.054  1.2267 -1.6250  0.2121
 1453SOL     OW 6611   6.430   1.017   0.136  0.3784  0.0994 -0.7655
 1453SOL    HW1 6612   6.356   0.970   0.176  0.7341  0.6005  0.5537
 1453SOL    HW2 6613   6.464   0.957   0.071 -1.0790 -0.2145 -1.2831
 1454SOL     OW 6614  10.185   8.897   2.634  0.3893  0.7640 -0.1962
 1454SOL    HW1 6615  10.142   8.863   2.556  0.4375  0.9232 -0.2949
 1454SOL    HW2 6616  10.145   8.850   2.707 -1.3846  2.2831 -0.1021
 1455SOL     OW 6617   3.984   8.008   2.413 -0.5610  0.3745 -0.4746
 1455SOL    HW1 6618   4.031   8.001   2.329 -0.2402  1.5499 -0.4112
 1455SOL    HW2 6619   4.015   8.090   2.451  1.1269 -1.2606  1.9511
 1456SOL     OW 6620   6.657   5.928   9.813 -0.3719  0.8304 -0.2303
 1456SOL    HW1 6621   6.594   5.965   9.875 -1.9309 -0.5117 -0.9010
 1456SOL    HW2 6622   6.675   5.840   9.847  1.8400  1.4501  0.3705
 1457SOL     OW 6623   9.033   1.110   1.199  0.1112  0.0077  0.1622
 1457SOL    HW1 6624   9.093   1.179   1.227 -0.9211  1.2355 -0.5474
 1457SOL    HW2 6625   9.029   1.050   1.274  2.1777 -0.1228  0.2396
 1458SOL     OW 6626   8.666   4.961   6.251 -0.1615  0.7622  0.0274
 1458SOL    HW1 6627   8.618   4.988   6.329  0.2348 -1.3014  1.0290
 1458SOL    HW2 6628   8.614   4.889   6.214  0.5431  0.5863 -0.6538
 1459SOL     OW 6629   0.417   7.789   6.153 -0.0715  0.0211  0.0906
 1459SOL    HW1 6630   0.445   7.881   6.148  1.0687 -0.3587 -0.8046
 1459SOL    HW2 6631   0.454   7.757   6.235  2.3966 -0.5214 -1.1502
 1460SOL     OW 6632   1.083   0.449  10.069 -0.2451  0.0130 -0.1692
 1460SOL    HW1 6633   1.010   0.444  10.131  0.0349 -1.0064  0.0958
 1460SOL    HW2 6634   1.041   0.459   9.984 -0.6931 -0.3748 -0.0008
 1461SOL     OW 6635   3.828   7.625   7.858  0.1298 -0.8512 -0.4399
 1461SOL    HW1 6636   3.824   7.588   7.946 -0.6702 -3.0496 -1.3213
 1461SOL    HW2 6637   3.740   7.660   7.843  0.5937  0.5528  0.0214
 1462SOL     OW 6638   2.035  10.195   6.926 -0.2508  0.2440  0.3058
 1462SOL    HW1 6639   2.130  10.186   6.920 -0.2082 -0.4929  1.6509
 1462SOL    HW2 6640   2.017  10.282   6.891  0.8641  0.2042 -0.4135
 1463SOL     OW 6641   6.004   8.129   1.332  0.1614 -0.1373  0.1297
 1463SOL    HW1 6642   5.991   8.051   1.278  1.3340  0.4543 -1.0804
 1463SOL    HW2 6643   5.933   8.126   1.396  0.0231 -2.0493 -0.0406
 1464SOL     OW 6644   9.136   5.174   0.734  0.3679 -0.0503 -0.1998
 1464SOL    HW1 6645   9.190   5.242   0.774 -1.4421  0.8371  0.8670
 1464SOL    HW2 6646   9.124   5.202   0.644 -0.1298  0.9074  0.1556
 1465SOL     OW 6647   3.124   6.782   1.051 -0.0036 -0.6293  0.3913
 1465SOL    HW1 6648   3.060   6.793   0.981  0.2176 -0.9851  0.1319
 1465SOL    HW2 6649   3.122   6.689   1.071 -0.5934 -0.4331  1.3691
 1466SOL     OW 6650   4.858   4.060   5.809  0.3431 -0.2274 -0.3053
 1466SOL    HW1 6651   4.827   4.068   5.899 -0.5962 -1.3353 -0.5146
 1466SOL    HW2 6652   4.828   4.140   5.766  1.0869  0.4708  0.4195
 1467SOL     OW 6653   5.449   4.616   7.603 -0.1690 -0.1096  0.1460
 1467SOL    HW1 6654   5.399   4.561   7.543 -0.3335 -0.6127  0.7297
 1467SOL    HW2 6655   5.416   4.705   7.588  0.1934 -0.1341 -0.9045
 1468SOL     OW 6656   0.769   1.357   6.899 -0.6655 -0.3993 -0.3505
 1468SOL    HW1 6657   0.839   1.343   6.835  0.3979 -1.7571  1.0505
 1468SOL    HW2 6658   0.805   1.324   6.982 -2.2340  0.7130  0.8296
 1469SOL     OW 6659   0.847   6.972   2.560 -0.2591 -0.1187  0.0212
 1469SOL    HW1 6660   0.858   7.040   2.493  0.5993 -0.9548 -0.7170
 1469SOL    HW2 6661   0.813   7.019   2.637  0.7776  1.2333 -0.3070
 1470SOL     OW 6662   9.690   6.945   5.330  0.1079 -0.2934  0.1897
 1470SOL    HW1 6663   9.672   7.004   5.257  0.0858  1.9503  1.8958
 1470SOL    HW2 6664   9.604   6.912   5.356  0.1037 -1.0172 -0.6757
 1471SOL     OW 6665   5.639   1.308   1.103  0.4106  0.1661  0.0850
 1471SOL    HW1 6666   5.717   1.308   1.159  1.6424  0.3710 -1.5271
 1471SOL    HW2 6667   5.648   1.229   1.050  0.2155  0.8482 -1.0046
 1472SOL     OW 6668   2.714   5.067   5.378 -0.3967  0.3848  0.5679
 1472SOL    HW1 6669   2.759   5.013   5.314 -0.2169  1.1025  0.0801
 1472SOL    HW2 6670   2.741   5.031   5.463 -0.1496 -0.1772  0.2572
 1473SOL     OW 6671   3.533   0.811   5.102  0.4464 -0.3403  0.1220
 1473SOL    HW1 6672   3.559   0.809   5.194 -1.2415  2.2385  0.7575
 1473SOL    HW2 6673   3.517   0.904   5.084  1.7370 -0.6365 -3.1052
 1474SOL     OW 6674   9.453  10.302   2.518 -0.0902  0.9393  0.1859
 1474SOL    HW1 6675   9.478  10.226   2.466 -0.7670  0.3618  0.6782
 1474SOL    HW2 6676   9.491  10.377   2.472 -0.3931  0.4128 -0.9548
 1475SOL     OW 6677   6.177   9.419   1.037 -0.5873 -0.2015 -0.0416
 1475SOL    HW1 6678   6.126   9.500   1.039  1.1161  0.9200 -0.0892
 1475SOL    HW2 6679   6.198   9.405   0.944  1.0388  0.6086  0.1629
 1476SOL     OW 6680   8.757   9.669   3.025 -0.0941  0.5504  0.2387
 1476SOL    HW1 6681   8.757   9.746   3.081 -0.0034 -0.3267  1.4959
 1476SOL    HW2 6682   8.838   9.676   2.974 -0.0715  1.2614  0.3658
 1477SOL     OW 6683   9.976   9.748   4.195  0.2385  1.3012  0.0786
 1477SOL    HW1 6684   9.931   9.664   4.196  0.0242  1.3966  2.1402
 1477SOL    HW2 6685  10.055   9.734   4.248  0.2201  2.3753  0.4225
 1478SOL     OW 6686   4.913   1.274   5.322 -0.1006  0.2283  1.1248
 1478SOL    HW1 6687   4.949   1.360   5.298  1.5146 -0.2160  1.8672
 1478SOL    HW2 6688   4.949   1.256   5.408 -0.4401 -1.2120  0.9857
 1479SOL     OW 6689   2.686   0.323   3.067 -0.1631 -0.4601 -0.2378
 1479SOL    HW1 6690   2.656   0.406   3.104 -2.6525  0.6117 -4.0807
 1479SOL    HW2 6691   2.619   0.260   3.095 -2.1396  0.3813 -2.7379
 1480SOL     OW 6692   7.121   3.809   1.444 -0.2105 -0.3773  0.1304
 1480SOL    HW1 6693   7.175   3.730   1.453  2.4485  1.0436 -2.0558
 1480SOL    HW2 6694   7.147   3.847   1.361 -3.6616  1.2441 -0.3817
 1481SOL     OW 6695   0.803   9.423   6.280  0.0577  0.0686 -0.0457
 1481SOL    HW1 6696   0.867   9.486   6.247  0.6710 -0.6707 -0.3128
 1481SOL    HW2 6697   0.764   9.386   6.200  1.0870 -1.2664  0.0355
 1482SOL     OW 6698   3.171   1.194   2.406 -0.5849 -0.0396 -0.2182
 1482SOL    HW1 6699   3.138   1.266   2.460 -2.8310 -1.9131  1.0727
 1482SOL    HW2 6700   3.147   1.219   2.317 -2.3111  0.3461  0.3171
 1483SOL     OW 6701   2.964   9.153  10.450 -0.2495  0.0002  0.0793
 1483SOL    HW1 6702   2.880   9.179  10.487 -1.0248 -0.4872 -1.2668
 1483SOL    HW2 6703   2.942   9.117  10.364  1.1303 -1.9626  0.4788
 1484SOL     OW 6704   6.224   2.259   6.392  0.1545  0.1892 -0.3509
 1484SOL    HW1 6705   6.135   2.270   6.359  0.4203  0.6539 -0.9322
 1484SOL    HW2 6706   6.257   2.181   6.347  0.6307  1.0107 -1.4706
 1485SOL     OW 6707   7.254   7.393   0.777 -0.3793  1.3383  0.1370
 1485SOL    HW1 6708   7.344   7.393   0.810 -0.4110  1.9362  0.2374
 1485SOL    HW2 6709   7.201   7.362   0.851 -0.0304 -1.4498 -0.6568
 1486SOL     OW 6710   0.251   4.669  10.448  0.0328  0.2000 -0.1366
 1486SOL    HW1 6711   0.323   4.731  10.444  1.3005 -1.2467 -0.7538
 1486SOL    HW2 6712   0.257   4.619  10.367  0.2170 -1.9335  1.1081
 1487SOL     OW 6713   3.515   5.380   6.629  0.2847 -0.3339  0.3434
 1487SOL    HW1 6714   3.575   5.350   6.560  2.5371  1.6849  1.2827
 1487SOL    HW2 6715   3.558   5.354   6.710 -1.9941 -2.0544  1.1057
 1488SOL     OW 6716   4.887   9.162  10.122 -0.2465 -0.2527 -0.1092
 1488SOL    HW1 6717   4.880   9.235  10.184 -1.5029 -0.8315  0.4779
 1488SOL    HW2 6718   4.797   9.144  10.096  0.1244 -1.0522 -0.8920
 1489SOL     OW 6719   3.316   1.010   6.106  0.0750 -0.1621 -0.2880
 1489SOL    HW1 6720   3.240   1.026   6.050 -0.6574 -1.3036  0.3389
 1489SOL    HW2 6721   3.296   1.055   6.188  0.8273  0.9045 -0.6676
 1490SOL     OW 6722   0.093   3.709   1.256  0.3475  0.0083  0.5839
 1490SOL    HW1 6723   0.056   3.752   1.179 -0.3608 -0.2014  0.7954
 1490SOL    HW2 6724   0.179   3.750   1.268 -0.1561  1.0895  0.5630
 1491SOL     OW 6725   3.482   6.210   0.240  0.5139 -0.3611 -0.1441
 1491SOL    HW1 6726   3.430   6.214   0.160  0.8360 -0.7325 -0.3794
 1491SOL    HW2 6727   3.497   6.116   0.253 -0.4416 -0.3769  0.9485
 1492SOL     OW 6728   2.323   1.303   2.570  0.0987  0.3109 -0.6045
 1492SOL    HW1 6729   2.325   1.208   2.582 -1.5752  0.0196 -2.2281
 1492SOL    HW2 6730   2.358   1.316   2.482 -0.2840  1.1445 -0.6383
 1493SOL     OW 6731   7.320   0.132   5.571 -0.2777  0.3731  0.0004
 1493SOL    HW1 6732   7.278   0.104   5.489 -1.0310  0.1152  0.4607
 1493SOL    HW2 6733   7.335   0.052   5.620  1.3541  0.3957 -0.4031
 1494SOL     OW 6734  10.247   6.166   5.571  0.1064 -0.4895 -0.0184
 1494SOL    HW1 6735  10.266   6.257   5.592 -0.6904 -0.7103  1.8114
 1494SOL    HW2 6736  10.332   6.122   5.569  0.4418  0.1675 -0.3466
 1495SOL     OW 6737   6.722   3.378   6.179 -0.3201  0.3722  0.3396
 1495SOL    HW1 6738   6.691   3.468   6.189 -1.9929 -0.1273 -0.0795
 1495SOL    HW2 6739   6.697   3.335   6.261 -1.4911 -0.2286 -0.3047
 1496SOL     OW 6740   1.188   9.678   0.885  0.0679 -0.0859 -0.3394
 1496SOL    HW1 6741   1.115   9.715   0.834  2.3892  1.4972 -2.7880
 1496SOL    HW2 6742   1.198   9.738   0.959 -0.2545  0.5002 -0.7597
 1497SOL     OW 6743   7.265  10.264   8.954 -0.2395  0.3737 -0.6317
 1497SOL    HW1 6744   7.318  10.247   8.876 -3.0908  1.6489 -3.0472
 1497SOL    HW2 6745   7.306  10.340   8.995  0.5428  0.5192 -1.6514
 1498SOL     OW 6746   3.057   7.523   7.686 -0.2480  0.1543  0.1620
 1498SOL    HW1 6747   3.141   7.533   7.641 -0.7000  1.5408 -0.4304
 1498SOL    HW2 6748   3.057   7.433   7.718  1.9113  0.4262  1.0884
 1499SOL     OW 6749   7.553   1.038   8.085 -0.2056 -0.1498 -0.3174
 1499SOL    HW1 6750   7.520   1.128   8.088 -0.9950 -0.4018 -0.8851
 1499SOL    HW2 6751   7.573   1.022   7.993  1.0736 -0.1725 -0.0479
 1500SOL     OW 6752   4.721   8.316   4.670 -0.3818  0.0744  0.5592
 1500SOL    HW1 6753   4.668   8.394   4.658  0.7668  0.6728 -0.8803
 1500SOL    HW2 6754   4.673   8.264   4.735 -1.7253  1.4447  0.7116
 1501SOL     OW 6755   1.852  10.337   5.747  0.3056 -0.1350 -0.0939
 1501SOL    HW1 6756   1.935  10.313   5.788  1.6188 -1.9356 -3.4371
 1501SOL    HW2 6757   1.872  10.415   5.695 -0.6058  0.4369  0.3708
 1502SOL     OW 6758   9.474   9.441  10.595 -0.1711  0.1201  0.5519
 1502SOL    HW1 6759   9.542   9.374  10.595  2.2048  2.3425 -0.3755
 1502SOL    HW2 6760   9.445   9.445  10.504 -0.9862 -0.2743  0.7917
 1503SOL     OW 6761   2.529   7.865  10.075 -0.3280 -0.0456  0.5873
 1503SOL    HW1 6762   2.503   7.882   9.984 -1.5994 -2.5000  0.4031
 1503SOL    HW2 6763   2.556   7.950  10.108 -1.9300  1.3523 -1.4305
 1504SOL     OW 6764   6.300  10.343   5.204 -0.0989  0.0143 -0.1577
 1504SOL    HW1 6765   6.269  10.313   5.119 -3.0592 -2.1791  1.4840
 1504SOL    HW2 6766   6.233  10.405   5.234  0.7191  0.5024  0.7314
 1505SOL     OW 6767   0.063   7.344   8.206  0.0841 -0.4495  0.1575
 1505SOL    HW1 6768   0.019   7.284   8.265 -1.9671 -0.0678 -0.8766
 1505SOL    HW2 6769  -0.005   7.406   8.180  1.7320  1.3797 -0.0342
 1506SOL     OW 6770   9.846   1.096   2.496 -0.4284 -0.5350  0.0533
 1506SOL    HW1 6771   9.816   1.044   2.422 -0.8024 -0.1316 -0.0791
 1506SOL    HW2 6772   9.815   1.185   2.478 -1.2303 -0.5893  1.0838
 1507SOL     OW 6773   7.427   6.794   3.018 -0.4428  0.7281 -0.1698
 1507SOL    HW1 6774   7.334   6.791   2.995 -1.0998  0.3710  2.1671
 1507SOL    HW2 6775   7.472   6.755   2.943 -1.9751  2.4430 -2.0955
 1508SOL     OW 6776   9.467   4.956   0.248  0.1318 -0.0894 -0.6311
 1508SOL    HW1 6777   9.446   5.018   0.317 -1.0256 -1.2038  0.0601
 1508SOL    HW2 6778   9.413   4.983   0.174  0.0159  0.0237 -0.5057
 1509SOL     OW 6779   6.124   4.804   4.640  0.5257  0.2881  0.4455
 1509SOL    HW1 6780   6.091   4.714   4.639  0.2303  0.3893 -0.6914
 1509SOL    HW2 6781   6.058   4.852   4.690 -0.3707  0.2180 -0.6115
 1510SOL     OW 6782   5.269  10.171   9.148 -0.2336  0.3915  0.1976
 1510SOL    HW1 6783   5.359  10.176   9.115 -0.2824  0.2214  0.0390
 1510SOL    HW2 6784   5.253  10.078   9.160 -0.4071  0.4205  0.1824
 1511SOL     OW 6785   4.490   7.044   2.740 -0.0586 -0.1409 -0.2608
 1511SOL    HW1 6786   4.565   7.080   2.786  2.0860 -3.9346 -0.3697
 1511SOL    HW2 6787   4.501   7.071   2.649 -0.5223  1.6909  0.1845
 1512SOL     OW 6788   4.505   9.477  10.637  0.0578 -0.2527 -0.2255
 1512SOL    HW1 6789   4.579   9.439  10.685  0.6494  0.0566 -0.8652
 1512SOL    HW2 6790   4.516   9.572  10.647  0.1421 -0.1878 -0.8926
 1513SOL     OW 6791   8.127   5.364   4.337 -0.0163  0.1115 -0.4157
 1513SOL    HW1 6792   8.144   5.452   4.373 -3.2395  0.1477  1.3887
 1513SOL    HW2 6793   8.034   5.349   4.354  0.1635 -3.2430 -1.7131
 1514SOL     OW 6794   1.269   1.349   6.011  0.1089  0.0432  0.7176
 1514SOL    HW1 6795   1.325   1.317   6.082 -0.6838  0.2186  1.4379
 1514SOL    HW2 6796   1.327   1.401   5.956  0.8989 -0.6981  0.8296
 1515SOL     OW 6797   1.543   5.017   0.664  0.4789 -0.7076  0.4474
 1515SOL    HW1 6798   1.563   4.968   0.744  3.3560 -0.3736  0.0464
 1515SOL    HW2 6799   1.628   5.027   0.621 -0.5105  1.8167 -1.1062
 1516SOL     OW 6800   5.039   7.203   7.165  0.0403  0.4441  0.0671
 1516SOL    HW1 6801   5.062   7.210   7.072  0.3021  1.0020  0.1758
 1516SOL    HW2 6802   5.118   7.170   7.207  0.0829  0.6865  0.1743
 1517SOL     OW 6803   3.044   1.284   8.018 -0.4500  0.0186 -0.2649
 1517SOL    HW1 6804   3.028   1.277   7.924 -0.4176 -0.0414 -0.2661
 1517SOL    HW2 6805   2.962   1.318   8.054 -1.8525 -3.4339  0.1805
 1518SOL     OW 6806   8.909   5.705   6.339 -0.3728 -0.0708 -0.0385
 1518SOL    HW1 6807   8.941   5.753   6.416  1.4171 -0.2034 -0.6570
 1518SOL    HW2 6808   8.906   5.770   6.270 -1.5843 -0.0461  0.0240
 1519SOL     OW 6809   5.612   4.699   6.588  0.0794  0.3883 -0.0814
 1519SOL    HW1 6810   5.553   4.644   6.640  1.1150 -0.0820  0.6204
 1519SOL    HW2 6811   5.559   4.776   6.567 -0.8080 -0.0395  0.4870
 1520SOL     OW 6812   8.632   6.479   9.300  0.3105 -0.2057  0.8133
 1520SOL    HW1 6813   8.600   6.423   9.230  0.3681  0.0765  0.5610
 1520SOL    HW2 6814   8.721   6.502   9.274  0.7456 -1.0177  1.5324
 1521SOL     OW 6815   6.129   0.068   9.885  0.2854 -0.3290  0.0554
 1521SOL    HW1 6816   6.151   0.147   9.836 -0.2941  0.6285  1.2766
 1521SOL    HW2 6817   6.191   0.068   9.959  1.9952 -2.4231 -1.2555
 1522SOL     OW 6818   4.056   7.728   9.656 -0.2003 -0.0229 -0.2330
 1522SOL    HW1 6819   3.969   7.712   9.621 -0.2922  2.0340 -1.1159
 1522SOL    HW2 6820   4.057   7.822   9.676  2.3929  0.4575 -2.0472
 1523SOL     OW 6821   2.241   2.129   5.844 -0.0066  0.0655 -0.3898
 1523SOL    HW1 6822   2.173   2.171   5.897  0.0238  0.3703 -0.5873
 1523SOL    HW2 6823   2.205   2.128   5.755  0.3728  0.5099 -0.5501
 1524SOL     OW 6824   4.077   3.520   2.181 -0.2135 -0.4272  0.0790
 1524SOL    HW1 6825   4.069   3.455   2.252  0.9769 -1.6541 -0.8636
 1524SOL    HW2 6826   4.095   3.602   2.227 -2.1114 -0.6175  1.3268
 1525SOL     OW 6827   7.064   8.526   7.125  0.1448 -0.5141 -0.3314
 1525SOL    HW1 6828   7.039   8.613   7.157 -0.0524 -0.7818  0.2646
 1525SOL    HW2 6829   6.982   8.487   7.095  0.2303 -0.4992 -0.5829
 1526SOL     OW 6830   1.975   8.642   5.619  0.8941 -0.4425 -0.3971
 1526SOL    HW1 6831   1.993   8.554   5.587  0.6263 -0.0598 -1.6640
 1526SOL    HW2 6832   2.058   8.688   5.611  0.3580  0.2654 -2.7014
 1527SOL     OW 6833   3.806   1.299   7.176 -0.7316  0.9016  0.2683
 1527SOL    HW1 6834   3.796   1.251   7.094  0.3695 -0.0371  0.6501
 1527SOL    HW2 6835   3.741   1.260   7.235  0.5440 -0.6397  0.7631
 1528SOL     OW 6836   5.956   4.292   3.646 -0.6214  0.0677 -0.1485
 1528SOL    HW1 6837   5.914   4.251   3.571 -2.7474  0.5799  0.6970
 1528SOL    HW2 6838   5.959   4.223   3.712  0.1967 -0.0535 -0.2986
 1529SOL     OW 6839   0.947   1.002  10.047 -0.3520  0.8488  0.4696
 1529SOL    HW1 6840   0.883   0.933  10.063  0.2635 -0.2877 -1.5845
 1529SOL    HW2 6841   1.032   0.959  10.061  0.0204  1.5939  0.5303
 1530SOL     OW 6842   6.203   4.814  10.025 -0.2722 -0.0494 -0.1882
 1530SOL    HW1 6843   6.118   4.858  10.028 -0.3820 -0.2963  0.9270
 1530SOL    HW2 6844   6.190   4.740   9.966 -0.4600  0.6465 -1.0307
 1531SOL     OW 6845   9.474   6.682   9.019  0.3896 -0.0454  0.8401
 1531SOL    HW1 6846   9.411   6.752   9.000  0.4586 -0.2585 -0.2297
 1531SOL    HW2 6847   9.560   6.723   9.006  0.4703 -0.9812 -2.7080
 1532SOL     OW 6848   3.007   7.013   9.055 -0.0753  0.1204 -0.5699
 1532SOL    HW1 6849   3.025   7.058   9.138 -1.4834 -0.5036  0.0980
 1532SOL    HW2 6850   2.995   7.084   8.992 -1.9827  0.7470  0.4105
 1533SOL     OW 6851   7.395   1.704   6.627  0.7468  0.6575  0.0281
 1533SOL    HW1 6852   7.427   1.782   6.672 -0.8699  1.1093  0.4440
 1533SOL    HW2 6853   7.463   1.638   6.643  0.9409  1.2521  1.8556
 1534SOL     OW 6854   1.021   6.810   3.268  0.4577  0.0578 -0.1555
 1534SOL    HW1 6855   1.031   6.775   3.357  0.6932 -0.5092 -0.4018
 1534SOL    HW2 6856   0.989   6.736   3.217 -0.9562  0.7192 -0.2837
 1535SOL     OW 6857   2.457   0.989   1.228 -0.1225  0.5166 -0.3846
 1535SOL    HW1 6858   2.540   1.019   1.266  0.2423 -0.6219 -0.2496
 1535SOL    HW2 6859   2.446   1.043   1.150 -1.1106  3.2564  1.4973
 1536SOL     OW 6860   1.195   2.196   2.656  0.0719  0.2766 -0.1164
 1536SOL    HW1 6861   1.118   2.226   2.704 -2.1424 -0.0059 -3.1770
 1536SOL    HW2 6862   1.194   2.101   2.666 -0.5503  0.1928 -0.8303
 1537SOL     OW 6863   3.653   4.777   6.468 -0.1797 -0.1707 -0.0668
 1537SOL    HW1 6864   3.626   4.868   6.473 -0.5256 -0.3362  1.4568
 1537SOL    HW2 6865   3.671   4.751   6.559  3.4001 -0.6065 -0.7310
 1538SOL     OW 6866   9.731   1.230   9.998  0.6493  0.0521  0.1623
 1538SOL    HW1 6867   9.803   1.294   9.994  0.9117 -0.1904  0.8705
 1538SOL    HW2 6868   9.774   1.146  10.011  0.4089 -0.5410 -2.3506
 1539SOL     OW 6869   2.884   6.975   3.175 -0.2916 -0.1208 -0.2250
 1539SOL    HW1 6870   2.889   6.914   3.249  0.4489 -0.7308 -0.7547
 1539SOL    HW2 6871   2.796   7.010   3.178  0.0187  0.5741  1.4989
 1540SOL     OW 6872   8.830   6.436   5.653 -0.1262  0.3117 -0.0664
 1540SOL    HW1 6873   8.914   6.391   5.664 -0.8786 -1.0871  0.1762
 1540SOL    HW2 6874   8.805   6.461   5.742  0.2988  1.2515 -0.2034
 1541SOL     OW 6875   1.953   0.782   1.262 -0.2718  0.2446 -0.0676
 1541SOL    HW1 6876   1.961   0.786   1.357 -0.7970  2.1092 -0.0683
 1541SOL    HW2 6877   2.026   0.835   1.229  0.2053 -0.7882 -0.7428
 1542SOL     OW 6878  10.037   2.909  10.247  0.0246 -0.1002 -0.7748
 1542SOL    HW1 6879  10.027   2.981  10.310 -0.5482  1.1674 -2.2387
 1542SOL    HW2 6880   9.957   2.858  10.255 -0.2066  0.2703 -0.7274
 1543SOL     OW 6881   9.326   9.513   2.995 -0.6630 -0.0291 -0.5764
 1543SOL    HW1 6882   9.249   9.539   2.946 -0.7732 -0.4643 -0.6409
 1543SOL    HW2 6883   9.336   9.580   3.062 -2.0172 -0.7618  0.4298
 1544SOL     OW 6884   0.153   1.856   8.989  0.0412 -0.4496  0.1805
 1544SOL    HW1 6885   0.205   1.813   9.057  0.5530  0.3452  0.2997
 1544SOL    HW2 6886   0.217   1.893   8.929 -0.3805 -2.5914 -1.7208
 1545SOL     OW 6887   6.554   9.688   5.216 -0.4108  0.2557 -0.2198
 1545SOL    HW1 6888   6.485   9.628   5.187 -1.3892  1.1794  0.1267
 1545SOL    HW2 6889   6.526   9.715   5.304  0.7774  0.0885  0.2233
 1546SOL     OW 6890   0.560   1.173   7.417 -0.3969  0.0798 -0.1648
 1546SOL    HW1 6891   0.553   1.269   7.412 -0.9826  0.1217  1.1062
 1546SOL    HW2 6892   0.650   1.158   7.448 -0.1593  0.1831 -0.7768
 1547SOL     OW 6893   8.883   0.810   7.474  0.3087 -0.1049  0.0456
 1547SOL    HW1 6894   8.867   0.717   7.490 -0.1448  0.0495  0.5077
 1547SOL    HW2 6895   8.918   0.842   7.557  0.7110  0.0868 -0.1954
 1548SOL     OW 6896   1.428   6.165   1.006 -0.4807 -0.1902  0.9008
 1548SOL    HW1 6897   1.444   6.218   0.928  1.3143  0.2052  1.4788
 1548SOL    HW2 6898   1.336   6.178   1.026 -1.1132 -0.6697 -1.3944
 1549SOL     OW 6899   2.393   0.293   6.672  0.5867 -0.4652 -0.2304
 1549SOL    HW1 6900   2.479   0.327   6.647 -0.5789  0.8846 -2.8005
 1549SOL    HW2 6901   2.360   0.355   6.736  0.1200  1.1622 -1.9500
 1550SOL     OW 6902   6.186   3.411   2.506 -0.0898 -0.0918  0.4447
 1550SOL    HW1 6903   6.154   3.322   2.490 -1.4094  0.1602  1.4639
 1550SOL    HW2 6904   6.230   3.405   2.591  0.1827  0.1344  0.3175
 1551SOL     OW 6905   3.371   9.951   4.732 -0.8819  0.2873  0.2488
 1551SOL    HW1 6906   3.440   9.885   4.738 -2.7903 -1.8219  0.2940
 1551SOL    HW2 6907   3.378  10.000   4.813 -0.4967 -1.0034  1.0234
 1552SOL     OW 6908   8.018   5.200   0.613 -0.2375 -0.3518  0.2921
 1552SOL    HW1 6909   8.019   5.117   0.660  1.5798 -0.4176  0.2240
 1552SOL    HW2 6910   8.049   5.178   0.525 -1.5049  0.1212 -0.2985
 1553SOL     OW 6911   0.877   1.095   0.071 -0.2295 -0.0275  0.4672
 1553SOL    HW1 6912   0.959   1.045   0.064 -0.4196 -0.4085  0.8986
 1553SOL    HW2 6913   0.905   1.182   0.097  0.1379  0.2110 -0.6651
 1554SOL     OW 6914   1.032   2.417   6.860 -0.5269  0.0944  0.4811
 1554SOL    HW1 6915   0.973   2.342   6.852  1.1056 -1.1125 -1.4929
 1554SOL    HW2 6916   1.017   2.467   6.780  0.0637  0.5843  0.6737
 1555SOL     OW 6917   3.968   7.028   7.848 -0.2356 -0.4691  0.5072
 1555SOL    HW1 6918   4.046   6.993   7.805  1.0141  2.1948  0.3628
 1555SOL    HW2 6919   3.895   6.992   7.800  1.0036 -0.9619 -1.0903
 1556SOL     OW 6920   1.997  10.284   2.686 -0.5601  0.0680  0.5176
 1556SOL    HW1 6921   1.983  10.372   2.722 -0.9498  0.5579 -0.7958
 1556SOL    HW2 6922   2.077  10.292   2.634 -0.0139 -0.6282  1.2281
 1557SOL     OW 6923   3.601   6.431   7.952 -0.0656  0.2043 -0.0133
 1557SOL    HW1 6924   3.619   6.390   7.867 -1.4235  0.2404 -0.3426
 1557SOL    HW2 6925   3.519   6.478   7.939 -0.0475  0.6089  1.1958
 1558SOL     OW 6926   0.179   1.986   1.483 -0.3305  0.2212 -0.6031
 1558SOL    HW1 6927   0.179   2.028   1.569  1.7767  0.0717 -0.4701
 1558SOL    HW2 6928   0.220   2.050   1.425  2.6816 -1.3775 -0.4527
 1559SOL     OW 6929   1.000   8.170   9.381  0.0388 -0.3503 -0.2477
 1559SOL    HW1 6930   0.975   8.230   9.451  0.4686 -0.3392 -0.1028
 1559SOL    HW2 6931   1.078   8.209   9.342 -0.1318 -0.4142 -0.6604
 1560SOL     OW 6932   4.007   7.587   7.354 -0.1227 -0.5627  0.8687
 1560SOL    HW1 6933   3.925   7.546   7.383 -0.8973 -1.2772 -2.0110
 1560SOL    HW2 6934   4.064   7.512   7.331  0.6462 -0.0532  1.0724
 1561SOL     OW 6935   0.837   0.422   6.969 -0.3107  0.3662 -0.2291
 1561SOL    HW1 6936   0.888   0.487   7.016  0.5747 -0.6053  0.1853
 1561SOL    HW2 6937   0.776   0.473   6.916  0.8316  1.5420 -0.4537
 1562SOL     OW 6938   4.827   7.695   3.733 -0.0178 -0.2315  0.2981
 1562SOL    HW1 6939   4.884   7.752   3.682 -0.6428 -0.2401 -0.4176
 1562SOL    HW2 6940   4.858   7.606   3.714  1.2903 -0.1496  1.8123
 1563SOL     OW 6941   2.603   5.293   8.014  0.4032 -0.0661 -0.5585
 1563SOL    HW1 6942   2.571   5.223   7.958 -1.2016  0.0134  0.2139
 1563SOL    HW2 6943   2.691   5.312   7.980  0.7042 -2.1226 -1.0546
 1564SOL     OW 6944   9.993   4.310   2.436 -0.1269  0.7015 -0.3201
 1564SOL    HW1 6945  10.047   4.273   2.506 -0.5230 -1.1208 -0.9108
 1564SOL    HW2 6946   9.914   4.255   2.436 -0.9203  1.8164 -1.0239
 1565SOL     OW 6947   8.031   3.703   4.774 -0.9752 -0.1058 -0.3726
 1565SOL    HW1 6948   8.011   3.796   4.762 -2.0673 -0.1798  0.6759
 1565SOL    HW2 6949   7.993   3.660   4.698 -0.7436  0.2603 -0.7008
 1566SOL     OW 6950   7.962   1.364   5.538 -0.1186  0.0210 -0.3725
 1566SOL    HW1 6951   7.915   1.425   5.481 -1.2026 -0.3340  0.1156
 1566SOL    HW2 6952   8.050   1.400   5.544 -0.8861  1.9141  0.4250
 1567SOL     OW 6953   7.784   7.604   1.150  0.0436  0.5867  0.1666
 1567SOL    HW1 6954   7.703   7.559   1.176  0.1155  0.7436  0.6724
 1567SOL    HW2 6955   7.806   7.567   1.065  0.6839 -1.1580  1.0287
 1568SOL     OW 6956   2.603   3.190   6.801 -0.5718 -0.2619 -0.2201
 1568SOL    HW1 6957   2.589   3.181   6.895 -0.5779  1.1111 -0.0741
 1568SOL    HW2 6958   2.636   3.104   6.774  2.9550  0.3227  1.6782
 1569SOL     OW 6959   5.681   3.231   9.933 -0.5116  0.2896 -0.3222
 1569SOL    HW1 6960   5.690   3.144   9.972  0.1931  0.4922 -0.0168
 1569SOL    HW2 6961   5.677   3.214   9.838 -0.5239 -0.0840 -0.2557
 1570SOL     OW 6962   6.173   9.519   4.540 -0.1333  0.1560  0.1735
 1570SOL    HW1 6963   6.267   9.516   4.556 -0.3634 -0.8287  1.4004
 1570SOL    HW2 6964   6.162   9.477   4.454  0.4897 -0.1688  0.2476
 1571SOL     OW 6965   3.027   5.232   5.628  0.3998  0.0126 -0.4243
 1571SOL    HW1 6966   3.017   5.316   5.582  0.6531 -0.1262 -0.7367
 1571SOL    HW2 6967   3.064   5.173   5.562 -3.0544 -1.3624 -1.3107
 1572SOL     OW 6968   3.391   1.463   8.673  0.4376  0.5212 -0.0970
 1572SOL    HW1 6969   3.356   1.501   8.753 -2.1441 -0.2820 -0.7497
 1572SOL    HW2 6970   3.385   1.369   8.686 -1.2227  0.3686 -1.6699
 1573SOL     OW 6971   1.098   1.222   2.104 -0.2802 -0.1937  0.1988
 1573SOL    HW1 6972   1.054   1.251   2.024  0.6936 -0.3727 -0.4092
 1573SOL    HW2 6973   1.035   1.163   2.146 -0.3699 -0.9593 -0.9932
 1574SOL     OW 6974   2.382   9.418   9.830  0.6839  0.4932  0.1092
 1574SOL    HW1 6975   2.443   9.378   9.893 -0.8774  0.1755  1.4741
 1574SOL    HW2 6976   2.334   9.344   9.793  0.4362  0.8219 -0.2293
 1575SOL     OW 6977   8.102   1.677   6.292 -0.0928  0.0499 -0.0110
 1575SOL    HW1 6978   8.043   1.676   6.368  0.5984 -0.7744  0.5336
 1575SOL    HW2 6979   8.177   1.729   6.321  1.2629 -2.1920  0.7737
 1576SOL     OW 6980   2.635   5.729   9.430  0.0021 -0.3963  0.4650
 1576SOL    HW1 6981   2.714   5.713   9.482  0.0504 -0.5495  0.3431
 1576SOL    HW2 6982   2.578   5.779   9.489 -0.5436 -1.8161  1.1790
 1577SOL     OW 6983   0.056   6.748   2.521  0.3330  0.3491 -0.2086
 1577SOL    HW1 6984  -0.038   6.734   2.533  0.4860  0.2616  0.9422
 1577SOL    HW2 6985   0.094   6.662   2.532  0.6566  0.5741  0.4282
 1578SOL     OW 6986   1.828   6.378   6.199 -1.3877 -0.7193  0.0523
 1578SOL    HW1 6987   1.848   6.471   6.205  2.8546 -1.3704 -0.6363
 1578SOL    HW2 6988   1.822   6.348   6.290 -1.1256 -0.0447  0.2928
 1579SOL     OW 6989   0.784   1.213  10.193  0.0446 -0.0540  0.4288
 1579SOL    HW1 6990   0.843   1.145  10.160 -0.3373  0.4020 -1.2833
 1579SOL    HW2 6991   0.707   1.207  10.137 -0.1741  1.5047  0.5225
 1580SOL     OW 6992   5.862   2.753   4.933 -0.0552 -0.3640  0.3643
 1580SOL    HW1 6993   5.795   2.718   4.991 -0.1045 -0.1104  0.4632
 1580SOL    HW2 6994   5.829   2.733   4.845  1.3411 -3.2157  0.3999
 1581SOL     OW 6995   2.331   2.021   8.987  0.6202  0.1286  0.1560
 1581SOL    HW1 6996   2.270   1.994   9.057 -1.0148 -0.5674 -1.4548
 1581SOL    HW2 6997   2.387   2.086   9.028 -1.7853  1.4837  1.5294
 1582SOL     OW 6998   8.316   7.492   0.967  0.0682  0.1681 -0.2531
 1582SOL    HW1 6999   8.268   7.481   1.049  1.5162 -0.9844  0.4901
 1582SOL    HW2 7000   8.320   7.586   0.954  1.2752  0.4818  1.9347
 1583SOL     OW 7001   4.118  10.311   9.807 -0.4109 -0.1083  0.1463
 1583SOL    HW1 7002   4.039  10.364   9.792 -0.1122  0.1341 -0.6402
 1583SOL    HW2 7003   4.092  10.249   9.875 -0.6728  1.2552  1.3442
 1584SOL     OW 7004   8.519   0.661   0.147  0.8427  0.4444 -0.3833
 1584SOL    HW1 7005   8.562   0.738   0.109  0.4190  0.9298  0.1047
 1584SOL    HW2 7006   8.438   0.695   0.185  1.6785  0.1723  1.7845
 1585SOL     OW 7007   6.360   2.144   3.518  0.6034 -0.7352  0.2627
 1585SOL    HW1 7008   6.339   2.178   3.605  0.9385  1.1509 -0.3598
 1585SOL    HW2 7009   6.280   2.157   3.467 -1.1100 -5.5808  1.2025
 1586SOL     OW 7010   5.753   1.469   7.152 -0.6547 -0.3293  0.0874
 1586SOL    HW1 7011   5.723   1.529   7.220  0.8329 -0.6611  1.0766
 1586SOL    HW2 7012   5.821   1.416   7.194  0.1167 -0.7297 -1.5775
 1587SOL     OW 7013   1.656   3.812   5.064 -0.0907  0.2551 -0.3716
 1587SOL    HW1 7014   1.701   3.876   5.009 -0.8835  0.0689 -1.2600
 1587SOL    HW2 7015   1.641   3.858   5.147  0.5775  0.7425 -0.5126
 1588SOL     OW 7016   8.636   3.847   6.079 -0.0160 -0.2966 -0.6865
 1588SOL    HW1 7017   8.703   3.856   6.011 -0.8750 -1.3234 -1.7027
 1588SOL    HW2 7018   8.661   3.768   6.126  1.0224  0.8287  0.7713
 1589SOL     OW 7019   3.661   4.623   7.471 -0.0337 -0.5330  0.6344
 1589SOL    HW1 7020   3.703   4.567   7.536 -0.7481 -1.8670 -0.0150
 1589SOL    HW2 7021   3.615   4.562   7.413 -0.7478  0.7259 -0.1623
 1590SOL     OW 7022   0.522   7.892   8.205  0.0401  0.0050  0.2964
 1590SOL    HW1 7023   0.439   7.870   8.247  0.2078 -1.1496  0.0658
 1590SOL    HW2 7024   0.578   7.922   8.276 -0.4341  0.3614  0.5214
 1591SOL     OW 7025   9.740   3.438   4.717  0.0412  0.1635  0.9818
 1591SOL    HW1 7026   9.645   3.429   4.724 -0.0873  0.3859 -0.1656
 1591SOL    HW2 7027   9.752   3.494   4.640  1.1059  0.0292  1.0423
 1592SOL     OW 7028   4.886   6.957   4.114  0.1152  0.1906  0.3729
 1592SOL    HW1 7029   4.831   7.026   4.077 -1.1117  0.6524  2.9115
 1592SOL    HW2 7030   4.922   6.995   4.194 -1.7483 -2.4640  2.6574
 1593SOL     OW 7031   4.092   8.020   3.210 -0.1321  0.2261 -0.1655
 1593SOL    HW1 7032   4.133   8.065   3.283 -0.1782  0.1457 -0.0902
 1593SOL    HW2 7033   4.121   8.069   3.132  2.1495 -1.2683 -0.3610
 1594SOL     OW 7034   0.819   9.882   6.504 -1.0180 -0.0034 -0.3609
 1594SOL    HW1 7035   0.764   9.930   6.443 -0.4520  0.8853 -0.1983
 1594SOL    HW2 7036   0.823   9.938   6.582 -1.1820 -0.8030  0.2365
 1595SOL     OW 7037   1.502   0.778   2.272  0.1223  0.2482  0.3023
 1595SOL    HW1 7038   1.544   0.712   2.328  0.0725  1.6002  2.0097
 1595SOL    HW2 7039   1.510   0.742   2.184  0.7461 -1.6941  1.0820
 1596SOL     OW 7040   2.094   3.235   2.379  0.2093 -0.4029  0.9784
 1596SOL    HW1 7041   2.176   3.194   2.351  0.6756  0.5382  0.9285
 1596SOL    HW2 7042   2.077   3.199   2.466  0.4793 -0.8821  0.8313
 1597SOL     OW 7043   2.572   0.910   4.271  0.6843  0.0563  0.0521
 1597SOL    HW1 7044   2.479   0.920   4.250  0.6172 -0.3195  0.1669
 1597SOL    HW2 7045   2.586   0.815   4.277  1.1828  0.0925 -0.4448
 1598SOL     OW 7046   6.923   8.256   1.230  0.0201  0.2771 -0.3425
 1598SOL    HW1 7047   6.893   8.224   1.315 -0.1028  0.6743 -0.2325
 1598SOL    HW2 7048   6.864   8.329   1.210  0.5839  0.7363 -0.3628
 1599SOL     OW 7049   3.015   8.496   2.086 -0.0516 -0.1477  0.5405
 1599SOL    HW1 7050   3.105   8.487   2.054  0.2534  1.6573  0.7633
 1599SOL    HW2 7051   2.963   8.439   2.029  1.2474 -1.4183  0.5699
 1600SOL     OW 7052   6.629   1.507   9.410  0.3780  0.0387  0.5469
 1600SOL    HW1 7053   6.694   1.560   9.454  0.1532 -0.1259  1.0931
 1600SOL    HW2 7054   6.560   1.494   9.476 -0.3884  0.5282 -0.1302
 1601SOL     OW 7055   3.656   9.976   2.620  0.1554  0.5411  0.0332
 1601SOL    HW1 7056   3.569   9.943   2.597 -0.0161  0.5079  0.6968
 1601SOL    HW2 7057   3.690  10.013   2.539  0.3572 -1.2653 -0.7623
 1602SOL     OW 7058   1.595   5.203   9.009 -0.3210  0.2297  0.3302
 1602SOL    HW1 7059   1.576   5.279   8.954 -2.2306  0.8353  1.7367
 1602SOL    HW2 7060   1.547   5.131   8.966  0.3168  0.1146 -0.2055
 1603SOL     OW 7061   3.913   4.554  10.481 -0.0016 -0.1339 -0.3027
 1603SOL    HW1 7062   3.864   4.599  10.412  0.4125 -1.3537 -1.4485
 1603SOL    HW2 7063   3.981   4.616  10.507 -0.3846  0.4843 -0.7493
 1604SOL     OW 7064  10.099   3.587   9.289 -0.4257  0.6116 -0.3750
 1604SOL    HW1 7065  10.102   3.681   9.304 -0.0877  0.4291  0.8043
 1604SOL    HW2 7066  10.087   3.549   9.376 -2.6159 -0.3510 -1.0279
 1605SOL     OW 7067   5.177   1.799   7.751 -0.5267 -0.2754 -0.1412
 1605SOL    HW1 7068   5.147   1.865   7.813  1.4352  1.0175 -0.4430
 1605SOL    HW2 7069   5.143   1.828   7.667  0.7389  0.7170 -0.3534
 1606SOL     OW 7070   8.229   2.394   2.286 -0.5367 -0.4293 -0.2678
 1606SOL    HW1 7071   8.168   2.342   2.337  0.7051 -0.4976  1.2018
 1606SOL    HW2 7072   8.186   2.479   2.277 -0.5874 -0.2692  1.2999
 1607SOL     OW 7073   5.243   1.498   8.570 -0.0477 -0.1881  0.2306
 1607SOL    HW1 7074   5.157   1.517   8.607 -0.7892 -2.0808 -0.3917
 1607SOL    HW2 7075   5.292   1.457   8.642 -0.2388 -0.5848  0.1371
 1608SOL     OW 7076   0.062   8.544   6.514  0.4283 -0.4161 -0.2812
 1608SOL    HW1 7077   0.029   8.505   6.434 -0.7793  0.9127 -0.4786
 1608SOL    HW2 7078   0.036   8.484   6.583 -1.1691 -0.1296 -0.5991
 1609SOL     OW 7079   9.836   4.632  10.375 -0.3276  0.1424  0.1699
 1609SOL    HW1 7080   9.794   4.674  10.301 -0.8329 -0.0552  0.3431
 1609SOL    HW2 7081   9.928   4.625  10.350 -0.2461  1.2833  0.1114
 1610SOL     OW 7082   0.505   9.384   8.348 -0.3524 -0.6180 -0.7060
 1610SOL    HW1 7083   0.560   9.306   8.336  0.7290 -0.1582  0.9031
 1610SOL    HW2 7084   0.548   9.452   8.296  1.6188  0.1532  1.7476
 1611SOL     OW 7085   8.032   8.421   5.470  0.6547  0.4760  0.0779
 1611SOL    HW1 7086   8.079   8.500   5.498  0.6266 -0.0463  1.6813
 1611SOL    HW2 7087   7.964   8.409   5.536 -1.0093  0.5367 -1.5467
 1612SOL     OW 7088   2.786   1.008   2.155 -0.0915  0.0742 -0.2608
 1612SOL    HW1 7089   2.851   1.014   2.225 -1.1749 -0.3214  0.8244
 1612SOL    HW2 7090   2.817   0.937   2.099  1.3068  1.0463 -0.7759
 1613SOL     OW 7091   1.163   7.387   5.867  0.5494 -0.6107 -0.2503
 1613SOL    HW1 7092   1.125   7.339   5.794 -1.5826  0.9982 -0.2776
 1613SOL    HW2 7093   1.257   7.384   5.851  0.3282 -2.6149 -1.5420
 1614SOL     OW 7094   0.918   3.663   3.763 -0.3060  0.3422  0.0918
 1614SOL    HW1 7095   0.888   3.648   3.674  3.1304 -1.2481 -0.9765
 1614SOL    HW2 7096   0.915   3.577   3.804  2.6297  0.0390 -0.1459
 1615SOL     OW 7097   2.580   5.321   2.262 -0.6319 -0.3670  0.3406
 1615SOL    HW1 7098   2.595   5.238   2.217  1.1796  0.2239 -0.2358
 1615SOL    HW2 7099   2.537   5.376   2.197 -2.7156 -1.1050  1.0234
 1616SOL     OW 7100   1.218   0.595   6.271  0.7324  0.1547  0.6946
 1616SOL    HW1 7101   1.142   0.630   6.224  0.8757 -1.0710 -0.5112
 1616SOL    HW2 7102   1.294   0.635   6.227  0.8348  1.4803  1.9785
 1617SOL     OW 7103   1.465   3.745   0.308  0.2327 -0.3226 -0.1970
 1617SOL    HW1 7104   1.531   3.684   0.274  1.3570  1.6197 -1.7051
 1617SOL    HW2 7105   1.453   3.809   0.238 -0.5549  1.4478  1.4663
 1618SOL     OW 7106   4.499   2.525   0.343  0.2721 -0.2478  0.1204
 1618SOL    HW1 7107   4.544   2.598   0.300  2.3784 -0.0835  2.3902
 1618SOL    HW2 7108   4.530   2.447   0.296  1.4354  0.0332  0.3849
 1619SOL     OW 7109   5.711   0.364   7.753  0.1614  0.4929  0.2613
 1619SOL    HW1 7110   5.681   0.387   7.841  0.5325 -0.6023  0.6871
 1619SOL    HW2 7111   5.666   0.426   7.695  0.1408  1.4211  1.2400
 1620SOL     OW 7112   5.159   7.393   6.206  0.1350  0.3042  0.9036
 1620SOL    HW1 7113   5.184   7.404   6.298  0.7480 -1.1311  0.9240
 1620SOL    HW2 7114   5.182   7.303   6.185 -0.6227  0.4060 -0.4775
 1621SOL     OW 7115   0.041   3.455   5.533 -0.3977 -0.4008  0.0182
 1621SOL    HW1 7116  -0.043   3.458   5.578 -1.6797 -1.8491 -2.0846
 1621SOL    HW2 7117   0.039   3.530   5.474  0.0592 -0.0943  0.3898
 1622SOL     OW 7118   9.821   8.874   9.816 -0.3736  0.0833  0.1538
 1622SOL    HW1 7119   9.757   8.816   9.776  0.7419 -0.1540 -1.3884
 1622SOL    HW2 7120   9.867   8.819   9.880  0.7213 -0.8293 -1.3454
 1623SOL     OW 7121   6.665   1.225   1.928 -0.9900  0.0348 -0.0428
 1623SOL    HW1 7122   6.679   1.312   1.965  1.3694  0.0586 -0.8181
 1623SOL    HW2 7123   6.712   1.166   1.987 -0.4142 -0.3765 -0.8948
 1624SOL     OW 7124   0.611   4.916   8.730  0.4953  0.4680 -0.1568
 1624SOL    HW1 7125   0.614   4.896   8.823 -2.8456  0.9492  0.1760
 1624SOL    HW2 7126   0.610   4.830   8.687 -0.8033  0.1537  0.4616
 1625SOL     OW 7127   0.917   7.704   4.201 -0.0079 -0.6329 -0.1704
 1625SOL    HW1 7128   0.913   7.781   4.143  0.2866  0.1209  0.7822
 1625SOL    HW2 7129   0.834   7.658   4.186 -0.9679  0.8094  0.4976
 1626SOL     OW 7130   9.431   0.371   7.697 -0.0572 -0.0052  0.0056
 1626SOL    HW1 7131   9.396   0.316   7.767  1.2692 -1.4959 -0.4669
 1626SOL    HW2 7132   9.356   0.387   7.639 -0.2097 -2.4680 -0.5674
 1627SOL     OW 7133  10.000   6.061   5.500  0.1000  0.2971  0.3169
 1627SOL    HW1 7134  10.037   6.107   5.424 -0.0174  1.2908  0.8479
 1627SOL    HW2 7135  10.070   6.061   5.565  0.1031 -0.2977  0.3208
 1628SOL     OW 7136  10.061   5.797   1.693 -0.2230 -0.2097 -0.2585
 1628SOL    HW1 7137  10.138   5.771   1.742  0.4824  1.0169 -0.6644
 1628SOL    HW2 7138   9.990   5.794   1.757  0.6333  1.1556  0.8382
 1629SOL     OW 7139   4.266   5.366   3.885  0.5670 -0.3853 -0.4192
 1629SOL    HW1 7140   4.263   5.461   3.870  0.8034 -0.1893  0.6740
 1629SOL    HW2 7141   4.300   5.357   3.974  1.9819 -1.5467 -1.0374
 1630SOL     OW 7142   6.199   0.932   0.883 -0.5309  0.2599  0.0810
 1630SOL    HW1 7143   6.257   0.959   0.954 -0.0089  0.0005 -0.2492
 1630SOL    HW2 7144   6.113   0.964   0.910 -0.3849 -0.0611  0.9599
 1631SOL     OW 7145  10.607   9.004   7.344 -0.1873  0.1028  0.3263
 1631SOL    HW1 7146  10.618   8.911   7.323 -0.5954  0.0852  0.1619
 1631SOL    HW2 7147  10.548   9.036   7.276 -0.7726  0.2752  0.9076
 1632SOL     OW 7148   4.078   7.937   7.749  0.1536 -0.3082  0.1517
 1632SOL    HW1 7149   4.106   7.922   7.658  0.6996 -1.5269  0.5015
 1632SOL    HW2 7150   4.023   8.015   7.744  0.2314 -0.3083 -1.2203
 1633SOL     OW 7151   6.489   5.919   3.807 -0.2445 -0.0553  0.1135
 1633SOL    HW1 7152   6.404   5.913   3.765  0.9058 -0.4812 -2.3279
 1633SOL    HW2 7153   6.552   5.914   3.735  1.8585  0.0705  1.8376
 1634SOL     OW 7154   6.248   7.736   6.732 -0.4744  0.3375  0.0912
 1634SOL    HW1 7155   6.224   7.660   6.784 -0.0946 -0.1309 -0.4144
 1634SOL    HW2 7156   6.340   7.752   6.753 -0.7465  1.1207  0.7615
 1635SOL     OW 7157   3.917  10.458   3.687  0.5599 -0.4518 -0.4420
 1635SOL    HW1 7158   3.862  10.397   3.638  0.4730 -0.4472 -0.3514
 1635SOL    HW2 7159   3.859  10.531   3.708  0.6125 -0.4255 -0.3855
 1636SOL     OW 7160   0.275   3.870  10.573  0.0823 -0.3297 -0.1066
 1636SOL    HW1 7161   0.264   3.886  10.480 -0.0267  0.0534 -0.0318
 1636SOL    HW2 7162   0.194   3.828  10.600  0.0654 -0.3340 -0.1640
 1637SOL     OW 7163   1.893   3.837   5.610 -0.0158 -0.1081 -0.5630
 1637SOL    HW1 7164   1.962   3.781   5.575  1.5765  1.1700  0.3572
 1637SOL    HW2 7165   1.935   3.923   5.621 -1.0321  0.1589  2.1952
 1638SOL     OW 7166   4.429   7.950   8.959 -0.2667  0.2414 -0.1088
 1638SOL    HW1 7167   4.518   7.975   8.984 -0.7359  0.0868  1.8471
 1638SOL    HW2 7168   4.405   7.882   9.022 -2.7996  2.2935  1.2824
 1639SOL     OW 7169   8.803   1.697   9.347  0.3449 -0.5170  0.0194
 1639SOL    HW1 7170   8.877   1.752   9.322 -0.7302  0.8662 -0.2373
 1639SOL    HW2 7171   8.814   1.683   9.441  0.2932  0.7364  0.2329
 1640SOL     OW 7172   0.757   5.980   0.212 -0.1330 -0.0747  0.1674
 1640SOL    HW1 7173   0.671   5.950   0.241  0.1654 -1.2978 -0.1683
 1640SOL    HW2 7174   0.811   5.977   0.291  0.3381 -2.1402 -0.1820
 1641SOL     OW 7175   6.134   4.169   4.285  0.1428  0.3764  0.1307
 1641SOL    HW1 7176   6.195   4.183   4.212 -0.5749 -0.0848 -0.5711
 1641SOL    HW2 7177   6.122   4.074   4.288 -1.2080  0.5100 -0.3119
 1642SOL     OW 7178   8.736   3.073   0.629  0.3995  0.1980  0.6179
 1642SOL    HW1 7179   8.806   3.066   0.564 -0.4971 -1.2390 -0.2302
 1642SOL    HW2 7180   8.657   3.092   0.578 -0.3795 -1.2695  1.2081
 1643SOL     OW 7181   8.968   5.612   8.505 -0.0742  0.4719 -0.4293
 1643SOL    HW1 7182   8.874   5.599   8.514  0.0314 -0.8469 -1.0398
 1643SOL    HW2 7183   8.992   5.565   8.425  0.8531  2.1499 -1.1937
 1644SOL     OW 7184   0.534   9.576   2.937  0.5931  0.1411 -0.1948
 1644SOL    HW1 7185   0.496   9.548   2.854  0.9338  0.0863 -0.3340
 1644SOL    HW2 7186   0.485   9.655   2.961 -0.0264 -0.2840 -0.0577
 1645SOL     OW 7187   5.498   9.784   8.468 -0.0172  0.1501  0.3038
 1645SOL    HW1 7188   5.413   9.812   8.434  0.3562 -1.8264 -2.7003
 1645SOL    HW2 7189   5.558   9.855   8.442 -0.7377  1.9881  3.2248
 1646SOL     OW 7190   5.759   4.975   6.067 -0.0656  0.3048 -0.5775
 1646SOL    HW1 7191   5.766   5.014   5.980  0.0165  1.2841 -0.1457
 1646SOL    HW2 7192   5.745   4.882   6.050 -0.8474  0.5930 -1.6579
 1647SOL     OW 7193   9.314   9.813   0.225  0.0175 -0.0191 -0.2028
 1647SOL    HW1 7194   9.397   9.855   0.203  0.4712  0.3097  1.8751
 1647SOL    HW2 7195   9.315   9.730   0.178  1.4242  0.0802 -0.3916
 1648SOL     OW 7196   4.253   2.640   4.138 -0.2134  0.2300 -0.2350
 1648SOL    HW1 7197   4.323   2.651   4.073  0.6999 -0.1587  0.6579
 1648SOL    HW2 7198   4.213   2.556   4.115  0.0632  0.1226 -0.3388
 1649SOL     OW 7199   1.634   8.389   1.304 -0.2258 -0.2832 -0.1442
 1649SOL    HW1 7200   1.649   8.361   1.394  0.2470 -0.0165 -0.1352
 1649SOL    HW2 7201   1.722   8.404   1.269 -0.3462 -1.3550 -0.9635
 1650SOL     OW 7202   0.203   7.648   8.753 -0.0497  0.7627 -0.1590
 1650SOL    HW1 7203   0.276   7.709   8.764 -0.6338  1.5243 -0.4453
 1650SOL    HW2 7204   0.211   7.618   8.662  0.8289 -0.3822  0.2719
 1651SOL     OW 7205   0.845   7.326   3.148 -0.5123  0.4523 -0.1106
 1651SOL    HW1 7206   0.935   7.333   3.178 -0.1748  2.0917 -1.3254
 1651SOL    HW2 7207   0.840   7.241   3.105  0.6712  0.6503 -0.6721
 1652SOL     OW 7208   1.272   7.259   9.728 -0.3778 -0.0676  0.0616
 1652SOL    HW1 7209   1.302   7.285   9.815 -1.2329 -0.0986  0.3754
 1652SOL    HW2 7210   1.305   7.170   9.717 -0.0654  0.0229  0.2571
 1653SOL     OW 7211   4.055   4.996   1.577  1.0556  0.0081  0.1474
 1653SOL    HW1 7212   4.140   5.040   1.578  0.6789  0.7436  0.9559
 1653SOL    HW2 7213   4.027   4.997   1.668  1.4013 -2.6752  0.3593
 1654SOL     OW 7214   9.484   3.915   0.322  0.0183  0.1313 -0.0340
 1654SOL    HW1 7215   9.548   3.960   0.267 -0.4767 -0.1695 -0.8808
 1654SOL    HW2 7216   9.523   3.915   0.410  1.3444 -0.3673 -0.5961
 1655SOL     OW 7217   1.343   6.557   4.287  0.6150 -0.5168  0.1122
 1655SOL    HW1 7218   1.381   6.644   4.290 -2.5737  1.0101  0.2510
 1655SOL    HW2 7219   1.373   6.520   4.204  1.6671  0.8732 -0.1610
 1656SOL     OW 7220   4.944   3.934   6.703 -0.3995 -0.2896 -0.0359
 1656SOL    HW1 7221   5.016   3.960   6.761  0.2689 -0.5546 -0.7365
 1656SOL    HW2 7222   4.906   3.857   6.745 -0.3977 -0.0397  0.4312
 1657SOL     OW 7223   4.936   8.395   4.905 -0.3422 -0.6835  0.0175
 1657SOL    HW1 7224   4.986   8.398   4.986 -0.6251  1.0672  0.1719
 1657SOL    HW2 7225   4.852   8.356   4.930  0.1342 -1.6006  0.2181
 1658SOL     OW 7226   0.263   0.025   8.317  0.2039 -0.1591  0.4599
 1658SOL    HW1 7227   0.197  -0.034   8.355  1.2633 -1.3901  0.4737
 1658SOL    HW2 7228   0.302   0.069   8.392 -2.0125  2.2205  0.3359
 1659SOL     OW 7229   6.992   1.007   2.835  0.2055 -0.2430  0.2316
 1659SOL    HW1 7230   6.994   1.063   2.913  2.7573  0.3639 -0.1986
 1659SOL    HW2 7231   7.078   1.018   2.795  0.6892 -4.1068 -0.1703
 1660SOL     OW 7232   2.260   5.494   5.422 -0.2274 -0.2501  0.1545
 1660SOL    HW1 7233   2.283   5.435   5.493 -2.6237 -1.2014  0.2197
 1660SOL    HW2 7234   2.206   5.441   5.363 -2.3283  1.7674  0.1349
 1661SOL     OW 7235   3.712   6.730   1.671  0.0500  0.1096  0.2300
 1661SOL    HW1 7236   3.649   6.795   1.638  0.1090 -0.6782 -1.5331
 1661SOL    HW2 7237   3.658   6.665   1.716 -0.3648 -0.2097 -0.6890
 1662SOL     OW 7238   1.163   9.174   8.636  0.4592  0.1296  0.3917
 1662SOL    HW1 7239   1.229   9.196   8.702  2.6692 -2.6186 -0.7126
 1662SOL    HW2 7240   1.210   9.179   8.553 -1.4863  0.6888 -0.7278
 1663SOL     OW 7241   6.890  10.419   4.445 -0.1061  0.1026  0.2980
 1663SOL    HW1 7242   6.917  10.508   4.422  0.3892 -0.0042  0.4580
 1663SOL    HW2 7243   6.972  10.374   4.465 -0.0411 -1.2083 -2.5076
 1664SOL     OW 7244   9.404   1.784   7.340 -0.4097  0.1102  0.2181
 1664SOL    HW1 7245   9.414   1.815   7.249 -0.8414  0.7565  0.3799
 1664SOL    HW2 7246   9.310   1.773   7.351 -0.3539 -0.0299  0.5695
 1665SOL     OW 7247   0.308   0.655   9.733 -0.3495  0.2590 -0.2370
 1665SOL    HW1 7248   0.338   0.709   9.661 -0.7580 -0.4161 -0.9275
 1665SOL    HW2 7249   0.220   0.625   9.707 -1.1098  1.1608  1.1738
 1666SOL     OW 7250   8.583   2.145  10.646  0.0269  1.0696  0.3390
 1666SOL    HW1 7251   8.540   2.217  10.599 -1.4753  1.2919  1.9512
 1666SOL    HW2 7252   8.608   2.183  10.730  1.1239  0.2459  0.3957
 1667SOL     OW 7253   6.793   6.729   3.864 -0.5015  0.0968 -0.0310
 1667SOL    HW1 7254   6.857   6.658   3.873 -1.6503 -1.1263 -0.9103
 1667SOL    HW2 7255   6.798   6.753   3.771 -1.1215  0.1498 -0.0569
 1668SOL     OW 7256   7.872   6.377   3.500 -0.3206  0.3417 -0.6159
 1668SOL    HW1 7257   7.808   6.443   3.471 -0.5006  1.5627  2.1918
 1668SOL    HW2 7258   7.901   6.408   3.586  2.6542 -1.1995 -0.9306
 1669SOL     OW 7259   7.097   7.465  10.138  0.0597  0.2039  0.1628
 1669SOL    HW1 7260   7.005   7.459  10.163 -0.7170 -0.0243 -2.3951
 1669SOL    HW2 7261   7.133   7.377  10.151 -1.0270 -0.6013 -1.8327
 1670SOL     OW 7262   0.524   9.930   4.761  0.0903  0.0419 -0.2175
 1670SOL    HW1 7263   0.546  10.023   4.762  1.7481 -0.3224 -0.3047
 1670SOL    HW2 7264   0.463   9.921   4.688 -1.3348  1.2850  0.7438
 1671SOL     OW 7265   0.926   1.172   5.129 -0.2234 -0.0137  0.1734
 1671SOL    HW1 7266   0.894   1.089   5.163 -2.4679  1.3628  1.6864
 1671SOL    HW2 7267   0.966   1.216   5.204  0.6299  0.4565 -0.5228
 1672SOL     OW 7268   2.136   6.574   9.813 -0.5997 -0.1094  0.0305
 1672SOL    HW1 7269   2.168   6.490   9.780  0.7503  0.5533 -0.4245
 1672SOL    HW2 7270   2.189   6.639   9.768 -0.5226  0.9335  1.5445
 1673SOL     OW 7271   0.826   6.300   3.414  0.5761 -0.2018  0.2770
 1673SOL    HW1 7272   0.808   6.217   3.370 -0.5294 -0.2078  0.7052
 1673SOL    HW2 7273   0.739   6.333   3.438  1.0848  0.3828  1.3680
 1674SOL     OW 7274   5.386   3.395   6.087  0.2804 -0.3736  0.3623
 1674SOL    HW1 7275   5.422   3.476   6.051 -0.7122 -0.4926 -0.9727
 1674SOL    HW2 7276   5.326   3.424   6.156  0.6506 -0.0244  0.5398
 1675SOL     OW 7277   0.239   5.422   5.401 -0.3951  0.0230  0.3596
 1675SOL    HW1 7278   0.218   5.387   5.315  0.0557  1.9670 -0.6044
 1675SOL    HW2 7279   0.334   5.423   5.404 -0.3371  2.2171 -0.1894
 1676SOL     OW 7280   1.910   4.483   9.329 -0.1839 -0.9388 -0.1192
 1676SOL    HW1 7281   1.917   4.499   9.423  1.6740  0.2723 -0.3878
 1676SOL    HW2 7282   1.934   4.391   9.318 -1.1186 -1.2872  0.6278
 1677SOL     OW 7283   2.617   0.587   2.285 -0.3930  0.2166  0.5647
 1677SOL    HW1 7284   2.600   0.493   2.275 -0.0489  0.2293 -0.1744
 1677SOL    HW2 7285   2.697   0.591   2.338  1.6352 -0.0208 -2.2505
 1678SOL     OW 7286   7.026   2.165   2.093 -0.1196  0.5456  0.1399
 1678SOL    HW1 7287   6.985   2.079   2.094 -0.9471  0.9220  1.2152
 1678SOL    HW2 7288   7.115   2.151   2.124 -0.5588  0.2006  1.2888
 1679SOL     OW 7289   7.323   5.162   1.468 -0.0470 -0.2128 -0.3470
 1679SOL    HW1 7290   7.409   5.165   1.426 -0.5522  1.2023 -1.3562
 1679SOL    HW2 7291   7.268   5.219   1.414 -1.2618  0.0293  1.0968
 1680SOL     OW 7292   0.046   5.820   9.136 -0.4784  0.2040 -0.7406
 1680SOL    HW1 7293   0.137   5.793   9.150 -0.6953  0.4055  1.5116
 1680SOL    HW2 7294  -0.005   5.760   9.190 -1.6140  0.6486 -1.2920
 1681SOL     OW 7295   2.244   6.061   2.162 -0.3764 -0.0296  0.2526
 1681SOL    HW1 7296   2.219   5.988   2.106 -1.9962  0.1560  0.7061
 1681SOL    HW2 7297   2.163   6.109   2.178  0.7321  2.2379 -0.5213
 1682SOL     OW 7298   4.087   0.451   1.113 -0.4343  0.3405 -0.2643
 1682SOL    HW1 7299   4.129   0.441   1.028  0.5498 -0.5304  0.3056
 1682SOL    HW2 7300   4.113   0.538   1.143  0.0375  0.2517 -0.4139
 1683SOL     OW 7301   8.383   5.376   9.721 -0.2279 -0.0614 -0.0282
 1683SOL    HW1 7302   8.373   5.294   9.770 -3.2280 -0.3106 -0.8740
 1683SOL    HW2 7303   8.346   5.443   9.778 -0.8340  0.1455 -0.6449
 1684SOL     OW 7304   6.180   7.584   2.118  0.1378 -0.2512  0.4665
 1684SOL    HW1 7305   6.263   7.562   2.075  1.4160  1.5184  1.8659
 1684SOL    HW2 7306   6.177   7.526   2.194 -0.1201 -0.5904  0.2008
 1685SOL     OW 7307   1.015   3.193   7.799 -0.0458  0.3929  0.5545
 1685SOL    HW1 7308   0.963   3.259   7.753 -1.4711 -0.4030  0.9453
 1685SOL    HW2 7309   1.028   3.124   7.734  1.2443  0.9250  0.2169
 1686SOL     OW 7310   5.817   4.090   3.506  0.0951  0.1405 -0.2956
 1686SOL    HW1 7311   5.876   4.021   3.539  0.4043  0.0892 -0.9472
 1686SOL    HW2 7312   5.825   4.085   3.411  0.6648  1.5544 -0.3374
 1687SOL     OW 7313   0.477  10.584   4.603  0.4192  0.1701  0.2011
 1687SOL    HW1 7314   0.445  10.668   4.570  1.8874  0.3065 -0.9128
 1687SOL    HW2 7315   0.549  10.560   4.546  1.5177 -0.7564  1.8726
 1688SOL     OW 7316   6.899   6.601   0.593  0.0028 -0.0019  0.2715
 1688SOL    HW1 7317   6.983   6.612   0.637  1.6543 -2.9056 -1.8011
 1688SOL    HW2 7318   6.852   6.538   0.648 -0.1994  0.4397  0.6146
 1689SOL     OW 7319   5.516   7.903   8.956 -0.4155  0.1751 -0.3122
 1689SOL    HW1 7320   5.520   7.879   8.864  0.0625  0.2124 -0.3060
 1689SOL    HW2 7321   5.584   7.969   8.967  0.1735 -0.5006  0.2527
 1690SOL     OW 7322   8.143   1.953   1.587  0.3327  0.0698 -0.2712
 1690SOL    HW1 7323   8.084   1.887   1.625  0.5163  0.5558  0.8875
 1690SOL    HW2 7324   8.100   2.037   1.606  1.4972  0.4461  0.8152
 1691SOL     OW 7325   6.089   8.047   1.689 -0.0611 -0.2503 -0.3558
 1691SOL    HW1 7326   6.130   8.111   1.630  2.3601  0.3337  1.7534
 1691SOL    HW2 7327   6.029   8.099   1.742  1.9955  0.4496  1.4400
 1692SOL     OW 7328   8.690   5.695   7.353  0.3192 -0.0283 -0.0287
 1692SOL    HW1 7329   8.685   5.789   7.366  1.7018 -0.2418  2.7565
 1692SOL    HW2 7330   8.766   5.682   7.297 -0.5942  0.5461 -1.4305
 1693SOL     OW 7331   4.765   2.772  10.121  0.1042  0.1733  0.0380
 1693SOL    HW1 7332   4.742   2.865  10.126  0.8756  0.3271  0.9618
 1693SOL    HW2 7333   4.769   2.754  10.027 -3.3392  0.2148 -0.2324
 1694SOL     OW 7334   0.291   2.535   7.136 -0.0126  0.2179  0.1787
 1694SOL    HW1 7335   0.284   2.529   7.041 -0.7846 -3.3557  0.3462
 1694SOL    HW2 7336   0.202   2.524   7.168 -0.0786  3.2397  1.4097
 1695SOL     OW 7337   3.787   5.034   6.625  0.3675 -0.0023 -0.5904
 1695SOL    HW1 7338   3.694   5.047   6.638  0.5374  0.8940 -0.1889
 1695SOL    HW2 7339   3.819   4.999   6.708  0.0251 -2.5754 -1.4540
 1696SOL     OW 7340   8.537   9.158   0.033 -0.0223  0.2453 -0.2075
 1696SOL    HW1 7341   8.625   9.194   0.030  1.0651 -2.3196 -2.2854
 1696SOL    HW2 7342   8.549   9.068   0.063 -2.1817  0.3325  1.1473
 1697SOL     OW 7343   4.299   9.136   2.673 -0.3582  0.6758  0.3029
 1697SOL    HW1 7344   4.208   9.105   2.668  0.3746 -1.5942 -0.1872
 1697SOL    HW2 7345   4.312   9.188   2.594 -0.4967 -1.2634 -1.0621
 1698SOL     OW 7346   6.833   5.140   6.129  0.1168  0.1402 -0.0936
 1698SOL    HW1 7347   6.912   5.088   6.142  0.4766  0.6150 -0.3342
 1698SOL    HW2 7348   6.854   5.197   6.055  0.3371  1.7281  1.1220
 1699SOL     OW 7349   2.735   8.580  10.150 -0.4063 -0.1305  0.1512
 1699SOL    HW1 7350   2.691   8.496  10.150 -0.6182 -0.0310  1.3416
 1699SOL    HW2 7351   2.802   8.573  10.217  1.0330 -0.0742 -1.2252
 1700SOL     OW 7352   1.523   0.212   3.387  0.0769 -0.0410 -0.3480
 1700SOL    HW1 7353   1.489   0.192   3.474  0.9036 -1.5022 -0.3226
 1700SOL    HW2 7354   1.504   0.134   3.335 -0.3607  0.7845 -1.4825
 1701SOL     OW 7355   2.683  10.030   1.898  0.3040  0.5936  0.2453
 1701SOL    HW1 7356   2.655   9.955   1.844 -0.1224  1.3533 -0.6159
 1701SOL    HW2 7357   2.677   9.998   1.988 -1.5185  0.1025 -0.0117
 1702SOL     OW 7358  10.546   4.521   0.324 -0.2761  0.1661 -0.6785
 1702SOL    HW1 7359  10.453   4.543   0.328  0.2733  2.5101  2.7067
 1702SOL    HW2 7360  10.556   4.448   0.385  0.3125  1.1701  0.4776
 1703SOL     OW 7361   6.576   0.508   0.414 -0.3500  0.1999 -0.6408
 1703SOL    HW1 7362   6.539   0.432   0.458 -1.3850 -0.3627 -2.3723
 1703SOL    HW2 7363   6.561   0.581   0.474 -0.5983 -0.7180  0.4350
 1704SOL     OW 7364   3.482   1.993   3.042 -0.4153 -0.5353 -0.1701
 1704SOL    HW1 7365   3.520   2.065   3.093  1.2305 -2.0837  0.9313
 1704SOL    HW2 7366   3.420   1.951   3.101  0.9220 -1.8562  0.3860
 1705SOL     OW 7367   1.763   4.719   6.298 -0.1680 -0.3257  0.1530
 1705SOL    HW1 7368   1.668   4.731   6.308 -0.1545 -0.3104  0.2668
 1705SOL    HW2 7369   1.796   4.714   6.388  0.0257  0.3612  0.1306
 1706SOL     OW 7370   2.157   8.214   9.984 -0.5367 -0.0894 -0.1178
 1706SOL    HW1 7371   2.242   8.243   9.950  0.0635 -0.8681  0.6619
 1706SOL    HW2 7372   2.140   8.271  10.058 -1.6587  1.3484 -1.4141
 1707SOL     OW 7373   4.019   5.303   8.987 -0.1833  0.3692 -0.1241
 1707SOL    HW1 7374   3.960   5.319   9.060 -0.8226  1.4528 -0.8511
 1707SOL    HW2 7375   4.099   5.269   9.027  0.7344  3.9307  1.4803
 1708SOL     OW 7376  10.547   4.064   6.748 -0.2322  0.1108 -0.2141
 1708SOL    HW1 7377  10.588   4.138   6.792  0.2914 -1.3717  1.9255
 1708SOL    HW2 7378  10.518   4.100   6.664  1.8253  2.2115 -0.1371
 1709SOL     OW 7379   9.212   6.411   7.159  0.0870  0.2928  0.1464
 1709SOL    HW1 7380   9.167   6.434   7.240  0.7760 -2.6448  1.4793
 1709SOL    HW2 7381   9.305   6.409   7.182  0.4619  1.0210 -1.1838
 1710SOL     OW 7382   3.658   6.210   5.943  0.1613  0.1374 -0.0910
 1710SOL    HW1 7383   3.732   6.189   6.000 -0.3757 -0.4607  0.4001
 1710SOL    HW2 7384   3.624   6.125   5.916 -0.5836  0.4029  0.0007
 1711SOL     OW 7385   3.389   5.273   4.890  0.4300 -0.3115  0.1804
 1711SOL    HW1 7386   3.325   5.342   4.872  1.2385  0.2870 -0.4850
 1711SOL    HW2 7387   3.382   5.257   4.984  0.6082  1.0783  0.4589
 1712SOL     OW 7388   1.805   3.111   1.727 -0.7178  0.5177 -0.2139
 1712SOL    HW1 7389   1.878   3.057   1.757  1.5000  2.6257 -1.3738
 1712SOL    HW2 7390   1.785   3.078   1.640  0.6142  1.4439 -0.9102
 1713SOL     OW 7391   3.992   2.195   1.166  0.5663 -0.0390 -0.1031
 1713SOL    HW1 7392   4.071   2.173   1.117 -0.2555 -1.5961 -0.7864
 1713SOL    HW2 7393   4.019   2.194   1.258  1.4803  0.1591 -0.3596
 1714SOL     OW 7394   0.710   4.013  10.293 -0.1091  0.6395  0.1351
 1714SOL    HW1 7395   0.758   4.003  10.211 -0.7143 -0.2915 -0.1245
 1714SOL    HW2 7396   0.619   4.028  10.267 -0.6664 -1.5560  0.5832
 1715SOL     OW 7397   2.038   9.558   7.453  0.0261  0.3566 -0.3671
 1715SOL    HW1 7398   1.967   9.494   7.446 -1.4779  1.6226  2.0299
 1715SOL    HW2 7399   2.037   9.605   7.370  0.2889 -1.7848 -1.6422
 1716SOL     OW 7400   2.350   4.174   5.269 -0.7959  0.5704 -0.2341
 1716SOL    HW1 7401   2.326   4.139   5.184  1.1182 -0.9697 -0.1884
 1716SOL    HW2 7402   2.282   4.141   5.328 -1.4309  0.6081 -0.9255
 1717SOL     OW 7403   3.391   7.211  10.194  0.4399 -0.5612  0.2613
 1717SOL    HW1 7404   3.424   7.122  10.206  0.1499 -0.6578  0.3477
 1717SOL    HW2 7405   3.343   7.208  10.111  0.8072 -0.3730  0.0389
 1718SOL     OW 7406   6.413   8.184   4.680 -0.5999 -0.0644 -0.0643
 1718SOL    HW1 7407   6.489   8.232   4.647  0.8425 -0.7939  1.9729
 1718SOL    HW2 7408   6.354   8.179   4.606  1.9467 -0.6871 -2.1955
 1719SOL     OW 7409   2.511   0.370   5.031  0.3929  0.8403 -0.1695
 1719SOL    HW1 7410   2.431   0.366   5.083 -0.0097 -2.6975 -0.8158
 1719SOL    HW2 7411   2.482   0.403   4.946  0.1821  2.1058  0.3669
 1720SOL     OW 7412   8.039   0.194   1.229 -0.0486  0.3494  0.0208
 1720SOL    HW1 7413   8.059   0.189   1.136 -2.5196 -0.0817 -0.5607
 1720SOL    HW2 7414   8.024   0.103   1.255 -1.3334  0.6286  0.3184
 1721SOL     OW 7415   2.258  10.248   7.159  0.8108  0.0496  0.7547
 1721SOL    HW1 7416   2.334  10.196   7.130  0.2148 -1.3530  1.6261
 1721SOL    HW2 7417   2.245  10.311   7.088  1.6180 -0.9281 -0.3115
 1722SOL     OW 7418   3.256   6.238   9.701  0.9409 -0.4721  0.4072
 1722SOL    HW1 7419   3.345   6.266   9.682  0.5322  1.1121  0.6487
 1722SOL    HW2 7420   3.227   6.194   9.621  1.7360 -0.4818  0.1192
 1723SOL     OW 7421   2.994   8.533   3.957 -0.2168 -0.0004  0.4636
 1723SOL    HW1 7422   3.060   8.467   3.939  0.5134  1.1836 -1.5721
 1723SOL    HW2 7423   3.002   8.551   4.050  0.7575 -1.5012  0.7009
 1724SOL     OW 7424   1.013   3.316   0.027  0.6439 -0.8091  0.4216
 1724SOL    HW1 7425   0.963   3.245   0.067  0.8557 -1.1541  0.0926
 1724SOL    HW2 7426   1.043   3.279  -0.057 -0.0071 -0.0243 -0.1701
 1725SOL     OW 7427   3.165   6.519   1.036  0.0697  0.4298 -0.5468
 1725SOL    HW1 7428   3.215   6.503   0.956  0.5780  1.7356 -0.5166
 1725SOL    HW2 7429   3.228   6.506   1.107 -0.2359 -0.1685 -0.3763
 1726SOL     OW 7430   6.538  10.296   8.127 -0.3150  0.3113 -0.2185
 1726SOL    HW1 7431   6.600  10.357   8.167  1.1624 -1.9335  1.1468
 1726SOL    HW2 7432   6.479  10.272   8.199  1.2159 -2.3411  0.3169
 1727SOL     OW 7433   3.108   4.335   4.370  0.4702 -0.2741  0.7137
 1727SOL    HW1 7434   3.105   4.298   4.281 -1.0761  0.5267  0.4005
 1727SOL    HW2 7435   3.053   4.413   4.365  2.1963  1.0842  1.8193
 1728SOL     OW 7436   6.109   3.769   0.559  0.3952 -0.5291  0.2763
 1728SOL    HW1 7437   6.171   3.772   0.631  0.6143  0.1839  0.0639
 1728SOL    HW2 7438   6.163   3.777   0.480  0.0459 -0.0276  0.0859
 1729SOL     OW 7439  10.100   0.349   5.085 -0.0515  0.3100  0.1243
 1729SOL    HW1 7440  10.097   0.413   5.014  0.2229  0.1602 -0.0263
 1729SOL    HW2 7441  10.124   0.267   5.042 -2.2483 -0.3474  0.0104
 1730SOL     OW 7442   4.690   9.309   6.809  0.1349  0.1851  0.1716
 1730SOL    HW1 7443   4.743   9.290   6.887  0.0304 -0.7208  0.0371
 1730SOL    HW2 7444   4.617   9.361   6.842 -0.6335 -1.2966  0.9476
 1731SOL     OW 7445   5.140   3.459   3.038 -0.2306 -0.0261  0.2708
 1731SOL    HW1 7446   5.230   3.482   3.015 -0.3808 -0.4403 -0.7998
 1731SOL    HW2 7447   5.117   3.519   3.109  1.9186 -1.9407  2.7766
 1732SOL     OW 7448  10.010   7.855   7.415  0.0600  0.1870  0.0228
 1732SOL    HW1 7449   9.960   7.907   7.352  1.4840  0.3839 -0.9864
 1732SOL    HW2 7450   9.943   7.809   7.467 -1.1582  0.8189 -0.9441
 1733SOL     OW 7451   2.751   3.426  10.134 -0.2239 -0.4122  0.1152
 1733SOL    HW1 7452   2.719   3.516  10.131 -1.3841 -0.8111  0.1654
 1733SOL    HW2 7453   2.716   3.386  10.054 -1.0287 -1.2304  0.8589
 1734SOL     OW 7454   6.154   5.259   9.003 -0.2253 -0.5162  0.1689
 1734SOL    HW1 7455   6.234   5.248   8.950  0.4528  0.0512  1.0440
 1734SOL    HW2 7456   6.083   5.233   8.944  0.5518 -0.4718 -0.8275
 1735SOL     OW 7457   8.365   8.568   0.138 -0.4151  0.0051  0.1167
 1735SOL    HW1 7458   8.410   8.487   0.113 -1.3923 -1.1581  1.8659
 1735SOL    HW2 7459   8.428   8.615   0.192  0.8563  1.4184 -2.4431
 1736SOL     OW 7460   3.103   0.967   6.841  0.0356 -0.1948 -0.4471
 1736SOL    HW1 7461   3.148   0.965   6.756 -0.7078 -1.3896 -0.8242
 1736SOL    HW2 7462   3.120   1.055   6.874  0.5147  0.2252 -1.7377
 1737SOL     OW 7463   5.474   4.510   8.638 -0.3028  0.1463  0.1900
 1737SOL    HW1 7464   5.524   4.470   8.567  0.2843  2.4355 -0.7701
 1737SOL    HW2 7465   5.394   4.541   8.596 -0.2273  0.9752  0.6478
 1738SOL     OW 7466  10.351   4.281   5.016  0.2222  0.2669  0.1809
 1738SOL    HW1 7467  10.256   4.280   5.032  0.1062  2.9253  0.0722
 1738SOL    HW2 7468  10.390   4.294   5.102  0.3690  0.8677  0.0314
 1739SOL     OW 7469   1.873   7.456  10.284 -0.5918  0.4586  0.3540
 1739SOL    HW1 7470   1.906   7.370  10.257 -1.5867  0.5555 -1.3428
 1739SOL    HW2 7471   1.932   7.483  10.354  1.1190 -0.6350 -0.5677
 1740SOL     OW 7472   3.805   8.634   3.088 -0.3158 -0.0524  0.3447
 1740SOL    HW1 7473   3.886   8.587   3.065  0.3545  0.9308  0.6387
 1740SOL    HW2 7474   3.833   8.723   3.107 -1.3572  0.1026  1.3037
 1741SOL     OW 7475   2.360   3.800   5.907 -0.3234 -0.2383  0.5717
 1741SOL    HW1 7476   2.359   3.746   5.986 -1.5647  0.4162  1.0258
 1741SOL    HW2 7477   2.327   3.885   5.936  0.7837  0.5206 -0.3130
 1742SOL     OW 7478   0.723   6.669  10.572  0.0255 -0.1939 -0.0183
 1742SOL    HW1 7479   0.769   6.739  10.526  0.6575 -0.1001  0.7424
 1742SOL    HW2 7480   0.642   6.710  10.603  0.8746  0.5347  1.3582
 1743SOL     OW 7481   0.015   3.535   8.787 -0.0057  0.2473 -0.8355
 1743SOL    HW1 7482  -0.024   3.455   8.822  0.4276 -0.1241 -1.1771
 1743SOL    HW2 7483  -0.040   3.558   8.712 -0.8732  0.9869  0.0013
 1744SOL     OW 7484   4.588   8.032   7.607  0.7972  0.2136  0.1651
 1744SOL    HW1 7485   4.683   8.031   7.597  0.7319  0.5749 -0.6193
 1744SOL    HW2 7486   4.571   7.974   7.681  1.6299  0.1788  0.3412
 1745SOL     OW 7487   1.309   2.199   9.536 -0.4350 -0.3723  0.1105
 1745SOL    HW1 7488   1.286   2.106   9.533  0.3301 -0.5464 -0.7808
 1745SOL    HW2 7489   1.242   2.242   9.482 -0.1465 -0.5565 -0.4003
 1746SOL     OW 7490   8.539   7.767   6.528 -0.1830  0.1256 -0.1368
 1746SOL    HW1 7491   8.503   7.855   6.532  1.5549  0.9162 -0.5367
 1746SOL    HW2 7492   8.533   7.733   6.617 -3.0896 -0.3548 -0.4400
 1747SOL     OW 7493   3.400   0.305   9.515  0.3276 -0.3014  0.6615
 1747SOL    HW1 7494   3.407   0.223   9.564  1.1487 -1.4459 -1.2675
 1747SOL    HW2 7495   3.481   0.308   9.463 -1.2330 -0.0447 -1.8920
 1748SOL     OW 7496   8.566   4.693  10.125 -0.4375  0.0603  0.2608
 1748SOL    HW1 7497   8.615   4.648  10.193 -0.3487  0.7586  0.6684
 1748SOL    HW2 7498   8.576   4.786  10.145 -3.1326  0.2496  1.2790
 1749SOL     OW 7499   7.504   4.814  10.548 -0.5074  0.0684 -0.2463
 1749SOL    HW1 7500   7.558   4.840  10.473  0.4566 -0.3372  0.2917
 1749SOL    HW2 7501   7.509   4.889  10.607 -0.2139 -0.1257 -0.0247
 1750SOL     OW 7502   3.736   3.205   4.621  0.2791  0.1575 -0.4046
 1750SOL    HW1 7503   3.684   3.239   4.694 -0.4440 -1.0619 -0.3249
 1750SOL    HW2 7504   3.746   3.279   4.562  2.9714  1.9593  2.0001
 1751SOL     OW 7505   2.190   9.611   9.053  0.2004 -0.3553  0.7721
 1751SOL    HW1 7506   2.235   9.630   8.971 -0.4833 -2.4762 -0.1671
 1751SOL    HW2 7507   2.260   9.593   9.116  0.8071  2.7969  1.2062
 1752SOL     OW 7508   3.703   4.611   2.391 -0.2417 -0.3204 -0.1308
 1752SOL    HW1 7509   3.698   4.516   2.377  1.3897 -0.2222 -1.8517
 1752SOL    HW2 7510   3.794   4.627   2.414 -0.8316  0.7138  1.6765
 1753SOL     OW 7511   3.454   9.251  10.234 -0.2065 -0.3751 -0.1211
 1753SOL    HW1 7512   3.526   9.270  10.294 -0.5353 -0.9420  0.4665
 1753SOL    HW2 7513   3.375   9.273  10.283 -0.4760 -0.8028 -0.3546
 1754SOL     OW 7514   2.248   1.244   4.189  0.3452 -0.2358 -0.1302
 1754SOL    HW1 7515   2.230   1.150   4.191 -0.0330 -0.1643 -0.1765
 1754SOL    HW2 7516   2.213   1.273   4.105 -1.0110  0.2396  0.5738
 1755SOL     OW 7517   9.770   1.266   5.077 -0.4527 -0.2967  0.4576
 1755SOL    HW1 7518   9.861   1.292   5.096 -0.8001  0.5203  1.0753
 1755SOL    HW2 7519   9.723   1.287   5.158 -0.8636 -2.4463  0.8255
 1756SOL     OW 7520   9.918   7.545   7.253 -0.4407  0.1590  0.3769
 1756SOL    HW1 7521   9.842   7.602   7.261 -0.1250  1.1350 -2.3142
 1756SOL    HW2 7522   9.932   7.510   7.341 -3.0974  1.0575  1.2556
 1757SOL     OW 7523   6.223   4.341   2.947 -0.2077 -0.1089  0.4144
 1757SOL    HW1 7524   6.313   4.352   2.978  0.0572 -0.9978  0.0153
 1757SOL    HW2 7525   6.232   4.311   2.856 -0.9311  0.6381  0.0849
 1758SOL     OW 7526  10.386   6.575   3.303  0.3291 -0.1197  0.0320
 1758SOL    HW1 7527  10.452   6.550   3.367  1.2238  0.6594 -0.5500
 1758SOL    HW2 7528  10.351   6.658   3.334  0.6078  0.1515 -0.3646
 1759SOL     OW 7529   4.277   3.137  10.607  0.4453 -0.3446  0.4916
 1759SOL    HW1 7530   4.232   3.138  10.691  0.3149  0.0965  0.4151
 1759SOL    HW2 7531   4.215   3.096  10.546 -0.0045  0.5991  0.3025
 1760SOL     OW 7532   6.447   3.508   9.897 -0.1473  0.0354 -0.3255
 1760SOL    HW1 7533   6.504   3.479   9.825 -1.1492  0.2106 -1.2170
 1760SOL    HW2 7534   6.436   3.430   9.952 -1.4119 -0.8619 -1.7527
 1761SOL     OW 7535   3.467   1.403   5.189  0.2470 -0.2130 -0.6387
 1761SOL    HW1 7536   3.412   1.465   5.236  0.0844 -1.2011  0.5114
 1761SOL    HW2 7537   3.555   1.440   5.195 -0.0791  0.7413 -1.4254
 1762SOL     OW 7538  10.470   1.070   9.987 -0.3432 -0.0333  0.6191
 1762SOL    HW1 7539  10.409   1.118  10.043 -0.7296 -0.0031  0.1734
 1762SOL    HW2 7540  10.550   1.122   9.988  0.2933 -0.9616  2.6318
 1763SOL     OW 7541   6.092   7.324   3.367 -0.0426  0.2412 -0.1108
 1763SOL    HW1 7542   5.997   7.318   3.376  0.1225 -2.0887  0.6224
 1763SOL    HW2 7543   6.118   7.391   3.431 -1.0847  0.0884  0.4848
 1764SOL     OW 7544   1.635   1.163   3.469  0.4046 -0.3803  0.0447
 1764SOL    HW1 7545   1.607   1.092   3.527 -0.1925  0.4980  0.8701
 1764SOL    HW2 7546   1.648   1.121   3.384  1.3913 -1.7214  0.8124
 1765SOL     OW 7547   2.006   7.690   7.911  0.0690 -0.2855 -0.0090
 1765SOL    HW1 7548   2.057   7.739   7.846 -0.3181  0.3016  0.1182
 1765SOL    HW2 7549   2.070   7.663   7.976  0.1686  0.8322  0.3859
 1766SOL     OW 7550   3.027   8.805   5.358 -0.0715  0.4188 -0.1325
 1766SOL    HW1 7551   3.002   8.849   5.438 -1.1626  1.9666 -1.2715
 1766SOL    HW2 7552   3.105   8.754   5.382 -0.5410  0.5870  1.9413
 1767SOL     OW 7553   8.371   6.722   0.645 -0.3680 -0.4089 -0.3045
 1767SOL    HW1 7554   8.318   6.666   0.589 -1.4942 -0.3718  0.6699
 1767SOL    HW2 7555   8.372   6.677   0.729  1.3715 -0.5148 -0.3521
 1768SOL     OW 7556   3.056   2.474   9.772  0.0076  0.0097  0.0094
 1768SOL    HW1 7557   3.000   2.507   9.842 -0.3353  1.4526 -0.9204
 1768SOL    HW2 7558   3.129   2.431   9.818  1.9582  4.2921  1.4637
 1769SOL     OW 7559   3.940  10.190   0.086  0.4269 -0.7383 -0.3088
 1769SOL    HW1 7560   3.984  10.229   0.010 -0.2727  0.9531  0.1221
 1769SOL    HW2 7561   3.985  10.226   0.162 -2.7029  2.5563  0.2188
 1770SOL     OW 7562   3.726   9.840   6.939  0.6095  0.4827 -0.3605
 1770SOL    HW1 7563   3.651   9.856   6.882 -0.1943  2.1100  1.0581
 1770SOL    HW2 7564   3.783   9.915   6.926 -0.8825  2.3723  2.8419
 1771SOL     OW 7565   5.023   2.706   9.723  0.4139  0.4058  0.5547
 1771SOL    HW1 7566   5.072   2.716   9.805 -0.5040 -1.2638  1.3476
 1771SOL    HW2 7567   4.932   2.718   9.748  0.1449  0.1355 -0.2768
 1772SOL     OW 7568   1.495  10.364   6.706  0.0250  0.3351  0.5322
 1772SOL    HW1 7569   1.453  10.432   6.654  1.5356  0.5896 -0.4267
 1772SOL    HW2 7570   1.526  10.408   6.785 -0.9749  0.2543  0.9883
 1773SOL     OW 7571   5.944   1.458   6.168 -0.2550  0.4180 -0.0323
 1773SOL    HW1 7572   5.876   1.404   6.209 -0.4022 -0.3470 -1.2142
 1773SOL    HW2 7573   5.912   1.548   6.178 -0.2164  0.2770  1.5854
 1774SOL     OW 7574  10.579   9.954   6.769  0.2350 -0.0317 -0.0838
 1774SOL    HW1 7575  10.547  10.013   6.837 -0.1629 -0.3483  0.0106
 1774SOL    HW2 7576  10.597  10.010   6.694 -0.8447  0.1285 -0.2461
 1775SOL     OW 7577   8.457   8.082  10.017  0.1434 -0.2463 -0.4058
 1775SOL    HW1 7578   8.519   8.099   9.946  0.1876 -0.1235 -0.3397
 1775SOL    HW2 7579   8.461   7.988  10.030 -0.7470 -0.4299 -1.3622
 1776SOL     OW 7580   6.920   8.578  10.050  0.1442  0.2243  0.4297
 1776SOL    HW1 7581   7.012   8.581  10.022  0.4586 -1.8527  1.0919
 1776SOL    HW2 7582   6.871   8.611   9.975  1.4212  1.6188  0.1574
 1777SOL     OW 7583   8.472   9.647   3.021 -0.4026 -0.1478 -0.4618
 1777SOL    HW1 7584   8.442   9.738   3.028 -1.2811 -0.3196 -1.5741
 1777SOL    HW2 7585   8.566   9.652   3.035 -0.7023  0.6184  1.7564
 1778SOL     OW 7586   8.799   1.104   1.667  0.1585 -0.2013 -0.3571
 1778SOL    HW1 7587   8.707   1.081   1.654  0.1940 -0.3262 -0.3844
 1778SOL    HW2 7588   8.812   1.100   1.761 -0.1132  0.7565 -0.2691
 1779SOL     OW 7589   7.032   5.196   7.055  0.4633  0.5962  0.0445
 1779SOL    HW1 7590   6.954   5.139   7.055  0.1121  1.0612  1.0326
 1779SOL    HW2 7591   7.085   5.162   6.983 -0.0212 -0.6031  0.2147
 1780SOL     OW 7592   1.062   0.493   1.953 -0.4136  0.2057  0.8070
 1780SOL    HW1 7593   1.112   0.466   2.030  2.5864 -2.4722 -1.7493
 1780SOL    HW2 7594   1.108   0.570   1.920 -1.2733  0.9308  1.2570
 1781SOL     OW 7595   4.975   7.475   7.270  0.0612  0.0633  0.4764
 1781SOL    HW1 7596   5.013   7.389   7.253  0.6633  0.5649 -0.8299
 1781SOL    HW2 7597   4.933   7.499   7.188 -1.8641  0.1705  1.4356
 1782SOL     OW 7598   5.856   5.880   4.053 -0.3319 -0.1163  0.4920
 1782SOL    HW1 7599   5.919   5.934   4.102  1.5434 -1.1603 -0.6498
 1782SOL    HW2 7600   5.811   5.829   4.119  1.9009 -1.2434  1.2291
 1783SOL     OW 7601   0.410   2.912   9.907 -0.1197 -0.7310  0.0984
 1783SOL    HW1 7602   0.355   2.929   9.983 -0.4155  2.3720 -0.6986
 1783SOL    HW2 7603   0.499   2.915   9.940 -0.2180  1.2657  0.2670
 1784SOL     OW 7604   0.434   7.418   0.322  0.1558 -0.4607 -0.3315
 1784SOL    HW1 7605   0.529   7.417   0.311  0.0696 -0.0984 -1.2098
 1784SOL    HW2 7606   0.420   7.463   0.405  0.6755  1.6119 -1.3042
 1785SOL     OW 7607   5.800   6.164   5.529 -0.1863  0.3749 -0.4791
 1785SOL    HW1 7608   5.769   6.239   5.581 -0.3528  0.8217 -1.2141
 1785SOL    HW2 7609   5.821   6.098   5.595 -0.1948  1.0035  0.1790
 1786SOL     OW 7610   9.392   0.015   6.816 -0.0086  0.0749  0.3571
 1786SOL    HW1 7611   9.383   0.001   6.722  0.4717  0.6025  0.2260
 1786SOL    HW2 7612   9.482   0.045   6.827 -0.7547  2.4195  0.6746
 1787SOL     OW 7613   1.024   0.265   8.169 -0.0634  0.4341 -0.2603
 1787SOL    HW1 7614   1.012   0.179   8.129 -0.0492  0.6447 -0.7268
 1787SOL    HW2 7615   0.994   0.254   8.259 -0.1443 -0.0348 -0.3414
 1788SOL     OW 7616   1.339   2.423   3.540  0.4517 -0.6792 -0.0998
 1788SOL    HW1 7617   1.372   2.435   3.451  1.5846 -0.9534  0.2578
 1788SOL    HW2 7618   1.382   2.343   3.571  1.0569  0.0722  1.1079
 1789SOL     OW 7619   5.024   4.446   7.796 -0.3737 -0.6247  0.4584
 1789SOL    HW1 7620   5.030   4.532   7.838 -0.8785  0.4233 -1.5135
 1789SOL    HW2 7621   4.939   4.412   7.823 -0.8160  0.1549  0.0753
 1790SOL     OW 7622   7.393   0.528   7.076  0.6665 -0.5021  0.2455
 1790SOL    HW1 7623   7.351   0.585   7.011  0.5806  0.8351  1.4349
 1790SOL    HW2 7624   7.358   0.558   7.160 -0.9342 -3.6296  0.8421
 1791SOL     OW 7625   9.315  10.320   0.283  0.1845  0.0440  0.1150
 1791SOL    HW1 7626   9.267  10.369   0.216  1.5013  0.0516 -0.8517
 1791SOL    HW2 7627   9.366  10.255   0.234  2.7095  1.3307  0.8966
 1792SOL     OW 7628  10.151   6.851   6.390  0.2598 -0.7259 -0.4875
 1792SOL    HW1 7629  10.158   6.909   6.466  1.0445 -1.2383 -0.1461
 1792SOL    HW2 7630  10.081   6.888   6.337  1.5158  1.2234 -0.8841
 1793SOL     OW 7631   8.655   0.524   9.876 -0.6420  0.1275 -0.5071
 1793SOL    HW1 7632   8.662   0.597   9.815 -1.8248  0.4411 -0.2971
 1793SOL    HW2 7633   8.634   0.449   9.821  1.2611 -0.2289 -0.8042
 1794SOL     OW 7634   7.558   3.123   9.275  0.4192  0.4978  0.3739
 1794SOL    HW1 7635   7.502   3.190   9.235 -0.3080  0.3425  1.0971
 1794SOL    HW2 7636   7.537   3.043   9.227  0.7274  0.6278  0.0159
 1795SOL     OW 7637   2.414   3.956   5.657 -0.2440  0.1584 -0.3605
 1795SOL    HW1 7638   2.403   3.882   5.598 -0.5267  0.1089 -0.2467
 1795SOL    HW2 7639   2.385   3.924   5.743 -0.4655  0.4255 -0.3306
 1796SOL     OW 7640   2.799   2.988   0.851  0.3203  0.0760 -0.6447
 1796SOL    HW1 7641   2.726   3.026   0.801 -0.5729 -0.9024 -0.1108
 1796SOL    HW2 7642   2.757   2.935   0.919  1.5357 -0.5570 -0.3597
 1797SOL     OW 7643   4.137  10.332   7.532 -0.2829 -0.6003 -0.1377
 1797SOL    HW1 7644   4.118  10.366   7.620 -1.7048 -0.9453 -0.2925
 1797SOL    HW2 7645   4.096  10.246   7.530 -1.9814  0.1725 -1.7568
 1798SOL     OW 7646   5.721   9.297   6.731 -0.0225 -0.3838 -0.8339
 1798SOL    HW1 7647   5.736   9.217   6.782 -0.7995  1.2326  2.1718
 1798SOL    HW2 7648   5.628   9.295   6.709 -0.5698  0.6123  1.1494
 1799SOL     OW 7649   2.932   4.190   6.565 -0.4580 -0.1191  0.3748
 1799SOL    HW1 7650   2.843   4.155   6.567 -0.3892 -0.2820  1.9194
 1799SOL    HW2 7651   2.988   4.116   6.589  0.4732 -0.8518 -3.4426
 1800SOL     OW 7652   0.960   5.417   2.309  0.1515 -0.2472 -0.2959
 1800SOL    HW1 7653   1.046   5.394   2.344  0.3375 -0.9082 -1.1353
 1800SOL    HW2 7654   0.905   5.340   2.328  0.6341 -1.2657 -2.6491
 1801SOL     OW 7655   9.416  10.345   5.878  0.2179 -0.3528 -0.1821
 1801SOL    HW1 7656   9.453  10.425   5.914  0.1977 -0.0802 -0.7522
 1801SOL    HW2 7657   9.380  10.371   5.793  0.7700 -1.0833 -0.6605
 1802SOL     OW 7658   2.897   2.626   4.373 -0.1949 -0.3529  0.4391
 1802SOL    HW1 7659   2.941   2.548   4.406  0.2241  0.4231  1.8177
 1802SOL    HW2 7660   2.896   2.616   4.278  0.8285 -1.5044  0.5363
 1803SOL     OW 7661   1.831   8.996   1.577 -0.1318  0.5718 -0.6515
 1803SOL    HW1 7662   1.830   9.091   1.561 -2.0687  0.7824  0.3933
 1803SOL    HW2 7663   1.924   8.973   1.576  0.3668  2.4020 -1.3431
 1804SOL     OW 7664   7.955   9.382  10.374 -0.1042  0.4606 -0.0718
 1804SOL    HW1 7665   7.923   9.340  10.294 -0.3955  0.7791 -0.1248
 1804SOL    HW2 7666   8.047   9.402  10.355 -0.1891  0.5971 -0.3548
 1805SOL     OW 7667   3.182   1.993   9.267 -0.1850 -0.6093  0.4207
 1805SOL    HW1 7668   3.114   1.927   9.251 -0.7168  0.2494 -1.0353
 1805SOL    HW2 7669   3.194   2.036   9.183  0.8147  0.5370  1.1185
 1806SOL     OW 7670   9.164   7.007   5.485  0.3012 -0.9037 -0.1007
 1806SOL    HW1 7671   9.083   6.982   5.440  0.7012 -1.0072 -0.7814
 1806SOL    HW2 7672   9.137   7.076   5.546 -0.3396 -1.1106 -0.1347
 1807SOL     OW 7673   3.297   8.876   6.065 -0.7491  0.3098  0.0827
 1807SOL    HW1 7674   3.227   8.941   6.073 -0.0683  0.8350  2.6409
 1807SOL    HW2 7675   3.378   8.928   6.062 -0.2198 -0.3403  1.7859
 1808SOL     OW 7676  10.238   2.782   1.726 -0.3492 -0.0882 -0.7043
 1808SOL    HW1 7677  10.309   2.843   1.707 -0.8536  0.7934  0.1456
 1808SOL    HW2 7678  10.159   2.837   1.730 -0.6775 -0.6319  1.0053
 1809SOL     OW 7679   5.712   7.926   1.705  0.0227  0.0012 -0.0700
 1809SOL    HW1 7680   5.670   7.874   1.774 -0.2260 -1.2720 -1.1282
 1809SOL    HW2 7681   5.794   7.878   1.687 -0.0359  0.1764 -0.8196
 1810SOL     OW 7682   2.894   5.605   0.866 -0.1323 -0.1710  0.2993
 1810SOL    HW1 7683   2.962   5.630   0.928  1.7031 -0.6727 -1.4212
 1810SOL    HW2 7684   2.848   5.686   0.846 -0.2732  0.1227  1.7040
 1811SOL     OW 7685   4.364   4.643   1.406  0.0400 -0.5897 -0.0153
 1811SOL    HW1 7686   4.419   4.568   1.429 -0.9463 -1.9772 -1.8831
 1811SOL    HW2 7687   4.275   4.616   1.428 -0.5789 -0.8391 -2.5129
 1812SOL     OW 7688   2.081   8.493   9.614  0.1241 -0.3223 -0.0385
 1812SOL    HW1 7689   2.150   8.429   9.633 -0.1549 -0.3836  0.8191
 1812SOL    HW2 7690   2.122   8.578   9.634  0.3558 -0.2514 -0.7685
 1813SOL     OW 7691   6.258   1.047   2.302  0.5276 -0.2184  0.3899
 1813SOL    HW1 7692   6.185   1.004   2.348  1.4300 -0.5966  1.5297
 1813SOL    HW2 7693   6.336   1.017   2.348  1.3030  1.5071  0.2859
 1814SOL     OW 7694   8.197   3.996   7.559  0.0842 -0.0165  0.4690
 1814SOL    HW1 7695   8.152   4.031   7.635 -2.5272  0.2818 -1.1074
 1814SOL    HW2 7696   8.161   4.044   7.484  1.3215 -1.4116 -1.1242
 1815SOL     OW 7697   2.038   4.190   1.892 -0.2534  0.2273 -0.0975
 1815SOL    HW1 7698   1.994   4.238   1.962  0.9919 -0.3764  1.1464
 1815SOL    HW2 7699   2.023   4.243   1.814 -0.6297  1.5872  0.8518
 1816SOL     OW 7700   8.911   1.494   6.548  0.4386 -0.2330 -0.0703
 1816SOL    HW1 7701   8.911   1.424   6.482  1.3221 -1.1656  0.8697
 1816SOL    HW2 7702   9.003   1.515   6.561  0.3534 -0.6952  1.4877
 1817SOL     OW 7703   7.568   7.867   3.992 -0.2898 -0.6054  1.1046
 1817SOL    HW1 7704   7.523   7.844   3.910  2.0046 -1.4763  0.0035
 1817SOL    HW2 7705   7.652   7.902   3.963 -0.5087  1.7264  3.0563
 1818SOL     OW 7706   3.065   6.450   4.769  0.4444  0.7305 -0.4495
 1818SOL    HW1 7707   3.006   6.454   4.694  0.7178 -1.6625 -0.8598
 1818SOL    HW2 7708   3.010   6.471   4.844 -0.4527  0.5098 -1.0316
 1819SOL     OW 7709   2.111  10.413   8.672  0.5664  0.3470  0.7126
 1819SOL    HW1 7710   2.039  10.353   8.654  1.3759 -0.1953 -0.7918
 1819SOL    HW2 7711   2.152  10.378   8.751  1.2571 -1.3217 -0.3483
 1820SOL     OW 7712   9.693  10.643   9.099 -0.0256 -0.4440  0.0926
 1820SOL    HW1 7713   9.624  10.576   9.104  0.2111 -0.7575 -0.7171
 1820SOL    HW2 7714   9.650  10.718   9.057  0.3594 -0.9742 -1.2985
 1821SOL     OW 7715  10.142   2.609   2.967  0.2853  0.1852  0.2352
 1821SOL    HW1 7716  10.055   2.612   2.927 -0.1726  1.3018  1.2764
 1821SOL    HW2 7717  10.184   2.534   2.925 -1.3735 -0.7368  0.1173
 1822SOL     OW 7718   5.019   6.718   7.923 -0.3861  0.1596  0.4412
 1822SOL    HW1 7719   4.935   6.723   7.968 -0.4445  0.5244  0.2950
 1822SOL    HW2 7720   4.999   6.742   7.832 -0.5825 -2.2403 -0.2075
 1823SOL     OW 7721   0.702   4.313   5.134  0.6093 -0.5511 -0.6923
 1823SOL    HW1 7722   0.716   4.376   5.063  2.3828 -0.7550 -0.5722
 1823SOL    HW2 7723   0.721   4.228   5.094  0.1749 -0.8134 -0.3458
 1824SOL     OW 7724   8.220   0.811   7.209 -0.1486 -0.1027 -0.5003
 1824SOL    HW1 7725   8.276   0.750   7.161  1.9156  0.3880  1.1496
 1824SOL    HW2 7726   8.202   0.768   7.292  0.6936  1.1450  0.3723
 1825SOL     OW 7727  10.559   7.730   5.932  0.4616 -0.0887  0.2567
 1825SOL    HW1 7728  10.655   7.730   5.925  0.3802 -1.2386 -2.0234
 1825SOL    HW2 7729  10.530   7.791   5.864 -0.4462  0.9019  1.4895
 1826SOL     OW 7730   1.033   4.044   1.543 -0.3175 -0.2024 -0.7754
 1826SOL    HW1 7731   1.077   4.018   1.625 -0.2750 -0.8288 -0.9922
 1826SOL    HW2 7732   1.041   4.139   1.541  1.2194 -0.3157 -0.9107
 1827SOL     OW 7733   4.431   6.923   4.995  0.2933  1.1299  0.0332
 1827SOL    HW1 7734   4.497   6.871   4.948  0.6547  2.9058 -1.5720
 1827SOL    HW2 7735   4.398   6.865   5.063  1.9750 -0.5444 -0.4977
 1828SOL     OW 7736   3.880   9.831   2.718 -0.5181  0.0256 -0.4876
 1828SOL    HW1 7737   3.802   9.885   2.699 -0.4690  0.0362 -0.6605
 1828SOL    HW2 7738   3.854   9.743   2.694 -1.9955 -0.7989  3.3663
 1829SOL     OW 7739   7.151   8.846   7.132 -0.2533 -0.3633 -0.3473
 1829SOL    HW1 7740   7.056   8.852   7.141 -0.2960  0.4065 -1.1352
 1829SOL    HW2 7741   7.184   8.866   7.219 -0.8217 -1.1701  0.0671
 1830SOL     OW 7742   6.927   6.213   7.957 -0.4211 -0.1007  0.0154
 1830SOL    HW1 7743   6.901   6.210   7.865 -0.5370 -1.0536  0.0656
 1830SOL    HW2 7744   6.850   6.245   8.003  0.7425  4.0670 -0.5640
 1831SOL     OW 7745   9.134   9.950   8.074 -0.5004  0.1739 -0.4083
 1831SOL    HW1 7746   9.193  10.023   8.092 -0.5824  0.0640  0.3647
 1831SOL    HW2 7747   9.192   9.879   8.046 -0.0593 -0.4064  1.8099
 1832SOL     OW 7748   1.883   6.177   5.109  0.1501  0.0711 -0.0867
 1832SOL    HW1 7749   1.949   6.226   5.158 -1.5544 -0.0520  2.5511
 1832SOL    HW2 7750   1.917   6.088   5.104  0.1656 -0.0303  1.3851
 1833SOL     OW 7751   9.599   4.216   2.426 -0.3320 -0.6788 -0.5220
 1833SOL    HW1 7752   9.528   4.162   2.391 -0.4211 -0.5393 -0.5616
 1833SOL    HW2 7753   9.672   4.201   2.367 -0.4037 -0.6403 -0.6220
 1834SOL     OW 7754   7.272   5.055   7.930 -0.0433 -0.0288 -0.3529
 1834SOL    HW1 7755   7.332   5.027   7.861  0.9914 -0.1374  0.5801
 1834SOL    HW2 7756   7.249   4.974   7.976 -0.4076  0.1006 -0.3044
 1835SOL     OW 7757   4.665   9.345   7.961  0.0936  0.1935 -0.3769
 1835SOL    HW1 7758   4.606   9.316   7.892  1.0814 -2.9246 -0.0573
 1835SOL    HW2 7759   4.735   9.280   7.962  1.3899  1.4882  1.9564
 1836SOL     OW 7760   8.679   1.598   5.152 -0.1820  0.4174  0.0148
 1836SOL    HW1 7761   8.609   1.533   5.141  0.5871 -0.5439  0.5406
 1836SOL    HW2 7762   8.635   1.682   5.152 -1.4946 -0.2172  1.3813
 1837SOL     OW 7763   2.949   4.022   8.654 -0.2957  0.2071  0.6432
 1837SOL    HW1 7764   2.880   3.956   8.666  0.8291 -1.2328 -0.4703
 1837SOL    HW2 7765   2.979   4.041   8.743 -0.3518 -1.1346  0.9732
 1838SOL     OW 7766   7.869  10.448   1.589  0.2998 -0.4795 -0.6013
 1838SOL    HW1 7767   7.874  10.375   1.651 -2.3413 -0.2793 -0.0594
 1838SOL    HW2 7768   7.918  10.519   1.630  2.7194 -1.7777 -1.0292
 1839SOL     OW 7769   0.950   8.372   2.767  0.2516  0.2198 -0.2727
 1839SOL    HW1 7770   0.862   8.382   2.731  0.2916 -1.0834 -0.8022
 1839SOL    HW2 7771   0.949   8.422   2.848 -0.4585  1.5824 -1.0764
 1840SOL     OW 7772   9.617   2.562   5.813 -0.0855 -0.0237 -0.5117
 1840SOL    HW1 7773   9.615   2.508   5.892  0.8312  0.8050  0.0891
 1840SOL    HW2 7774   9.689   2.623   5.827 -0.2893  0.5249 -1.7383
 1841SOL     OW 7775   7.693   5.110   1.633 -0.3321 -0.1664  0.3371
 1841SOL    HW1 7776   7.751   5.144   1.701  0.4421  1.8211 -1.2163
 1841SOL    HW2 7777   7.680   5.184   1.573 -1.3786 -1.6806 -1.4186
 1842SOL     OW 7778   2.090  10.066   0.186 -0.0949  0.1715 -0.1200
 1842SOL    HW1 7779   2.162  10.127   0.199  0.9350 -1.3070  1.6447
 1842SOL    HW2 7780   2.050  10.092   0.103 -1.4562  4.9189  1.7125
 1843SOL     OW 7781   0.071   4.377   8.491  0.0481  0.4627  0.0718
 1843SOL    HW1 7782   0.035   4.459   8.523  1.3703  1.4186 -0.7641
 1843SOL    HW2 7783   0.012   4.309   8.524 -0.2736  1.6153  1.9808
 1844SOL     OW 7784   6.822   1.455   7.675  0.3470  0.0855  0.0169
 1844SOL    HW1 7785   6.791   1.476   7.586 -0.5540 -0.1778  0.2572
 1844SOL    HW2 7786   6.772   1.377   7.699 -0.5602  1.0462  1.3554
 1845SOL     OW 7787   8.627   6.974   9.677  0.0087 -0.1592 -0.1901
 1845SOL    HW1 7788   8.716   6.957   9.647  0.5818 -1.3950  1.9932
 1845SOL    HW2 7789   8.596   6.890   9.709 -2.3661  0.0136 -1.7832
 1846SOL     OW 7790   3.444   4.735   6.117  0.6844 -0.0860 -0.6574
 1846SOL    HW1 7791   3.372   4.798   6.116 -0.6357 -1.5021  0.1944
 1846SOL    HW2 7792   3.518   4.784   6.152 -0.3831  0.9174  0.2999
 1847SOL     OW 7793   1.409   4.277   5.605 -0.6853 -0.0570  0.3756
 1847SOL    HW1 7794   1.346   4.343   5.575  1.5501  1.0264 -2.4202
 1847SOL    HW2 7795   1.482   4.328   5.640 -0.3505 -1.1959  1.3905
 1848SOL     OW 7796   3.186   5.465   2.312 -0.1059 -0.0647 -0.0234
 1848SOL    HW1 7797   3.222   5.377   2.304 -0.5197 -0.4425  1.7468
 1848SOL    HW2 7798   3.189   5.484   2.406 -0.8616  1.4540 -0.2640
 1849SOL     OW 7799   3.371   4.474   6.034 -0.2140 -0.2456 -1.1523
 1849SOL    HW1 7800   3.295   4.460   6.090  0.5409 -1.7016 -0.4357
 1849SOL    HW2 7801   3.406   4.558   6.062 -0.9159 -0.0926 -0.7074
 1850SOL     OW 7802   5.448   1.471   2.051 -0.6051 -0.0084  0.1018
 1850SOL    HW1 7803   5.525   1.417   2.071 -0.3533  0.0595 -0.6280
 1850SOL    HW2 7804   5.477   1.561   2.066 -0.5543  0.0141 -0.1260
 1851SOL     OW 7805   8.827   0.849   0.243  0.0644 -0.3586  0.1089
 1851SOL    HW1 7806   8.913   0.808   0.233 -0.0916 -0.6485 -0.0809
 1851SOL    HW2 7807   8.836   0.905   0.320 -0.1906 -2.0262  1.4193
 1852SOL     OW 7808   8.097   6.522   8.966  0.1329  0.2194 -0.0259
 1852SOL    HW1 7809   8.004   6.541   8.980  0.2205  0.1078  0.7174
 1852SOL    HW2 7810   8.100   6.426   8.961  0.2234  0.2193  0.0404
 1853SOL     OW 7811   7.535   4.499   9.269 -0.1225 -0.0763  0.2924
 1853SOL    HW1 7812   7.611   4.494   9.327  0.0437  0.1762  0.1005
 1853SOL    HW2 7813   7.541   4.421   9.214  0.7172  0.5754 -0.5863
 1854SOL     OW 7814   8.379   4.145   0.602 -0.1616 -0.1966  0.0693
 1854SOL    HW1 7815   8.461   4.135   0.553  0.5168  0.6745  0.9924
 1854SOL    HW2 7816   8.339   4.223   0.565  0.6554  0.8336  1.2618
 1855SOL     OW 7817   6.269   8.725   3.037 -0.1792 -0.4012 -0.0469
 1855SOL    HW1 7818   6.330   8.798   3.048 -0.4851 -0.2398  0.6566
 1855SOL    HW2 7819   6.202   8.740   3.104 -1.0816 -0.4847 -0.9026
 1856SOL     OW 7820   5.213   3.943   6.768  0.4568  0.0003 -0.0970
 1856SOL    HW1 7821   5.207   3.915   6.677  1.9346 -2.0828  0.3852
 1856SOL    HW2 7822   5.269   4.020   6.766  0.7945 -0.2574 -0.9113
 1857SOL     OW 7823   9.139   7.296   3.567  0.5362  0.0726 -0.0893
 1857SOL    HW1 7824   9.171   7.374   3.613  0.2263 -1.0042  2.0776
 1857SOL    HW2 7825   9.197   7.226   3.596 -0.3226 -0.8392 -0.5372
 1858SOL     OW 7826   7.486   0.727   5.650  0.4838 -0.3626  0.3421
 1858SOL    HW1 7827   7.465   0.682   5.568  2.5104 -0.6231 -0.0853
 1858SOL    HW2 7828   7.535   0.805   5.622 -0.4908  0.5851  1.2250
 1859SOL     OW 7829   2.560   7.623   5.280 -0.8996  0.0743  0.6212
 1859SOL    HW1 7830   2.508   7.641   5.201 -0.8226  0.7934  0.7324
 1859SOL    HW2 7831   2.500   7.640   5.353  0.0116  2.9145  0.8326
 1860SOL     OW 7832   7.210   7.757   7.880 -0.1468 -0.3587  0.1324
 1860SOL    HW1 7833   7.228   7.689   7.946  2.1928 -0.2280 -0.2761
 1860SOL    HW2 7834   7.206   7.838   7.930  1.6989 -0.2496  0.1625
 1861SOL     OW 7835   4.226   9.230   6.430 -0.1355 -0.0645 -0.4694
 1861SOL    HW1 7836   4.248   9.227   6.337  0.1797  0.8017 -0.4307
 1861SOL    HW2 7837   4.209   9.322   6.448 -0.0562 -0.2024  0.3615
 1862SOL     OW 7838   9.775   5.120   9.748  0.6387 -0.1021  0.2533
 1862SOL    HW1 7839   9.688   5.124   9.708 -0.3830 -0.2199  2.2928
 1862SOL    HW2 7840   9.835   5.102   9.676 -0.8318  1.5013 -1.4477
 1863SOL     OW 7841   6.563   1.438   2.752 -0.2616  0.6862 -0.4139
 1863SOL    HW1 7842   6.477   1.415   2.788 -0.2618  0.1601 -0.7284
 1863SOL    HW2 7843   6.567   1.533   2.756 -0.7755  0.7003 -0.2020
 1864SOL     OW 7844   9.645   7.286   0.357 -0.1815  0.5619  0.6175
 1864SOL    HW1 7845   9.598   7.223   0.303  0.8107 -1.1704  1.6463
 1864SOL    HW2 7846   9.581   7.353   0.378 -0.6019  1.3235 -2.6173
 1865SOL     OW 7847   7.927   5.598  10.516  0.3365 -0.0686  0.5132
 1865SOL    HW1 7848   7.894   5.511  10.537  0.2288  0.0568  0.8579
 1865SOL    HW2 7849   7.883   5.657  10.577  2.2097 -0.0544  1.9530
 1866SOL     OW 7850  10.160   7.477   2.007 -0.2411  0.7125 -0.1423
 1866SOL    HW1 7851  10.090   7.538   1.984  1.9329  3.4385 -0.0769
 1866SOL    HW2 7852  10.218   7.527   2.065  2.7617 -0.6634 -1.7140
 1867SOL     OW 7853   7.924   3.754   2.563 -0.9076  0.1545 -0.3383
 1867SOL    HW1 7854   7.873   3.814   2.508  1.4924  3.5273  0.7675
 1867SOL    HW2 7855   8.007   3.743   2.516  0.4226  1.5165  1.5392
 1868SOL     OW 7856   9.070   1.436   5.368 -0.4693 -0.2928 -0.1088
 1868SOL    HW1 7857   8.992   1.492   5.361 -0.1863  0.1953  0.5346
 1868SOL    HW2 7858   9.039   1.357   5.412 -0.7877 -0.4756 -0.6569
 1869SOL     OW 7859   2.247   7.686   1.785  0.1612 -0.0202  0.0006
 1869SOL    HW1 7860   2.335   7.711   1.813  0.5520 -0.9342 -0.3959
 1869SOL    HW2 7861   2.256   7.665   1.692 -0.5644  0.2965 -0.1484
 1870SOL     OW 7862   5.162   2.015   9.902  0.5129 -0.3423 -0.3225
 1870SOL    HW1 7863   5.116   2.077   9.960  0.7629  0.7747 -1.2834
 1870SOL    HW2 7864   5.200   1.950   9.962 -0.7446 -0.2442  0.6225
 1871SOL     OW 7865   3.142   1.256   0.454 -0.1054  0.3156 -1.1293
 1871SOL    HW1 7866   3.216   1.316   0.439  0.4505 -0.3049 -0.9229
 1871SOL    HW2 7867   3.178   1.187   0.509 -0.9655  0.2292 -0.6613
 1872SOL     OW 7868   9.905   9.549   8.412  0.1938  0.9004 -0.4833
 1872SOL    HW1 7869   9.908   9.489   8.338 -0.4071  2.3954 -1.7723
 1872SOL    HW2 7870   9.941   9.631   8.378  2.3600  0.9375  1.6182
 1873SOL     OW 7871   0.497   3.808   9.456 -0.1903  0.7730  0.0299
 1873SOL    HW1 7872   0.549   3.749   9.510 -0.4721 -0.0660 -0.5877
 1873SOL    HW2 7873   0.561   3.866   9.416  0.7170 -1.8645 -2.7695
 1874SOL     OW 7874   1.773   0.909   0.809  0.1873 -0.6762 -0.0777
 1874SOL    HW1 7875   1.868   0.910   0.805  0.2385 -1.5586  0.6499
 1874SOL    HW2 7876   1.752   0.850   0.881 -0.8675  1.3629  1.4098
 1875SOL     OW 7877   5.756   7.172   6.844  0.4128  0.0466  0.2873
 1875SOL    HW1 7878   5.735   7.108   6.912  0.8100  0.3536  0.7070
 1875SOL    HW2 7879   5.852   7.173   6.841  0.4162  0.7864  0.4447
 1876SOL     OW 7880   4.082   2.780   7.815  0.1949  0.1085  0.5423
 1876SOL    HW1 7881   4.054   2.759   7.905  0.2943  0.5125  0.6665
 1876SOL    HW2 7882   4.019   2.845   7.785 -0.9352 -1.3381 -0.3363
 1877SOL     OW 7883   9.139   8.183   8.296  0.5608  0.6033  0.3221
 1877SOL    HW1 7884   9.163   8.211   8.208 -1.3593  1.6409  0.0661
 1877SOL    HW2 7885   9.218   8.196   8.348  1.9943 -0.8321 -1.3825
 1878SOL     OW 7886   5.393   8.244   7.898  0.2792 -0.4301 -0.1247
 1878SOL    HW1 7887   5.395   8.320   7.955  0.0157 -1.7373  1.7138
 1878SOL    HW2 7888   5.485   8.224   7.881  0.3524  0.1235 -0.3882
 1879SOL     OW 7889   2.856   8.481   3.009  0.4976  0.6179  0.1021
 1879SOL    HW1 7890   2.903   8.557   2.977  0.2594  0.7461  0.0563
 1879SOL    HW2 7891   2.903   8.455   3.088 -0.0955  1.4951  0.7505
 1880SOL     OW 7892   0.786   7.280   8.987  0.2296 -0.5189 -0.1146
 1880SOL    HW1 7893   0.843   7.221   8.938 -1.5398 -0.0407 -3.0143
 1880SOL    HW2 7894   0.724   7.221   9.031 -0.2346 -0.9407 -1.2775
 1881SOL     OW 7895   9.108   5.104   9.740  0.0586  0.2940 -0.6320
 1881SOL    HW1 7896   9.169   5.176   9.756  1.0257 -0.2488 -1.7143
 1881SOL    HW2 7897   9.031   5.145   9.702 -1.2864  1.2955  2.7898
 1882SOL     OW 7898   2.346   7.465   6.460  0.0588  0.0782 -0.0642
 1882SOL    HW1 7899   2.419   7.416   6.423  0.0586 -0.0102  0.0531
 1882SOL    HW2 7900   2.357   7.554   6.426 -0.5530 -0.2454 -1.1602
 1883SOL     OW 7901   0.718   9.465   4.541  0.3342  0.3120 -0.1249
 1883SOL    HW1 7902   0.793   9.415   4.571  1.3073  0.1818 -2.5520
 1883SOL    HW2 7903   0.684   9.414   4.467 -1.6502  0.8045  0.3936
 1884SOL     OW 7904   1.985   0.432   2.203 -0.3612  0.8814  0.1337
 1884SOL    HW1 7905   2.059   0.437   2.143 -1.2043  0.1090 -1.0156
 1884SOL    HW2 7906   1.951   0.344   2.192 -2.7343  1.8546 -0.9631
 1885SOL     OW 7907   9.035   3.714   6.283 -0.2421  0.0860 -0.3154
 1885SOL    HW1 7908   9.039   3.808   6.269 -0.6122 -0.1045 -1.8904
 1885SOL    HW2 7909   8.942   3.692   6.277 -0.0339 -0.5709 -1.5893
 1886SOL     OW 7910   1.982   7.201  10.627 -0.8386  0.3061  0.0632
 1886SOL    HW1 7911   2.050   7.212  10.560  0.4539 -2.0586  0.8863
 1886SOL    HW2 7912   2.030   7.199  10.710 -2.1615  0.7591  0.8701
 1887SOL     OW 7913   2.713   0.277   4.469 -0.3817  0.3503 -0.2604
 1887SOL    HW1 7914   2.800   0.242   4.447 -0.2854  0.0009  0.6106
 1887SOL    HW2 7915   2.653   0.207   4.443 -0.3629  0.4059 -0.4528
 1888SOL     OW 7916   7.772   0.246   3.806  0.0271  0.3991  0.3412
 1888SOL    HW1 7917   7.730   0.280   3.727 -2.5674  2.0431  2.2943
 1888SOL    HW2 7918   7.836   0.313   3.830  0.0484  0.4131  0.2457
 1889SOL     OW 7919   4.356   1.347   8.847  0.3101  0.0133  0.4213
 1889SOL    HW1 7920   4.425   1.292   8.884 -0.0523 -0.2562  0.7109
 1889SOL    HW2 7921   4.278   1.325   8.898 -0.6138 -1.5669 -1.5160
 1890SOL     OW 7922   6.108  10.252   5.458 -0.1106 -0.1975 -0.2036
 1890SOL    HW1 7923   6.196  10.282   5.483  0.0635  0.4487 -1.5162
 1890SOL    HW2 7924   6.112  10.157   5.467  0.2525 -0.0647  1.1783
 1891SOL     OW 7925   3.683   9.845   4.214 -0.4661  0.5937  0.1349
 1891SOL    HW1 7926   3.772   9.862   4.245 -0.8364  0.8298  1.1082
 1891SOL    HW2 7927   3.636   9.816   4.292 -1.6196  1.9072 -0.0363
 1892SOL     OW 7928   1.236   0.032   6.626  0.3720 -0.2961 -0.5288
 1892SOL    HW1 7929   1.292  -0.018   6.566 -0.1614  1.5422 -2.7175
 1892SOL    HW2 7930   1.287   0.111   6.646  0.3434 -0.6649  1.1547
 1893SOL     OW 7931   3.560   1.610   9.415  0.2066 -0.2267  0.1795
 1893SOL    HW1 7932   3.652   1.620   9.389  0.0408 -1.0035 -0.7627
 1893SOL    HW2 7933   3.563   1.598   9.510  1.0522  0.0445  0.1981
 1894SOL     OW 7934   1.834   5.061   0.490  0.1324  0.5616  0.9512
 1894SOL    HW1 7935   1.900   5.067   0.560  0.1985 -1.0933  1.0868
 1894SOL    HW2 7936   1.853   5.134   0.432  0.4682  1.6210  2.3289
 1895SOL     OW 7937   8.669   3.563   0.896 -0.1322  0.7054  0.2801
 1895SOL    HW1 7938   8.655   3.583   0.804  1.8582  1.5124  0.0957
 1895SOL    HW2 7939   8.715   3.639   0.931  2.4401 -1.0210  1.0166
 1896SOL     OW 7940   8.812   2.244   1.793  0.2470 -0.0931  0.0099
 1896SOL    HW1 7941   8.735   2.296   1.772 -0.3568 -0.6930  0.6996
 1896SOL    HW2 7942   8.779   2.156   1.809  1.0284 -0.2828  0.6730
 1897SOL     OW 7943  10.041   8.985   3.727 -0.1402  0.1572 -0.1867
 1897SOL    HW1 7944   9.951   9.005   3.754 -0.2201 -0.3239 -0.0787
 1897SOL    HW2 7945  10.092   8.994   3.808 -0.0295  0.7696 -0.3189
 1898SOL     OW 7946   2.830   0.820   7.420 -0.4184  0.4914  0.3109
 1898SOL    HW1 7947   2.761   0.790   7.480 -0.8638 -0.6200 -0.7339
 1898SOL    HW2 7948   2.791   0.814   7.333  0.1439  2.3030 -0.1115
 1899SOL     OW 7949   7.082   9.690   0.810 -0.7541  0.5134  0.0805
 1899SOL    HW1 7950   7.072   9.599   0.835  2.2162 -0.2140 -0.8824
 1899SOL    HW2 7951   7.146   9.725   0.873 -3.5945  2.7473  1.9848
 1900SOL     OW 7952   6.256   1.712   6.010 -0.0431 -0.5381 -0.4596
 1900SOL    HW1 7953   6.221   1.624   6.024 -0.1581 -0.3474  0.5320
 1900SOL    HW2 7954   6.342   1.711   6.052  0.1100 -0.2856 -0.7665
 1901SOL     OW 7955   4.924   4.407   8.977 -0.3782 -0.1492  0.3911
 1901SOL    HW1 7956   4.850   4.466   8.986 -1.0344 -1.0037  0.7460
 1901SOL    HW2 7957   4.886   4.319   8.986  0.3952 -0.6901 -1.2389
 1902SOL     OW 7958   5.105   4.143   1.636 -0.2776  0.3447 -0.2684
 1902SOL    HW1 7959   5.078   4.063   1.592  1.7641  0.7995 -2.5743
 1902SOL    HW2 7960   5.133   4.201   1.565  2.5474  1.4135  1.5442
 1903SOL     OW 7961   8.783   0.252   9.330 -0.0086  0.0485  0.0566
 1903SOL    HW1 7962   8.687   0.256   9.326  0.0530  0.3295 -1.7240
 1903SOL    HW2 7963   8.811   0.343   9.326  0.3515  0.0172  1.2802
 1904SOL     OW 7964   9.897   3.097   8.854  0.0069 -0.0964  0.0689
 1904SOL    HW1 7965   9.974   3.146   8.825  0.9251 -1.3977  0.2189
 1904SOL    HW2 7966   9.885   3.122   8.946  0.1025  0.2896 -0.0239
 1905SOL     OW 7967   0.025   1.289   8.150 -0.0759 -0.2097  0.4717
 1905SOL    HW1 7968   0.066   1.369   8.116  1.2372 -0.8832  0.4049
 1905SOL    HW2 7969  -0.059   1.318   8.185 -0.5350  0.8627 -1.3964
 1906SOL     OW 7970   0.098   5.907   1.405  0.0748 -0.3815 -0.1322
 1906SOL    HW1 7971   0.077   5.979   1.345  1.1243  0.1015  0.0623
 1906SOL    HW2 7972   0.049   5.833   1.370 -1.8094  0.6279  0.2222
 1907SOL     OW 7973   9.706   4.845   2.499  0.1008  0.7864  0.4530
 1907SOL    HW1 7974   9.744   4.875   2.582  0.5459 -0.6356  0.7863
 1907SOL    HW2 7975   9.674   4.757   2.518 -0.6649  0.8115 -0.6475
 1908SOL     OW 7976   3.005   4.230   7.670 -0.0395  0.8097 -0.4562
 1908SOL    HW1 7977   2.989   4.139   7.646 -0.2469  1.0107 -1.0895
 1908SOL    HW2 7978   3.097   4.246   7.649  0.9871 -0.1860  2.6761
 1909SOL     OW 7979   7.138   0.470   9.919  0.3254 -0.0689  0.3883
 1909SOL    HW1 7980   7.072   0.448   9.985  0.4396 -0.7175  0.2982
 1909SOL    HW2 7981   7.087   0.509   9.847  0.1656  0.3597  0.7341
 1910SOL     OW 7982   8.275   8.313   7.954 -0.2783 -0.1266 -0.5154
 1910SOL    HW1 7983   8.298   8.234   8.003 -2.3588  0.1840  1.1114
 1910SOL    HW2 7984   8.289   8.384   8.016 -0.9412  0.5156 -1.0861
 1911SOL     OW 7985   5.803   3.072   8.906 -0.2899  0.3537  0.3950
 1911SOL    HW1 7986   5.888   3.047   8.869 -0.6400 -0.5537  0.1627
 1911SOL    HW2 7987   5.740   3.027   8.850 -1.2247  4.5275 -2.3490
 1912SOL     OW 7988   9.805   0.073   5.994  0.2574  0.0232  0.5777
 1912SOL    HW1 7989   9.858   0.145   5.961 -0.0189  0.0906  0.2752
 1912SOL    HW2 7990   9.833   0.062   6.085 -1.0002  1.7681  1.2392
 1913SOL     OW 7991   2.027   7.654   5.866 -0.4178 -0.3916 -0.6977
 1913SOL    HW1 7992   2.116   7.619   5.870 -0.1438  0.3894  0.2928
 1913SOL    HW2 7993   1.992   7.619   5.784  0.6366 -1.0788 -0.8804
 1914SOL     OW 7994   2.087   8.743   9.033 -0.5724 -0.1204  0.0516
 1914SOL    HW1 7995   2.090   8.777   9.122 -0.2844 -0.7402  0.2843
 1914SOL    HW2 7996   2.049   8.814   8.981  1.4810  1.1786  0.2223
 1915SOL     OW 7997   8.523   4.870   5.835  0.4522  0.0616 -0.0136
 1915SOL    HW1 7998   8.444   4.923   5.848  1.1258  0.9743  0.4694
 1915SOL    HW2 7999   8.575   4.920   5.772  0.0706 -1.2010 -1.3873
 1916SOL     OW 8000   7.374   1.306   0.341  0.4597  0.2555  1.0215
 1916SOL    HW1 8001   7.346   1.375   0.280  1.8608  0.1111  0.1571
 1916SOL    HW2 8002   7.333   1.329   0.424 -0.9533  0.8463  0.1912
 1917SOL     OW 8003   8.357   4.701   7.286 -0.4270  0.0779  0.0706
 1917SOL    HW1 8004   8.272   4.744   7.281 -0.8246 -0.6888  0.0709
 1917SOL    HW2 8005   8.336   4.608   7.294  0.4214 -0.2654 -1.3189
 1918SOL     OW 8006   8.504   4.462  10.333 -0.4800 -0.1995 -0.6040
 1918SOL    HW1 8007   8.510   4.392  10.397  0.1161 -0.1011 -0.5408
 1918SOL    HW2 8008   8.513   4.419  10.248  1.3141 -0.0676 -0.5141
 1919SOL     OW 8009   8.479  10.061   0.739 -0.4666  0.5819 -0.2298
 1919SOL    HW1 8010   8.449  10.081   0.828  1.0011  0.8567  0.2296
 1919SOL    HW2 8011   8.572  10.082   0.740 -0.5150  0.9956 -1.9725
 1920SOL     OW 8012   4.242   0.218   4.774  0.0495  0.0048  0.2339
 1920SOL    HW1 8013   4.298   0.282   4.818  0.5348  0.2134 -0.6768
 1920SOL    HW2 8014   4.268   0.222   4.682 -0.0908 -1.3258  0.1228
 1921SOL     OW 8015   5.152   5.978   5.666 -0.1850 -0.1849  0.4829
 1921SOL    HW1 8016   5.237   6.010   5.694 -0.8951  0.9567  1.4273
 1921SOL    HW2 8017   5.106   6.056   5.634 -1.4920 -0.4331  1.6376
 1922SOL     OW 8018   8.043   7.665   1.069  0.3295 -0.3606  0.3245
 1922SOL    HW1 8019   8.098   7.615   1.129 -0.2398 -1.7066 -0.2224
 1922SOL    HW2 8020   7.960   7.677   1.116 -0.0661 -1.2918 -0.0996
 1923SOL     OW 8021   6.883   9.304   1.658 -0.4475 -0.1649  0.2363
 1923SOL    HW1 8022   6.843   9.337   1.738 -1.1929  2.3101 -1.0724
 1923SOL    HW2 8023   6.810   9.271   1.606 -0.3266  0.6925 -0.5046
 1924SOL     OW 8024   4.859   5.074   3.457  0.2011  0.5826  0.1339
 1924SOL    HW1 8025   4.941   5.110   3.491 -0.0193  0.8759  0.3577
 1924SOL    HW2 8026   4.817   5.148   3.414 -0.3528  0.6466  0.7752
 1925SOL     OW 8027   3.363   6.778   4.782  0.0043  0.5373 -0.5256
 1925SOL    HW1 8028   3.288   6.827   4.749  0.5275  0.6343 -1.6218
 1925SOL    HW2 8029   3.354   6.691   4.742  0.4730  0.5576 -0.6850
 1926SOL     OW 8030   8.734   4.364   3.996 -0.0729 -0.3070 -0.1921
 1926SOL    HW1 8031   8.790   4.437   3.969 -0.5335 -0.1122 -0.6311
 1926SOL    HW2 8032   8.786   4.318   4.063  0.0505  0.6805  0.4223
 1927SOL     OW 8033  10.232   3.407   6.257  0.4009  0.1537 -0.1174
 1927SOL    HW1 8034  10.144   3.371   6.258  0.1863  0.6284  1.9487
 1927SOL    HW2 8035  10.230   3.474   6.189 -0.0358 -1.6186 -1.9286
 1928SOL     OW 8036   5.025   1.945   0.957 -0.0271  0.0626 -0.1305
 1928SOL    HW1 8037   4.982   1.859   0.951  1.0781 -0.6227  1.2109
 1928SOL    HW2 8038   5.011   1.972   1.048  0.3011  0.9455 -0.3381
 1929SOL     OW 8039  10.043   2.475   1.241 -0.1340 -0.6288  0.0013
 1929SOL    HW1 8040  10.028   2.447   1.151 -1.5985  0.1681 -0.0299
 1929SOL    HW2 8041  10.132   2.446   1.261  1.1453  1.2007 -2.4925
 1930SOL     OW 8042   2.683   8.858   4.017 -0.3605  0.1517  0.1046
 1930SOL    HW1 8043   2.713   8.924   4.079  0.2597 -0.0455  0.0223
 1930SOL    HW2 8044   2.589   8.875   4.007 -0.4899  0.1403  1.1539
 1931SOL     OW 8045   0.095   1.309  10.270  0.4996  0.1561  0.3973
 1931SOL    HW1 8046   0.101   1.238  10.334  1.9382 -0.0374  0.0854
 1931SOL    HW2 8047   0.030   1.369  10.306 -1.6779 -1.8706  0.0922
 1932SOL     OW 8048   1.613   0.884   6.530  0.5658  0.2331 -0.3078
 1932SOL    HW1 8049   1.625   0.974   6.499 -0.0129  0.9589  1.4474
 1932SOL    HW2 8050   1.687   0.835   6.493  0.7506  1.3737 -1.4839
 1933SOL     OW 8051   1.288   3.101   4.587  0.1217  0.1470  0.3659
 1933SOL    HW1 8052   1.268   3.119   4.495 -1.6550 -0.1500  0.6390
 1933SOL    HW2 8053   1.325   3.013   4.587  0.2789  0.2138 -0.0886
 1934SOL     OW 8054   0.377   5.362   8.474  0.3784 -0.0499  0.5706
 1934SOL    HW1 8055   0.341   5.370   8.563  1.2790 -2.3521  1.2291
 1934SOL    HW2 8056   0.431   5.283   8.478  1.1038  0.2629 -1.8352
 1935SOL     OW 8057  10.402   9.912   0.009 -0.1556 -0.4490 -0.1638
 1935SOL    HW1 8058  10.360   9.853   0.072  0.0966 -0.9558 -0.4630
 1935SOL    HW2 8059  10.495   9.908   0.031 -0.3959  2.3903  1.9538
 1936SOL     OW 8060   7.205   4.732  10.530  0.0964  0.4468 -0.4197
 1936SOL    HW1 8061   7.179   4.651  10.574 -0.4458  1.6193  1.5292
 1936SOL    HW2 8062   7.298   4.721  10.512  0.2156 -0.3017  0.5747
 1937SOL     OW 8063   4.978   0.176   9.072 -0.2524  0.3287  0.4267
 1937SOL    HW1 8064   5.004   0.218   8.990  0.5433 -0.0020  0.5033
 1937SOL    HW2 8065   4.973   0.083   9.050 -1.7936  0.4088  0.3141
 1938SOL     OW 8066   9.303  10.254   5.201 -0.0119  0.2353  0.3348
 1938SOL    HW1 8067   9.287  10.173   5.153  1.1186 -0.9308  1.8410
 1938SOL    HW2 8068   9.383  10.238   5.251  0.0400  2.1477  0.9756
 1939SOL     OW 8069   9.885   5.019   7.377  0.5402 -0.3938 -0.4466
 1939SOL    HW1 8070   9.940   5.018   7.455  0.0537  0.3089 -0.0790
 1939SOL    HW2 8071   9.892   5.109   7.344 -1.4093  0.1167  0.3860
 1940SOL     OW 8072   6.295   5.534   7.105 -0.5023 -0.0879 -0.2571
 1940SOL    HW1 8073   6.225   5.521   7.041  0.5910  2.1598 -2.0793
 1940SOL    HW2 8074   6.312   5.447   7.141 -2.1229 -1.2068 -2.0112
 1941SOL     OW 8075   8.308  10.585   6.673 -0.3358 -0.0434 -0.0251
 1941SOL    HW1 8076   8.279  10.663   6.626  0.3819 -0.3211 -0.9557
 1941SOL    HW2 8077   8.254  10.514   6.639 -2.4513  0.3225  2.3040
 1942SOL     OW 8078  10.091   1.586   3.895 -0.3798  0.1419  0.0116
 1942SOL    HW1 8079  10.002   1.567   3.926 -0.4411  0.1172 -0.1778
 1942SOL    HW2 8080  10.079   1.620   3.807 -0.4394  2.8274  0.9486
 1943SOL     OW 8081   5.597   8.840   5.919 -0.1319 -0.5887 -0.5383
 1943SOL    HW1 8082   5.515   8.874   5.882  1.2554  2.5322 -1.1253
 1943SOL    HW2 8083   5.603   8.880   6.005  1.3978  0.4654 -1.0796
 1944SOL     OW 8084   4.033   2.165   9.733  0.2515  0.2151 -0.4380
 1944SOL    HW1 8085   4.062   2.076   9.754 -1.9389 -0.5521 -0.4192
 1944SOL    HW2 8086   4.094   2.222   9.779  0.7719 -1.3075  0.8322
 1945SOL     OW 8087   6.516   6.737   8.683 -0.0427 -0.0759 -0.1947
 1945SOL    HW1 8088   6.595   6.772   8.643  0.5253 -0.6394  0.4098
 1945SOL    HW2 8089   6.533   6.644   8.694 -1.1585 -0.3895 -0.8925
 1946SOL     OW 8090   1.815   0.656   3.932 -0.0678  0.0550  0.2572
 1946SOL    HW1 8091   1.872   0.584   3.905  0.5233  1.0435 -1.2506
 1946SOL    HW2 8092   1.727   0.627   3.908  0.0510 -0.5121  0.4710
 1947SOL     OW 8093   3.477   1.573   7.229 -0.1098 -0.5730 -0.4317
 1947SOL    HW1 8094   3.489   1.663   7.261  2.8107 -1.5086  1.4330
 1947SOL    HW2 8095   3.553   1.556   7.174 -0.8951 -1.7597 -1.1916
 1948SOL     OW 8096   8.175   4.884   3.847  0.0991  0.3468 -0.4042
 1948SOL    HW1 8097   8.264   4.915   3.862  0.3018 -0.5599  0.3834
 1948SOL    HW2 8098   8.185   4.803   3.797 -0.2657  0.1546 -0.1739
 1949SOL     OW 8099   5.156   2.008   2.177 -0.0930  0.3459 -0.5668
 1949SOL    HW1 8100   5.097   1.965   2.115  0.4316 -1.0203 -0.1681
 1949SOL    HW2 8101   5.198   2.078   2.127 -1.6720  1.0491 -0.9833
 1950SOL     OW 8102   5.849   3.803   6.715 -0.2089 -0.0272  0.3474
 1950SOL    HW1 8103   5.838   3.709   6.727 -1.8143  0.2890  1.8686
 1950SOL    HW2 8104   5.943   3.817   6.721 -0.0206 -1.4204  1.1573
 1951SOL     OW 8105   3.463   0.735  10.035  0.3187 -0.5128 -0.3792
 1951SOL    HW1 8106   3.504   0.812  10.075 -0.0679 -0.1800 -0.6297
 1951SOL    HW2 8107   3.488   0.739   9.943 -0.5513 -0.1235 -0.6072
 1952SOL     OW 8108   5.918   1.416   0.137  0.2481  0.1085  0.1355
 1952SOL    HW1 8109   5.893   1.324   0.126  1.2436 -0.4682  2.1963
 1952SOL    HW2 8110   6.013   1.414   0.151  0.1744  1.3438  1.0338
 1953SOL     OW 8111   5.841   2.252   4.164  0.4298  0.0107  0.0210
 1953SOL    HW1 8112   5.897   2.196   4.218 -0.4941  0.2774  1.3132
 1953SOL    HW2 8113   5.760   2.202   4.154 -0.0834  0.7422  0.4493
 1954SOL     OW 8114   5.751   2.342   3.491 -0.3861 -0.0109 -0.0445
 1954SOL    HW1 8115   5.826   2.291   3.461  1.3724  1.3402  1.7096
 1954SOL    HW2 8116   5.680   2.278   3.501  0.5733 -1.3841 -1.5335
 1955SOL     OW 8117   6.362   5.562   2.469  0.2945  0.7326 -0.1203
 1955SOL    HW1 8118   6.336   5.638   2.416  2.0802  2.3885  1.2337
 1955SOL    HW2 8119   6.433   5.595   2.525 -0.1888 -1.4250  1.9177
 1956SOL     OW 8120   5.195   5.767   3.369  0.0859  0.3166 -0.0411
 1956SOL    HW1 8121   5.224   5.816   3.291  0.5061  1.8556  1.0292
 1956SOL    HW2 8122   5.179   5.835   3.435 -0.7773 -0.9135  1.0656
 1957SOL     OW 8123   5.067   3.518   2.756 -0.5817  0.0707  0.5253
 1957SOL    HW1 8124   5.136   3.581   2.733  0.2996 -1.0534 -0.0294
 1957SOL    HW2 8125   5.056   3.528   2.850 -0.1773  0.7719  0.5075
 1958SOL     OW 8126   1.734   5.428   8.220 -0.4379 -0.2408  0.3253
 1958SOL    HW1 8127   1.671   5.410   8.289 -0.3624 -2.2530 -0.0638
 1958SOL    HW2 8128   1.804   5.476   8.263 -1.7216  1.1375  0.9788
 1959SOL     OW 8129   2.769   8.123   7.972 -0.3663 -0.4663  0.1484
 1959SOL    HW1 8130   2.702   8.189   7.995 -0.4065  0.0706 -1.3791
 1959SOL    HW2 8131   2.843   8.175   7.941 -0.7384 -1.1194 -1.9710
 1960SOL     OW 8132   8.784   6.616   2.228  0.4708 -0.5770  0.9777
 1960SOL    HW1 8133   8.797   6.665   2.309  0.8235  0.0071  0.5739
 1960SOL    HW2 8134   8.745   6.533   2.257 -0.5109  0.0865  1.6335
 1961SOL     OW 8135   6.620   9.461   5.564  0.3758  0.4754 -0.2249
 1961SOL    HW1 8136   6.586   9.373   5.550 -1.3535  1.1874 -0.9394
 1961SOL    HW2 8137   6.592   9.485   5.652 -0.6370  0.8871 -0.6389
 1962SOL     OW 8138   6.716   7.873   8.675 -0.5702 -0.0608  0.0238
 1962SOL    HW1 8139   6.660   7.811   8.721 -1.4459  0.1958 -0.6609
 1962SOL    HW2 8140   6.661   7.950   8.662  0.9642  1.5052  2.2245
 1963SOL     OW 8141   7.612  10.351   0.463  0.5040  0.7248  0.3864
 1963SOL    HW1 8142   7.530  10.312   0.491  1.0053  0.4254  1.4914
 1963SOL    HW2 8143   7.671  10.277   0.449  1.3155  1.0027  2.0247
 1964SOL     OW 8144   7.376   1.810   3.562  0.0689  0.0044  0.0245
 1964SOL    HW1 8145   7.409   1.739   3.507 -0.5645 -0.4540  0.2229
 1964SOL    HW2 8146   7.289   1.781   3.590  0.0837  0.5505  0.6803
 1965SOL     OW 8147  10.256   9.230   0.263 -0.0728 -0.3325 -0.2848
 1965SOL    HW1 8148  10.162   9.245   0.253 -0.0479  0.9351  1.1156
 1965SOL    HW2 8149  10.279   9.175   0.188 -1.2476  2.1905 -2.6787
 1966SOL     OW 8150   4.688   1.094   8.528  0.0055  0.1091  0.2135
 1966SOL    HW1 8151   4.670   1.012   8.482 -2.0726 -0.1678  1.4052
 1966SOL    HW2 8152   4.639   1.160   8.480 -1.6670 -0.0807  1.5429
 1967SOL     OW 8153   8.817   8.903   0.612 -0.1698  0.1761 -0.7938
 1967SOL    HW1 8154   8.854   8.934   0.694  0.3156 -0.7431 -0.6489
 1967SOL    HW2 8155   8.762   8.975   0.581 -3.4524 -0.7352  2.2284
 1968SOL     OW 8156   9.917   3.024   4.256  0.1766 -0.3892 -0.2042
 1968SOL    HW1 8157   9.914   3.088   4.327 -1.1341 -0.6927  0.0446
 1968SOL    HW2 8158   9.984   3.056   4.197  0.9063  0.1694  0.8909
 1969SOL     OW 8159   2.953   7.961  10.100  0.4416 -0.0978  0.1088
 1969SOL    HW1 8160   2.891   8.034  10.104 -0.4473 -0.7434 -1.2772
 1969SOL    HW2 8161   2.967   7.946  10.007  2.0925 -0.4918  0.3892
 1970SOL     OW 8162   0.654   5.692   4.914 -0.1887  0.2619 -0.4742
 1970SOL    HW1 8163   0.625   5.601   4.915 -1.0160  0.5193  0.3120
 1970SOL    HW2 8164   0.582   5.740   4.955  1.3455  0.9143  1.6441
 1971SOL     OW 8165   9.460   9.023   8.541 -0.3799 -0.3390 -0.1588
 1971SOL    HW1 8166   9.543   9.020   8.589  0.0406 -1.5478 -0.9054
 1971SOL    HW2 8167   9.411   9.095   8.581  2.1086  2.2739 -1.4741
 1972SOL     OW 8168   9.631   6.544  10.620  0.0843  0.5806  0.1925
 1972SOL    HW1 8169   9.695   6.503  10.562  0.9689  0.8217  0.9753
 1972SOL    HW2 8170   9.681   6.609  10.668 -0.5844  0.2326  1.3885
 1973SOL     OW 8171   7.709   2.928   5.968  0.0476  0.1124  0.7354
 1973SOL    HW1 8172   7.794   2.905   6.005 -0.3136 -1.2465  0.7993
 1973SOL    HW2 8173   7.702   3.023   5.979  2.4944  0.6268 -1.2760
 1974SOL     OW 8174   7.502  10.627   3.712  0.3071  0.0569  0.2282
 1974SOL    HW1 8175   7.441  10.670   3.771 -0.1077 -1.5465  1.0208
 1974SOL    HW2 8176   7.460  10.631   3.626  0.8832  2.3494  0.0002
 1975SOL     OW 8177   3.917   7.857   6.167 -0.9131 -0.4638  0.0315
 1975SOL    HW1 8178   3.914   7.953   6.170 -0.2506 -0.4208 -0.5600
 1975SOL    HW2 8179   3.872   7.830   6.247 -0.6883  0.3511  0.4497
 1976SOL     OW 8180   3.811   4.297   2.655 -0.3455 -0.4363  0.1563
 1976SOL    HW1 8181   3.903   4.306   2.632 -0.9968  3.2831 -1.6134
 1976SOL    HW2 8182   3.811   4.284   2.750  1.9691  2.1444  0.6083
 1977SOL     OW 8183   5.675   1.739   4.691 -0.1443 -0.8601 -0.0897
 1977SOL    HW1 8184   5.579   1.736   4.691 -0.1693 -0.4770 -1.2643
 1977SOL    HW2 8185   5.699   1.732   4.784 -1.3437  0.1123  0.3190
 1978SOL     OW 8186   7.967   8.561   7.677  0.1405  0.0803  0.1457
 1978SOL    HW1 8187   7.885   8.547   7.723  0.0204  0.6720  0.1229
 1978SOL    HW2 8188   8.030   8.581   7.747 -0.4444  2.8656 -0.0230
 1979SOL     OW 8189   9.722  10.555   4.863 -0.1963  0.2561  0.7829
 1979SOL    HW1 8190   9.654  10.565   4.796  1.4866 -0.3918 -1.1065
 1979SOL    HW2 8191   9.693  10.480   4.915  1.1619 -3.2111 -2.9125
 1980SOL     OW 8192   6.744   4.233   9.895  0.3207  0.5186 -0.2469
 1980SOL    HW1 8193   6.759   4.186   9.813  1.4967 -1.2889  0.9330
 1980SOL    HW2 8194   6.663   4.196   9.930  0.3799  0.5434 -0.0842
 1981SOL     OW 8195   0.169   1.701   0.843  0.0852  0.3596 -0.0945
 1981SOL    HW1 8196   0.082   1.705   0.882 -0.3322  0.5796 -1.0109
 1981SOL    HW2 8197   0.167   1.622   0.788  0.7248 -0.0608  0.4762
 1982SOL     OW 8198   6.261   2.998   2.527 -0.6711  0.5395  0.1570
 1982SOL    HW1 8199   6.296   3.024   2.612 -1.4762  0.9976  0.3616
 1982SOL    HW2 8200   6.183   3.052   2.516 -1.4131 -0.5777 -0.1956
 1983SOL     OW 8201   5.825   9.957   4.174 -0.2334 -0.3075  0.2949
 1983SOL    HW1 8202   5.903   9.953   4.118 -0.0562  1.6027  0.3420
 1983SOL    HW2 8203   5.838   9.886   4.237  1.3696 -0.1616  0.1822
 1984SOL     OW 8204   3.322   3.595   5.882  0.4252  0.1419  0.3294
 1984SOL    HW1 8205   3.284   3.567   5.966  1.1555  1.7463  1.2483
 1984SOL    HW2 8206   3.417   3.584   5.894  0.6447  1.7602  0.2859
 1985SOL     OW 8207   6.999   9.734   8.673  0.6474  0.4064 -0.0143
 1985SOL    HW1 8208   7.038   9.805   8.622 -0.1924  1.5152  0.8322
 1985SOL    HW2 8209   6.916   9.716   8.630  1.2808 -0.7697 -0.8022
 1986SOL     OW 8210   1.215  10.222   0.600 -0.1616  0.5943  0.6659
 1986SOL    HW1 8211   1.309  10.206   0.610 -0.4406  0.0489  3.4790
 1986SOL    HW2 8212   1.196  10.291   0.664 -1.6158  1.0088 -0.1789
 1987SOL     OW 8213   5.889   9.319   4.776 -0.4047 -0.4184 -0.3259
 1987SOL    HW1 8214   5.901   9.227   4.800 -0.9183 -1.1215 -2.5871
 1987SOL    HW2 8215   5.796   9.327   4.757 -0.2643  0.4434 -0.6924
 1988SOL     OW 8216   3.048   3.013   8.877 -0.5144 -0.2086  0.4327
 1988SOL    HW1 8217   3.056   3.083   8.812 -0.3424 -0.9399 -0.3440
 1988SOL    HW2 8218   3.015   2.938   8.828 -0.0420 -0.8737  1.1147
 1989SOL     OW 8219   4.398   8.345   8.067  0.2063  0.2288 -0.1560
 1989SOL    HW1 8220   4.339   8.407   8.025  0.5430 -0.5748 -1.9041
 1989SOL    HW2 8221   4.485   8.371   8.038  0.3739 -0.8994 -0.7141
 1990SOL     OW 8222   2.182  10.363   2.945  0.5700 -0.2333  0.1292
 1990SOL    HW1 8223   2.201  10.331   3.033 -0.6657 -1.6057 -0.0709
 1990SOL    HW2 8224   2.093  10.396   2.950  0.6845  0.1952 -0.4805
 1991SOL     OW 8225   5.838   0.718   6.112  0.1294  0.6522  0.8505
 1991SOL    HW1 8226   5.806   0.669   6.036  1.6349  1.6975 -0.5354
 1991SOL    HW2 8227   5.880   0.652   6.167  1.6929  0.2328 -0.7438
 1992SOL     OW 8228   4.588   3.717   0.582 -0.4152  0.6396 -0.0785
 1992SOL    HW1 8229   4.505   3.684   0.618 -0.4409 -0.0278 -0.7266
 1992SOL    HW2 8230   4.649   3.715   0.656 -0.3776 -1.0326 -0.1325
 1993SOL     OW 8231  10.347   5.519   0.330 -0.3318 -0.7244 -0.6295
 1993SOL    HW1 8232  10.263   5.489   0.367 -0.0400  0.8373  1.4613
 1993SOL    HW2 8233  10.345   5.614   0.339  1.7471 -0.6664 -0.3839
 1994SOL     OW 8234   8.355   5.191   8.097  0.7289  0.3070  0.0567
 1994SOL    HW1 8235   8.295   5.255   8.135  0.1250  0.9533 -1.8533
 1994SOL    HW2 8236   8.298   5.124   8.059  1.3317 -0.7735  0.9912
 1995SOL     OW 8237   2.681   4.699   4.130  0.2552 -0.5970 -0.1626
 1995SOL    HW1 8238   2.692   4.605   4.147  0.0209 -0.6396 -0.2414
 1995SOL    HW2 8239   2.587   4.710   4.118  0.3161 -0.4087 -0.4958
 1996SOL     OW 8240   4.650   5.928   1.552 -0.1499 -0.6583  0.1510
 1996SOL    HW1 8241   4.661   5.842   1.511 -0.8225 -0.4867 -0.4303
 1996SOL    HW2 8242   4.738   5.964   1.559  0.1231 -1.3523  0.2996
 1997SOL     OW 8243   7.067   8.095   2.328  0.3369 -0.1274  0.0094
 1997SOL    HW1 8244   7.045   8.132   2.242  1.7881 -0.5096 -0.5440
 1997SOL    HW2 8245   7.162   8.097   2.332  0.2861  0.3259  1.8267
 1998SOL     OW 8246   0.852   7.249   0.945 -0.8891  0.2490 -0.2763
 1998SOL    HW1 8247   0.777   7.255   1.004 -1.3895  2.9016 -1.0549
 1998SOL    HW2 8248   0.926   7.277   0.998 -1.1776  1.6917 -0.6085
 1999SOL     OW 8249   5.774   1.895   8.408 -0.2262 -0.2195  0.3823
 1999SOL    HW1 8250   5.700   1.956   8.401  0.4699  0.8471  1.8260
 1999SOL    HW2 8251   5.747   1.819   8.357 -1.4201  1.0100 -0.9158
 2000SOL     OW 8252   3.942   3.007   7.340 -0.1390  1.0342  0.5636
 2000SOL    HW1 8253   3.896   2.952   7.403 -0.8864  0.6233 -0.3230
 2000SOL    HW2 8254   4.002   2.948   7.295 -0.0961  1.1818  0.4238
 2001SOL     OW 8255   2.432   9.374   7.181  0.5122 -0.4177  0.0010
 2001SOL    HW1 8256   2.494   9.338   7.244  0.1173  0.9001  1.2080
 2001SOL    HW2 8257   2.478   9.447   7.141  0.2301 -0.3012 -0.1133
 2002SOL     OW 8258   2.710   5.109   1.474  0.0041 -0.3394  0.4477
 2002SOL    HW1 8259   2.616   5.114   1.494 -0.0181  1.1732  0.0449
 2002SOL    HW2 8260   2.727   5.016   1.462 -1.4707 -0.6186  0.4066
 2003SOL     OW 8261   2.585   7.818   5.062  0.2461 -1.6705  0.7707
 2003SOL    HW1 8262   2.612   7.729   5.040  1.7466 -1.1095  0.2283
 2003SOL    HW2 8263   2.631   7.838   5.144  1.1069 -0.8859  0.1156
 2004SOL     OW 8264   3.732   0.615   3.669 -0.0909  0.1143 -0.4053
 2004SOL    HW1 8265   3.814   0.615   3.620  1.2793 -0.5574  1.7541
 2004SOL    HW2 8266   3.664   0.622   3.602  1.6027 -2.0429 -2.5054
 2005SOL     OW 8267   1.190   0.328   4.396  0.1458 -0.0185 -0.1809
 2005SOL    HW1 8268   1.105   0.348   4.435  1.3327  1.4126  1.9169
 2005SOL    HW2 8269   1.246   0.308   4.471  1.3826 -2.2947 -1.5980
 2006SOL     OW 8270   3.809   2.271   3.724 -0.2136 -0.6611  0.1392
 2006SOL    HW1 8271   3.815   2.185   3.763 -3.1265 -0.4904  1.1912
 2006SOL    HW2 8272   3.841   2.331   3.791 -0.6052 -0.7362  0.3932
 2007SOL     OW 8273   8.024   7.698  10.259 -0.0127 -0.3258  0.1239
 2007SOL    HW1 8274   8.089   7.765  10.237  0.3436 -0.7511 -0.1142
 2007SOL    HW2 8275   8.023   7.639  10.184 -1.6135  0.3844 -0.4578
 2008SOL     OW 8276   5.893   2.790   3.475 -0.1617  0.3294  0.2928
 2008SOL    HW1 8277   5.798   2.787   3.464  0.0186  1.0583 -1.8570
 2008SOL    HW2 8278   5.928   2.787   3.386  1.8473  0.0329  1.0355
 2009SOL     OW 8279   8.017   8.241   1.797 -0.0460 -0.7068 -0.2298
 2009SOL    HW1 8280   8.005   8.262   1.889 -0.3055  0.5140 -0.5300
 2009SOL    HW2 8281   8.110   8.258   1.780 -0.3114  0.5784 -0.5390
 2010SOL     OW 8282   6.661   1.720   0.766  0.1154 -0.1262 -0.4449
 2010SOL    HW1 8283   6.688   1.638   0.726  0.3315  0.3111 -1.2153
 2010SOL    HW2 8284   6.717   1.728   0.844  0.1189 -0.6774 -0.3863
 2011SOL     OW 8285   9.595   8.919   9.532  0.4197  0.8413 -0.5365
 2011SOL    HW1 8286   9.647   8.988   9.571 -0.0189  0.9263 -0.1012
 2011SOL    HW2 8287   9.599   8.846   9.594  0.2176  0.7646 -0.6090
 2012SOL     OW 8288   8.662   6.692   0.695  0.2463 -0.6383 -0.1539
 2012SOL    HW1 8289   8.645   6.634   0.768 -1.5156  0.8126  0.6655
 2012SOL    HW2 8290   8.575   6.716   0.662  0.9839 -1.1392 -2.6604
 2013SOL     OW 8291   5.373   2.204   2.520  0.0267  0.0602 -0.0335
 2013SOL    HW1 8292   5.286   2.240   2.505 -0.4583 -1.1417 -0.2465
 2013SOL    HW2 8293   5.431   2.255   2.463 -0.1900  2.1173  1.4587
 2014SOL     OW 8294   7.086   8.509   6.004 -0.4461 -0.8055  0.0620
 2014SOL    HW1 8295   7.047   8.475   5.924 -1.3242 -1.4836  0.7534
 2014SOL    HW2 8296   7.068   8.441   6.069  0.4597 -0.3774  0.7795
 2015SOL     OW 8297   2.665   0.682   7.654 -0.0237  0.1184  0.3442
 2015SOL    HW1 8298   2.617   0.764   7.670  0.6652  0.9788 -1.6494
 2015SOL    HW2 8299   2.597   0.615   7.648 -0.8211  0.9624 -0.4214
 2016SOL     OW 8300   7.425   7.718   8.394  0.4421  0.3473 -0.1849
 2016SOL    HW1 8301   7.353   7.741   8.454 -1.0177 -0.8192 -1.4179
 2016SOL    HW2 8302   7.468   7.643   8.437  0.2172  0.3335  0.0217
 2017SOL     OW 8303   6.821   1.202   2.976 -0.1409  0.0218 -0.5283
 2017SOL    HW1 8304   6.855   1.158   3.054 -0.3571  1.4841  0.4314
 2017SOL    HW2 8305   6.734   1.164   2.962 -1.3402  1.7023  1.7133
 2018SOL     OW 8306   4.400   6.785   3.983 -0.3437 -0.0416 -0.0302
 2018SOL    HW1 8307   4.487   6.761   4.013 -0.4638 -0.4673 -0.0219
 2018SOL    HW2 8308   4.414   6.867   3.935 -0.4113  1.7546  2.7560
 2019SOL     OW 8309   9.253   8.928   2.253  0.0342  0.0490  0.1588
 2019SOL    HW1 8310   9.244   8.859   2.188  3.0784  0.0275 -0.4014
 2019SOL    HW2 8311   9.231   8.885   2.336 -0.2740 -0.9613 -0.4268
 2020SOL     OW 8312   4.401   3.987   7.638 -0.0574  0.1151  0.0191
 2020SOL    HW1 8313   4.448   3.968   7.719 -1.7350  0.7673  1.2173
 2020SOL    HW2 8314   4.358   3.904   7.615  0.8650 -0.2182 -0.5279
 2021SOL     OW 8315  10.321   2.412   8.847 -0.0682 -0.8364  0.2350
 2021SOL    HW1 8316  10.259   2.479   8.818 -0.8734 -1.2533  0.9489
 2021SOL    HW2 8317  10.377   2.396   8.771  0.1347  0.6349  0.0484
 2022SOL     OW 8318   4.617   3.610   1.741  0.1414 -0.0563 -0.2014
 2022SOL    HW1 8319   4.551   3.680   1.743  0.1179 -0.0762 -0.2514
 2022SOL    HW2 8320   4.694   3.649   1.781  0.6160  0.5021 -1.5891
 2023SOL     OW 8321   2.462   0.883   5.251 -0.0838  0.3067  0.3508
 2023SOL    HW1 8322   2.528   0.830   5.295 -0.0634 -0.1078 -0.1816
 2023SOL    HW2 8323   2.423   0.825   5.186  1.2533  1.4497 -1.5758
 2024SOL     OW 8324   5.620   5.489   3.176 -0.4396  0.2118  0.1090
 2024SOL    HW1 8325   5.647   5.406   3.215  1.0890  0.6443  0.0314
 2024SOL    HW2 8326   5.623   5.551   3.248 -0.0562  0.5159 -0.1683
 2025SOL     OW 8327   5.029   2.420   4.093  0.0620 -0.1312 -0.1845
 2025SOL    HW1 8328   4.947   2.468   4.086  0.0781 -0.2113 -1.0567
 2025SOL    HW2 8329   5.097   2.487   4.086  0.0815 -0.2350 -1.1762
 2026SOL     OW 8330   5.833   8.766  10.290 -0.0551  0.2089  0.0451
 2026SOL    HW1 8331   5.909   8.751  10.235 -0.5918  1.6657 -1.1611
 2026SOL    HW2 8332   5.818   8.860  10.285 -2.2623 -0.0947 -0.2253
 2027SOL     OW 8333   6.774   4.728   2.298 -0.9172 -0.3715 -0.7167
 2027SOL    HW1 8334   6.785   4.636   2.321  1.0204  0.0299  0.1342
 2027SOL    HW2 8335   6.684   4.748   2.322 -0.2227 -0.9937  3.0526
 2028SOL     OW 8336   9.180   4.168   2.763  0.4470 -0.6986  0.2310
 2028SOL    HW1 8337   9.116   4.238   2.777  1.0021  0.2398 -1.6531
 2028SOL    HW2 8338   9.152   4.099   2.823 -0.3805  0.9391  1.8323
 2029SOL     OW 8339   7.985   4.114   0.180  0.9048  0.2531 -0.4355
 2029SOL    HW1 8340   8.045   4.050   0.217  0.4017 -0.1856 -0.3699
 2029SOL    HW2 8341   7.941   4.069   0.109  2.2807  1.2706 -2.0035
 2030SOL     OW 8342  10.472   6.538   7.483 -0.3644  0.1545 -0.0040
 2030SOL    HW1 8343  10.565   6.559   7.492  0.0898 -0.7054 -2.0169
 2030SOL    HW2 8344  10.453   6.479   7.556  1.8007 -2.9177 -1.6720
 2031SOL     OW 8345   0.998   7.900   9.991 -0.5646 -0.2703  0.3049
 2031SOL    HW1 8346   0.910   7.866  10.008 -2.5375  4.0813  0.1081
 2031SOL    HW2 8347   1.015   7.961  10.063  2.2596 -0.7881  0.1952
 2032SOL     OW 8348   9.580   7.916   8.060 -0.1791 -0.4901  0.6605
 2032SOL    HW1 8349   9.672   7.931   8.040 -0.4667  0.1069 -0.2721
 2032SOL    HW2 8350   9.580   7.882   8.150  0.9107 -0.1378  0.8048
 2033SOL     OW 8351   1.528   1.337   0.716 -0.2669  0.6352 -0.1553
 2033SOL    HW1 8352   1.513   1.292   0.633  0.7692 -0.4688  0.2288
 2033SOL    HW2 8353   1.444   1.335   0.761 -1.4704  3.2241 -2.0548
 2034SOL     OW 8354   8.469   1.234   2.655  0.6725 -0.0327 -0.1384
 2034SOL    HW1 8355   8.465   1.280   2.739  1.5023  1.5071 -0.8825
 2034SOL    HW2 8356   8.539   1.170   2.665  0.1147 -0.5397  0.6328
 2035SOL     OW 8357   0.620   2.514   2.688 -0.0143  0.6720 -0.4459
 2035SOL    HW1 8358   0.662   2.429   2.673  0.0741  0.2059  1.9337
 2035SOL    HW2 8359   0.528   2.499   2.667  0.2307  0.3906 -1.3473
 2036SOL     OW 8360   0.012   0.555   3.195 -0.6321  0.3849  0.1169
 2036SOL    HW1 8361   0.018   0.639   3.241 -1.3757 -0.2627  1.4471
 2036SOL    HW2 8362  -0.014   0.493   3.263 -2.2350 -0.5302 -1.2667
 2037SOL     OW 8363   3.264  10.421   7.073 -0.2054 -0.1212 -0.1192
 2037SOL    HW1 8364   3.296  10.511   7.065  0.5004 -0.1986  1.4325
 2037SOL    HW2 8365   3.344  10.367   7.070 -0.6879 -0.8209 -2.0468
 2038SOL     OW 8366   3.044  10.474   1.162 -0.1498  0.1942 -0.2669
 2038SOL    HW1 8367   2.956  10.436   1.164  0.5340 -1.4896 -0.7780
 2038SOL    HW2 8368   3.062  10.489   1.069  0.9709 -1.7029 -0.4120
 2039SOL     OW 8369   5.292   1.178   3.366  0.4836 -0.3746 -0.1045
 2039SOL    HW1 8370   5.369   1.123   3.357  0.8735  0.0162  0.7195
 2039SOL    HW2 8371   5.317   1.262   3.327  1.3396  0.5311  2.2150
 2040SOL     OW 8372   6.090  10.491   1.338 -0.1469  0.0995 -0.5780
 2040SOL    HW1 8373   6.070  10.560   1.401 -1.6421 -2.0011  1.4308
 2040SOL    HW2 8374   6.069  10.528   1.253  1.8184  3.0306  0.0694
 2041SOL     OW 8375   9.732   2.469   7.994  0.1077 -0.1674  0.1341
 2041SOL    HW1 8376   9.685   2.489   8.075 -1.1551 -0.2161 -0.5687
 2041SOL    HW2 8377   9.706   2.380   7.972 -0.1046  0.0871 -0.6882
 2042SOL     OW 8378   1.353   0.860   3.997 -0.5716 -0.0174  0.0145
 2042SOL    HW1 8379   1.280   0.903   4.042 -0.0310  1.2549 -0.2561
 2042SOL    HW2 8380   1.413   0.932   3.976  0.2763 -0.8978 -0.6711
 2043SOL     OW 8381   0.416   2.965   1.193  0.2396 -0.7130 -0.1596
 2043SOL    HW1 8382   0.458   2.888   1.153 -1.8887 -0.9294 -2.1930
 2043SOL    HW2 8383   0.356   2.928   1.259  0.1080 -0.7044 -0.2749
 2044SOL     OW 8384   4.670   5.093   5.302 -0.4123  0.6278 -0.1063
 2044SOL    HW1 8385   4.753   5.063   5.266 -2.2331 -2.8045 -2.0230
 2044SOL    HW2 8386   4.657   5.041   5.381 -2.5198 -2.3023 -2.1600
 2045SOL     OW 8387   4.330   9.559   1.864  0.2442 -0.2481 -0.2841
 2045SOL    HW1 8388   4.306   9.506   1.788 -0.7510  0.5840 -0.5590
 2045SOL    HW2 8389   4.425   9.573   1.853  0.0571  0.1685 -1.5757
 2046SOL     OW 8390   0.085   5.626   5.350  0.1480  0.5387  0.0099
 2046SOL    HW1 8391  -0.003   5.589   5.341  0.1767  0.4164  0.2411
 2046SOL    HW2 8392   0.129   5.569   5.413  0.3827  0.6204 -0.0789
 2047SOL     OW 8393   8.229   4.258   2.452 -0.1602 -0.2786  0.5526
 2047SOL    HW1 8394   8.234   4.347   2.416  1.4748  0.2318  1.9513
 2047SOL    HW2 8395   8.238   4.201   2.376  1.5439  0.7692 -0.0791
 2048SOL     OW 8396  10.176   8.569   0.568  0.3179  0.4814 -0.7942
 2048SOL    HW1 8397  10.119   8.502   0.530 -0.2721 -0.9821  2.4182
 2048SOL    HW2 8398  10.258   8.560   0.519 -0.2588 -1.5120 -1.5154
 2049SOL     OW 8399  10.632   8.242   8.980 -0.1209 -1.1904 -0.4663
 2049SOL    HW1 8400  10.720   8.249   8.943  0.9253 -1.2971  1.8350
 2049SOL    HW2 8401  10.582   8.310   8.935  1.9843  1.0470  0.3475
 2050SOL     OW 8402   1.061   2.574   9.997 -0.1878  0.1127  0.0294
 2050SOL    HW1 8403   1.045   2.490   9.954  0.9709  0.2152 -0.6427
 2050SOL    HW2 8404   1.094   2.551  10.083  0.6938 -0.1517 -0.3638
 2051SOL     OW 8405  10.458   1.981   7.225 -0.1859  0.0309 -0.3846
 2051SOL    HW1 8406  10.442   2.066   7.266 -0.3186 -0.4578  0.5914
 2051SOL    HW2 8407  10.447   1.917   7.295  1.0422 -0.7177 -0.8342
 2052SOL     OW 8408   5.985   7.719   2.499  0.4290  0.2066  0.3331
 2052SOL    HW1 8409   5.953   7.775   2.569  0.8109 -0.6243  1.2099
 2052SOL    HW2 8410   5.931   7.640   2.505  2.9051 -1.5443  2.3219
 2053SOL     OW 8411   8.229   0.501   4.563  0.0410  0.4338 -0.6017
 2053SOL    HW1 8412   8.140   0.466   4.563  0.4263 -0.5767 -0.1467
 2053SOL    HW2 8413   8.264   0.477   4.477 -0.4465  1.7498 -1.2074
 2054SOL     OW 8414   7.269   4.685   2.185 -0.6244 -0.7643 -0.3320
 2054SOL    HW1 8415   7.296   4.750   2.120 -0.0224 -1.9202 -1.2702
 2054SOL    HW2 8416   7.211   4.733   2.244 -0.3528  0.5703 -1.1106
 2055SOL     OW 8417   0.667   8.989   4.879  0.0262  0.4273 -0.3319
 2055SOL    HW1 8418   0.704   9.044   4.811 -0.8965 -0.1171 -1.3081
 2055SOL    HW2 8419   0.734   8.923   4.896 -0.0712  0.0424 -1.3710
 2056SOL     OW 8420  10.589   2.168   8.764 -0.1628  0.1616  0.0321
 2056SOL    HW1 8421  10.635   2.236   8.715  1.1064 -1.2532 -0.8184
 2056SOL    HW2 8422  10.639   2.158   8.845 -1.6909  1.8022  1.2576
 2057SOL     OW 8423   1.059   2.662   9.248  0.1904 -0.0735 -0.0005
 2057SOL    HW1 8424   0.994   2.645   9.179 -0.6484  2.6218 -0.0077
 2057SOL    HW2 8425   1.023   2.736   9.297  2.8852  1.0327  0.4952
 2058SOL     OW 8426   8.042   4.181   3.247 -0.6313 -0.3861  0.5956
 2058SOL    HW1 8427   7.979   4.250   3.266 -0.9203 -0.5383  0.2173
 2058SOL    HW2 8428   8.072   4.201   3.158 -0.2144 -0.3645  0.7431
 2059SOL     OW 8429   6.547   2.165   7.700 -0.3949  0.0662 -0.0757
 2059SOL    HW1 8430   6.570   2.123   7.784 -0.4032  0.3612  0.0771
 2059SOL    HW2 8431   6.495   2.242   7.725  0.0299  0.4422 -0.3194
 2060SOL     OW 8432   4.043   5.612   6.427  0.4704  0.1306  0.3202
 2060SOL    HW1 8433   4.124   5.562   6.439  0.5588  0.4688  1.1669
 2060SOL    HW2 8434   3.979   5.568   6.483 -0.9161 -2.2128 -2.8001
 2061SOL     OW 8435   2.508   8.542   0.758  0.1195 -0.2413 -0.6215
 2061SOL    HW1 8436   2.517   8.547   0.853  1.4515 -0.7617 -0.7034
 2061SOL    HW2 8437   2.454   8.464   0.743 -1.3072  0.6439 -0.2575
 2062SOL     OW 8438   7.956   3.810   4.320 -0.2073  0.0877  0.4458
 2062SOL    HW1 8439   7.918   3.829   4.234 -0.3926  2.7314  1.0364
 2062SOL    HW2 8440   7.887   3.765   4.367 -0.5433 -0.2765 -0.3699
 2063SOL     OW 8441   0.773   6.783   8.037 -0.9859 -0.2643  0.2641
 2063SOL    HW1 8442   0.819   6.699   8.034  0.2570  0.4219 -1.0889
 2063SOL    HW2 8443   0.841   6.848   8.054 -2.0389  0.4456  2.1406
 2064SOL     OW 8444   6.604   6.309   4.606  0.6726 -0.3075 -0.0111
 2064SOL    HW1 8445   6.631   6.392   4.647 -1.1209  0.4742 -0.3016
 2064SOL    HW2 8446   6.575   6.335   4.518 -0.8300 -1.0680  0.2330
 2065SOL     OW 8447   4.119   0.265  10.498 -0.7195 -0.0685  0.1851
 2065SOL    HW1 8448   4.182   0.307  10.440 -0.9282  0.1045  0.0803
 2065SOL    HW2 8449   4.033   0.293  10.464 -0.8594 -0.5401  0.1430
 2066SOL     OW 8450   8.229   4.245   2.013  0.5349 -0.4916  0.1237
 2066SOL    HW1 8451   8.305   4.302   2.002 -1.3627  2.2180 -0.0365
 2066SOL    HW2 8452   8.222   4.198   1.929  1.7857 -0.5096  0.0157
 2067SOL     OW 8453   2.740   1.091   6.643  0.1773  0.8562  0.5465
 2067SOL    HW1 8454   2.734   1.166   6.701  0.3313 -0.6062  2.5604
 2067SOL    HW2 8455   2.809   1.036   6.682 -0.0857 -0.4417 -0.7235
 2068SOL     OW 8456   2.635   0.418   6.572 -0.3694 -0.0843  0.2466
 2068SOL    HW1 8457   2.682   0.447   6.650  0.5590 -1.6318  0.2961
 2068SOL    HW2 8458   2.701   0.418   6.503 -0.7012 -0.6613 -0.0740
 2069SOL     OW 8459   8.522   2.873  10.010  0.3673 -0.6221 -0.4528
 2069SOL    HW1 8460   8.563   2.870   9.923 -0.0626  1.5542 -0.7916
 2069SOL    HW2 8461   8.596   2.885  10.070  0.6318 -1.7496 -0.5335
 2070SOL     OW 8462   3.377   2.630   3.215  0.8540  0.4917  0.0684
 2070SOL    HW1 8463   3.405   2.711   3.256  0.6247 -0.1106  1.4581
 2070SOL    HW2 8464   3.291   2.650   3.178  1.4495  1.2842 -0.9385
 2071SOL     OW 8465   2.021   8.644   8.654 -0.0685  0.0443 -0.0393
 2071SOL    HW1 8466   2.017   8.571   8.592 -0.6482 -0.5486  0.6735
 2071SOL    HW2 8467   1.987   8.608   8.736 -0.2641  1.0923  0.3577
 2072SOL     OW 8468   5.496   8.541   9.435 -0.0266  0.2518 -0.4023
 2072SOL    HW1 8469   5.500   8.620   9.382  0.6926  1.1166  0.8881
 2072SOL    HW2 8470   5.504   8.469   9.372  1.6793  1.2494 -1.3881
 2073SOL     OW 8471   9.496   6.071   7.967  0.7555  0.1872 -0.3209
 2073SOL    HW1 8472   9.465   6.030   7.886  0.7784 -0.1604 -0.1558
 2073SOL    HW2 8473   9.460   6.159   7.965  0.6752  0.1479 -0.6642
 2074SOL     OW 8474   9.767   5.900   0.900 -0.1629 -0.6698 -0.7695
 2074SOL    HW1 8475   9.736   5.990   0.892  1.0648 -0.2418 -0.8432
 2074SOL    HW2 8476   9.801   5.879   0.813 -0.3634 -1.1744 -0.7262
 2075SOL     OW 8477   2.531   1.928  10.390  0.0945 -0.4765 -0.9208
 2075SOL    HW1 8478   2.621   1.918  10.359  0.5363  0.9755 -0.1989
 2075SOL    HW2 8479   2.532   2.010  10.440 -1.2656 -1.2178  0.4128
 2076SOL     OW 8480   4.875   5.591   4.758  0.0154  0.0370  0.1513
 2076SOL    HW1 8481   4.910   5.596   4.848  2.9371  0.3440 -0.8781
 2076SOL    HW2 8482   4.782   5.572   4.769  0.3503 -0.3351  3.2305
 2077SOL     OW 8483   9.450   7.668   3.008 -0.0691  0.5418  0.6917
 2077SOL    HW1 8484   9.489   7.755   3.008  0.9420  0.2490 -2.8031
 2077SOL    HW2 8485   9.524   7.608   3.021 -0.1313  0.1289 -0.7327
 2078SOL     OW 8486   7.070   9.741   9.927  0.5014  0.5519 -0.5433
 2078SOL    HW1 8487   7.049   9.814   9.985 -1.8583  0.0531 -0.6746
 2078SOL    HW2 8488   7.003   9.743   9.859  3.0317  1.0010 -3.2708
 2079SOL     OW 8489   1.075   2.431   0.271  0.2951  0.3438 -0.8280
 2079SOL    HW1 8490   1.029   2.459   0.350  0.3247  1.3528 -1.1627
 2079SOL    HW2 8491   1.145   2.373   0.303  2.1417  2.9716  0.1951
 2080SOL     OW 8492   7.110   0.955   2.406  0.4265  0.0902 -0.4820
 2080SOL    HW1 8493   7.019   0.981   2.422  0.6379  1.1949 -0.9891
 2080SOL    HW2 8494   7.161   1.035   2.421  1.4287 -0.7319  0.6816
 2081SOL     OW 8495   9.624   0.277   9.017  0.2574 -0.0402  0.5625
 2081SOL    HW1 8496   9.705   0.302   8.972 -1.3703  2.0191 -1.4133
 2081SOL    HW2 8497   9.580   0.217   8.958 -1.4599  1.9530 -0.3189
 2082SOL     OW 8498   5.778   4.723   4.668 -0.6000 -0.4021 -0.2508
 2082SOL    HW1 8499   5.844   4.670   4.625 -1.0068 -1.3370  0.2481
 2082SOL    HW2 8500   5.784   4.808   4.625  1.4062 -0.2428  0.2648
 2083SOL     OW 8501   1.491   9.929   0.863  0.3991 -0.5835  0.1217
 2083SOL    HW1 8502   1.527  10.017   0.854 -0.2746 -0.3903 -1.0767
 2083SOL    HW2 8503   1.507   9.904   0.954 -2.6747  2.2757  1.6464
 2084SOL     OW 8504   7.424   8.277   1.933 -0.2633  1.0005  0.1276
 2084SOL    HW1 8505   7.420   8.294   2.027  2.5984  1.7292  0.2166
 2084SOL    HW2 8506   7.465   8.191   1.926  0.5584  1.4270 -0.4400
 2085SOL     OW 8507   2.854   5.125   7.639 -0.5500 -0.5166 -0.1273
 2085SOL    HW1 8508   2.905   5.152   7.563 -0.3633  0.7182  0.4135
 2085SOL    HW2 8509   2.884   5.035   7.658  0.2327 -0.4077 -0.7966
 2086SOL     OW 8510   0.461   8.289   2.245 -0.4350  0.0971 -0.0670
 2086SOL    HW1 8511   0.377   8.289   2.199  0.3592 -1.3477 -1.6242
 2086SOL    HW2 8512   0.520   8.338   2.188  0.0250  0.2823  0.5537
 2087SOL     OW 8513   3.686   0.776   4.459  0.6869 -0.2555  0.0480
 2087SOL    HW1 8514   3.611   0.829   4.433  0.3635 -1.7698 -2.5273
 2087SOL    HW2 8515   3.761   0.823   4.423  0.7373  0.0698  0.5735
 2088SOL     OW 8516   2.676   7.718   3.121 -0.0724 -0.3850  0.4746
 2088SOL    HW1 8517   2.695   7.802   3.081  1.0790 -0.7380  0.2577
 2088SOL    HW2 8518   2.722   7.720   3.205  1.2527 -1.3773 -0.1967
 2089SOL     OW 8519   3.187  10.401   9.857  0.2114  0.2988 -0.1751
 2089SOL    HW1 8520   3.145  10.383   9.942  1.8647  2.2978  1.1489
 2089SOL    HW2 8521   3.251  10.330   9.847 -0.1872 -0.1092  0.0992
 2090SOL     OW 8522   5.310   5.232   3.302 -0.0599  0.4606 -0.5967
 2090SOL    HW1 8523   5.288   5.322   3.324 -0.6612  0.0768  0.4547
 2090SOL    HW2 8524   5.380   5.239   3.237  1.0501  1.6872  0.6660
 2091SOL     OW 8525   6.329   1.302   9.403  0.1833  0.1405 -0.7510
 2091SOL    HW1 8526   6.311   1.299   9.309  1.7132  0.1193 -1.0673
 2091SOL    HW2 8527   6.292   1.221   9.437 -0.3913  0.1513 -1.3308
 2092SOL     OW 8528  10.571   2.472   8.980  0.8135 -0.5628  0.1174
 2092SOL    HW1 8529  10.501   2.426   8.933 -0.0281  0.7986 -0.0010
 2092SOL    HW2 8530  10.566   2.436   9.069  0.7664 -1.3427 -0.1902
 2093SOL     OW 8531   9.337   8.318   4.469 -0.3152 -0.5050  0.0124
 2093SOL    HW1 8532   9.425   8.292   4.498 -0.4044  0.0122  0.7731
 2093SOL    HW2 8533   9.334   8.412   4.485 -1.8476 -0.8661  2.3438
 2094SOL     OW 8534   7.673   5.736   1.212  0.5444 -0.0751  0.1810
 2094SOL    HW1 8535   7.674   5.710   1.304 -1.1418 -0.4599  0.1221
 2094SOL    HW2 8536   7.721   5.666   1.167 -1.1533 -1.4793  0.4305
 2095SOL     OW 8537   3.384   3.065   1.012  0.1431 -0.3148  0.7800
 2095SOL    HW1 8538   3.317   3.015   0.966 -1.8455  1.1082  1.9600
 2095SOL    HW2 8539   3.356   3.064   1.104  1.6530  0.4617  1.2810
 2096SOL     OW 8540   4.612   8.831   8.670  0.4016  0.1043  0.1591
 2096SOL    HW1 8541   4.607   8.861   8.761  2.8262 -0.9250  0.7184
 2096SOL    HW2 8542   4.689   8.876   8.634  1.0528 -1.4709 -0.5325
 2097SOL     OW 8543   2.874   8.339   8.604 -0.3014 -0.0632 -0.8601
 2097SOL    HW1 8544   2.957   8.307   8.570 -0.4954 -1.6312  0.0249
 2097SOL    HW2 8545   2.810   8.316   8.536 -0.2377 -0.3221 -0.8329
 2098SOL     OW 8546   6.601   9.990   9.930 -0.3790 -0.4481  0.4942
 2098SOL    HW1 8547   6.622  10.083   9.916  0.8528 -0.7071  0.5399
 2098SOL    HW2 8548   6.635   9.946   9.852 -1.0124 -0.8637  0.4468
 2099SOL     OW 8549   3.687   7.892   7.871  0.1184 -0.1215  0.2168
 2099SOL    HW1 8550   3.730   7.904   7.787 -0.7584 -1.0288 -0.3811
 2099SOL    HW2 8551   3.758   7.886   7.934  0.7727  0.9868 -0.3882
 2100SOL     OW 8552   7.553   8.900   1.413 -0.6324  0.3883 -0.3924
 2100SOL    HW1 8553   7.468   8.893   1.369  0.3707 -0.7681 -2.2523
 2100SOL    HW2 8554   7.608   8.834   1.371  0.8685  0.2906  1.5890
 2101SOL     OW 8555   7.610   7.634   2.106  0.1568  0.2167 -0.0677
 2101SOL    HW1 8556   7.552   7.702   2.140  0.6419  0.4327  0.3338
 2101SOL    HW2 8557   7.646   7.670   2.026  0.2094  0.3259  0.0051
 2102SOL     OW 8558   3.197   9.769   5.654  0.0236  0.0471 -0.0855
 2102SOL    HW1 8559   3.233   9.816   5.579  1.5558  0.3152  0.7926
 2102SOL    HW2 8560   3.233   9.814   5.730 -1.4343 -0.2725  0.8388
 2103SOL     OW 8561   2.042  10.264   7.327  1.0676 -0.0632 -0.1641
 2103SOL    HW1 8562   2.119  10.258   7.272 -0.0174 -0.5146 -1.7037
 2103SOL    HW2 8563   2.006  10.175   7.328  0.0020  0.3430 -0.3489
 2104SOL     OW 8564   0.398   0.426   9.049  0.2920 -0.4939 -0.1351
 2104SOL    HW1 8565   0.346   0.345   9.043 -0.9588  0.2632  0.2040
 2104SOL    HW2 8566   0.347   0.491   9.002  0.3676  0.5475  1.1881
 2105SOL     OW 8567   7.351   0.332  10.116  0.8416 -0.4076  0.0278
 2105SOL    HW1 8568   7.373   0.271  10.045  0.2411 -1.5777  0.8299
 2105SOL    HW2 8569   7.434   0.373  10.138  1.1719 -0.5711 -0.8478
 2106SOL     OW 8570   0.021   7.132   8.623 -0.6338  0.4335 -0.3995
 2106SOL    HW1 8571  -0.047   7.147   8.688  0.2357 -2.0600  1.2302
 2106SOL    HW2 8572   0.103   7.137   8.672  0.1017 -0.5951 -1.4603
 2107SOL     OW 8573   4.781   7.590   4.951 -0.2211  0.0236 -0.3383
 2107SOL    HW1 8574   4.751   7.499   4.941 -0.7221 -0.2447  2.7437
 2107SOL    HW2 8575   4.701   7.639   4.971  0.4526  0.5156  1.2607
 2108SOL     OW 8576   7.181   8.911   1.977 -0.3066 -0.2681 -0.8450
 2108SOL    HW1 8577   7.103   8.942   2.024  1.4391  0.7081  1.6503
 2108SOL    HW2 8578   7.219   8.845   2.035  2.0340  1.0784 -0.7290
 2109SOL     OW 8579   8.472   1.662   9.837  0.0986 -0.0122 -0.8438
 2109SOL    HW1 8580   8.383   1.628   9.844  0.2299 -0.2600 -0.3785
 2109SOL    HW2 8581   8.482   1.718   9.914  1.2286 -2.0303  0.5532
 2110SOL     OW 8582   8.879   4.808   9.608  0.1817 -0.1666 -0.2092
 2110SOL    HW1 8583   8.956   4.772   9.652  2.4848  2.1739 -1.9913
 2110SOL    HW2 8584   8.908   4.824   9.518 -2.5218  0.5692 -1.0470
 2111SOL     OW 8585   2.088   1.417   4.467 -0.1745  0.2277  0.4151
 2111SOL    HW1 8586   2.058   1.418   4.376 -1.2212 -0.8246  0.7210
 2111SOL    HW2 8587   2.109   1.508   4.486 -0.7843  0.6032 -0.6200
 2112SOL     OW 8588   9.559   8.853   5.796 -0.1516  0.5344 -0.0970
 2112SOL    HW1 8589   9.528   8.816   5.879 -2.2389  0.6536 -0.7764
 2112SOL    HW2 8590   9.652   8.829   5.793 -0.2472 -0.2799  1.8241
 2113SOL     OW 8591   3.215   2.786   6.664 -0.5519  0.1122 -0.0568
 2113SOL    HW1 8592   3.283   2.825   6.719 -2.1102  2.4485  0.3760
 2113SOL    HW2 8593   3.155   2.745   6.726 -1.5796  1.5440 -0.0537
 2114SOL     OW 8594   6.860   7.612   2.528  0.0080  0.6398 -0.1894
 2114SOL    HW1 8595   6.885   7.614   2.621 -1.7515  0.4741  0.3116
 2114SOL    HW2 8596   6.786   7.672   2.522 -0.3518  0.1045 -1.3573
 2115SOL     OW 8597   6.825   0.897   4.868 -0.3666  0.7362  0.5986
 2115SOL    HW1 8598   6.732   0.904   4.849 -0.2313 -0.4762 -0.6726
 2115SOL    HW2 8599   6.864   0.972   4.824 -0.6211  0.5704  0.0765
 2116SOL     OW 8600   1.029   7.459   3.937  0.2355  0.1793 -0.3296
 2116SOL    HW1 8601   1.009   7.410   3.857  0.8214 -1.4511  0.4673
 2116SOL    HW2 8602   0.998   7.548   3.919 -1.8128 -0.6945 -1.4762
 2117SOL     OW 8603   5.132  10.308   6.936  0.0941  0.2781 -0.1241
 2117SOL    HW1 8604   5.109  10.331   7.026 -1.9590 -0.8122 -0.3244
 2117SOL    HW2 8605   5.183  10.227   6.944 -0.7706 -0.2598  0.0321
 2118SOL     OW 8606   4.285   6.714   6.216  0.0052  0.2032 -0.0610
 2118SOL    HW1 8607   4.318   6.686   6.301 -1.1018  1.2253  0.7575
 2118SOL    HW2 8608   4.345   6.784   6.189  0.3690 -0.1340 -0.1280
 2119SOL     OW 8609   1.908   8.727   4.037  0.2743  0.3344 -0.2056
 2119SOL    HW1 8610   1.860   8.759   4.113  0.1676 -2.2789  0.9229
 2119SOL    HW2 8611   1.973   8.667   4.073  1.4882  0.4405 -2.0566
 2120SOL     OW 8612   6.817   1.456   5.830 -0.2007 -0.0024  0.9287
 2120SOL    HW1 8613   6.805   1.403   5.751  1.8468 -0.9626  1.1987
 2120SOL    HW2 8614   6.887   1.517   5.807 -0.1125  0.2106  1.7505
 2121SOL     OW 8615   6.693   0.702   8.015 -0.8378 -0.4707  0.4101
 2121SOL    HW1 8616   6.683   0.685   8.109 -1.4528  0.7329  0.5711
 2121SOL    HW2 8617   6.767   0.647   7.989 -2.0138 -2.5213  1.1327
 2122SOL     OW 8618  10.132   2.311   6.360  0.3443 -0.5207  0.0426
 2122SOL    HW1 8619  10.048   2.289   6.401 -1.5310  0.8813 -2.7708
 2122SOL    HW2 8620  10.139   2.252   6.286  0.0462  1.6379 -1.8076
 2123SOL     OW 8621   6.351   1.712   7.079 -0.4250 -0.1407 -0.3529
 2123SOL    HW1 8622   6.374   1.659   7.155  1.4038  0.0406 -0.7355
 2123SOL    HW2 8623   6.284   1.662   7.033 -0.3331 -1.0512  0.4879
 2124SOL     OW 8624   3.626   9.115   6.467  0.3424  0.5654  0.0494
 2124SOL    HW1 8625   3.675   9.091   6.389 -1.6983  0.3072 -1.2339
 2124SOL    HW2 8626   3.672   9.073   6.539  0.8204 -1.3619 -1.3175
 2125SOL     OW 8627   8.061   9.690   7.500  0.8548  0.3352  0.5682
 2125SOL    HW1 8628   8.135   9.630   7.496  1.9658  1.5529  1.8298
 2125SOL    HW2 8629   8.061   9.723   7.590 -0.4321  1.3474  0.2356
 2126SOL     OW 8630   4.715   8.950   0.173 -0.1308 -0.5831 -0.2899
 2126SOL    HW1 8631   4.658   8.974   0.100 -2.0758  1.9046  1.8280
 2126SOL    HW2 8632   4.785   9.016   0.172 -1.4402  0.9322  1.3056
 2127SOL     OW 8633   0.501   0.083  10.057 -0.5033  0.0115 -0.1642
 2127SOL    HW1 8634   0.450   0.006  10.084  0.0264 -0.0963  0.5607
 2127SOL    HW2 8635   0.591   0.050  10.049 -0.5180  0.2217 -1.3376
 2128SOL     OW 8636   7.346   9.982   8.974 -0.4501  0.0601 -0.0176
 2128SOL    HW1 8637   7.326  10.058   9.030 -1.1731 -0.8127  0.9428
 2128SOL    HW2 8638   7.332  10.014   8.885 -0.4140  1.1555  0.3563
 2129SOL     OW 8639   5.021   5.740   7.059  0.1519  0.2089 -0.1023
 2129SOL    HW1 8640   4.958   5.744   6.987 -0.1289  0.8311  0.1694
 2129SOL    HW2 8641   4.978   5.786   7.131  0.8177  0.4229  0.1660
 2130SOL     OW 8642   0.800   1.248   8.674  0.0103  0.0874 -0.1358
 2130SOL    HW1 8643   0.781   1.157   8.693  1.1661 -0.5223 -1.6925
 2130SOL    HW2 8644   0.776   1.295   8.754 -1.4271 -1.4425  0.3910
 2131SOL     OW 8645   8.790   2.581  10.653  0.4907 -0.5146 -0.0860
 2131SOL    HW1 8646   8.702   2.595  10.690  0.8181  1.5078  0.0263
 2131SOL    HW2 8647   8.778   2.592  10.559  0.4703 -1.1544 -0.1613
 2132SOL     OW 8648   1.905   3.937   0.735 -0.3098 -0.0544 -0.0924
 2132SOL    HW1 8649   1.951   3.940   0.652  1.5242  0.4637  0.8754
 2132SOL    HW2 8650   1.862   4.022   0.743  0.0710  0.1510 -0.2224
 2133SOL     OW 8651   5.177   3.457   7.640  0.1518 -0.1412  0.1520
 2133SOL    HW1 8652   5.268   3.443   7.612  0.5471  1.2804  0.6896
 2133SOL    HW2 8653   5.183   3.485   7.731 -0.7493  1.0179 -0.1241
 2134SOL     OW 8654   8.259   7.227   0.330  0.2658  0.5881 -0.0753
 2134SOL    HW1 8655   8.305   7.164   0.274 -0.5786 -2.0136  1.9462
 2134SOL    HW2 8656   8.168   7.221   0.303 -0.2901 -1.3099  1.9538
 2135SOL     OW 8657   4.215   8.112   9.541  0.3918 -0.2948  0.0550
 2135SOL    HW1 8658   4.281   8.135   9.475  0.0437 -0.5731 -0.3931
 2135SOL    HW2 8659   4.132   8.140   9.503  0.3466  1.0395  1.0755
 2136SOL     OW 8660  10.083   8.971  10.195 -0.1584 -0.8328 -0.2467
 2136SOL    HW1 8661  10.170   8.983  10.157  0.3136  2.5329  1.5305
 2136SOL    HW2 8662  10.035   9.050  10.170 -1.8187 -1.4083  0.9933
 2137SOL     OW 8663   4.027   7.459   4.116 -0.1232 -0.7053 -0.0611
 2137SOL    HW1 8664   3.950   7.410   4.088 -1.9191  0.4753  2.4442
 2137SOL    HW2 8665   4.101   7.406   4.086 -1.8600 -2.0049 -2.3565
 2138SOL     OW 8666   3.778   8.776   1.480  0.0826  0.0900  0.2854
 2138SOL    HW1 8667   3.705   8.714   1.481 -2.1169  2.4044 -1.3852
 2138SOL    HW2 8668   3.779   8.813   1.568  0.7608 -1.4947  0.9873
 2139SOL     OW 8669   0.405   8.412   8.068 -0.1072 -0.5256  0.0693
 2139SOL    HW1 8670   0.434   8.486   8.121 -1.5145  0.3979 -0.3783
 2139SOL    HW2 8671   0.383   8.343   8.132 -0.7725  0.1956  0.6398
 2140SOL     OW 8672   8.449   8.583   7.279 -0.2829  0.4003 -0.0591
 2140SOL    HW1 8673   8.465   8.569   7.373  2.3734  2.9313  0.0222
 2140SOL    HW2 8674   8.522   8.538   7.236 -1.8680 -1.3580 -1.0648
 2141SOL     OW 8675   7.488   8.032   3.256  0.9799 -0.0113 -0.5142
 2141SOL    HW1 8676   7.575   8.025   3.218  1.2833  2.0616 -0.3568
 2141SOL    HW2 8677   7.503   8.050   3.349  0.3721 -0.1266 -0.3867
 2142SOL     OW 8678   9.627   0.728   1.232  0.7825  0.0551 -0.4181
 2142SOL    HW1 8679   9.685   0.697   1.163  1.2260  2.3329 -1.1415
 2142SOL    HW2 8680   9.686   0.758   1.301  0.3628 -0.5993  0.2496
 2143SOL     OW 8681   2.670   5.384   1.587 -0.3872  0.2651 -0.0261
 2143SOL    HW1 8682   2.736   5.334   1.634 -1.1207 -0.7124  0.0134
 2143SOL    HW2 8683   2.595   5.324   1.580 -1.3375  1.3970  0.0954
 2144SOL     OW 8684   8.104   0.064   0.781 -0.3334 -0.3535 -0.2701
 2144SOL    HW1 8685   8.019   0.022   0.792  0.2907 -2.1682 -1.8531
 2144SOL    HW2 8686   8.155   0.036   0.857 -1.2188  1.1278  0.9411
 2145SOL     OW 8687   4.804   3.758   4.731  0.1197 -0.3706 -0.1832
 2145SOL    HW1 8688   4.783   3.801   4.648 -0.4093  0.0032  0.1403
 2145SOL    HW2 8689   4.736   3.691   4.741 -0.7169  0.5945  0.6860
 2146SOL     OW 8690   9.294   8.869   2.775  0.8679  0.6601 -0.3927
 2146SOL    HW1 8691   9.206   8.869   2.737  0.4827  0.4357  0.4825
 2146SOL    HW2 8692   9.284   8.915   2.858  1.8426  1.7560 -0.8510
 2147SOL     OW 8693   0.930   8.843   8.650  0.0052  0.3239 -0.5860
 2147SOL    HW1 8694   0.977   8.767   8.616  1.2694  1.0938 -0.6312
 2147SOL    HW2 8695   0.850   8.847   8.598  0.4119 -0.3649 -1.2893
 2148SOL     OW 8696   6.721   4.658   7.772 -0.4553 -0.2534  0.5046
 2148SOL    HW1 8697   6.767   4.581   7.738 -1.0373 -0.1886 -0.4602
 2148SOL    HW2 8698   6.726   4.649   7.867 -0.4618 -1.4511  0.4030
 2149SOL     OW 8699   5.085   1.377   3.707  0.0337 -0.7229  0.1635
 2149SOL    HW1 8700   5.038   1.446   3.754 -0.2609  1.1824 -2.6474
 2149SOL    HW2 8701   5.152   1.424   3.657 -0.1081 -2.4625 -1.8024
 2150SOL     OW 8702   7.033   9.878   7.378 -0.8422 -0.1396 -0.2446
 2150SOL    HW1 8703   7.069   9.944   7.437 -1.2712 -0.5164  0.4504
 2150SOL    HW2 8704   7.073   9.898   7.293 -0.2934  0.4710  0.1439
 2151SOL     OW 8705   7.634   6.535   7.507 -0.1600 -0.3704  0.3156
 2151SOL    HW1 8706   7.654   6.619   7.465  2.9755 -1.4217 -0.6098
 2151SOL    HW2 8707   7.621   6.474   7.434 -1.6250 -0.8788  0.9706
 2152SOL     OW 8708   4.026   7.130   4.203 -0.2876  0.2603 -0.8934
 2152SOL    HW1 8709   4.059   7.046   4.170  3.4346  1.2504 -0.2291
 2152SOL    HW2 8710   3.992   7.175   4.126 -1.1423 -1.3179 -1.4720
 2153SOL     OW 8711   7.876   9.038   6.321  0.4721  0.2345  0.3370
 2153SOL    HW1 8712   7.793   8.991   6.308  1.3932 -1.0267 -1.4860
 2153SOL    HW2 8713   7.900   9.068   6.234  1.3685  1.6193  1.0350
 2154SOL     OW 8714   3.279   4.373   9.232  0.1188 -1.0205  0.8411
 2154SOL    HW1 8715   3.194   4.328   9.238  0.3135 -1.8159 -1.4864
 2154SOL    HW2 8716   3.282   4.428   9.310 -2.6432 -0.7884  0.8948
 2155SOL     OW 8717  10.218  10.072   5.656  0.1732 -0.5047  0.2272
 2155SOL    HW1 8718  10.141  10.025   5.688  0.5681  0.4123  2.8007
 2155SOL    HW2 8719  10.202  10.163   5.681  1.5957 -0.1050 -0.2177
 2156SOL     OW 8720   6.015   3.237   7.525  0.3694 -0.2026  0.0079
 2156SOL    HW1 8721   5.933   3.236   7.477  1.2766 -4.1804 -1.8865
 2156SOL    HW2 8722   6.082   3.245   7.457  1.6361 -0.2810  1.2018
 2157SOL     OW 8723   8.741   2.962   5.930 -0.3021  0.3728  0.1767
 2157SOL    HW1 8724   8.728   2.930   6.019 -2.0203 -1.3280 -0.5757
 2157SOL    HW2 8725   8.708   2.890   5.875  0.6410  1.3937 -1.8186
 2158SOL     OW 8726   2.516   2.411   5.217 -0.4143  0.3528  0.0871
 2158SOL    HW1 8727   2.590   2.353   5.197 -1.1014  0.5690 -3.7596
 2158SOL    HW2 8728   2.442   2.371   5.172 -1.6152  2.5582 -0.0254
 2159SOL     OW 8729   1.629   3.890   6.959 -0.2183  0.0882 -0.5157
 2159SOL    HW1 8730   1.582   3.815   6.994  1.8220 -1.0206 -0.0017
 2159SOL    HW2 8731   1.597   3.899   6.869 -3.4444  1.1990  0.5955
 2160SOL     OW 8732   2.625   3.199   8.061  0.0750  0.2358  0.9056
 2160SOL    HW1 8733   2.640   3.137   7.989  0.7770 -0.1031  1.3330
 2160SOL    HW2 8734   2.688   3.270   8.045 -1.4713  1.4392 -0.2098
 2161SOL     OW 8735   7.575   0.411   2.579 -0.5357 -0.2185  0.3250
 2161SOL    HW1 8736   7.531   0.424   2.495  0.1771 -1.0880 -0.2018
 2161SOL    HW2 8737   7.652   0.468   2.576 -1.8287  1.6912  1.4546
 2162SOL     OW 8738   1.782  10.173   9.137 -0.6701  0.6805 -0.6381
 2162SOL    HW1 8739   1.748  10.155   9.224  0.7644  1.4751  0.1230
 2162SOL    HW2 8740   1.707  10.211   9.090 -1.2968  0.8280  0.4363
 2163SOL     OW 8741   9.291   7.769   9.970 -0.3424 -0.1626  0.3053
 2163SOL    HW1 8742   9.253   7.691   9.929 -0.4196 -0.3009  0.6359
 2163SOL    HW2 8743   9.288   7.836   9.902  0.8452 -0.7816 -0.3742
 2164SOL     OW 8744   2.787   8.376   0.555 -0.1431  0.8658 -0.1902
 2164SOL    HW1 8745   2.825   8.399   0.639 -1.2026 -0.6735  0.7471
 2164SOL    HW2 8746   2.849   8.315   0.516  0.1579  1.2732 -0.3495
 2165SOL     OW 8747   1.886   9.219   6.716 -0.1637  0.6408  0.5225
 2165SOL    HW1 8748   1.923   9.307   6.706 -3.0512  1.8087 -1.4253
 2165SOL    HW2 8749   1.841   9.221   6.800  0.5986  0.6720  0.9354
 2166SOL     OW 8750   2.906   3.171   4.794  0.1049 -0.0229  0.5374
 2166SOL    HW1 8751   2.966   3.198   4.725 -1.0811 -1.6770 -1.2668
 2166SOL    HW2 8752   2.956   3.108   4.846  0.5390  0.0998  0.2713
 2167SOL     OW 8753   5.108   7.027   8.237  0.6175  0.1684  0.2781
 2167SOL    HW1 8754   5.156   6.945   8.242  0.3763  0.0803  1.3762
 2167SOL    HW2 8755   5.162   7.084   8.183  0.4795 -0.9091 -1.0472
 2168SOL     OW 8756   3.094   3.886   3.782 -0.0721  0.0346  0.2577
 2168SOL    HW1 8757   3.024   3.891   3.847  1.2875  0.5973  1.7285
 2168SOL    HW2 8758   3.073   3.956   3.720 -0.8919  0.1086  0.6047
 2169SOL     OW 8759  10.503  10.194   8.786  0.2513  0.1320 -0.4143
 2169SOL    HW1 8760  10.451  10.144   8.847  0.2907 -0.7680 -1.0968
 2169SOL    HW2 8761  10.591  10.195   8.824  0.1137  0.2281 -0.0945
 2170SOL     OW 8762   5.750  10.257   3.405 -0.7483 -0.0642  0.4117
 2170SOL    HW1 8763   5.793  10.303   3.333 -0.1788  1.7879  1.8561
 2170SOL    HW2 8764   5.798  10.175   3.413 -0.3047  0.0560 -0.7596
 2171SOL     OW 8765   8.064   8.576   2.069 -0.2857  0.0031  0.1026
 2171SOL    HW1 8766   8.014   8.575   2.150  0.4832 -0.0055  0.5855
 2171SOL    HW2 8767   8.135   8.637   2.085 -0.5207  0.5395 -0.8166
 2172SOL     OW 8768   4.331   9.961   4.996 -0.1163  0.1151 -0.0174
 2172SOL    HW1 8769   4.344   9.867   4.982  0.6815  0.0964  0.7725
 2172SOL    HW2 8770   4.294   9.967   5.084 -0.1752  0.5427 -0.0717
 2173SOL     OW 8771   3.589  10.604   8.402  0.2602  0.3124  0.5871
 2173SOL    HW1 8772   3.530  10.671   8.436 -0.4906 -0.2333  0.3829
 2173SOL    HW2 8773   3.676  10.639   8.417 -0.1193  1.3965  0.3594
 2174SOL     OW 8774   9.579   7.460   5.891 -1.3314 -0.2021  0.3813
 2174SOL    HW1 8775   9.498   7.511   5.895 -1.2825 -0.0930 -0.0144
 2174SOL    HW2 8776   9.605   7.463   5.799 -1.3651 -1.0073  0.3379
 2175SOL     OW 8777   3.193   1.815   7.404 -0.7123 -0.2100 -0.3345
 2175SOL    HW1 8778   3.176   1.721   7.392  0.1850 -0.2880 -1.0919
 2175SOL    HW2 8779   3.257   1.818   7.476  0.9139 -0.3434 -1.7219
 2176SOL     OW 8780   6.609   5.801   8.433  0.2125  0.0956 -0.2239
 2176SOL    HW1 8781   6.551   5.825   8.505  1.4448 -0.0653  0.8641
 2176SOL    HW2 8782   6.601   5.706   8.425  0.3136  0.0752 -0.0826
 2177SOL     OW 8783   8.704   6.704  10.141 -0.0003  0.5898  0.3144
 2177SOL    HW1 8784   8.672   6.709  10.051 -0.7859  0.6463  0.5809
 2177SOL    HW2 8785   8.695   6.611  10.164  0.4032  0.5396  0.2577
 2178SOL     OW 8786   2.682   2.322   8.915  0.3215 -0.0418  0.1053
 2178SOL    HW1 8787   2.632   2.289   8.990  1.6549  1.9180  1.9826
 2178SOL    HW2 8788   2.692   2.246   8.857  0.6157 -2.1027  2.6853
 2179SOL     OW 8789  10.111   7.678   9.798  0.7787  0.2861  0.1761
 2179SOL    HW1 8790  10.017   7.694   9.805  0.4971 -1.1149 -0.0236
 2179SOL    HW2 8791  10.118   7.610   9.730  1.9600  0.6157 -0.0422
 2180SOL     OW 8792   6.656   0.291   8.851 -0.0705  0.0327  0.3991
 2180SOL    HW1 8793   6.733   0.348   8.844  0.3028 -0.3690  1.2093
 2180SOL    HW2 8794   6.588   0.337   8.800  1.0468 -0.2321 -1.4140
 2181SOL     OW 8795   1.584   4.229   8.769  0.1567 -0.0235 -0.2470
 2181SOL    HW1 8796   1.545   4.210   8.854  1.2384  0.7406  0.4461
 2181SOL    HW2 8797   1.644   4.156   8.754  3.9444  2.2246  2.1886
 2182SOL     OW 8798   4.629   5.047   6.210 -0.2546  0.1023 -0.6535
 2182SOL    HW1 8799   4.724   5.055   6.219 -0.1221 -0.8714 -1.1356
 2182SOL    HW2 8800   4.596   5.053   6.299  0.3574 -0.8046 -0.3602
 2183SOL     OW 8801   0.381   2.898   4.681 -0.2703  0.1956 -0.4110
 2183SOL    HW1 8802   0.313   2.910   4.615 -0.3993  1.6523 -0.0396
 2183SOL    HW2 8803   0.336   2.906   4.765  0.1279 -0.2267 -0.1485
 2184SOL     OW 8804   6.855   4.168   8.861 -0.0064 -0.2102 -0.6144
 2184SOL    HW1 8805   6.801   4.193   8.786  0.0744 -2.4083 -1.5154
 2184SOL    HW2 8806   6.798   4.113   8.914 -0.2019  1.7041  1.2414
 2185SOL     OW 8807   3.925   6.710   3.124 -0.1832 -0.2775 -0.0353
 2185SOL    HW1 8808   4.010   6.720   3.080  1.5027 -0.5061  2.9081
 2185SOL    HW2 8809   3.920   6.786   3.182 -0.5651 -1.7507  1.9538
 2186SOL     OW 8810   7.940   4.325  10.173  0.0223 -0.6563  0.3042
 2186SOL    HW1 8811   8.004   4.371  10.119 -1.7179  0.0137 -1.2636
 2186SOL    HW2 8812   7.984   4.315  10.258  1.7750  0.7343 -0.3734
 2187SOL     OW 8813   8.149   8.515   4.061 -0.1525 -0.4304 -0.0109
 2187SOL    HW1 8814   8.209   8.524   3.987 -1.1946 -3.4208 -1.3915
 2187SOL    HW2 8815   8.101   8.434   4.042 -4.5819  1.6779  0.9976
 2188SOL     OW 8816   0.307   5.608   2.428  0.1350 -0.3685 -0.0392
 2188SOL    HW1 8817   0.337   5.529   2.383 -0.0133  0.7332 -2.2043
 2188SOL    HW2 8818   0.382   5.667   2.426  0.2672 -0.4343  1.6328
 2189SOL     OW 8819   1.844   3.412  10.207  0.3758  0.4308 -0.0274
 2189SOL    HW1 8820   1.749   3.401  10.210 -0.0098  2.7564 -1.2809
 2189SOL    HW2 8821   1.859   3.472  10.134  2.7693  0.5973  0.5145
 2190SOL     OW 8822   0.075   2.153   8.249  0.2665  0.1579  0.2297
 2190SOL    HW1 8823   0.104   2.088   8.313 -0.3838 -0.8017 -0.4144
 2190SOL    HW2 8824   0.087   2.110   8.165 -1.9333  0.1072 -0.1328
 2191SOL     OW 8825  10.234   8.013   3.408 -0.3445  0.0796 -0.6649
 2191SOL    HW1 8826  10.172   7.974   3.470  1.7773 -2.0885  0.2528
 2191SOL    HW2 8827  10.232   7.954   3.332  0.1892  0.2611 -0.8254
 2192SOL     OW 8828   9.028   1.758   0.377  0.2500 -0.2375  0.3567
 2192SOL    HW1 8829   8.971   1.716   0.441  1.2425 -0.3821  1.1835
 2192SOL    HW2 8830   9.109   1.776   0.426  0.5478  0.8611 -0.5098
 2193SOL     OW 8831   5.228   7.309   3.335 -0.0645  0.0223 -0.2413
 2193SOL    HW1 8832   5.272   7.310   3.420 -0.6342 -3.1628  0.2347
 2193SOL    HW2 8833   5.135   7.299   3.356 -0.4050  0.8165 -1.2634
 2194SOL     OW 8834   3.720   0.095  10.122  0.5832  0.5900 -0.4289
 2194SOL    HW1 8835   3.644   0.060  10.169  0.4784 -0.9512 -1.6542
 2194SOL    HW2 8836   3.744   0.174  10.171  0.3034 -0.7239  2.0131
 2195SOL     OW 8837   1.931   3.108   5.361 -0.1415  0.1726  0.2121
 2195SOL    HW1 8838   1.922   3.106   5.266  2.0942 -0.9645 -0.0368
 2195SOL    HW2 8839   2.020   3.138   5.376 -0.0927 -0.7017  1.9112
 2196SOL     OW 8840   0.030   2.633   5.333 -0.1458 -0.7151 -0.3405
 2196SOL    HW1 8841   0.038   2.661   5.424  0.5901  0.6256 -0.7812
 2196SOL    HW2 8842   0.108   2.580   5.317  1.6603  1.9382 -1.1035
 2197SOL     OW 8843   6.036   5.150   7.021 -0.8710 -0.5704  0.4773
 2197SOL    HW1 8844   6.079   5.065   7.028 -0.7963 -0.5138  0.7169
 2197SOL    HW2 8845   5.995   5.150   6.934  0.5359 -0.1977 -0.2229
 2198SOL     OW 8846   8.159   2.394   5.678  0.1944 -0.3020 -0.9589
 2198SOL    HW1 8847   8.145   2.461   5.745  0.4422  0.7227 -1.8837
 2198SOL    HW2 8848   8.135   2.312   5.719 -0.4361  0.4063  0.1160
 2199SOL     OW 8849   3.814   9.238   2.732  0.0171 -0.0006  0.1975
 2199SOL    HW1 8850   3.870   9.251   2.809  0.8798 -0.3041 -0.3636
 2199SOL    HW2 8851   3.819   9.321   2.684  0.8958 -0.3812 -0.4141
 2200SOL     OW 8852   3.596   9.794   0.610  0.4626 -0.1234  0.1153
 2200SOL    HW1 8853   3.532   9.862   0.627  1.6920  1.2110 -0.3844
 2200SOL    HW2 8854   3.645   9.785   0.692  0.7352  0.0748 -0.0250
 2201SOL     OW 8855   3.597   3.039   8.642  0.6494 -0.1733  0.0887
 2201SOL    HW1 8856   3.508   3.069   8.624  1.2497  1.2438 -0.6806
 2201SOL    HW2 8857   3.585   2.958   8.692 -1.0807 -1.3169 -2.0233
 2202SOL     OW 8858   2.649   6.104  10.358  0.4223  0.1460  0.4782
 2202SOL    HW1 8859   2.711   6.032  10.353  0.1690 -0.0472  0.0280
 2202SOL    HW2 8860   2.694   6.172  10.408  1.3964  0.4082 -0.7161
 2203SOL     OW 8861   1.743   9.918   2.278 -0.0529 -0.4854  0.7139
 2203SOL    HW1 8862   1.779   9.831   2.258  0.9900 -0.2426  1.4950
 2203SOL    HW2 8863   1.819   9.972   2.299 -0.6365  0.8097 -0.3842
 2204SOL     OW 8864   2.739   7.810   6.349 -0.5367  0.3832  0.9143
 2204SOL    HW1 8865   2.776   7.876   6.290 -3.2350 -0.0041 -1.4380
 2204SOL    HW2 8866   2.665   7.854   6.391 -0.9904 -0.4882  1.0508
 2205SOL     OW 8867   9.412   6.673   5.585  0.1225 -0.0808 -0.0069
 2205SOL    HW1 8868   9.450   6.605   5.641 -2.3143 -2.1352 -0.6786
 2205SOL    HW2 8869   9.355   6.723   5.643 -0.8447 -0.9264 -0.2101
 2206SOL     OW 8870   9.283   1.600   8.431 -0.1572  0.0664 -0.5153
 2206SOL    HW1 8871   9.336   1.521   8.424  0.8546  0.7803 -1.2158
 2206SOL    HW2 8872   9.347   1.672   8.429 -1.1716  0.9827 -2.1133
 2207SOL     OW 8873  10.133   1.061   2.551  0.1613 -0.2533 -0.8702
 2207SOL    HW1 8874  10.173   1.084   2.635 -0.6440  0.4771 -0.6726
 2207SOL    HW2 8875  10.041   1.084   2.561 -0.2779 -1.6904 -1.3999
 2208SOL     OW 8876   0.558   9.810   8.218  0.0919 -0.3243 -0.7746
 2208SOL    HW1 8877   0.479   9.766   8.251  0.0371 -0.0261 -0.5123
 2208SOL    HW2 8878   0.535   9.903   8.218 -0.8355 -0.4260 -3.9455
 2209SOL     OW 8879   6.970   4.469   0.975  0.2039 -0.1092 -0.1997
 2209SOL    HW1 8880   6.905   4.529   0.939 -1.2112 -0.6382  1.3713
 2209SOL    HW2 8881   7.028   4.525   1.026 -2.6308 -0.1504  3.4823
 2210SOL     OW 8882   0.165   8.422   6.872  0.0920  0.3028  0.4611
 2210SOL    HW1 8883   0.075   8.391   6.861  0.8769 -1.7887 -0.6865
 2210SOL    HW2 8884   0.184   8.408   6.965 -0.4157 -0.3630  0.4746
 2211SOL     OW 8885   2.436   2.639   0.986 -0.2408 -0.0208 -0.1021
 2211SOL    HW1 8886   2.449   2.549   0.957 -1.4398  0.0359 -0.8817
 2211SOL    HW2 8887   2.392   2.631   1.071  4.3474 -0.2157  2.5772
 2212SOL     OW 8888   0.109   3.686  10.226  0.0069  0.3931  0.8035
 2212SOL    HW1 8889   0.104   3.682  10.322 -1.6979  0.9566  0.7639
 2212SOL    HW2 8890   0.020   3.708  10.198  0.4302  0.0239 -0.9330
 2213SOL     OW 8891   1.004   5.607   0.989 -0.3843  0.1425 -0.4427
 2213SOL    HW1 8892   0.958   5.528   1.017  0.7013 -0.2729  0.2126
 2213SOL    HW2 8893   1.068   5.576   0.925 -0.6005  0.6386 -0.9142
 2214SOL     OW 8894   8.299   2.528   2.632 -0.2009  0.2274 -0.2202
 2214SOL    HW1 8895   8.222   2.539   2.688 -0.5683 -0.6034 -0.5454
 2214SOL    HW2 8896   8.333   2.442   2.655  0.3558  0.3855 -0.4289
 2215SOL     OW 8897   4.225   3.616   3.478  0.4854  0.2382  0.1089
 2215SOL    HW1 8898   4.295   3.599   3.416  0.1178 -0.6392 -0.0794
 2215SOL    HW2 8899   4.265   3.670   3.546  1.2774 -0.0825 -0.1004
 2216SOL     OW 8900   5.653   5.559   2.773  0.5082 -0.0512  0.0765
 2216SOL    HW1 8901   5.744   5.532   2.764  0.0806 -1.4874 -0.2127
 2216SOL    HW2 8902   5.633   5.606   2.692 -0.3945 -4.1153 -2.3295
 2217SOL     OW 8903   8.757   7.756   6.369  0.1136 -0.2105 -0.4519
 2217SOL    HW1 8904   8.679   7.758   6.424  0.8920 -1.2082  0.7492
 2217SOL    HW2 8905   8.724   7.740   6.281 -1.1251  0.8488 -0.2158
 2218SOL     OW 8906   5.511   6.032   6.436 -0.1213  0.4819  0.5323
 2218SOL    HW1 8907   5.469   6.068   6.515 -0.2156  0.5027  0.4731
 2218SOL    HW2 8908   5.602   6.062   6.442 -0.0458  0.2025  0.8048
 2219SOL     OW 8909   8.248   3.774   9.451 -0.0364 -0.2839 -0.3471
 2219SOL    HW1 8910   8.158   3.801   9.467 -0.2081 -1.1582  0.1770
 2219SOL    HW2 8911   8.242   3.717   9.374 -0.0434 -0.9535  0.1423
 2220SOL     OW 8912   1.264   5.462   2.337 -0.3134 -0.0745 -0.2394
 2220SOL    HW1 8913   1.325   5.390   2.349  1.7065  1.3796 -1.2460
 2220SOL    HW2 8914   1.313   5.528   2.287 -2.4149  1.5498 -0.3149
 2221SOL     OW 8915   8.868   6.833   2.417 -0.5133  0.2776 -0.2728
 2221SOL    HW1 8916   8.942   6.833   2.357 -0.5941  0.7916 -0.3728
 2221SOL    HW2 8917   8.825   6.917   2.403 -0.1433  0.6968  0.9855
 2222SOL     OW 8918   2.486   5.513   7.887  0.6531 -0.1562 -0.2948
 2222SOL    HW1 8919   2.494   5.464   7.805 -0.2767  0.3967 -0.7234
 2222SOL    HW2 8920   2.568   5.563   7.893  1.0432 -0.7710 -0.5065
 2223SOL     OW 8921   1.638   7.983   1.261  0.6920  0.6710 -0.0439
 2223SOL    HW1 8922   1.604   7.916   1.320 -0.0552  0.3723 -0.7947
 2223SOL    HW2 8923   1.729   7.994   1.287 -0.1834  2.3003  2.7889
 2224SOL     OW 8924  10.337   2.436   7.980 -0.0421 -0.1877 -0.1053
 2224SOL    HW1 8925  10.343   2.510   7.919 -0.9407 -0.5843 -0.6966
 2224SOL    HW2 8926  10.247   2.405   7.971  0.0860 -0.8373  0.7521
 2225SOL     OW 8927   3.674   8.391   0.945 -0.3345 -0.2405 -0.1835
 2225SOL    HW1 8928   3.673   8.454   0.873 -1.6169  1.7006  1.4125
 2225SOL    HW2 8929   3.589   8.348   0.940 -0.6925  0.3583  0.4955
 2226SOL     OW 8930   4.651   3.443   5.280  0.3649  0.6129  0.0114
 2226SOL    HW1 8931   4.701   3.430   5.361  0.0168  1.0503  0.3042
 2226SOL    HW2 8932   4.689   3.381   5.218 -0.6452 -1.1599  1.0821
 2227SOL     OW 8933   3.444   3.083   3.986  0.0938 -0.3810 -0.1765
 2227SOL    HW1 8934   3.463   3.152   4.049  0.5594 -1.2886  0.7197
 2227SOL    HW2 8935   3.376   3.030   4.029 -0.0557 -0.6452 -0.7247
 2228SOL     OW 8936   9.756   1.903   4.991 -0.1653 -0.6703  0.2827
 2228SOL    HW1 8937   9.719   1.939   4.910 -0.3990  1.2655  1.1917
 2228SOL    HW2 8938   9.713   1.818   5.001 -0.9301 -0.4742 -1.0620
 2229SOL     OW 8939   2.640   1.194   4.891 -0.6748 -0.1540  0.1105
 2229SOL    HW1 8940   2.728   1.179   4.927 -0.4564 -2.0561 -1.0800
 2229SOL    HW2 8941   2.582   1.143   4.948 -0.3454 -3.0461 -1.9035
 2230SOL     OW 8942   5.892   8.104   2.804  0.2059  0.5200  0.3745
 2230SOL    HW1 8943   5.982   8.084   2.830  0.7047  1.0418 -0.9079
 2230SOL    HW2 8944   5.900   8.159   2.727 -1.2293 -0.1129 -0.2708
 2231SOL     OW 8945   9.883   0.789   2.838 -0.1205 -0.4812  0.1137
 2231SOL    HW1 8946   9.896   0.837   2.920  3.9735  1.4780 -1.3623
 2231SOL    HW2 8947   9.940   0.713   2.845  0.7879  0.0503 -1.0507
 2232SOL     OW 8948   1.748  10.570   6.656  0.4290  0.1734  0.3446
 2232SOL    HW1 8949   1.670  10.560   6.710 -0.7527 -0.3234 -1.3938
 2232SOL    HW2 8950   1.755  10.665   6.641  0.2076  0.2221  0.5431
 2233SOL     OW 8951  10.561   0.813   2.759 -0.1615  0.2985 -0.1783
 2233SOL    HW1 8952  10.590   0.859   2.680  2.3364 -2.3013 -0.9657
 2233SOL    HW2 8953  10.626   0.837   2.825 -0.8266  0.5537  0.3854
 2234SOL     OW 8954   0.126   8.004  10.040 -0.3795 -0.0082  0.6799
 2234SOL    HW1 8955   0.150   7.991   9.948  1.1584 -0.1251  1.0669
 2234SOL    HW2 8956   0.051   8.062  10.037 -0.1194  0.2949 -0.6420
 2235SOL     OW 8957   9.351   5.793   2.260 -0.1495  0.1468  0.0881
 2235SOL    HW1 8958   9.379   5.719   2.207  2.0926  1.6952 -1.0555
 2235SOL    HW2 8959   9.261   5.811   2.231 -0.2820 -1.3473 -0.4871
 2236SOL     OW 8960   5.925   9.716   1.985 -0.2494  0.7159 -0.1516
 2236SOL    HW1 8961   5.981   9.718   2.062  0.3570 -2.7882 -0.3470
 2236SOL    HW2 8962   5.838   9.699   2.019  0.1609 -1.7598 -0.1786
 2237SOL     OW 8963   6.238   3.650   6.179 -0.5631 -0.2351  0.3278
 2237SOL    HW1 8964   6.212   3.600   6.256  0.9766 -0.5544  0.6596
 2237SOL    HW2 8965   6.268   3.585   6.116  0.7748  0.2063  0.4905
 2238SOL     OW 8966   8.410   7.235   7.011 -0.1877 -0.1885  0.0793
 2238SOL    HW1 8967   8.338   7.234   6.949  0.5190  1.0211 -0.8130
 2238SOL    HW2 8968   8.484   7.197   6.963  0.1072 -0.2168  0.5415
 2239SOL     OW 8969   3.471   3.163   9.743  0.7245 -0.3728  0.6922
 2239SOL    HW1 8970   3.388   3.208   9.727 -0.1004 -2.4960 -1.6098
 2239SOL    HW2 8971   3.474   3.153   9.839 -0.9927  0.9032  0.9355
 2240SOL     OW 8972   7.192   3.325   7.009 -0.7326 -0.3977 -0.4442
 2240SOL    HW1 8973   7.265   3.344   7.068 -0.1845 -1.4352 -0.7536
 2240SOL    HW2 8974   7.125   3.287   7.065 -0.4771 -0.7498 -0.3708
 2241SOL     OW 8975   7.383   6.393   8.402 -0.3933  0.1682 -0.0870
 2241SOL    HW1 8976   7.444   6.461   8.374  0.2977  0.8724  2.8461
 2241SOL    HW2 8977   7.414   6.314   8.357  0.9998  1.0512 -0.7528
 2242SOL     OW 8978   6.156   4.886   0.950  0.1391 -0.6890 -0.2177
 2242SOL    HW1 8979   6.208   4.937   0.888 -0.0975 -0.4140 -0.1903
 2242SOL    HW2 8980   6.218   4.822   0.985  0.5448 -0.1560  0.0552
 2243SOL     OW 8981   6.096   3.872   5.364 -0.5674 -0.0183  0.2078
 2243SOL    HW1 8982   6.101   3.965   5.341 -2.4197 -0.1201 -0.8477
 2243SOL    HW2 8983   6.142   3.827   5.292  0.1129  0.0541  0.5910
 2244SOL     OW 8984   4.613  10.028   3.509 -0.0340 -0.4272  0.7036
 2244SOL    HW1 8985   4.598   9.999   3.419  1.2742 -0.2451  0.4104
 2244SOL    HW2 8986   4.554  10.103   3.520  3.0595  2.6878 -1.6451
 2245SOL     OW 8987   5.279   2.107   9.413 -0.5660  0.4185  0.2213
 2245SOL    HW1 8988   5.229   2.109   9.494 -0.1921 -0.0038  0.4638
 2245SOL    HW2 8989   5.347   2.173   9.424  1.1037 -1.3655  1.3201
 2246SOL     OW 8990   5.100  10.453   4.655  0.9902  0.2418  0.4420
 2246SOL    HW1 8991   5.098  10.495   4.569  0.0509  2.0282  1.2721
 2246SOL    HW2 8992   5.014  10.411   4.662  1.9347 -1.9409 -0.3922
 2247SOL     OW 8993   0.368   0.881   1.716 -0.0069 -0.0637 -0.7169
 2247SOL    HW1 8994   0.319   0.921   1.788  0.8532 -0.0312 -0.1300
 2247SOL    HW2 8995   0.301   0.842   1.660 -0.6848 -0.4436  0.3186
 2248SOL     OW 8996   3.023   1.612   9.734  0.2468 -0.0802  0.2288
 2248SOL    HW1 8997   3.050   1.687   9.787 -0.3866 -0.6928  1.4547
 2248SOL    HW2 8998   3.097   1.551   9.740 -0.1361 -0.4728  1.0609
 2249SOL     OW 8999   9.278   4.091   3.561 -0.2532  0.1386 -0.3073
 2249SOL    HW1 9000   9.193   4.103   3.519 -0.0289  1.1341 -0.4857
 2249SOL    HW2 9001   9.326   4.172   3.543  0.1858  0.2061  1.0627
 2250SOL     OW 9002   9.088   9.692   5.514 -0.1764 -0.2778 -0.3330
 2250SOL    HW1 9003   9.149   9.760   5.485  0.3017 -0.2110  0.7575
 2250SOL    HW2 9004   9.012   9.701   5.457 -0.7580  2.1533  0.6732
 2251SOL     OW 9005  10.487   6.935   9.625  0.1563  0.3933 -0.4251
 2251SOL    HW1 9006  10.569   6.903   9.588  0.4135 -2.2009  2.0705
 2251SOL    HW2 9007  10.419   6.893   9.571  0.5051 -0.1361 -0.4645
 2252SOL     OW 9008   0.339   4.299   7.621  0.6965  0.0202 -0.3634
 2252SOL    HW1 9009   0.324   4.281   7.528  1.6961  0.1867 -0.5702
 2252SOL    HW2 9010   0.433   4.282   7.634  0.4127 -0.7998  0.8050
 2253SOL     OW 9011   7.080   2.627  10.619 -0.2100  0.0685  0.5208
 2253SOL    HW1 9012   7.038   2.611  10.703 -1.2225 -1.3653 -0.2218
 2253SOL    HW2 9013   7.024   2.692  10.576 -1.6599 -1.6940 -0.3866
 2254SOL     OW 9014   6.090  10.610   3.984  0.0965  0.0665  0.3080
 2254SOL    HW1 9015   6.097  10.591   3.890 -2.8965  1.7391 -0.3631
 2254SOL    HW2 9016   6.034  10.540   4.018  1.6740 -0.8964  1.0775
 2255SOL     OW 9017   7.080   6.623   9.387  0.1234  0.3971  0.2596
 2255SOL    HW1 9018   7.094   6.560   9.316 -0.6791 -0.4176  0.8206
 2255SOL    HW2 9019   7.141   6.595   9.456 -0.3450  0.1388  0.5693
 2256SOL     OW 9020   2.129  10.597   1.839 -0.0866  0.8732 -0.0447
 2256SOL    HW1 9021   2.084  10.657   1.779 -1.7811 -2.7451 -2.8289
 2256SOL    HW2 9022   2.222  10.608   1.819 -0.2426  3.1210  0.2235
 2257SOL     OW 9023   6.613   5.529   4.515 -0.0504 -0.6449  0.5179
 2257SOL    HW1 9024   6.518   5.521   4.506 -0.1342  1.3948 -0.9530
 2257SOL    HW2 9025   6.644   5.438   4.519 -1.8400 -1.4394 -1.5435
 2258SOL     OW 9026   5.195   0.737   1.359 -0.6178 -0.1576 -0.5748
 2258SOL    HW1 9027   5.218   0.721   1.450 -1.8773  1.3008  0.0522
 2258SOL    HW2 9028   5.103   0.711   1.353 -0.5006 -0.3956 -1.4767
 2259SOL     OW 9029   7.035   5.506   0.380  0.1631  0.3447  0.2146
 2259SOL    HW1 9030   7.056   5.541   0.293 -0.1409 -1.3727 -0.5814
 2259SOL    HW2 9031   7.076   5.420   0.382 -0.8059 -0.1181  1.3455
 2260SOL     OW 9032  10.141   4.908   3.104 -0.9298 -0.1149 -0.3943
 2260SOL    HW1 9033  10.078   4.973   3.072 -1.3158  0.7930  1.9400
 2260SOL    HW2 9034  10.088   4.831   3.122 -1.0415 -0.0044 -0.2437
 2261SOL     OW 9035  10.337   0.457   3.452 -0.2250 -0.3809  0.1762
 2261SOL    HW1 9036  10.266   0.512   3.421 -0.1437 -0.5885 -0.3795
 2261SOL    HW2 9037  10.396   0.517   3.498  0.2350  0.1328 -1.0551
 2262SOL     OW 9038   8.002   7.827   3.409 -0.6029  0.7438  0.0571
 2262SOL    HW1 9039   7.906   7.822   3.410 -0.5986  0.3406 -0.5558
 2262SOL    HW2 9040   8.021   7.913   3.373 -0.7674 -0.0185 -2.0242
 2263SOL     OW 9041   3.617   4.233   7.677 -0.2430  0.1303  0.3784
 2263SOL    HW1 9042   3.622   4.329   7.672 -1.8027  0.2356  0.4570
 2263SOL    HW2 9043   3.708   4.204   7.666  0.1736  1.5877 -0.3108
 2264SOL     OW 9044   8.769   4.584   2.147 -0.0781 -0.3603 -0.0259
 2264SOL    HW1 9045   8.850   4.626   2.176 -1.3028  0.7568  1.9432
 2264SOL    HW2 9046   8.792   4.491   2.141  0.9009 -0.3364  2.3356
 2265SOL     OW 9047   6.733   8.110   1.391 -0.2515 -0.8321 -0.4285
 2265SOL    HW1 9048   6.743   8.072   1.478 -1.0566 -0.5438 -0.2047
 2265SOL    HW2 9049   6.731   8.034   1.332 -2.8884 -1.2842  0.1058
 2266SOL     OW 9050   1.924   9.555   9.733 -0.6376 -0.5165  0.0400
 2266SOL    HW1 9051   1.958   9.603   9.658 -3.9887  0.0225 -1.2589
 2266SOL    HW2 9052   1.992   9.490   9.752  2.2929  2.1214 -0.5857
 2267SOL     OW 9053   3.788   5.299   7.210  0.4890  0.0713 -0.2746
 2267SOL    HW1 9054   3.700   5.282   7.177  0.7625 -0.1775 -0.8959
 2267SOL    HW2 9055   3.837   5.219   7.192  0.5753 -0.1959  1.0395
 2268SOL     OW 9056   2.169   9.563   4.822 -0.0863 -0.1340 -0.4298
 2268SOL    HW1 9057   2.160   9.499   4.892  2.2496  0.1003  0.1445
 2268SOL    HW2 9058   2.183   9.647   4.867  1.7793 -0.0356 -1.1179
 2269SOL     OW 9059   0.544   6.579   0.182  0.0121 -0.2403 -0.0886
 2269SOL    HW1 9060   0.520   6.657   0.232 -2.2518  0.1611 -1.6053
 2269SOL    HW2 9061   0.511   6.597   0.093 -0.0970 -2.6758 -0.6122
 2270SOL     OW 9062   9.092   0.852  10.005  0.2944  0.2295  0.1025
 2270SOL    HW1 9063   9.182   0.846  10.039 -0.4703  1.2902  2.5119
 2270SOL    HW2 9064   9.086   0.940   9.970  0.5926 -0.3368 -1.4489
 2271SOL     OW 9065   5.736   3.973   0.178  0.2226  0.0782  0.0478
 2271SOL    HW1 9066   5.772   3.891   0.210  1.2038  0.7248  0.6546
 2271SOL    HW2 9067   5.770   3.981   0.089  1.3080  0.4991  0.4832
 2272SOL     OW 9068   4.183   7.411   7.001  0.0452  0.3181 -0.4671
 2272SOL    HW1 9069   4.142   7.494   7.027 -0.5165 -0.1095  0.0503
 2272SOL    HW2 9070   4.149   7.394   6.913 -0.1423  0.4435 -0.4192
 2273SOL     OW 9071   7.863   6.636   0.318 -0.4732 -0.0582 -0.2952
 2273SOL    HW1 9072   7.832   6.687   0.393  0.8439  1.0743 -0.4761
 2273SOL    HW2 9073   7.887   6.551   0.355 -2.3747 -0.4747  0.0737
 2274SOL     OW 9074   0.579   6.391   6.768 -0.0511  0.0348 -0.2098
 2274SOL    HW1 9075   0.509   6.422   6.826  0.9306 -1.4295  1.8415
 2274SOL    HW2 9076   0.635   6.468   6.756 -1.6000  1.0588 -1.3798
 2275SOL     OW 9077   9.940  10.608   7.798 -0.2913  0.6040  0.2460
 2275SOL    HW1 9078   9.956  10.514   7.796  0.4203  0.7215 -1.2899
 2275SOL    HW2 9079   9.961  10.637   7.709  0.9194  2.4344  1.0661
 2276SOL     OW 9080   8.865   0.781  10.513  0.3764  0.4689 -0.9109
 2276SOL    HW1 9081   8.838   0.692  10.488  0.1745  0.7135 -1.5905
 2276SOL    HW2 9082   8.789   0.835  10.491  0.8908  0.9581 -1.4943
 2277SOL     OW 9083   4.313   9.195   6.088  0.1268  0.2767  0.4102
 2277SOL    HW1 9084   4.329   9.290   6.088  0.6795  0.2374  2.4474
 2277SOL    HW2 9085   4.225   9.186   6.051  0.2388  1.5373 -0.2262
 2278SOL     OW 9086   3.975   9.956   5.997  0.2075  0.1414  0.1943
 2278SOL    HW1 9087   4.047   9.939   5.936  3.4604  1.5881  3.3076
 2278SOL    HW2 9088   3.934  10.036   5.963  0.4563 -0.3075 -1.2422
 2279SOL     OW 9089   6.098   0.670   8.396  0.3734 -0.3401  0.1366
 2279SOL    HW1 9090   6.129   0.749   8.440  3.1088 -1.5747  0.6393
 2279SOL    HW2 9091   6.114   0.687   8.303 -0.8722  0.3913  0.0288
 2280SOL     OW 9092   7.625   2.666   2.839  0.1269  0.3518 -0.2906
 2280SOL    HW1 9093   7.678   2.647   2.916  0.0671  1.3797  0.0075
 2280SOL    HW2 9094   7.677   2.729   2.789 -0.7012  1.1812 -0.1140
 2281SOL     OW 9095   8.248   1.942   7.373  0.4264  0.0898 -0.0022
 2281SOL    HW1 9096   8.228   1.850   7.353  2.2739  0.1962 -2.9080
 2281SOL    HW2 9097   8.328   1.938   7.425  0.1650  0.0560  0.4028
 2282SOL     OW 9098   7.363   4.979   7.578 -0.1238  0.5684 -0.1334
 2282SOL    HW1 9099   7.337   5.063   7.615 -2.0896 -0.7256  1.6664
 2282SOL    HW2 9100   7.281   4.938   7.551  0.9016 -0.2749 -2.2138
 2283SOL     OW 9101   8.151   3.745   3.975 -0.0716 -0.1984 -0.2261
 2283SOL    HW1 9102   8.063   3.770   4.006 -0.5008 -0.0594 -1.5028
 2283SOL    HW2 9103   8.135   3.693   3.897  0.9653 -1.1564  0.1749
 2284SOL     OW 9104   6.574   0.332   3.090  0.2140 -0.2328  0.5905
 2284SOL    HW1 9105   6.664   0.356   3.110  0.5502  0.6832 -1.7695
 2284SOL    HW2 9106   6.579   0.291   3.003 -1.8849  2.0747 -0.7403
 2285SOL     OW 9107   7.356   0.572   3.186  0.2103  0.1889  0.5004
 2285SOL    HW1 9108   7.354   0.544   3.278  0.4329  1.3246  0.8606
 2285SOL    HW2 9109   7.294   0.644   3.182  0.2466  0.1802 -0.2372
 2286SOL     OW 9110   8.518   7.411   0.756  0.5708  0.0216  0.6944
 2286SOL    HW1 9111   8.455   7.445   0.819  0.2449  0.9828 -0.1185
 2286SOL    HW2 9112   8.478   7.427   0.671  1.5918 -0.0097  0.1911
 2287SOL     OW 9113   7.984   4.783   2.620 -0.2184 -1.0627 -0.4721
 2287SOL    HW1 9114   7.921   4.845   2.583  2.1528  1.0736 -1.2283
 2287SOL    HW2 9115   7.994   4.810   2.712  0.6942 -0.3498 -0.7600
 2288SOL     OW 9116   3.718   0.503   4.078  0.4440  0.3641 -0.1562
 2288SOL    HW1 9117   3.766   0.585   4.067  0.0395  0.7228  0.6436
 2288SOL    HW2 9118   3.669   0.492   3.997  1.2043  0.4392 -0.6281
 2289SOL     OW 9119   8.800   4.457   7.738  0.2544  0.2108 -0.4748
 2289SOL    HW1 9120   8.721   4.412   7.711  0.6651 -0.8123 -0.0331
 2289SOL    HW2 9121   8.849   4.471   7.657  1.4967 -2.8510 -0.4004
 2290SOL     OW 9122   3.434   6.386   2.136 -0.0161 -0.4431 -0.1515
 2290SOL    HW1 9123   3.509   6.438   2.108 -0.0353 -0.5668 -0.4315
 2290SOL    HW2 9124   3.434   6.393   2.232 -0.8257  1.2307 -0.2314
 2291SOL     OW 9125   7.586   2.247   0.515 -0.2480  0.5139 -0.0397
 2291SOL    HW1 9126   7.606   2.278   0.427 -0.9402 -1.2368 -0.8635
 2291SOL    HW2 9127   7.667   2.208   0.546 -0.5921 -0.9319 -0.8624
 2292SOL     OW 9128   9.072   1.784   0.102  0.2360 -0.2088 -0.5659
 2292SOL    HW1 9129   9.076   1.794   0.197  0.4450 -2.0599 -0.3364
 2292SOL    HW2 9130   9.049   1.871   0.070 -2.1136 -0.0107  1.3213
 2293SOL     OW 9131   7.106   7.625   3.315 -0.3402 -0.2761  0.2836
 2293SOL    HW1 9132   7.159   7.704   3.318 -0.2818 -0.3105  0.1766
 2293SOL    HW2 9133   7.130   7.583   3.233 -1.4293  0.3273 -0.3755
 2294SOL     OW 9134   3.197   7.657   4.787  0.0424 -0.1325  0.0440
 2294SOL    HW1 9135   3.115   7.610   4.801 -0.7241  1.2001  0.1397
 2294SOL    HW2 9136   3.223   7.634   4.697 -0.3827 -0.6005  0.0357
 2295SOL     OW 9137   4.835   9.797   8.270 -0.0973 -0.1892  0.4424
 2295SOL    HW1 9138   4.761   9.853   8.247 -0.5977 -0.0711  2.1795
 2295SOL    HW2 9139   4.825   9.781   8.364  1.4244 -1.1614  0.4829
 2296SOL     OW 9140   1.936   8.819   9.915 -0.2247 -0.9473  0.2197
 2296SOL    HW1 9141   1.956   8.760   9.842  1.9650  1.1606 -1.0152
 2296SOL    HW2 9142   1.982   8.781   9.990  0.8318 -1.0438 -0.4608
 2297SOL     OW 9143   0.601   6.521   4.238  0.2520 -0.1277  0.0984
 2297SOL    HW1 9144   0.564   6.609   4.242  1.2099  0.2299  1.8104
 2297SOL    HW2 9145   0.680   6.525   4.291  1.1411 -1.6478 -1.0296
 2298SOL     OW 9146   4.459   3.672   9.854 -0.6556  0.1060 -0.3727
 2298SOL    HW1 9147   4.507   3.753   9.837  0.8724 -0.5565  0.5787
 2298SOL    HW2 9148   4.368   3.700   9.864 -0.5437  1.3706 -2.4182
 2299SOL     OW 9149   5.100   2.792   4.911  0.1626 -0.5180  0.5639
 2299SOL    HW1 9150   5.010   2.776   4.942 -0.0721  0.5716  0.4843
 2299SOL    HW2 9151   5.095   2.877   4.869  0.7186 -1.4723 -1.5315
 2300SOL     OW 9152   5.327   2.290  10.109  0.0426 -0.3629 -0.5217
 2300SOL    HW1 9153   5.243   2.278  10.066  0.8211 -2.4645 -1.5819
 2300SOL    HW2 9154   5.311   2.267  10.200 -0.0985 -3.0254 -1.1458
 2301SOL     OW 9155   8.495   3.384   3.105 -0.4946 -0.0784 -0.2266
 2301SOL    HW1 9156   8.586   3.391   3.133 -0.4722  1.2363 -0.5513
 2301SOL    HW2 9157   8.500   3.362   3.012 -0.4455  1.8271 -0.7130
 2302SOL     OW 9158   3.434   0.169   8.548  0.0079 -0.4395 -0.0349
 2302SOL    HW1 9159   3.394   0.190   8.464 -0.2288  1.3805  0.5008
 2302SOL    HW2 9160   3.473   0.251   8.578  0.8162 -1.2464  1.2561
 2303SOL     OW 9161   3.567   0.910  10.181 -0.1666  0.2143 -0.4783
 2303SOL    HW1 9162   3.641   0.967  10.162  0.5575 -0.9447 -1.2295
 2303SOL    HW2 9163   3.584   0.876  10.269 -0.7398  1.3230  0.0880
 2304SOL     OW 9164   7.053   2.839   8.500 -0.6165  0.1666  0.0941
 2304SOL    HW1 9165   7.013   2.906   8.445 -1.0448 -0.4472 -0.3532
 2304SOL    HW2 9166   6.991   2.825   8.571 -1.5580 -1.2692 -0.9626
 2305SOL     OW 9167   8.511   5.752   8.317  0.2620 -0.2238  0.2185
 2305SOL    HW1 9168   8.462   5.822   8.360  0.5276  0.5040 -0.6425
 2305SOL    HW2 9169   8.444   5.697   8.276  0.1456  1.3342 -1.8293
 2306SOL     OW 9170   4.746   6.069   1.110 -0.0263  0.3804  1.0921
 2306SOL    HW1 9171   4.784   6.070   1.022 -0.2505  2.9383  0.9444
 2306SOL    HW2 9172   4.811   6.113   1.164 -0.6437  0.3860  1.8435
 2307SOL     OW 9173   0.671   1.160   8.306 -0.1338 -0.1914  0.1358
 2307SOL    HW1 9174   0.621   1.153   8.224  0.4638 -0.4660 -0.2109
 2307SOL    HW2 9175   0.761   1.140   8.281  0.3523  1.2920  0.5589
 2308SOL     OW 9176   4.224   3.950   2.589 -0.5078  0.1047  0.2823
 2308SOL    HW1 9177   4.176   3.895   2.651  1.7846 -0.1087  1.9786
 2308SOL    HW2 9178   4.307   3.969   2.632 -0.3415  3.2153 -1.1233
 2309SOL     OW 9179   4.926   3.568   4.350 -0.5884  0.6402  0.0317
 2309SOL    HW1 9180   4.940   3.562   4.444  0.5680 -0.3699 -0.1836
 2309SOL    HW2 9181   4.838   3.535   4.336 -0.7015  0.6350  0.7423
 2310SOL     OW 9182   9.111   4.850   1.778 -0.2368  0.0972 -0.5753
 2310SOL    HW1 9183   9.034   4.903   1.799  0.4333  1.1308 -0.7069
 2310SOL    HW2 9184   9.086   4.761   1.804 -0.1325  0.9629  2.9027
 2311SOL     OW 9185   5.859   4.353   2.797 -0.1798  0.0951  0.4559
 2311SOL    HW1 9186   5.813   4.391   2.872  0.0674  2.0513 -0.3010
 2311SOL    HW2 9187   5.909   4.427   2.760  2.9556 -1.6883  0.7460
 2312SOL     OW 9188   8.223   5.409   8.829  0.5576  0.0163 -0.1685
 2312SOL    HW1 9189   8.295   5.472   8.820 -0.2908  0.9360 -0.7422
 2312SOL    HW2 9190   8.165   5.448   8.895 -0.5901  0.4651 -1.3966
 2313SOL     OW 9191   4.569   0.387   5.531  0.6195  0.3336 -0.1861
 2313SOL    HW1 9192   4.664   0.390   5.524  0.5170  2.9015 -1.8195
 2313SOL    HW2 9193   4.539   0.374   5.441 -0.5523  1.0247  0.0800
 2314SOL     OW 9194   7.374   2.226   4.939  0.1088  0.0375  0.1272
 2314SOL    HW1 9195   7.322   2.259   4.866 -0.7638  0.9505  1.1322
 2314SOL    HW2 9196   7.344   2.136   4.952 -1.8889  0.8006  1.2265
 2315SOL     OW 9197   5.541   4.567   8.142  1.0410  0.4107  0.2654
 2315SOL    HW1 9198   5.564   4.644   8.089  0.9332  0.0639 -0.2972
 2315SOL    HW2 9199   5.575   4.493   8.092  1.4540  0.1080  0.9718
 2316SOL     OW 9200   2.753   3.006   9.168 -0.0164 -0.3890 -0.1804
 2316SOL    HW1 9201   2.700   2.944   9.118  0.8160 -1.7168  0.5231
 2316SOL    HW2 9202   2.786   2.954   9.242 -0.3510  1.2351  1.1609
 2317SOL     OW 9203   5.561   6.794   5.442 -0.7410 -0.4816 -0.5185
 2317SOL    HW1 9204   5.629   6.730   5.464 -1.1524 -1.0815 -0.9352
 2317SOL    HW2 9205   5.594   6.839   5.364  0.5723  1.4235  1.0572
 2318SOL     OW 9206  10.412   2.176   0.715  0.3269  0.3488 -0.0281
 2318SOL    HW1 9207  10.416   2.087   0.750 -0.3017 -0.3178 -1.5507
 2318SOL    HW2 9208  10.500   2.211   0.730  1.5586 -1.6150 -2.0384
 2319SOL     OW 9209   9.501   3.332   0.407 -0.4496  0.5868  0.2226
 2319SOL    HW1 9210   9.488   3.244   0.371 -0.0492  0.2928  0.7755
 2319SOL    HW2 9211   9.512   3.388   0.330  2.3258 -0.3163 -0.1638
 2320SOL     OW 9212   7.968   2.675   8.587 -0.3336 -0.4823 -0.2950
 2320SOL    HW1 9213   8.015   2.739   8.534 -1.7639  1.7792  0.9963
 2320SOL    HW2 9214   8.030   2.651   8.656 -0.4703  1.3282  0.5286
 2321SOL     OW 9215   7.788   1.393  10.151  0.7988  0.0109 -0.0939
 2321SOL    HW1 9216   7.722   1.459  10.131  0.0640  0.0599  2.2710
 2321SOL    HW2 9217   7.741   1.310  10.150  0.7361  0.0112  1.2792
 2322SOL     OW 9218   3.536   5.989   1.020  0.3408 -0.0619 -0.0650
 2322SOL    HW1 9219   3.452   6.035   1.017  0.2564 -0.0410  1.4702
 2322SOL    HW2 9220   3.601   6.059   1.013  0.2208  0.0356 -0.2155
 2323SOL     OW 9221   0.314   7.922   1.219 -0.2942  0.0290 -0.2342
 2323SOL    HW1 9222   0.406   7.907   1.197 -0.2363  1.5144 -1.1581
 2323SOL    HW2 9223   0.270   7.931   1.134 -1.2671 -0.5375  0.2017
 2324SOL     OW 9224   6.578   9.601   5.797  0.0877  0.0490 -0.6827
 2324SOL    HW1 9225   6.665   9.614   5.835 -1.2102  0.0508  2.6221
 2324SOL    HW2 9226   6.544   9.690   5.786 -1.0293  0.1369  2.3124
 2325SOL     OW 9227   7.487   0.669   4.383 -0.1939 -0.4572  0.7030
 2325SOL    HW1 9228   7.465   0.604   4.316 -1.1483  0.8239 -0.2809
 2325SOL    HW2 9229   7.548   0.624   4.441  1.0440 -1.4884 -1.2871
 2326SOL     OW 9230   7.832   0.009   0.903 -0.2195 -0.0221 -0.1322
 2326SOL    HW1 9231   7.803   0.076   0.841 -0.9994 -0.9643 -0.8311
 2326SOL    HW2 9232   7.813  -0.074   0.859  1.3747 -0.7109  0.4110
 2327SOL     OW 9233   6.486   8.961   9.524 -0.0042 -0.6851 -0.0457
 2327SOL    HW1 9234   6.545   9.032   9.547 -1.2330  0.6766 -0.9024
 2327SOL    HW2 9235   6.518   8.885   9.573  2.9704 -0.2781 -1.1454
 2328SOL     OW 9236   0.771   0.550   5.127  0.1722 -0.2422 -0.1872
 2328SOL    HW1 9237   0.706   0.566   5.196 -0.0116  0.7282 -0.5619
 2328SOL    HW2 9238   0.855   0.555   5.171  0.0089 -1.0416  0.2209
 2329SOL     OW 9239   9.508   3.808   7.756 -0.6329 -0.2516 -0.7124
 2329SOL    HW1 9240   9.514   3.882   7.816  1.4386 -1.9570  1.3862
 2329SOL    HW2 9241   9.415   3.801   7.735 -1.0507  2.0686  0.1082
 2330SOL     OW 9242   0.493   3.653   8.459 -0.4305 -0.0517 -0.0103
 2330SOL    HW1 9243   0.549   3.623   8.531 -0.6107  0.7335  0.4708
 2330SOL    HW2 9244   0.416   3.596   8.464  1.1478 -2.5711 -1.9906
 2331SOL     OW 9245   1.503   9.987   8.369 -0.0370  0.0743  0.1329
 2331SOL    HW1 9246   1.563   9.931   8.319 -0.7189 -1.2721  0.7478
 2331SOL    HW2 9247   1.416   9.953   8.349 -0.5990  1.7518 -0.4447
 2332SOL     OW 9248   1.342   0.285   4.616 -0.1512  0.0289 -0.1718
 2332SOL    HW1 9249   1.357   0.241   4.699  0.4047  1.0804  0.3068
 2332SOL    HW2 9250   1.321   0.375   4.640 -1.6641 -0.0357 -1.1011
 2333SOL     OW 9251   4.138   4.782   0.371  0.5958  0.0690 -0.2689
 2333SOL    HW1 9252   4.157   4.693   0.341 -1.3950 -0.7707  0.7997
 2333SOL    HW2 9253   4.222   4.814   0.406  0.6497 -2.7647  2.6571
 2334SOL     OW 9254   7.524  10.386   9.253  0.6534  0.0341  0.3432
 2334SOL    HW1 9255   7.495  10.304   9.291  0.5654  1.1610  2.8885
 2334SOL    HW2 9256   7.619  10.380   9.251  0.6149 -0.4157 -0.1965
 2335SOL     OW 9257   5.902   1.184   9.230  0.0385  0.2044 -0.6586
 2335SOL    HW1 9258   5.887   1.119   9.297 -0.7950  0.2977 -0.7462
 2335SOL    HW2 9259   5.867   1.266   9.267 -0.0679  0.3352 -1.0387
 2336SOL     OW 9260   6.519   3.592   8.978 -0.0866 -0.5905  0.1198
 2336SOL    HW1 9261   6.599   3.566   9.023 -0.2526  0.3987  1.0456
 2336SOL    HW2 9262   6.529   3.559   8.889  1.3284 -0.5184  0.2339
 2337SOL     OW 9263  10.459   9.270   6.750  0.1490 -0.1564  0.4912
 2337SOL    HW1 9264  10.442   9.276   6.656  1.4341 -0.2184  0.2349
 2337SOL    HW2 9265  10.438   9.357   6.784  1.9377  0.6206 -0.2680
 2338SOL     OW 9266   1.951   8.255   9.654  0.5082  0.3754 -0.0881
 2338SOL    HW1 9267   1.896   8.331   9.636  1.1387  0.8146 -0.2041
 2338SOL    HW2 9268   2.022   8.262   9.590  0.6134 -0.2740 -0.0490
 2339SOL     OW 9269   6.935   7.116   0.936  0.9898 -0.1470 -0.0994
 2339SOL    HW1 9270   6.969   7.027   0.949 -1.1295 -1.3357 -2.1649
 2339SOL    HW2 9271   6.841   7.108   0.945  0.7984  2.2112  0.9266
 2340SOL     OW 9272  10.407   0.693   0.271 -0.2969 -0.6967  0.2227
 2340SOL    HW1 9273  10.451   0.762   0.320  0.4272  0.6123 -2.0937
 2340SOL    HW2 9274  10.478   0.638   0.237 -0.7830 -1.6417  0.7009
 2341SOL     OW 9275   2.611   7.503   3.719 -0.2873 -0.4940  0.8339
 2341SOL    HW1 9276   2.541   7.478   3.659  0.7770 -0.3835 -0.4911
 2341SOL    HW2 9277   2.637   7.590   3.691 -0.2426 -0.1353  1.9280
 2342SOL     OW 9278   3.061   3.172   6.586 -0.2090 -0.1223  0.8121
 2342SOL    HW1 9279   3.023   3.084   6.597 -1.5582  0.3014 -0.1632
 2342SOL    HW2 9280   3.012   3.227   6.648  0.4643  0.0048  1.2434
 2343SOL     OW 9281   7.021   3.310   4.548  0.1683 -0.4472  0.6198
 2343SOL    HW1 9282   7.046   3.339   4.635 -0.1268 -0.9350  0.8735
 2343SOL    HW2 9283   6.929   3.335   4.540  0.5822  0.9633 -0.1457
 2344SOL     OW 9284   0.543   6.934   7.969  0.4637  0.2194  0.2813
 2344SOL    HW1 9285   0.616   6.874   7.957  1.6026  1.4499  0.8444
 2344SOL    HW2 9286   0.556   7.003   7.904 -2.0324 -1.1653 -1.8811
 2345SOL     OW 9287   3.513   8.885   2.151  0.5569 -0.5796  0.6004
 2345SOL    HW1 9288   3.461   8.939   2.091  0.3299 -0.1179  1.2003
 2345SOL    HW2 9289   3.523   8.801   2.105  0.1981 -0.3093  0.0152
 2346SOL     OW 9290   4.479   2.386   9.538 -0.2434 -0.7224  0.0572
 2346SOL    HW1 9291   4.473   2.453   9.606 -1.2221 -0.9902  0.2558
 2346SOL    HW2 9292   4.544   2.420   9.476  0.2261 -0.2026  0.8129
 2347SOL     OW 9293   7.259   9.724   1.043  0.5459 -0.3367 -0.1993
 2347SOL    HW1 9294   7.210   9.723   1.125 -1.0484 -0.2351 -1.1201
 2347SOL    HW2 9295   7.340   9.677   1.064  0.3078 -0.0851  1.4896
 2348SOL     OW 9296   5.734   7.692   7.052 -0.3295  0.1371 -0.6673
 2348SOL    HW1 9297   5.695   7.779   7.052 -2.7647 -0.8621  0.7811
 2348SOL    HW2 9298   5.666   7.635   7.017  1.4578 -1.1707 -2.2720
 2349SOL     OW 9299   9.014   6.950   8.275  0.0667 -0.1863  0.2423
 2349SOL    HW1 9300   8.942   6.959   8.212  0.6676 -1.1186 -0.6164
 2349SOL    HW2 9301   9.053   6.865   8.254  0.3806 -0.4499  1.7987
 2350SOL     OW 9302   9.826   3.491   8.250  0.0626 -0.5523  0.2387
 2350SOL    HW1 9303   9.761   3.543   8.296 -0.7679 -0.1405 -1.3377
 2350SOL    HW2 9304   9.906   3.500   8.303 -0.4975  0.9828  0.8737
 2351SOL     OW 9305   0.576   5.162   6.620 -0.3686  0.2345 -0.3633
 2351SOL    HW1 9306   0.625   5.191   6.544 -2.3755  1.4520 -1.2761
 2351SOL    HW2 9307   0.586   5.066   6.619  0.6369  0.3234 -1.4150
 2352SOL     OW 9308   6.420   0.239   5.892  0.4287  0.0331 -0.1895
 2352SOL    HW1 9309   6.405   0.257   5.799  1.5734 -1.8819 -0.8114
 2352SOL    HW2 9310   6.374   0.156   5.907 -1.2299  1.1701  1.4570
 2353SOL     OW 9311   8.996   1.580   8.691 -0.3092  0.0182 -0.2209
 2353SOL    HW1 9312   8.916   1.618   8.656  0.4283  1.4906 -0.3860
 2353SOL    HW2 9313   8.969   1.496   8.728 -1.8901  0.4256 -0.3986
 2354SOL     OW 9314   5.183   7.978   3.149 -0.4505 -0.8294 -0.3999
 2354SOL    HW1 9315   5.231   8.011   3.225 -2.2154  0.7395  0.1179
 2354SOL    HW2 9316   5.251   7.957   3.085  0.9946 -0.6043  0.9889
 2355SOL     OW 9317   5.918   2.495   8.186  0.1616 -0.4632 -0.0662
 2355SOL    HW1 9318   5.928   2.410   8.229  0.3420  1.2249  3.6490
 2355SOL    HW2 9319   5.971   2.489   8.107 -1.0210 -4.2184 -0.7521
 2356SOL     OW 9320   3.209   2.776   7.851 -0.3192 -0.4830 -0.3839
 2356SOL    HW1 9321   3.217   2.851   7.910 -0.0359  0.6684 -1.8289
 2356SOL    HW2 9322   3.131   2.795   7.799  1.4266  0.3970 -2.8483
 2357SOL     OW 9323   9.471  10.122   8.462 -0.3142  0.3639  0.2588
 2357SOL    HW1 9324   9.409  10.191   8.437  0.6376  0.7863 -1.0137
 2357SOL    HW2 9325   9.432  10.041   8.428 -0.1858  0.6339 -0.5680
 2358SOL     OW 9326   1.449   9.733   2.315 -0.0038  0.0382 -0.6228
 2358SOL    HW1 9327   1.432   9.688   2.398 -0.0445  1.4880  0.1879
 2358SOL    HW2 9328   1.537   9.769   2.325  0.6533 -1.1275 -1.8696
 2359SOL     OW 9329   0.532   8.940   8.052  0.0088 -0.7423 -0.3413
 2359SOL    HW1 9330   0.544   8.904   7.964 -1.0587 -1.6797 -0.1268
 2359SOL    HW2 9331   0.584   9.020   8.053 -0.1591 -0.5849 -1.9113
 2360SOL     OW 9332   5.161   4.528   1.498 -0.1632 -0.1110  0.0993
 2360SOL    HW1 9333   5.244   4.569   1.472 -0.4848 -0.0947 -0.9722
 2360SOL    HW2 9334   5.176   4.498   1.587  0.5816  0.9948  0.3722
 2361SOL     OW 9335   4.170   5.833   6.703 -0.1729  0.2083  0.3022
 2361SOL    HW1 9336   4.142   5.760   6.759  0.5913  0.3053  0.8224
 2361SOL    HW2 9337   4.173   5.908   6.762 -0.5149  0.5714 -0.1371
 2362SOL     OW 9338   7.261  10.239  10.272 -0.6605 -0.5635 -0.5519
 2362SOL    HW1 9339   7.274  10.222  10.365  0.9262 -2.0559 -0.9986
 2362SOL    HW2 9340   7.300  10.325  10.257 -0.2769 -0.6357  0.0198
 2363SOL     OW 9341   1.886   3.655   2.504  0.5242 -0.1218  0.3913
 2363SOL    HW1 9342   1.853   3.566   2.514  0.6742 -0.1012  1.1348
 2363SOL    HW2 9343   1.816   3.702   2.457  0.3177 -0.5487  0.2704
 2364SOL     OW 9344   0.768   2.122   3.457 -0.1405  0.4961  0.7730
 2364SOL    HW1 9345   0.832   2.103   3.388 -1.0448 -1.4078  0.3790
 2364SOL    HW2 9346   0.770   2.217   3.466  2.5560  0.5283  0.6409
 2365SOL     OW 9347   2.470   6.594   0.827 -0.2459  0.3180 -0.5419
 2365SOL    HW1 9348   2.532   6.601   0.754 -0.4800  1.5461 -0.6457
 2365SOL    HW2 9349   2.447   6.501   0.830  0.4422  0.1005 -1.4704
 2366SOL     OW 9350   8.687  10.111   1.728 -0.7836 -0.0242 -0.4744
 2366SOL    HW1 9351   8.749  10.175   1.762 -0.0757 -0.4286 -0.9875
 2366SOL    HW2 9352   8.719  10.090   1.640 -0.5858 -1.6072 -0.0504
 2367SOL     OW 9353   2.549  10.458   5.083 -0.3599 -0.2741 -0.2384
 2367SOL    HW1 9354   2.463  10.441   5.122 -0.9814  1.0583 -0.9433
 2367SOL    HW2 9355   2.612  10.437   5.153 -1.4116  1.8695  1.4928
 2368SOL     OW 9356   9.661   9.875   6.039 -0.5350  0.4328  0.8197
 2368SOL    HW1 9357   9.682   9.864   5.946 -0.4272 -1.3872  1.0190
 2368SOL    HW2 9358   9.698   9.961   6.062  2.4469 -0.4932 -0.0346
 2369SOL     OW 9359   8.337   4.546   1.742  0.1705  0.2272 -0.5645
 2369SOL    HW1 9360   8.430   4.567   1.753  0.4441 -1.3543  0.4643
 2369SOL    HW2 9361   8.337   4.452   1.719 -1.1278  0.4693 -1.6733
 2370SOL     OW 9362   0.620   8.246   4.098 -0.0227  0.5621  0.3098
 2370SOL    HW1 9363   0.659   8.333   4.107 -0.3299  0.5887  1.6503
 2370SOL    HW2 9364   0.695   8.186   4.094  0.1906  0.8884 -0.7570
 2371SOL     OW 9365   6.781   0.172   9.655  0.1274  0.2881 -0.0512
 2371SOL    HW1 9366   6.708   0.206   9.603  0.7363 -0.2756 -1.3258
 2371SOL    HW2 9367   6.740   0.140   9.736 -1.1839 -0.7421 -1.0552
 2372SOL     OW 9368   2.942   6.412   4.535  0.3957 -0.1578  0.0537
 2372SOL    HW1 9369   2.886   6.340   4.563  0.8102  0.6731  3.4474
 2372SOL    HW2 9370   2.882   6.483   4.514  0.0603  0.0464  1.5877
 2373SOL     OW 9371   4.209   4.025   5.599 -0.3154 -0.1807  0.5204
 2373SOL    HW1 9372   4.149   4.092   5.632 -1.7755 -1.5349  0.7008
 2373SOL    HW2 9373   4.159   3.944   5.603  1.6304 -1.4219  0.9433
 2374SOL     OW 9374   6.730   3.783   4.818 -0.4577  0.0892 -0.0883
 2374SOL    HW1 9375   6.668   3.747   4.882 -2.0803  1.0936 -1.0095
 2374SOL    HW2 9376   6.816   3.767   4.856 -1.2812 -1.1704  1.3650
 2375SOL     OW 9377   7.993   9.210   6.509 -0.3429  0.1500 -0.4347
 2375SOL    HW1 9378   7.955   9.155   6.440 -0.5747 -0.6395  0.3110
 2375SOL    HW2 9379   8.002   9.296   6.468 -2.3126  0.2124 -0.8654
 2376SOL     OW 9380   7.619   0.229   1.723  0.2806  0.5599 -0.5713
 2376SOL    HW1 9381   7.651   0.270   1.643  1.3142 -0.2798 -0.6126
 2376SOL    HW2 9382   7.696   0.189   1.762 -0.2176  0.8774  0.8157
 2377SOL     OW 9383   0.056   8.723   1.081 -0.0195 -0.1144 -0.4819
 2377SOL    HW1 9384   0.026   8.745   0.993  0.0927 -1.4453 -0.8577
 2377SOL    HW2 9385  -0.021   8.740   1.136 -0.9940 -1.9039 -1.2162
 2378SOL     OW 9386   8.937   8.453   1.099  0.4140  0.2273 -0.6799
 2378SOL    HW1 9387   8.904   8.425   1.184 -0.8565  2.2655 -0.4359
 2378SOL    HW2 9388   9.029   8.476   1.116  1.1534 -2.3853 -0.6433
 2379SOL     OW 9389  10.368   6.627   1.509  0.0874 -0.5402  0.3751
 2379SOL    HW1 9390  10.406   6.587   1.588 -0.3874  1.3663  1.6424
 2379SOL    HW2 9391  10.282   6.587   1.501  0.5482 -1.5196  0.1933
 2380SOL     OW 9392   6.547   1.423   5.995 -0.2551 -0.0046  0.4126
 2380SOL    HW1 9393   6.629   1.460   5.961 -1.3767  1.2933 -1.0681
 2380SOL    HW2 9394   6.510   1.494   6.048 -1.1853  0.0623 -0.2995
 2381SOL     OW 9395  10.441   0.648   5.677  0.4313 -0.0716 -0.0637
 2381SOL    HW1 9396  10.463   0.616   5.764  0.8787  0.9009  0.1969
 2381SOL    HW2 9397  10.371   0.591   5.647 -0.7507  0.4827  1.5265
 2382SOL     OW 9398   3.681   7.754   1.518  0.0623 -0.1305  0.5426
 2382SOL    HW1 9399   3.638   7.800   1.445  1.5367  1.1921  0.4498
 2382SOL    HW2 9400   3.625   7.679   1.535 -0.4177 -0.4016 -1.8552
 2383SOL     OW 9401   1.074   9.361   0.561  0.0657  0.0008 -0.4765
 2383SOL    HW1 9402   0.988   9.403   0.564  0.3967  0.6567  0.9792
 2383SOL    HW2 9403   1.088   9.339   0.469 -1.0024  1.2378 -0.9583
 2384SOL     OW 9404   0.350  10.355   9.814 -0.9495 -0.5447  0.3894
 2384SOL    HW1 9405   0.300  10.436   9.813 -0.6828 -0.3441  1.8756
 2384SOL    HW2 9406   0.294  10.292   9.769 -1.2875  0.3686 -0.5066
 2385SOL     OW 9407  10.380   0.400   6.768  0.5172 -0.4022 -0.1718
 2385SOL    HW1 9408  10.460   0.411   6.716 -0.1754 -0.0216 -1.1885
 2385SOL    HW2 9409  10.393   0.456   6.844  1.5201 -0.9080  0.0491
 2386SOL     OW 9410   6.815   0.628   7.633 -0.6340  0.1427  0.2031
 2386SOL    HW1 9411   6.759   0.554   7.607  0.1413 -0.0219 -1.1200
 2386SOL    HW2 9412   6.756   0.703   7.634 -0.8022  0.0982 -1.8518
 2387SOL     OW 9413   2.935   7.190   7.258 -0.2160 -0.0686 -0.3650
 2387SOL    HW1 9414   2.898   7.116   7.210  0.2400 -0.7183  0.2642
 2387SOL    HW2 9415   3.014   7.155   7.298  0.3691  0.9534 -0.6143
 2388SOL     OW 9416   6.898   1.012   1.693 -0.2693  0.3953  0.4571
 2388SOL    HW1 9417   6.938   0.954   1.629  0.7977  0.4409  1.0737
 2388SOL    HW2 9418   6.947   1.094   1.686 -1.6775  1.2286 -0.3282
 2389SOL     OW 9419  10.573   1.496   0.446  0.1813  0.8633 -0.0932
 2389SOL    HW1 9420  10.570   1.591   0.438 -1.3681  1.0317  1.7973
 2389SOL    HW2 9421  10.484   1.467   0.423  0.5308 -0.1069 -0.2934
 2390SOL     OW 9422   4.817   4.274   1.798  0.1749  0.3600  0.0696
 2390SOL    HW1 9423   4.766   4.207   1.754 -0.0818  1.0838 -0.7650
 2390SOL    HW2 9424   4.869   4.227   1.863 -0.5219 -0.5508 -0.0218
 2391SOL     OW 9425   6.294   4.232  10.553  0.4115 -0.1517 -0.1372
 2391SOL    HW1 9426   6.294   4.325  10.532  0.7224 -0.4370 -1.4540
 2391SOL    HW2 9427   6.250   4.227  10.638  0.6024  1.2132  0.0624
 2392SOL     OW 9428   1.430   5.182   0.389 -0.4585 -0.5536  0.3035
 2392SOL    HW1 9429   1.364   5.134   0.438  0.1605 -2.6783 -0.7960
 2392SOL    HW2 9430   1.433   5.138   0.304 -1.1009  2.6121 -1.5227
 2393SOL     OW 9431   3.789   7.439   0.819 -0.3564  0.1724  0.1522
 2393SOL    HW1 9432   3.822   7.355   0.785  0.3735  0.7967 -0.7313
 2393SOL    HW2 9433   3.868   7.490   0.837 -0.7101  2.0217 -2.8206
 2394SOL     OW 9434   5.614   7.216   7.197 -0.3281 -0.4390  0.6329
 2394SOL    HW1 9435   5.618   7.175   7.283  0.4844  0.2390  0.9300
 2394SOL    HW2 9436   5.640   7.146   7.136  1.8778 -0.1806  1.2090
 2395SOL     OW 9437   5.859   8.776   0.961 -0.5754 -0.2226 -0.0612
 2395SOL    HW1 9438   5.773   8.791   1.001 -0.2180 -2.1296  1.6109
 2395SOL    HW2 9439   5.861   8.681   0.945  1.3284 -0.2829  0.3046
 2396SOL     OW 9440   0.187   7.369   0.233 -0.2175  0.0147  0.1913
 2396SOL    HW1 9441   0.146   7.454   0.246  1.1996  1.1186 -1.9079
 2396SOL    HW2 9442   0.254   7.363   0.302 -0.9480  0.1437  0.9240
 2397SOL     OW 9443   5.771  10.075   2.363 -0.1995 -0.7408 -0.3127
 2397SOL    HW1 9444   5.854  10.121   2.349 -0.8238  0.7679  0.6844
 2397SOL    HW2 9445   5.704  10.138   2.336 -1.0563 -2.0380 -1.3732
 2398SOL     OW 9446   1.702   9.433   3.713 -0.0589  0.1283 -0.0657
 2398SOL    HW1 9447   1.766   9.473   3.655 -0.6075 -0.3222 -1.0044
 2398SOL    HW2 9448   1.698   9.492   3.789  0.2305  1.0333 -0.7420
 2399SOL     OW 9449   4.328   8.014   5.296 -0.3119 -0.2742  0.3306
 2399SOL    HW1 9450   4.403   7.963   5.327  0.4720 -0.6298 -1.9588
 2399SOL    HW2 9451   4.262   7.948   5.274  0.3041 -0.3116 -1.6055
 2400SOL     OW 9452   1.983   7.149   6.542  0.7107 -0.8624  0.2647
 2400SOL    HW1 9453   1.891   7.171   6.560  1.3384  2.0962  0.4518
 2400SOL    HW2 9454   2.030   7.184   6.618  2.3991  2.4051 -2.0179
 2401SOL     OW 9455   8.116   4.469  10.029 -0.2118  0.0533 -0.4041
 2401SOL    HW1 9456   8.053   4.507   9.968 -1.9007  0.3047  1.3967
 2401SOL    HW2 9457   8.186   4.535  10.036 -0.1232  0.1250 -1.8245
 2402SOL     OW 9458  10.333   1.953   6.229 -0.0466  0.0873 -0.0018
 2402SOL    HW1 9459  10.415   1.919   6.266 -0.1828 -1.3755 -0.9763
 2402SOL    HW2 9460  10.339   1.933   6.136 -2.0773 -1.2485  0.1078
 2403SOL     OW 9461   9.995   4.348   3.115  0.1764 -0.3005  0.8030
 2403SOL    HW1 9462   9.914   4.338   3.065 -0.2606  0.6528  1.3174
 2403SOL    HW2 9463  10.048   4.272   3.089 -1.6659 -2.0977  2.0043
 2404SOL     OW 9464   2.689   6.275   2.125  0.1806 -0.1167 -0.1753
 2404SOL    HW1 9465   2.684   6.207   2.059  1.3225  0.6796 -1.1303
 2404SOL    HW2 9466   2.603   6.275   2.167  0.2403 -2.2836  0.0369
 2405SOL     OW 9467   2.531   1.296   4.227  0.3388  0.0653  0.0590
 2405SOL    HW1 9468   2.502   1.258   4.145 -2.2283  2.5016 -0.3177
 2405SOL    HW2 9469   2.611   1.344   4.205  0.4807 -0.5051 -0.6716
 2406SOL     OW 9470   8.962   4.140   0.554 -0.4537 -0.7393 -0.0023
 2406SOL    HW1 9471   8.973   4.234   0.541 -0.6510 -0.4764  1.5264
 2406SOL    HW2 9472   8.883   4.119   0.504 -1.1195  0.1688  0.6182
 2407SOL     OW 9473   9.586   5.034   6.683  0.2345  0.7959  0.1619
 2407SOL    HW1 9474   9.622   5.033   6.594  1.9384  2.8184  0.7523
 2407SOL    HW2 9475   9.496   5.002   6.673  0.9085 -0.6115 -2.0033
 2408SOL     OW 9476   8.467   5.042   3.028 -0.3203  0.1171  0.8287
 2408SOL    HW1 9477   8.413   5.095   3.087 -2.0387 -1.3310  0.6117
 2408SOL    HW2 9478   8.477   5.096   2.950 -2.2258  0.0952  0.5205
 2409SOL     OW 9479   4.653   7.096   6.290 -0.0474 -0.4715  0.0618
 2409SOL    HW1 9480   4.702   7.140   6.221 -0.8013 -0.4231 -0.4465
 2409SOL    HW2 9481   4.708   7.021   6.314  0.6972  0.0921  0.1377
 2410SOL     OW 9482   0.900   9.009   5.193 -0.9609 -0.4220 -0.4535
 2410SOL    HW1 9483   0.806   9.001   5.180 -0.9982  0.5415 -0.9356
 2410SOL    HW2 9484   0.915   9.104   5.203  0.0632 -0.4460 -1.4290
 2411SOL     OW 9485   7.946   5.894   5.070 -0.0745  0.1897 -0.1642
 2411SOL    HW1 9486   7.953   5.841   5.149 -0.1498  0.7574  0.2347
 2411SOL    HW2 9487   7.925   5.982   5.102  1.6519  0.8490 -0.6757
 2412SOL     OW 9488   6.595   2.226   0.850  0.4673 -0.0317 -0.2053
 2412SOL    HW1 9489   6.677   2.232   0.899  0.3054  1.2227 -0.0338
 2412SOL    HW2 9490   6.533   2.278   0.902 -0.2130 -0.2805 -0.7525
 2413SOL     OW 9491   9.134   5.000   4.858 -0.1904  1.1543 -0.0963
 2413SOL    HW1 9492   9.138   5.017   4.952 -2.8585  0.1924  0.2843
 2413SOL    HW2 9493   9.098   5.080   4.820  0.5080  1.3984 -0.2450
 2414SOL     OW 9494   7.725   2.512   8.676  0.3505  0.4138 -0.2528
 2414SOL    HW1 9495   7.760   2.592   8.636  1.5329 -0.2320 -0.5446
 2414SOL    HW2 9496   7.787   2.444   8.652 -1.4692 -0.9408 -1.3822
 2415SOL     OW 9497   7.144   5.076   4.398  0.1646  0.2691 -0.1888
 2415SOL    HW1 9498   7.127   5.169   4.413  0.9527  0.2664  0.7916
 2415SOL    HW2 9499   7.202   5.049   4.470  1.2502 -0.6020 -1.3287
 2416SOL     OW 9500   4.968   8.086   8.360  0.3113 -0.3387 -0.3846
 2416SOL    HW1 9501   5.063   8.091   8.349  0.3968 -0.2477  0.3412
 2416SOL    HW2 9502   4.952   7.999   8.397  0.3527  0.4599  1.6353
 2417SOL     OW 9503   9.462   9.611   9.281 -0.2350  0.5059  0.1272
 2417SOL    HW1 9504   9.432   9.535   9.231 -0.9189  0.3254  0.7895
 2417SOL    HW2 9505   9.557   9.609   9.273 -0.1294 -1.1777  1.1864
 2418SOL     OW 9506   7.830   5.045   9.039  0.0865  0.5852  0.2029
 2418SOL    HW1 9507   7.794   4.974   8.986 -0.1326  1.7210 -1.2350
 2418SOL    HW2 9508   7.913   5.012   9.072 -0.2038 -0.4812 -0.1202
 2419SOL     OW 9509   2.659   3.742   0.064  0.2615 -0.6382 -0.1488
 2419SOL    HW1 9510   2.643   3.649   0.079 -1.5270 -0.8705 -2.7054
 2419SOL    HW2 9511   2.596   3.787   0.121 -0.2054 -1.1058 -0.2876
 2420SOL     OW 9512   2.479   4.762   9.408 -0.0186 -1.2169  0.0999
 2420SOL    HW1 9513   2.421   4.790   9.479 -0.3791  0.0573 -0.6723
 2420SOL    HW2 9514   2.531   4.691   9.446  2.1678  1.5190  2.7564
 2421SOL     OW 9515   0.874   0.296   3.653  0.4280  0.0243 -0.3569
 2421SOL    HW1 9516   0.815   0.370   3.640 -1.2277 -1.2337 -0.1938
 2421SOL    HW2 9517   0.850   0.233   3.586  0.8350 -0.9767  0.4135
 2422SOL     OW 9518   7.215  10.440   7.309  0.1887  0.5151  0.0953
 2422SOL    HW1 9519   7.162  10.519   7.321  0.1966  0.8291 -1.6616
 2422SOL    HW2 9520   7.296  10.458   7.356 -0.0466  1.3206  0.2019
 2423SOL     OW 9521   2.492   1.368   1.832  0.4266 -0.0372  0.2028
 2423SOL    HW1 9522   2.442   1.339   1.908 -0.7419 -4.1203 -1.8463
 2423SOL    HW2 9523   2.433   1.426   1.784  0.4359  0.9145  1.2832
 2424SOL     OW 9524   9.497   3.260   4.046 -0.3261 -0.3964 -0.9394
 2424SOL    HW1 9525   9.419   3.311   4.071  0.6612 -0.0292  1.7622
 2424SOL    HW2 9526   9.534   3.308   3.972 -1.3009  0.8651 -0.6540
 2425SOL     OW 9527   2.445   5.862   3.379  0.2591 -0.3404 -0.8404
 2425SOL    HW1 9528   2.500   5.930   3.338  0.3463 -0.4644 -0.9292
 2425SOL    HW2 9529   2.355   5.893   3.365  0.3015 -0.1983 -0.8034
 2426SOL     OW 9530  10.632   9.482   4.073  0.0982  0.1227 -0.0122
 2426SOL    HW1 9531  10.631   9.396   4.116 -1.5559  0.6503  1.0912
 2426SOL    HW2 9532  10.547   9.488   4.030  0.2946  1.1008 -0.2847
 2427SOL     OW 9533   0.431   7.316   8.586  0.5713 -0.4552 -0.3633
 2427SOL    HW1 9534   0.343   7.356   8.586  0.8839  0.2584 -0.1526
 2427SOL    HW2 9535   0.473   7.353   8.664  1.1092 -0.6794 -0.5459
 2428SOL     OW 9536   8.555   5.660   9.973 -0.3437 -0.3997 -0.4225
 2428SOL    HW1 9537   8.554   5.583  10.030 -0.3206  0.2115  0.4288
 2428SOL    HW2 9538   8.637   5.654   9.925  0.8885  0.3796  1.4790
 2429SOL     OW 9539   7.697   4.703   6.970 -0.1564 -0.3354  0.6016
 2429SOL    HW1 9540   7.694   4.744   7.056  0.5175  0.0666  0.4370
 2429SOL    HW2 9541   7.762   4.753   6.921  0.5602 -1.4878  0.3369
 2430SOL     OW 9542   0.099   0.598   4.207 -0.3303  0.1473  0.4433
 2430SOL    HW1 9543   0.055   0.663   4.152  2.5470  2.5189  0.7148
 2430SOL    HW2 9544   0.028   0.557   4.256 -2.3307  3.6200  0.7909
 2431SOL     OW 9545   0.472  10.244   0.959  0.1535  0.0803 -0.4594
 2431SOL    HW1 9546   0.407  10.280   1.020 -0.5462 -1.9884  0.1016
 2431SOL    HW2 9547   0.556  10.280   0.989 -0.5896  2.0523 -0.6207
 2432SOL     OW 9548   5.717   8.269   0.591  0.1855 -0.8676 -0.0551
 2432SOL    HW1 9549   5.794   8.221   0.560 -0.5527 -1.2297 -1.4007
 2432SOL    HW2 9550   5.683   8.312   0.512  0.2496  1.0787  0.9171
 2433SOL     OW 9551   8.444   7.201   9.556  0.1681 -0.3889  0.1389
 2433SOL    HW1 9552   8.468   7.144   9.629  0.4115 -0.5079 -0.0344
 2433SOL    HW2 9553   8.514   7.189   9.491 -0.2271 -0.5524 -0.2633
 2434SOL     OW 9554   8.463   8.929   0.612 -0.1212  0.8192  0.4326
 2434SOL    HW1 9555   8.416   8.879   0.679 -0.7476  0.9725  0.1145
 2434SOL    HW2 9556   8.453   8.877   0.532 -0.1520  1.0906  0.2612
 2435SOL     OW 9557   0.504   9.112   7.714  0.1172 -0.1229 -0.0267
 2435SOL    HW1 9558   0.515   9.068   7.629 -1.7114 -2.3880  0.8388
 2435SOL    HW2 9559   0.430   9.171   7.701  0.6243  0.4646 -0.3186
 2436SOL     OW 9560   4.764   4.556   9.800  0.2645  0.1402  0.0825
 2436SOL    HW1 9561   4.847   4.602   9.813 -0.6776  2.2706 -0.8566
 2436SOL    HW2 9562   4.731   4.542   9.888  1.1297  0.2011  0.4311
 2437SOL     OW 9563   5.555   9.243   9.732  0.0011  0.1867  0.2939
 2437SOL    HW1 9564   5.625   9.291   9.776  1.4226 -1.2905 -0.2702
 2437SOL    HW2 9565   5.523   9.304   9.665  1.5540  0.4893 -0.2065
 2438SOL     OW 9566  10.399   3.723   3.838 -0.0879 -0.0214 -0.3016
 2438SOL    HW1 9567  10.310   3.688   3.829  0.2616 -0.5539 -2.0652
 2438SOL    HW2 9568  10.406   3.747   3.930 -1.8308 -0.5938  0.0175
 2439SOL     OW 9569   4.044   5.759   5.611 -0.1490 -0.0848  0.4267
 2439SOL    HW1 9570   3.970   5.820   5.606 -0.5353 -0.2930  2.7616
 2439SOL    HW2 9571   4.121   5.814   5.600 -0.5725  0.4816  0.2517
 2440SOL     OW 9572   0.883   2.790  10.032  0.4352 -0.3755  0.2276
 2440SOL    HW1 9573   0.948   2.720  10.028 -0.6669 -1.5484  1.6694
 2440SOL    HW2 9574   0.919   2.852  10.095  0.5014 -0.6504  0.4652
 2441SOL     OW 9575   6.102   2.217   2.181 -0.3499  0.5060  0.3503
 2441SOL    HW1 9576   6.043   2.143   2.195  1.3917 -0.9647  0.2783
 2441SOL    HW2 9577   6.091   2.239   2.088 -0.6780  0.1570  0.3032
 2442SOL     OW 9578   1.616   1.046   9.734  0.0053  0.0688  0.4242
 2442SOL    HW1 9579   1.604   1.137   9.762  1.5697  1.1201 -1.9845
 2442SOL    HW2 9580   1.527   1.015   9.717 -0.5053  1.5658  0.1473
 2443SOL     OW 9581   4.303   1.254   5.212  0.6245 -0.5055 -0.2456
 2443SOL    HW1 9582   4.391   1.263   5.249  1.0140 -1.4348 -0.9080
 2443SOL    HW2 9583   4.266   1.177   5.255 -0.3054  0.5076  0.8333
 2444SOL     OW 9584   3.256   1.458   9.762 -0.0968  0.3558  0.3389
 2444SOL    HW1 9585   3.293   1.385   9.712 -1.5693  0.1365 -0.5037
 2444SOL    HW2 9586   3.311   1.533   9.739  0.1698 -0.0626 -0.4298
 2445SOL     OW 9587   6.544   1.877  10.257  0.4647  0.5267 -0.2098
 2445SOL    HW1 9588   6.635   1.905  10.253  0.4845  0.5513  0.4088
 2445SOL    HW2 9589   6.530   1.852  10.348 -0.8979  2.9855  0.3308
 2446SOL     OW 9590   7.724   2.642   6.444  0.2928  0.2645  0.8375
 2446SOL    HW1 9591   7.632   2.622   6.431  0.4354  0.1638 -0.0308
 2446SOL    HW2 9592   7.745   2.605   6.530 -0.2152 -0.6018  0.5889
 2447SOL     OW 9593   7.527   0.102   6.617 -0.4729  0.5002  0.4883
 2447SOL    HW1 9594   7.453   0.047   6.592  1.3240 -1.6357 -0.5303
 2447SOL    HW2 9595   7.596   0.039   6.640  1.5829  2.3348 -0.3186
 2448SOL     OW 9596   9.128   0.453   9.116  0.4161 -0.3421  0.1265
 2448SOL    HW1 9597   9.140   0.377   9.060  0.0748 -1.6815  1.8138
 2448SOL    HW2 9598   9.179   0.434   9.194  0.1327  1.0686  0.6893
 2449SOL     OW 9599   2.250   8.003  10.491 -0.0166 -0.0289 -0.7057
 2449SOL    HW1 9600   2.228   7.945  10.564  0.3630 -3.3950 -3.0252
 2449SOL    HW2 9601   2.177   8.065  10.487  0.0158  0.3437  2.5152
 2450SOL     OW 9602   0.725   2.641   6.342  0.4342 -0.1642  0.0553
 2450SOL    HW1 9603   0.639   2.677   6.362 -0.0074 -0.5128 -1.1650
 2450SOL    HW2 9604   0.786   2.713   6.358 -0.4111  1.1180 -2.1256
 2451SOL     OW 9605   9.359   3.068   7.528  0.4828  0.3523  0.6500
 2451SOL    HW1 9606   9.423   3.060   7.598  0.5763  1.4599  0.7018
 2451SOL    HW2 9607   9.276   3.044   7.569  0.2077  2.8403  1.6988
 2452SOL     OW 9608   3.681   5.755   9.008 -0.0041  0.2135 -0.7862
 2452SOL    HW1 9609   3.758   5.810   8.994 -0.4420  0.6059 -1.6854
 2452SOL    HW2 9610   3.621   5.779   8.938 -1.0132  0.0172 -0.0068
 2453SOL     OW 9611   7.862   0.223   9.060  0.5046 -0.1601  0.3979
 2453SOL    HW1 9612   7.817   0.226   8.975 -0.5382 -1.1738  0.8889
 2453SOL    HW2 9613   7.791   0.233   9.124  0.9701 -1.7747  1.1994
 2454SOL     OW 9614   2.490   8.492   3.774 -0.2174  0.5602 -0.3654
 2454SOL    HW1 9615   2.568   8.513   3.724  0.7238 -0.7718  0.4869
 2454SOL    HW2 9616   2.523   8.454   3.856 -1.7324 -2.3928 -1.0028
 2455SOL     OW 9617   0.033   7.591   0.200 -0.1890  0.3187  0.3835
 2455SOL    HW1 9618   0.001   7.600   0.111  0.5115  0.7894  0.1709
 2455SOL    HW2 9619   0.015   7.675   0.241  3.1307  1.6222 -0.5406
 2456SOL     OW 9620   1.038   6.394   1.672 -0.0402 -0.3379  0.1997
 2456SOL    HW1 9621   0.962   6.360   1.720  1.0066 -0.3800  1.9018
 2456SOL    HW2 9622   1.078   6.317   1.633 -0.7973 -0.3258 -0.6422
 2457SOL     OW 9623   9.515  10.176   0.163  0.4450 -0.2773 -0.0626
 2457SOL    HW1 9624   9.501  10.090   0.123 -2.2879 -0.1254  0.4274
 2457SOL    HW2 9625   9.610  10.181   0.173  0.8401 -2.4652 -1.7462
 2458SOL     OW 9626   5.798   3.978   0.689 -0.1839 -0.1031 -0.6159
 2458SOL    HW1 9627   5.780   4.053   0.633 -0.3575  0.5035  0.2483
 2458SOL    HW2 9628   5.748   3.993   0.769  1.3381 -0.1176  0.3964
 2459SOL     OW 9629   2.113   7.399   6.561 -0.1971 -0.5899 -0.3647
 2459SOL    HW1 9630   2.060   7.359   6.491 -1.9640  2.3399 -0.8774
 2459SOL    HW2 9631   2.192   7.429   6.517 -0.6288 -0.1055 -0.8369
 2460SOL     OW 9632  10.465   5.093   1.394 -1.1142 -0.0525 -0.4571
 2460SOL    HW1 9633  10.386   5.145   1.410 -2.1817 -1.7446  0.0437
 2460SOL    HW2 9634  10.498   5.072   1.481 -0.9706 -0.6046 -0.6401
 2461SOL     OW 9635   3.433   9.402   4.381 -0.8257 -0.5902  0.0446
 2461SOL    HW1 9636   3.397   9.394   4.469 -0.9286 -0.9426 -0.0253
 2461SOL    HW2 9637   3.394   9.329   4.333 -0.7627 -0.4061 -0.2904
 2462SOL     OW 9638   1.041   1.994   2.948  0.4520 -0.6355 -0.0887
 2462SOL    HW1 9639   1.048   1.966   2.857  1.1913 -1.0286  0.0853
 2462SOL    HW2 9640   0.954   1.964   2.975  0.8672 -1.9855 -0.1836
 2463SOL     OW 9641   1.926   2.636   4.328 -0.1400  0.3698  0.3830
 2463SOL    HW1 9642   1.934   2.566   4.263 -1.9849  0.7588 -0.3126
 2463SOL    HW2 9643   1.862   2.696   4.291  0.4533  1.7735  1.5683
 2464SOL     OW 9644   7.276   3.855   6.991  0.0673  0.6669  0.0075
 2464SOL    HW1 9645   7.268   3.785   7.056 -0.7477  1.2548  0.5461
 2464SOL    HW2 9646   7.258   3.935   7.039 -1.6725  1.0287 -1.1733
 2465SOL     OW 9647   1.660  10.198   5.568 -0.2847 -0.3119 -0.5637
 2465SOL    HW1 9648   1.626  10.284   5.546  0.7227  0.0859 -0.5976
 2465SOL    HW2 9649   1.746  10.214   5.607 -0.5059 -1.2292  0.3802
 2466SOL     OW 9650   7.979   3.015   7.211  0.0284  0.3097  0.7188
 2466SOL    HW1 9651   8.009   2.992   7.298  0.9091 -0.6387  0.1939
 2466SOL    HW2 9652   7.978   2.931   7.163 -1.4513  0.6363  0.1074
 2467SOL     OW 9653   0.706   4.955   5.759 -0.3776  0.0564 -0.1487
 2467SOL    HW1 9654   0.704   4.863   5.731 -0.1739  0.3370 -1.1424
 2467SOL    HW2 9655   0.624   4.968   5.806 -0.5562 -0.5597 -0.2821
 2468SOL     OW 9656   4.348   8.659   7.701 -0.4677  0.0762  0.2363
 2468SOL    HW1 9657   4.377   8.743   7.736  0.7537  0.7807 -2.1908
 2468SOL    HW2 9658   4.270   8.680   7.650 -2.2423 -0.9231  2.3653
 2469SOL     OW 9659   9.044   0.017   3.084  0.0666 -0.5005 -0.1581
 2469SOL    HW1 9660   9.019  -0.022   3.001 -0.8540  2.4636 -1.4207
 2469SOL    HW2 9661   9.093   0.096   3.060 -0.7632  0.7852  2.0550
 2470SOL     OW 9662   3.847   2.797   0.292  0.1370  0.3442 -0.5336
 2470SOL    HW1 9663   3.830   2.891   0.288  0.0059  0.3758  0.4690
 2470SOL    HW2 9664   3.780   2.758   0.236 -2.7340  0.5437  2.4361
 2471SOL     OW 9665   6.356   9.261  10.237 -0.4292 -0.4609  1.0988
 2471SOL    HW1 9666   6.290   9.292  10.175  1.6226  0.7861 -0.6241
 2471SOL    HW2 9667   6.326   9.173  10.262 -0.9840 -1.4156 -2.3638
 2472SOL     OW 9668   0.134   5.208   7.679 -0.8181  0.3637  0.4815
 2472SOL    HW1 9669   0.056   5.173   7.721 -0.1016 -1.9471  0.0097
 2472SOL    HW2 9670   0.192   5.230   7.751 -0.2126 -2.1018  0.8293
 2473SOL     OW 9671   0.220   0.071   4.671  0.0936  0.3475  0.1932
 2473SOL    HW1 9672   0.285   0.102   4.608  1.1581 -1.8476  0.1407
 2473SOL    HW2 9673   0.137   0.073   4.623  0.9826 -1.9880 -1.6231
 2474SOL     OW 9674   2.405   7.225   3.301 -0.7304 -0.0967 -0.6292
 2474SOL    HW1 9675   2.470   7.290   3.331  0.5353 -1.1265 -1.0394
 2474SOL    HW2 9676   2.369   7.190   3.382 -0.0882 -0.1726 -0.3651
 2475SOL     OW 9677   9.347   7.381   8.889  0.3938  0.3612 -0.1715
 2475SOL    HW1 9678   9.307   7.412   8.807  1.0952  1.0671 -0.2615
 2475SOL    HW2 9679   9.441   7.381   8.870  0.5699  0.6823  0.6819
 2476SOL     OW 9680   1.937  10.470   6.900  0.1155  0.1047  0.2129
 2476SOL    HW1 9681   1.869  10.476   6.834  0.4596  0.6839 -0.0974
 2476SOL    HW2 9682   1.968  10.560   6.911  0.9140 -0.1646  0.2550
 2477SOL     OW 9683   4.959   7.136   2.730  0.5121  0.2254 -0.3106
 2477SOL    HW1 9684   4.896   7.134   2.801 -0.1261 -2.7507 -0.8207
 2477SOL    HW2 9685   4.922   7.078   2.663  2.3160  0.8655 -1.9776
 2478SOL     OW 9686   3.357   2.713   9.120  0.0248 -0.5865 -0.6604
 2478SOL    HW1 9687   3.421   2.745   9.183 -0.2262 -1.1404 -0.1089
 2478SOL    HW2 9688   3.274   2.714   9.167 -0.5355  0.8257 -1.5940
 2479SOL     OW 9689   7.265   6.161   7.620 -0.0431 -0.0416  0.4512
 2479SOL    HW1 9690   7.253   6.069   7.596 -1.6959  0.2248  0.1351
 2479SOL    HW2 9691   7.191   6.206   7.579  1.1387  1.5519 -0.0305
 2480SOL     OW 9692   8.671  10.601  10.024  0.1717 -0.5829  0.0707
 2480SOL    HW1 9693   8.644  10.687  10.055  1.3528 -0.6106  1.2598
 2480SOL    HW2 9694   8.616  10.540  10.073  0.2072 -0.5450  0.1569
 2481SOL     OW 9695   5.880   7.356   9.167  0.1658 -0.3961 -0.4447
 2481SOL    HW1 9696   5.859   7.450   9.174 -1.1242 -0.5909 -1.3227
 2481SOL    HW2 9697   5.795   7.313   9.168  0.6775 -1.4772 -1.2652
 2482SOL     OW 9698   7.920   3.755   5.025  0.5747  0.0453 -0.0402
 2482SOL    HW1 9699   7.947   3.702   4.950 -2.2516 -0.8158 -0.5685
 2482SOL    HW2 9700   7.894   3.839   4.986  1.5344  0.5369  0.3427
 2483SOL     OW 9701   2.861   6.074   3.327 -0.7410 -0.9806 -0.5551
 2483SOL    HW1 9702   2.873   6.017   3.251 -1.6896 -0.8140 -0.8469
 2483SOL    HW2 9703   2.897   6.158   3.299  0.8779 -1.4694 -0.0390
 2484SOL     OW 9704   7.316   7.584   2.312 -0.2667  0.5094  0.1727
 2484SOL    HW1 9705   7.357   7.569   2.397 -0.5509 -0.5529  0.1489
 2484SOL    HW2 9706   7.222   7.585   2.331 -0.6404 -3.4815 -0.4951
 2485SOL     OW 9707   2.947   7.800   4.997  0.6205  0.5412  0.8274
 2485SOL    HW1 9708   2.905   7.770   5.078  0.4628 -1.5129  0.0655
 2485SOL    HW2 9709   2.883   7.780   4.929  1.4041  0.6805  0.0336
 2486SOL     OW 9710   9.721   0.149   5.537 -0.0866  0.4106 -0.1651
 2486SOL    HW1 9711   9.665   0.118   5.609  1.0750 -0.6240  0.3320
 2486SOL    HW2 9712   9.784   0.207   5.579 -0.2540  0.8959 -0.5840
 2487SOL     OW 9713   8.626   3.015   0.220 -0.8297  0.3752  0.4098
 2487SOL    HW1 9714   8.562   2.957   0.179  0.1071 -0.6357  0.3228
 2487SOL    HW2 9715   8.625   2.991   0.312  2.1799 -2.5489 -0.1044
 2488SOL     OW 9716   2.996   7.537   6.201  0.2355  0.2747  0.7226
 2488SOL    HW1 9717   2.945   7.466   6.163  0.2022  0.4325  0.4647
 2488SOL    HW2 9718   2.984   7.610   6.140  2.6422 -0.3706 -0.6391
 2489SOL     OW 9719   2.920   4.328  10.614 -0.4942 -0.7530 -0.3045
 2489SOL    HW1 9720   2.828   4.354  10.617 -0.1649  0.7741 -1.8615
 2489SOL    HW2 9721   2.962   4.396  10.562  0.9765 -3.0287 -2.2978
 2490SOL     OW 9722   2.005   5.476   2.408 -0.3022  0.3507  0.0158
 2490SOL    HW1 9723   1.975   5.415   2.340 -2.9220  1.4764  0.0287
 2490SOL    HW2 9724   2.100   5.467   2.408 -0.4554 -2.3143 -1.2840
 2491SOL     OW 9725   6.519   4.088   5.149  0.5338  0.1506 -0.3952
 2491SOL    HW1 9726   6.479   4.161   5.195 -0.6247  0.9034 -2.4763
 2491SOL    HW2 9727   6.606   4.119   5.125  1.6124 -0.6482  2.0909
 2492SOL     OW 9728   9.607   4.689   8.053 -0.3310  0.1730  0.3997
 2492SOL    HW1 9729   9.693   4.647   8.045 -0.6825 -0.4244 -0.4215
 2492SOL    HW2 9730   9.575   4.694   7.963 -1.6302 -0.6506  0.7861
 2493SOL     OW 9731   4.821   0.823   7.678 -0.0679 -0.1910 -0.2398
 2493SOL    HW1 9732   4.784   0.779   7.754  1.6957 -0.5133  0.4557
 2493SOL    HW2 9733   4.822   0.916   7.701 -1.5861 -0.0073 -0.7813
 2494SOL     OW 9734   6.989   0.427   8.467  0.1437  0.2121  0.4586
 2494SOL    HW1 9735   6.911   0.381   8.436  1.2256 -1.0467 -0.5431
 2494SOL    HW2 9736   7.013   0.381   8.548  0.6405 -0.3238  0.0098
 2495SOL     OW 9737   2.938   6.829   6.324 -0.1400 -0.6222  0.0559
 2495SOL    HW1 9738   2.912   6.860   6.238 -1.0534  2.0530  1.2012
 2495SOL    HW2 9739   3.030   6.852   6.332  0.4843 -2.5826 -0.8427
 2496SOL     OW 9740   4.030   9.271   7.064  0.1561  0.0223  0.0702
 2496SOL    HW1 9741   3.951   9.293   7.115 -0.2288 -0.3967 -0.3347
 2496SOL    HW2 9742   4.055   9.184   7.095  0.4611  0.1543  0.1961
 2497SOL     OW 9743   6.796   5.566   4.949 -0.6500 -0.4109 -0.6500
 2497SOL    HW1 9744   6.720   5.532   4.903  0.2609 -0.6422 -2.0226
 2497SOL    HW2 9745   6.863   5.578   4.882  0.2587  0.6288  0.3770
 2498SOL     OW 9746   3.021   8.822   1.247  0.9521 -0.1142  0.0117
 2498SOL    HW1 9747   3.074   8.901   1.249  1.0461 -0.1867  0.3737
 2498SOL    HW2 9748   3.029   8.790   1.157 -0.1803  1.0235 -0.5121
 2499SOL     OW 9749   8.314   2.810   0.957  0.1077 -0.1799  0.0281
 2499SOL    HW1 9750   8.391   2.756   0.941  0.9844  0.5232  1.6302
 2499SOL    HW2 9751   8.325   2.842   1.047 -1.0833  1.4857 -0.3659
 2500SOL     OW 9752   2.021   3.737   1.381 -0.0009  0.7060 -0.5107
 2500SOL    HW1 9753   2.030   3.789   1.301 -0.9296  0.6543 -0.6557
 2500SOL    HW2 9754   2.022   3.802   1.452  0.3836  0.7855 -0.5842
 2501SOL     OW 9755   2.022   4.534   1.930  0.0975  0.3784 -0.0136
 2501SOL    HW1 9756   1.979   4.476   1.993  0.3148  0.8574  0.5925
 2501SOL    HW2 9757   1.999   4.623   1.959 -1.7757  0.6384 -1.9985
 2502SOL     OW 9758   9.123   5.334   5.415 -0.1575  1.0731 -0.3787
 2502SOL    HW1 9759   9.049   5.307   5.469  0.6816  0.9346  0.7502
 2502SOL    HW2 9760   9.176   5.255   5.405  0.2608  1.3550 -0.4463
 2503SOL     OW 9761   1.973   2.243   9.082 -0.0915 -0.0423 -0.3539
 2503SOL    HW1 9762   1.959   2.154   9.115 -0.2064  0.3677  0.7428
 2503SOL    HW2 9763   2.052   2.273   9.127 -0.4562  0.6557 -0.1640
 2504SOL     OW 9764   2.768   8.783   5.306  0.1051  0.2428  0.7249
 2504SOL    HW1 9765   2.739   8.777   5.215 -0.2315  0.8609  0.7936
 2504SOL    HW2 9766   2.864   8.784   5.300  0.0767  0.6861  0.3579
 2505SOL     OW 9767   4.617   3.868   5.580 -0.1931 -0.4300 -0.2418
 2505SOL    HW1 9768   4.657   3.946   5.542  1.6222 -0.5579  1.2746
 2505SOL    HW2 9769   4.685   3.801   5.576 -0.9650 -1.2949  0.5148
 2506SOL     OW 9770   4.879   9.757   9.345  0.4689 -0.1424  0.1659
 2506SOL    HW1 9771   4.925   9.673   9.343 -0.5242 -0.6953 -0.6958
 2506SOL    HW2 9772   4.927   9.812   9.283 -1.2172 -1.4212 -2.4520
 2507SOL     OW 9773   0.853   8.288   2.111 -0.3172 -0.1968 -0.1041
 2507SOL    HW1 9774   0.852   8.263   2.019 -0.6628 -0.0309 -0.1467
 2507SOL    HW2 9775   0.769   8.332   2.125 -1.8371 -3.2230  1.1472
 2508SOL     OW 9776   7.530   9.119   6.435  0.1416  0.4400  0.1869
 2508SOL    HW1 9777   7.582   9.111   6.515 -1.4971 -0.4638  1.2047
 2508SOL    HW2 9778   7.445   9.152   6.464 -1.1398 -1.7031 -0.8756
 2509SOL     OW 9779   5.998   3.337   6.534  0.3002  0.1995 -0.7795
 2509SOL    HW1 9780   6.042   3.387   6.466 -1.9012  0.3488 -2.2229
 2509SOL    HW2 9781   5.914   3.311   6.494 -0.6426 -0.6062  1.5276
 2510SOL     OW 9782   9.392   6.965   9.623 -0.2114  0.0530 -0.0640
 2510SOL    HW1 9783   9.449   6.896   9.591 -0.1578 -0.7509  1.6645
 2510SOL    HW2 9784   9.437   7.001   9.699 -0.6865  1.3580 -0.3681
 2511SOL     OW 9785   0.403   3.928   9.719 -0.5645 -0.1585  0.3508
 2511SOL    HW1 9786   0.397   3.853   9.660 -1.5275 -0.7436  1.1567
 2511SOL    HW2 9787   0.331   3.916   9.781 -0.7552  1.4486  0.4963
 2512SOL     OW 9788   7.420   4.468   2.112 -0.2070  0.0502  0.3497
 2512SOL    HW1 9789   7.354   4.418   2.064 -1.0467  0.2254  1.3012
 2512SOL    HW2 9790   7.372   4.541   2.151  1.0425  1.8914 -1.3215
 2513SOL     OW 9791   9.654   4.307   4.161 -0.2897 -0.1579  0.6529
 2513SOL    HW1 9792   9.712   4.260   4.221  2.0906 -0.4589 -1.6988
 2513SOL    HW2 9793   9.696   4.392   4.148  0.1689 -0.6678 -1.7194
 2514SOL     OW 9794   9.060   5.152   1.914 -0.4961 -0.5848  0.2978
 2514SOL    HW1 9795   9.055   5.227   1.973  0.2976 -0.1559 -0.1637
 2514SOL    HW2 9796   8.970   5.120   1.908 -1.0413  0.9468 -0.2625
 2515SOL     OW 9797   2.370  10.109   8.982 -0.0554  0.2621 -0.2051
 2515SOL    HW1 9798   2.299  10.115   9.046 -0.7399  1.2461 -1.0421
 2515SOL    HW2 9799   2.449  10.100   9.036 -0.5713  1.4760  0.8149
 2516SOL     OW 9800   2.664   3.130   5.338  0.0924 -0.3048 -0.5520
 2516SOL    HW1 9801   2.626   3.216   5.360 -0.2799 -0.8564  1.0320
 2516SOL    HW2 9802   2.753   3.151   5.308  0.4970  0.5416  1.1206
 2517SOL     OW 9803   4.710   1.387   3.547  0.0321 -0.5629 -0.0289
 2517SOL    HW1 9804   4.665   1.335   3.614 -1.3808  1.4569  0.6649
 2517SOL    HW2 9805   4.793   1.411   3.589 -0.9065  0.8200  1.1394
 2518SOL     OW 9806   0.242   1.122   4.706  0.1349  0.5899  0.3267
 2518SOL    HW1 9807   0.174   1.063   4.737  1.0299 -0.3695  0.5319
 2518SOL    HW2 9808   0.307   1.065   4.666  0.0121  1.6397 -1.4514
 2519SOL     OW 9809   9.444   0.308   3.568 -0.4042  0.1426 -0.0652
 2519SOL    HW1 9810   9.376   0.346   3.623 -2.6995 -2.5710 -0.7475
 2519SOL    HW2 9811   9.500   0.260   3.629 -0.0437  1.0542  0.3398
 2520SOL     OW 9812   0.996   3.378   5.689 -0.1950 -0.2470  0.4381
 2520SOL    HW1 9813   0.945   3.458   5.703  2.3365  1.1251  2.8648
 2520SOL    HW2 9814   1.084   3.409   5.668 -0.0622 -2.5139 -2.9967
 2521SOL     OW 9815   0.713   8.670   6.642 -0.3012  0.6649 -0.4003
 2521SOL    HW1 9816   0.741   8.669   6.550  0.3516 -0.4689 -0.2047
 2521SOL    HW2 9817   0.769   8.606   6.685 -1.5835  0.0945  0.4980
 2522SOL     OW 9818   6.912   6.416   9.072 -0.6093  0.8020  0.0937
 2522SOL    HW1 9819   6.875   6.389   8.988  2.2350  0.7606 -1.2798
 2522SOL    HW2 9820   6.869   6.499   9.091 -1.7836  0.5003 -1.0637
 2523SOL     OW 9821   0.568   0.597   4.648  0.0573 -0.6123  0.2254
 2523SOL    HW1 9822   0.478   0.631   4.648 -0.1265 -1.0391  1.6578
 2523SOL    HW2 9823   0.600   0.612   4.736  2.5318  2.2881 -1.0021
 2524SOL     OW 9824   3.646   2.500   4.773 -0.5909  0.8377 -0.1348
 2524SOL    HW1 9825   3.626   2.538   4.859  1.3296 -0.8531  1.1430
 2524SOL    HW2 9826   3.718   2.439   4.789 -1.7011 -1.3400 -2.5100
 2525SOL     OW 9827   7.607   8.630   2.878 -0.0180  0.0470  0.0469
 2525SOL    HW1 9828   7.682   8.584   2.914 -0.7768 -1.6692 -0.4424
 2525SOL    HW2 9829   7.619   8.625   2.783 -1.0290 -0.7889 -0.0534
 2526SOL     OW 9830   7.656   1.128  10.107  0.2676 -0.0091  0.2712
 2526SOL    HW1 9831   7.576   1.181  10.111  1.4129  1.7793  0.8687
 2526SOL    HW2 9832   7.639   1.056  10.168 -1.1580 -0.0812 -0.1703
 2527SOL     OW 9833   4.824   2.166   5.855  0.1093  0.1356 -0.4902
 2527SOL    HW1 9834   4.771   2.244   5.872 -1.0649 -0.8027  0.2864
 2527SOL    HW2 9835   4.776   2.119   5.787  0.0353 -0.6229  0.0756
 2528SOL     OW 9836   8.784   3.469   3.072 -0.3559  1.0962 -0.4885
 2528SOL    HW1 9837   8.840   3.496   3.144 -1.6538 -0.2230  1.1166
 2528SOL    HW2 9838   8.837   3.407   3.022  0.0154  0.7047  0.3614
 2529SOL     OW 9839   7.196   1.238   3.145 -0.0390 -0.0871 -0.3017
 2529SOL    HW1 9840   7.177   1.275   3.058 -0.1724  1.5562  0.3840
 2529SOL    HW2 9841   7.163   1.149   3.141 -0.1792  0.0018 -1.8935
 2530SOL     OW 9842   7.191   2.480   2.310  0.1201 -0.1634  0.3584
 2530SOL    HW1 9843   7.197   2.466   2.405  0.6641  0.7447  0.4730
 2530SOL    HW2 9844   7.100   2.507   2.296  0.4649  1.4168  0.8982
 2531SOL     OW 9845   9.736   8.620   5.394 -0.2876 -0.4698  0.4411
 2531SOL    HW1 9846   9.733   8.570   5.476  0.2689  0.7718  1.2384
 2531SOL    HW2 9847   9.829   8.633   5.377 -0.4109 -0.3986 -0.1967
 2532SOL     OW 9848   4.991   1.610   4.810 -0.3988 -0.0463  0.1527
 2532SOL    HW1 9849   4.948   1.540   4.860 -0.8986 -0.9256 -1.4306
 2532SOL    HW2 9850   5.048   1.563   4.749  0.7774  1.0257  0.3884
 2533SOL     OW 9851   9.580   2.264   6.892  0.4004  0.2061  0.1795
 2533SOL    HW1 9852   9.616   2.236   6.976 -2.5733 -0.4807  1.3478
 2533SOL    HW2 9853   9.636   2.337   6.865  2.3625 -0.5414  1.9585
 2534SOL     OW 9854   1.179   6.018   1.227 -0.2925  0.0386  0.0974
 2534SOL    HW1 9855   1.253   6.028   1.287 -0.7747 -0.1425  0.7378
 2534SOL    HW2 9856   1.165   5.923   1.221 -0.3123  0.0588 -0.2272
 2535SOL     OW 9857   2.163   1.187  10.417  0.0095 -0.3393  0.1527
 2535SOL    HW1 9858   2.164   1.119  10.484 -0.7246 -2.0449 -1.4588
 2535SOL    HW2 9859   2.114   1.259  10.457  0.2423 -0.9971  1.6996
 2536SOL     OW 9860   0.784   6.927   7.107 -0.0847 -0.1901  0.5747
 2536SOL    HW1 9861   0.697   6.963   7.090  1.0377  3.0779  1.0598
 2536SOL    HW2 9862   0.820   6.982   7.176  2.2957 -1.6262  0.6094
 2537SOL     OW 9863   6.322   2.804   0.885  0.3958 -0.2357 -0.8331
 2537SOL    HW1 9864   6.263   2.766   0.819  1.2048 -0.1139 -1.6496
 2537SOL    HW2 9865   6.365   2.876   0.839  1.7484 -0.8009 -0.5072
 2538SOL     OW 9866  10.348   6.181   3.581 -0.1373  0.2089  0.2401
 2538SOL    HW1 9867  10.430   6.219   3.611  0.5871  0.1110 -1.4995
 2538SOL    HW2 9868  10.338   6.213   3.491 -0.1983 -2.5460 -0.8384
 2539SOL     OW 9869   9.555   4.613   2.617  0.3495  0.1319 -0.0816
 2539SOL    HW1 9870   9.471   4.636   2.577  0.0496  0.5037  0.7322
 2539SOL    HW2 9871   9.532   4.551   2.687  0.9194 -0.9388 -0.8058
 2540SOL     OW 9872   2.942   9.807   8.581 -0.2033 -0.1546  0.0330
 2540SOL    HW1 9873   3.019   9.756   8.556 -0.3964 -0.8494  0.8118
 2540SOL    HW2 9874   2.939   9.801   8.677 -2.2380 -1.6929 -0.0559
 2541SOL     OW 9875   2.395   3.854   4.389  0.1951  0.4733 -0.7406
 2541SOL    HW1 9876   2.328   3.913   4.354 -0.0777  0.8293  0.3275
 2541SOL    HW2 9877   2.345   3.781   4.427  0.0409  2.3347  3.1602
 2542SOL     OW 9878   4.663   1.496   0.804 -0.0564  0.2987  0.1654
 2542SOL    HW1 9879   4.620   1.410   0.806  0.3670  0.0825  0.0313
 2542SOL    HW2 9880   4.674   1.518   0.896  0.0446  0.1008  0.2029
 2543SOL     OW 9881   7.634   1.551   4.246 -0.8006 -0.0873  0.5055
 2543SOL    HW1 9882   7.568   1.612   4.280 -1.5041 -0.6197  0.1140
 2543SOL    HW2 9883   7.692   1.534   4.321 -0.1000  1.6826  0.4192
 2544SOL     OW 9884   3.008   7.937   8.373  0.2904  0.0460  0.4525
 2544SOL    HW1 9885   2.982   7.858   8.421 -0.1078  0.4686  0.9540
 2544SOL    HW2 9886   2.939   7.950   8.309  0.0776  0.2807  0.7260
 2545SOL     OW 9887   4.193   7.074   6.348 -0.0306  0.2658  0.3963
 2545SOL    HW1 9888   4.207   7.068   6.253  0.1164 -4.2561  0.5051
 2545SOL    HW2 9889   4.101   7.100   6.356 -1.0431 -2.4530 -1.1873
 2546SOL     OW 9890   0.761   7.010   5.704 -0.0296 -0.5201  0.5898
 2546SOL    HW1 9891   0.724   6.973   5.623 -0.3981 -0.0396  0.5305
 2546SOL    HW2 9892   0.841   6.960   5.719  1.1480  0.7119 -1.1834
 2547SOL     OW 9893   3.170   8.984   7.690 -0.2899 -0.3279 -0.5533
 2547SOL    HW1 9894   3.126   8.899   7.679  1.1109 -1.4571  1.7183
 2547SOL    HW2 9895   3.245   8.980   7.630 -1.1019 -0.0024 -1.6112
 2548SOL     OW 9896  10.234   8.215   3.804  0.4931 -0.0180 -0.4017
 2548SOL    HW1 9897  10.145   8.246   3.787  0.3722 -0.3598 -0.4014
 2548SOL    HW2 9898  10.223   8.147   3.871  0.7485 -0.1019 -0.4444
 2549SOL     OW 9899   4.828   4.539   5.271 -0.7138 -0.2830  0.2575
 2549SOL    HW1 9900   4.754   4.575   5.221 -0.8473 -0.9918 -0.0670
 2549SOL    HW2 9901   4.839   4.600   5.344 -0.5594  0.7401 -0.5926
 2550SOL     OW 9902   5.290  10.506   6.821  0.1783 -0.1210  0.3470
 2550SOL    HW1 9903   5.255  10.583   6.866  0.7924 -0.6255  1.7507
 2550SOL    HW2 9904   5.231  10.435   6.847  0.1204 -0.3001 -0.2510
 2551SOL     OW 9905   2.234   0.731   3.135  0.0838 -0.0435  0.5456
 2551SOL    HW1 9906   2.260   0.735   3.043 -1.5519 -0.3529  0.0284
 2551SOL    HW2 9907   2.184   0.812   3.149  0.9206  0.3458  1.3775
 2552SOL     OW 9908   3.989   6.981   5.206 -0.3337  0.2081 -0.0703
 2552SOL    HW1 9909   4.030   7.058   5.165 -0.0812 -0.4167 -1.0102
 2552SOL    HW2 9910   3.909   6.966   5.155 -0.5681  0.0595  0.3373
 2553SOL     OW 9911   4.317   4.719   6.343  0.0093 -0.4398 -0.4241
 2553SOL    HW1 9912   4.358   4.748   6.424 -0.4019 -1.5977  0.2269
 2553SOL    HW2 9913   4.386   4.725   6.277  0.6464 -0.4564  0.2285
 2554SOL     OW 9914   1.168   5.686   5.538  0.5398 -0.6347  0.1312
 2554SOL    HW1 9915   1.229   5.713   5.607  1.4659 -1.3412 -0.3925
 2554SOL    HW2 9916   1.128   5.606   5.571 -0.0734 -0.2134  0.4407
 2555SOL     OW 9917   0.699   6.678   9.585 -0.9077  0.1197  0.0209
 2555SOL    HW1 9918   0.608   6.683   9.557 -0.9082 -1.3423 -0.3131
 2555SOL    HW2 9919   0.724   6.587   9.570  0.1005  0.0735  1.6994
 2556SOL     OW 9920   1.486   5.060   1.449 -0.0647  0.0730 -0.5153
 2556SOL    HW1 9921   1.412   5.119   1.462 -0.1089  0.1177 -0.9476
 2556SOL    HW2 9922   1.512   5.075   1.358  0.4245  0.0012 -0.3897
 2557SOL     OW 9923   1.162   5.583   6.994  0.2026 -0.7659 -0.2088
 2557SOL    HW1 9924   1.183   5.573   6.901 -1.6242 -0.7222 -0.6608
 2557SOL    HW2 9925   1.174   5.676   7.012  0.6050 -0.7836 -0.3753
 2558SOL     OW 9926   9.550   1.982  10.604  0.2695  0.2023 -0.2012
 2558SOL    HW1 9927   9.570   2.071  10.633  0.8408  0.1623 -0.4643
 2558SOL    HW2 9928   9.612   1.927  10.651 -1.2459 -0.2673  1.3384
 2559SOL     OW 9929   3.717   5.751   7.098  0.0926  0.2984  0.9452
 2559SOL    HW1 9930   3.704   5.842   7.126 -1.5230  0.5670 -0.4841
 2559SOL    HW2 9931   3.735   5.703   7.178 -0.1088  1.7044  1.8679
 2560SOL     OW 9932   5.642   9.677  10.117  0.0206  0.9068 -0.5851
 2560SOL    HW1 9933   5.653   9.653  10.025 -0.5151  1.2031 -0.7321
 2560SOL    HW2 9934   5.548   9.689  10.128  0.0095  0.2203  0.1717
 2561SOL     OW 9935   2.207   6.280   8.786 -0.2882  0.1520 -0.0583
 2561SOL    HW1 9936   2.156   6.207   8.753  0.2014  0.7911 -2.4027
 2561SOL    HW2 9937   2.295   6.266   8.752  0.6964  0.0651  2.3351
 2562SOL     OW 9938   6.179   9.706   9.265 -0.1287 -0.0260 -0.3280
 2562SOL    HW1 9939   6.099   9.653   9.259  0.6778 -1.7161  2.4500
 2562SOL    HW2 9940   6.161   9.768   9.335  1.2996 -1.1586  1.1131
 2563SOL     OW 9941   2.104   1.056   8.334 -0.0518 -0.0917 -0.1698
 2563SOL    HW1 9942   2.026   1.081   8.383  1.1627  0.6146  1.4618
 2563SOL    HW2 9943   2.177   1.095   8.381  1.2939 -0.3857 -1.8812
 2564SOL     OW 9944  10.459   0.416   1.499  0.8040 -0.1774 -0.4988
 2564SOL    HW1 9945  10.412   0.359   1.560 -0.4966  0.0511 -1.2406
 2564SOL    HW2 9946  10.518   0.466   1.555  0.0207 -0.3360  0.5222
 2565SOL     OW 9947   9.002   1.973   2.900 -0.5925  0.1316 -0.2555
 2565SOL    HW1 9948   9.052   1.997   2.822 -2.1769  0.6025 -1.1475
 2565SOL    HW2 9949   9.003   2.052   2.954  0.3615 -0.1418  0.1536
 2566SOL     OW 9950   9.897   0.420   9.274  0.2280  0.1214 -0.0594
 2566SOL    HW1 9951   9.867   0.428   9.365 -1.3918 -0.1197 -0.5278
 2566SOL    HW2 9952   9.839   0.479   9.225 -0.0920 -1.0460 -1.1540
 2567SOL     OW 9953   3.060   7.225   6.886 -0.0691  0.6336  0.1033
 2567SOL    HW1 9954   3.100   7.156   6.939 -3.6189 -0.3907  1.7374
 2567SOL    HW2 9955   3.046   7.297   6.947 -0.6027  0.9894 -0.4279
 2568SOL     OW 9956   7.098   3.528   3.158  0.9315  0.3203  0.5273
 2568SOL    HW1 9957   7.016   3.481   3.172  0.4108  0.7345 -0.9782
 2568SOL    HW2 9958   7.150   3.470   3.103  0.0610  1.6392 -1.8326
 2569SOL     OW 9959   5.246  10.294   5.444 -0.2053  0.2439 -0.3836
 2569SOL    HW1 9960   5.224  10.346   5.521 -0.0066  0.1133 -0.2368
 2569SOL    HW2 9961   5.192  10.216   5.452  1.4096 -0.8250  0.8111
 2570SOL     OW 9962   8.624   1.154   2.347 -0.1734  0.2119  0.4195
 2570SOL    HW1 9963   8.702   1.175   2.296 -0.8845  1.7377 -0.0882
 2570SOL    HW2 9964   8.582   1.238   2.362 -0.8775 -0.4005  2.0901
 2571SOL     OW 9965   4.892   3.393   1.044 -0.2381 -0.4299 -0.3155
 2571SOL    HW1 9966   4.869   3.318   0.988 -0.5331 -1.3820  1.0207
 2571SOL    HW2 9967   4.941   3.354   1.117  1.4733  0.9737 -0.6690
 2572SOL     OW 9968   8.712   1.031  10.437 -0.2185  0.2169 -0.3258
 2572SOL    HW1 9969   8.733   1.122  10.458  0.9733  0.3164 -1.7284
 2572SOL    HW2 9970   8.735   1.022  10.344 -1.2722 -1.2534 -0.4886
 2573SOL     OW 9971   7.256   0.495   0.430  0.1355 -0.1757 -0.5309
 2573SOL    HW1 9972   7.205   0.560   0.478  1.3851  0.2646  0.2440
 2573SOL    HW2 9973   7.202   0.473   0.354 -1.0292  0.5402  0.0680
 2574SOL     OW 9974   3.330   7.785   0.876 -0.0976 -0.2687  0.2954
 2574SOL    HW1 9975   3.375   7.863   0.843 -0.0646 -0.8193 -1.0105
 2574SOL    HW2 9976   3.297   7.741   0.798  0.5257 -1.9626  0.9340
 2575SOL     OW 9977   3.075   4.451   2.397  0.0854 -0.0765 -0.2678
 2575SOL    HW1 9978   3.018   4.409   2.462 -0.1260  0.5510 -0.0395
 2575SOL    HW2 9979   3.055   4.545   2.405 -0.0796 -0.0086 -1.3740
 2576SOL     OW 9980   8.425   0.527   8.232  0.7075 -0.3158 -0.0073
 2576SOL    HW1 9981   8.421   0.565   8.320  0.2159 -1.4666  0.4948
 2576SOL    HW2 9982   8.363   0.578   8.181 -1.1571 -1.3945  1.0595
 2577SOL     OW 9983   6.060   4.279   4.824 -0.2954  0.3950  0.8023
 2577SOL    HW1 9984   6.111   4.211   4.868  0.0667 -0.3982 -0.7537
 2577SOL    HW2 9985   6.125   4.343   4.797 -0.4486  0.6275  0.9867
 2578SOL     OW 9986   3.025   4.280   7.940  0.0086 -0.3322 -0.0864
 2578SOL    HW1 9987   3.022   4.291   7.845 -0.0671 -0.2503 -0.0742
 2578SOL    HW2 9988   2.933   4.269   7.966  0.1386 -2.0847 -0.2289
 2579SOL     OW 9989   7.744   8.471   7.183  0.0395 -0.4168  0.4942
 2579SOL    HW1 9990   7.649   8.480   7.189 -0.3547 -2.5083 -1.0586
 2579SOL    HW2 9991   7.772   8.449   7.272 -0.8985  0.4403  1.0124
 2580SOL     OW 9992   8.652   2.308   0.197  0.1991 -0.1003 -0.4509
 2580SOL    HW1 9993   8.596   2.384   0.180  0.1100 -0.1190 -0.2476
 2580SOL    HW2 9994   8.622   2.275   0.282 -0.9232 -1.4015 -1.3224
 2581SOL     OW 9995   6.771   9.235   7.640 -0.1026  0.3437  0.2784
 2581SOL    HW1 9996   6.694   9.185   7.666  1.1554 -1.2790  1.1356
 2581SOL    HW2 9997   6.784   9.214   7.547 -1.3626  1.6247 -0.2209
 2582SOL     OW 9998   2.926   4.014   2.085 -0.3049  0.5011  0.0939
 2582SOL    HW1 9999   2.978   4.040   2.009  0.3684  0.6105  0.5782
 2582SOL    HW210000   2.877   4.093   2.108 -0.1686  0.6020  0.0435
 2583SOL     OW10001   4.123   3.368   7.873  0.1355 -0.0323  0.0573
 2583SOL    HW110002   4.092   3.383   7.783  1.0102  0.9233 -0.1134
 2583SOL    HW210003   4.214   3.341   7.862  0.6416  1.3354  0.6862
 2584SOL     OW10004  10.215   5.996   3.061 -0.0335  0.5264  0.0317
 2584SOL    HW110005  10.187   6.007   2.970  0.7287  2.9573  0.0229
 2584SOL    HW210006  10.135   5.971   3.108 -1.2549  2.6808 -0.7715
 2585SOL     OW10007   3.202   8.892   7.979 -0.0056  0.5761  0.2087
 2585SOL    HW110008   3.287   8.930   8.003  1.2780  0.6236 -3.7488
 2585SOL    HW210009   3.183   8.928   7.893 -3.0987 -1.0278  0.0918
 2586SOL     OW10010   7.118   3.210   0.338  0.2887  0.4554 -0.0134
 2586SOL    HW110011   7.077   3.204   0.251  1.4532 -0.9005 -0.5143
 2586SOL    HW210012   7.046   3.197   0.399 -0.4409  0.7452 -0.7885
 2587SOL     OW10013   1.050   3.379   5.210 -0.2751  0.1570  0.1467
 2587SOL    HW110014   1.000   3.457   5.233 -0.6820 -0.0064 -0.1757
 2587SOL    HW210015   1.129   3.413   5.167 -1.3849  0.3644 -1.8501
 2588SOL     OW10016   5.356   5.177   6.008 -0.6010 -0.1139 -0.1644
 2588SOL    HW110017   5.414   5.127   5.951 -0.5053 -2.5949  1.9211
 2588SOL    HW210018   5.274   5.127   6.009 -0.7085  0.0356  1.5362
 2589SOL     OW10019   0.031   2.768   8.959 -0.1634 -0.4292  0.3001
 2589SOL    HW110020  -0.059   2.746   8.936 -0.2088  0.1135 -0.0494
 2589SOL    HW210021   0.064   2.818   8.885  0.1487  0.1060  0.7845
 2590SOL     OW10022   6.155   5.772   0.126 -0.6539  0.0107  0.5608
 2590SOL    HW110023   6.145   5.834   0.054 -2.1217  0.4360  1.1003
 2590SOL    HW210024   6.214   5.816   0.187 -1.2357  0.6355  0.6765
 2591SOL     OW10025   5.162   1.024   1.497  0.3787 -0.6011  0.3049
 2591SOL    HW110026   5.203   1.053   1.578  2.6872  0.4073 -1.1323
 2591SOL    HW210027   5.074   0.995   1.523  1.6859 -2.1170  3.4127
 2592SOL     OW10028   4.805   2.393   6.203 -0.2565 -0.5138  0.2480
 2592SOL    HW110029   4.810   2.448   6.124  2.3001 -2.6938 -1.2787
 2592SOL    HW210030   4.712   2.369   6.210 -0.5201 -0.5158 -2.3292
 2593SOL     OW10031   8.463   5.740   1.653 -0.5166 -0.2648 -0.3273
 2593SOL    HW110032   8.470   5.720   1.747  0.3101  1.0648 -0.0757
 2593SOL    HW210033   8.510   5.668   1.610 -0.7581 -0.7967  0.2920
 2594SOL     OW10034   5.795   6.904   8.319 -0.1215  0.1886 -0.0537
 2594SOL    HW110035   5.852   6.857   8.259 -1.2439 -0.5117 -0.6027
 2594SOL    HW210036   5.787   6.847   8.396  1.9562  1.4314  1.1769
 2595SOL     OW10037   2.251   5.346   4.642  0.1185  0.1488 -0.3149
 2595SOL    HW110038   2.173   5.392   4.611 -1.8416 -1.9962  1.0240
 2595SOL    HW210039   2.280   5.396   4.718 -0.2891  0.6982 -0.5164
 2596SOL     OW10040   1.642   5.644   9.974  0.2135  0.8332 -0.3326
 2596SOL    HW110041   1.621   5.559   9.936  0.9980  0.8890 -0.9053
 2596SOL    HW210042   1.737   5.649   9.972  0.2347  1.2464  0.7706
 2597SOL     OW10043   1.944   9.959   6.980  0.0427  0.5193 -0.4588
 2597SOL    HW110044   2.012   9.908   6.936  1.2147  0.6917  1.0573
 2597SOL    HW210045   1.965  10.050   6.959  0.6742  0.6085  0.5146
 2598SOL     OW10046   0.749   6.740   2.885 -0.0979 -0.2088  0.3055
 2598SOL    HW110047   0.661   6.724   2.852  0.1053 -0.2757 -0.2266
 2598SOL    HW210048   0.743   6.822   2.933 -0.2818  0.2129 -0.4183
 2599SOL     OW10049   4.716   0.141   7.383  0.0988  0.0544 -0.2771
 2599SOL    HW110050   4.737   0.182   7.299  1.9689  2.4492  1.2312
 2599SOL    HW210051   4.783   0.075   7.394 -0.1339 -0.2466 -0.6289
 2600SOL     OW10052   5.696   0.132   1.491  0.5573  0.4738  0.0467
 2600SOL    HW110053   5.636   0.136   1.416  1.1516  0.3618 -0.4471
 2600SOL    HW210054   5.761   0.200   1.473  1.7325 -0.7438 -0.4568
 2601SOL     OW10055   9.106   9.880   4.210 -0.7214  0.4894 -0.2625
 2601SOL    HW110056   9.175   9.912   4.268  0.9688 -0.4980 -1.6611
 2601SOL    HW210057   9.080   9.796   4.247  1.8914 -1.2056 -2.0002
 2602SOL     OW10058   5.860   1.099   4.640 -0.4950 -0.0310  0.6693
 2602SOL    HW110059   5.820   1.170   4.691  0.4411  0.4648  0.7377
 2602SOL    HW210060   5.933   1.141   4.593 -2.3753 -0.0647 -2.5415
 2603SOL     OW10061   9.691  10.632   0.182  0.0605  0.7736 -0.3234
 2603SOL    HW110062   9.782  10.614   0.205 -1.0640 -4.0515  1.5358
 2603SOL    HW210063   9.652  10.668   0.262 -0.5197 -1.5442  0.5222
 2604SOL     OW10064   2.459   8.973   2.371  0.5920 -0.4989  0.0072
 2604SOL    HW110065   2.384   8.971   2.431  1.0197 -1.2494  0.5238
 2604SOL    HW210066   2.427   9.023   2.296 -0.4391 -0.8242  0.2136
 2605SOL     OW10067   0.757   4.478   2.304 -0.0549  0.1758 -0.1900
 2605SOL    HW110068   0.822   4.545   2.284  0.0765 -0.0803 -0.6448
 2605SOL    HW210069   0.673   4.520   2.285  0.0188  0.2569 -0.3424
 2606SOL     OW10070   9.096   6.343   9.144 -0.2443  0.2132 -0.0441
 2606SOL    HW110071   9.082   6.288   9.221 -1.0203 -0.0553 -0.3654
 2606SOL    HW210072   9.190   6.359   9.143 -0.4633  2.2955  2.3590
 2607SOL     OW10073   1.038   0.513   3.098  0.1531  0.4868 -0.3295
 2607SOL    HW110074   1.043   0.593   3.151  2.9079  1.2541 -1.6148
 2607SOL    HW210075   1.117   0.514   3.044 -1.0945 -1.7437 -2.3892
 2608SOL     OW10076   5.928  10.327   6.875 -0.0235 -0.1211 -0.7560
 2608SOL    HW110077   5.865  10.350   6.807 -0.9667  1.3722  0.5545
 2608SOL    HW210078   5.988  10.401   6.880 -1.3976  0.9325  1.6042
 2609SOL     OW10079   1.926   9.416   4.738 -0.1273  0.3298 -0.5073
 2609SOL    HW110080   2.000   9.469   4.710  0.5951 -1.0797 -1.4068
 2609SOL    HW210081   1.903   9.449   4.825  0.8812  1.4719 -0.6594
 2610SOL     OW10082   1.785   5.873   7.803 -0.3695  0.4192  0.2654
 2610SOL    HW110083   1.699   5.832   7.794  0.7459 -2.0663  0.1728
 2610SOL    HW210084   1.833   5.845   7.725  0.2691  2.6191 -0.2198
 2611SOL     OW10085   7.357   4.803   1.952  0.7084 -0.2241 -0.3899
 2611SOL    HW110086   7.277   4.831   1.907  1.5486  2.1668 -0.5828
 2611SOL    HW210087   7.388   4.728   1.902 -1.0892 -0.8276 -0.6586
 2612SOL     OW10088   5.845   6.316   5.939  0.6612  0.5606  0.0645
 2612SOL    HW110089   5.844   6.405   5.976  0.1851 -0.1369  1.8733
 2612SOL    HW210090   5.937   6.297   5.925  0.7029  1.7568 -1.4770
 2613SOL     OW10091   7.543   2.475   0.124  0.7565 -0.5330 -0.0438
 2613SOL    HW110092   7.474   2.413   0.101  0.6249  0.3609 -2.3172
 2613SOL    HW210093   7.497   2.557   0.140  0.9273 -0.9230  2.9106
 2614SOL     OW10094   3.747   6.883   3.260  0.3151  0.0713 -0.0507
 2614SOL    HW110095   3.715   6.816   3.320  0.1587  0.6424  0.5205
 2614SOL    HW210096   3.748   6.964   3.313  2.5592  0.1180 -0.0599
 2615SOL     OW10097   7.965   7.775   4.654  0.1333 -0.2515 -0.2680
 2615SOL    HW110098   7.906   7.850   4.654  1.2491  0.6562  0.2695
 2615SOL    HW210099   8.030   7.796   4.586  0.7267 -0.4980  0.2141
 2616SOL     OW10100   1.647   9.447   7.627  0.0702 -0.6438 -0.7727
 2616SOL    HW110101   1.652   9.541   7.611  0.5089 -0.7148 -1.1006
 2616SOL    HW210102   1.715   9.410   7.570  0.9003 -1.0301  0.4372
 2617SOL     OW10103   5.054   6.514   1.835  0.3772 -0.3758 -0.4491
 2617SOL    HW110104   5.104   6.437   1.862 -1.3526 -1.5346 -0.4039
 2617SOL    HW210105   4.976   6.512   1.889 -0.3891  0.5930 -1.4827
 2618SOL     OW10106  10.300   1.468   0.283 -0.0644 -0.2086  0.4959
 2618SOL    HW110107  10.291   1.409   0.208  1.4976  0.1141  0.0227
 2618SOL    HW210108  10.257   1.549   0.255 -1.2121 -0.7154  0.7203
 2619SOL     OW10109   8.869   0.053   5.305  0.3262  0.0932 -0.0366
 2619SOL    HW110110   8.814   0.083   5.232  2.5126  0.3265 -1.6920
 2619SOL    HW210111   8.942   0.114   5.307  3.1077 -2.8815 -1.2486
 2620SOL     OW10112   9.584   0.225   9.313  1.0161  0.1772 -0.3908
 2620SOL    HW110113   9.557   0.229   9.222 -0.1430 -0.5787 -0.1097
 2620SOL    HW210114   9.658   0.164   9.314 -0.9390 -2.4132 -0.4755
 2621SOL     OW10115   5.623   8.315  10.635 -0.3062 -0.5121  0.5083
 2621SOL    HW110116   5.705   8.339  10.678 -0.1580 -1.2808  0.6626
 2621SOL    HW210117   5.649   8.280  10.550 -0.5286 -0.0816  0.2547
 2622SOL     OW10118   6.030   4.775   2.503  0.2064  0.4699 -0.1736
 2622SOL    HW110119   6.084   4.849   2.530 -0.6437  0.6073  1.2395
 2622SOL    HW210120   5.940   4.808   2.510 -0.1248 -0.2284 -1.0068
 2623SOL     OW10121   2.725   4.434   3.072 -0.3030 -0.4229  0.0708
 2623SOL    HW110122   2.697   4.364   3.013  0.1166 -1.3919  0.9878
 2623SOL    HW210123   2.750   4.389   3.153  0.3566  0.7499  0.5485
 2624SOL     OW10124   4.034   8.748   1.191  0.3189  0.1841  0.3809
 2624SOL    HW110125   4.110   8.693   1.209  0.7081  0.8982  0.9879
 2624SOL    HW210126   3.963   8.708   1.241 -0.1454 -1.4283 -1.4520
 2625SOL     OW10127   6.674   9.307   8.090 -0.1961  0.5648  0.0737
 2625SOL    HW110128   6.653   9.398   8.069  0.8784  0.9327  0.5371
 2625SOL    HW210129   6.767   9.308   8.109  0.2611 -1.0005 -1.7853
 2626SOL     OW10130   6.777   6.752   6.217 -0.1205  0.0598  0.0572
 2626SOL    HW110131   6.729   6.820   6.264 -0.4810  0.5192 -0.9246
 2626SOL    HW210132   6.724   6.673   6.226 -0.2800  0.1888  0.2511
 2627SOL     OW10133   9.270   3.078   8.540 -0.5992 -0.3392  0.4188
 2627SOL    HW110134   9.324   3.063   8.463 -2.0684 -1.3245 -0.4713
 2627SOL    HW210135   9.272   3.173   8.553  3.0746 -0.4468  1.7966
 2628SOL     OW10136   9.266   7.045   3.118  0.1640 -0.3916  0.2679
 2628SOL    HW110137   9.345   7.060   3.067  0.3186 -1.0853  0.2979
 2628SOL    HW210138   9.194   7.067   3.059  0.3506 -0.8427 -0.1384
 2629SOL     OW10139   3.730   0.433   5.793  0.0040  0.3324  0.1002
 2629SOL    HW110140   3.685   0.348   5.791 -1.2689  0.9715  0.5347
 2629SOL    HW210141   3.737   0.454   5.886  0.7795  0.4798  0.0173
 2630SOL     OW10142   3.902   2.504   9.727 -0.1592  0.1304  0.4221
 2630SOL    HW110143   3.976   2.559   9.700  0.5096 -0.5003  0.9103
 2630SOL    HW210144   3.913   2.423   9.678 -1.4817  0.6274 -0.7478
 2631SOL     OW10145   0.966   5.964  10.307  0.2068 -0.1233  1.0161
 2631SOL    HW110146   0.883   5.954  10.354 -0.2886 -0.1143  0.1630
 2631SOL    HW210147   0.941   5.974  10.215  1.0972  1.0602  0.8810
 2632SOL     OW10148  10.112   3.494   8.356 -0.1697 -0.0831  0.0798
 2632SOL    HW110149  10.182   3.471   8.416  0.0716 -0.9610 -0.5220
 2632SOL    HW210150  10.123   3.587   8.340 -0.1182  0.1176  1.2355
 2633SOL     OW10151   0.649   8.904   7.263 -0.7125 -0.0660  0.0162
 2633SOL    HW110152   0.577   8.850   7.297  0.0418 -1.5493 -0.6576
 2633SOL    HW210153   0.658   8.876   7.172  2.4461 -1.9080  0.7422
 2634SOL     OW10154  10.346   5.639   7.029  0.2863 -0.1676 -0.2915
 2634SOL    HW110155  10.386   5.685   7.102  0.7622 -1.6675  0.4295
 2634SOL    HW210156  10.419   5.614   6.973 -0.0018  0.2788 -0.8762
 2635SOL     OW10157   5.209   5.695   6.863 -0.3297  0.6195  0.5902
 2635SOL    HW110158   5.161   5.726   6.939 -0.1565  1.9468  0.1899
 2635SOL    HW210159   5.291   5.745   6.864  0.1483 -0.1215  0.1236
 2636SOL     OW10160   9.701   2.589   9.972  0.7247  0.9353  0.3397
 2636SOL    HW110161   9.672   2.573  10.062  0.8393 -1.9189 -0.0448
 2636SOL    HW210162   9.644   2.535   9.918  1.6995  1.3525 -1.1795
 2637SOL     OW10163   6.958   2.992   5.157 -0.7592 -0.3314  0.3137
 2637SOL    HW110164   6.894   2.971   5.089 -1.8400 -0.0067  1.2152
 2637SOL    HW210165   7.037   2.945   5.130 -1.8082 -1.9522 -0.0320
 2638SOL     OW10166   7.630   2.419   6.246 -0.1146 -0.0084  0.1573
 2638SOL    HW110167   7.587   2.491   6.200 -0.4858  0.1931  0.8168
 2638SOL    HW210168   7.690   2.462   6.307 -0.3528 -0.2621  0.5689
 2639SOL     OW10169   9.292  10.246   6.129  0.3796  0.3369 -0.7550
 2639SOL    HW110170   9.315  10.249   6.036 -0.7127 -1.0636 -1.0958
 2639SOL    HW210171   9.228  10.176   6.136  0.1343  0.6890  1.0054
 2640SOL     OW10172   2.023   9.682   8.804  0.2434 -0.4639  0.4563
 2640SOL    HW110173   2.116   9.686   8.784  0.2346 -2.0988 -0.0922
 2640SOL    HW210174   2.015   9.720   8.892  1.6126 -1.3779  1.0144
 2641SOL     OW10175   2.938   1.509   8.430 -0.0526 -0.7251 -0.3952
 2641SOL    HW110176   2.852   1.537   8.460 -0.1533  1.0051 -2.0862
 2641SOL    HW210177   3.000   1.558   8.483 -0.2284  2.2920 -2.7351
 2642SOL     OW10178   1.986   7.444   8.645 -0.1566 -0.0687 -0.5200
 2642SOL    HW110179   2.033   7.523   8.618  0.7547 -0.4031  0.0312
 2642SOL    HW210180   1.993   7.385   8.570 -1.0371  0.4402 -1.0219
 2643SOL     OW10181  10.105   5.321   4.922 -0.1566  0.0341  0.5863
 2643SOL    HW110182  10.068   5.408   4.906 -0.9741 -0.6703 -1.8259
 2643SOL    HW210183  10.031   5.268   4.950 -0.0563 -0.3022  0.2263
 2644SOL     OW10184   3.317   7.438   2.321 -0.1993 -0.4339 -0.4738
 2644SOL    HW110185   3.320   7.471   2.411  0.8955 -0.4036 -0.4980
 2644SOL    HW210186   3.402   7.394   2.310  0.4920  1.1739 -2.0727
 2645SOL     OW10187   1.108   6.039   4.404 -0.4025 -0.4670 -0.1032
 2645SOL    HW110188   1.106   6.077   4.316 -0.5553 -0.6609 -0.1847
 2645SOL    HW210189   1.181   5.977   4.401 -0.2653 -0.3109 -0.0243
 2646SOL     OW10190   5.929   0.959   9.993 -0.2003 -0.5083 -0.5393
 2646SOL    HW110191   6.023   0.970   9.977  0.0545 -1.2455  0.3789
 2646SOL    HW210192   5.893   1.047   9.984  0.5095 -0.2729 -1.2979
 2647SOL     OW10193   4.275   1.695   3.763 -0.0232 -0.2837 -0.2123
 2647SOL    HW110194   4.296   1.777   3.718 -2.0460 -0.8406 -2.3755
 2647SOL    HW210195   4.348   1.637   3.741  0.3521  0.2888 -0.5214
 2648SOL     OW10196   6.825   0.420   0.281  0.2672  0.3130 -0.0646
 2648SOL    HW110197   6.860   0.389   0.364 -0.3440 -1.7694 -0.5218
 2648SOL    HW210198   6.730   0.423   0.294 -0.0821 -2.3554 -1.3031
 2649SOL     OW10199   5.004   1.993   1.945 -0.3053 -0.1809 -0.1077
 2649SOL    HW110200   4.990   2.065   1.885  0.5822 -0.2297 -0.3853
 2649SOL    HW210201   5.082   1.948   1.911 -0.9791 -1.4008 -0.0779
 2650SOL     OW10202   8.607   2.812   1.567 -0.2119  0.0496  0.4570
 2650SOL    HW110203   8.664   2.764   1.628 -1.0386 -0.6069  0.7239
 2650SOL    HW210204   8.545   2.746   1.535 -1.7520  1.0484  1.2782
 2651SOL     OW10205   6.614   6.314   3.709 -0.5037  0.2533 -0.1387
 2651SOL    HW110206   6.651   6.275   3.788  0.9298 -0.0648 -0.9299
 2651SOL    HW210207   6.577   6.239   3.661  1.3740 -0.0649 -1.1907
 2652SOL     OW10208   2.742   5.712   8.397 -0.3301 -0.3624  0.2537
 2652SOL    HW110209   2.724   5.737   8.306  0.2283  1.2159  0.5468
 2652SOL    HW210210   2.656   5.688   8.432 -0.4790 -1.4957 -0.8070
 2653SOL     OW10211   2.452   9.835   5.828  0.8355 -0.1255  0.2101
 2653SOL    HW110212   2.537   9.850   5.785  0.5531  1.7116  0.1785
 2653SOL    HW210213   2.390   9.886   5.776  0.3693  1.6651  2.3653
 2654SOL     OW10214   8.177   8.565   7.034  0.1879  0.0225 -0.3856
 2654SOL    HW110215   8.081   8.565   7.032  0.1217 -2.0240 -0.0968
 2654SOL    HW210216   8.201   8.480   6.996  1.8102 -0.2919  1.2088
 2655SOL     OW10217  10.164   1.702   5.710 -0.1168 -0.0396  0.0795
 2655SOL    HW110218  10.216   1.748   5.645 -0.0869 -0.1979 -0.0085
 2655SOL    HW210219  10.169   1.757   5.788 -0.4033  0.3030 -0.1410
 2656SOL     OW10220   2.624   7.637   1.519  0.2391  0.1234  0.0173
 2656SOL    HW110221   2.675   7.678   1.589  0.3937  2.4166 -1.3455
 2656SOL    HW210222   2.554   7.699   1.501  0.1153 -0.4768 -1.7504
 2657SOL     OW10223   8.561  10.604   9.745 -0.3104 -0.0455 -0.3667
 2657SOL    HW110224   8.562  10.658   9.824 -0.1246  0.2861 -0.5964
 2657SOL    HW210225   8.636  10.545   9.755 -0.4122 -0.1483 -0.1980
 2658SOL     OW10226   2.524   5.887   9.673 -0.3699  0.3499  0.4040
 2658SOL    HW110227   2.560   5.827   9.738 -2.0875  1.5751  2.6205
 2658SOL    HW210228   2.436   5.907   9.705 -0.7618  2.1008 -1.5782
 2659SOL     OW10229   8.134   9.864   3.052 -0.0838 -0.0335 -0.4061
 2659SOL    HW110230   8.224   9.896   3.062  0.7611 -2.0023 -1.2209
 2659SOL    HW210231   8.139   9.771   3.075 -2.4283  0.3217  1.9079
 2660SOL     OW10232   6.770   4.754   9.417  0.3722  0.5123  0.3802
 2660SOL    HW110233   6.813   4.669   9.432  0.2889  0.4094  0.0485
 2660SOL    HW210234   6.681   4.731   9.392  0.6249  0.6648 -0.6748
 2661SOL     OW10235   0.747   6.086   6.194  0.3399 -0.0908  0.1698
 2661SOL    HW110236   0.728   6.064   6.103  0.0482 -0.8265  0.3989
 2661SOL    HW210237   0.784   6.174   6.190  1.1974 -0.4710 -0.7532
 2662SOL     OW10238   3.563   7.259   6.362  0.7368 -0.2174 -0.3994
 2662SOL    HW110239   3.514   7.226   6.437  1.8261 -1.2992 -0.1448
 2662SOL    HW210240   3.548   7.354   6.364  1.3129 -0.1272  1.5956
 2663SOL     OW10241   3.554   6.821   4.568  0.1444 -0.4357 -0.0687
 2663SOL    HW110242   3.487   6.823   4.636  0.1100 -2.1658 -0.0072
 2663SOL    HW210243   3.506   6.812   4.486  0.2774 -1.9157 -0.0054
 2664SOL     OW10244   3.464  10.425   6.317 -0.5389  0.1319  0.4875
 2664SOL    HW110245   3.377  10.387   6.311 -0.8348  0.6582  1.2517
 2664SOL    HW210246   3.509  10.372   6.382  0.7284 -1.9689 -1.9289
 2665SOL     OW10247   8.216   3.999   0.355 -0.0230 -0.5103 -0.7853
 2665SOL    HW110248   8.209   4.092   0.376  0.0725 -0.1215 -2.3304
 2665SOL    HW210249   8.162   3.956   0.421 -0.5979  0.6967 -0.4249
 2666SOL     OW10250   8.820  10.419   6.885  0.2770  0.4044 -0.0233
 2666SOL    HW110251   8.858  10.331   6.888 -1.1158 -0.3403 -2.1419
 2666SOL    HW210252   8.754  10.419   6.955  1.6546  0.5051  1.3214
 2667SOL     OW10253   4.704   3.237   6.846 -0.6298  0.2486  0.4390
 2667SOL    HW110254   4.639   3.281   6.900  0.5111 -0.4086  2.4670
 2667SOL    HW210255   4.681   3.144   6.852 -0.3815  0.1531 -0.0606
 2668SOL     OW10256   4.615   0.945   2.199  0.3149 -0.6349  0.4741
 2668SOL    HW110257   4.686   0.955   2.136  0.7332 -0.2128  0.9943
 2668SOL    HW210258   4.536   0.937   2.146  0.6620 -0.3006 -0.1023
 2669SOL     OW10259   2.717   7.938   2.987 -0.5431 -0.8848 -0.1241
 2669SOL    HW110260   2.795   7.910   2.940  0.0750 -0.4071  0.5991
 2669SOL    HW210261   2.697   8.025   2.952 -0.6604 -0.9382 -0.1918
 2670SOL     OW10262   4.821   3.276   2.032  1.0064 -0.9563  0.1373
 2670SOL    HW110263   4.850   3.187   2.050 -0.6683 -1.6829 -0.5592
 2670SOL    HW210264   4.732   3.280   2.066  1.0421  0.4548  0.1360
 2671SOL     OW10265   5.501   7.704   2.429  0.0189  0.2761  0.1048
 2671SOL    HW110266   5.554   7.685   2.352 -0.9038 -0.7437 -0.2973
 2671SOL    HW210267   5.565   7.724   2.498  1.0093 -2.1644 -0.0320
 2672SOL     OW10268   7.567   6.335   4.380  0.0422 -0.4424  0.1422
 2672SOL    HW110269   7.480   6.369   4.402  1.2115  1.0101  3.0676
 2672SOL    HW210270   7.577   6.258   4.436  1.3266  0.5971  1.4428
 2673SOL     OW10271   7.304   0.617   5.437  0.7591  0.6003 -0.0246
 2673SOL    HW110272   7.259   0.680   5.381  1.1694  1.5876  0.7328
 2673SOL    HW210273   7.264   0.533   5.415 -2.2098  1.5393  1.3029
 2674SOL     OW10274   7.137  10.098   0.607 -0.1704  0.4638  0.5419
 2674SOL    HW110275   7.134  10.095   0.703 -2.0351  0.8965  0.5384
 2674SOL    HW210276   7.045  10.099   0.580  0.3181  0.1525 -1.2715
 2675SOL     OW10277   8.935   0.623   9.927  0.1592  0.0364  0.7557
 2675SOL    HW110278   8.958   0.714   9.907 -0.6789  0.0084 -0.4493
 2675SOL    HW210279   8.986   0.571   9.865 -0.4164 -0.2233  0.4914
 2676SOL     OW10280   9.533   7.081   7.627 -0.5493  0.1963 -0.4359
 2676SOL    HW110281   9.530   7.153   7.564  1.5167 -0.4041 -1.3027
 2676SOL    HW210282   9.626   7.057   7.633 -1.0656 -1.8871  0.4008
 2677SOL     OW10283   7.205   8.006   1.710 -0.1401 -0.3104 -0.4350
 2677SOL    HW110284   7.209   7.912   1.696  0.7041 -0.2844 -0.4029
 2677SOL    HW210285   7.149   8.017   1.787  1.3576 -0.9141  0.7790
 2678SOL     OW10286   6.260   5.048   9.594 -0.1276  0.2219 -0.1932
 2678SOL    HW110287   6.282   5.055   9.687  1.6336 -0.1681 -0.5391
 2678SOL    HW210288   6.279   4.956   9.573  1.1591  0.7187 -1.3070
 2679SOL     OW10289   9.578   8.847   8.355 -0.0975 -0.0354 -0.1458
 2679SOL    HW110290   9.506   8.819   8.299 -0.1462 -0.9399  0.3524
 2679SOL    HW210291   9.545   8.925   8.400  0.2809  1.3082 -2.0614
 2680SOL     OW10292   0.822   2.802   8.659 -0.1227  0.0722 -0.1012
 2680SOL    HW110293   0.742   2.847   8.629  0.0233 -0.6698 -1.6860
 2680SOL    HW210294   0.792   2.745   8.730 -0.8521  0.4107 -0.1254
 2681SOL     OW10295   5.548   6.769   3.958  0.1316  0.2309 -0.6450
 2681SOL    HW110296   5.515   6.833   3.895 -0.5465 -0.5367 -1.0862
 2681SOL    HW210297   5.473   6.750   4.014  1.2017  2.3633  1.7039
 2682SOL     OW10298   6.903   8.350   5.800 -0.0108  0.4234  0.2362
 2682SOL    HW110299   6.840   8.324   5.868  1.5078 -1.3186  1.0942
 2682SOL    HW210300   6.855   8.343   5.718 -1.4309  0.9273  1.0002
 2683SOL     OW10301  10.081   4.281   5.458 -0.1835  0.3138 -0.4546
 2683SOL    HW110302  10.123   4.217   5.515  0.2445  2.0871  1.3573
 2683SOL    HW210303  10.016   4.231   5.409 -0.1567 -1.4218  1.1646
 2684SOL     OW10304   7.183   3.987   2.210  0.1066  0.2574  0.0108
 2684SOL    HW110305   7.179   4.082   2.196  0.1821  0.0032 -2.0384
 2684SOL    HW210306   7.096   3.956   2.189  0.5412 -0.2950 -1.0729
 2685SOL     OW10307   5.740   4.276   5.794 -0.2498  0.3372 -0.1781
 2685SOL    HW110308   5.658   4.297   5.749 -0.6617 -1.6464 -0.4620
 2685SOL    HW210309   5.732   4.183   5.816  0.7055  0.7949  2.4207
 2686SOL     OW10310   2.722   2.963   6.725  0.2259  0.2778 -0.0546
 2686SOL    HW110311   2.652   2.897   6.723 -0.6482  1.1381 -2.7138
 2686SOL    HW210312   2.784   2.934   6.658 -0.9558  2.7831 -2.4355
 2687SOL     OW10313   4.513   2.885   2.450  0.0357  0.5878  0.2164
 2687SOL    HW110314   4.480   2.840   2.528  1.7894 -1.0853  0.0635
 2687SOL    HW210315   4.436   2.896   2.394 -0.4060 -3.3660 -0.2318
 2688SOL     OW10316   2.022   9.537   9.242 -0.1919  0.3360  0.0184
 2688SOL    HW110317   2.076   9.583   9.178 -1.8274  2.5974  0.1312
 2688SOL    HW210318   1.943   9.514   9.194 -0.3126 -0.3936  0.5513
 2689SOL     OW10319   2.887   3.135   9.612 -0.0121  0.8777  0.0856
 2689SOL    HW110320   2.886   3.179   9.527 -1.0154  0.4956 -0.1119
 2689SOL    HW210321   2.855   3.047   9.594 -2.0603  1.3434  1.1341
 2690SOL     OW10322   9.083   3.889   7.384 -0.5524  0.1017 -0.1796
 2690SOL    HW110323   9.021   3.827   7.421 -0.4348  1.0320  1.6841
 2690SOL    HW210324   9.133   3.837   7.320 -0.9490 -1.5409  0.7666
 2691SOL     OW10325   6.783   1.129   0.790 -0.0955  0.1042 -0.1668
 2691SOL    HW110326   6.725   1.056   0.816  1.2374 -0.7313  0.5907
 2691SOL    HW210327   6.790   1.121   0.695 -1.6303  0.5480 -0.3402
 2692SOL     OW10328   4.975   9.184   5.721 -0.7880 -0.3197  0.2386
 2692SOL    HW110329   5.013   9.267   5.694  0.0479 -1.0868 -1.0884
 2692SOL    HW210330   4.888   9.206   5.754  0.1031  1.2764  1.6903
 2693SOL     OW10331   8.035   3.336   8.919 -0.0225 -0.4876 -0.1890
 2693SOL    HW110332   8.019   3.386   8.999  0.6563  0.6759 -0.7526
 2693SOL    HW210333   8.091   3.263   8.947  0.7828  0.2926  0.3023
 2694SOL     OW10334   4.893   7.297   5.098  0.6546  0.4394  0.2637
 2694SOL    HW110335   4.817   7.287   5.040  1.1986 -3.4553 -0.0257
 2694SOL    HW210336   4.855   7.306   5.185 -0.2254 -0.9209  0.0577
 2695SOL     OW10337   0.491   6.622   1.454  0.6052 -0.0353 -0.1021
 2695SOL    HW110338   0.413   6.662   1.493 -0.4454 -1.9532 -0.0721
 2695SOL    HW210339   0.488   6.531   1.484  1.7223 -0.6679 -1.7844
 2696SOL     OW10340   6.251   5.886   3.709  0.0362 -0.6225 -0.4482
 2696SOL    HW110341   6.244   5.842   3.625 -1.3734  0.4330 -0.9192
 2696SOL    HW210342   6.166   5.875   3.750  0.2576  0.0607  0.2341
 2697SOL     OW10343   2.112   5.672   1.813 -0.2067  0.0356  0.2531
 2697SOL    HW110344   2.099   5.581   1.839 -1.5454  0.0480 -0.3178
 2697SOL    HW210345   2.025   5.703   1.789  0.3454  1.2537 -0.2576
 2698SOL     OW10346   5.882   8.708   6.124 -0.1325  0.5206  0.9191
 2698SOL    HW110347   5.811   8.674   6.070 -0.1230  1.0094  0.5936
 2698SOL    HW210348   5.954   8.646   6.111 -0.4519  0.0936  1.1514
 2699SOL     OW10349   6.768   3.472   5.683  0.0929 -0.3622 -0.4421
 2699SOL    HW110350   6.829   3.545   5.698  2.1369 -2.1084  0.3289
 2699SOL    HW210351   6.750   3.438   5.771 -1.6701 -0.1941 -0.7081
 2700SOL     OW10352   7.440   2.207   5.656  0.6088 -0.1180  0.1736
 2700SOL    HW110353   7.384   2.174   5.727  0.8006 -1.1014 -0.1160
 2700SOL    HW210354   7.480   2.129   5.619  1.8851  0.5337  0.1257
 2701SOL     OW10355   9.025   4.919  10.150  0.5351 -0.1482  0.0407
 2701SOL    HW110356   9.063   4.989  10.098  2.5676 -1.0439  0.2545
 2701SOL    HW210357   8.969   4.965  10.214  0.1440  1.1082 -1.1644
 2702SOL     OW10358   1.309   4.967   0.554  0.3821  0.5740 -0.4304
 2702SOL    HW110359   1.315   4.871   0.556 -1.8048  0.3082  3.4375
 2702SOL    HW210360   1.395   4.997   0.582  0.4424 -0.4492  0.5753
 2703SOL     OW10361   4.957   4.468  10.224 -0.6015  0.3998 -0.0174
 2703SOL    HW110362   4.875   4.507  10.194 -0.3947  1.8989  1.2637
 2703SOL    HW210363   5.022   4.539  10.214  1.0955 -1.3425 -3.0691
 2704SOL     OW10364   9.784  10.233   4.936  0.0424 -0.0270  0.0166
 2704SOL    HW110365   9.788  10.266   4.847 -0.5197 -0.0368 -0.0145
 2704SOL    HW210366   9.833  10.151   4.933 -1.4556 -0.9384 -0.7070
 2705SOL     OW10367   6.190   9.296   2.880  0.3059 -0.9272  0.0608
 2705SOL    HW110368   6.234   9.239   2.816  0.0654 -2.2883  1.0644
 2705SOL    HW210369   6.256   9.312   2.947 -0.0293 -1.1300  0.4452
 2706SOL     OW10370   2.992   1.651  10.220  0.4375  0.1546  0.2156
 2706SOL    HW110371   3.053   1.708  10.265  0.6128  1.2961 -1.3628
 2706SOL    HW210372   2.955   1.595  10.288  0.5007  1.9311  1.7701
 2707SOL     OW10373   2.630   9.548   0.126 -0.1610  0.5609 -0.8489
 2707SOL    HW110374   2.688   9.476   0.148 -1.2844  0.2415  1.3107
 2707SOL    HW210375   2.682   9.627   0.141 -0.0325  0.2640  0.3167
 2708SOL     OW10376   1.825  10.336   4.461  0.2121 -0.1894  0.1645
 2708SOL    HW110377   1.829  10.427   4.431 -2.4249  0.0384  0.3224
 2708SOL    HW210378   1.887  10.332   4.534 -0.2584  1.7067  0.7100
 2709SOL     OW10379   7.887   8.365   9.463 -0.2780  0.1574 -0.1462
 2709SOL    HW110380   7.793   8.378   9.454 -0.1785  0.1336 -1.3229
 2709SOL    HW210381   7.913   8.422   9.535 -0.9925  1.0891 -0.6195
 2710SOL     OW10382   5.561   6.642   4.359 -0.5836 -0.4077  0.1105
 2710SOL    HW110383   5.485   6.699   4.374 -1.7061 -2.3484  2.7234
 2710SOL    HW210384   5.636   6.696   4.383 -1.1859  1.2368 -1.5284
 2711SOL     OW10385   3.120   6.173   2.226 -0.3978 -0.2554 -0.2454
 2711SOL    HW110386   3.087   6.113   2.294  2.0289 -0.0787  1.2058
 2711SOL    HW210387   3.058   6.246   2.227 -0.1153  0.0671  2.3411
 2712SOL     OW10388   4.990   3.807   8.423  0.1663  0.5242 -0.1403
 2712SOL    HW110389   4.915   3.867   8.417  1.7603  2.6973  0.3229
 2712SOL    HW210390   4.995   3.766   8.337 -2.0064 -0.3259  0.0692
 2713SOL     OW10391   6.266   3.045   8.235  0.2338  0.1519 -0.0242
 2713SOL    HW110392   6.177   3.080   8.238  0.0166 -0.3532 -0.5410
 2713SOL    HW210393   6.284   3.033   8.142  1.4339  1.7388 -0.0481
 2714SOL     OW10394   3.082   2.576   7.167  0.1222  0.4589 -0.2772
 2714SOL    HW110395   3.047   2.523   7.096 -2.4650  1.2611  0.2819
 2714SOL    HW210396   3.115   2.655   7.125  0.6167 -0.0033 -0.7651
 2715SOL     OW10397   8.439   5.548   1.409  1.1558 -0.6080 -0.4692
 2715SOL    HW110398   8.480   5.615   1.353  0.6605  0.1934  0.1041
 2715SOL    HW210399   8.503   5.477   1.411  1.7010 -0.1595 -1.0907
 2716SOL     OW10400   9.443   6.904   0.088  1.0038  0.2521  0.0309
 2716SOL    HW110401   9.448   6.833   0.153  1.1788  0.5292  0.3255
 2716SOL    HW210402   9.382   6.872   0.022  0.0870  0.3412  0.8129
 2717SOL     OW10403   9.639   7.631   1.089  0.2500  0.4611  0.5065
 2717SOL    HW110404   9.639   7.542   1.056  1.0894  1.6114 -2.9776
 2717SOL    HW210405   9.685   7.625   1.173 -0.2653 -2.4031  0.6899
 2718SOL     OW10406   6.524   3.064   1.137 -0.5354  0.0576 -0.0922
 2718SOL    HW110407   6.437   3.061   1.179 -0.1823 -1.5003  0.5703
 2718SOL    HW210408   6.553   3.155   1.150 -1.6358  0.3367  0.5526
 2719SOL     OW10409   2.455   7.765   0.065  0.2570  0.6621 -0.8027
 2719SOL    HW110410   2.550   7.761   0.079  0.2339  1.2653 -0.4156
 2719SOL    HW210411   2.435   7.686   0.015  0.6437 -0.6337  0.9797
 2720SOL     OW10412   3.864   5.644   4.325 -0.2522 -0.4354 -0.0582
 2720SOL    HW110413   3.926   5.571   4.328  1.1024  0.7013  2.1321
 2720SOL    HW210414   3.846   5.664   4.417 -2.0463  0.8027 -0.6382
 2721SOL     OW10415   5.045   9.508   9.845  0.2578 -0.1789 -0.3390
 2721SOL    HW110416   4.981   9.534   9.778  0.4748 -1.4803 -1.0890
 2721SOL    HW210417   5.036   9.413   9.850  2.1101 -0.3876 -0.4338
 2722SOL     OW10418   6.215   4.041   9.873 -0.1913 -0.3976 -0.2225
 2722SOL    HW110419   6.142   3.982   9.892  0.3388 -0.5510  1.5293
 2722SOL    HW210420   6.181   4.128   9.892 -0.1955 -0.3872 -0.2784
 2723SOL     OW10421   9.311   9.800   7.411  0.0531 -0.0322  0.4575
 2723SOL    HW110422   9.257   9.729   7.378  0.5809  0.1317 -0.7942
 2723SOL    HW210423   9.352   9.764   7.490 -1.2122 -0.4349  0.9485
 2724SOL     OW10424   2.518   3.507   4.292 -0.0369  0.4641 -0.1539
 2724SOL    HW110425   2.518   3.414   4.316  1.9725  0.8330  1.6104
 2724SOL    HW210426   2.434   3.540   4.322 -1.5851 -1.0905 -2.4572
 2725SOL     OW10427  10.333   5.469   6.732  0.3424 -0.1007 -0.7932
 2725SOL    HW110428  10.252   5.423   6.757 -0.1227  0.7644 -0.6573
 2725SOL    HW210429  10.307   5.526   6.660  0.0167  2.5747  1.2709
 2726SOL     OW10430   4.954   9.545   0.792 -0.2398  0.1736  0.5135
 2726SOL    HW110431   4.970   9.518   0.702 -0.4981  1.7416 -0.0300
 2726SOL    HW210432   5.018   9.615   0.808 -0.2057 -0.0765  1.5445
 2727SOL     OW10433   4.471   2.134   5.942  0.2222  0.3298  0.0817
 2727SOL    HW110434   4.416   2.111   5.867 -2.1399  0.3400  1.6906
 2727SOL    HW210435   4.521   2.211   5.913 -2.9157  2.2925 -0.6102
 2728SOL     OW10436   5.785   8.269   1.203  0.1558  0.1415 -0.3473
 2728SOL    HW110437   5.809   8.309   1.119 -1.0387  0.1540 -0.6987
 2728SOL    HW210438   5.868   8.241   1.241  0.7293  0.2828 -1.4658
 2729SOL     OW10439   1.575   2.450   6.974 -0.0479  0.6773 -0.5737
 2729SOL    HW110440   1.670   2.450   6.981  0.0171  2.0695 -1.0686
 2729SOL    HW210441   1.545   2.404   7.052  0.9299  4.1753  2.1558
 2730SOL     OW10442   8.387   5.465   7.034  0.0693  0.0715  0.0765
 2730SOL    HW110443   8.375   5.479   7.128  1.5574 -0.0372  0.3120
 2730SOL    HW210444   8.412   5.551   7.000 -0.4114  0.0981 -0.2180
 2731SOL     OW10445   9.789   7.768   2.230 -0.1585  0.4522  0.3908
 2731SOL    HW110446   9.724   7.703   2.204 -1.4353  1.7071  0.3459
 2731SOL    HW210447   9.854   7.767   2.160 -0.7184 -0.0292 -0.1307
 2732SOL     OW10448   9.484   9.013   4.668  0.0226 -0.3062 -0.0336
 2732SOL    HW110449   9.478   9.090   4.725  0.2920 -0.2419 -0.0900
 2732SOL    HW210450   9.408   8.960   4.692  0.6080 -0.6926  1.0151
 2733SOL     OW10451   3.059   2.717   1.300 -0.4969  0.0733 -0.1279
 2733SOL    HW110452   3.069   2.749   1.211 -0.8808  3.0786  0.7804
 2733SOL    HW210453   3.083   2.792   1.355 -0.5658 -1.5623  2.3031
 2734SOL     OW10454   2.276   7.867   8.202  0.1056  0.3208 -0.1251
 2734SOL    HW110455   2.222   7.798   8.162 -0.1546  1.1066 -1.1807
 2734SOL    HW210456   2.363   7.829   8.207 -0.4201 -0.7930  1.1361
 2735SOL     OW10457   0.001   1.315   1.674  0.6801  0.7330  0.1740
 2735SOL    HW110458   0.088   1.276   1.689  0.0012 -0.6554  0.6961
 2735SOL    HW210459   0.006   1.351   1.585  0.9035 -1.9523 -0.9924
 2736SOL     OW10460   3.482   1.914   6.444  0.2528 -0.3458 -0.5225
 2736SOL    HW110461   3.458   1.968   6.368  1.8812 -0.4198 -1.1149
 2736SOL    HW210462   3.400   1.870   6.467 -0.2778 -0.4072 -2.3120
 2737SOL     OW10463   2.159   9.638   4.195  0.2224 -0.8040 -0.1255
 2737SOL    HW110464   2.228   9.702   4.213 -0.2981 -0.1858 -0.2967
 2737SOL    HW210465   2.161   9.626   4.100  2.9537 -4.0459  0.1480
 2738SOL     OW10466  10.437   1.169   7.121  0.1428 -0.1833 -0.0657
 2738SOL    HW110467  10.493   1.233   7.164 -1.2105  0.8455  0.2217
 2738SOL    HW210468  10.414   1.106   7.189  0.1156 -0.0250  0.0709
 2739SOL     OW10469   0.888   6.788   0.241  0.2436  0.2807 -0.5630
 2739SOL    HW110470   0.898   6.704   0.284  3.0953  0.6804 -0.2804
 2739SOL    HW210471   0.842   6.843   0.305  0.9239 -0.2453  0.3831
 2740SOL     OW10472   1.822   1.787   0.245  0.6222 -0.6420 -0.5036
 2740SOL    HW110473   1.793   1.867   0.202  0.1316 -1.4879 -1.8293
 2740SOL    HW210474   1.846   1.814   0.333 -0.6207  0.7639 -0.5521
 2741SOL     OW10475   8.757  10.087   0.682 -0.4152 -0.1405 -0.1197
 2741SOL    HW110476   8.781  10.144   0.609  1.5252  0.1089  0.6698
 2741SOL    HW210477   8.820  10.016   0.679  0.1409  0.2308  1.7145
 2742SOL     OW10478   9.739   8.652   8.432 -0.5049 -0.1808  0.3654
 2742SOL    HW110479   9.812   8.712   8.422 -0.8698  0.0415 -1.1940
 2742SOL    HW210480   9.663   8.702   8.401 -0.6831 -1.7003 -1.8283
 2743SOL     OW10481   1.249   0.879   6.181  0.0763  0.4156  0.4003
 2743SOL    HW110482   1.175   0.881   6.120  0.4027  1.3550  0.0277
 2743SOL    HW210483   1.301   0.804   6.153 -1.3534 -1.0628  1.4394
 2744SOL     OW10484  10.490   1.689   6.139 -1.0183 -0.2292  0.3703
 2744SOL    HW110485  10.562   1.732   6.093 -0.1037 -0.7951  1.2192
 2744SOL    HW210486  10.439   1.647   6.071 -1.4219  1.4289 -0.3952
 2745SOL     OW10487   4.602   0.808   9.024 -0.0525 -0.2900  0.7023
 2745SOL    HW110488   4.636   0.871   8.960  1.4093 -0.6775  1.0561
 2745SOL    HW210489   4.641   0.724   8.999 -2.6320 -1.2903 -0.2526
 2746SOL     OW10490   4.987  10.091   9.789  0.1351  0.0680  0.1829
 2746SOL    HW110491   4.925  10.060   9.855 -1.0719  1.4950 -0.2188
 2746SOL    HW210492   4.962  10.044   9.709 -1.8422  2.0535 -0.4836
 2747SOL     OW10493   8.944   9.072   0.099 -0.7454  0.3258 -0.0635
 2747SOL    HW110494   8.893   9.153   0.091 -0.4002  0.5449 -0.0469
 2747SOL    HW210495   8.964   9.046   0.009 -0.2503  0.6401 -0.0413
 2748SOL     OW10496   7.569   5.545   0.955  0.2386  0.0501 -0.3701
 2748SOL    HW110497   7.545   5.509   0.869  1.0183 -1.2652 -0.0712
 2748SOL    HW210498   7.659   5.515   0.969 -0.3185 -0.9157  1.4688
 2749SOL     OW10499   8.270   7.304   3.547  0.2221  0.5529 -0.0465
 2749SOL    HW110500   8.279   7.283   3.640  1.5765 -1.4162 -0.5550
 2749SOL    HW210501   8.180   7.334   3.538  0.2655  1.4653  1.9989
 2750SOL     OW10502   8.901   3.603   6.562 -0.4989 -0.2523  0.3555
 2750SOL    HW110503   8.895   3.677   6.502 -1.6048 -0.8780 -0.3442
 2750SOL    HW210504   8.992   3.604   6.593  1.3287 -1.9352 -4.0744
 2751SOL     OW10505   9.858   4.888   9.113  0.3941  0.1565 -0.0005
 2751SOL    HW110506   9.835   4.954   9.178  0.4603 -1.6867  1.9789
 2751SOL    HW210507   9.951   4.904   9.095  0.6052  0.1531  1.0307
 2752SOL     OW10508   3.797   3.060   0.254 -0.0824  0.6232  0.1630
 2752SOL    HW110509   3.726   3.040   0.193 -0.4471 -1.5815  1.1980
 2752SOL    HW210510   3.755   3.111   0.323 -0.8925 -1.1000  1.0326
 2753SOL     OW10511   3.280   0.673   5.061 -0.5958  0.1168 -0.2754
 2753SOL    HW110512   3.218   0.717   5.120 -2.0236 -0.3181 -1.3859
 2753SOL    HW210513   3.356   0.731   5.059 -0.5739  0.2491  1.8002
 2754SOL     OW10514   8.207   3.788   4.459 -0.0310 -0.0779  0.0771
 2754SOL    HW110515   8.260   3.752   4.387  0.3577 -0.1405  0.3893
 2754SOL    HW210516   8.120   3.800   4.421  0.3136  0.4479 -0.5744
 2755SOL     OW10517   6.949   0.144   5.282 -0.5300  0.2600  0.0770
 2755SOL    HW110518   7.003   0.208   5.328  1.0425 -0.8292 -0.1939
 2755SOL    HW210519   6.998   0.063   5.287 -2.1573 -0.7804 -0.2000
 2756SOL     OW10520   5.035   0.805   5.543 -0.5308  0.3361  0.0371
 2756SOL    HW110521   5.060   0.820   5.452  1.6563 -0.6831  0.4055
 2756SOL    HW210522   5.086   0.870   5.593 -0.4206 -0.2067  0.6444
 2757SOL     OW10523   7.598   1.815   8.284  0.5635  0.4445 -0.2113
 2757SOL    HW110524   7.615   1.903   8.319  1.8035  0.5330 -0.9835
 2757SOL    HW210525   7.673   1.797   8.227  0.1369 -0.9702 -0.3571
 2758SOL     OW10526  10.016   0.725   1.081 -0.5604 -0.3620  0.2279
 2758SOL    HW110527   9.974   0.809   1.098 -1.6256 -0.6772 -0.7509
 2758SOL    HW210528  10.110   0.742   1.094 -0.8342  0.7579  0.8466
 2759SOL     OW10529   0.368   9.364   0.932  0.2053  0.7611  0.1844
 2759SOL    HW110530   0.415   9.351   0.849 -0.9461  3.3666 -0.9814
 2759SOL    HW210531   0.284   9.402   0.907 -0.7423  0.3592  2.4921
 2760SOL     OW10532   2.753   9.504  10.314 -0.3828 -0.1680 -0.0865
 2760SOL    HW110533   2.822   9.550  10.362  1.1925 -3.1001  0.7537
 2760SOL    HW210534   2.679   9.502  10.375  0.0046  0.0700  0.3995
 2761SOL     OW10535   0.270   3.873   1.734 -0.0280 -0.4245  0.7402
 2761SOL    HW110536   0.193   3.833   1.693 -0.0738 -0.1051  0.5159
 2761SOL    HW210537   0.267   3.843   1.825 -1.1986  0.7314  1.0983
 2762SOL     OW10538   8.950  10.048   8.849  0.0662 -0.7713 -0.0116
 2762SOL    HW110539   8.986  10.001   8.774 -0.5426  0.0515 -0.8473
 2762SOL    HW210540   8.877   9.993   8.878 -0.1485 -0.7443 -0.4848
 2763SOL     OW10541  10.233   1.139   4.760  0.5434  0.1035  0.1201
 2763SOL    HW110542  10.201   1.090   4.684  0.4923 -1.1247  0.9128
 2763SOL    HW210543  10.154   1.169   4.804  0.5399 -0.4482  0.4922
 2764SOL     OW10544   5.259   5.507   3.338  0.0695 -0.2066  0.1435
 2764SOL    HW110545   5.346   5.505   3.377  0.2273 -1.2003 -0.2337
 2764SOL    HW210546   5.222   5.591   3.365  0.8332 -0.1317  0.9775
 2765SOL     OW10547   0.157   3.829   8.576  0.2654 -0.4775 -0.5579
 2765SOL    HW110548   0.174   3.749   8.527 -0.8385 -0.4640 -1.0039
 2765SOL    HW210549   0.226   3.832   8.643 -0.6382 -2.7074  0.5977
 2766SOL     OW10550   2.508   0.568   7.165 -0.1088  0.2920  0.1877
 2766SOL    HW110551   2.519   0.511   7.089 -1.4397 -0.3837  0.4676
 2766SOL    HW210552   2.550   0.520   7.237  1.2083  0.9614 -0.1087
 2767SOL     OW10553   8.941   4.921   0.428 -0.1588 -0.0521 -0.1924
 2767SOL    HW110554   9.031   4.910   0.400 -0.3902 -1.7402 -0.3915
 2767SOL    HW210555   8.947   4.936   0.523  0.2759 -2.0170  0.1283
 2768SOL     OW10556   4.952   7.027   5.140  0.0246  0.4374 -0.7735
 2768SOL    HW110557   5.006   7.104   5.121 -1.8330  2.1223  0.3059
 2768SOL    HW210558   4.899   7.054   5.215 -2.6106 -0.9474 -2.0353
 2769SOL     OW10559   6.934   6.382   8.424 -0.1772  0.0665 -0.0114
 2769SOL    HW110560   6.985   6.321   8.371  1.0044  1.0237 -0.0184
 2769SOL    HW210561   6.870   6.327   8.469 -0.3484 -0.9394 -1.4020
 2770SOL     OW10562   8.538   7.326   2.025  0.1341 -0.1598  0.0994
 2770SOL    HW110563   8.482   7.341   2.101  2.0928 -1.4061  1.9024
 2770SOL    HW210564   8.611   7.386   2.037  0.3592 -0.2161 -0.9192
 2771SOL     OW10565   5.845   0.915   7.524  0.1427  0.0284  0.3098
 2771SOL    HW110566   5.907   0.902   7.596  0.7920 -0.6551 -0.3495
 2771SOL    HW210567   5.886   0.870   7.449 -1.2022 -0.5353 -0.1162
 2772SOL     OW10568   0.013   7.825   2.840  0.4502  0.4401  0.5064
 2772SOL    HW110569   0.004   7.878   2.761 -0.1229 -0.9996 -0.4330
 2772SOL    HW210570  -0.014   7.884   2.911 -1.6033  1.0059 -0.6360
 2773SOL     OW10571   8.953   3.000   9.850  0.1871  0.0665  0.8187
 2773SOL    HW110572   8.947   3.030   9.759  0.5132  1.0803  1.1238
 2773SOL    HW210573   8.919   3.073   9.902 -0.6716 -0.7716  1.4796
 2774SOL     OW10574   7.992   0.827   7.618 -0.0879 -0.4378 -0.1328
 2774SOL    HW110575   8.023   0.808   7.706  1.5070 -1.5281 -0.8827
 2774SOL    HW210576   8.064   0.801   7.561 -0.2916  2.0206 -1.6718
 2775SOL     OW10577   4.864   8.224   5.893 -0.1872  0.1096  0.0852
 2775SOL    HW110578   4.818   8.273   5.961  0.0775  1.2429 -0.5368
 2775SOL    HW210579   4.946   8.271   5.880 -0.3472  0.0752 -1.1940
 2776SOL     OW10580   5.167   3.887   6.501 -0.1605 -0.2256 -0.2094
 2776SOL    HW110581   5.071   3.886   6.505 -0.1182 -0.7744  1.1625
 2776SOL    HW210582   5.192   3.794   6.503  0.4105 -0.0844 -0.5061
 2777SOL     OW10583   1.239   5.430   8.397 -0.8168  0.1915  0.3214
 2777SOL    HW110584   1.236   5.374   8.319 -0.8977 -0.6729  0.9333
 2777SOL    HW210585   1.241   5.369   8.470  0.6227  0.9842  0.9707
 2778SOL     OW10586   4.610   0.742   3.643  0.3922 -0.1128  0.0757
 2778SOL    HW110587   4.630   0.803   3.715 -1.5041  1.9150 -0.9997
 2778SOL    HW210588   4.693   0.697   3.626  1.7317  1.7153  1.3680
 2779SOL     OW10589   6.369   7.523   6.103 -0.1444  1.1154 -0.1402
 2779SOL    HW110590   6.320   7.585   6.157  1.9326  1.2533  1.7644
 2779SOL    HW210591   6.448   7.505   6.154  1.3524  0.2200 -2.5997
 2780SOL     OW10592   2.413   1.679   1.289 -0.0568  0.8124  0.3873
 2780SOL    HW110593   2.334   1.684   1.343 -0.2351  0.1447  0.1953
 2780SOL    HW210594   2.400   1.745   1.220 -1.7908 -1.2365 -1.3820
 2781SOL     OW10595   8.031   5.101   4.248 -0.2067 -0.1600 -0.0403
 2781SOL    HW110596   8.060   5.166   4.184 -1.5758 -0.2869 -0.8243
 2781SOL    HW210597   7.989   5.153   4.317 -1.7797 -0.2154 -0.9264
 2782SOL     OW10598  10.317   3.168   2.568  0.6720  0.4682  0.3323
 2782SOL    HW110599  10.270   3.120   2.637 -0.8401 -0.3839 -1.2150
 2782SOL    HW210600  10.365   3.100   2.520  0.2208  0.7782 -0.5725
 2783SOL     OW10601   6.677   2.836   0.538  0.7274 -0.3840  0.4983
 2783SOL    HW110602   6.695   2.804   0.626  0.6983 -0.2343  0.5596
 2783SOL    HW210603   6.581   2.839   0.533  0.7298  0.1496  0.6639
 2784SOL     OW10604   8.014   5.881   9.386  0.3719  0.1477 -0.5955
 2784SOL    HW110605   8.055   5.965   9.363  1.9916 -0.3222  0.3778
 2784SOL    HW210606   7.955   5.903   9.459  0.1927  0.5606 -0.8603
 2785SOL     OW10607   0.704  10.374   2.699 -0.3682 -0.4354 -0.5024
 2785SOL    HW110608   0.721  10.284   2.725 -0.0991  0.1378  1.4998
 2785SOL    HW210609   0.618  10.393   2.735  0.2953  0.6127  0.5821
 2786SOL     OW10610   8.123   1.741   3.378  0.9447 -0.5711  0.3538
 2786SOL    HW110611   8.043   1.783   3.348 -0.7969 -2.6145  1.8390
 2786SOL    HW210612   8.162   1.704   3.299 -1.4421 -2.4627 -0.0733
 2787SOL     OW10613   6.463   6.973   4.400 -0.4985  0.2712  0.0943
 2787SOL    HW110614   6.532   6.980   4.334 -0.7691 -2.3890 -0.5724
 2787SOL    HW210615   6.459   7.060   4.439  1.3538  1.2573 -1.7050
 2788SOL     OW10616   2.981   5.231   4.122 -0.3574 -0.3472 -0.4177
 2788SOL    HW110617   3.023   5.159   4.076  0.1243  0.1273 -0.7368
 2788SOL    HW210618   2.929   5.275   4.054  0.8546  0.7335 -0.6756
 2789SOL     OW10619   5.493   9.968   6.459  0.3776  0.1641 -0.1170
 2789SOL    HW110620   5.525   9.931   6.377 -0.2367  0.2471 -0.3954
 2789SOL    HW210621   5.456  10.053   6.435 -1.6173 -0.6558 -0.1029
 2790SOL     OW10622   3.528   0.857   6.652  0.5886  0.1010 -0.3476
 2790SOL    HW110623   3.535   0.781   6.596  0.7857 -1.1372  1.2887
 2790SOL    HW210624   3.438   0.854   6.686  0.1374  1.4115 -1.3376
 2791SOL     OW10625   0.211   7.437   6.543  0.7174  0.0788 -0.2007
 2791SOL    HW110626   0.183   7.527   6.558  0.8783 -0.0734  1.2236
 2791SOL    HW210627   0.306   7.439   6.558  0.8190 -0.2092 -0.7881
 2792SOL     OW10628   6.395   2.988   2.987  0.5234 -0.0833 -0.2589
 2792SOL    HW110629   6.398   2.893   2.994 -1.2827 -0.1851 -0.4222
 2792SOL    HW210630   6.467   3.018   3.042  1.6389 -1.5430 -0.8514
 2793SOL     OW10631  10.189   7.904   9.613 -0.3690  0.3360  0.2760
 2793SOL    HW110632  10.195   7.996   9.587 -3.1240  1.3029  2.5938
 2793SOL    HW210633  10.125   7.865   9.553 -0.7099  0.4628  0.5568
 2794SOL     OW10634   7.946  10.017   9.335  0.0082  0.6272  1.1730
 2794SOL    HW110635   7.927   9.984   9.247  0.1053  0.3897  1.2422
 2794SOL    HW210636   7.861  10.017   9.379  0.4557 -2.8174  2.3131
 2795SOL     OW10637   0.103   0.782   0.606  0.3752 -0.2523  0.0975
 2795SOL    HW110638   0.173   0.834   0.568 -0.9623  0.9408 -0.8738
 2795SOL    HW210639   0.080   0.827   0.687 -1.0802  1.0287 -0.9610
 2796SOL     OW10640   8.764   4.442   8.026  0.5827  0.1132  0.4588
 2796SOL    HW110641   8.812   4.445   7.943  0.3341 -0.6573  0.2834
 2796SOL    HW210642   8.830   4.466   8.092  1.5884 -2.1878  0.3651
 2797SOL     OW10643   1.505   0.678   0.111 -0.1523 -0.3810  0.0332
 2797SOL    HW110644   1.434   0.626   0.074  0.1794 -1.6051  1.0476
 2797SOL    HW210645   1.462   0.755   0.147 -0.9420 -0.9748  0.3971
 2798SOL     OW10646   4.279   9.354   5.802 -0.2980 -0.7272  0.1099
 2798SOL    HW110647   4.370   9.382   5.813 -0.1390 -0.2077 -2.1476
 2798SOL    HW210648   4.230   9.436   5.795 -0.4753 -0.9533 -1.8250
 2799SOL     OW10649   9.378   9.579   4.036  0.7065  0.1265  0.1210
 2799SOL    HW110650   9.286   9.578   4.064  0.6700  0.1515  0.0025
 2799SOL    HW210651   9.374   9.600   3.943  0.8404  0.2652  0.1464
 2800SOL     OW10652   3.356   5.179  10.485 -0.1474 -0.4413  0.2351
 2800SOL    HW110653   3.420   5.109  10.472  0.4647  0.2519 -0.5865
 2800SOL    HW210654   3.334   5.208  10.397 -0.9425 -0.0742  0.5407
 2801SOL     OW10655   3.965   7.120   3.052  0.2834  0.1045  0.9906
 2801SOL    HW110656   3.884   7.080   3.020  0.7272 -0.7557  0.9187
 2801SOL    HW210657   3.938   7.174   3.126 -0.9672  3.1010 -1.4337
 2802SOL     OW10658   8.771  10.376  10.339  0.1141 -0.1291  0.4045
 2802SOL    HW110659   8.812  10.302  10.294  0.0912 -0.8058  1.4529
 2802SOL    HW210660   8.723  10.422  10.270  2.6370  0.7601 -0.8892
 2803SOL     OW10661  10.635   0.623  10.306 -0.3352 -0.2732 -0.2918
 2803SOL    HW110662  10.556   0.582  10.270 -1.2523  0.8119  0.4359
 2803SOL    HW210663  10.671   0.674  10.233  0.2825 -1.5609 -0.9227
 2804SOL     OW10664   5.781  10.354   6.634  0.1989 -0.0099  0.0383
 2804SOL    HW110665   5.843  10.299   6.586  1.3149 -0.0166  1.4182
 2804SOL    HW210666   5.811  10.443   6.617  0.0926  0.0279  0.0519
 2805SOL     OW10667   2.274   8.725   9.938  0.0874 -0.1056 -0.0337
 2805SOL    HW110668   2.320   8.787   9.995  1.2619 -0.0616 -0.9809
 2805SOL    HW210669   2.250   8.653   9.997 -0.3116  0.7355  0.8575
 2806SOL     OW10670   6.173   7.965   6.891 -0.2090  0.4481  0.5169
 2806SOL    HW110671   6.165   8.041   6.833  3.9132 -0.6105 -1.8345
 2806SOL    HW210672   6.153   7.890   6.836 -0.1762 -0.4058  1.6325
 2807SOL     OW10673   9.954   0.690   2.502 -0.3634 -1.0636  0.4007
 2807SOL    HW110674  10.036   0.723   2.538  0.0604 -0.4396 -1.0856
 2807SOL    HW210675   9.910   0.648   2.576  0.2905  0.5191  1.7339
 2808SOL     OW10676   0.865   0.854   5.715  0.0680  0.1977  0.1819
 2808SOL    HW110677   0.858   0.933   5.661  2.0358  0.4437  0.2012
 2808SOL    HW210678   0.800   0.795   5.679 -0.9369  1.5540 -0.3294
 2809SOL     OW10679   0.704   4.610   9.716 -0.1141  0.1175  0.4667
 2809SOL    HW110680   0.642   4.585   9.785 -0.2315 -0.1145  0.2802
 2809SOL    HW210681   0.760   4.676   9.756 -2.0720  2.2524 -0.0941
 2810SOL     OW10682   4.363   1.876  10.128  0.2692  0.0176 -0.4650
 2810SOL    HW110683   4.438   1.923  10.165  0.7551 -0.7624 -0.4241
 2810SOL    HW210684   4.401   1.794  10.095 -0.5692 -0.4017 -0.4060
 2811SOL     OW10685   4.701   9.696   0.777  0.6247  0.2713 -0.0372
 2811SOL    HW110686   4.768   9.627   0.785  0.3838  0.0735  0.3037
 2811SOL    HW210687   4.708   9.727   0.687  1.1222  0.1940 -0.0282
 2812SOL     OW10688   5.514   2.433   7.452 -0.0602  0.3394 -0.4227
 2812SOL    HW110689   5.463   2.421   7.532  1.6756  1.3660  0.9117
 2812SOL    HW210690   5.458   2.398   7.383 -2.2122  0.6890  1.0341
 2813SOL     OW10691   9.575   7.596   4.520  0.1329 -0.3800  0.7002
 2813SOL    HW110692   9.487   7.591   4.483  0.3470  0.1662  0.0825
 2813SOL    HW210693   9.564   7.579   4.613 -0.3239 -2.6891  0.2943
 2814SOL     OW10694   6.542   2.128   3.314  0.5170 -0.8255 -0.2681
 2814SOL    HW110695   6.622   2.102   3.360  0.0362 -1.2955  0.3295
 2814SOL    HW210696   6.477   2.137   3.383 -0.4950 -2.5505 -0.9126
 2815SOL     OW10697   2.772   6.778   2.653  0.6543  0.6290 -0.1320
 2815SOL    HW110698   2.701   6.812   2.707  0.9658 -0.0915  0.7461
 2815SOL    HW210699   2.845   6.839   2.667  0.5539  0.7670 -0.2034
 2816SOL     OW10700   8.895   0.019   0.402  0.0722  0.0713  0.1914
 2816SOL    HW110701   8.878  -0.053   0.463 -0.2018  0.2936  0.3775
 2816SOL    HW210702   8.854   0.095   0.442 -1.9036 -0.1649 -1.2082
 2817SOL     OW10703   6.694   9.713   6.050  0.0944 -0.3173 -0.0791
 2817SOL    HW110704   6.755   9.663   5.996 -0.6623 -0.3467 -0.9314
 2817SOL    HW210705   6.693   9.668   6.134  0.2665 -1.0717 -0.4785
 2818SOL     OW10706   3.444   0.709   8.872 -0.4009  0.5211  0.5123
 2818SOL    HW110707   3.433   0.754   8.788 -0.7291  0.4856  0.5328
 2818SOL    HW210708   3.490   0.772   8.927 -0.1522  0.5305  0.2929
 2819SOL     OW10709   4.047   3.368   6.892 -0.4052  0.3802 -0.1236
 2819SOL    HW110710   4.034   3.455   6.855  0.6539  1.6453  2.2592
 2819SOL    HW210711   4.094   3.383   6.974  2.4043 -2.6691 -0.9557
 2820SOL     OW10712   1.403   4.849   3.587  0.0862 -0.5644 -0.3635
 2820SOL    HW110713   1.450   4.768   3.606  1.5743  0.5396  0.8297
 2820SOL    HW210714   1.323   4.843   3.640 -0.3089 -1.6617 -1.0493
 2821SOL     OW10715   9.108   5.678   3.913  0.0342 -0.0378  0.4851
 2821SOL    HW110716   9.107   5.772   3.896  1.5676 -0.0693  0.0410
 2821SOL    HW210717   9.197   5.651   3.889 -0.5230 -1.6798  0.1889
 2822SOL     OW10718   0.426   4.233   1.737 -0.1743 -0.1876 -0.1355
 2822SOL    HW110719   0.379   4.186   1.806 -0.5552  0.7492  0.2503
 2822SOL    HW210720   0.363   4.296   1.703  0.5768  0.6058 -0.0933
 2823SOL     OW10721   5.890   6.514   6.753 -0.3460 -0.7567  0.2600
 2823SOL    HW110722   5.839   6.595   6.761  2.5557  1.3694 -1.0828
 2823SOL    HW210723   5.947   6.529   6.678 -0.0420 -4.3543 -0.4062
 2824SOL     OW10724   3.748   4.442   9.345  0.2281  0.5351  0.0679
 2824SOL    HW110725   3.665   4.403   9.318  0.1745  0.6771  0.0202
 2824SOL    HW210726   3.792   4.375   9.396 -0.2215  0.6999  0.6848
 2825SOL     OW10727   9.219   0.893   3.422  0.0358 -0.2334 -0.2098
 2825SOL    HW110728   9.238   0.832   3.493  0.0842 -1.6012 -1.3655
 2825SOL    HW210729   9.125   0.883   3.406 -0.4613  1.7438  1.1375
 2826SOL     OW10730   0.286   7.442  10.036  0.7302 -0.0366 -0.1566
 2826SOL    HW110731   0.328   7.413   9.955  1.2839 -0.3829  0.2388
 2826SOL    HW210732   0.358   7.443  10.100  0.6246  1.7657 -0.0361
 2827SOL     OW10733   1.042   2.311   1.781  0.1466 -1.1251  0.1220
 2827SOL    HW110734   0.980   2.279   1.715  0.6759 -1.9146 -0.0079
 2827SOL    HW210735   0.991   2.371   1.835 -0.8653 -2.1316  0.3192
 2828SOL     OW10736   3.016   6.626   5.424 -0.3080 -0.2304  0.0368
 2828SOL    HW110737   2.978   6.644   5.338  0.7900  0.6275 -0.2895
 2828SOL    HW210738   3.096   6.577   5.405 -0.2579 -0.3685  0.5951
 2829SOL     OW10739   1.177   7.022   3.952  0.4696  0.1491  0.4798
 2829SOL    HW110740   1.147   6.935   3.927 -0.7289  0.9775 -1.1688
 2829SOL    HW210741   1.269   7.024   3.927  0.8705 -1.0315  1.7167
 2830SOL     OW10742   0.520  10.146   1.418 -0.2269  0.3968  0.3278
 2830SOL    HW110743   0.567  10.077   1.463 -1.3990 -0.9636 -0.4612
 2830SOL    HW210744   0.441  10.104   1.384 -2.8297  2.8342  2.7718
 2831SOL     OW10745   7.229   1.061   4.768  0.2095 -0.0583 -0.0707
 2831SOL    HW110746   7.233   1.124   4.840 -1.8759 -0.6514  0.6231
 2831SOL    HW210747   7.229   0.975   4.810  1.3160 -0.5087 -0.9231
 2832SOL     OW10748   6.980   8.886   8.118  0.1077 -0.0453 -0.5526
 2832SOL    HW110749   6.901   8.835   8.133  0.5864 -0.6429 -0.0382
 2832SOL    HW210750   6.984   8.897   8.023 -1.0310  0.7064 -0.5366
 2833SOL     OW10751   4.287   0.103   2.494 -0.6577 -0.3752  0.6294
 2833SOL    HW110752   4.349   0.171   2.466 -1.5484  0.5872  0.9413
 2833SOL    HW210753   4.332   0.021   2.475  0.2393  0.2875 -0.2481
 2834SOL     OW10754   8.915   5.498   3.836  0.2645  0.4898 -0.3332
 2834SOL    HW110755   8.988   5.436   3.831 -1.3939 -1.6744  0.7247
 2834SOL    HW210756   8.954   5.580   3.867  2.4825 -0.0760 -1.4610
 2835SOL     OW10757   0.938   7.536   1.747  0.3214 -0.0970  0.3285
 2835SOL    HW110758   0.850   7.515   1.717  0.2721 -1.0146  1.0425
 2835SOL    HW210759   0.958   7.467   1.810  1.8595 -0.3779 -0.4211
 2836SOL     OW10760   7.619  10.306   1.712 -0.0433  0.2549  0.2305
 2836SOL    HW110761   7.602  10.341   1.624  2.2150  0.7719 -0.0654
 2836SOL    HW210762   7.672  10.228   1.696  0.9203  0.7059  1.1314
 2837SOL     OW10763   4.546   2.377   6.197 -0.1712 -0.1533 -0.4633
 2837SOL    HW110764   4.503   2.292   6.212 -0.5843  0.4106  1.9299
 2837SOL    HW210765   4.485   2.425   6.142 -1.5900 -0.2015  1.0009
 2838SOL     OW10766   3.695   6.993   4.804 -0.0265  0.1288 -0.1436
 2838SOL    HW110767   3.643   6.969   4.728 -0.7545  0.9722  0.0633
 2838SOL    HW210768   3.759   7.056   4.772  0.1648 -0.0981 -0.2038
 2839SOL     OW10769   9.739   4.618   0.480  0.3394  0.1291 -0.4357
 2839SOL    HW110770   9.786   4.536   0.463  1.4410  0.3884  1.1046
 2839SOL    HW210771   9.775   4.649   0.563 -2.8433  0.1841  1.0635
 2840SOL     OW10772   7.635   6.870   8.546  0.2265  0.6793 -0.9659
 2840SOL    HW110773   7.637   6.801   8.480  0.4806  0.6803 -0.9605
 2840SOL    HW210774   7.726   6.879   8.574 -0.2118 -1.3382  1.4663
 2841SOL     OW10775   5.655   0.653   6.426  0.2945 -0.2852  0.1743
 2841SOL    HW110776   5.613   0.578   6.384  0.9568 -0.2096 -0.6452
 2841SOL    HW210777   5.748   0.642   6.408  0.3587  0.9620 -0.3325
 2842SOL     OW10778   6.845   5.934   2.230  0.2764  0.2343  0.1241
 2842SOL    HW110779   6.789   5.856   2.225 -0.2839  0.6823 -0.8598
 2842SOL    HW210780   6.934   5.898   2.238 -0.0076 -0.5037  0.0812
 2843SOL     OW10781  10.400   5.257   0.483  0.6532  0.0734  0.1116
 2843SOL    HW110782  10.396   5.329   0.421 -0.3210 -0.8874 -0.9951
 2843SOL    HW210783  10.325   5.271   0.542 -0.0766 -0.4853 -0.6559
 2844SOL     OW10784   0.642   9.088   1.753 -0.6451 -0.4456 -0.4228
 2844SOL    HW110785   0.680   9.165   1.711 -0.1635 -0.5962 -0.2658
 2844SOL    HW210786   0.553   9.114   1.775 -1.0878 -0.5269 -1.9892
 2845SOL     OW10787   2.592   9.724   2.125 -0.0541 -0.1488 -0.4176
 2845SOL    HW110788   2.525   9.702   2.060 -0.6738 -0.3262  0.2712
 2845SOL    HW210789   2.668   9.672   2.099 -0.6465 -1.0579 -0.3748
 2846SOL     OW10790   4.470   7.896   9.502 -0.8666 -0.2871  0.0826
 2846SOL    HW110791   4.425   7.935   9.577 -0.4916  2.1138 -0.8456
 2846SOL    HW210792   4.403   7.890   9.434 -0.5104  0.5029 -0.3546
 2847SOL     OW10793   7.174   1.648   4.999  0.4824 -0.6470  0.3152
 2847SOL    HW110794   7.109   1.707   5.037  1.5573  2.8240 -2.6913
 2847SOL    HW210795   7.219   1.609   5.074 -1.8888  0.4893  2.4489
 2848SOL     OW10796   0.410   1.541   2.164  0.3075  0.2712 -0.2260
 2848SOL    HW110797   0.340   1.526   2.228  0.4319 -0.7262 -0.3011
 2848SOL    HW210798   0.429   1.454   2.129 -0.4704  0.8967 -2.3880
 2849SOL     OW10799   8.643   6.838   5.275  0.2582  0.4749  0.2914
 2849SOL    HW110800   8.600   6.814   5.357  2.3052  2.2089  1.9720
 2849SOL    HW210801   8.681   6.755   5.243 -2.4315 -0.6817 -0.2171
 2850SOL     OW10802   6.793   2.458   9.909  0.3968  0.8066  0.3455
 2850SOL    HW110803   6.879   2.476   9.869  0.8825  0.5503  1.2466
 2850SOL    HW210804   6.755   2.545   9.923  0.2197  0.9044 -0.6379
 2851SOL     OW10805   8.764   3.871   9.680  0.1813  0.2464 -0.2031
 2851SOL    HW110806   8.739   3.912   9.597  0.0749 -1.1783 -0.9130
 2851SOL    HW210807   8.844   3.823   9.659  0.3168  0.1131  0.5967
 2852SOL     OW10808   8.188   2.128  10.612  0.0531  0.1231 -0.6776
 2852SOL    HW110809   8.142   2.052  10.648 -1.5394  0.7255 -1.3611
 2852SOL    HW210810   8.273   2.093  10.583  0.5760 -0.7824  1.7232
 2853SOL     OW10811   6.803   7.200   8.458 -0.1270 -0.2403 -0.2891
 2853SOL    HW110812   6.854   7.264   8.409  2.3950 -0.7058  1.5332
 2853SOL    HW210813   6.810   7.227   8.549 -0.9500 -1.8293  0.2959
 2854SOL     OW10814  10.261   7.954   2.872  0.4078 -0.4343  0.2921
 2854SOL    HW110815  10.285   7.881   2.816 -0.6883  0.0775 -0.9009
 2854SOL    HW210816  10.257   8.029   2.813 -0.6790  0.1413  1.0641
 2855SOL     OW10817   7.933   6.920  10.001 -0.4128 -0.7065 -0.7813
 2855SOL    HW110818   7.895   6.892  10.085  0.0478 -0.1161 -0.3694
 2855SOL    HW210819   7.857   6.944   9.947 -0.6420  1.9236  0.5391
 2856SOL     OW10820   8.207   6.656   8.180  0.2351 -0.2989  0.1980
 2856SOL    HW110821   8.281   6.595   8.187  2.0130  1.7601  0.7531
 2856SOL    HW210822   8.232   6.730   8.236 -1.2904  1.3958 -1.2216
 2857SOL     OW10823   7.573   6.306  10.644 -0.9259  0.2117  0.2227
 2857SOL    HW110824   7.662   6.269  10.639 -0.8631  0.2813  0.7393
 2857SOL    HW210825   7.587   6.399  10.662 -1.0045  1.1405 -3.7361
 2858SOL     OW10826   1.652   1.953   9.779 -0.0548  0.0948 -0.2422
 2858SOL    HW110827   1.689   1.867   9.800  0.1410  0.6742  2.0995
 2858SOL    HW210828   1.726   2.014   9.787 -0.7979  0.8573  1.3631
 2859SOL     OW10829   7.372  10.390   1.795  0.4365 -0.6197  0.5643
 2859SOL    HW110830   7.347  10.404   1.704  0.9794  1.3213  0.6700
 2859SOL    HW210831   7.462  10.357   1.791  0.3930 -0.7204  0.4034
 2860SOL     OW10832   4.584   8.414   4.897  0.2726  0.2917  0.7718
 2860SOL    HW110833   4.598   8.374   4.983 -0.2267 -0.3971  0.5366
 2860SOL    HW210834   4.490   8.409   4.883  0.5278 -1.4558 -0.6947
 2861SOL     OW10835   2.200   0.209   3.621 -0.6076 -0.1990 -0.3198
 2861SOL    HW110836   2.280   0.211   3.674 -0.4362  3.6124 -0.4484
 2861SOL    HW210837   2.133   0.176   3.681  0.2410  0.7864  1.2578
 2862SOL     OW10838   9.386  10.234   4.873 -0.2355  0.1931 -0.3817
 2862SOL    HW110839   9.429  10.197   4.796  0.4158 -0.6502  0.3765
 2862SOL    HW210840   9.342  10.160   4.914 -1.6063  0.8453 -0.5741
 2863SOL     OW10841   8.856   0.822   9.224  0.1769  0.9794 -0.3314
 2863SOL    HW110842   8.786   0.760   9.205  0.3246  1.0130 -1.0255
 2863SOL    HW210843   8.823   0.875   9.296  0.0883  0.0385  0.3427
 2864SOL     OW10844   0.446   7.406   9.817  0.0777  0.3963  0.4275
 2864SOL    HW110845   0.455   7.447   9.731 -0.6094  2.1596  1.1397
 2864SOL    HW210846   0.508   7.333   9.815 -1.1710 -0.7226 -2.1473
 2865SOL     OW10847   0.495   8.534  10.645  0.2334  0.1477 -0.3472
 2865SOL    HW110848   0.486   8.627  10.665  0.6722  0.1703 -0.2488
 2865SOL    HW210849   0.571   8.530  10.587  2.2840 -0.5139  2.2555
 2866SOL     OW10850   2.850   9.818   2.345  0.2480 -0.1276  0.0093
 2866SOL    HW110851   2.868   9.851   2.257  1.7864 -0.1796  0.2878
 2866SOL    HW210852   2.754   9.811   2.348  0.0297  1.7351 -0.9715
 2867SOL     OW10853   1.082  10.364   8.164  0.9756  0.1522  0.3957
 2867SOL    HW110854   1.023  10.289   8.155  2.2240 -0.9532  1.0713
 2867SOL    HW210855   1.068  10.394   8.254 -0.2663  1.4193 -0.1848
 2868SOL     OW10856   9.449   6.118   2.468 -0.4477  0.6974  0.3231
 2868SOL    HW110857   9.381   6.061   2.502 -0.2458  0.9372  1.1515
 2868SOL    HW210858   9.529   6.091   2.514  0.2961 -0.3853 -1.4882
 2869SOL     OW10859   2.046   2.450   6.727  0.6115 -0.0677 -0.8263
 2869SOL    HW110860   2.087   2.400   6.798  0.0507 -0.1862 -0.5808
 2869SOL    HW210861   2.021   2.533   6.768  1.2125  0.2767 -1.1453
 2870SOL     OW10862   9.897   0.297   8.985 -0.2241 -0.2125  0.0657
 2870SOL    HW110863   9.946   0.226   9.026  1.8949  0.9872 -0.2111
 2870SOL    HW210864   9.897   0.368   9.050 -3.3875 -0.7677  0.8434
 2871SOL     OW10865   3.661  10.335   2.145 -0.0743  0.3182  0.3139
 2871SOL    HW110866   3.635  10.254   2.100  1.3302  0.0264 -0.0123
 2871SOL    HW210867   3.582  10.362   2.192 -0.6506 -1.1005  0.2235
 2872SOL     OW10868   7.841   5.621   4.825  0.1298  0.3675  0.5678
 2872SOL    HW110869   7.886   5.549   4.781  1.6447  0.3764  2.0097
 2872SOL    HW210870   7.755   5.585   4.847 -0.3341  0.0810 -1.5178
 2873SOL     OW10871   7.590  10.429   1.443  0.2562 -0.1947 -0.1035
 2873SOL    HW110872   7.592  10.363   1.374 -1.1325  1.5300 -1.9152
 2873SOL    HW210873   7.681  10.439   1.470  1.1664  0.4831 -3.1380
 2874SOL     OW10874   7.021   1.522   0.519  0.3537  0.3637 -1.2401
 2874SOL    HW110875   6.981   1.439   0.494 -1.1449  1.2340 -1.8779
 2874SOL    HW210876   6.998   1.533   0.611 -0.6404  0.6983 -1.5142
 2875SOL     OW10877   4.957   8.983   8.429 -0.2010  0.5074  0.1604
 2875SOL    HW110878   4.874   9.011   8.468 -0.7389  0.2350 -0.7545
 2875SOL    HW210879   5.024   9.013   8.491 -0.9453  1.1930  0.6566
 2876SOL     OW10880   5.321   8.903   3.946  0.0924  0.2769 -0.5504
 2876SOL    HW110881   5.353   8.919   3.858 -2.3060 -0.0149 -1.5411
 2876SOL    HW210882   5.300   8.809   3.948 -2.3897  0.7551 -0.6413
 2877SOL     OW10883   3.065   5.601   2.105  0.0140 -0.2632 -0.5039
 2877SOL    HW110884   3.128   5.673   2.098 -0.0416 -0.1896 -0.2650
 2877SOL    HW210885   3.100   5.544   2.173 -1.2905  0.9418  1.2510
 2878SOL     OW10886   4.894   9.906   0.883 -0.1870  0.4201  0.1189
 2878SOL    HW110887   4.876   9.990   0.842 -0.5034  1.4146  2.1535
 2878SOL    HW210888   4.811   9.858   0.876 -0.1362  0.4332 -0.6580
 2879SOL     OW10889   7.485   8.431   1.386  0.4775 -0.5952  0.6360
 2879SOL    HW110890   7.516   8.385   1.308  1.0845 -0.4868  0.8057
 2879SOL    HW210891   7.401   8.469   1.360  1.0218  0.0762 -0.2065
 2880SOL     OW10892   3.183   9.860   0.222 -0.2151  0.7246 -0.2758
 2880SOL    HW110893   3.210   9.899   0.138  1.3527 -1.4435 -0.8730
 2880SOL    HW210894   3.257   9.876   0.280  0.4084 -1.1609 -0.5013
 2881SOL     OW10895   1.977   6.286   4.227 -0.7787  0.0839 -0.6213
 2881SOL    HW110896   1.969   6.217   4.161  0.1246 -1.0925  0.4260
 2881SOL    HW210897   1.932   6.362   4.190  0.1579 -0.3696 -2.7736
 2882SOL     OW10898   1.888   0.597   3.363 -0.2430 -0.5166 -0.0165
 2882SOL    HW110899   1.818   0.619   3.425  0.0423  1.2786 -0.2877
 2882SOL    HW210900   1.923   0.514   3.396 -1.2705 -0.5073  1.1983
 2883SOL     OW10901   8.117   6.752   2.642  0.1817 -0.1133 -0.3293
 2883SOL    HW110902   8.126   6.847   2.644 -0.4426 -0.0171 -1.4513
 2883SOL    HW210903   8.041   6.734   2.698 -0.2835  0.1321 -0.8787
 2884SOL     OW10904   1.439   9.432   2.748 -0.2244 -0.3079  0.1259
 2884SOL    HW110905   1.393   9.429   2.664 -1.6208 -1.6816  0.8887
 2884SOL    HW210906   1.371   9.419   2.813  1.1231 -1.7284  1.3403
 2885SOL     OW10907  10.180   4.643   5.714 -0.0905 -0.0653 -0.0687
 2885SOL    HW110908  10.131   4.579   5.764 -0.1354 -2.0672 -2.4941
 2885SOL    HW210909  10.272   4.625   5.736 -0.1714  0.1473  0.4662
 2886SOL     OW10910   4.132   5.242   6.423 -0.3508  0.0806  0.1553
 2886SOL    HW110911   4.139   5.156   6.466  0.4480  0.1544  0.1875
 2886SOL    HW210912   4.078   5.226   6.345 -1.8023 -0.0652  1.1382
 2887SOL     OW10913   8.621  10.318   5.413  0.2023 -0.1237 -0.2982
 2887SOL    HW110914   8.694  10.353   5.362  0.8119 -1.6490 -0.5445
 2887SOL    HW210915   8.642  10.340   5.504  0.0621  0.9881 -0.5313
 2888SOL     OW10916   0.126   0.072  10.517  0.4285  0.0661 -0.3745
 2888SOL    HW110917   0.203   0.104  10.470  0.4591  0.4788 -0.0515
 2888SOL    HW210918   0.067   0.148  10.520 -0.4396 -0.5366 -1.5409
 2889SOL     OW10919   1.360   1.741   3.250  0.2286  0.3178 -0.7784
 2889SOL    HW110920   1.328   1.687   3.322 -0.6199 -0.6552 -1.8715
 2889SOL    HW210921   1.426   1.687   3.207  1.7352  1.4135  0.0319
 2890SOL     OW10922   6.359   9.905   0.850 -0.3011  0.1148  0.1554
 2890SOL    HW110923   6.351   9.911   0.945  0.4861 -0.7385  0.2972
 2890SOL    HW210924   6.295   9.839   0.824 -0.2553  0.0723  0.1472
 2891SOL     OW10925   0.034   8.178   9.248  0.3282  0.3481  0.6040
 2891SOL    HW110926   0.032   8.268   9.280  0.1071  1.1603 -1.5118
 2891SOL    HW210927   0.029   8.186   9.153  2.8951 -1.7895  0.1637
 2892SOL     OW10928   6.323   3.526   3.658 -0.1740  0.2203 -0.0149
 2892SOL    HW110929   6.283   3.543   3.573  1.7213 -0.6702 -1.1267
 2892SOL    HW210930   6.397   3.586   3.663 -0.3651  0.3869  1.0980
 2893SOL     OW10931   4.036   7.720   7.951  0.1007 -0.0877  0.1469
 2893SOL    HW110932   4.051   7.796   7.894  2.2561 -0.7233 -0.2443
 2893SOL    HW210933   3.961   7.676   7.911  1.2542 -0.2639 -2.0278
 2894SOL     OW10934   8.852   7.137   6.508  0.2560  0.5241  1.1417
 2894SOL    HW110935   8.765   7.169   6.534 -1.6984 -2.0065 -1.5634
 2894SOL    HW210936   8.873   7.070   6.573 -0.1707  0.6190  1.3819
 2895SOL     OW10937   9.031   8.725   7.491  0.5580  0.6898  0.0507
 2895SOL    HW110938   8.997   8.660   7.429  0.7714  2.6630 -2.2560
 2895SOL    HW210939   8.958   8.743   7.550 -2.0919  3.4831 -3.6479
 2896SOL     OW10940   7.923   7.578   0.091 -0.6341  0.1227 -0.0144
 2896SOL    HW110941   7.872   7.599   0.169 -1.1077  1.3664 -0.6389
 2896SOL    HW210942   7.889   7.493   0.062 -0.6319 -0.2213  0.9724
 2897SOL     OW10943   4.916   2.759   6.909  0.7758 -0.0171 -0.3610
 2897SOL    HW110944   4.996   2.803   6.880  0.6338  0.3139 -0.2659
 2897SOL    HW210945   4.908   2.682   6.852  1.6311 -0.5420  0.2224
 2898SOL     OW10946   1.872   5.604   3.435  0.2820 -0.1031  0.1726
 2898SOL    HW110947   1.810   5.673   3.410  1.3842  0.9165  0.1464
 2898SOL    HW210948   1.917   5.640   3.511  1.8334 -0.1835 -0.6637
 2899SOL     OW10949   5.680   2.703   9.914 -0.5106  0.0942  0.4764
 2899SOL    HW110950   5.653   2.734  10.001 -3.3749  1.1976 -0.6704
 2899SOL    HW210951   5.711   2.614   9.930 -1.3984  0.0877  2.5961
 2900SOL     OW10952   1.153   0.522   8.861 -0.2492  0.0156 -0.1039
 2900SOL    HW110953   1.242   0.520   8.896 -0.2656 -0.5384 -0.0864
 2900SOL    HW210954   1.100   0.559   8.933 -0.2369 -0.8486  0.3627
 2901SOL     OW10955   9.760   9.120   0.901 -0.0984  0.1635 -0.2280
 2901SOL    HW110956   9.851   9.141   0.885  0.0607 -0.4424 -0.1651
 2901SOL    HW210957   9.721   9.201   0.935 -0.3649  1.4259 -3.2381
 2902SOL     OW10958   7.690   6.555   5.377 -0.4139 -0.1304  0.5342
 2902SOL    HW110959   7.661   6.530   5.464 -0.4837  1.0793  0.8787
 2902SOL    HW210960   7.627   6.622   5.349  0.1768  0.1987 -0.0438
 2903SOL     OW10961   0.496   2.038   5.704  0.0822  0.8175  0.4857
 2903SOL    HW110962   0.432   2.082   5.758 -0.7299  1.0780 -0.6479
 2903SOL    HW210963   0.547   2.108   5.664 -0.7358  0.7506 -0.7463
 2904SOL     OW10964   5.106   9.327   3.005  0.3154 -0.0224  0.1651
 2904SOL    HW110965   5.016   9.351   3.027 -0.1435 -1.4699  0.0099
 2904SOL    HW210966   5.097   9.262   2.935  1.4327 -0.9017  0.7993
 2905SOL     OW10967   2.589   3.899   3.673 -0.7120 -0.6521  0.2254
 2905SOL    HW110968   2.564   3.808   3.688  0.5041 -1.0869 -0.2496
 2905SOL    HW210969   2.588   3.909   3.577  0.1941 -0.4916  0.2183
 2906SOL     OW10970   9.376   8.093   7.957 -0.3644 -0.2018 -0.4076
 2906SOL    HW110971   9.434   8.026   7.991 -2.0599 -1.8278 -0.5115
 2906SOL    HW210972   9.288   8.060   7.975 -1.3114  2.3242  0.1204
 2907SOL     OW10973   6.287  10.304   2.215 -0.2308  0.1742  0.0495
 2907SOL    HW110974   6.383  10.304   2.217 -0.2340  0.9864  1.4458
 2907SOL    HW210975   6.264  10.360   2.141  0.3396 -1.1192 -1.1575
 2908SOL     OW10976   8.366   7.001   3.073  1.2298 -0.2800  0.4275
 2908SOL    HW110977   8.296   6.951   3.115  2.5629 -0.7739  2.1960
 2908SOL    HW210978   8.336   7.092   3.078 -1.2979 -0.7277 -2.9765
 2909SOL     OW10979   2.695   3.712   2.865 -0.0478  0.1825  0.3433
 2909SOL    HW110980   2.681   3.619   2.845 -0.0363  0.2979 -0.2233
 2909SOL    HW210981   2.618   3.755   2.828  1.3462  0.7491 -2.1612
 2910SOL     OW10982   6.534   8.544   3.410 -0.0194 -0.1565 -0.6651
 2910SOL    HW110983   6.441   8.534   3.429  0.3350 -0.8206  0.9168
 2910SOL    HW210984   6.538   8.558   3.315 -1.6113 -1.7670 -1.0412
 2911SOL     OW10985   3.689   1.845   4.424 -0.3391 -0.3771 -0.1202
 2911SOL    HW110986   3.741   1.918   4.393 -0.7684  1.1299  2.4259
 2911SOL    HW210987   3.750   1.793   4.477 -0.5452 -0.6700 -0.1665
 2912SOL     OW10988   4.107   8.000   5.484  0.1471  0.5850  0.2370
 2912SOL    HW110989   4.060   8.041   5.411  1.2765  0.1996 -0.7354
 2912SOL    HW210990   4.150   7.924   5.445 -0.9122 -0.8747  1.7500
 2913SOL     OW10991   8.021   0.491   7.514  0.2584 -0.0876 -0.0978
 2913SOL    HW110992   7.945   0.546   7.496  1.6904  1.4271 -1.9830
 2913SOL    HW210993   8.025   0.429   7.441  0.1229 -1.0437  0.6761
 2914SOL     OW10994   5.325   1.475  10.235 -0.1547  0.3515  0.0600
 2914SOL    HW110995   5.363   1.510  10.155 -0.3633 -0.1951 -0.2920
 2914SOL    HW210996   5.399   1.454  10.291  0.1430 -1.4851 -0.9475
 2915SOL     OW10997   1.648   3.596   0.164 -0.2450 -0.2756  0.0906
 2915SOL    HW110998   1.596   3.573   0.087  0.4949  1.9523 -1.1528
 2915SOL    HW210999   1.735   3.561   0.145 -0.5835 -1.7179  1.0047
 2916SOL     OW11000   0.307   2.798   2.257  0.5266  0.8625  0.1991
 2916SOL    HW111001   0.240   2.736   2.229 -0.4697  2.1771 -0.4867
 2916SOL    HW211002   0.353   2.754   2.328  0.2182 -0.8402 -0.6140
 2917SOL     OW11003   0.817   7.390   6.283 -0.5557 -0.0842  0.5302
 2917SOL    HW111004   0.824   7.445   6.205 -1.5050 -0.4713  0.1503
 2917SOL    HW211005   0.840   7.302   6.253 -0.6319 -0.1831  0.7589
 2918SOL     OW11006   1.757   2.937   7.077  0.1845 -0.6174  0.0144
 2918SOL    HW111007   1.763   2.915   6.984 -0.2411  0.6398 -0.3329
 2918SOL    HW211008   1.667   2.912   7.101 -1.1996  2.7665 -1.0126
 2919SOL     OW11009   1.123   9.356   9.072 -0.0610 -0.2544  0.2935
 2919SOL    HW111010   1.124   9.338   8.978  1.5972 -1.7647  0.5484
 2919SOL    HW211011   1.053   9.422   9.083 -1.3600 -1.1850 -1.7493
 2920SOL     OW11012   1.250   0.934   4.825  0.6461 -0.4759 -0.0396
 2920SOL    HW111013   1.342   0.961   4.818  0.8091  0.3797  3.4771
 2920SOL    HW211014   1.254   0.851   4.873 -0.4328 -0.0900  0.7306
 2921SOL     OW11015   8.542   1.034   3.754 -0.5931 -0.2770 -0.0350
 2921SOL    HW111016   8.534   1.064   3.663  2.4578 -0.8093 -0.5871
 2921SOL    HW211017   8.505   0.946   3.754  0.5703 -0.7956 -1.1396
 2922SOL     OW11018   5.125   6.402   7.677  0.0443  0.0879 -0.2986
 2922SOL    HW111019   5.106   6.492   7.648 -0.5637 -0.3869 -1.4329
 2922SOL    HW211020   5.041   6.356   7.666  0.7947 -1.0527 -1.4254
 2923SOL     OW11021   3.594   1.193   1.477 -0.3409  0.4515  0.1263
 2923SOL    HW111022   3.541   1.255   1.427  0.7058  1.0981 -0.2290
 2923SOL    HW211023   3.668   1.245   1.509  2.1311 -1.1073 -2.5656
 2924SOL     OW11024   1.860  10.304   3.454 -0.1636  0.0743  0.7702
 2924SOL    HW111025   1.922  10.236   3.428  0.2156  0.1113  1.5862
 2924SOL    HW211026   1.774  10.264   3.441  0.0089  0.0570 -0.4492
 2925SOL     OW11027   7.663   9.019   9.947  0.0696  0.6464 -0.2376
 2925SOL    HW111028   7.682   8.978   9.862  0.4329  2.9034 -1.3095
 2925SOL    HW211029   7.689   8.953  10.011  0.2343 -0.9510 -1.8533
 2926SOL     OW11030   9.302   3.699   3.323 -0.0552 -0.7480 -0.0821
 2926SOL    HW111031   9.242   3.738   3.259 -0.0960  0.0633  0.4334
 2926SOL    HW211032   9.389   3.731   3.298  0.3650 -2.8175 -1.5068
 2927SOL     OW11033   8.686   3.642   0.629 -0.0399  0.2637 -0.7066
 2927SOL    HW111034   8.724   3.597   0.554  0.4849  0.0107 -0.2985
 2927SOL    HW211035   8.665   3.729   0.596  0.5069  0.2704 -1.0569
 2928SOL     OW11036   9.075   0.280   0.014  0.0694 -0.2935  0.5320
 2928SOL    HW111037   9.056   0.263   0.106  1.4585  1.2084  1.1243
 2928SOL    HW211038   9.136   0.211  -0.011 -0.9302 -1.1917  0.4645
 2929SOL     OW11039   2.908   9.384   8.665  0.3783 -0.4972 -0.1758
 2929SOL    HW111040   2.994   9.426   8.664 -0.2840  0.8852 -0.7897
 2929SOL    HW211041   2.897   9.354   8.756  1.3189 -0.3135  0.0102
 2930SOL     OW11042   1.922   7.950   9.951  0.2250  0.1770  0.0466
 2930SOL    HW111043   1.967   7.893   9.889  1.0354 -0.4337  1.1772
 2930SOL    HW211044   1.901   8.028   9.899  1.9847  0.2081 -0.7020
 2931SOL     OW11045   9.066   4.013   2.960  0.4161 -0.0854  0.0637
 2931SOL    HW111046   9.086   3.932   3.008 -1.2681 -0.4300  0.2684
 2931SOL    HW211047   8.970   4.016   2.959  0.4506  1.4479 -0.7435
 2932SOL     OW11048   0.257   7.414   7.138  0.1247  0.2224 -0.4603
 2932SOL    HW111049   0.189   7.476   7.163  0.1173 -0.0272  0.1708
 2932SOL    HW211050   0.262   7.420   7.042 -0.7031  0.3192 -0.5011
 2933SOL     OW11051  10.289   2.678   6.467 -0.1017 -1.0341  0.0842
 2933SOL    HW111052  10.248   2.695   6.552 -0.2849  0.9189 -0.3706
 2933SOL    HW211053  10.313   2.585   6.471 -1.0552 -1.2460  1.8536
 2934SOL     OW11054   3.688   9.990   2.242 -0.5055  0.2112 -0.0138
 2934SOL    HW111055   3.700   9.895   2.249  1.0848  0.1387 -2.6265
 2934SOL    HW211056   3.600  10.001   2.208 -0.7564 -0.2949  0.4465
 2935SOL     OW11057   2.909   5.930   4.618 -0.3530 -0.2368 -0.6687
 2935SOL    HW111058   2.924   5.872   4.544  1.2557 -0.5326 -0.1743
 2935SOL    HW211059   2.936   5.878   4.694 -1.2358  0.3241  0.0492
 2936SOL     OW11060   5.848   0.132   7.712 -0.2350 -0.3621 -0.1778
 2936SOL    HW111061   5.827   0.069   7.781  0.3291 -0.6549 -0.2589
 2936SOL    HW211062   5.824   0.217   7.748 -0.5277 -0.5742  0.1369
 2937SOL     OW11063   9.361   2.751   7.836 -0.3576  0.1110  0.4452
 2937SOL    HW111064   9.322   2.742   7.749  0.5195  0.5745  0.0008
 2937SOL    HW211065   9.350   2.664   7.875 -1.2982  0.0637  0.1164
 2938SOL     OW11066   7.454   7.695   6.194 -0.0281 -0.0061 -0.1875
 2938SOL    HW111067   7.384   7.660   6.138  1.2148 -0.7366 -1.3402
 2938SOL    HW211068   7.481   7.776   6.151  1.9132 -1.2971 -1.5272
 2939SOL     OW11069   5.815   0.846   4.572  0.3491 -0.0881 -0.4743
 2939SOL    HW111070   5.810   0.822   4.664  0.4841  1.0451 -0.1520
 2939SOL    HW211071   5.840   0.939   4.573  1.6156 -0.3839 -1.6603
 2940SOL     OW11072   7.741   0.319   7.291 -0.4156  0.1126 -0.3849
 2940SOL    HW111073   7.739   0.400   7.342  1.3164  0.3138 -0.5804
 2940SOL    HW211074   7.684   0.337   7.216 -3.5721 -0.4205  1.6481
 2941SOL     OW11075   8.691   5.968   7.406  0.4025 -0.2920  0.3606
 2941SOL    HW111076   8.714   6.037   7.344 -0.0946  1.5085  2.0666
 2941SOL    HW211077   8.595   5.965   7.403  0.2140  1.2512  2.3789
 2942SOL     OW11078   3.335   3.150   8.555 -0.0173  0.5629  0.0263
 2942SOL    HW111079   3.347   3.178   8.464 -2.3018  0.9620 -0.2065
 2942SOL    HW211080   3.376   3.219   8.607 -1.7959  2.2414 -0.6541
 2943SOL     OW11081   1.457   2.706   8.686  0.3812 -0.3762 -0.4291
 2943SOL    HW111082   1.373   2.688   8.728  0.0773  0.9821 -0.4120
 2943SOL    HW211083   1.434   2.756   8.607  1.0886 -1.1224 -1.1246
 2944SOL     OW11084   5.328   1.069   0.209 -0.6905 -0.3797  0.0731
 2944SOL    HW111085   5.277   1.089   0.288  1.1502  0.0775  1.1950
 2944SOL    HW211086   5.341   0.974   0.213 -1.8852 -0.5951 -0.5340
 2945SOL     OW11087   7.487   0.049   2.538 -0.1224  0.5281 -0.0366
 2945SOL    HW111088   7.554   0.109   2.505 -1.1369  1.4053 -0.5766
 2945SOL    HW211089   7.459  -0.001   2.461  0.6148 -0.5726  0.3832
 2946SOL     OW11090   6.231   5.260  10.197 -0.0924  0.3328  0.8425
 2946SOL    HW111091   6.268   5.328  10.142  0.0143 -0.4013 -0.0257
 2946SOL    HW211092   6.139   5.286  10.210 -1.0813 -1.0101 -2.3601
 2947SOL     OW11093   5.569   5.233   5.332 -0.2452  0.3127 -0.6809
 2947SOL    HW111094   5.517   5.262   5.407 -1.4323  0.0801 -1.3971
 2947SOL    HW211095   5.551   5.298   5.264  1.2531  0.8336 -0.6164
 2948SOL     OW11096   8.116   5.829   1.281 -0.0406 -0.1405 -0.3114
 2948SOL    HW111097   8.023   5.849   1.281  0.0347  0.2227 -0.2604
 2948SOL    HW211098   8.123   5.747   1.330 -0.4523 -0.7914 -1.3131
 2949SOL     OW11099   6.098   9.298  10.139  0.5972  0.1164  0.6654
 2949SOL    HW111100   6.035   9.296  10.066 -1.4822  2.7925  2.2147
 2949SOL    HW211101   6.048   9.266  10.214  1.9746 -0.2778  1.4523
 2950SOL     OW11102   0.984   3.509   8.124 -0.5182  0.4549 -0.0583
 2950SOL    HW111103   1.044   3.450   8.170 -1.2018  0.3272  0.6822
 2950SOL    HW211104   1.008   3.499   8.032  0.0012 -0.2771  0.1418
 2951SOL     OW11105   9.665   5.406   0.903 -0.1258 -0.2442 -0.0680
 2951SOL    HW111106   9.616   5.487   0.920 -0.1945  0.2077 -2.1706
 2951SOL    HW211107   9.598   5.338   0.899  0.0733 -0.8592  3.5828
 2952SOL     OW11108   3.899   5.301   0.936 -0.2866  0.3581 -0.3253
 2952SOL    HW111109   3.851   5.224   0.965  0.1962  0.5532  1.0738
 2952SOL    HW211110   3.991   5.279   0.948 -0.1691  1.7941  1.9632
 2953SOL     OW11111   2.118   7.899   0.464  0.7987 -0.1794 -0.3952
 2953SOL    HW111112   2.168   7.981   0.464  1.4133 -0.5511  0.2996
 2953SOL    HW211113   2.088   7.891   0.373  2.3463 -0.1490 -0.9547
 2954SOL     OW11114   4.087  10.497   0.681  0.4360 -0.1470 -0.1465
 2954SOL    HW111115   4.104  10.537   0.596 -0.8274 -0.0471 -0.3721
 2954SOL    HW211116   3.998  10.523   0.702  0.9828  0.4667  1.5787
 2955SOL     OW11117   0.539   1.669   4.254  0.4149  0.6727  0.4245
 2955SOL    HW111118   0.511   1.709   4.336 -1.3788  0.1483  0.1231
 2955SOL    HW211119   0.529   1.739   4.189 -0.1612  0.5290  0.3434
 2956SOL     OW11120   2.867   1.475   5.671 -0.2774  0.8115 -0.3222
 2956SOL    HW111121   2.879   1.537   5.599 -0.7971  0.6945 -0.5170
 2956SOL    HW211122   2.779   1.439   5.657  0.0614 -0.0558 -0.2815
 2957SOL     OW11123   4.495   7.362   5.236 -0.2789 -0.3377  0.3992
 2957SOL    HW111124   4.565   7.332   5.178 -0.2973 -0.3669  0.3924
 2957SOL    HW211125   4.539   7.417   5.300  0.1972 -2.6594  2.1732
 2958SOL     OW11126   7.274   5.466   6.967  0.1498 -0.4236 -0.0629
 2958SOL    HW111127   7.297   5.553   6.934 -0.9479  0.0893  0.4713
 2958SOL    HW211128   7.252   5.415   6.889  1.0182 -0.3101 -0.3988
 2959SOL     OW11129   9.915   9.825  10.171  0.3407 -0.3909 -0.3683
 2959SOL    HW111130   9.855   9.869  10.231 -1.2390 -0.9662 -1.4574
 2959SOL    HW211131   9.876   9.839  10.084  2.1052 -0.3003 -1.1836
 2960SOL     OW11132   3.115   6.521  10.463 -0.0375 -0.4666 -0.2850
 2960SOL    HW111133   3.044   6.524  10.398 -0.8931  1.8546  0.6509
 2960SOL    HW211134   3.180   6.582  10.430  0.9086 -1.4913 -0.3901
 2961SOL     OW11135   6.185   0.117   5.035 -0.0080  0.0697 -0.1237
 2961SOL    HW111136   6.205   0.089   5.125  0.3980  0.7682  0.0162
 2961SOL    HW211137   6.244   0.191   5.020 -0.6186  0.4493 -0.6910
 2962SOL     OW11138   0.265   9.211   2.190  0.4127 -0.1205  0.0358
 2962SOL    HW111139   0.347   9.161   2.197 -0.2208 -1.5378 -1.7116
 2962SOL    HW211140   0.293   9.299   2.163  1.4055 -0.3929  0.1259
 2963SOL     OW11141   6.717   7.063   6.866 -0.1445 -0.1293  0.1331
 2963SOL    HW111142   6.804   7.093   6.891 -0.2416 -0.7578  1.3456
 2963SOL    HW211143   6.662   7.085   6.942 -1.4636  1.9348 -1.3331
 2964SOL     OW11144   9.041   9.148   8.410 -0.3081  0.7944  0.0908
 2964SOL    HW111145   9.006   9.074   8.460 -1.1180  0.6057 -0.7246
 2964SOL    HW211146   9.037   9.222   8.470  2.2317 -0.1227  1.5754
 2965SOL     OW11147   6.085   5.371   5.287 -0.0408  0.5191 -0.6886
 2965SOL    HW111148   6.075   5.276   5.295  1.8926  0.4228  1.8428
 2965SOL    HW211149   6.010   5.407   5.334 -0.4978  0.2609 -1.2077
 2966SOL     OW11150   3.333   1.038  10.051 -0.0672 -0.5488  0.7031
 2966SOL    HW111151   3.414   1.003  10.090  0.5396  0.0093 -0.0137
 2966SOL    HW211152   3.331   1.130  10.077 -0.5436 -0.5918  0.8244
 2967SOL     OW11153   2.067   3.272   4.239  0.0587 -0.9488 -0.5905
 2967SOL    HW111154   2.153   3.264   4.279 -0.3411 -0.5686  0.3809
 2967SOL    HW211155   2.081   3.327   4.162  0.4991  0.1529  0.2442
 2968SOL     OW11156   4.365  10.326   4.936 -0.0393 -0.3993 -0.4303
 2968SOL    HW111157   4.320  10.399   4.893  0.2949 -0.1727 -0.4046
 2968SOL    HW211158   4.315  10.310   5.015 -0.2414 -0.3388 -0.5459
 2969SOL     OW11159   8.701   6.493   8.381 -0.6418  0.0893  0.3891
 2969SOL    HW111160   8.606   6.507   8.378 -1.8005 -3.8772  4.8315
 2969SOL    HW211161   8.721   6.449   8.299 -3.2873 -1.2951  0.3671
 2970SOL     OW11162   2.138   0.749   3.466 -0.0066  0.2352 -0.1492
 2970SOL    HW111163   2.226   0.772   3.436  0.7718 -0.9220  1.1527
 2970SOL    HW211164   2.144   0.656   3.488 -1.3898  0.2898  0.5327
 2971SOL     OW11165   1.909   4.535   1.493 -0.6198  0.2827  0.3103
 2971SOL    HW111166   1.826   4.523   1.445  0.2362 -0.4956 -1.0391
 2971SOL    HW211167   1.960   4.594   1.437  0.1169 -0.0323  0.6506
 2972SOL     OW11168   4.671   5.499   2.000 -0.3891  0.3897 -0.1590
 2972SOL    HW111169   4.701   5.522   2.088  0.0646  1.6584 -0.6243
 2972SOL    HW211170   4.578   5.478   2.011 -0.3701  0.6619  0.5931
 2973SOL     OW11171   9.534  10.132   4.628 -0.3825 -0.0469  0.4790
 2973SOL    HW111172   9.549  10.141   4.534 -0.6263  1.6656  0.5729
 2973SOL    HW211173   9.622  10.129   4.666 -0.2817 -0.9090  0.2102
 2974SOL     OW11174   5.820   2.405   3.733 -0.3694  0.0346  0.0223
 2974SOL    HW111175   5.804   2.378   3.643  0.0920 -0.1409 -0.0065
 2974SOL    HW211176   5.833   2.500   3.728 -4.9824  0.9480  0.4719
 2975SOL     OW11177   7.792   2.315   5.987  0.2561 -0.0826  0.1653
 2975SOL    HW111178   7.754   2.358   5.910 -0.3872  0.7500  0.9156
 2975SOL    HW211179   7.833   2.386   6.037  1.5011 -0.7475  0.1336
 2976SOL     OW11180   6.937   0.199   4.034  0.3242 -0.1502 -0.4192
 2976SOL    HW111181   6.939   0.104   4.020 -1.2114 -0.2054 -0.4906
 2976SOL    HW211182   6.892   0.234   3.957 -0.3197  0.4794  0.2206
 2977SOL     OW11183   4.451   6.254   2.502  0.8005  0.0533 -0.7344
 2977SOL    HW111184   4.499   6.314   2.445  0.3355  0.0959 -1.0881
 2977SOL    HW211185   4.449   6.297   2.587 -0.2416  0.9196 -1.1883
 2978SOL     OW11186   9.514   6.463   6.813  0.1090 -0.2471  0.3492
 2978SOL    HW111187   9.463   6.538   6.784  0.1400 -1.0231 -1.9096
 2978SOL    HW211188   9.584   6.500   6.867 -1.2613  1.0751  1.2719
 2979SOL     OW11189   3.118   5.572   6.489 -0.5340  0.2411  0.3850
 2979SOL    HW111190   3.083   5.604   6.405  0.0592  0.0954  0.0820
 2979SOL    HW211191   3.213   5.578   6.479 -0.4406  2.2239  1.8034
 2980SOL     OW11192   7.325   7.201   3.092  0.0245  0.4141  0.5079
 2980SOL    HW111193   7.287   7.166   3.172  0.6560 -0.4533  0.4517
 2980SOL    HW211194   7.398   7.142   3.073 -1.5288 -0.8867 -1.9940
 2981SOL     OW11195   8.633  10.117   8.474 -0.1929 -0.0329  0.2559
 2981SOL    HW111196   8.595  10.030   8.464 -1.2322  0.4499 -0.1493
 2981SOL    HW211197   8.701  10.121   8.406 -0.7491 -0.2098 -0.3209
 2982SOL     OW11198   5.532   1.224   6.907 -0.2215  0.3672 -0.5661
 2982SOL    HW111199   5.625   1.244   6.913  0.2126 -1.8029  2.7041
 2982SOL    HW211200   5.527   1.158   6.838  0.5944  0.7325 -0.9958
 2983SOL     OW11201   5.334   2.703   5.010 -0.0599  0.0734 -0.4665
 2983SOL    HW111202   5.403   2.763   4.980  1.9892 -0.4315  2.6901
 2983SOL    HW211203   5.254   2.739   4.973  1.1731  4.1284  0.2247
 2984SOL     OW11204   4.354   9.234   5.500  0.0390 -0.4906  0.1562
 2984SOL    HW111205   4.424   9.291   5.465  0.2787 -1.7224 -1.4725
 2984SOL    HW211206   4.400   9.172   5.556  0.3485 -1.4590 -1.1113
 2985SOL     OW11207   2.764   6.521   8.261  0.1535 -0.5853  0.0662
 2985SOL    HW111208   2.798   6.447   8.313  2.7307 -0.2413 -0.9973
 2985SOL    HW211209   2.706   6.480   8.197 -2.2589 -1.1254  2.4312
 2986SOL     OW11210   3.426   3.350   1.716  0.2394  0.3688  0.3872
 2986SOL    HW111211   3.494   3.386   1.772  2.2848  0.0452 -1.7707
 2986SOL    HW211212   3.360   3.419   1.710  1.7318  1.8130  0.2479
 2987SOL     OW11213   8.435  10.619  10.544 -0.1427 -0.0516  0.5673
 2987SOL    HW111214   8.382  10.654  10.472 -1.1490  1.1681  1.8456
 2987SOL    HW211215   8.407  10.528  10.553 -0.5118 -0.0132 -0.1130
 2988SOL     OW11216   1.521   0.205   6.231  0.1956 -0.1234  0.4627
 2988SOL    HW111217   1.440   0.232   6.188 -0.4306 -2.8099 -0.2398
 2988SOL    HW211218   1.572   0.164   6.162  1.2272 -0.4066  1.3619
 2989SOL     OW11219   3.371   4.871   9.663 -0.8141  0.4901  0.2315
 2989SOL    HW111220   3.347   4.819   9.740  0.8153 -0.5897  0.0666
 2989SOL    HW211221   3.461   4.898   9.679 -0.6550  0.7773 -1.0128
 2990SOL     OW11222   4.842   6.536   3.478 -0.4761 -0.1104 -0.0550
 2990SOL    HW111223   4.930   6.519   3.511 -1.0541  0.1880  1.7685
 2990SOL    HW211224   4.785   6.482   3.532 -1.5742  1.1715  0.1419
 2991SOL     OW11225   2.567   1.228   6.468  0.3087  0.1452  0.4401
 2991SOL    HW111226   2.615   1.179   6.534  0.6163 -0.1350  0.0156
 2991SOL    HW211227   2.583   1.320   6.489  2.3235  0.0934 -0.5768
 2992SOL     OW11228   4.457   4.544   4.365  0.3407  0.4584 -0.3456
 2992SOL    HW111229   4.384   4.587   4.321  0.7091  0.5057 -0.9302
 2992SOL    HW211230   4.531   4.603   4.351  0.1512  1.2333  1.6480
 2993SOL     OW11231  10.528   9.723   9.267 -0.4091  0.0154  0.1968
 2993SOL    HW111232  10.590   9.662   9.307  1.4559  1.9619  0.4556
 2993SOL    HW211233  10.575   9.758   9.191 -2.2236 -0.3540 -1.1498
 2994SOL     OW11234   3.608   7.516   2.143  0.0841  0.4845 -0.3050
 2994SOL    HW111235   3.599   7.420   2.140  0.6875  0.1941  2.9689
 2994SOL    HW211236   3.519   7.549   2.131 -0.1481 -0.4638 -1.3791
 2995SOL     OW11237  10.223   6.538   6.825  0.2650  0.0434 -0.2487
 2995SOL    HW111238  10.305   6.523   6.778 -0.1793 -0.5425 -0.8438
 2995SOL    HW211239  10.234   6.624   6.865  1.2013 -0.0624 -0.2597
 2996SOL     OW11240   2.830   5.334   7.795  0.5801 -0.8563 -0.1671
 2996SOL    HW111241   2.796   5.400   7.735 -0.9651 -0.4905  1.0586
 2996SOL    HW211242   2.839   5.255   7.741 -0.6796 -0.5101 -0.9307
 2997SOL     OW11243   8.994   9.752   5.857 -0.3079  0.3820 -0.5696
 2997SOL    HW111244   8.998   9.835   5.811  0.5910 -0.1050 -1.4269
 2997SOL    HW211245   8.975   9.775   5.948 -1.9464  1.3788 -1.1327
 2998SOL     OW11246   0.586   5.628   4.266  0.2344 -0.1964 -0.8409
 2998SOL    HW111247   0.506   5.665   4.228  1.1305  0.5089 -2.1226
 2998SOL    HW211248   0.643   5.613   4.191  1.1283 -1.1560  0.0093
 2999SOL     OW11249   5.673   0.053   0.128  0.2397 -0.7097 -0.0155
 2999SOL    HW111250   5.637   0.089   0.209  0.2141  0.0270 -0.3446
 2999SOL    HW211251   5.619  -0.025   0.110 -0.8781  0.0896 -0.2357
 3000SOL     OW11252   0.536   5.885   3.052  0.1475  0.1949  0.2358
 3000SOL    HW111253   0.476   5.824   3.009 -0.1515  0.8673 -0.3227
 3000SOL    HW211254   0.548   5.956   2.988  1.5307  0.0850  0.3380
 3001SOL     OW11255   0.705   2.433   0.228 -0.0366 -0.0870  0.0267
 3001SOL    HW111256   0.797   2.428   0.202  0.0934  0.5242  0.3547
 3001SOL    HW211257   0.686   2.526   0.234 -1.1133 -0.1738 -1.4946
 3002SOL     OW11258   4.891   3.053   7.089  0.0714  0.1890  0.3366
 3002SOL    HW111259   4.842   3.055   7.007 -0.6463 -0.4596  0.7304
 3002SOL    HW211260   4.823   3.053   7.157  0.5364 -1.8291  0.8894
 3003SOL     OW11261   6.474   2.104   4.894 -0.2255  0.2164  0.6351
 3003SOL    HW111262   6.406   2.089   4.829 -0.1514  1.1694  0.3289
 3003SOL    HW211263   6.554   2.116   4.843  0.8854 -3.9216  1.0204
 3004SOL     OW11264   2.425   6.848   3.413  0.8070 -0.6939 -0.7542
 3004SOL    HW111265   2.407   6.792   3.337  2.8952  0.4477 -2.1875
 3004SOL    HW211266   2.517   6.831   3.434  0.9336  0.7639  0.0124
 3005SOL     OW11267   7.618   7.151   2.347  0.1993  0.0155 -0.1478
 3005SOL    HW111268   7.704   7.111   2.363  0.2308 -0.5969 -1.7166
 3005SOL    HW211269   7.555   7.081   2.367  0.0461  0.4092  0.8286
 3006SOL     OW11270   3.237   7.850   6.139  0.3944  0.6095  0.0557
 3006SOL    HW111271   3.152   7.811   6.119 -0.2984  1.5030  1.1384
 3006SOL    HW211272   3.277   7.791   6.203  0.2496  0.6024  0.1381
 3007SOL     OW11273   1.138   6.280   6.474 -0.2890 -0.3251 -0.1820
 3007SOL    HW111274   1.205   6.297   6.540 -0.8626  0.3494  0.2468
 3007SOL    HW211275   1.144   6.187   6.456 -0.2443 -0.5634  0.9739
 3008SOL     OW11276   8.580   4.284  10.520 -0.4026 -0.2469 -0.0247
 3008SOL    HW111277   8.650   4.226  10.489  0.8507  0.4711  1.3393
 3008SOL    HW211278   8.549   4.242  10.600  1.0020  1.2411  1.3769
 3009SOL     OW11279   3.895   3.869   1.145 -0.2727 -0.0891  0.4186
 3009SOL    HW111280   3.889   3.943   1.205  0.6837  0.5634 -0.2611
 3009SOL    HW211281   3.812   3.822   1.156 -1.6825  2.0435 -0.3709
 3010SOL     OW11282   5.928   1.447   9.355 -0.4266  0.9398  0.4107
 3010SOL    HW111283   5.863   1.518   9.357  0.2021  1.5098  1.4711
 3010SOL    HW211284   6.009   1.489   9.329 -0.3156  0.3486 -0.2375
 3011SOL     OW11285   8.673   2.720   5.453  0.2538  0.1621  0.0422
 3011SOL    HW111286   8.586   2.725   5.413 -0.5175 -0.0588  1.6092
 3011SOL    HW211287   8.690   2.810   5.483  0.4862  0.1654 -0.0979
 3012SOL     OW11288   5.944   4.097   2.411 -0.2383  0.2908  0.0240
 3012SOL    HW111289   5.992   4.036   2.355 -1.7640 -0.7175 -0.2407
 3012SOL    HW211290   6.006   4.169   2.426  0.4175  0.3761 -2.5510
 3013SOL     OW11291   6.605   0.748   3.413  0.0761  0.0231  0.6126
 3013SOL    HW111292   6.587   0.761   3.506  0.8028  0.5715  0.6840
 3013SOL    HW211293   6.552   0.815   3.369 -2.2181 -1.7634  0.4109
 3014SOL     OW11294   7.692   6.273   5.264 -0.7769 -0.0807 -0.0388
 3014SOL    HW111295   7.650   6.219   5.330 -0.4493 -0.6054 -0.2570
 3014SOL    HW211296   7.691   6.361   5.301  0.3249 -0.5371  1.1379
 3015SOL     OW11297   3.041   9.937   7.599  0.1173  0.2916 -0.0442
 3015SOL    HW111298   3.092   9.932   7.680  0.8009  1.7394 -0.3569
 3015SOL    HW211299   3.008  10.026   7.597 -0.4891  0.0576 -1.0167
 3016SOL     OW11300   3.652   7.268   0.326  0.0817 -0.5071 -0.0224
 3016SOL    HW111301   3.721   7.311   0.375 -1.8126 -1.4544  3.9009
 3016SOL    HW211302   3.609   7.339   0.277  1.5666  0.6725  0.3139
 3017SOL     OW11303   8.758   8.311   9.787  0.4814 -0.0224  0.3891
 3017SOL    HW111304   8.806   8.375   9.734 -0.5013 -0.5408 -1.2189
 3017SOL    HW211305   8.775   8.337   9.877  1.6594  1.3465 -0.1857
 3018SOL     OW11306   0.284   0.025   3.782  0.0923  0.0008  0.6422
 3018SOL    HW111307   0.350  -0.025   3.831  1.6693 -1.5147 -2.6956
 3018SOL    HW211308   0.226  -0.042   3.746 -1.0815  1.0647  0.4852
 3019SOL     OW11309   3.130   3.017   6.296  0.5868  0.0534  0.0075
 3019SOL    HW111310   3.082   3.094   6.267  0.9218 -0.7457 -3.0484
 3019SOL    HW211311   3.077   2.981   6.367 -1.1385  1.4723 -0.4887
 3020SOL     OW11312   6.694   7.346   3.274  0.1539 -0.4873  0.1523
 3020SOL    HW111313   6.769   7.394   3.239 -0.4343  0.5295  0.2404
 3020SOL    HW211314   6.662   7.401   3.346 -1.4741 -0.2122 -0.7263
 3021SOL     OW11315   5.110   4.173   8.239  0.4395 -0.1924  0.0679
 3021SOL    HW111316   5.136   4.200   8.151  0.0961  1.5415  0.4617
 3021SOL    HW211317   5.166   4.097   8.258  1.5952  0.3351 -1.0477
 3022SOL     OW11318   2.079   9.656   2.309 -0.1167  0.3803 -0.6255
 3022SOL    HW111319   2.122   9.741   2.307  0.8904 -0.1149 -0.5963
 3022SOL    HW211320   1.998   9.668   2.259  0.2197  1.2336 -0.9715
 3023SOL     OW11321   2.134   3.395   1.273  0.1725  0.5988  0.5720
 3023SOL    HW111322   2.079   3.413   1.349 -0.4327 -1.0508  0.5799
 3023SOL    HW211323   2.128   3.473   1.219 -0.8451  1.0977  1.3810
 3024SOL     OW11324   4.830   8.419   7.414 -0.3593  0.4261  0.1401
 3024SOL    HW111325   4.768   8.489   7.436 -1.8294 -1.0083  0.7475
 3024SOL    HW211326   4.874   8.400   7.497  2.5500  2.8477 -0.6661
 3025SOL     OW11327   4.643   8.563   4.636  0.2980 -0.0830  0.2782
 3025SOL    HW111328   4.648   8.614   4.555 -0.5968 -0.1684  0.1667
 3025SOL    HW211329   4.582   8.611   4.691 -0.7697 -1.1655  0.0726
 3026SOL     OW11330   6.129   6.066   4.437 -0.2050 -0.4772  0.4714
 3026SOL    HW111331   6.113   6.114   4.355  0.1210  0.0060  0.6881
 3026SOL    HW211332   6.047   6.075   4.486 -1.0131 -2.1488 -0.4676
 3027SOL     OW11333   8.586   1.339   3.384 -0.2527  0.1111 -0.3748
 3027SOL    HW111334   8.673   1.351   3.422 -0.4232 -1.0943  0.4556
 3027SOL    HW211335   8.593   1.258   3.334 -0.6272  0.5552 -1.1681
 3028SOL     OW11336   1.441   2.897  10.177 -0.1768  0.5612 -0.4818
 3028SOL    HW111337   1.373   2.960  10.150 -0.6708  0.1072 -0.3201
 3028SOL    HW211338   1.401   2.848  10.249 -0.6718 -1.4362 -2.0243
 3029SOL     OW11339   8.014   5.272  10.486 -0.5763 -0.1767 -0.1258
 3029SOL    HW111340   7.942   5.332  10.464  1.5077  2.7301  0.4086
 3029SOL    HW211341   8.027   5.221  10.406 -1.1997  1.4523 -1.3219
 3030SOL     OW11342   5.634   4.031   2.069 -0.0054 -0.3596  0.6735
 3030SOL    HW111343   5.587   4.013   1.988  0.6542  0.2224  0.1534
 3030SOL    HW211344   5.567   4.024   2.137 -0.4150 -1.5819  0.1683
 3031SOL     OW11345   2.458   9.993   0.335  0.3020  0.6138  0.3576
 3031SOL    HW111346   2.462   9.908   0.380  0.4533 -0.2438 -1.1897
 3031SOL    HW211347   2.394  10.043   0.384 -1.7771 -1.3435 -0.1828
 3032SOL     OW11348   0.356   7.168   4.218  0.3452 -0.1729  0.2975
 3032SOL    HW111349   0.444   7.205   4.217  0.5596 -0.6931  0.0814
 3032SOL    HW211350   0.345   7.134   4.307  0.2888  0.0658  0.3828
 3033SOL     OW11351   3.814   2.576   2.406  0.7092  0.1391  1.3179
 3033SOL    HW111352   3.721   2.589   2.387  0.8998  1.9716  1.4556
 3033SOL    HW211353   3.839   2.499   2.355 -0.4649  0.6636 -0.1012
 3034SOL     OW11354   6.593   8.554   0.152  0.3782  0.1510  0.7003
 3034SOL    HW111355   6.674   8.573   0.200  0.5347 -1.3821  1.0936
 3034SOL    HW211356   6.524   8.591   0.207  0.7759  1.2735  0.4730
 3035SOL     OW11357   9.173   4.133   0.981  0.0020  0.0840  0.0821
 3035SOL    HW111358   9.164   4.227   0.965  1.8576  0.3285  0.3388
 3035SOL    HW211359   9.252   4.125   1.034  1.3214 -1.7960 -2.0221
 3036SOL     OW11360   5.485   5.521   6.233  0.1467 -0.4126 -0.6277
 3036SOL    HW111361   5.404   5.470   6.233 -0.8019  1.0225  0.6276
 3036SOL    HW211362   5.541   5.476   6.297 -0.2945 -0.4839 -0.2860
 3037SOL     OW11363   8.585   6.512   0.022 -0.2711 -0.5863 -0.0509
 3037SOL    HW111364   8.641   6.475   0.090 -0.4693  1.0902  1.0701
 3037SOL    HW211365   8.641   6.573  -0.026 -0.7160 -0.1195  0.0228
 3038SOL     OW11366   9.381  10.254   1.716 -0.0617  0.4091 -0.0554
 3038SOL    HW111367   9.351  10.309   1.643 -0.7200 -1.8927 -1.6245
 3038SOL    HW211368   9.319  10.271   1.786 -1.4595  0.2545 -1.1941
 3039SOL     OW11369   4.785   7.642   9.889 -0.3468 -0.4492 -0.1700
 3039SOL    HW111370   4.751   7.556   9.867 -1.3389 -0.3218  0.8125
 3039SOL    HW211371   4.719   7.703   9.857 -1.0885 -0.1972  1.7361
 3040SOL     OW11372   4.191  10.250   1.550 -0.8123  0.1254 -0.5570
 3040SOL    HW111373   4.107  10.238   1.505 -2.3871  1.0935  1.9229
 3040SOL    HW211374   4.216  10.340   1.531 -1.0535  0.2685 -0.2147
 3041SOL     OW11375   0.470   4.078   4.033 -0.0202  0.1697 -0.3847
 3041SOL    HW111376   0.393   4.024   4.048 -0.2759  0.4303 -0.7310
 3041SOL    HW211377   0.544   4.021   4.053 -0.3061  0.0394  0.3451
 3042SOL     OW11378   8.641   2.257   8.394 -0.7175  1.0034 -0.1034
 3042SOL    HW111379   8.583   2.323   8.432 -1.2470 -0.2343  1.3735
 3042SOL    HW211380   8.584   2.204   8.339 -0.1443  2.1839 -1.9005
 3043SOL     OW11381   2.975   9.587   9.684 -0.4090 -0.3589 -0.1818
 3043SOL    HW111382   2.968   9.535   9.765 -1.6674 -0.2011 -0.1684
 3043SOL    HW211383   2.897   9.563   9.634 -0.7157  1.0975 -0.4307
 3044SOL     OW11384   4.042   2.612   4.810 -0.6338 -0.0003  0.2737
 3044SOL    HW111385   4.025   2.706   4.805  1.0239  0.2630 -2.0294
 3044SOL    HW211386   4.061   2.587   4.720 -1.0360 -2.5800  0.8461
 3045SOL     OW11387   9.343   3.556   5.042 -0.3653  0.1090  0.0078
 3045SOL    HW111388   9.295   3.557   4.959  2.4025 -1.2899 -1.7460
 3045SOL    HW211389   9.367   3.464   5.055 -0.8261  0.2535  2.5054
 3046SOL     OW11390   6.277   0.239   7.048  0.3042 -0.2684  0.3188
 3046SOL    HW111391   6.185   0.218   7.063 -0.6565  2.7207 -0.6337
 3046SOL    HW211392   6.303   0.288   7.126  0.2735  1.0841 -0.4887
 3047SOL     OW11393   2.438   6.153  10.142  0.7018  0.3198 -0.1080
 3047SOL    HW111394   2.511   6.125  10.197 -0.3444 -1.6360  0.3580
 3047SOL    HW211395   2.371   6.086  10.155  0.1009  0.2189 -3.1459
 3048SOL     OW11396   0.902   2.796   3.278  0.5554  0.0424 -0.0167
 3048SOL    HW111397   0.868   2.792   3.189 -0.7311 -0.9458  0.4701
 3048SOL    HW211398   0.982   2.744   3.276 -0.7006 -2.0165 -0.1480
 3049SOL     OW11399   0.460   7.272   8.318 -0.8000  0.0125  0.9344
 3049SOL    HW111400   0.460   7.307   8.407 -1.0626 -1.2534  1.4531
 3049SOL    HW211401   0.414   7.188   8.325 -2.8243  0.9028 -0.8160
 3050SOL     OW11402   1.369   8.016   3.067  0.4549  0.3572 -0.3608
 3050SOL    HW111403   1.418   8.079   3.119 -0.8795  0.3053  1.0220
 3050SOL    HW211404   1.399   7.931   3.099 -1.0646  0.3235  1.0658
 3051SOL     OW11405   4.133   0.467   3.959  0.1172  0.0138  0.0804
 3051SOL    HW111406   4.078   0.488   3.884  2.2108 -0.1106 -1.5762
 3051SOL    HW211407   4.156   0.374   3.947  1.3351  0.2760  0.2699
 3052SOL     OW11408   3.996   0.551   1.742  0.1103 -0.3373  0.1076
 3052SOL    HW111409   4.084   0.514   1.738 -0.0457 -0.9216  1.4874
 3052SOL    HW211410   3.993   0.616   1.671  1.3849 -0.8433 -0.4348
 3053SOL     OW11411   7.817   0.713   1.501 -0.0022  0.0261 -0.4190
 3053SOL    HW111412   7.876   0.739   1.573 -0.1936  0.3138 -0.3627
 3053SOL    HW211413   7.863   0.643   1.456  0.4107  0.2868 -0.4077
 3054SOL     OW11414   3.166   9.885   2.708 -0.3837 -0.5701 -0.1993
 3054SOL    HW111415   3.094   9.898   2.647  0.3442  2.0530 -0.6014
 3054SOL    HW211416   3.245   9.889   2.654  0.1820 -1.2525  0.5374
 3055SOL     OW11417   3.762   2.792   7.846  0.1103 -0.7993 -0.1391
 3055SOL    HW111418   3.801   2.878   7.863  0.1614 -1.3660  3.3452
 3055SOL    HW211419   3.676   2.796   7.887 -0.9927 -1.6743 -2.1876
 3056SOL     OW11420   4.153   1.778   7.764 -0.2669  0.2523 -0.4149
 3056SOL    HW111421   4.224   1.838   7.742  0.4577  0.3183  1.7726
 3056SOL    HW211422   4.092   1.784   7.691  1.9469  0.1939 -2.3836
 3057SOL     OW11423   7.583   3.750   8.916  0.0382  0.1288 -0.7233
 3057SOL    HW111424   7.567   3.735   8.823  1.7260 -0.0731 -1.0134
 3057SOL    HW211425   7.581   3.663   8.955 -1.1695  0.2539 -0.4468
 3058SOL     OW11426   6.439   0.576   2.722  0.1889  0.1344 -0.7283
 3058SOL    HW111427   6.355   0.538   2.696 -0.0299 -0.1263  0.3316
 3058SOL    HW211428   6.444   0.658   2.674 -0.3858 -0.1392 -1.2702
 3059SOL     OW11429   2.311   6.546   7.586  0.0156  0.3994 -0.1291
 3059SOL    HW111430   2.387   6.534   7.529  1.3798 -1.6220  1.9405
 3059SOL    HW211431   2.262   6.464   7.579 -0.3849  0.5479  0.7713
 3060SOL     OW11432   0.718   3.742   6.088 -0.1809  0.5452 -0.5642
 3060SOL    HW111433   0.729   3.792   6.007  1.1742  0.9120 -0.1806
 3060SOL    HW211434   0.753   3.655   6.068  2.6889  1.3779  0.3191
 3061SOL     OW11435   6.361   8.637   0.349  0.1333 -0.4135 -0.8163
 3061SOL    HW111436   6.398   8.588   0.423 -0.0697  0.1831 -0.3152
 3061SOL    HW211437   6.305   8.703   0.390  1.0293  0.7652 -1.4490
 3062SOL     OW11438   5.211   0.380   3.907 -0.1031 -0.5072 -0.1730
 3062SOL    HW111439   5.205   0.286   3.920  2.0767 -0.3434  3.1440
 3062SOL    HW211440   5.302   0.395   3.880 -0.4282  0.6762 -0.6812
 3063SOL     OW11441   1.415  10.484   9.859  0.2894 -0.1905 -0.1270
 3063SOL    HW111442   1.488  10.430   9.889  0.1937 -1.6362 -2.3093
 3063SOL    HW211443   1.366  10.428   9.800 -2.0377  1.0868  0.4654
 3064SOL     OW11444  10.079   9.293   6.034 -0.3276  0.7528 -0.5958
 3064SOL    HW111445  10.068   9.284   5.940  1.3190  2.3934 -1.0026
 3064SOL    HW211446  10.155   9.239   6.056 -1.3737 -0.5209  0.0184
 3065SOL     OW11447   1.064   3.441   6.216 -0.2876 -0.2694 -0.1812
 3065SOL    HW111448   1.010   3.483   6.282 -1.7743 -0.9543 -0.9214
 3065SOL    HW211449   1.128   3.390   6.266  1.5039  2.6428  0.7531
 3066SOL     OW11450   8.698  10.014   9.329 -0.3241  0.1253 -0.2658
 3066SOL    HW111451   8.708  10.056   9.244  0.8454 -1.4113 -0.9327
 3066SOL    HW211452   8.622  10.056   9.368  0.9794  3.1533 -0.6858
 3067SOL     OW11453   7.736   5.533  10.092 -0.2599  0.0136  0.8359
 3067SOL    HW111454   7.780   5.583  10.160 -2.2440  0.9579  1.5106
 3067SOL    HW211455   7.710   5.452  10.135 -0.0402 -0.1178  0.7213
 3068SOL     OW11456   9.071   5.708   0.677 -0.0013 -0.0296  0.4858
 3068SOL    HW111457   9.071   5.613   0.666 -2.6619 -0.1907  1.0123
 3068SOL    HW211458   9.044   5.721   0.768  1.5862  1.2613  0.8062
 3069SOL     OW11459   9.115   2.745   2.807 -0.0825 -0.2516 -1.3713
 3069SOL    HW111460   9.038   2.754   2.863  0.7223  0.2489 -0.3279
 3069SOL    HW211461   9.128   2.651   2.798  0.5871 -0.3633  0.4390
 3070SOL     OW11462   7.235   1.909   4.715  0.5285  0.0602 -0.2528
 3070SOL    HW111463   7.314   1.951   4.681  0.0702  0.8029 -0.4521
 3070SOL    HW211464   7.166   1.975   4.702 -0.1463 -0.6162 -0.2038
 3071SOL     OW11465   2.792   2.182  10.256  0.5096  0.0111 -0.9698
 3071SOL    HW111466   2.791   2.089  10.281 -1.0320  0.7101  2.1902
 3071SOL    HW211467   2.829   2.226  10.333 -1.2041  2.1933 -1.2968
 3072SOL     OW11468   8.750   1.660   3.682  0.2245  0.0513 -0.0912
 3072SOL    HW111469   8.716   1.632   3.597  0.1952 -0.4267  0.0796
 3072SOL    HW211470   8.754   1.580   3.734  2.5784 -0.1277 -0.4244
 3073SOL     OW11471   6.215   0.006   9.156 -0.1469  0.4898  0.5402
 3073SOL    HW111472   6.233   0.100   9.157 -0.2413  0.5054  0.7394
 3073SOL    HW211473   6.297  -0.034   9.185  0.5153  0.4097 -1.3002
 3074SOL     OW11474   2.085   2.833   2.319 -0.0462  0.1856 -0.0452
 3074SOL    HW111475   1.991   2.845   2.308 -0.1802 -1.4545 -1.0230
 3074SOL    HW211476   2.094   2.784   2.401  0.0050  0.8342  0.3408
 3075SOL     OW11477   9.924   9.581   0.483  0.4723 -0.5078 -0.1471
 3075SOL    HW111478   9.873   9.536   0.550  0.0001  0.5298  0.2091
 3075SOL    HW211479  10.005   9.607   0.528  0.5976 -0.7109 -0.2563
 3076SOL     OW11480   5.031   4.568   5.608  0.0667 -0.0495 -0.3368
 3076SOL    HW111481   5.120   4.594   5.586  0.0371  0.3861  0.0461
 3076SOL    HW211482   4.976   4.635   5.566  0.0219  0.9732  1.2799
 3077SOL     OW11483  10.319   3.193   9.422 -0.4133  0.4766  0.7195
 3077SOL    HW111484  10.396   3.229   9.466 -1.1010  3.3967 -0.2410
 3077SOL    HW211485  10.247   3.206   9.484 -0.5396 -0.0001  0.6756
 3078SOL     OW11486   6.510   0.980   5.117  0.0837 -0.2626 -0.1492
 3078SOL    HW111487   6.583   0.932   5.155 -1.0385 -1.1587  0.9819
 3078SOL    HW211488   6.516   0.964   5.023  1.4216 -0.1635 -0.0888
 3079SOL     OW11489   0.589   1.073   6.911  0.0521  0.6555 -0.0640
 3079SOL    HW111490   0.651   1.145   6.902 -0.2871  1.4301  2.8778
 3079SOL    HW211491   0.505   1.115   6.924 -0.8132 -0.3833 -1.8445
 3080SOL     OW11492   3.453   7.414  10.461 -0.2523 -0.0786  0.2326
 3080SOL    HW111493   3.362   7.440  10.479  0.0862 -0.4874  2.7616
 3080SOL    HW211494   3.454   7.319  10.473  0.6607  0.0106  0.9132
 3081SOL     OW11495   2.375   5.394   9.681  0.2457  0.2873 -0.1213
 3081SOL    HW111496   2.331   5.474   9.710  1.3683  0.9588 -0.2036
 3081SOL    HW211497   2.314   5.323   9.702  0.1440  0.9492  1.9547
 3082SOL     OW11498   0.439   1.602   8.425 -0.2886 -0.5128 -0.2566
 3082SOL    HW111499   0.468   1.524   8.379  0.8810  0.1977 -0.7655
 3082SOL    HW211500   0.376   1.643   8.366  0.3822 -0.1782 -0.7416
 3083SOL     OW11501   9.303  10.445   8.899 -0.2634  0.3118  0.2655
 3083SOL    HW111502   9.229  10.506   8.897 -0.8396 -0.3051 -3.1404
 3083SOL    HW211503   9.265  10.362   8.930 -1.5969 -0.4896 -3.0923
 3084SOL     OW11504   3.076   7.241   5.942 -0.2242  0.0506  0.2506
 3084SOL    HW111505   3.095   7.329   5.911 -0.1525  0.8144  2.3334
 3084SOL    HW211506   3.153   7.189   5.917  0.1250  0.7736 -0.2006
 3085SOL     OW11507   7.253   3.882   3.792 -0.4941 -0.5849  0.0570
 3085SOL    HW111508   7.268   3.816   3.724 -0.1932  0.4372 -0.8904
 3085SOL    HW211509   7.184   3.938   3.756  0.3085  0.5067  0.1884
 3086SOL     OW11510   8.340   8.205  10.214  0.3953  0.0086  0.1567
 3086SOL    HW111511   8.400   8.155  10.159  1.5635  0.8291  0.6320
 3086SOL    HW211512   8.348   8.295  10.181  0.2389  0.3076  0.9111
 3087SOL     OW11513   0.187   6.234   3.050  0.1305  0.5756  0.3959
 3087SOL    HW111514   0.250   6.169   3.080 -1.7096 -1.8977 -0.6450
 3087SOL    HW211515   0.155   6.199   2.966 -0.3563  3.3099 -0.6726
 3088SOL     OW11516   3.682   7.491   5.257 -0.0680  0.3231 -0.0383
 3088SOL    HW111517   3.706   7.514   5.167 -0.5427  1.6102  0.1453
 3088SOL    HW211518   3.642   7.404   5.249 -0.4969  0.5955 -1.1441
 3089SOL     OW11519   4.138   9.949   0.495 -0.3072 -0.0382  0.4234
 3089SOL    HW111520   4.061   9.940   0.552  0.6052  0.0438  1.6987
 3089SOL    HW211521   4.106   9.922   0.408 -2.1303  1.3395  0.6120
 3090SOL     OW11522   8.286   7.172   5.902  0.6297  0.9912  0.0471
 3090SOL    HW111523   8.359   7.155   5.842  1.8906  0.1445  1.7227
 3090SOL    HW211524   8.228   7.097   5.891  2.0379 -0.3935  1.4940
 3091SOL     OW11525   8.456   3.861   0.966  0.0842 -0.1597 -0.0490
 3091SOL    HW111526   8.441   3.946   0.925 -0.9980 -0.0697  0.4874
 3091SOL    HW211527   8.443   3.877   1.060 -0.7938 -1.0330 -0.0040
 3092SOL     OW11528   9.488   6.474   7.274 -0.0032 -0.2023 -0.2228
 3092SOL    HW111529   9.460   6.561   7.246 -1.8139 -0.0111  1.8847
 3092SOL    HW211530   9.551   6.490   7.344 -1.5733 -0.4813  1.3324
 3093SOL     OW11531   2.883   8.240   5.323 -0.2547 -0.0355 -0.8486
 3093SOL    HW111532   2.901   8.294   5.400 -0.0958  0.4752 -1.2348
 3093SOL    HW211533   2.914   8.153   5.346  1.5040  0.5107 -0.9910
 3094SOL     OW11534   2.477   9.630   5.513 -0.0493 -0.1239  0.2236
 3094SOL    HW111535   2.522   9.649   5.595  0.9643 -1.8708  0.1394
 3094SOL    HW211536   2.548   9.611   5.451 -0.8195  0.5560 -0.8817
 3095SOL     OW11537   8.821   1.382   3.490 -0.1083 -0.8174 -0.3076
 3095SOL    HW111538   8.886   1.416   3.428  1.1939 -0.0307  1.4194
 3095SOL    HW211539   8.866   1.309   3.533 -0.2648 -0.1141  1.0804
 3096SOL     OW11540   9.483   7.961   8.718 -0.0740  1.0080 -0.0155
 3096SOL    HW111541   9.509   7.869   8.710 -1.7074  0.5768 -0.6990
 3096SOL    HW211542   9.525   8.004   8.643  2.1136  1.2191  1.2416
 3097SOL     OW11543   7.368   6.439   1.634 -0.0726 -0.7933 -0.3631
 3097SOL    HW111544   7.281   6.440   1.593 -1.0365  2.1903  1.4316
 3097SOL    HW211545   7.426   6.480   1.570 -0.3927 -1.0583 -0.8288
 3098SOL     OW11546   3.155   4.137   2.837  0.1047  0.7165 -0.1952
 3098SOL    HW111547   3.195   4.207   2.889  1.4582  0.4302 -0.8167
 3098SOL    HW211548   3.208   4.059   2.857  0.7700  0.6379 -2.1403
 3099SOL     OW11549   1.641   8.001   6.807 -0.0360  0.0757  0.3833
 3099SOL    HW111550   1.633   8.028   6.715 -2.3248  0.1102  0.5238
 3099SOL    HW211551   1.619   8.079   6.857  0.6947 -0.0836  0.9671
 3100SOL     OW11552   3.206  10.296   1.977 -0.1021  0.4654 -0.3833
 3100SOL    HW111553   3.163  10.346   2.046 -0.3857  0.6929 -0.7251
 3100SOL    HW211554   3.141  10.231   1.950  0.6324 -0.8219  0.8073
 3101SOL     OW11555   7.473   8.610   9.506 -0.3958  0.0038 -0.0421
 3101SOL    HW111556   7.498   8.602   9.598  0.3931 -2.0787 -0.3804
 3101SOL    HW211557   7.382   8.641   9.508 -0.4900 -0.3109  1.4446
 3102SOL     OW11558   9.056   5.732   6.927 -0.6384  0.2822  0.0536
 3102SOL    HW111559   9.142   5.774   6.931 -1.7257  2.6011  1.3469
 3102SOL    HW211560   9.068   5.658   6.868  2.1854  0.6191  0.0574
 3103SOL     OW11561   0.231   7.192   1.502 -0.0372 -0.3323 -0.4019
 3103SOL    HW111562   0.257   7.117   1.449  0.6035  1.1701 -2.3414
 3103SOL    HW211563   0.227   7.265   1.441  1.7315  1.7552  1.7321
 3104SOL     OW11564   4.043   7.874   0.333 -0.1651 -0.2306 -0.3703
 3104SOL    HW111565   4.059   7.830   0.416 -0.6377 -1.6914 -1.0174
 3104SOL    HW211566   3.956   7.844   0.306 -0.4535  1.0124 -0.9270
 3105SOL     OW11567   8.816   5.157   2.562 -0.2697  0.0302 -0.8180
 3105SOL    HW111568   8.895   5.114   2.530 -0.8539 -1.2150 -0.6936
 3105SOL    HW211569   8.815   5.242   2.519  0.4016 -0.5010 -1.9475
 3106SOL     OW11570   3.717  10.335   5.629 -0.3612 -0.1491 -0.1073
 3106SOL    HW111571   3.749  10.385   5.554 -1.7018  0.5134 -0.2799
 3106SOL    HW211572   3.717  10.244   5.600 -2.0011  0.2103 -1.3983
 3107SOL     OW11573   9.149   6.018   4.900 -0.7490  0.0904 -0.5237
 3107SOL    HW111574   9.181   5.957   4.833  0.5948  0.4281 -0.2079
 3107SOL    HW211575   9.206   6.094   4.893 -0.2951 -0.0426  1.2926
 3108SOL     OW11576  10.133   4.960   7.925 -0.2761 -0.0762 -0.4617
 3108SOL    HW111577  10.101   4.876   7.893 -0.3895  0.5101 -2.0119
 3108SOL    HW211578  10.059   5.020   7.914 -0.4256  0.1026  1.2905
 3109SOL     OW11579   5.157   6.248   3.247 -0.4879 -0.3633 -0.3934
 3109SOL    HW111580   5.079   6.216   3.292 -1.0914 -0.9765 -1.8163
 3109SOL    HW211581   5.230   6.205   3.292 -1.0493 -0.7344  0.1739
 3110SOL     OW11582   6.297   9.988   8.827 -0.2654  0.0569  0.5379
 3110SOL    HW111583   6.388   9.987   8.857 -0.3292 -0.6079  0.7129
 3110SOL    HW211584   6.286  10.075   8.787  0.9181 -0.4385 -0.9443
 3111SOL     OW11585   1.396   1.763   0.057  0.1644  0.0666 -0.2671
 3111SOL    HW111586   1.351   1.686   0.022 -0.7045  0.6539 -0.5039
 3111SOL    HW211587   1.480   1.766   0.011  0.2856 -0.8363 -0.1096
 3112SOL     OW11588  10.545   0.655   9.932  0.0926  0.2590  0.2765
 3112SOL    HW111589  10.546   0.731   9.990 -1.3797 -0.2188  0.9683
 3112SOL    HW211590  10.571   0.690   9.846  1.4875  1.1214  1.0189
 3113SOL     OW11591  10.144   5.470   3.409 -0.0954  0.2725 -0.1348
 3113SOL    HW111592  10.075   5.498   3.470 -0.5857 -1.1937  0.0331
 3113SOL    HW211593  10.096   5.438   3.333  0.3613 -1.0038  0.0877
 3114SOL     OW11594   3.171   7.553   8.907 -0.1961  0.2328 -0.2816
 3114SOL    HW111595   3.147   7.640   8.939  0.0572  0.0419  0.4644
 3114SOL    HW211596   3.141   7.494   8.976  1.1645 -0.1222  0.0343
 3115SOL     OW11597   3.540   8.528   1.402 -0.5259 -0.2887  0.3736
 3115SOL    HW111598   3.477   8.494   1.338  0.4436 -1.0512 -0.1968
 3115SOL    HW211599   3.488   8.586   1.457 -2.3076 -2.6955  1.4395
 3116SOL     OW11600   0.479   6.224   8.476  0.3916  0.5291  0.5047
 3116SOL    HW111601   0.487   6.168   8.554 -0.3129 -0.8575 -0.3809
 3116SOL    HW211602   0.557   6.203   8.424 -0.2314 -0.1934 -0.1618
 3117SOL     OW11603   8.357   2.104   9.156 -0.2358  0.1030 -0.0678
 3117SOL    HW111604   8.377   2.039   9.089  0.0664  1.0203 -0.8878
 3117SOL    HW211605   8.402   2.073   9.234  0.3645 -0.3841 -0.6028
 3118SOL     OW11606   3.189   9.183   3.486  0.4175 -0.0796  0.4284
 3118SOL    HW111607   3.234   9.101   3.466 -0.6147 -0.7477  0.7718
 3118SOL    HW211608   3.106   9.156   3.525 -0.9168  1.0634 -1.4514
 3119SOL     OW11609   6.873   5.854   0.344  0.5209 -0.1265 -0.1212
 3119SOL    HW111610   6.904   5.899   0.422 -0.6044 -1.0238  0.8844
 3119SOL    HW211611   6.805   5.795   0.376 -0.9087  0.4248 -1.9692
 3120SOL     OW11612   7.229   4.572   9.066  0.5937  0.4573 -0.0957
 3120SOL    HW111613   7.319   4.595   9.088  0.5923 -0.3105  0.7945
 3120SOL    HW211614   7.236   4.485   9.026  0.3842  1.0148 -1.3928
 3121SOL     OW11615   4.050   9.679  10.544 -0.1891  0.4107  0.0432
 3121SOL    HW111616   4.000   9.757  10.566 -0.2225  0.4897 -0.2978
 3121SOL    HW211617   4.035   9.619  10.617  0.8197  1.1750  0.9055
 3122SOL     OW11618   3.903   8.844   7.521  0.0014 -0.5167  0.1173
 3122SOL    HW111619   3.836   8.845   7.590  0.3417 -1.7888  0.4982
 3122SOL    HW211620   3.854   8.839   7.439 -0.4925 -4.7177  0.4561
 3123SOL     OW11621   1.507   6.669   3.635  0.5316  0.3211  0.4673
 3123SOL    HW111622   1.486   6.760   3.612 -1.3137 -0.5229 -1.5030
 3123SOL    HW211623   1.433   6.641   3.690  0.1837 -0.4888 -0.3976
 3124SOL     OW11624   7.844   0.605   6.401 -0.3484  0.6381  0.0763
 3124SOL    HW111625   7.900   0.552   6.458  0.3850  1.7572  0.4335
 3124SOL    HW211626   7.874   0.695   6.416 -1.3809  1.1248 -0.7136
 3125SOL     OW11627   2.905   0.387   2.905 -0.2989 -0.4361 -0.0997
 3125SOL    HW111628   2.914   0.483   2.905  0.2252 -0.4621  1.4777
 3125SOL    HW211629   2.819   0.371   2.946 -0.4249 -0.6407 -0.4424
 3126SOL     OW11630   8.508   4.095   2.591 -0.0399 -0.8901  0.0220
 3126SOL    HW111631   8.428   4.056   2.628 -0.9932  1.1182  0.2139
 3126SOL    HW211632   8.487   4.109   2.499  0.4987 -1.3398 -0.1723
 3127SOL     OW11633   6.130   8.701   8.213  0.0159 -0.0169 -0.0050
 3127SOL    HW111634   6.093   8.660   8.291 -0.6814 -0.0247 -0.3351
 3127SOL    HW211635   6.209   8.746   8.245 -1.3352  1.7073  1.1127
 3128SOL     OW11636   7.465  10.568  10.580  0.3793 -0.3916 -0.0165
 3128SOL    HW111637   7.410  10.504  10.624  1.9395 -1.9221 -0.2164
 3128SOL    HW211638   7.460  10.545  10.487  1.5880 -0.7572 -0.0058
 3129SOL     OW11639   8.460   8.836   4.194  0.2514 -0.3286 -0.2722
 3129SOL    HW111640   8.475   8.928   4.218  2.0835 -0.7534  0.3931
 3129SOL    HW211641   8.463   8.789   4.277 -2.2773 -0.8540 -0.4137
 3130SOL     OW11642   1.016   5.931   7.715 -0.2816 -0.0391  0.0067
 3130SOL    HW111643   0.961   5.916   7.638 -0.3600  0.0196  0.0517
 3130SOL    HW211644   1.061   6.014   7.696 -0.4690  0.0891  0.1235
 3131SOL     OW11645   2.182   0.205   1.305  0.0802  0.3157  0.5351
 3131SOL    HW111646   2.268   0.218   1.346  0.8402 -2.7934  0.1259
 3131SOL    HW211647   2.198   0.220   1.212 -0.2142  1.1630  0.6048
 3132SOL     OW11648   9.235   7.525   0.147 -0.2897  0.3035  0.0389
 3132SOL    HW111649   9.143   7.499   0.143 -0.1369 -0.5180  1.2897
 3132SOL    HW211650   9.239   7.584   0.222  0.1010  0.8237 -0.3842
 3133SOL     OW11651   9.278   9.473   8.103  0.0814 -0.2287  0.4593
 3133SOL    HW111652   9.264   9.391   8.152 -0.3024 -0.4756 -0.0557
 3133SOL    HW211653   9.357   9.457   8.052  0.5483  0.0708  1.0802
 3134SOL     OW11654   2.316   5.858   0.258 -0.4712  0.2120  0.3799
 3134SOL    HW111655   2.237   5.805   0.258 -1.3403  1.2763  3.7616
 3134SOL    HW211656   2.387   5.798   0.234 -2.0702 -1.0763 -1.3463
 3135SOL     OW11657   9.478   4.093   7.482 -0.2887  0.1637  0.2901
 3135SOL    HW111658   9.536   4.103   7.557 -0.2010  0.3103  0.2032
 3135SOL    HW211659   9.401   4.146   7.503 -0.2131  0.2976  0.2231
 3136SOL     OW11660   5.468   9.850   2.557 -0.2069 -0.9380 -0.1525
 3136SOL    HW111661   5.376   9.875   2.553 -0.0755 -0.2272  0.8415
 3136SOL    HW211662   5.501   9.894   2.635  1.0679 -0.8747 -0.7021
 3137SOL     OW11663   1.925   1.944   0.464 -0.1149 -0.3674 -0.0130
 3137SOL    HW111664   1.928   2.034   0.431 -1.0747 -0.5187 -0.5417
 3137SOL    HW211665   1.848   1.942   0.521  0.6293 -0.5292  1.0401
 3138SOL     OW11666   8.057   7.555  10.507  0.3305  0.1321 -0.7964
 3138SOL    HW111667   8.061   7.614  10.432 -0.5541  2.2389  0.6996
 3138SOL    HW211668   7.972   7.573  10.547  0.6334 -1.1721  0.5150
 3139SOL     OW11669  10.089   0.095   1.017  0.0702  0.4270  0.2079
 3139SOL    HW111670  10.181   0.076   1.034  0.2378  1.6847  0.8175
 3139SOL    HW211671  10.089   0.142   0.933 -0.0940 -0.1939 -0.1426
 3140SOL     OW11672   2.149   2.600   5.491  0.3694  0.1490 -0.2760
 3140SOL    HW111673   2.075   2.630   5.543  0.8683 -1.5452  1.5401
 3140SOL    HW211674   2.220   2.661   5.512  0.0955  0.4736 -0.2954
 3141SOL     OW11675   9.491   2.217   6.348  0.1991 -0.0028  0.0735
 3141SOL    HW111676   9.487   2.310   6.370  1.2235 -0.1396  0.9262
 3141SOL    HW211677   9.537   2.215   6.263  2.4272  0.1809  1.1873
 3142SOL     OW11678  10.241  10.521   3.907 -0.0869 -0.1435  0.5176
 3142SOL    HW111679  10.190  10.473   3.841  1.8465 -2.1236  0.3609
 3142SOL    HW211680  10.192  10.509   3.989 -1.7418  1.1204 -0.2261
 3143SOL     OW11681   3.659   7.535   6.097  0.0275  0.1564 -0.2441
 3143SOL    HW111682   3.567   7.539   6.069 -0.7285 -4.5210  0.7816
 3143SOL    HW211683   3.661   7.586   6.178 -1.3267  1.2818 -0.8587
 3144SOL     OW11684   7.721   6.671   6.013 -0.3901 -0.0271 -0.2355
 3144SOL    HW111685   7.687   6.635   6.095  0.7771  0.0135  0.2790
 3144SOL    HW211686   7.745   6.761   6.034  0.5293 -0.2167 -0.4307
 3145SOL     OW11687   4.819   2.779   5.801 -0.1987  0.0618 -0.2861
 3145SOL    HW111688   4.889   2.841   5.777  0.9335 -1.4746 -1.1199
 3145SOL    HW211689   4.771   2.764   5.720 -0.7717  0.2017  0.0228
 3146SOL     OW11690   7.336   8.886   9.366  0.3989  0.1965 -0.2904
 3146SOL    HW111691   7.326   8.975   9.400  0.5014  0.1344 -0.0986
 3146SOL    HW211692   7.290   8.831   9.430  0.8649  0.0453 -0.0781
 3147SOL     OW11693   5.724   8.373   3.710  0.3814 -0.0561 -0.3097
 3147SOL    HW111694   5.762   8.409   3.629 -0.5090  1.7848  0.0324
 3147SOL    HW211695   5.797   8.368   3.771  0.9855 -1.0830 -1.0908
 3148SOL     OW11696   1.944   0.240   1.853 -0.6213 -0.3972  0.5434
 3148SOL    HW111697   1.993   0.233   1.935  0.7208  0.9939 -0.1130
 3148SOL    HW211698   1.873   0.301   1.872  1.2444  2.0658  0.0219
 3149SOL     OW11699  10.458   6.154   6.473 -0.7119 -0.7030  0.1964
 3149SOL    HW111700  10.395   6.168   6.544 -1.9820 -0.0760 -1.0241
 3149SOL    HW211701  10.491   6.242   6.454 -0.5796 -0.8356 -0.1799
 3150SOL     OW11702   2.455   9.989   0.042 -0.1560  0.3030 -0.5305
 3150SOL    HW111703   2.484   9.903   0.012 -1.2087 -0.3115  0.1435
 3150SOL    HW211704   2.450   9.980   0.138 -0.8948  0.9054 -0.5077
 3151SOL     OW11705   7.560   1.782   9.412  0.1063  0.4746 -0.2303
 3151SOL    HW111706   7.538   1.874   9.394 -1.1369  0.3718  0.6224
 3151SOL    HW211707   7.580   1.745   9.326  1.8571  1.8299 -0.4472
 3152SOL     OW11708   3.723   3.337   2.352  0.3188  0.1904  0.2646
 3152SOL    HW111709   3.751   3.339   2.444 -0.6677 -2.5646  0.7119
 3152SOL    HW211710   3.782   3.275   2.311 -0.3791  0.0530 -0.5473
 3153SOL     OW11711   4.853   2.127   8.537 -0.2733  0.1531 -0.4061
 3153SOL    HW111712   4.777   2.167   8.579  0.0226  1.3879 -0.9869
 3153SOL    HW211713   4.885   2.064   8.601 -1.6269 -0.1998 -0.0487
 3154SOL     OW11714   3.375   4.120   2.540 -0.1801  0.0411  0.7411
 3154SOL    HW111715   3.306   4.184   2.560 -0.6413 -0.8343  2.0817
 3154SOL    HW211716   3.328   4.041   2.512  0.2486 -0.6097  1.7923
 3155SOL     OW11717   7.165   3.001   0.638 -0.4169 -0.4089 -0.3820
 3155SOL    HW111718   7.157   2.941   0.712  2.9033  0.5007  0.8973
 3155SOL    HW211719   7.211   2.951   0.571  1.5696  0.3168  0.3604
 3156SOL     OW11720   0.822   6.929   4.696  0.4512 -0.1832 -0.6059
 3156SOL    HW111721   0.848   7.010   4.653  0.3064  0.5420  0.6408
 3156SOL    HW211722   0.850   6.939   4.787 -0.7615 -0.9650 -0.1150
 3157SOL     OW11723   7.467   8.755   1.076  0.4416  0.5592  0.2607
 3157SOL    HW111724   7.480   8.684   1.138 -0.0221  0.1810 -0.0715
 3157SOL    HW211725   7.551   8.764   1.031  0.4563  0.1184  0.1960
 3158SOL     OW11726   5.823   8.502   2.160  0.5304 -0.2291  0.5001
 3158SOL    HW111727   5.816   8.539   2.247  0.1739  1.2963 -0.1462
 3158SOL    HW211728   5.804   8.409   2.172  0.3507 -0.0192  2.0111
 3159SOL     OW11729   0.798   4.447   1.875  0.1211 -0.2175 -0.0870
 3159SOL    HW111730   0.703   4.446   1.866  0.1189 -0.5281 -0.0321
 3159SOL    HW211731   0.826   4.363   1.840  0.2151 -0.9376  1.6288
 3160SOL     OW11732   6.582   6.405   9.953  0.2652 -0.5247  0.0919
 3160SOL    HW111733   6.546   6.400   9.864 -0.4683  1.5925  0.2148
 3160SOL    HW211734   6.515   6.366  10.008 -0.7830  1.0495  0.0192
 3161SOL     OW11735   0.018   6.394   0.767 -0.0776 -0.0359  1.0667
 3161SOL    HW111736  -0.039   6.389   0.843  2.1378  1.2528  2.9460
 3161SOL    HW211737  -0.026   6.454   0.708  0.1399  2.4943  3.3111
 3162SOL     OW11738   3.459   5.443   5.426  0.4195  0.4107 -0.3190
 3162SOL    HW111739   3.424   5.532   5.431 -0.1640  0.1204  1.5551
 3162SOL    HW211740   3.545   5.448   5.467  0.8310  0.2958 -1.1474
 3163SOL     OW11741   9.709   1.459   7.381  0.2446 -0.2444  0.5153
 3163SOL    HW111742   9.659   1.443   7.300 -0.1986 -0.4802  0.8304
 3163SOL    HW211743   9.657   1.523   7.429  0.5272 -0.0781  0.6048
 3164SOL     OW11744  10.439   0.137   6.655  0.5956  0.0363 -0.2997
 3164SOL    HW111745  10.423   0.220   6.700  0.5460  0.5561 -1.2526
 3164SOL    HW211746  10.374   0.077   6.691  1.1371  0.1766  0.9737
 3165SOL     OW11747   3.913   2.441   1.839 -0.1984  0.2217 -0.1301
 3165SOL    HW111748   3.936   2.525   1.879 -0.3175  0.1035  0.1880
 3165SOL    HW211749   3.984   2.423   1.778 -1.6809  2.1140 -2.6238
 3166SOL     OW11750   6.883   6.113   7.296 -0.7294 -1.0163  0.1202
 3166SOL    HW111751   6.824   6.058   7.246 -0.6273 -1.7215  0.7543
 3166SOL    HW211752   6.827   6.183   7.331 -0.8444 -0.6627 -0.7475
 3167SOL     OW11753   5.472   7.507   5.605 -0.2085  0.4917 -0.5111
 3167SOL    HW111754   5.518   7.442   5.553 -0.5585  0.6842 -1.0821
 3167SOL    HW211755   5.390   7.521   5.557 -0.0824  1.4360 -0.4618
 3168SOL     OW11756   1.443   6.808   1.256  0.4311  0.3324  0.1406
 3168SOL    HW111757   1.394   6.889   1.246  1.2374  1.0182  1.4781
 3168SOL    HW211758   1.405   6.766   1.333  1.0699  0.2281  0.4069
 3169SOL     OW11759   1.486   5.754   4.690  0.0844  0.1797  0.4977
 3169SOL    HW111760   1.423   5.758   4.761 -0.7992  1.5240 -0.3308
 3169SOL    HW211761   1.553   5.818   4.713 -0.5015  1.0424 -0.1275
 3170SOL     OW11762   2.992   0.712   0.014  0.2822  0.2492  0.1865
 3170SOL    HW111763   2.986   0.729  -0.080 -0.8495  0.7177  0.3242
 3170SOL    HW211764   3.052   0.778   0.047 -1.3435  1.8091  0.1725
 3171SOL     OW11765   7.612   4.084   6.694 -0.5648  0.3796 -0.4799
 3171SOL    HW111766   7.678   4.023   6.729  0.8194  0.8612 -2.1018
 3171SOL    HW211767   7.528   4.042   6.714  0.3168 -2.0174 -1.3915
 3172SOL     OW11768   8.515   2.630   0.068  0.3160  0.0611  0.5171
 3172SOL    HW111769   8.478   2.716   0.089 -1.2540  0.0231 -1.7293
 3172SOL    HW211770   8.502   2.579   0.148  2.0862  2.0879  2.2153
 3173SOL     OW11771   2.293   1.478   2.781 -0.3881  0.0083 -0.0841
 3173SOL    HW111772   2.387   1.474   2.795 -0.3718  1.2337  0.3336
 3173SOL    HW211773   2.277   1.428   2.701  0.6034 -0.2284 -0.1401
 3174SOL     OW11774  10.071   9.343   6.687  0.4475  0.5285  0.0449
 3174SOL    HW111775  10.053   9.355   6.781 -0.6094  0.2941 -0.1180
 3174SOL    HW211776  10.149   9.288   6.685  1.9626  2.5013  0.7865
 3175SOL     OW11777   6.076   0.223   5.339  0.0502 -0.1027 -0.1753
 3175SOL    HW111778   6.029   0.271   5.270 -2.4616  0.2108  1.5952
 3175SOL    HW211779   6.127   0.289   5.384 -0.9486  0.3714  0.3037
 3176SOL     OW11780   1.978   8.080   8.830  0.4351 -0.1076 -0.1361
 3176SOL    HW111781   1.900   8.026   8.820 -0.0424  0.0601  2.2314
 3176SOL    HW211782   1.975   8.140   8.755 -0.0046 -2.0943 -1.7900
 3177SOL     OW11783  10.092   2.979   0.031 -0.0936 -0.5765  0.3770
 3177SOL    HW111784  10.180   2.968   0.067  0.4498 -2.1449 -1.2933
 3177SOL    HW211785  10.036   2.926   0.088 -0.1184  0.8633  1.7800
 3178SOL     OW11786   7.279   8.365   4.324 -0.0962 -0.6685  0.1984
 3178SOL    HW111787   7.293   8.445   4.375 -1.2054 -0.3912  0.0916
 3178SOL    HW211788   7.291   8.295   4.388 -1.0123 -0.3379  0.7638
 3179SOL     OW11789   2.725   9.009   4.536  0.4102  0.2041 -0.0128
 3179SOL    HW111790   2.665   8.937   4.516 -0.8563  1.7458 -2.1590
 3179SOL    HW211791   2.669   9.087   4.537  1.9537  1.3536  0.8468
 3180SOL     OW11792   5.741   0.550   5.907 -0.4590 -0.2175  0.8746
 3180SOL    HW111793   5.720   0.458   5.925 -0.3293 -0.2898  0.6514
 3180SOL    HW211794   5.730   0.560   5.813  2.1858 -0.6999  0.4466
 3181SOL     OW11795   9.369   5.685   6.200 -0.5014  0.1282 -0.6216
 3181SOL    HW111796   9.454   5.662   6.164 -0.1276  0.7399 -0.1337
 3181SOL    HW211797   9.377   5.776   6.228 -0.3951 -0.6009  2.0298
 3182SOL     OW11798   2.187   4.986   3.684  0.1831 -0.1612  0.2349
 3182SOL    HW111799   2.124   5.007   3.753  1.2433  2.6621  0.4737
 3182SOL    HW211800   2.270   5.020   3.716  1.4668 -1.9907 -0.9451
 3183SOL     OW11801   9.294   9.596   0.072 -0.1496 -0.4452  0.1412
 3183SOL    HW111802   9.361   9.543   0.030 -0.4665 -0.7477  0.0047
 3183SOL    HW211803   9.216   9.540   0.072  0.2528 -1.0917  2.6253
 3184SOL     OW11804   0.773   3.433   4.435  0.1298 -0.2726 -0.2528
 3184SOL    HW111805   0.815   3.477   4.361 -0.8547  0.9784 -0.1143
 3184SOL    HW211806   0.714   3.500   4.472 -0.6982 -1.4194  0.5774
 3185SOL     OW11807   9.541   0.068   8.842  0.0541  0.1269  0.1554
 3185SOL    HW111808   9.595  -0.008   8.821 -2.1076 -0.7312 -2.8653
 3185SOL    HW211809   9.520   0.108   8.758 -2.4337  1.5240  1.3002
 3186SOL     OW11810   4.841   8.540   6.775 -0.2389 -0.0024 -0.1434
 3186SOL    HW111811   4.912   8.595   6.743  0.4334  0.0701  1.3890
 3186SOL    HW211812   4.785   8.527   6.699  0.6623  1.1110 -1.0401
 3187SOL     OW11813   7.211   1.757   7.333 -0.3992  0.2193  0.1375
 3187SOL    HW111814   7.288   1.707   7.308 -0.0296  1.5688 -1.5757
 3187SOL    HW211815   7.208   1.830   7.271 -1.2072  2.0500  2.2087
 3188SOL     OW11816   7.915   3.928   2.772  0.1402 -0.2270 -0.3585
 3188SOL    HW111817   7.924   3.852   2.714 -1.0865 -1.5102  1.0399
 3188SOL    HW211818   7.961   3.998   2.727 -1.2299 -0.9748 -3.1820
 3189SOL     OW11819   3.137  10.244   9.590 -0.0462  0.1225  0.1681
 3189SOL    HW111820   3.120  10.304   9.663 -2.4828 -1.0867  0.6764
 3189SOL    HW211821   3.224  10.208   9.609  0.0664  1.0365  1.5822
 3190SOL     OW11822   1.002   0.186   3.181 -0.3399  0.0719 -0.0674
 3190SOL    HW111823   1.075   0.147   3.133  1.2382  0.7883  1.6624
 3190SOL    HW211824   0.992   0.274   3.143 -0.1836  0.0412 -0.1787
 3191SOL     OW11825   4.442   0.426   0.389 -0.4476 -0.7891 -0.4397
 3191SOL    HW111826   4.524   0.377   0.389  0.1378  0.1541 -0.1328
 3191SOL    HW211827   4.388   0.383   0.322  0.5998 -0.9264 -1.2265
 3192SOL     OW11828   8.982   2.263   7.627 -0.0808 -0.6743  0.2380
 3192SOL    HW111829   8.905   2.301   7.669  1.0558  1.0557  0.8313
 3192SOL    HW211830   9.056   2.291   7.681  1.2019 -0.3694 -1.5660
 3193SOL     OW11831   1.356   5.852   4.928  0.5601 -0.0809 -0.0589
 3193SOL    HW111832   1.311   5.935   4.917 -1.9391 -1.3245 -0.0588
 3193SOL    HW211833   1.449   5.873   4.919 -0.0754  2.0006 -4.8782
 3194SOL     OW11834   5.920   6.543   4.099  0.5517 -0.0773 -0.0543
 3194SOL    HW111835   5.999   6.556   4.046  0.4601 -1.0125 -0.4334
 3194SOL    HW211836   5.938   6.592   4.180  1.3548  0.0465 -0.2958
 3195SOL     OW11837   1.399  10.165   5.929 -0.4496 -0.2618 -0.2028
 3195SOL    HW111838   1.494  10.166   5.941 -0.5303 -0.3086  0.4975
 3195SOL    HW211839   1.385  10.198   5.840  0.1991  0.2449 -0.1222
 3196SOL     OW11840   4.323   3.901   6.991  0.3434  0.0429 -0.5884
 3196SOL    HW111841   4.329   3.806   6.996  2.4065  0.1697  0.7505
 3196SOL    HW211842   4.409   3.928   6.958 -0.3984  1.4395 -1.4710
 3197SOL     OW11843   1.007   0.721   8.507  0.1668 -0.5981  0.1826
 3197SOL    HW111844   1.061   0.753   8.436  0.4842 -1.4007  0.0633
 3197SOL    HW211845   0.917   0.736   8.478  0.2559  2.2726  1.0586
 3198SOL     OW11846   0.417   9.370   5.715 -0.3359  0.0537 -0.1133
 3198SOL    HW111847   0.405   9.275   5.712 -0.7201  0.0455  1.0832
 3198SOL    HW211848   0.340   9.402   5.763  0.3022  0.8650  0.3930
 3199SOL     OW11849   9.715   7.964   6.065 -0.2711 -0.1659 -0.1680
 3199SOL    HW111850   9.643   7.920   6.111 -0.6444 -0.1402 -0.7132
 3199SOL    HW211851   9.684   8.054   6.054 -0.3651 -0.2795 -0.8452
 3200SOL     OW11852   1.917   5.365   1.215 -0.1532 -0.3752  0.0325
 3200SOL    HW111853   1.856   5.386   1.287  1.6480  1.1794  1.2020
 3200SOL    HW211854   1.971   5.443   1.206  1.3933 -1.5234 -1.2620
 3201SOL     OW11855   7.548   3.304   1.324 -0.0281  0.7991  0.2454
 3201SOL    HW111856   7.492   3.252   1.267 -0.1830  0.7196  0.4700
 3201SOL    HW211857   7.625   3.248   1.340  1.3497  1.8637 -2.1269
 3202SOL     OW11858   8.089   4.187   8.990  0.2326  0.5505  0.0748
 3202SOL    HW111859   8.177   4.150   8.980  0.6789  1.6241 -0.1085
 3202SOL    HW211860   8.091   4.231   9.075  0.2234  1.5046 -0.4132
 3203SOL     OW11861   1.558   5.382   9.880 -0.0721 -0.2109 -0.1417
 3203SOL    HW111862   1.610   5.330   9.940 -1.6450  0.1266  1.6148
 3203SOL    HW211863   1.468   5.352   9.894 -0.7292  1.3241 -0.8069
 3204SOL     OW11864   6.236   0.992   4.438  0.4589 -0.3786 -0.4609
 3204SOL    HW111865   6.293   0.966   4.366 -0.3835 -1.5948 -0.7244
 3204SOL    HW211866   6.183   0.914   4.456  1.2202 -0.4186  2.0477
 3205SOL     OW11867   3.990   0.222   3.495 -0.9679 -0.4124  0.2862
 3205SOL    HW111868   3.896   0.208   3.489 -0.8773 -0.7669 -0.5441
 3205SOL    HW211869   4.000   0.300   3.549 -1.7066 -0.7626  0.9447
 3206SOL     OW11870   3.826   6.973   2.679  0.1169 -0.2606  0.6589
 3206SOL    HW111871   3.856   6.896   2.728  3.8926 -1.0220 -2.3384
 3206SOL    HW211872   3.880   7.045   2.711 -1.2665  0.5249  1.3270
 3207SOL     OW11873   1.042   6.949   1.113 -0.4466 -0.6158 -0.1805
 3207SOL    HW111874   1.081   6.880   1.060 -1.4326  0.2020 -2.0506
 3207SOL    HW211875   0.964   6.976   1.064 -0.1011  1.8037  0.4953
 3208SOL     OW11876   6.933   9.367   9.880 -0.1945 -0.4337 -0.6460
 3208SOL    HW111877   6.928   9.291   9.938  0.4258 -0.1043 -0.1446
 3208SOL    HW211878   7.027   9.382   9.868 -0.3150 -0.1824 -1.3257
 3209SOL     OW11879   5.819   2.432   0.943 -0.3126 -0.0504 -0.1826
 3209SOL    HW111880   5.814   2.398   1.033 -2.2824  0.1728 -0.1691
 3209SOL    HW211881   5.899   2.393   0.908  1.6993  1.4868  2.3048
 3210SOL     OW11882   7.544   3.082   2.577 -0.0254 -0.3612  0.1940
 3210SOL    HW111883   7.599   3.151   2.615 -2.0402 -0.0622  2.9185
 3210SOL    HW211884   7.517   3.117   2.492  2.0037  0.5053 -0.1400
 3211SOL     OW11885   6.640   4.679   3.168 -0.0924  0.2053 -0.2416
 3211SOL    HW111886   6.590   4.759   3.185  0.9359  0.6197  0.9847
 3211SOL    HW211887   6.634   4.630   3.250 -2.7829 -2.2069 -1.7014
 3212SOL     OW11888   0.242   5.862   0.688  0.1296 -0.2740  0.0191
 3212SOL    HW111889   0.287   5.783   0.659 -0.6169 -0.6906 -0.0505
 3212SOL    HW211890   0.290   5.892   0.764 -1.3807 -2.6085  2.0499
 3213SOL     OW11891   4.047   0.904   0.675  0.1774 -0.0793  0.4257
 3213SOL    HW111892   4.039   0.848   0.598  0.3148 -0.5354  0.7349
 3213SOL    HW211893   4.038   0.993   0.642  1.1640 -0.2182 -0.2532
 3214SOL     OW11894  10.596   6.322  10.560  0.0985  0.0793  0.5212
 3214SOL    HW111895  10.602   6.416  10.543  2.5221 -0.3674 -1.8260
 3214SOL    HW211896  10.513   6.295  10.521  0.1316  1.0514 -0.2579
 3215SOL     OW11897   8.481   4.774   4.828 -0.0555 -0.2476 -0.6878
 3215SOL    HW111898   8.404   4.728   4.862 -0.5454  2.3771  2.2201
 3215SOL    HW211899   8.546   4.767   4.898  0.8504  1.0321 -1.3618
 3216SOL     OW11900   1.439   2.792   0.669 -0.2383 -0.4531 -0.1713
 3216SOL    HW111901   1.501   2.736   0.716 -1.2538 -0.9006  0.6805
 3216SOL    HW211902   1.408   2.737   0.598  2.0294  0.5459 -2.0764
 3217SOL     OW11903   8.507   1.285   3.987  0.0125  0.3021 -0.8633
 3217SOL    HW111904   8.477   1.260   4.074  1.0410  0.0045 -0.5808
 3217SOL    HW211905   8.427   1.289   3.934 -0.5591 -0.0467 -0.0381
 3218SOL     OW11906   3.805   2.724   5.294 -0.1283 -0.1827 -0.0672
 3218SOL    HW111907   3.885   2.777   5.298 -0.5996  0.4548  1.8272
 3218SOL    HW211908   3.758   2.756   5.217  0.9871  0.0699 -0.6625
 3219SOL     OW11909   6.342  10.124   9.440  0.2584  0.8911 -0.4581
 3219SOL    HW111910   6.258  10.094   9.476  0.1859  2.0015  0.3272
 3219SOL    HW211911   6.395  10.044   9.434  0.2181  0.6233  1.9537
 3220SOL     OW11912   3.337   2.239   0.100  0.1767 -0.5702  0.1503
 3220SOL    HW111913   3.352   2.172   0.033 -1.4178  0.7922 -1.7168
 3220SOL    HW211914   3.242   2.249   0.103  0.3542  1.6864  0.2203
 3221SOL     OW11915   9.592   2.626   9.473  0.3850  0.4913  0.1149
 3221SOL    HW111916   9.521   2.562   9.473  1.7735 -1.1232 -0.2570
 3221SOL    HW211917   9.567   2.689   9.540 -0.3039 -1.3215  1.6690
 3222SOL     OW11918   2.754   4.753   3.041  0.1521  0.0809 -0.0829
 3222SOL    HW111919   2.821   4.821   3.050 -0.7326  0.8535  0.9186
 3222SOL    HW211920   2.688   4.776   3.106 -0.6590 -1.1767 -0.4313
 3223SOL     OW11921   4.831   1.553   1.475  0.0832  0.2475 -0.1515
 3223SOL    HW111922   4.811   1.466   1.440  1.6401 -1.0618  1.9345
 3223SOL    HW211923   4.918   1.574   1.440  0.4667  0.1431  0.7070
 3224SOL     OW11924   6.053   7.663   8.415 -0.0289  0.2465 -0.0988
 3224SOL    HW111925   6.083   7.680   8.504  1.2295 -0.2264 -0.4100
 3224SOL    HW211926   6.034   7.569   8.413 -2.2443  0.6344  0.2677
 3225SOL     OW11927   1.895   6.388   1.109 -0.1539  0.1713 -0.3303
 3225SOL    HW111928   1.930   6.351   1.028 -1.7260  0.2299 -1.0633
 3225SOL    HW211929   1.848   6.315   1.151 -0.7366  0.5584 -0.2954
 3226SOL     OW11930   9.240   4.161   7.562  0.0760 -0.0386  0.2231
 3226SOL    HW111931   9.199   4.075   7.561  1.2377 -0.6704  2.1771
 3226SOL    HW211932   9.184   4.215   7.507 -1.8068 -1.5238  0.6034
 3227SOL     OW11933   2.995   1.390   0.282  0.3548 -0.0875 -0.1328
 3227SOL    HW111934   3.052   1.351   0.348  1.4925 -0.1427 -1.1077
 3227SOL    HW211935   2.955   1.465   0.325  1.8715  0.4889  0.3331
 3228SOL     OW11936   6.567   3.570   0.871 -0.2419 -0.0241  0.4843
 3228SOL    HW111937   6.637   3.608   0.817 -0.6502 -1.8276 -1.4149
 3228SOL    HW211938   6.535   3.644   0.923  1.3178  1.4222 -0.4946
 3229SOL     OW11939   1.731   5.968   3.977 -0.1967 -0.6463 -0.6809
 3229SOL    HW111940   1.687   6.037   3.927  0.7349 -0.3408 -1.1086
 3229SOL    HW211941   1.679   5.889   3.960 -0.2793 -0.4055 -1.6020
 3230SOL     OW11942   3.771   1.093   0.481 -0.1331 -0.0938  0.5379
 3230SOL    HW111943   3.836   1.106   0.550 -0.2463 -1.1186  0.8479
 3230SOL    HW211944   3.687   1.091   0.527 -0.6013  2.6974  0.0044
 3231SOL     OW11945   8.243   8.849   7.907 -0.3190 -0.1542 -0.0492
 3231SOL    HW111946   8.226   8.927   7.855  1.0108 -0.9981 -1.8322
 3231SOL    HW211947   8.322   8.870   7.956 -1.4298  0.5442  1.5521
 3232SOL     OW11948   9.279   7.084   3.654 -0.3211  0.1856 -0.4550
 3232SOL    HW111949   9.239   7.003   3.622 -0.3829 -0.7663  1.8954
 3232SOL    HW211950   9.345   7.056   3.717 -1.5671  1.9332  1.7899
 3233SOL     OW11951  10.546   0.498   2.075 -0.4605  0.4854  0.5957
 3233SOL    HW111952  10.487   0.479   2.002  0.1990 -1.4926  0.5181
 3233SOL    HW211953  10.597   0.574   2.047  0.1367 -0.5475 -1.2357
 3234SOL     OW11954   2.840   5.971   4.197 -0.2093 -0.1582  0.1204
 3234SOL    HW111955   2.867   6.017   4.118  0.1396 -0.8215 -0.1579
 3234SOL    HW211956   2.914   5.914   4.218 -0.3166 -0.0205  0.9013
 3235SOL     OW11957   8.323  10.492   6.194  0.3620  0.2169 -0.1002
 3235SOL    HW111958   8.350  10.472   6.104  0.5245 -0.8189  0.1581
 3235SOL    HW211959   8.406  10.500   6.242  0.3553  2.7697 -0.4035
 3236SOL     OW11960   5.691   7.572   2.254  0.2567 -0.0737 -0.2719
 3236SOL    HW111961   5.735   7.500   2.209  0.3134 -0.1628 -0.0780
 3236SOL    HW211962   5.725   7.651   2.212  0.1436 -0.1630 -0.5301
 3237SOL     OW11963   4.194   0.933   7.875  0.2291 -0.6122 -0.1022
 3237SOL    HW111964   4.120   0.875   7.893 -0.2870 -0.4354 -1.5181
 3237SOL    HW211965   4.261   0.876   7.837  0.1594 -0.4758 -0.4286
 3238SOL     OW11966   0.751  10.462   5.974 -0.3552  0.8295 -0.2990
 3238SOL    HW111967   0.669  10.422   5.948 -0.0861  0.3246 -0.3922
 3238SOL    HW211968   0.769  10.425   6.061 -0.6138  1.5350  0.0629
 3239SOL     OW11969   9.979   4.730   1.817 -0.2381 -0.2683  0.7108
 3239SOL    HW111970   9.926   4.651   1.808 -0.2340 -0.3796  1.5946
 3239SOL    HW211971  10.052   4.705   1.873 -0.9115  0.6602  2.0642
 3240SOL     OW11972   2.140   1.821   1.284 -0.5661  0.1945 -0.5732
 3240SOL    HW111973   2.048   1.838   1.304 -0.5821 -0.0635 -0.4190
 3240SOL    HW211974   2.138   1.772   1.202 -0.5125  1.0296 -1.0937
 3241SOL     OW11975   1.799   3.167   2.997 -0.4999 -0.1347 -0.1389
 3241SOL    HW111976   1.779   3.211   3.080  0.2955 -1.6660  0.9024
 3241SOL    HW211977   1.888   3.197   2.976 -0.0681 -0.9735  0.4257
 3242SOL     OW11978   9.625   1.691   1.980 -0.4647 -0.1177 -0.2682
 3242SOL    HW111979   9.555   1.751   2.004 -1.3462 -0.5632 -1.6348
 3242SOL    HW211980   9.681   1.742   1.921  0.7816  0.4541  1.3402
 3243SOL     OW11981   0.714   1.591   3.578  0.4100 -0.2882  0.6480
 3243SOL    HW111982   0.750   1.655   3.517 -0.6940 -0.9538 -0.7587
 3243SOL    HW211983   0.669   1.643   3.644 -0.0618  0.4054 -0.2127
 3244SOL     OW11984   2.803  10.231   3.183  0.2248  0.5245  0.0279
 3244SOL    HW111985   2.770  10.156   3.133  0.8785 -0.5444  1.1430
 3244SOL    HW211986   2.825  10.296   3.117 -1.4854  0.2223 -0.9076
 3245SOL     OW11987   7.713   3.056  10.381  0.2164  0.7056 -0.4705
 3245SOL    HW111988   7.794   3.026  10.423  0.1853  0.9755 -0.2195
 3245SOL    HW211989   7.728   3.149  10.364  0.5343  0.4451 -1.7577
 3246SOL     OW11990   1.817   4.154   4.683  0.1741  0.4230 -0.0787
 3246SOL    HW111991   1.772   4.238   4.682 -1.5318 -0.4331  1.0127
 3246SOL    HW211992   1.884   4.164   4.751  0.1504  0.9749 -0.1294
 3247SOL     OW11993   5.271  10.129   5.848 -0.2463  0.3872 -0.1749
 3247SOL    HW111994   5.211  10.095   5.915 -0.7130  0.9115 -0.3256
 3247SOL    HW211995   5.215  10.182   5.791  0.1117 -0.2097 -1.0925
 3248SOL     OW11996   2.650   9.028   0.687  0.0314 -0.1942 -0.0738
 3248SOL    HW111997   2.585   8.985   0.742 -1.3124 -2.0052 -2.8485
 3248SOL    HW211998   2.638   9.122   0.704 -0.0211 -0.6494  2.8776
 3249SOL     OW11999   2.287  10.566   8.469 -0.4450  0.2852 -0.4012
 3249SOL    HW112000   2.233  10.614   8.405 -0.2707 -2.3798 -2.7779
 3249SOL    HW212001   2.224  10.533   8.533 -0.8106  1.8568  0.1026
 3250SOL     OW12002   2.961   1.285   6.531  0.1497 -0.5885  0.3734
 3250SOL    HW112003   2.872   1.319   6.517 -0.0027 -0.0055  2.5075
 3250SOL    HW212004   2.956   1.193   6.505 -0.5216 -0.0728 -1.4825
 3251SOL     OW12005   5.251   5.363   4.645 -0.0622 -0.4439  0.5772
 3251SOL    HW112006   5.321   5.360   4.579 -0.1068 -0.4307  0.5287
 3251SOL    HW212007   5.209   5.448   4.631 -1.6927 -1.4320 -1.0545
 3252SOL     OW12008   3.809   4.034  10.187  0.0388 -0.4421  0.2582
 3252SOL    HW112009   3.807   4.122  10.149  0.9740  0.2824  1.7984
 3252SOL    HW212010   3.890   4.031  10.238 -0.6576 -1.7105  1.3651
 3253SOL     OW12011   7.978   8.340   6.021 -0.3349 -0.4485  0.2546
 3253SOL    HW112012   7.898   8.317   5.974 -0.2697 -0.6640  0.2472
 3253SOL    HW212013   7.962   8.428   6.054 -1.2902 -1.1353  1.7443
 3254SOL     OW12014   2.249   2.707   3.631  0.1596 -0.4701  0.3416
 3254SOL    HW112015   2.255   2.634   3.694 -1.3373 -1.9290 -1.0918
 3254SOL    HW212016   2.330   2.701   3.581  0.3846 -0.6703  0.7161
 3255SOL     OW12017   1.093   8.895   8.884  0.6032  0.4973 -0.0670
 3255SOL    HW112018   1.035   8.883   8.959 -0.5652 -1.4747 -1.1969
 3255SOL    HW212019   1.034   8.901   8.809  1.7623 -2.5051 -1.3817
 3256SOL     OW12020   9.629   8.068  10.352  0.3465 -0.2135 -0.3044
 3256SOL    HW112021   9.642   7.982  10.392 -0.0160 -0.1052  0.0536
 3256SOL    HW212022   9.553   8.057  10.295 -2.1018  0.7532  2.5289
 3257SOL     OW12023   6.258   4.007   7.989  0.1523 -0.0269  0.1588
 3257SOL    HW112024   6.243   3.933   8.048  0.1616 -1.1311 -1.1943
 3257SOL    HW212025   6.351   4.002   7.968  0.0887  0.1850 -0.1813
 3258SOL     OW12026   4.031  10.031   8.968 -0.7504  0.1669  0.1532
 3258SOL    HW112027   3.987  10.057   9.048 -1.1663  0.4441 -0.1592
 3258SOL    HW212028   4.078  10.109   8.939  1.1443 -0.5141  1.2396
 3259SOL     OW12029   5.167   9.348   0.372  0.0630 -0.5214 -0.6212
 3259SOL    HW112030   5.213   9.313   0.296  3.7644 -0.2973  1.3172
 3259SOL    HW212031   5.224   9.330   0.446 -2.1116  1.5935  1.8074
 3260SOL     OW12032   1.312   3.345   6.703 -0.6994  0.1484 -0.3891
 3260SOL    HW112033   1.381   3.408   6.681  0.1174 -0.6315 -0.1368
 3260SOL    HW212034   1.242   3.363   6.640 -0.4988  1.3107 -0.3118
 3261SOL     OW12035   3.630   8.516   0.295  0.9908  0.2462  0.4900
 3261SOL    HW112036   3.651   8.464   0.373  1.8444  2.1498  1.5932
 3261SOL    HW212037   3.561   8.576   0.323 -0.0163 -0.2775 -0.7689
 3262SOL     OW12038   4.224   5.545   8.749  0.7801 -0.3647  0.2295
 3262SOL    HW112039   4.147   5.495   8.722  1.3979 -0.8774 -0.6002
 3262SOL    HW212040   4.198   5.585   8.833 -0.7080  0.2150 -0.4668
 3263SOL     OW12041   3.960   8.875   8.434 -0.1222 -0.1125 -0.1393
 3263SOL    HW112042   4.023   8.838   8.373  1.3301  3.1754 -0.8452
 3263SOL    HW212043   3.882   8.892   8.381  0.2630  0.5073 -0.5099
 3264SOL     OW12044   0.289   8.921   0.455 -0.3254  0.6028  0.3378
 3264SOL    HW112045   0.269   8.976   0.531  0.0523 -0.6491  1.3843
 3264SOL    HW212046   0.336   8.846   0.492  0.8750  0.5028 -1.2846
 3265SOL     OW12047   1.397   3.520   6.162 -0.0467 -0.1020  0.2352
 3265SOL    HW112048   1.302   3.519   6.146  0.1213 -0.2416 -0.8717
 3265SOL    HW212049   1.435   3.540   6.076  0.9438 -0.4127  0.5903
 3266SOL     OW12050   6.153   3.128   9.600  0.0943  0.3745  0.0034
 3266SOL    HW112051   6.102   3.204   9.628  0.9361  0.2711  1.9304
 3266SOL    HW212052   6.088   3.059   9.585 -0.5216  0.9321  0.0921
 3267SOL     OW12053   8.473   4.750   9.783  0.3043  0.5784  0.3936
 3267SOL    HW112054   8.537   4.821   9.784  0.6957  0.2214  1.2046
 3267SOL    HW212055   8.420   4.764   9.861  0.7222 -0.3093  0.8543
 3268SOL     OW12056   4.637   2.701   9.075 -0.3800 -0.2445  0.3934
 3268SOL    HW112057   4.685   2.763   9.129  0.3881  0.8024 -1.4061
 3268SOL    HW212058   4.699   2.630   9.060 -0.1851  0.0181 -0.0548
 3269SOL     OW12059   3.267   5.958   4.274 -0.3095  0.0395 -0.1093
 3269SOL    HW112060   3.254   5.999   4.359  0.7130  1.0579 -0.4264
 3269SOL    HW212061   3.286   6.031   4.215 -0.1084 -0.7431 -1.0287
 3270SOL     OW12062   6.991   5.912   6.429 -1.2084  0.4182  0.1667
 3270SOL    HW112063   7.086   5.904   6.421 -0.9969  1.4123  1.4451
 3270SOL    HW212064   6.957   5.831   6.390  0.1653 -0.1071 -0.0030
 3271SOL     OW12065   3.119   2.961   9.421  0.2025  0.5569 -0.0116
 3271SOL    HW112066   3.116   3.018   9.344  0.2912 -0.0675 -0.4850
 3271SOL    HW212067   3.206   2.975   9.458  1.0949 -0.9278 -1.4244
 3272SOL     OW12068   1.582   2.457   1.928 -0.0657  0.1273  0.5165
 3272SOL    HW112069   1.661   2.403   1.933  0.9335  1.6384  1.9419
 3272SOL    HW212070   1.598   2.517   1.855 -0.5016 -0.4303 -0.0521
 3273SOL     OW12071   6.788   2.439  10.480 -0.0226  0.1576  0.3753
 3273SOL    HW112072   6.830   2.357  10.454 -1.4767 -0.3680 -0.4275
 3273SOL    HW212073   6.818   2.503  10.416 -1.3617 -0.5015 -0.9873
 3274SOL     OW12074   4.963   3.324   3.905 -0.4763 -0.0960 -0.1152
 3274SOL    HW112075   4.979   3.239   3.863 -1.6898 -0.5196  0.2493
 3274SOL    HW212076   5.020   3.385   3.858 -0.1740 -0.9687 -0.9095
 3275SOL     OW12077   4.144   4.249   0.655  0.0288  0.1423  0.2149
 3275SOL    HW112078   4.083   4.310   0.613 -0.2101 -0.1980  0.0576
 3275SOL    HW212079   4.156   4.179   0.590  0.4157  0.0973  0.3319
 3276SOL     OW12080   4.005   0.068   0.047 -0.1239 -0.2497  0.1206
 3276SOL    HW112081   3.982   0.051  -0.044  1.6720  1.3937 -0.7120
 3276SOL    HW212082   4.043  -0.014   0.078 -2.7616 -1.5585  0.1718
 3277SOL     OW12083   3.671   1.770   6.610  1.6613 -0.3166 -0.8949
 3277SOL    HW112084   3.753   1.816   6.596  0.9405  0.5559 -2.6184
 3277SOL    HW212085   3.604   1.829   6.574  0.0045 -0.0929  2.1889
 3278SOL     OW12086   9.237   8.487   7.213  0.1702 -0.3273  0.3491
 3278SOL    HW112087   9.278   8.444   7.137  2.6163  1.8018  0.3326
 3278SOL    HW212088   9.256   8.580   7.201 -0.3707  0.2015  3.0193
 3279SOL     OW12089   5.312   3.764   6.075 -0.3928 -0.6236  0.2833
 3279SOL    HW112090   5.354   3.745   5.991 -2.4534 -1.1146 -0.7110
 3279SOL    HW212091   5.313   3.860   6.081 -0.2937 -0.5809 -0.3425
 3280SOL     OW12092   1.545   3.022   6.117  0.5532 -0.0497  0.3813
 3280SOL    HW112093   1.533   3.109   6.078 -1.4644 -0.9432 -1.2128
 3280SOL    HW212094   1.568   3.039   6.208  1.1764  2.1501 -0.1259
 3281SOL     OW12095   8.503   5.600   6.647  0.3604  0.0373  0.4881
 3281SOL    HW112096   8.425   5.644   6.612  0.5155 -1.2646 -1.6701
 3281SOL    HW212097   8.467   5.527   6.698  0.1163 -0.7312 -0.7372
 3282SOL     OW12098   0.873   9.051   1.906  0.2520 -0.2843  0.2980
 3282SOL    HW112099   0.933   9.034   1.833 -1.1115 -0.7456 -0.7739
 3282SOL    HW212100   0.787   9.057   1.864 -0.1868  3.1958  1.3806
 3283SOL     OW12101   5.335   8.096   6.259  0.3857  0.5924  0.3467
 3283SOL    HW112102   5.368   8.059   6.341  0.5277 -0.5765 -0.2214
 3283SOL    HW212103   5.407   8.087   6.197 -0.2287  0.0340 -0.3152
 3284SOL     OW12104   8.915   2.847   4.788  0.4649 -0.0494  0.0462
 3284SOL    HW112105   8.898   2.826   4.879 -0.9820 -0.3436 -0.2583
 3284SOL    HW212106   8.853   2.918   4.768 -0.8429 -1.4865 -1.2853
 3285SOL     OW12107   7.990   3.561   0.164  1.1253 -0.4184  0.0017
 3285SOL    HW112108   7.966   3.609   0.243  1.7841  0.2351 -0.1840
 3285SOL    HW212109   8.058   3.614   0.123 -1.3119  0.8593 -2.6723
 3286SOL     OW12110  10.082   9.516   1.996 -0.2706  0.0461  0.3275
 3286SOL    HW112111  10.120   9.572   1.928  0.8946  0.2746  1.1462
 3286SOL    HW212112  10.110   9.427   1.972  0.4501  0.1696  0.7134
 3287SOL     OW12113   0.106   2.115   5.336  0.4066 -0.0800  0.3320
 3287SOL    HW112114   0.183   2.169   5.356  0.6021 -0.4126  0.5055
 3287SOL    HW212115   0.100   2.116   5.241 -0.7692  1.8549  0.3787
 3288SOL     OW12116   6.550   7.956   5.197  0.0420 -0.1421 -0.1651
 3288SOL    HW112117   6.588   7.901   5.129 -0.1107  1.1923 -1.3693
 3288SOL    HW212118   6.624   8.007   5.230 -0.3334  1.0794 -1.1706
 3289SOL     OW12119   9.342   8.225   8.487 -0.6643 -0.1177  0.0788
 3289SOL    HW112120   9.408   8.294   8.491 -1.1984  0.3781  0.7597
 3289SOL    HW212121   9.266   8.263   8.531 -1.4092 -0.6666 -0.7030
 3290SOL     OW12122   0.223   1.642   7.161  0.1345  0.1304  0.5789
 3290SOL    HW112123   0.218   1.563   7.107 -0.2908  0.3532  0.2920
 3290SOL    HW212124   0.161   1.703   7.122  0.0920  0.4314  1.0970
 3291SOL     OW12125   9.280   7.908   9.331  0.0161  0.0955 -0.3355
 3291SOL    HW112126   9.337   7.835   9.308 -0.0130  0.4471 -1.6022
 3291SOL    HW212127   9.268   7.901   9.426  0.4035 -1.2505 -0.3722
 3292SOL     OW12128  10.266  10.381   7.180 -0.1693  0.2971 -0.4325
 3292SOL    HW112129  10.279  10.287   7.168 -1.0272  0.2032 -0.6660
 3292SOL    HW212130  10.324  10.422   7.115 -2.9009 -0.1611 -3.4025
 3293SOL     OW12131   8.108   4.299   6.054 -0.2778 -0.5242 -0.1303
 3293SOL    HW112132   8.132   4.215   6.017  2.9230 -0.2225  0.9397
 3293SOL    HW212133   8.064   4.278   6.137 -2.5304 -1.0742 -1.3648
 3294SOL     OW12134   3.257   4.858   2.942 -0.2989 -0.0412  0.4097
 3294SOL    HW112135   3.285   4.813   3.022 -3.2920 -1.4771  0.7695
 3294SOL    HW212136   3.211   4.936   2.974 -0.9926 -0.3130  0.0949
 3295SOL     OW12137   5.334   8.826  10.090 -0.4477  0.0360  0.1122
 3295SOL    HW112138   5.423   8.840  10.058 -1.1015  1.1286 -1.3035
 3295SOL    HW212139   5.315   8.903  10.144 -0.6663 -0.0331  0.1338
 3296SOL     OW12140   8.599   5.096   6.909  0.1556  0.2910  0.2657
 3296SOL    HW112141   8.572   5.096   7.000  0.1489  1.2011  0.2722
 3296SOL    HW212142   8.651   5.016   6.899  2.3228  1.4195  1.7387
 3297SOL     OW12143   9.332   9.525   7.757 -0.1801  0.2337 -0.7011
 3297SOL    HW112144   9.370   9.476   7.830  0.8797  0.9812 -0.7394
 3297SOL    HW212145   9.237   9.521   7.773  0.0116  0.0093  0.4607
 3298SOL     OW12146   7.002   7.988   3.645 -0.5045 -0.0589  0.0464
 3298SOL    HW112147   6.990   8.021   3.734 -0.0281 -0.1704  0.1505
 3298SOL    HW212148   6.913   7.983   3.610 -1.0863 -3.0005  1.5975
 3299SOL     OW12149   2.524   3.808   4.149  0.0297 -0.1432  0.0379
 3299SOL    HW112150   2.585   3.741   4.180  1.7221  2.0804  1.8513
 3299SOL    HW212151   2.471   3.828   4.226 -0.0837  0.9708 -0.3219
 3300SOL     OW12152   0.881   6.058   1.100  0.0398  0.2028 -0.0417
 3300SOL    HW112153   0.828   6.117   1.153 -0.6617 -0.2044 -0.2710
 3300SOL    HW212154   0.846   6.067   1.012 -1.7531 -2.3249  0.2993
 3301SOL     OW12155   1.683   5.558  10.448  0.1434 -0.6723 -0.5949
 3301SOL    HW112156   1.622   5.485  10.459 -1.4929  0.6673 -0.3463
 3301SOL    HW212157   1.726   5.566  10.533  0.9700 -1.8537 -0.8796
 3302SOL     OW12158   2.217   7.716  10.228  0.8389 -0.3039 -0.8936
 3302SOL    HW112159   2.203   7.810  10.213 -0.0826 -0.0874  0.9404
 3302SOL    HW212160   2.178   7.674  10.152 -0.9639  0.7422 -0.6116
 3303SOL     OW12161   8.224  10.094   2.815 -0.3793  0.6807 -0.4394
 3303SOL    HW112162   8.318  10.079   2.810 -0.2737  1.5933 -1.4231
 3303SOL    HW212163   8.208  10.114   2.908  0.3261  0.1716 -0.1990
 3304SOL     OW12164   5.584   3.681  10.420  0.4277 -0.7095  0.1786
 3304SOL    HW112165   5.518   3.747  10.441 -0.0232 -0.7488 -1.0557
 3304SOL    HW212166   5.587   3.625  10.497 -0.5040 -0.3126  0.5179
 3305SOL     OW12167   7.461   3.140   3.068  0.5730  0.4922 -0.2500
 3305SOL    HW112168   7.490   3.086   3.143  0.5710 -0.4191 -0.8840
 3305SOL    HW212169   7.539   3.188   3.042  0.7418  0.3148 -0.0780
 3306SOL     OW12170   6.559  10.039   8.004  0.1004  0.0275 -0.3299
 3306SOL    HW112171   6.556  10.134   8.016 -2.5913  0.4969 -3.3169
 3306SOL    HW212172   6.592  10.005   8.087  1.6211  3.5528  0.6812
 3307SOL     OW12173   5.971   5.661   8.180 -0.3331  0.0510  0.0314
 3307SOL    HW112174   6.013   5.725   8.237  3.2746 -2.7913  0.8627
 3307SOL    HW212175   5.885   5.646   8.221 -0.4781  2.6801  0.9429
 3308SOL     OW12176   7.214  10.287   7.681  0.3541  0.1435  0.2322
 3308SOL    HW112177   7.178  10.362   7.633 -0.6633 -0.0881  0.6125
 3308SOL    HW212178   7.207  10.312   7.773  2.5932  0.7179  0.2874
 3309SOL     OW12179   8.815   8.907   5.773 -0.0651  0.5418 -0.1384
 3309SOL    HW112180   8.728   8.926   5.808 -0.3468  3.1941 -1.9829
 3309SOL    HW212181   8.873   8.915   5.848 -1.3203 -1.0372  1.0811
 3310SOL     OW12182   9.173   0.794   1.122 -0.0161  0.5437  0.2421
 3310SOL    HW112183   9.111   0.815   1.192  0.9196 -0.0856  1.2894
 3310SOL    HW212184   9.201   0.704   1.140 -1.1229 -0.3350 -2.0156
 3311SOL     OW12185   7.683   6.987   4.666 -0.5533  0.8162  0.4941
 3311SOL    HW112186   7.700   6.973   4.572 -1.4715  0.2284  0.4028
 3311SOL    HW212187   7.732   6.917   4.709  0.4669  1.5265  0.5160
 3312SOL     OW12188   0.444   3.753   8.201  0.9762  0.2357  0.0333
 3312SOL    HW112189   0.473   3.719   8.286 -0.7816  1.2191  1.0806
 3312SOL    HW212190   0.390   3.683   8.165 -0.5583  0.8563  1.0335
 3313SOL     OW12191   9.647   9.990   5.559  0.1945 -0.3258  0.3382
 3313SOL    HW112192   9.707  10.041   5.504 -1.5204 -0.0445 -1.3665
 3313SOL    HW212193   9.618  10.052   5.626  0.5658  0.0050  0.2012
 3314SOL     OW12194   1.702   4.930   1.903  0.3289  0.5242  0.0512
 3314SOL    HW112195   1.679   4.869   1.833  1.4257  2.1796 -1.8558
 3314SOL    HW212196   1.617   4.959   1.938 -0.2842  0.1934 -1.1019
 3315SOL     OW12197  10.136   4.966   7.081  0.0390  0.4200 -0.0165
 3315SOL    HW112198  10.058   4.913   7.097 -0.0329  0.8649  1.2865
 3315SOL    HW212199  10.202   4.930   7.140  0.0617  1.5876  0.7235
 3316SOL     OW12200   3.715   7.401   1.147  0.0023  0.6395 -0.0391
 3316SOL    HW112201   3.790   7.439   1.102 -0.6176  0.6125 -1.1322
 3316SOL    HW212202   3.696   7.461   1.219  2.0505 -0.1727  1.2887
 3317SOL     OW12203  10.327   0.964   7.292  0.2332  0.3928  0.0139
 3317SOL    HW112204  10.370   1.008   7.366 -0.0126  0.7639 -0.0576
 3317SOL    HW212205  10.333   0.871   7.312  0.7054  0.4626  0.2041
 3318SOL     OW12206   0.741   1.413  10.632  0.4273 -0.2792 -0.1646
 3318SOL    HW112207   0.799   1.444  10.702  1.2751 -2.4186  0.1539
 3318SOL    HW212208   0.799   1.383  10.563 -0.2846 -1.9154 -0.0912
 3319SOL     OW12209   4.919   7.455   9.604  0.1089  0.5613  0.1090
 3319SOL    HW112210   4.940   7.430   9.514 -0.8391 -0.4931  0.1557
 3319SOL    HW212211   4.833   7.496   9.599  0.6628  1.8077  0.3649
 3320SOL     OW12212   7.582   0.595   9.839 -0.6115 -0.2500 -0.0064
 3320SOL    HW112213   7.513   0.541   9.800  0.7599 -2.3339  0.2857
 3320SOL    HW212214   7.656   0.535   9.849  1.3803  1.9565 -0.5861
 3321SOL     OW12215   2.950   4.668   5.534 -0.3691  0.3142 -0.1480
 3321SOL    HW112216   2.970   4.723   5.609 -2.2917  1.3485 -0.3288
 3321SOL    HW212217   2.923   4.584   5.572 -1.5405  0.8990  0.3594
 3322SOL     OW12218  10.533   4.818   2.514  0.5714 -0.6740  0.1386
 3322SOL    HW112219  10.475   4.742   2.506  1.1029 -1.0402 -0.3001
 3322SOL    HW212220  10.563   4.835   2.425 -0.3327  0.6900  0.0614
 3323SOL     OW12221  10.541   2.046   7.891 -0.1750  0.0284  0.3007
 3323SOL    HW112222  10.557   2.022   7.982 -2.1643  0.8106  0.9138
 3323SOL    HW212223  10.548   2.142   7.890 -2.5755  0.2678  0.2295
 3324SOL     OW12224   1.474   8.900   6.884 -0.3841 -0.0402  0.0634
 3324SOL    HW112225   1.508   8.926   6.970 -1.7511  0.1354  0.5666
 3324SOL    HW212226   1.403   8.840   6.903 -0.6706 -0.0407 -0.9556
 3325SOL     OW12227   4.012   7.416   3.569 -0.0086 -0.2540  0.0184
 3325SOL    HW112228   4.031   7.431   3.662  0.1177  2.6678 -0.3686
 3325SOL    HW212229   4.098   7.412   3.527 -0.0188  1.8713 -0.3299
 3326SOL     OW12230   9.681   8.560   6.092  0.2210 -0.8908 -0.1822
 3326SOL    HW112231   9.591   8.528   6.087 -0.0425 -0.2628  0.4645
 3326SOL    HW212232   9.729   8.488   6.133 -0.0160 -1.1535 -0.3547
 3327SOL     OW12233   0.819   4.192   4.233  0.0192  0.3090 -0.5627
 3327SOL    HW112234   0.887   4.138   4.274 -0.2341  0.0607 -0.4678
 3327SOL    HW212235   0.747   4.131   4.216 -0.0629  0.5110 -0.9395
 3328SOL     OW12236   1.957   0.036   3.338 -0.3531  0.5356  0.3730
 3328SOL    HW112237   2.042   0.082   3.338 -0.0265  0.1154  3.3570
 3328SOL    HW212238   1.895   0.102   3.369 -0.2653 -0.3047  2.5130
 3329SOL     OW12239   7.585   0.864   8.527 -0.0635 -0.4151  0.0044
 3329SOL    HW112240   7.551   0.900   8.446 -0.0860  1.2548  0.7249
 3329SOL    HW212241   7.558   0.926   8.595  1.6693 -0.7206  1.0299
 3330SOL     OW12242   8.145   6.298   7.114 -0.3539  0.0324 -0.2425
 3330SOL    HW112243   8.229   6.257   7.093 -0.3688 -0.1452  0.0414
 3330SOL    HW212244   8.126   6.270   7.203 -0.8837 -0.2057 -0.4255
 3331SOL     OW12245   6.973   3.995   3.723 -0.1517 -0.1632  0.3317
 3331SOL    HW112246   6.977   3.923   3.660 -0.1746  2.2107 -2.6374
 3331SOL    HW212247   6.882   4.024   3.721 -0.2153 -0.2162  1.7183
 3332SOL     OW12248   7.716   7.009  10.654  0.7808 -0.1707 -0.1086
 3332SOL    HW112249   7.635   7.059  10.650  0.6472 -0.4665 -1.8843
 3332SOL    HW212250   7.752   7.028  10.741 -1.3370 -0.3218  0.8578
 3333SOL     OW12251   8.177   7.531   0.226  0.6639 -0.0743  0.0366
 3333SOL    HW112252   8.095   7.550   0.180 -0.0757  1.4429  1.8360
 3333SOL    HW212253   8.157   7.453   0.278  0.3278  0.2702  0.4433
 3334SOL     OW12254   8.259   1.822   2.860 -0.0890 -0.0400  0.3671
 3334SOL    HW112255   8.226   1.872   2.935  0.3739  0.3678  0.3013
 3334SOL    HW212256   8.354   1.827   2.867 -0.0229  0.8855 -0.8156
 3335SOL     OW12257   5.560   9.436   0.490 -0.2878  0.3066  0.1287
 3335SOL    HW112258   5.478   9.392   0.511 -1.4186  1.5425 -1.4197
 3335SOL    HW212259   5.550   9.464   0.399  1.3389  1.6155  0.2979
 3336SOL     OW12260   1.742   1.054   3.814 -0.2260 -0.3863  0.1396
 3336SOL    HW112261   1.690   1.010   3.747 -1.6853 -2.0021  2.1895
 3336SOL    HW212262   1.820   0.999   3.823  0.8885  0.8630 -1.4571
 3337SOL     OW12263   6.372   0.929   5.382  0.3128 -0.1906  0.2097
 3337SOL    HW112264   6.406   0.941   5.293 -0.2773  1.0881  0.1302
 3337SOL    HW212265   6.414   0.999   5.433  1.5670 -1.6220  1.2333
 3338SOL     OW12266   0.789   2.311   2.672  0.1006 -0.4402 -0.3776
 3338SOL    HW112267   0.841   2.357   2.738 -1.7370 -0.2435  1.0135
 3338SOL    HW212268   0.832   2.226   2.662  1.1082 -0.0131  0.1490
 3339SOL     OW12269   2.989   4.692   1.950  0.1455  0.5275  0.4237
 3339SOL    HW112270   2.944   4.609   1.935  0.7127 -0.1290  1.9988
 3339SOL    HW212271   2.937   4.757   1.904 -1.0795 -0.5185  0.2644
 3340SOL     OW12272   5.884   4.404   6.537  0.3471  0.0328  0.3771
 3340SOL    HW112273   5.809   4.442   6.491  1.0643  0.3453 -0.5685
 3340SOL    HW212274   5.845   4.344   6.601 -0.7799  1.6308  1.2701
 3341SOL     OW12275   9.932   8.965   5.570 -0.2142  0.1334 -0.1352
 3341SOL    HW112276   9.890   8.968   5.656  0.6697 -1.2585  0.3674
 3341SOL    HW212277  10.000   8.898   5.578 -0.3602 -0.2986 -2.0228
 3342SOL     OW12278   4.294  10.528   9.856 -0.5791  0.7715 -0.5679
 3342SOL    HW112279   4.283  10.582   9.778 -1.3844  1.1174 -0.2340
 3342SOL    HW212280   4.240  10.451   9.840 -1.0035  0.9901 -0.2359
 3343SOL     OW12281  10.591   7.032   1.139  0.1229 -0.3210  0.0615
 3343SOL    HW112282  10.520   7.033   1.075  0.9636  0.4161 -0.8940
 3343SOL    HW212283  10.550   7.001   1.219 -0.8839 -1.6240 -0.9085
 3344SOL     OW12284   5.940   3.161   5.794 -0.3139 -0.3246  0.3723
 3344SOL    HW112285   5.873   3.094   5.809  0.0425 -0.6751  0.4030
 3344SOL    HW212286   6.023   3.114   5.800 -0.0963 -0.1422 -0.9040
 3345SOL     OW12287   2.619   3.428   8.418 -0.0549 -0.4004 -0.7572
 3345SOL    HW112288   2.692   3.484   8.447 -1.9896  1.2304  1.3146
 3345SOL    HW212289   2.562   3.487   8.369 -1.4097 -0.8807  0.1860
 3346SOL     OW12290   4.516   7.813   8.519 -0.0565  0.2509  0.6914
 3346SOL    HW112291   4.495   7.776   8.605  1.5435  1.1439  1.5300
 3346SOL    HW212292   4.519   7.907   8.534  2.9513  0.2976  0.3852
 3347SOL     OW12293   4.650   7.147   7.411  0.3980  0.3727 -0.1217
 3347SOL    HW112294   4.700   7.090   7.353  1.6714  2.5636 -1.3138
 3347SOL    HW212295   4.663   7.235   7.375 -2.8378  1.2794  0.6204
 3348SOL     OW12296   2.546   7.549   1.038 -0.0779  0.0079  0.2250
 3348SOL    HW112297   2.572   7.622   0.982 -1.1745  0.4814  0.2935
 3348SOL    HW212298   2.615   7.543   1.104 -0.7128  2.0051  1.1474
 3349SOL     OW12299   5.686   5.351   8.764 -0.6500  0.2996  0.3660
 3349SOL    HW112300   5.704   5.297   8.687 -0.3879  0.2659  0.4510
 3349SOL    HW212301   5.632   5.295   8.821  0.7441 -0.3769  1.0695
 3350SOL     OW12302   6.534   9.008  10.442  0.2721 -0.5016 -0.0073
 3350SOL    HW112303   6.563   9.089  10.400 -0.0216 -0.6827 -0.5687
 3350SOL    HW212304   6.459   9.034  10.495 -0.1222 -0.4819 -0.5612
 3351SOL     OW12305   9.217   7.207   2.773 -0.2030 -0.2560 -0.1168
 3351SOL    HW112306   9.144   7.264   2.794 -0.5009 -0.8484  0.4900
 3351SOL    HW212307   9.255   7.245   2.694  0.0854  1.2139  0.7062
 3352SOL     OW12308   0.769   0.791   3.005 -0.1377  0.0716  0.0810
 3352SOL    HW112309   0.782   0.813   3.097  1.4658 -0.3721 -0.0108
 3352SOL    HW212310   0.767   0.695   3.003  0.1111  0.0707 -0.3723
 3353SOL     OW12311   2.580   5.581   0.646  0.7042 -0.0145 -0.6434
 3353SOL    HW112312   2.563   5.674   0.636  2.7999  0.6106  0.9775
 3353SOL    HW212313   2.630   5.556   0.569  0.8213  0.3828 -0.6935
 3354SOL     OW12314   6.688  10.066   1.487 -0.0244 -0.5265  0.9293
 3354SOL    HW112315   6.622  10.135   1.489 -0.1886 -0.6975  2.5378
 3354SOL    HW212316   6.637   9.985   1.488  0.1886 -0.6697  0.3573
 3355SOL     OW12317   2.455   3.495   7.386 -0.3495 -0.4107 -0.0374
 3355SOL    HW112318   2.479   3.528   7.300 -0.4751 -1.7687 -0.6105
 3355SOL    HW212319   2.486   3.404   7.387 -0.9348 -0.6204  1.1021
 3356SOL     OW12320   9.368   0.366   8.123 -0.6903 -0.2366  0.1498
 3356SOL    HW112321   9.464   0.361   8.122 -0.7308 -2.3590  1.0582
 3356SOL    HW212322   9.346   0.418   8.045  1.2133  1.7884  0.8626
 3357SOL     OW12323   0.594   1.727   5.766 -0.5179 -0.3522  0.0384
 3357SOL    HW112324   0.536   1.756   5.696  0.7638 -1.3136 -1.4919
 3357SOL    HW212325   0.680   1.716   5.724  0.4980 -0.1770  1.9362
 3358SOL     OW12326  10.149   0.363   0.856  0.5175 -0.3080 -0.8662
 3358SOL    HW112327  10.237   0.347   0.892  1.5972 -1.5258 -3.7434
 3358SOL    HW212328  10.149   0.457   0.836  0.7643 -0.0939  0.0800
 3359SOL     OW12329   9.594  10.292   5.090  0.3477 -0.1492 -0.3043
 3359SOL    HW112330   9.676  10.287   5.040  0.8353 -0.3894  0.4939
 3359SOL    HW212331   9.530  10.247   5.036  0.3752  1.3283 -1.6354
 3360SOL     OW12332   7.294   3.876   7.475  0.3181 -0.2003  0.3921
 3360SOL    HW112333   7.376   3.848   7.434  0.6366  0.5845  0.4583
 3360SOL    HW212334   7.226   3.826   7.430  0.8823 -1.4404  0.8660
 3361SOL     OW12335   7.306  10.297   6.526 -0.9799  0.0431 -0.0469
 3361SOL    HW112336   7.280  10.214   6.486  0.4788  0.3073 -1.6699
 3361SOL    HW212337   7.315  10.357   6.452 -1.3748  1.4866  1.0369
 3362SOL     OW12338   5.874   2.779   5.812  0.5225 -0.0668 -0.0918
 3362SOL    HW112339   5.819   2.830   5.752  1.2929  0.4010 -0.4169
 3362SOL    HW212340   5.917   2.714   5.756 -1.3609 -1.9261  0.4923
 3363SOL     OW12341   6.251   2.864   6.061  0.2035  0.8793 -0.6222
 3363SOL    HW112342   6.259   2.863   6.156  0.5765  1.4877 -0.6459
 3363SOL    HW212343   6.221   2.775   6.039  0.6744  0.5525  0.0111
 3364SOL     OW12344   6.397   9.418   3.749 -0.0179 -0.2413  0.2352
 3364SOL    HW112345   6.393   9.322   3.753 -1.7184 -0.2500 -0.7995
 3364SOL    HW212346   6.466   9.437   3.686  0.8675 -0.7429  1.0213
 3365SOL     OW12347   3.611  10.625   1.776 -0.1428 -0.4605  0.3347
 3365SOL    HW112348   3.592  10.718   1.781  0.5616 -0.1959 -1.5154
 3365SOL    HW212349   3.654  10.605   1.860 -2.5280  0.2810  1.8402
 3366SOL     OW12350  10.071   9.472   7.485  0.5825 -0.4000  0.0473
 3366SOL    HW112351  10.156   9.448   7.521  0.6892  1.2101  0.9161
 3366SOL    HW212352  10.008   9.437   7.548  0.7368  1.4179  1.2688
 3367SOL     OW12353   2.844   8.846   0.005 -0.1254  0.2531  0.0285
 3367SOL    HW112354   2.783   8.904  -0.041 -1.1254  0.7912  1.8785
 3367SOL    HW212355   2.854   8.887   0.092  2.6163 -0.0391 -0.0710
 3368SOL     OW12356   1.018   0.144   5.433 -0.7628 -0.1356  0.2618
 3368SOL    HW112357   0.995   0.191   5.353  0.4282 -1.6312 -1.0146
 3368SOL    HW212358   0.956   0.070   5.435 -0.2927 -0.5300  0.3017
 3369SOL     OW12359   0.518  10.247   4.764  0.5851  0.0668 -0.1026
 3369SOL    HW112360   0.453  10.272   4.698  0.7520  1.0835  0.1079
 3369SOL    HW212361   0.485  10.286   4.846  1.3822  0.4641  0.0329
 3370SOL     OW12362   5.545   1.067   9.809  0.0887  0.8430 -0.5225
 3370SOL    HW112363   5.490   1.039   9.736 -0.4227  1.3804 -0.3467
 3370SOL    HW212364   5.537   1.162   9.810  0.1849  0.8475  0.1577
 3371SOL     OW12365   9.613   4.706   9.079  0.1653 -0.0528 -0.4624
 3371SOL    HW112366   9.634   4.770   9.147  0.9556  2.2225 -2.6942
 3371SOL    HW212367   9.551   4.752   9.022 -2.1005 -2.6130 -0.2506
 3372SOL     OW12368   6.306  10.253   3.558  0.2882  0.4244 -0.3420
 3372SOL    HW112369   6.351  10.184   3.606  0.2906 -0.1181 -1.1085
 3372SOL    HW212370   6.225  10.267   3.605 -0.1555 -0.7800 -0.7129
 3373SOL     OW12371   1.869   2.031   8.719 -0.2712 -0.1399  0.1512
 3373SOL    HW112372   1.935   1.964   8.737 -0.4812  0.1142  2.1052
 3373SOL    HW212373   1.830   2.006   8.635  2.6701  0.0116 -1.3934
 3374SOL     OW12374   6.571   4.842   6.337  0.4046 -0.2143 -0.3971
 3374SOL    HW112375   6.499   4.826   6.398  1.0603  0.7266  0.6754
 3374SOL    HW212376   6.530   4.884   6.262 -0.3520 -0.9456 -0.4077
 3375SOL     OW12377   0.160   9.625   7.363  0.1849  0.1617 -0.0379
 3375SOL    HW112378   0.098   9.695   7.385 -1.0328 -0.1462 -2.2348
 3375SOL    HW212379   0.155   9.617   7.268  2.0011 -1.3963 -0.0684
 3376SOL     OW12380   9.092   0.405  10.454  0.3253 -0.1454  0.2967
 3376SOL    HW112381   9.080   0.368  10.541  0.4665  2.4117  1.4945
 3376SOL    HW212382   9.157   0.474  10.466 -0.6985  1.2363 -1.5115
 3377SOL     OW12383   2.821   8.024   1.539  0.7748 -1.0049  0.6855
 3377SOL    HW112384   2.884   8.083   1.497  0.1437 -0.9868 -0.2603
 3377SOL    HW212385   2.838   7.939   1.499  0.0437 -0.9498  0.2397
 3378SOL     OW12386   0.369  10.523   7.435  0.3332 -0.2535  0.2364
 3378SOL    HW112387   0.285  10.533   7.391 -0.6918  1.3802  2.3770
 3378SOL    HW212388   0.404  10.612   7.441  1.3042 -0.6712  1.0671
 3379SOL     OW12389   3.338   9.123   8.832 -0.2075  0.1756  0.0393
 3379SOL    HW112390   3.286   9.148   8.756  0.6671  2.0321 -0.0188
 3379SOL    HW212391   3.338   9.028   8.832 -2.3511  0.1420 -0.7869
 3380SOL     OW12392   7.669   3.093   4.732  0.1786 -0.2942 -0.0378
 3380SOL    HW112393   7.645   3.005   4.704 -3.4134  0.6768 -0.4772
 3380SOL    HW212394   7.753   3.082   4.777 -1.0524 -4.2735  1.6898
 3381SOL     OW12395   0.486   8.218   6.534 -0.0016 -0.3666  0.0726
 3381SOL    HW112396   0.400   8.235   6.574  0.0736 -1.6001  0.8481
 3381SOL    HW212397   0.477   8.246   6.444 -0.7139  1.0087  0.5486
 3382SOL     OW12398   2.937   7.096   4.616 -0.4688  0.0495 -0.0019
 3382SOL    HW112399   2.937   7.190   4.597 -3.4895 -0.3572 -2.9277
 3382SOL    HW212400   3.000   7.059   4.555  0.3007  0.0547  0.7628
 3383SOL     OW12401   1.652   9.723   7.588 -0.6766  0.3865  0.1714
 3383SOL    HW112402   1.725   9.699   7.645  1.5613 -0.7254 -2.8969
 3383SOL    HW212403   1.657   9.819   7.582 -1.0721  0.5445  1.8778
 3384SOL     OW12404   8.708   1.123   0.797  0.8777  0.5943  0.6561
 3384SOL    HW112405   8.645   1.059   0.766  0.6092  1.1299  0.0774
 3384SOL    HW212406   8.655   1.194   0.832  1.1632  0.7804  0.7159
 3385SOL     OW12407   0.162   4.139   7.096 -0.2174  0.1830 -0.0582
 3385SOL    HW112408   0.135   4.061   7.047 -0.8853 -0.8647  1.8328
 3385SOL    HW212409   0.080   4.184   7.117  0.2085  1.8740 -1.7773
 3386SOL     OW12410   1.630   8.381   6.603 -0.0926 -0.5505  0.5238
 3386SOL    HW112411   1.650   8.339   6.687  0.0289 -0.1471  0.6992
 3386SOL    HW212412   1.569   8.451   6.626  0.9513  0.4009  0.4579
 3387SOL     OW12413   3.745  10.430   0.119 -0.0235  0.0049 -0.2235
 3387SOL    HW112414   3.699  10.473   0.047 -0.0199  0.2248 -0.0935
 3387SOL    HW212415   3.718  10.338   0.112  0.8747 -0.2026 -1.2117
 3388SOL     OW12416   1.545   1.789   1.577 -0.2743  0.3231  0.4631
 3388SOL    HW112417   1.606   1.728   1.535  1.5151  1.3644  1.4736
 3388SOL    HW212418   1.597   1.835   1.642 -2.1412  1.3141  1.3314
 3389SOL     OW12419   5.442   2.426   8.263  0.1004  0.2395 -0.5038
 3389SOL    HW112420   5.469   2.353   8.206  1.8088 -0.7576  1.4427
 3389SOL    HW212421   5.498   2.499   8.236  1.0744 -0.2954  0.0014
 3390SOL     OW12422   5.860   4.669   6.235  0.3365  0.0033  0.3762
 3390SOL    HW112423   5.802   4.617   6.290  0.0932  0.0788  0.1933
 3390SOL    HW212424   5.807   4.690   6.158  0.9095 -0.7389 -0.2348
 3391SOL     OW12425   0.047   7.929   8.594  0.3745 -0.0190  0.1553
 3391SOL    HW112426   0.078   7.964   8.677  0.3798 -0.3118  0.2784
 3391SOL    HW212427  -0.010   7.997   8.559 -0.4299 -0.3049  0.8760
 3392SOL     OW12428   9.283   7.477   3.736  0.7667  0.2258 -0.1358
 3392SOL    HW112429   9.268   7.403   3.795  0.1320  1.3349  1.1527
 3392SOL    HW212430   9.229   7.547   3.772  0.0346  0.8351 -2.3052
 3393SOL     OW12431   9.981   8.914   4.191  0.3387  0.0659 -0.2909
 3393SOL    HW112432  10.060   8.899   4.139  0.7509 -0.0132  0.3600
 3393SOL    HW212433  10.010   8.913   4.282 -0.4529 -0.2554 -0.0268
 3394SOL     OW12434   1.835   1.115  10.254  0.3191 -0.0247 -0.3075
 3394SOL    HW112435   1.858   1.046  10.192 -2.9132 -1.7213  0.1482
 3394SOL    HW212436   1.787   1.179  10.202  0.0869 -0.0074 -0.0740
 3395SOL     OW12437   4.766   2.903   2.550 -0.5995 -0.9962  0.2782
 3395SOL    HW112438   4.728   2.928   2.635 -0.9615  0.3328 -0.2535
 3395SOL    HW212439   4.692   2.905   2.489  0.0629  0.4247 -0.5276
 3396SOL     OW12440   3.503   5.029   6.751  0.1419 -0.1466  0.0295
 3396SOL    HW112441   3.431   5.087   6.775  0.6290  1.0415 -1.1956
 3396SOL    HW212442   3.496   4.955   6.811 -0.5774  1.1195  1.5882
 3397SOL     OW12443   0.764   2.036   9.286  0.0215  0.0348  0.0592
 3397SOL    HW112444   0.689   2.030   9.346 -0.6242  0.0244 -0.7285
 3397SOL    HW212445   0.774   1.948   9.252 -1.7568  0.6652 -2.3453
 3398SOL     OW12446   3.148   6.175   3.678 -0.4238  0.8931 -0.7740
 3398SOL    HW112447   3.067   6.191   3.727 -0.0855 -0.6948  0.4045
 3398SOL    HW212448   3.217   6.211   3.734 -0.3090  3.0280 -2.1710
 3399SOL     OW12449   5.972   5.265   8.811  0.3233 -0.7915 -0.1236
 3399SOL    HW112450   5.965   5.224   8.725 -2.4311 -0.5485 -0.1239
 3399SOL    HW212451   5.934   5.352   8.800  2.2129  0.2265  0.8268
 3400SOL     OW12452   2.657   1.461   1.527  0.3368 -0.2654  0.3590
 3400SOL    HW112453   2.631   1.373   1.554  1.5846 -1.6915 -2.5830
 3400SOL    HW212454   2.750   1.452   1.504  0.2320  1.5505 -0.9667
 3401SOL     OW12455   4.398   4.655   4.644  0.0656  0.2268 -0.7865
 3401SOL    HW112456   4.489   4.631   4.659 -0.3070 -0.7869 -0.0818
 3401SOL    HW212457   4.367   4.592   4.579 -0.7281 -0.8581  0.5801
 3402SOL     OW12458   4.943   9.339   7.607 -0.2907 -0.4002  0.5729
 3402SOL    HW112459   4.940   9.330   7.512 -2.2929  0.8090  0.4611
 3402SOL    HW212460   4.946   9.433   7.622  0.3626 -0.5849  1.7271
 3403SOL     OW12461   8.442   9.791   0.708 -0.3216  0.1147  0.7055
 3403SOL    HW112462   8.347   9.787   0.708 -0.3376 -0.0240 -1.0149
 3403SOL    HW212463   8.463   9.885   0.703 -0.4150  0.0778 -0.8355
 3404SOL     OW12464   0.455   7.644   3.044  0.0804  0.5246  0.1073
 3404SOL    HW112465   0.428   7.590   3.118 -3.2615  3.6429  1.4686
 3404SOL    HW212466   0.536   7.686   3.073  0.2231 -0.2485  0.8833
 3405SOL     OW12467   5.143   8.412   1.499  0.6924  0.8072 -0.3558
 3405SOL    HW112468   5.128   8.432   1.407 -3.1704 -0.1388 -0.0801
 3405SOL    HW212469   5.161   8.318   1.501 -1.7291  0.2927 -0.0416
 3406SOL     OW12470  10.518   7.561   8.619 -0.2942  0.0136  0.3370
 3406SOL    HW112471  10.469   7.605   8.549 -0.1633 -0.3220  0.0326
 3406SOL    HW212472  10.478   7.594   8.700 -0.3528  0.5138  0.1123
 3407SOL     OW12473   7.200   5.324   6.764 -0.3405  0.0339  0.0487
 3407SOL    HW112474   7.108   5.311   6.744 -0.2217 -2.0887  0.6987
 3407SOL    HW212475   7.239   5.237   6.760  1.5837  0.8317  0.1219
 3408SOL     OW12476   1.683   0.659   2.446 -0.0479  0.1243  0.0843
 3408SOL    HW112477   1.739   0.612   2.509  0.2093 -2.1323 -1.7027
 3408SOL    HW212478   1.710   0.750   2.454  3.1335 -0.7006  0.1569
 3409SOL     OW12479   2.664   6.380   3.341 -0.6876  0.1565  0.1313
 3409SOL    HW112480   2.679   6.474   3.333  0.1406 -0.0849 -1.6114
 3409SOL    HW212481   2.712   6.342   3.267 -0.8410 -1.6534  0.9125
 3410SOL     OW12482   0.342   6.498   9.695  0.4218  0.5136 -0.6125
 3410SOL    HW112483   0.269   6.487   9.756 -0.3883  2.8353 -1.0690
 3410SOL    HW212484   0.420   6.502   9.751  0.2342 -1.7819 -0.1087
 3411SOL     OW12485   4.034   0.930   4.043  0.9353 -0.4558 -0.4254
 3411SOL    HW112486   4.006   0.983   4.117 -0.2846  0.2682 -1.3734
 3411SOL    HW212487   4.044   0.992   3.971  1.3238 -1.2558 -1.0791
 3412SOL     OW12488   9.121   1.672   2.621  0.1837 -0.0305  0.3531
 3412SOL    HW112489   9.087   1.687   2.533  0.4229 -0.0144  0.2629
 3412SOL    HW212490   9.213   1.698   2.616  0.1389  0.2067  0.6694
 3413SOL     OW12491   6.688   7.954   1.167 -0.1765 -0.7615  0.3494
 3413SOL    HW112492   6.594   7.973   1.167 -0.0751 -0.1502 -0.8620
 3413SOL    HW212493   6.725   8.014   1.102  0.8512 -1.9209 -0.1988
 3414SOL     OW12494   4.293  10.240   1.038  0.1342  0.0179  0.4121
 3414SOL    HW112495   4.345  10.303   1.089 -2.5719  1.8701  1.0768
 3414SOL    HW212496   4.335  10.240   0.951  1.1615  1.5635  0.8608
 3415SOL     OW12497   9.647   4.399   4.886  0.2021  0.2070 -0.8240
 3415SOL    HW112498   9.569   4.344   4.893  0.5601 -0.4812 -1.9534
 3415SOL    HW212499   9.613   4.486   4.866 -0.2920 -0.1055 -1.3933
 3416SOL     OW12500   3.742   7.715   0.908  0.6316  0.2284  0.1977
 3416SOL    HW112501   3.745   7.752   0.996  1.4471  0.0497  0.2506
 3416SOL    HW212502   3.831   7.681   0.893  0.8333  1.2714 -1.1232
 3417SOL     OW12503   9.739   6.593   2.709  0.1009 -0.4530  0.1232
 3417SOL    HW112504   9.705   6.670   2.663  0.8698 -0.4727 -0.4875
 3417SOL    HW212505   9.680   6.522   2.684  1.1802 -0.7349 -1.8304
 3418SOL     OW12506   1.576   7.105   5.981 -0.3283 -0.7134  0.4781
 3418SOL    HW112507   1.649   7.134   6.035 -2.1344  1.5726  1.8753
 3418SOL    HW212508   1.558   7.016   6.011  1.6783 -1.2371  0.2551
 3419SOL     OW12509   2.745   3.447   3.952  0.3166  0.2842 -0.2022
 3419SOL    HW112510   2.746   3.460   3.857  1.1601 -0.2657 -0.2775
 3419SOL    HW212511   2.788   3.526   3.987  1.4615 -0.2347 -0.3892
 3420SOL     OW12512   3.434   7.898   8.367 -0.3102 -0.2850 -0.1827
 3420SOL    HW112513   3.514   7.870   8.324  0.1199  1.1267 -0.3539
 3420SOL    HW212514   3.383   7.817   8.379  0.0068 -0.8638 -2.3575
 3421SOL     OW12515   7.543   7.913  10.302 -0.0424  0.0199  0.3433
 3421SOL    HW112516   7.607   7.876  10.242 -1.7154  0.2541 -1.6922
 3421SOL    HW212517   7.543   8.007  10.282 -0.1931  0.2007  1.1501
 3422SOL     OW12518   0.810   5.770   1.009 -0.6006 -0.0744 -0.2318
 3422SOL    HW112519   0.840   5.838   1.069 -1.6479 -0.1473  0.4194
 3422SOL    HW212520   0.886   5.713   0.996 -0.3567 -0.0728  1.0665
 3423SOL     OW12521   6.522   4.730   9.217 -0.1607  0.1275  0.4513
 3423SOL    HW112522   6.448   4.670   9.205  0.5992 -0.5517 -1.3228
 3423SOL    HW212523   6.508   4.798   9.151  1.1853 -0.4614 -0.4836
 3424SOL     OW12524   4.939   3.629   5.366  0.4169  0.3687 -0.2543
 3424SOL    HW112525   4.940   3.571   5.290  3.4530 -1.6198  1.0834
 3424SOL    HW212526   5.026   3.670   5.365  0.5988  0.1618  2.1515
 3425SOL     OW12527   4.619   5.625   3.755 -0.4662 -0.0924  0.2892
 3425SOL    HW112528   4.627   5.627   3.660  1.7747  0.2845  0.4426
 3425SOL    HW212529   4.604   5.533   3.776  0.0353 -0.3296 -0.3653
 3426SOL     OW12530   5.683   9.026   5.318  0.2293  0.4699 -0.1084
 3426SOL    HW112531   5.691   8.959   5.250 -0.3126 -0.5325  0.7951
 3426SOL    HW212532   5.729   9.102   5.281 -1.1904  0.4191 -2.1593
 3427SOL     OW12533   9.792   6.898   3.747 -0.5842  0.1641 -0.1066
 3427SOL    HW112534   9.886   6.898   3.728 -0.1001  0.2049  2.0241
 3427SOL    HW212535   9.751   6.889   3.661  1.3143  1.5391 -1.2663
 3428SOL     OW12536  10.143   0.511   9.523  0.5995 -0.5120 -0.2401
 3428SOL    HW112537  10.140   0.498   9.428 -2.7126  0.2598 -0.3681
 3428SOL    HW212538  10.196   0.439   9.555  1.0988 -1.2926 -2.5942
 3429SOL     OW12539  10.377   7.148   3.929  0.0167 -0.0323  0.0512
 3429SOL    HW112540  10.440   7.153   3.857 -1.4407 -2.4994 -1.5242
 3429SOL    HW212541  10.316   7.220   3.913  0.1656 -0.0730 -0.7228
 3430SOL     OW12542   7.555   2.576   0.420 -0.2248  0.0246 -0.0391
 3430SOL    HW112543   7.648   2.559   0.437 -0.0272 -0.3456 -1.3672
 3430SOL    HW212544   7.554   2.631   0.342 -1.0989  1.0627  0.6793
 3431SOL     OW12545  10.579   2.623   8.381 -0.4057  0.8689  0.2780
 3431SOL    HW112546  10.567   2.717   8.365 -0.2209  0.7682 -0.5053
 3431SOL    HW212547  10.669   2.606   8.353 -0.2477  0.5636  0.9569
 3432SOL     OW12548   9.336   2.170   6.736  0.6673 -0.0792 -0.8607
 3432SOL    HW112549   9.390   2.138   6.663 -0.3571 -0.4157 -1.4951
 3432SOL    HW212550   9.392   2.232   6.782  1.5020 -0.2249 -1.6487
 3433SOL     OW12551   6.802   3.324   2.727  0.2737 -1.1572  0.6188
 3433SOL    HW112552   6.750   3.245   2.743 -0.9120 -1.0818 -2.2353
 3433SOL    HW212553   6.867   3.297   2.662 -1.8204  0.6640 -2.4846
 3434SOL     OW12554   9.846   1.643   4.765 -0.4786 -0.0624 -0.3297
 3434SOL    HW112555   9.787   1.660   4.838 -0.1861  1.6260 -0.4453
 3434SOL    HW212556   9.850   1.547   4.758 -0.4527 -0.2578  1.8816
 3435SOL     OW12557   7.554   3.063   8.919  0.4543  0.0031 -0.3279
 3435SOL    HW112558   7.540   3.028   8.831  1.6534 -0.2098 -0.4485
 3435SOL    HW212559   7.635   3.114   8.912 -0.8434  2.2113  0.0240
 3436SOL     OW12560   6.777   5.701  10.194  0.3762  0.3649 -0.1327
 3436SOL    HW112561   6.794   5.718  10.287 -1.8763  1.7029  0.1237
 3436SOL    HW212562   6.815   5.776  10.149  1.8792 -0.5128 -0.3825
 3437SOL     OW12563   8.374   9.134   0.478 -0.3827 -0.6862 -0.7284
 3437SOL    HW112564   8.281   9.112   0.480 -0.3508 -0.8527  1.9331
 3437SOL    HW212565   8.419   9.057   0.514  0.5206  0.3121  0.3776
 3438SOL     OW12566   3.848   2.841   2.380 -0.0360 -0.0089 -0.3803
 3438SOL    HW112567   3.937   2.851   2.346  1.0949  0.4662  2.4760
 3438SOL    HW212568   3.847   2.753   2.416 -0.1878  0.5134  0.9367
 3439SOL     OW12569   9.952   3.920   9.083 -0.6438  0.0862  0.0233
 3439SOL    HW112570   9.878   3.979   9.068 -1.7759 -0.7820  1.8856
 3439SOL    HW212571   9.974   3.886   8.996 -1.4852  1.4390 -0.7572
 3440SOL     OW12572   3.375   3.375   7.772  0.2116 -0.4130 -0.0516
 3440SOL    HW112573   3.324   3.403   7.696 -0.4585  0.1176  0.5725
 3440SOL    HW212574   3.333   3.419   7.846  0.7956 -0.9867  0.6370
 3441SOL     OW12575   9.658   3.401   2.359  0.0796  0.7589 -0.1835
 3441SOL    HW112576   9.650   3.496   2.354 -0.1846  0.7239 -0.4591
 3441SOL    HW212577   9.696   3.384   2.446 -0.5843  1.0714  0.1686
 3442SOL     OW12578  10.087   0.709   1.963  0.1886 -0.0331  0.0438
 3442SOL    HW112579  10.031   0.665   2.026  0.8885 -0.8592  0.1048
 3442SOL    HW212580  10.166   0.731   2.012 -0.1534  1.3452  0.0240
 3443SOL     OW12581   7.043   6.560   1.189 -0.4896 -0.7571  0.1750
 3443SOL    HW112582   6.994   6.595   1.114  0.1518 -1.0910 -0.4206
 3443SOL    HW212583   7.028   6.466   1.186 -0.1898 -0.8102  0.2575
 3444SOL     OW12584   0.212   7.190   6.668  0.2300 -0.3520 -0.6132
 3444SOL    HW112585   0.221   7.223   6.578 -1.7493  0.6712 -0.5049
 3444SOL    HW212586   0.128   7.144   6.667 -0.8879  1.5117  1.1941
 3445SOL     OW12587   5.021   0.910   4.182  0.2049 -0.5495 -0.3815
 3445SOL    HW112588   4.935   0.952   4.176  1.2235  1.7259  0.0013
 3445SOL    HW212589   5.074   0.954   4.115  1.3852 -1.1285  0.1469
 3446SOL     OW12590   8.512   3.446   4.338  0.4152 -0.0906 -1.1112
 3446SOL    HW112591   8.553   3.441   4.251 -1.1746 -0.7672 -1.8711
 3446SOL    HW212592   8.484   3.356   4.356 -1.1371  0.4153 -0.8681
 3447SOL     OW12593   9.935   3.400   4.336 -0.0848 -0.2350  0.4783
 3447SOL    HW112594   9.896   3.486   4.352 -0.0852 -0.2694  0.6596
 3447SOL    HW212595   9.920   3.384   4.243 -0.2968 -0.1437  0.4964
 3448SOL     OW12596   7.872   5.700   8.861 -0.1585 -0.1402  1.0489
 3448SOL    HW112597   7.819   5.730   8.935 -3.3677  2.4202 -1.9732
 3448SOL    HW212598   7.831   5.618   8.834 -0.9076  0.4535  0.3509
 3449SOL     OW12599   8.921   1.050   9.132  0.0919  0.1598  0.1350
 3449SOL    HW112600   8.850   1.076   9.074 -0.7570  2.5700  2.0657
 3449SOL    HW212601   8.899   0.961   9.158 -1.0792  0.0971 -0.9808
 3450SOL     OW12602  10.092   5.173   2.260 -0.0001  0.1215 -0.2930
 3450SOL    HW112603  10.109   5.120   2.183 -1.1905 -1.2278  0.3189
 3450SOL    HW212604  10.095   5.111   2.333 -1.3416  0.8905  0.4663
 3451SOL     OW12605   5.266   7.802   8.417 -0.4260 -0.3778  0.0243
 3451SOL    HW112606   5.231   7.853   8.490 -0.5412 -0.2086 -0.1491
 3451SOL    HW212607   5.190   7.757   8.380 -0.6318  0.7174 -0.9394
 3452SOL     OW12608   7.075   5.839   2.848 -0.6460 -0.2891 -0.3115
 3452SOL    HW112609   7.060   5.918   2.796  0.1116 -0.1550 -0.3381
 3452SOL    HW212610   7.141   5.790   2.800 -1.1394 -0.9708 -0.3156
 3453SOL     OW12611   2.549   8.465   5.902  0.1389 -0.1543 -0.1431
 3453SOL    HW112612   2.575   8.452   5.811 -0.6291  2.8584 -0.9050
 3453SOL    HW212613   2.468   8.415   5.911  0.2177 -0.4734 -1.1211
 3454SOL     OW12614   4.224   8.881   3.125 -0.5394  1.0777 -0.4338
 3454SOL    HW112615   4.298   8.877   3.065 -0.4197  0.8282 -0.2728
 3454SOL    HW212616   4.251   8.942   3.193  1.0066 -1.6271  1.5811
 3455SOL     OW12617   4.058  10.180   2.051 -0.0887 -0.2449  0.2032
 3455SOL    HW112618   4.030  10.256   2.101 -0.1643  0.1042 -0.3676
 3455SOL    HW212619   4.087  10.215   1.967  1.9369 -0.5939  0.7092
 3456SOL     OW12620   2.523   6.146   3.878  0.5446 -0.0631 -0.0270
 3456SOL    HW112621   2.577   6.069   3.862 -0.3917 -0.7185 -0.1109
 3456SOL    HW212622   2.508   6.184   3.791 -0.1943 -0.6326 -0.1620
 3457SOL     OW12623   8.142   9.412   4.600  0.4600  0.3308 -0.1943
 3457SOL    HW112624   8.222   9.442   4.556  0.8388 -0.0784  0.2000
 3457SOL    HW212625   8.166   9.327   4.638  0.2759  0.8698  1.1779
 3458SOL     OW12626   6.884   2.317   1.202 -0.0744  0.0630  0.1482
 3458SOL    HW112627   6.859   2.355   1.287 -0.1915  0.4279 -0.0486
 3458SOL    HW212628   6.975   2.344   1.190 -0.9055  2.5024 -1.1882
 3459SOL     OW12629   1.811   1.623   9.378 -0.2364  0.0359  0.3088
 3459SOL    HW112630   1.833   1.548   9.433 -1.5288  0.0164  0.8359
 3459SOL    HW212631   1.781   1.584   9.296  0.3222  0.0211  0.1096
 3460SOL     OW12632   4.749   7.244  10.356 -0.0940 -0.2549  0.3293
 3460SOL    HW112633   4.750   7.296  10.276 -0.0957  1.4971  1.4168
 3460SOL    HW212634   4.670   7.191  10.350  1.0600 -1.8853 -1.8354
 3461SOL     OW12635  10.397   1.723   7.730  0.0154  0.3476  0.4644
 3461SOL    HW112636  10.319   1.706   7.782  0.4445  0.9861  1.3437
 3461SOL    HW212637  10.461   1.660   7.761  0.1120  0.3819  0.3380
 3462SOL     OW12638   8.972   4.730   6.875  0.0249  0.3301 -0.0300
 3462SOL    HW112639   9.052   4.699   6.834 -0.5399  0.1546 -1.0393
 3462SOL    HW212640   8.956   4.668   6.947  0.3264 -0.1571 -0.3769
 3463SOL     OW12641   9.637   1.928   7.638 -0.6048 -0.4807 -0.4753
 3463SOL    HW112642   9.581   1.933   7.716 -2.6997 -1.9045 -1.7585
 3463SOL    HW212643   9.592   1.982   7.573  1.7344  1.6621 -0.4591
 3464SOL     OW12644   1.299   1.430   0.190 -0.0921  0.0981  0.7616
 3464SOL    HW112645   1.379   1.403   0.235 -0.1615  0.7346  1.2619
 3464SOL    HW212646   1.244   1.470   0.257 -0.7079 -0.0460  0.3604
 3465SOL     OW12647   9.123   1.507  10.303  0.5879 -0.0040 -0.1989
 3465SOL    HW112648   9.174   1.440  10.349  1.7569  0.8943 -0.1398
 3465SOL    HW212649   9.181   1.538  10.234  0.3863  1.4871  0.2551
 3466SOL     OW12650   4.173   1.867   9.146  0.1578 -0.0026  0.0512
 3466SOL    HW112651   4.090   1.898   9.110  0.8548 -0.3020 -1.9530
 3466SOL    HW212652   4.227   1.946   9.152 -0.1509  0.1453  1.0808
 3467SOL     OW12653   5.220   0.499   9.064 -0.2525 -0.0487  0.1292
 3467SOL    HW112654   5.148   0.484   9.003  0.3062 -3.2992  0.0856
 3467SOL    HW212655   5.270   0.417   9.063  0.9072  0.4546  3.4825
 3468SOL     OW12656   7.063   8.094   7.098  0.0650 -0.4493  0.3021
 3468SOL    HW112657   7.088   8.018   7.150  1.9883 -0.3964 -0.4906
 3468SOL    HW212658   7.132   8.158   7.113 -1.3357  1.0434  0.6724
 3469SOL     OW12659   9.181   4.770  10.360 -0.1505  0.4865  0.3314
 3469SOL    HW112660   9.179   4.810  10.273  0.3794  0.8665  0.4902
 3469SOL    HW212661   9.114   4.816  10.409 -1.5006 -0.7270 -0.2866
 3470SOL     OW12662   5.807   9.477  10.352 -0.2792  0.4612 -0.4786
 3470SOL    HW112663   5.754   9.514  10.423  0.9932  0.4524  0.5372
 3470SOL    HW212664   5.836   9.553  10.302  1.1452  0.7975  0.7519
 3471SOL     OW12665   3.795   8.130   1.522  0.0888  0.0130 -0.0578
 3471SOL    HW112666   3.811   8.224   1.515 -0.2110  0.3262  2.4575
 3471SOL    HW212667   3.700   8.122   1.516  0.1411 -0.1882 -0.6664
 3472SOL     OW12668   3.239   6.582   2.398 -0.4132 -0.0941  0.0889
 3472SOL    HW112669   3.220   6.581   2.304  1.7444 -1.0395 -0.4151
 3472SOL    HW212670   3.294   6.660   2.410 -0.2445 -0.2668  0.4575
 3473SOL     OW12671   5.388   9.241   5.590  0.0085 -0.4950 -0.2943
 3473SOL    HW112672   5.378   9.316   5.531  0.0459  0.0035  0.3177
 3473SOL    HW212673   5.478   9.247   5.622 -0.5617  0.3554  1.2651
 3474SOL     OW12674   2.782   7.484   5.153  0.0809 -0.0334 -0.0836
 3474SOL    HW112675   2.702   7.519   5.194  0.4082 -0.9304  1.3988
 3474SOL    HW212676   2.754   7.401   5.113  0.2304 -0.2807  0.3184
 3475SOL     OW12677   2.072   7.721   4.159  0.1978  0.1728  0.1212
 3475SOL    HW112678   2.034   7.707   4.073  0.3343  1.4727 -0.1796
 3475SOL    HW212679   2.152   7.668   4.159 -0.4862 -0.8705 -0.0455
 3476SOL     OW12680   2.192   9.779   3.309  0.0032 -0.4357  0.3502
 3476SOL    HW112681   2.170   9.691   3.280  0.5178 -0.8846  1.2542
 3476SOL    HW212682   2.207   9.828   3.229 -0.8112 -1.0203 -0.1833
 3477SOL     OW12683   0.193   0.140   0.915  0.0229 -0.0542  0.0777
 3477SOL    HW112684   0.264   0.202   0.899 -0.3776  0.2470 -0.5605
 3477SOL    HW212685   0.229   0.055   0.889  0.0041  0.1621 -0.6634
 3478SOL     OW12686   8.932   0.415   7.968  0.4477  0.1940 -0.3320
 3478SOL    HW112687   8.883   0.426   8.050  1.1393  0.4036  0.0621
 3478SOL    HW212688   8.898   0.333   7.931  1.2179 -0.7491  0.9463
 3479SOL     OW12689   4.528   9.153   3.624  0.2762 -0.1973 -0.1873
 3479SOL    HW112690   4.494   9.117   3.706  0.5840 -0.3912 -0.1445
 3479SOL    HW212691   4.512   9.247   3.632  1.2096 -0.0839  0.5322
 3480SOL     OW12692   6.573   8.917   8.845  0.2984 -0.8680  0.1689
 3480SOL    HW112693   6.557   9.007   8.818  1.6616 -0.7371 -0.2550
 3480SOL    HW212694   6.509   8.901   8.915  1.0889  0.9650  1.3761
 3481SOL     OW12695   2.562   6.481   8.042 -0.1561 -0.7102  0.1693
 3481SOL    HW112696   2.580   6.389   8.023  0.3737 -0.3544 -1.2109
 3481SOL    HW212697   2.504   6.509   7.971 -1.3707 -0.2912  1.2859
 3482SOL     OW12698   1.770   4.446   8.788  0.2163 -0.7003  0.5489
 3482SOL    HW112699   1.812   4.453   8.702 -0.2458 -0.6782  0.3174
 3482SOL    HW212700   1.697   4.386   8.773 -1.0229  0.7684  0.4565
 3483SOL     OW12701  10.090   9.509   1.669 -0.3127 -0.2029  0.4388
 3483SOL    HW112702  10.165   9.546   1.715 -0.0001 -0.9846  0.5878
 3483SOL    HW212703  10.016   9.566   1.692  0.4266  1.2227 -0.5911
 3484SOL     OW12704   6.830   8.619   0.304 -0.2546  0.1086 -0.6952
 3484SOL    HW112705   6.919   8.615   0.271 -0.0213 -2.3415  0.0188
 3484SOL    HW212706   6.821   8.707   0.341  0.7960  1.5017 -3.4850
 3485SOL     OW12707   4.238   5.787   1.092 -0.1364 -0.1743 -0.1141
 3485SOL    HW112708   4.308   5.817   1.035 -1.6787 -0.3805 -2.2743
 3485SOL    HW212709   4.215   5.863   1.145  1.8451 -0.1894  0.8147
 3486SOL     OW12710   2.532   2.058   6.846 -0.7842 -0.1500 -0.2983
 3486SOL    HW112711   2.443   2.093   6.838  0.1715  2.1550 -1.7523
 3486SOL    HW212712   2.573   2.077   6.762  0.8988 -1.8513  0.0730
 3487SOL     OW12713  10.019   4.661   1.175  0.0376  0.1081 -0.4080
 3487SOL    HW112714   9.989   4.601   1.243 -2.5995  1.3720 -0.2887
 3487SOL    HW212715   9.950   4.657   1.108 -0.0463  2.5821 -0.5841
 3488SOL     OW12716   2.181   3.180   0.792 -0.0891 -0.1136  0.3252
 3488SOL    HW112717   2.115   3.120   0.757 -0.1687  0.3467 -0.3273
 3488SOL    HW212718   2.208   3.233   0.717  0.7551 -0.0437  0.6642
 3489SOL     OW12719   1.759   8.753   9.649 -0.5414  0.5794  0.0006
 3489SOL    HW112720   1.716   8.697   9.585 -1.9472  0.7504  0.7538
 3489SOL    HW212721   1.701   8.828   9.658 -1.1311 -0.0945  2.5066
 3490SOL     OW12722   6.443   7.545   7.921 -0.0084  0.0434  0.0632
 3490SOL    HW112723   6.538   7.538   7.929 -0.1467 -1.3856  0.6656
 3490SOL    HW212724   6.416   7.463   7.879 -0.8383  1.1097 -1.5997
 3491SOL     OW12725   8.880   0.241   8.469  0.5102 -0.4296  0.1677
 3491SOL    HW112726   8.806   0.257   8.527 -0.6392 -0.6026 -1.1817
 3491SOL    HW212727   8.911   0.329   8.445 -0.2019 -0.3187 -0.3912
 3492SOL     OW12728   9.567   7.159   6.731 -0.8327 -0.2722 -0.3400
 3492SOL    HW112729   9.546   7.132   6.642 -1.1761  0.1529 -0.3959
 3492SOL    HW212730   9.525   7.094   6.787  0.1648 -1.0721 -0.4913
 3493SOL     OW12731   0.340   6.407   4.715  0.2814 -0.7484 -0.9936
 3493SOL    HW112732   0.275   6.338   4.728  0.2165 -0.8180 -1.6174
 3493SOL    HW212733   0.414   6.363   4.673  0.2989 -0.4731 -1.2632
 3494SOL     OW12734   0.079   1.341   5.698 -0.0921 -0.0636  0.5766
 3494SOL    HW112735   0.129   1.397   5.638 -0.6330  0.7624  0.8811
 3494SOL    HW212736   0.111   1.364   5.785 -1.2709  0.8035  0.8184
 3495SOL     OW12737   4.853   5.174   4.883 -0.3307  0.2772 -0.2919
 3495SOL    HW112738   4.832   5.261   4.917  1.0484  0.5787 -0.1193
 3495SOL    HW212739   4.855   5.119   4.961  0.9565  0.5755 -0.0830
 3496SOL     OW12740   6.646   8.258   5.572 -0.4092 -0.4213 -0.1411
 3496SOL    HW112741   6.672   8.324   5.508  0.8360  0.6710  1.4258
 3496SOL    HW212742   6.591   8.306   5.635 -0.6348 -1.1956  0.2708
 3497SOL     OW12743   8.396   4.630   5.549  0.6632 -0.5927 -0.4087
 3497SOL    HW112744   8.355   4.579   5.479 -1.1218  0.3950 -0.1605
 3497SOL    HW212745   8.343   4.710   5.553  0.6398 -0.6669  2.1275
 3498SOL     OW12746   8.603   7.390   9.070  0.2840 -0.2409 -1.1103
 3498SOL    HW112747   8.662   7.330   9.115  0.8275 -0.2173 -1.7903
 3498SOL    HW212748   8.520   7.381   9.118  0.6180 -0.8296 -0.6223
 3499SOL     OW12749   2.491   5.327   6.947 -0.4938  0.3556  0.2845
 3499SOL    HW112750   2.529   5.386   7.012 -0.0450  0.1087  0.2478
 3499SOL    HW212751   2.434   5.383   6.895 -0.5552  0.6330  0.6420
 3500SOL     OW12752  10.365   0.947   6.978  0.8634  0.0765 -0.1871
 3500SOL    HW112753  10.379   1.029   7.024  0.1145 -0.2475  0.6574
 3500SOL    HW212754  10.361   0.881   7.048 -2.5554 -0.1453 -0.4401
 3501SOL     OW12755   2.313   9.179   4.647  0.3439 -0.0319 -0.0188
 3501SOL    HW112756   2.287   9.234   4.574 -0.9479 -1.0414 -0.3409
 3501SOL    HW212757   2.348   9.241   4.712 -0.3306  1.0763 -0.6822
 3502SOL     OW12758  10.513   3.608   8.575 -0.3065  0.3266  0.2862
 3502SOL    HW112759  10.505   3.645   8.487 -0.9030 -0.7043 -0.1256
 3502SOL    HW212760  10.512   3.513   8.560 -0.5249  0.1404  1.4140
 3503SOL     OW12761   9.475   8.668   1.661 -0.2565 -0.1222  0.3274
 3503SOL    HW112762   9.413   8.607   1.620 -0.2963  0.5161 -0.5860
 3503SOL    HW212763   9.437   8.754   1.646  0.5188  0.2296  0.3437
 3504SOL     OW12764   7.239   7.424   2.934  0.0058 -0.7194 -0.3311
 3504SOL    HW112765   7.246   7.355   2.999  0.9327 -1.7067 -1.4412
 3504SOL    HW212766   7.253   7.381   2.850  1.2498  0.8949 -1.0225
 3505SOL     OW12767   9.829   4.054   6.283 -0.1568 -0.0649  0.0390
 3505SOL    HW112768   9.824   3.969   6.326  1.2051  0.1708  0.7143
 3505SOL    HW212769   9.922   4.067   6.265 -0.2593  1.5376  0.4935
 3506SOL     OW12770   3.279   9.373   7.747 -0.4656  0.4997  0.5274
 3506SOL    HW112771   3.299   9.331   7.830 -0.3199 -0.0039  0.2436
 3506SOL    HW212772   3.364   9.399   7.711 -0.3403 -0.9041 -0.2923
 3507SOL     OW12773   6.859   2.620   7.040 -0.0562 -0.0527 -0.2575
 3507SOL    HW112774   6.764   2.620   7.029 -0.0699 -0.8130 -0.2215
 3507SOL    HW212775   6.887   2.707   7.012 -0.8106  0.3298  0.1427
 3508SOL     OW12776   8.877  10.558   6.216 -0.0128  0.4211 -0.4123
 3508SOL    HW112777   8.925  10.557   6.300  0.6189  0.7306 -0.7578
 3508SOL    HW212778   8.924  10.496   6.161  1.0413  1.9394 -1.3005
 3509SOL     OW12779  10.168   7.300   0.087 -0.0016 -0.1040  0.2012
 3509SOL    HW112780  10.104   7.342   0.030  0.7742  0.7976 -0.0326
 3509SOL    HW212781  10.121   7.225   0.124 -1.1822  0.5374  0.0576
 3510SOL     OW12782   2.960   9.202   7.277  0.4306 -0.0467 -0.0726
 3510SOL    HW112783   3.040   9.228   7.322  0.0278 -1.4103  1.5358
 3510SOL    HW212784   2.954   9.262   7.202  1.7394  1.5819  1.0408
 3511SOL     OW12785   2.019   4.399   8.869  0.1076 -0.0201 -0.1114
 3511SOL    HW112786   1.935   4.410   8.825 -0.4770 -2.6991  0.2160
 3511SOL    HW212787   2.075   4.356   8.805  0.5976 -0.0655  0.3369
 3512SOL     OW12788   7.131   8.846   7.463 -0.3010  0.4027  0.7598
 3512SOL    HW112789   7.102   8.923   7.415  1.3824 -0.3703 -1.7383
 3512SOL    HW212790   7.071   8.776   7.436 -0.3405  0.3098  1.0824
 3513SOL     OW12791   9.177   2.416   3.081  0.8037  0.0861 -0.3789
 3513SOL    HW112792   9.187   2.460   2.997  0.9777  0.4271 -0.1796
 3513SOL    HW212793   9.266   2.403   3.112  0.8400  4.0355  1.8740
 3514SOL     OW12794   1.626  10.065   6.988 -0.2122 -0.4196 -0.2079
 3514SOL    HW112795   1.706  10.026   7.023  0.2391  0.0063 -0.7596
 3514SOL    HW212796   1.557  10.002   7.009  0.1456 -0.4685  0.8912
 3515SOL     OW12797   3.809   1.436   0.115 -0.0837  0.0486 -0.0534
 3515SOL    HW112798   3.815   1.517   0.063  0.7783  0.8994  1.3255
 3515SOL    HW212799   3.738   1.453   0.177 -1.4290 -1.1422 -1.1946
 3516SOL     OW12800   6.582   3.819   8.626 -0.5189  0.6035 -0.0233
 3516SOL    HW112801   6.565   3.890   8.688 -0.9074  0.8856 -0.4417
 3516SOL    HW212802   6.509   3.759   8.639 -0.1503  0.2396  0.3831
 3517SOL     OW12803   2.645   3.319   7.247 -0.3760 -0.1095  0.2953
 3517SOL    HW112804   2.686   3.369   7.176  1.5856 -0.1491  1.3324
 3517SOL    HW212805   2.678   3.230   7.236 -0.3865 -0.2065  0.9979
 3518SOL     OW12806   1.574   5.362   1.581  0.1482 -0.9432  0.4088
 3518SOL    HW112807   1.559   5.385   1.672  1.1415 -1.2415  0.6610
 3518SOL    HW212808   1.488   5.368   1.540 -0.4736 -1.6778  1.5559
 3519SOL     OW12809   9.675   1.955  10.346 -0.4096 -0.3506  0.4413
 3519SOL    HW112810   9.707   1.936  10.434  0.8280  0.3782  0.1755
 3519SOL    HW212811   9.625   1.878  10.321 -0.0347 -0.9316  1.4425
 3520SOL     OW12812   4.635   0.824   5.172  0.3978 -0.3236  0.0843
 3520SOL    HW112813   4.580   0.765   5.120  1.8669 -1.1504 -0.5886
 3520SOL    HW212814   4.683   0.876   5.107 -1.2895  2.1406  0.6394
 3521SOL     OW12815   2.248  10.591   8.921 -0.0519 -0.1948 -0.1323
 3521SOL    HW112816   2.162  10.618   8.889  0.2211 -0.5886 -1.2281
 3521SOL    HW212817   2.266  10.507   8.877  1.0970  0.1113 -0.2921
 3522SOL     OW12818   8.371   1.767   2.535  0.8783  0.7981  0.5729
 3522SOL    HW112819   8.293   1.766   2.480  1.3065  1.8303 -0.0925
 3522SOL    HW212820   8.386   1.676   2.558 -0.8756  0.6272  1.2374
 3523SOL     OW12821   3.036   5.308   6.819 -0.7487  0.4701 -0.6240
 3523SOL    HW112822   3.057   5.368   6.890 -1.5192 -0.6231  0.5762
 3523SOL    HW212823   3.119   5.265   6.798 -0.4952  0.8827 -0.4715
 3524SOL     OW12824   7.526   5.968   7.393 -0.1104  0.4147 -0.6521
 3524SOL    HW112825   7.544   5.937   7.482 -2.1406  0.9840  0.0114
 3524SOL    HW212826   7.612   5.980   7.354  0.8290 -1.5654  0.6137
 3525SOL     OW12827   7.176   5.351   5.532 -0.1172 -0.4913 -0.6343
 3525SOL    HW112828   7.084   5.369   5.512  0.3576 -0.7409 -3.3226
 3525SOL    HW212829   7.211   5.313   5.452  1.8249 -2.5102  1.0580
 3526SOL     OW12830   3.999   3.228   3.805 -0.0225 -0.7013 -0.1615
 3526SOL    HW112831   4.034   3.269   3.726 -0.0731  0.6534  0.4875
 3526SOL    HW212832   3.956   3.149   3.774  1.0885 -0.8711 -1.3260
 3527SOL     OW12833   0.806   3.117  10.298  0.1032 -0.2322  0.0008
 3527SOL    HW112834   0.817   3.196  10.351  0.5964  0.1241 -0.6170
 3527SOL    HW212835   0.719   3.126  10.259  0.8573  0.8871 -1.4786
 3528SOL     OW12836   8.662   7.928   5.955  0.0159 -0.4040  0.7566
 3528SOL    HW112837   8.640   7.969   6.039 -3.7149  1.1774 -0.7710
 3528SOL    HW212838   8.701   7.998   5.903  1.0477 -1.0034  0.7101
 3529SOL     OW12839   5.830   4.745   7.740 -0.1086 -0.5031 -0.7860
 3529SOL    HW112840   5.918   4.771   7.713 -0.0838 -0.8691 -1.0690
 3529SOL    HW212841   5.819   4.657   7.704 -0.5766 -0.4728 -0.7260
 3530SOL     OW12842   6.811   8.711   1.986 -0.1385  0.4514 -0.1926
 3530SOL    HW112843   6.852   8.798   1.993 -0.0832  0.5730 -1.8040
 3530SOL    HW212844   6.723   8.723   2.023  0.5164  0.6845  1.4096
 3531SOL     OW12845   2.472   9.635   7.624  0.0872 -0.0680 -0.1398
 3531SOL    HW112846   2.562   9.619   7.650  0.7469  0.5427 -1.8562
 3531SOL    HW212847   2.479   9.666   7.533 -1.6252  2.5987  0.5301
 3532SOL     OW12848   2.918   4.078   4.794 -0.3427 -0.1770 -0.4673
 3532SOL    HW112849   2.964   4.114   4.718  0.2727  2.8322  1.1493
 3532SOL    HW212850   2.841   4.134   4.804  0.6643  0.9167  2.2215
 3533SOL     OW12851   0.678   2.114   1.039 -0.1864  0.4266 -0.2317
 3533SOL    HW112852   0.683   2.038   0.980 -2.9592 -0.0947  0.0841
 3533SOL    HW212853   0.636   2.182   0.986  0.5065  1.1292  0.1044
 3534SOL     OW12854   7.938   3.190   6.305  0.0992  0.0803 -0.0261
 3534SOL    HW112855   7.922   3.260   6.241  0.9686  1.0961  0.8265
 3534SOL    HW212856   7.856   3.141   6.308 -0.9993  1.8425  0.3050
 3535SOL     OW12857   6.002   8.223   7.612 -0.0201  0.1380 -0.1485
 3535SOL    HW112858   6.078   8.223   7.554  0.8810 -0.7676  0.9952
 3535SOL    HW212859   5.957   8.141   7.592 -0.4738  0.4713 -0.5198
 3536SOL     OW12860  10.336   9.376   9.211  0.5282  0.3660  0.1897
 3536SOL    HW112861  10.416   9.335   9.179 -0.7898 -0.7032 -1.9818
 3536SOL    HW212862  10.342   9.467   9.180  0.8744  0.2645 -0.0473
 3537SOL     OW12863   9.007   7.332   1.385  0.3359 -0.0577  0.5574
 3537SOL    HW112864   9.032   7.424   1.382  1.3004 -0.3195  0.0719
 3537SOL    HW212865   9.090   7.285   1.376 -0.0237 -0.9773  1.7215
 3538SOL     OW12866  10.452   9.001   8.481 -0.3205 -0.4283  0.0036
 3538SOL    HW112867  10.440   9.078   8.537 -0.4439 -0.1627 -0.3848
 3538SOL    HW212868  10.365   8.983   8.446 -0.1166 -0.1830 -0.6332
 3539SOL     OW12869   1.848   4.126   3.252 -0.1851  0.4598  0.3838
 3539SOL    HW112870   1.753   4.141   3.253 -0.0859  1.1197  1.2930
 3539SOL    HW212871   1.885   4.205   3.293  0.7109 -0.0436  0.5633
 3540SOL     OW12872   1.314  10.002   4.179  0.0173 -0.1560  0.1855
 3540SOL    HW112873   1.308  10.017   4.273 -1.4119 -0.9952  0.2559
 3540SOL    HW212874   1.241  10.051   4.142  0.7509  0.4209 -0.5317
 3541SOL     OW12875   4.632   2.895   8.719  0.0501  0.8095  0.1064
 3541SOL    HW112876   4.719   2.894   8.678 -0.0494  0.6496 -0.1034
 3541SOL    HW212877   4.647   2.860   8.807  0.0523 -0.0896 -0.2339
 3542SOL     OW12878   1.628   1.147   2.825  0.1379  0.1125  0.5806
 3542SOL    HW112879   1.550   1.128   2.772  0.1802 -0.1687  0.6180
 3542SOL    HW212880   1.667   1.224   2.783  0.1341 -0.0668  0.2437
 3543SOL     OW12881   7.472   2.902   9.868  0.1822 -0.1615  0.4300
 3543SOL    HW112882   7.538   2.957   9.911  0.7641  1.3459 -2.1898
 3543SOL    HW212883   7.523   2.840   9.816 -0.5013 -1.4780  1.2843
 3544SOL     OW12884   5.557   3.206   3.101  0.4950  0.4341  0.1543
 3544SOL    HW112885   5.538   3.265   3.174 -0.4221 -0.0857  0.3436
 3544SOL    HW212886   5.653   3.202   3.099  0.5660  1.5786  0.4074
 3545SOL     OW12887   8.005   6.843   1.958 -0.1749 -0.2233 -0.6699
 3545SOL    HW112888   8.069   6.915   1.949  3.4683 -2.9614  0.7992
 3545SOL    HW212889   7.989   6.814   1.869 -1.0065  1.7368 -1.2175
 3546SOL     OW12890   9.037   3.236  10.548  0.0736  0.4533 -0.2358
 3546SOL    HW112891   9.103   3.245  10.479 -0.7588  0.3228 -1.0644
 3546SOL    HW212892   8.956   3.270  10.509  0.1844  3.3265  1.6749
 3547SOL     OW12893   4.473   5.391   3.024  0.4161 -0.1352 -0.2223
 3547SOL    HW112894   4.432   5.473   2.997 -1.7773  0.1091  3.3000
 3547SOL    HW212895   4.558   5.418   3.058 -0.2140  0.7012  0.7495
 3548SOL     OW12896  10.425  10.131   9.810  0.4308  0.1896  0.0781
 3548SOL    HW112897  10.509  10.097   9.841  0.3940  0.9952  1.1149
 3548SOL    HW212898  10.389  10.178   9.886  0.4896  2.5453 -1.2676
 3549SOL     OW12899   7.587   9.420   5.884  1.0313  0.2743 -0.3703
 3549SOL    HW112900   7.507   9.473   5.888  1.6169  1.2101 -0.7841
 3549SOL    HW212901   7.556   9.333   5.859  0.0370  0.3710  0.4424
 3550SOL     OW12902   2.371   1.888   1.148 -0.2416  0.0809  0.0255
 3550SOL    HW112903   2.381   1.970   1.099  2.2472  2.1325  3.4291
 3550SOL    HW212904   2.301   1.906   1.211  0.1934 -0.4152  0.6724
 3551SOL     OW12905   5.115   1.461   6.828 -0.0580  0.5172  0.5106
 3551SOL    HW112906   5.033   1.423   6.859 -0.1689 -1.1418 -1.5992
 3551SOL    HW212907   5.183   1.421   6.883 -0.3570 -1.3227 -0.3678
 3552SOL     OW12908   6.499   9.369   6.714  0.0364  0.8685 -0.0563
 3552SOL    HW112909   6.542   9.431   6.773 -1.6062  0.7107  1.3942
 3552SOL    HW212910   6.478   9.421   6.636  1.1644  1.3913 -0.0319
 3553SOL     OW12911   0.212   6.454   7.289  0.2925  0.4639 -0.5877
 3553SOL    HW112912   0.232   6.360   7.286 -1.8301 -0.0319 -0.4957
 3553SOL    HW212913   0.187   6.475   7.199  0.0504  0.7745 -0.4475
 3554SOL     OW12914   6.484   8.270   1.420 -0.2202 -0.0332  0.1082
 3554SOL    HW112915   6.477   8.297   1.328  1.9455  0.2393 -0.0432
 3554SOL    HW212916   6.568   8.223   1.424 -0.5016 -0.4396  1.8641
 3555SOL     OW12917   0.130   4.491   0.609 -0.1525 -0.1288  0.0283
 3555SOL    HW112918   0.132   4.442   0.527  0.2328  1.4925 -0.9755
 3555SOL    HW212919   0.037   4.508   0.625 -0.2075 -0.1439 -0.2744
 3556SOL     OW12920   4.665   4.080   1.723  0.3268 -0.1035  0.0429
 3556SOL    HW112921   4.683   3.998   1.769 -0.5342 -0.3132  0.0166
 3556SOL    HW212922   4.719   4.075   1.644  0.2512 -0.6621  0.0218
 3557SOL     OW12923   1.683   0.341   4.792 -0.5548  0.4443  0.0611
 3557SOL    HW112924   1.653   0.303   4.710  2.2222 -1.2943 -0.2795
 3557SOL    HW212925   1.734   0.271   4.834 -0.4716  1.8326  2.4810
 3558SOL     OW12926   2.950   1.734   6.494  0.0437  0.4068 -0.0893
 3558SOL    HW112927   2.968   1.714   6.586  2.3580  1.6368 -0.2075
 3558SOL    HW212928   2.998   1.668   6.445 -0.1134  0.5436 -0.4321
 3559SOL     OW12929   3.380  10.181   5.343 -0.1980  0.3351  0.1291
 3559SOL    HW112930   3.304  10.171   5.286  1.5958 -1.9692 -2.0860
 3559SOL    HW212931   3.432  10.251   5.303 -0.5236  1.0591  0.9359
 3560SOL     OW12932  10.275   4.940   2.288  0.3111 -0.0189  0.0781
 3560SOL    HW112933  10.356   4.982   2.315  1.4263 -1.0323 -1.5500
 3560SOL    HW212934  10.281   4.851   2.322 -0.1638 -0.0774  0.0222
 3561SOL     OW12935   3.280   3.515   8.298  0.2901 -0.0005  0.1536
 3561SOL    HW112936   3.358   3.570   8.288  0.1618  0.6309  2.1355
 3561SOL    HW212937   3.237   3.550   8.376 -2.3281  0.0646 -1.2103
 3562SOL     OW12938   7.253   2.841   7.290  0.1079 -0.0828  0.0323
 3562SOL    HW112939   7.300   2.838   7.207 -0.7039  0.3862 -0.4535
 3562SOL    HW212940   7.161   2.824   7.267  0.2082 -2.5949  1.1516
 3563SOL     OW12941   2.967   3.779   9.354 -0.1392  0.1990  0.1391
 3563SOL    HW112942   3.033   3.830   9.307 -1.0144  0.4259 -0.8866
 3563SOL    HW212943   2.909   3.844   9.393 -0.3380  0.0014  0.1786
 3564SOL     OW12944   1.851   6.710   3.236  0.1695 -0.3290  0.0065
 3564SOL    HW112945   1.878   6.618   3.239 -0.0903 -0.4097 -0.0920
 3564SOL    HW212946   1.756   6.706   3.220  0.3183 -0.0346 -0.9919
 3565SOL     OW12947   9.763   1.335   4.286  0.2083 -0.2204  0.0195
 3565SOL    HW112948   9.798   1.311   4.200 -0.0079 -1.7867  0.3475
 3565SOL    HW212949   9.746   1.429   4.279  1.1149 -0.1202 -1.3200
 3566SOL     OW12950   3.695   9.519   1.394 -0.2378  0.3845  0.9946
 3566SOL    HW112951   3.729   9.526   1.305 -1.0051 -0.9196  0.5770
 3566SOL    HW212952   3.685   9.425   1.409 -1.8053  0.6386  1.8029
 3567SOL     OW12953   3.401   6.497   3.778 -0.0888  0.0812 -0.1436
 3567SOL    HW112954   3.393   6.578   3.727 -1.8072  1.3079  1.9034
 3567SOL    HW212955   3.467   6.517   3.844 -1.1634  0.2123  0.9400
 3568SOL     OW12956   8.601   3.320   3.776  0.1612  0.3186  0.1775
 3568SOL    HW112957   8.521   3.309   3.726 -0.1022  0.0272  0.6611
 3568SOL    HW212958   8.671   3.299   3.714 -0.0742  1.4622 -0.5166
 3569SOL     OW12959   2.333  10.178   2.070 -0.5722  0.3273 -0.8196
 3569SOL    HW112960   2.276  10.254   2.075  1.8221  2.2827 -1.2253
 3569SOL    HW212961   2.342  10.160   1.977 -0.8192 -0.2368 -0.7412
 3570SOL     OW12962   7.707   5.743   6.713 -0.6093  0.0089 -1.0591
 3570SOL    HW112963   7.647   5.723   6.642 -1.0692 -1.4777 -0.2892
 3570SOL    HW212964   7.788   5.769   6.670 -0.5201 -1.9107 -2.1627
 3571SOL     OW12965   8.528   5.851   9.454  0.4539 -0.1544  0.4092
 3571SOL    HW112966   8.564   5.807   9.377  0.5273 -0.4246  0.5997
 3571SOL    HW212967   8.442   5.882   9.425  0.8974  0.6477 -0.1003
 3572SOL     OW12968   6.852   4.760   7.352 -0.4886 -0.4667 -0.2223
 3572SOL    HW112969   6.808   4.835   7.392 -0.7229 -0.2605 -0.8600
 3572SOL    HW212970   6.787   4.690   7.353 -0.1828 -0.7583  0.6219
 3573SOL     OW12971   7.488   1.708   7.588 -0.9720  0.3027  0.0526
 3573SOL    HW112972   7.417   1.671   7.535 -2.3118  1.9615  0.6044
 3573SOL    HW212973   7.468   1.801   7.593  2.1277  1.1786 -1.0990
 3574SOL     OW12974   4.650   9.986   5.591 -0.1295  0.0107 -0.0159
 3574SOL    HW112975   4.660  10.049   5.520 -0.4002 -1.4723 -1.4365
 3574SOL    HW212976   4.578   9.930   5.563 -0.4842 -0.4054  1.6204
 3575SOL     OW12977   9.949   5.943   3.182  0.3303 -0.0973  0.3177
 3575SOL    HW112978   9.957   6.039   3.180  1.4426 -0.1831 -0.3078
 3575SOL    HW212979   9.855   5.927   3.183  0.1302  1.0141  1.2440
 3576SOL     OW12980   7.164   2.035   7.923 -0.0578 -0.0616  0.0061
 3576SOL    HW112981   7.158   2.005   8.014 -1.4670 -0.4385 -0.1901
 3576SOL    HW212982   7.172   2.130   7.929  0.5781 -0.1441  0.5351
 3577SOL     OW12983   2.688   6.156   6.437  0.5541  0.1428 -0.2739
 3577SOL    HW112984   2.772   6.132   6.399  0.2801 -0.0494 -0.7629
 3577SOL    HW212985   2.643   6.073   6.450  0.8499  0.1514  0.9827
 3578SOL     OW12986   8.563   5.299   7.662  0.1025  0.4761 -0.3939
 3578SOL    HW112987   8.534   5.279   7.573  1.4815 -0.6476 -0.6314
 3578SOL    HW212988   8.609   5.382   7.654  0.0825  0.4598 -0.7027
 3579SOL     OW12989   0.698   7.410   0.190  0.2425  0.1601  0.2023
 3579SOL    HW112990   0.709   7.315   0.186  4.6350  0.5017 -0.1734
 3579SOL    HW212991   0.732   7.435   0.276  0.9701  1.5075 -0.4409
 3580SOL     OW12992   9.092   9.980  10.167  0.0214  0.1780  0.1334
 3580SOL    HW112993   9.129   9.969  10.255  1.4914  1.6767 -0.2556
 3580SOL    HW212994   9.018  10.041  10.180 -0.6537 -0.6963  0.5077
 3581SOL     OW12995   8.882   9.791   2.588  0.0251 -0.0590  0.4207
 3581SOL    HW112996   8.944   9.719   2.578  0.5544  0.5340 -0.8885
 3581SOL    HW212997   8.915   9.859   2.529 -1.0551  0.8399  0.8125
 3582SOL     OW12998   0.325  10.055   2.603  0.1606 -0.3356 -0.1880
 3582SOL    HW112999   0.279  10.007   2.672 -0.7762 -1.1115 -1.3152
 3582SOL    HW213000   0.281  10.140   2.600 -1.2034 -1.0245 -1.1689
 3583SOL     OW13001   7.506  10.619   6.240  0.6888 -0.1991  0.0782
 3583SOL    HW113002   7.441  10.602   6.172 -0.6150 -0.1991  1.2767
 3583SOL    HW213003   7.489  10.710   6.266  0.8685 -0.3428  0.7098
 3584SOL     OW13004   4.661   3.723   4.153 -0.3124 -0.0870 -0.0814
 3584SOL    HW113005   4.750   3.755   4.165  0.3447 -1.4976 -0.9994
 3584SOL    HW213006   4.642   3.739   4.061 -1.7482  1.9142  0.4881
 3585SOL     OW13007   0.481   9.027   2.275  0.2076 -0.1132  0.8118
 3585SOL    HW113008   0.540   9.009   2.201 -1.3338 -0.8954 -0.2879
 3585SOL    HW213009   0.461   8.940   2.311  0.0338  0.1766  1.4209
 3586SOL     OW13010   3.208  10.352   6.220  0.3293 -0.5156  0.4877
 3586SOL    HW113011   3.246  10.328   6.135 -0.7302  0.8281 -0.4143
 3586SOL    HW213012   3.117  10.323   6.215 -0.4353  1.7525  0.1362
 3587SOL     OW13013   0.428   9.397   3.754 -0.5293 -0.4710 -0.7002
 3587SOL    HW113014   0.361   9.350   3.703 -0.8523 -0.7464 -0.0425
 3587SOL    HW213015   0.380   9.430   3.830 -0.1220  0.2118 -0.7413
 3588SOL     OW13016   0.105   7.909   9.355  0.1712  0.2349  0.5994
 3588SOL    HW113017   0.197   7.912   9.330 -0.2924  0.5439 -1.2430
 3588SOL    HW213018   0.064   7.980   9.305 -1.0492  0.1773  1.4687
 3589SOL     OW13019   6.747   0.910   9.146  0.0785  0.1455 -0.4273
 3589SOL    HW113020   6.674   0.969   9.158  0.4320  0.3341  1.0241
 3589SOL    HW213021   6.742   0.883   9.055 -0.9424  1.2660 -0.7224
 3590SOL     OW13022   4.977   8.668   4.997 -0.0293 -0.6067 -0.2082
 3590SOL    HW113023   5.036   8.593   4.990  0.0805 -0.5703  0.2936
 3590SOL    HW213024   4.956   8.673   5.090 -0.3733 -0.2724 -0.3024
 3591SOL     OW13025   4.032   5.859   1.972  0.0954 -0.5295  0.1890
 3591SOL    HW113026   4.039   5.790   2.038  0.0228 -1.5278 -0.8178
 3591SOL    HW213027   3.950   5.840   1.925 -0.6345  1.0458  0.7697
 3592SOL     OW13028   2.033   1.020   6.022  0.3575  0.2478  0.0985
 3592SOL    HW113029   2.001   1.009   6.111 -2.0504  0.4358 -0.6708
 3592SOL    HW213030   2.074   0.936   6.000  0.1268 -0.1237  1.0498
 3593SOL     OW13031   6.648   4.163   0.334  0.3221 -0.1808 -0.2589
 3593SOL    HW113032   6.680   4.078   0.365 -0.6760 -0.1850  0.7973
 3593SOL    HW213033   6.618   4.145   0.245  0.8799 -0.7355 -0.3494
 3594SOL     OW13034   8.797   0.852   3.164  0.1798 -0.6849 -0.4740
 3594SOL    HW113035   8.806   0.802   3.245 -0.0892 -0.4422 -0.2902
 3594SOL    HW213036   8.813   0.789   3.094 -0.0744 -1.0082 -0.2420
 3595SOL     OW13037   1.307   5.280   9.940  0.8436 -0.6773  0.0142
 3595SOL    HW113038   1.236   5.284   9.877 -0.6562 -1.2657  1.5726
 3595SOL    HW213039   1.324   5.187   9.951  2.2212 -0.5358 -0.6783
 3596SOL     OW13040   9.787   8.974   8.149 -0.0664  0.3559  0.2216
 3596SOL    HW113041   9.852   8.939   8.088  0.5691  1.3342  0.3110
 3596SOL    HW213042   9.703   8.960   8.105  0.2735 -0.1180 -0.2947
 3597SOL     OW13043   2.719   3.100   2.555 -0.4189 -0.4506 -0.3353
 3597SOL    HW113044   2.802   3.097   2.602  0.9478  0.5720 -2.5189
 3597SOL    HW213045   2.722   3.025   2.495 -1.3096 -0.7147 -0.0573
 3598SOL     OW13046   7.838   0.738   0.317  0.3538  0.4468  0.0717
 3598SOL    HW113047   7.837   0.833   0.309  0.8814  0.3556 -1.5382
 3598SOL    HW213048   7.788   0.707   0.242 -2.0398 -0.5442  1.9623
 3599SOL     OW13049   6.346   9.088   5.852 -0.2198  0.6320  0.1579
 3599SOL    HW113050   6.439   9.078   5.870 -0.1365  0.9481 -0.0866
 3599SOL    HW213051   6.332   9.183   5.844 -0.3552  0.5468 -0.8340
 3600SOL     OW13052   7.279   7.988   5.035  0.4524  0.2929 -0.5218
 3600SOL    HW113053   7.293   8.060   4.974 -0.4013  0.5654 -0.4110
 3600SOL    HW213054   7.363   7.977   5.079  0.6283  1.1439 -0.6287
 3601SOL     OW13055   8.070  10.245   3.690 -0.5834  0.1988  0.9716
 3601SOL    HW113056   8.124  10.308   3.642  1.0949 -3.1163 -2.0148
 3601SOL    HW213057   8.116  10.232   3.773  2.9562 -1.6861 -1.0200
 3602SOL     OW13058   0.668   7.013   9.802 -0.0275 -0.2421 -0.9370
 3602SOL    HW113059   0.597   6.960   9.767 -0.1837  0.1207 -1.1761
 3602SOL    HW213060   0.746   6.959   9.791 -0.5179 -1.5216  1.2165
 3603SOL     OW13061   9.663   4.193   6.131  0.1322 -0.2800  0.6951
 3603SOL    HW113062   9.571   4.171   6.147 -0.0113 -1.5835 -1.5191
 3603SOL    HW213063   9.712   4.130   6.184 -0.1952  0.8968  2.4698
 3604SOL     OW13064   7.586   8.919   8.735 -0.4804 -0.0533 -0.4988
 3604SOL    HW113065   7.636   8.996   8.708  1.0216 -1.4010 -1.7013
 3604SOL    HW213066   7.500   8.932   8.695 -0.6017  1.4834  0.1963
 3605SOL     OW13067   3.967   9.775   5.003 -0.2690  0.0544  0.3577
 3605SOL    HW113068   4.023   9.763   4.927  2.1209  0.8658  1.8803
 3605SOL    HW213069   3.916   9.694   5.008  1.6758 -1.2855 -0.4166
 3606SOL     OW13070   5.306   0.847   2.931  0.0277  0.2482 -0.0076
 3606SOL    HW113071   5.254   0.863   3.010  0.7416 -0.6303  0.6655
 3606SOL    HW213072   5.250   0.876   2.859  0.4551  3.8401  0.9157
 3607SOL     OW13073   8.082   9.176   4.414 -0.6802 -0.2862 -0.0970
 3607SOL    HW113074   8.092   9.183   4.509 -1.5402 -0.4681  0.0185
 3607SOL    HW213075   8.171   9.171   4.380 -0.3862 -1.1736  0.7744
 3608SOL     OW13076   3.405   4.665   2.435  0.0333 -0.4864 -0.1656
 3608SOL    HW113077   3.493   4.629   2.425  0.0686 -0.6387  0.6138
 3608SOL    HW213078   3.358   4.598   2.485 -0.7312 -0.7140 -1.1610
 3609SOL     OW13079   9.761   6.847   9.190 -0.5165 -0.3018  0.3880
 3609SOL    HW113080   9.713   6.879   9.114 -0.4619  1.4422  1.0491
 3609SOL    HW213081   9.853   6.853   9.166 -0.4734  0.8946  0.8178
 3610SOL     OW13082   8.419   6.267   6.467 -0.0928  0.8654  0.1646
 3610SOL    HW113083   8.412   6.193   6.407 -1.1211  1.3544 -0.3439
 3610SOL    HW213084   8.510   6.264   6.498 -0.0522 -0.4597 -0.0252
 3611SOL     OW13085   9.816   2.437   6.888  0.2052 -0.1707 -0.5404
 3611SOL    HW113086   9.852   2.454   6.975 -1.8352 -2.0445  0.7981
 3611SOL    HW213087   9.883   2.385   6.843  0.8659 -0.0339  0.2723
 3612SOL     OW13088   6.262   6.045   7.049  0.3473 -0.7425 -0.1629
 3612SOL    HW113089   6.192   6.030   6.985  0.6463  0.6585 -0.8501
 3612SOL    HW213090   6.310   6.120   7.015  0.0314  0.5895  2.1115
 3613SOL     OW13091   5.464   0.978   7.705 -0.3071  0.4220  0.0056
 3613SOL    HW113092   5.474   1.065   7.667  0.8230  0.2834 -0.0242
 3613SOL    HW213093   5.497   0.918   7.638  0.3265  0.0776  0.6162
 3614SOL     OW13094   7.376   2.216   7.650  0.5819 -0.5852 -0.5629
 3614SOL    HW113095   7.295   2.242   7.692  0.0063 -2.7391 -0.2144
 3614SOL    HW213096   7.394   2.129   7.685  2.8894 -0.2953 -0.8729
 3615SOL     OW13097   8.626   4.025   3.583 -0.4764 -0.1707 -0.1638
 3615SOL    HW113098   8.566   4.091   3.549  0.8500  0.6863 -0.9412
 3615SOL    HW213099   8.662   4.064   3.662 -1.5304 -1.0343  0.7752
 3616SOL     OW13100   0.252   8.573   4.158 -0.7158 -0.9414 -0.2456
 3616SOL    HW113101   0.183   8.592   4.222 -0.8262 -1.0725 -0.3253
 3616SOL    HW213102   0.265   8.478   4.165  0.2112 -0.7813  0.5414
 3617SOL     OW13103   1.073   4.059   6.289 -0.5392  0.1075 -0.3663
 3617SOL    HW113104   1.125   4.106   6.354  2.0449 -1.7444 -0.9623
 3617SOL    HW213105   1.017   4.001   6.342  1.3784 -1.2274  0.3241
 3618SOL     OW13106   5.780  10.581   5.152 -0.5281  0.7298  0.6631
 3618SOL    HW113107   5.685  10.586   5.149 -0.4702  1.1658 -0.7851
 3618SOL    HW213108   5.810  10.671   5.142  0.0395  1.1169  4.4155
 3619SOL     OW13109   3.434   7.553   4.443 -0.2075 -0.2192  0.5413
 3619SOL    HW113110   3.500   7.595   4.499  0.8320 -0.2626 -0.6025
 3619SOL    HW213111   3.432   7.462   4.473  1.8550 -0.7696 -0.7438
 3620SOL     OW13112   8.081   0.284   9.834  0.2196  0.2877  0.1091
 3620SOL    HW113113   8.137   0.208   9.847  3.0299  1.6307 -2.7597
 3620SOL    HW213114   8.102   0.343   9.907 -0.4804 -0.8062  1.2248
 3621SOL     OW13115   0.766   2.781   8.127 -0.4554  0.0840  0.1754
 3621SOL    HW113116   0.817   2.702   8.109 -0.1487  0.3731 -0.2487
 3621SOL    HW213117   0.791   2.806   8.216 -0.5483 -0.2864  0.3099
 3622SOL     OW13118   5.458   4.774   2.001  0.0557  0.8629 -0.1558
 3622SOL    HW113119   5.435   4.790   2.092  1.9710 -0.7401  0.6841
 3622SOL    HW213120   5.382   4.728   1.964 -0.7314  1.5314  0.6008
 3623SOL     OW13121   1.398   5.682  10.103  0.2224  0.1871  0.2837
 3623SOL    HW113122   1.457   5.650  10.034 -0.0827 -1.5306  0.7587
 3623SOL    HW213123   1.342   5.606  10.123  1.2720  0.1173  3.4575
 3624SOL     OW13124   4.999   3.027   0.891 -0.5968  0.4070  0.0770
 3624SOL    HW113125   4.983   2.942   0.932 -0.8300 -0.4766 -1.7435
 3624SOL    HW213126   4.913   3.069   0.887 -0.7527  0.0567 -0.3941
 3625SOL     OW13127   4.783   9.610   6.021  0.4060 -0.5057  0.7096
 3625SOL    HW113128   4.783   9.579   6.111  0.1436 -0.7989  0.6104
 3625SOL    HW213129   4.741   9.540   5.971  0.8524 -0.4942  0.3071
 3626SOL     OW13130   0.602   6.197   1.905 -0.0239  0.5528 -0.3246
 3626SOL    HW113131   0.656   6.216   1.982 -1.2875  0.1593  0.7194
 3626SOL    HW213132   0.513   6.192   1.941 -0.5646 -0.2401 -1.7338
 3627SOL     OW13133   0.767   1.664   5.314 -0.4585  0.0197  0.7355
 3627SOL    HW113134   0.815   1.744   5.291  0.1336 -0.4902  0.1619
 3627SOL    HW213135   0.677   1.682   5.289  0.1007 -0.4442 -1.9281
 3628SOL     OW13136   8.578   3.449   4.079  0.0123  0.4333  0.1029
 3628SOL    HW113137   8.494   3.431   4.038  0.0374 -1.5894  0.7918
 3628SOL    HW213138   8.638   3.386   4.039  1.0732  1.4727  0.0166
 3629SOL     OW13139   6.604   5.588   1.963  0.7672 -0.3542 -0.4107
 3629SOL    HW113140   6.577   5.657   1.902 -2.1935 -1.4569 -0.5055
 3629SOL    HW213141   6.679   5.546   1.921  0.3051  0.4546 -2.1341
 3630SOL     OW13142   5.884   7.461   9.715  0.6602 -0.1876  0.2623
 3630SOL    HW113143   5.920   7.506   9.791 -1.4458 -1.1620  1.9288
 3630SOL    HW213144   5.800   7.504   9.700  0.4719 -0.8704 -0.7261
 3631SOL     OW13145   1.953   1.876   3.232  0.0933  0.4165  0.1597
 3631SOL    HW113146   2.027   1.815   3.226 -0.2146  0.0223  0.2735
 3631SOL    HW213147   1.878   1.820   3.252  0.1377  1.0291  2.2660
 3632SOL     OW13148   6.341   5.435   4.563  0.0876 -0.6081 -0.2242
 3632SOL    HW113149   6.303   5.414   4.478 -0.0787  1.0770 -0.6121
 3632SOL    HW213150   6.339   5.353   4.612  0.4592 -1.6826 -1.9363
 3633SOL     OW13151   0.666   0.926   7.187  0.4859 -0.1654  0.5329
 3633SOL    HW113152   0.585   0.965   7.155  2.1686  3.8156  0.5206
 3633SOL    HW213153   0.716   0.907   7.107  1.7316  2.8434  0.4718
 3634SOL     OW13154  10.096   5.350   5.999  0.3822 -0.7633 -0.7200
 3634SOL    HW113155  10.077   5.348   6.093 -2.9651 -1.9744 -1.2498
 3634SOL    HW213156  10.062   5.434   5.969  0.1868 -0.9464 -1.0235
 3635SOL     OW13157   2.050   0.709   1.795  0.6619  0.1605 -0.1770
 3635SOL    HW113158   2.132   0.757   1.810  0.8610 -0.9707  3.1464
 3635SOL    HW213159   1.987   0.750   1.854  0.0523 -1.6854  0.5274
 3636SOL     OW13160  10.268   3.080   1.399 -0.1982 -0.1941 -0.1437
 3636SOL    HW113161  10.244   3.142   1.331  1.0684  0.3992 -0.0850
 3636SOL    HW213162  10.187   3.063   1.446 -0.2709  3.2933  1.3650
 3637SOL     OW13163   2.685   9.489   0.483  0.0115 -0.2785 -0.1874
 3637SOL    HW113164   2.655   9.417   0.428  0.2343 -0.7916  0.3503
 3637SOL    HW213165   2.606   9.527   0.520 -0.1451  0.1154 -0.9076
 3638SOL     OW13166   2.026   5.522   8.020 -0.0678 -0.4298  0.2043
 3638SOL    HW113167   1.971   5.445   8.008 -0.7329  0.2201 -1.2383
 3638SOL    HW213168   2.107   5.489   8.059  0.1846 -2.0697 -1.5820
 3639SOL     OW13169   6.493   1.230   6.335  0.2796  0.2355  0.3329
 3639SOL    HW113170   6.459   1.224   6.245  2.9061 -2.8835 -0.6709
 3639SOL    HW213171   6.584   1.258   6.324  0.7320 -0.4726  1.9575
 3640SOL     OW13172   7.103   6.642   4.730  0.1638 -0.6388  1.4428
 3640SOL    HW113173   7.144   6.727   4.711 -0.2493 -1.0158 -1.7465
 3640SOL    HW213174   7.146   6.612   4.811  1.0921  2.0816  2.0587
 3641SOL     OW13175   9.226  10.119   1.176  0.8592 -0.3617 -0.2377
 3641SOL    HW113176   9.148  10.119   1.120  1.8540  1.1057 -1.6976
 3641SOL    HW213177   9.298  10.096   1.118  1.4348 -3.2046  1.3913
 3642SOL     OW13178   2.219   8.759   7.873 -0.2130  0.2934  0.3297
 3642SOL    HW113179   2.234   8.828   7.809  0.4832  0.2682  0.4526
 3642SOL    HW213180   2.126   8.740   7.868 -0.1785  0.3585 -0.6076
 3643SOL     OW13181   8.293   7.680   3.706  0.1125  0.0432  0.2278
 3643SOL    HW113182   8.313   7.683   3.799 -0.2494 -0.9253  0.3487
 3643SOL    HW213183   8.354   7.615   3.671  0.0454  0.1859 -0.1591
 3644SOL     OW13184   9.871   6.139   2.677 -0.1346  0.1711 -0.2557
 3644SOL    HW113185   9.808   6.157   2.747  0.8908 -0.8366  0.9644
 3644SOL    HW213186   9.956   6.138   2.721  0.7535  1.3659 -1.8389
 3645SOL     OW13187   8.720   1.040   8.929 -0.1098  0.4192  0.7575
 3645SOL    HW113188   8.674   1.083   8.856  0.1556 -0.3249  0.1464
 3645SOL    HW213189   8.733   0.950   8.900 -0.2879  0.0157  1.8617
 3646SOL     OW13190   5.768   7.611   8.611 -0.5288 -0.0631  0.2675
 3646SOL    HW113191   5.816   7.550   8.667 -1.5883  1.0044  2.4461
 3646SOL    HW213192   5.743   7.558   8.535 -2.4356 -2.7971  2.5889
 3647SOL     OW13193   5.061   5.453   7.221  0.7709  0.1160  0.4576
 3647SOL    HW113194   5.070   5.539   7.262 -0.4083  0.6315 -0.2948
 3647SOL    HW213195   5.062   5.472   7.127 -1.2148 -0.4608  0.2787
 3648SOL     OW13196   4.603   1.465   2.894 -0.2717  0.0101  0.7077
 3648SOL    HW113197   4.575   1.520   2.821 -0.4241 -0.1065  0.6783
 3648SOL    HW213198   4.523   1.445   2.941 -0.4530 -1.4520 -0.1488
 3649SOL     OW13199   9.649   2.421   0.284  0.5554  0.1538 -0.0771
 3649SOL    HW113200   9.591   2.483   0.329 -0.6195  0.1735 -1.5645
 3649SOL    HW213201   9.662   2.350   0.348 -0.4785  0.5135  0.5504
 3650SOL     OW13202   1.367   0.512   0.385  0.2819 -0.1263  0.3590
 3650SOL    HW113203   1.428   0.519   0.312 -0.3141  0.2331 -0.1167
 3650SOL    HW213204   1.422   0.520   0.463  1.0483 -1.4298 -0.0160
 3651SOL     OW13205   3.144   6.929   4.737  0.6219  0.0598 -0.4197
 3651SOL    HW113206   3.073   6.903   4.796  0.9690  1.4288  0.6716
 3651SOL    HW213207   3.140   7.025   4.736  0.9853  0.0947 -2.2230
 3652SOL     OW13208   4.021   7.170   4.470 -0.5000 -0.1604  0.1558
 3652SOL    HW113209   3.970   7.250   4.482 -0.2239  0.0553 -0.1167
 3652SOL    HW213210   4.017   7.153   4.376 -1.9630 -1.3948  0.3908
 3653SOL     OW13211   8.201   0.794   0.167  0.6914  0.1520  0.7542
 3653SOL    HW113212   8.161   0.862   0.220 -1.7781 -0.7222  0.1738
 3653SOL    HW213213   8.183   0.820   0.076 -0.2237 -1.1497  0.5190
 3654SOL     OW13214   2.850   5.879   5.203  0.1621 -0.1455  0.4613
 3654SOL    HW113215   2.759   5.848   5.204 -0.1319  0.6786  0.2429
 3654SOL    HW213216   2.898   5.813   5.252 -0.5000 -0.7696  0.2891
 3655SOL     OW13217   7.229   3.664   7.183  0.2581 -0.0239 -0.0113
 3655SOL    HW113218   7.141   3.701   7.180  0.0173 -0.4465  1.2541
 3655SOL    HW213219   7.215   3.570   7.195  0.8694 -0.0034  0.9837
 3656SOL     OW13220   0.846   6.404   9.568  0.5035  0.8361 -0.0576
 3656SOL    HW113221   0.861   6.323   9.618 -0.5370  0.7878  0.2069
 3656SOL    HW213222   0.852   6.376   9.476  1.6254  0.7652  0.0257
 3657SOL     OW13223   7.987   3.247   3.747  0.0863 -0.0452 -0.4986
 3657SOL    HW113224   8.048   3.308   3.704 -0.5228  1.1235  0.2556
 3657SOL    HW213225   7.941   3.301   3.811 -1.5589 -0.9719 -0.8629
 3658SOL     OW13226   7.999   5.465   3.374 -0.0561  0.8588  0.2854
 3658SOL    HW113227   7.996   5.389   3.315  1.4286 -1.4015  2.8874
 3658SOL    HW213228   7.908   5.493   3.380 -0.5943 -0.4069 -1.1654
 3659SOL     OW13229   7.112   2.354   7.108  0.9522 -0.2725 -0.4974
 3659SOL    HW113230   7.110   2.311   7.194 -0.3119  0.2616 -0.2414
 3659SOL    HW213231   7.150   2.440   7.127  1.0736 -0.3120 -0.5583
 3660SOL     OW13232   1.783   8.274   3.110 -0.1158 -0.0760 -0.8920
 3660SOL    HW113233   1.830   8.296   3.030  2.1557  2.8545  0.9928
 3660SOL    HW213234   1.824   8.330   3.177  0.3324 -4.4942  3.0073
 3661SOL     OW13235   2.296   1.515   8.892 -0.0632 -0.4377  0.2448
 3661SOL    HW113236   2.295   1.592   8.835  1.7586  0.1223  0.8908
 3661SOL    HW213237   2.273   1.442   8.835 -1.6497  0.5337 -0.4289
 3662SOL     OW13238   1.539   2.271   7.188  0.0476 -0.3528 -0.2915
 3662SOL    HW113239   1.551   2.262   7.282 -0.5311 -0.6071 -0.2368
 3662SOL    HW213240   1.451   2.238   7.172 -0.1057  0.3033 -0.8366
 3663SOL     OW13241   4.357   9.379   5.105  0.2966 -0.3608 -0.6951
 3663SOL    HW113242   4.303   9.305   5.133  0.5748 -0.7379 -1.1329
 3663SOL    HW213243   4.377   9.427   5.186  0.5944 -1.0940 -0.3244
 3664SOL     OW13244   8.164   3.883   8.813  0.3268 -0.1715  0.3018
 3664SOL    HW113245   8.078   3.904   8.775 -1.2991 -2.2071  2.5037
 3664SOL    HW213246   8.205   3.826   8.748 -0.8952 -0.8235  0.0555
 3665SOL     OW13247   9.129   2.020   8.362 -0.3060  0.0921  0.2064
 3665SOL    HW113248   9.223   2.013   8.342 -0.2067  1.6295  0.0521
 3665SOL    HW213249   9.114   1.951   8.427  0.7504 -0.7055 -0.3609
 3666SOL     OW13250   1.504   7.720   5.797  0.2963 -0.1259 -0.0989
 3666SOL    HW113251   1.544   7.637   5.825 -2.9481 -1.5267  0.8542
 3666SOL    HW213252   1.513   7.778   5.873 -0.2165 -0.7205  0.4254
 3667SOL     OW13253   7.087   4.746   5.840  0.0362  0.0728 -0.0430
 3667SOL    HW113254   7.032   4.762   5.764  0.7390 -1.1860 -0.8620
 3667SOL    HW213255   7.027   4.714   5.907 -1.2233  4.4508  1.2720
 3668SOL     OW13256   2.327  10.163   7.740 -0.1099 -0.0164  0.0759
 3668SOL    HW113257   2.332  10.258   7.750  0.9207  0.3496 -3.0769
 3668SOL    HW213258   2.277  10.134   7.817 -1.5058  3.1595  0.5204
 3669SOL     OW13259   9.837   5.375   1.727  0.4861  0.0275 -0.2212
 3669SOL    HW113260   9.791   5.453   1.759 -1.6218 -0.6168 -1.4868
 3669SOL    HW213261   9.813   5.306   1.789  0.4646 -0.1250 -0.4002
 3670SOL     OW13262   3.675   2.185   8.635  0.5686 -0.0337  0.1879
 3670SOL    HW113263   3.770   2.182   8.649  0.3995 -0.5719  1.3225
 3670SOL    HW213264   3.638   2.146   8.714 -0.5898 -0.2811 -0.4603
 3671SOL     OW13265   2.715   9.911   4.886  0.2928 -0.5141 -0.6867
 3671SOL    HW113266   2.785   9.858   4.924  0.7920 -0.0559 -0.9712
 3671SOL    HW213267   2.748  10.001   4.889  0.3389 -0.4629 -2.1896
 3672SOL     OW13268   9.539   9.558   4.825  0.2999  0.1493  0.7881
 3672SOL    HW113269   9.503   9.612   4.896 -0.2391 -1.4136  1.7465
 3672SOL    HW213270   9.463   9.534   4.772  0.3437 -0.7480  1.1267
 3673SOL     OW13271   3.838   6.006   8.968  0.3676 -0.4034  0.4344
 3673SOL    HW113272   3.785   5.998   8.889 -0.2905  0.9278  0.7158
 3673SOL    HW213273   3.797   6.077   9.017  0.6263 -1.3530  2.0858
 3674SOL     OW13274  10.278   0.442   5.290 -0.1650 -1.0122  0.3117
 3674SOL    HW113275  10.328   0.500   5.233 -0.4175 -1.4706 -0.3920
 3674SOL    HW213276  10.213   0.402   5.232 -2.9466  1.3159  1.5894
 3675SOL     OW13277   7.726   4.536   4.966 -0.2482 -0.0071 -0.1102
 3675SOL    HW113278   7.705   4.474   5.037 -0.0615  0.7475  0.6110
 3675SOL    HW213279   7.667   4.610   4.981 -0.8776 -0.2473 -1.3130
 3676SOL     OW13280   9.183   6.577  10.085 -0.3712 -0.0348  0.2367
 3676SOL    HW113281   9.141   6.512  10.029  2.9031 -0.9663 -1.3840
 3676SOL    HW213282   9.207   6.648  10.026  3.2204 -1.0654  0.2167
 3677SOL     OW13283   2.945  10.237   0.883 -0.4264 -0.4813 -0.4476
 3677SOL    HW113284   2.886  10.166   0.858 -0.3465 -0.2855 -1.2116
 3677SOL    HW213285   3.021  10.192   0.920 -0.1429 -0.8331 -1.4215
 3678SOL     OW13286   7.820   9.017   1.803  0.4748 -0.0478  0.1088
 3678SOL    HW113287   7.880   9.007   1.878  0.3242  0.0246  0.2405
 3678SOL    HW213288   7.860   8.965   1.733  0.8990  0.3112  0.0757
 3679SOL     OW13289   2.250   2.824   4.979  0.2063  0.3537  0.3658
 3679SOL    HW113290   2.281   2.780   5.058 -0.5227  2.6965  2.0466
 3679SOL    HW213291   2.288   2.912   4.983 -1.6875  1.2922 -0.6777
 3680SOL     OW13292   4.140   3.350   8.363 -0.5727 -0.4011 -0.3847
 3680SOL    HW113293   4.046   3.336   8.347 -0.5164  0.7799 -1.8793
 3680SOL    HW213294   4.145   3.371   8.456 -1.5940 -1.9753  0.0710
 3681SOL     OW13295   4.810   1.082   6.417  0.0179  0.5412 -0.0815
 3681SOL    HW113296   4.830   1.120   6.332  0.6637  1.6315  0.5400
 3681SOL    HW213297   4.742   1.138   6.453 -4.1347 -2.7619 -1.9179
 3682SOL     OW13298   4.609   4.282   9.370 -0.3299  0.0465  0.3885
 3682SOL    HW113299   4.614   4.324   9.456  2.3075  1.0792 -0.1841
 3682SOL    HW213300   4.601   4.355   9.309 -2.1234 -0.6767 -0.3211
 3683SOL     OW13301  10.098   8.689   0.786  0.0873 -0.0733 -0.1104
 3683SOL    HW113302  10.130   8.666   0.699 -0.7634  0.2596 -0.5229
 3683SOL    HW213303  10.152   8.763   0.813 -0.5155  0.6915 -0.9343
 3684SOL     OW13304   0.708   3.723   9.120  0.2626  0.0757 -0.0921
 3684SOL    HW113305   0.681   3.751   9.033 -2.5688  0.7790  0.8859
 3684SOL    HW213306   0.760   3.796   9.154  1.4813 -0.2544 -1.1888
 3685SOL     OW13307   7.762   4.578   3.509  0.0559  0.7087 -0.0696
 3685SOL    HW113308   7.678   4.619   3.486 -0.1708  1.8227  2.4718
 3685SOL    HW213309   7.828   4.642   3.482 -0.0726  1.0406  0.4062
 3686SOL     OW13310   6.727   8.938   5.630  0.7667 -0.1917  0.1864
 3686SOL    HW113311   6.697   8.848   5.617 -1.8646  0.6589 -0.2924
 3686SOL    HW213312   6.751   8.968   5.542 -0.9939  0.3756 -0.1357
 3687SOL     OW13313   7.590   1.809  10.130 -0.8634  0.2204  0.1411
 3687SOL    HW113314   7.607   1.835  10.040 -1.2771  0.7163  0.2007
 3687SOL    HW213315   7.671   1.830  10.177 -0.3163 -0.8820 -0.2790
 3688SOL     OW13316   3.937   3.069   7.867 -0.3852 -0.3035  0.3532
 3688SOL    HW113317   3.932   3.130   7.794  0.4133  1.9549  2.0586
 3688SOL    HW213318   3.997   3.110   7.929 -0.3349 -2.5312  1.9274
 3689SOL     OW13319   1.155   6.756   4.136  0.0054  0.0443 -0.1786
 3689SOL    HW113320   1.153   6.794   4.224  0.6989 -1.1516  0.3791
 3689SOL    HW213321   1.229   6.800   4.093  0.4244 -0.2218  0.2563
 3690SOL     OW13322   3.368   2.383   5.871  0.1542  0.7900 -0.1585
 3690SOL    HW113323   3.442   2.327   5.846  0.4195  1.5662 -1.1435
 3690SOL    HW213324   3.408   2.468   5.889 -0.3311  0.8487  0.7014
 3691SOL     OW13325  10.585   5.664   9.310  0.0716 -0.2743  0.3817
 3691SOL    HW113326  10.564   5.571   9.308 -0.5595 -0.1308 -0.6996
 3691SOL    HW213327  10.583   5.688   9.403 -0.3173 -1.2167  0.6206
 3692SOL     OW13328   0.080   4.523   7.389 -0.6589  0.5193  0.2640
 3692SOL    HW113329   0.015   4.593   7.392 -0.1969  1.0600 -1.4294
 3692SOL    HW213330   0.041   4.455   7.334  0.9919  1.7979 -2.7247
 3693SOL     OW13331   9.472   5.406   8.208 -0.2529 -0.2132 -0.4275
 3693SOL    HW113332   9.433   5.338   8.153  0.4281 -1.4568  0.5755
 3693SOL    HW213333   9.412   5.480   8.200 -1.4356 -1.1796 -0.9525
 3694SOL     OW13334   7.817   2.339   7.847 -0.2752 -0.3363 -0.2512
 3694SOL    HW113335   7.798   2.376   7.761 -0.5951  1.8758  0.6846
 3694SOL    HW213336   7.884   2.273   7.831  1.4562  1.6724 -1.9640
 3695SOL     OW13337   2.821   2.907   1.828 -0.3393  0.5658  0.3301
 3695SOL    HW113338   2.834   2.969   1.899  0.4673 -0.3757  1.0302
 3695SOL    HW213339   2.782   2.830   1.870  1.3223 -0.4954  0.0343
 3696SOL     OW13340   9.138   1.099   9.916  0.3667  0.2600  0.1001
 3696SOL    HW113341   9.158   1.185   9.954 -2.2998  2.1913 -2.3727
 3696SOL    HW213342   9.205   1.087   9.849  0.7714  0.3913  0.4744
 3697SOL     OW13343   9.990  10.387   8.018  0.4782 -0.7724 -0.0207
 3697SOL    HW113344  10.066  10.395   8.076 -0.1841  0.3700  0.7248
 3697SOL    HW213345  10.009  10.310   7.965  1.4964 -1.3620  1.1385
 3698SOL     OW13346   8.825   6.669   6.891  0.3690  0.2858  0.4747
 3698SOL    HW113347   8.903   6.644   6.940  0.4137  2.8610  1.8900
 3698SOL    HW213348   8.800   6.590   6.843  3.3456 -0.8562  0.6070
 3699SOL     OW13349  10.213  10.269   2.738 -0.1346  0.1184 -0.2990
 3699SOL    HW113350  10.186  10.227   2.657 -0.3847 -0.0051 -0.1539
 3699SOL    HW213351  10.306  10.247   2.747 -0.9371 -3.3053  1.4647
 3700SOL     OW13352   3.493   5.529   7.203 -0.0468  0.5687 -0.4024
 3700SOL    HW113353   3.500   5.437   7.180  1.7781  0.5797 -0.0329
 3700SOL    HW213354   3.421   5.562   7.149 -1.4410 -1.2769  0.2348
 3701SOL     OW13355   6.294  10.554   3.401  0.5180 -0.1788 -0.2650
 3701SOL    HW113356   6.308  10.542   3.307  0.8412  0.2565 -0.2751
 3701SOL    HW213357   6.335  10.477   3.441  1.2237  0.1100 -0.4228
 3702SOL     OW13358   9.356   0.872  10.056  0.8656 -0.2142  0.2613
 3702SOL    HW113359   9.401   0.809  10.113  0.9595  0.1902  0.6439
 3702SOL    HW213360   9.422   0.896   9.990  0.5617 -1.1511 -0.4027
 3703SOL     OW13361   0.380   1.607   1.567 -0.2242  0.2077 -0.3860
 3703SOL    HW113362   0.303   1.641   1.612  1.1706  2.8086  0.2893
 3703SOL    HW213363   0.377   1.648   1.480 -0.3725 -0.8924 -0.9082
 3704SOL     OW13364   0.968   6.280   3.649 -0.3054 -0.1004 -0.2114
 3704SOL    HW113365   0.913   6.273   3.570  1.2975 -0.3039 -1.3537
 3704SOL    HW213366   0.943   6.364   3.687 -0.1065  0.6987 -1.7513
 3705SOL     OW13367   3.957   1.365   5.076  0.3773 -0.5275  0.2671
 3705SOL    HW113368   3.972   1.271   5.091  1.4918 -0.2746  0.9073
 3705SOL    HW213369   3.933   1.399   5.162 -2.0212 -0.5454 -0.3503
 3706SOL     OW13370   7.651   0.633   4.819 -0.4194  0.9918 -0.1520
 3706SOL    HW113371   7.577   0.596   4.770 -0.0232  0.7130 -0.5425
 3706SOL    HW213372   7.721   0.569   4.810 -0.2877  1.0139  0.6519
 3707SOL     OW13373   8.092   0.032  10.015 -0.0404 -0.7032 -0.0472
 3707SOL    HW113374   8.039   0.042   9.936 -0.7084  0.1462  0.4969
 3707SOL    HW213375   8.180   0.059   9.988 -0.4947  0.6572 -0.2308
 3708SOL     OW13376   9.194   3.995   9.545  0.1381  0.2772 -0.3757
 3708SOL    HW113377   9.246   3.938   9.601  2.0609  0.3348 -1.9833
 3708SOL    HW213378   9.193   4.079   9.591  0.1678 -0.1311  0.3900
 3709SOL     OW13379   2.375   8.417   4.623 -0.2822 -0.3400 -0.0190
 3709SOL    HW113380   2.330   8.402   4.706  1.5300 -2.0795  0.7491
 3709SOL    HW213381   2.348   8.343   4.568  2.0699 -1.8835  0.7364
 3710SOL     OW13382   2.009   6.254   0.913 -0.4356 -0.2112  0.8310
 3710SOL    HW113383   2.043   6.337   0.882  1.5367 -1.3079 -0.1536
 3710SOL    HW213384   2.074   6.223   0.976 -1.5528 -0.6582  1.8102
 3711SOL     OW13385   6.308   9.414   5.627  0.4055  0.3412  0.6506
 3711SOL    HW113386   6.288   9.327   5.592 -1.3921  0.9378  0.0972
 3711SOL    HW213387   6.376   9.398   5.693  0.1317 -1.4682  0.5423
 3712SOL     OW13388   6.680  10.461   7.465  0.0990 -0.1659 -0.1380
 3712SOL    HW113389   6.605  10.501   7.508  0.6416  1.4709 -0.6516
 3712SOL    HW213390   6.643  10.411   7.393 -0.5174  0.5359 -0.3194
 3713SOL     OW13391   2.567   4.440   5.958  0.1930  0.3865  0.4771
 3713SOL    HW113392   2.628   4.513   5.968  0.2487  0.4341 -0.1729
 3713SOL    HW213393   2.538   4.446   5.867 -0.7409  0.3353  0.7626
 3714SOL     OW13394   2.689   4.857   2.038  0.0565  0.1660 -0.4565
 3714SOL    HW113395   2.740   4.858   1.957 -0.0408  0.0673 -0.5192
 3714SOL    HW213396   2.740   4.803   2.098 -0.8319 -1.4197 -1.0822
 3715SOL     OW13397   9.721  10.467   0.828  0.5724  0.5376 -0.6501
 3715SOL    HW113398   9.682  10.516   0.755 -1.6883 -0.9257 -0.5263
 3715SOL    HW213399   9.667  10.490   0.904  1.2705  0.0471  0.0032
 3716SOL     OW13400   6.539  10.123   6.341 -0.1016  0.5415 -0.2235
 3716SOL    HW113401   6.485  10.169   6.405 -0.0771  0.7171 -0.3282
 3716SOL    HW213402   6.538  10.032   6.370 -0.2767  0.5811 -0.1028
 3717SOL     OW13403   0.342   2.781   4.171 -0.5667  0.1534  0.1156
 3717SOL    HW113404   0.349   2.815   4.081  0.6390  0.9684  0.4902
 3717SOL    HW213405   0.264   2.727   4.170 -0.8960  0.6081 -1.2890
 3718SOL     OW13406   9.583   7.500   5.603  0.6120  0.1734 -0.2136
 3718SOL    HW113407   9.612   7.475   5.515 -0.6187  0.0804 -0.6086
 3718SOL    HW213408   9.530   7.579   5.589 -0.4035 -0.3963  0.3246
 3719SOL     OW13409   0.461   0.056   8.705 -0.7372 -0.0146 -0.4550
 3719SOL    HW113410   0.511   0.137   8.707  1.6262 -1.3209 -1.6943
 3719SOL    HW213411   0.483   0.012   8.787 -0.2162 -0.3753 -0.7838
 3720SOL     OW13412   8.843   5.040   8.900 -0.6270 -0.5870  0.0545
 3720SOL    HW113413   8.823   5.000   8.816 -0.6343  0.9273 -0.6945
 3720SOL    HW213414   8.762   5.033   8.950 -0.6346 -1.4531 -0.0732
 3721SOL     OW13415   1.494   4.859   5.481  0.0538 -0.1402  0.3139
 3721SOL    HW113416   1.518   4.905   5.400  1.8037 -0.8588  0.3834
 3721SOL    HW213417   1.452   4.778   5.451 -1.4964  0.6720  0.1811
 3722SOL     OW13418   5.033   0.663   0.371  0.3096 -0.7395  0.1067
 3722SOL    HW113419   5.046   0.711   0.452  0.0305  0.1331 -0.3540
 3722SOL    HW213420   5.106   0.689   0.315  1.1476 -2.2040  0.4486
 3723SOL     OW13421   1.584   6.894   9.636 -0.1288  0.1359  0.3465
 3723SOL    HW113422   1.548   6.811   9.665 -1.8526 -0.5897 -3.3282
 3723SOL    HW213423   1.530   6.960   9.681 -2.3584 -0.8790 -0.6652
 3724SOL     OW13424   3.287   8.924   3.586 -0.3387  0.1632 -0.1181
 3724SOL    HW113425   3.368   8.964   3.556  0.2406 -0.2417  0.8443
 3724SOL    HW213426   3.315   8.839   3.621 -0.9446  0.6484  1.6228
 3725SOL     OW13427   2.708   5.033   6.608 -0.0992  0.0503  0.3056
 3725SOL    HW113428   2.649   5.019   6.533  0.8734  0.5742 -0.5752
 3725SOL    HW213429   2.668   4.982   6.679  0.1942 -2.4200 -1.1913
 3726SOL     OW13430  10.462   1.832   9.280  0.4693  0.0486  0.4368
 3726SOL    HW113431  10.393   1.884   9.240 -2.4482 -2.1535  2.2120
 3726SOL    HW213432  10.514   1.895   9.331 -0.5554  1.6971 -0.4949
 3727SOL     OW13433   3.278   3.552   5.352 -0.2246 -0.3999 -0.3331
 3727SOL    HW113434   3.270   3.457   5.356  0.5301 -0.5104 -1.1462
 3727SOL    HW213435   3.279   3.572   5.259 -0.2266  0.3936 -0.1694
 3728SOL     OW13436   7.431   1.582   8.749 -0.6722 -0.3038  0.4577
 3728SOL    HW113437   7.430   1.677   8.762  3.4916  0.1967 -1.3894
 3728SOL    HW213438   7.478   1.548   8.825  1.6008 -0.2825 -0.8592
 3729SOL     OW13439   2.549   6.114   1.299  0.5350  0.2571 -0.3564
 3729SOL    HW113440   2.642   6.127   1.317  0.2884  1.6749  0.0497
 3729SOL    HW213441   2.539   6.136   1.206  0.5121  0.7693 -0.2386
 3730SOL     OW13442   6.930   3.061   3.124 -0.5393  0.1119 -0.3060
 3730SOL    HW113443   7.006   3.052   3.066 -0.9743 -1.5353 -0.6445
 3730SOL    HW213444   6.923   2.977   3.169 -1.4323  0.6689  0.6594
 3731SOL     OW13445   4.746   7.953   9.965  0.2399  0.3031 -0.4221
 3731SOL    HW113446   4.811   8.022   9.951  1.2928 -0.3701  0.8815
 3731SOL    HW213447   4.769   7.885   9.902  1.2537 -0.2047  0.4519
 3732SOL     OW13448   4.070  10.585   1.122 -0.7606 -0.9257 -0.1499
 3732SOL    HW113449   4.003  10.554   1.182 -1.6651 -0.0699 -0.6803
 3732SOL    HW213450   4.054  10.679   1.114  1.1326 -0.4912  0.4797
 3733SOL     OW13451   8.274   9.776   9.331  0.5031 -0.0602  0.0115
 3733SOL    HW113452   8.317   9.839   9.274 -0.3032 -0.0299 -0.5813
 3733SOL    HW213453   8.346   9.724   9.368  1.0330 -0.2104 -1.1882
 3734SOL     OW13454   7.238   8.364   3.942  0.1726  0.2734  0.2382
 3734SOL    HW113455   7.317   8.417   3.937 -0.5087  1.2975  0.0139
 3734SOL    HW213456   7.261   8.283   3.897  2.2382 -0.9847  3.2325
 3735SOL     OW13457   9.320   6.255   6.806  0.4114  0.3500  0.0944
 3735SOL    HW113458   9.255   6.294   6.747  0.1433 -0.8115 -0.4106
 3735SOL    HW213459   9.389   6.321   6.813 -0.7749  1.5908  0.5843
 3736SOL     OW13460   2.288   5.516   6.867 -0.1420 -0.0177 -0.5372
 3736SOL    HW113461   2.365   5.556   6.827 -0.9296  0.7654 -1.3191
 3736SOL    HW213462   2.245   5.588   6.914  0.1292 -0.6710  0.7439
 3737SOL     OW13463   9.970   5.630   2.019 -0.2259  0.3261  0.4041
 3737SOL    HW113464  10.033   5.678   2.074 -0.0858  1.2162 -0.5066
 3737SOL    HW213465   9.953   5.549   2.067  2.5161 -0.5100  0.1323
 3738SOL     OW13466  10.055   7.597   2.773  0.3149 -0.3086  0.1837
 3738SOL    HW113467  10.120   7.546   2.821  2.1370  0.6279 -1.1625
 3738SOL    HW213468  10.024   7.539   2.704 -2.0501 -1.5352  2.1163
 3739SOL     OW13469   7.534   3.861   5.687 -0.5228  0.6539  0.5929
 3739SOL    HW113470   7.479   3.940   5.688 -0.0659  1.0293 -1.2287
 3739SOL    HW213471   7.547   3.842   5.595  0.0029 -1.1472  1.0097
 3740SOL     OW13472   2.449   5.076   5.522 -0.1441 -0.5195 -0.2996
 3740SOL    HW113473   2.502   5.090   5.443 -0.9503 -0.1955 -0.7953
 3740SOL    HW213474   2.426   4.983   5.518 -1.0332 -0.2852 -1.0074
 3741SOL     OW13475   2.107   9.267   6.144 -0.0362  0.4675 -0.0987
 3741SOL    HW113476   2.079   9.353   6.112 -2.0162  0.0302  0.3656
 3741SOL    HW213477   2.111   9.213   6.065 -0.6029  0.5247 -0.1725
 3742SOL     OW13478   8.636   5.362   8.924 -0.4151  0.1910 -0.3284
 3742SOL    HW113479   8.718   5.385   8.969  1.1640 -1.2473 -2.3002
 3742SOL    HW213480   8.664   5.316   8.845 -3.1734 -0.5636 -0.9666
 3743SOL     OW13481   2.438  10.453   2.795 -0.6273 -0.3965  0.4380
 3743SOL    HW113482   2.487  10.529   2.827  1.0818 -0.6492 -1.3787
 3743SOL    HW213483   2.349  10.465   2.830 -0.2598  2.1389  0.6827
 3744SOL     OW13484  10.396   1.699   1.610  0.5997 -0.3627  0.3894
 3744SOL    HW113485  10.478   1.735   1.576  1.1457 -0.6571  1.3390
 3744SOL    HW213486  10.388   1.613   1.568  0.2995  0.0351 -0.3899
 3745SOL     OW13487  10.321   1.297   1.023 -0.6256  0.5605 -0.5275
 3745SOL    HW113488  10.231   1.320   1.004 -0.1172  0.4688 -3.4329
 3745SOL    HW213489  10.370   1.320   0.944  2.0490  1.2493  1.1789
 3746SOL     OW13490   6.193   2.036   7.089 -0.2229 -0.2091 -0.1936
 3746SOL    HW113491   6.236   1.996   7.165 -0.5378  0.3203  0.2773
 3746SOL    HW213492   6.198   1.970   7.021  3.3899  0.5597 -0.9265
 3747SOL     OW13493   0.552   3.259   1.622  0.2349 -0.5197  0.4206
 3747SOL    HW113494   0.633   3.310   1.621  0.0145 -0.1565  0.9208
 3747SOL    HW213495   0.567   3.193   1.690 -0.1357 -0.0505  0.9563
 3748SOL     OW13496   4.993   3.568   3.537 -0.7491 -0.1365 -0.1001
 3748SOL    HW113497   5.031   3.627   3.603 -0.6625 -1.7147  1.3212
 3748SOL    HW213498   4.909   3.607   3.516 -1.3452 -0.2131  1.9129
 3749SOL     OW13499   9.505   2.033   6.569  0.5883  0.7986 -0.2311
 3749SOL    HW113500   9.589   2.018   6.614 -0.1795 -1.1582  0.6543
 3749SOL    HW213501   9.529   2.067   6.483  2.4494 -1.8563 -0.8775
 3750SOL     OW13502   0.632   3.064   1.826  0.1775 -0.0978 -0.1180
 3750SOL    HW113503   0.670   2.982   1.859 -0.5994 -0.0145  1.0623
 3750SOL    HW213504   0.683   3.133   1.870  0.0947  0.0375 -0.2330
 3751SOL     OW13505   4.236   2.419   0.217 -0.4734  0.1190  0.2484
 3751SOL    HW113506   4.264   2.439   0.128 -0.2701  1.5230  0.5922
 3751SOL    HW213507   4.296   2.469   0.273  0.2145 -1.7309  1.2490
 3752SOL     OW13508   7.262   3.679   3.574  0.4278 -0.3181 -0.0218
 3752SOL    HW113509   7.231   3.617   3.508 -0.0821  0.0576 -0.1436
 3752SOL    HW213510   7.350   3.702   3.545 -0.4586  1.2675 -1.6505
 3753SOL     OW13511   4.078   7.775   8.932  0.4581  0.4636 -0.1181
 3753SOL    HW113512   4.101   7.840   8.865 -1.6650 -0.0378 -1.4223
 3753SOL    HW213513   4.044   7.701   8.883 -0.0745 -0.4022  1.4811
 3754SOL     OW13514   3.621   2.052  10.432  0.1608  0.0618 -0.0549
 3754SOL    HW113515   3.712   2.043  10.404 -0.6782  2.3407 -4.2500
 3754SOL    HW213516   3.579   1.970  10.405  0.6423 -0.4590  0.7244
 3755SOL     OW13517   8.173   8.771   9.788 -0.1190 -0.0542  0.3085
 3755SOL    HW113518   8.151   8.740   9.701 -1.0990 -2.7197  1.4178
 3755SOL    HW213519   8.247   8.717   9.816  0.6001  1.1870  0.9393
 3756SOL     OW13520   3.584   0.301   9.767  0.2757  0.1436  0.2475
 3756SOL    HW113521   3.577   0.214   9.728  1.5766 -0.2331  0.7867
 3756SOL    HW213522   3.515   0.304   9.833 -0.4856 -0.0546 -0.5262
 3757SOL     OW13523   1.041   5.314   3.338  0.1480 -0.3207 -0.0034
 3757SOL    HW113524   1.085   5.312   3.423  1.4223 -0.4907 -0.6509
 3757SOL    HW213525   1.059   5.228   3.300 -0.8164 -0.4209 -0.2582
 3758SOL     OW13526   9.049   2.259   3.671 -0.0027 -0.3532 -0.6319
 3758SOL    HW113527   9.076   2.330   3.729  2.7950 -0.6531 -1.4006
 3758SOL    HW213528   9.090   2.280   3.587 -0.5314 -2.0149 -1.3413
 3759SOL     OW13529   1.941   1.840   8.063  0.2973  0.1867 -0.5445
 3759SOL    HW113530   2.007   1.897   8.023  0.5355  0.3281  0.0432
 3759SOL    HW213531   1.938   1.867   8.155  2.1471 -2.2654  0.3702
 3760SOL     OW13532  10.448   2.555   6.031  0.0387  0.3885 -0.4356
 3760SOL    HW113533  10.481   2.632   6.077  1.5890 -1.3225  1.5609
 3760SOL    HW213534  10.527   2.513   5.997 -0.6862 -0.7156 -0.7999
 3761SOL     OW13535   6.276   5.592   0.556 -0.2285  0.5442  0.1442
 3761SOL    HW113536   6.189   5.587   0.516  0.5418 -0.5903 -1.4865
 3761SOL    HW213537   6.336   5.610   0.484  1.0235  0.3425  1.0863
 3762SOL     OW13538   1.879   9.315   9.073  0.0330  0.6936  0.1472
 3762SOL    HW113539   1.883   9.361   8.990 -0.3817  3.2341  1.4361
 3762SOL    HW213540   1.786   9.310   9.094  0.0583 -0.8774  0.0030
 3763SOL     OW13541   5.659   9.258   1.017 -0.1330 -0.0330  0.0891
 3763SOL    HW113542   5.685   9.321   1.084  1.7657  0.5590 -1.1085
 3763SOL    HW213543   5.588   9.301   0.970  2.3922  2.2719 -1.9700
 3764SOL     OW13544   8.176   4.131   6.669  0.4968 -0.3172  0.2605
 3764SOL    HW113545   8.122   4.175   6.604  0.8838 -0.8572 -0.4425
 3764SOL    HW213546   8.232   4.200   6.704 -0.6998  0.2699  1.0726
 3765SOL     OW13547   8.990   8.101   2.109 -0.2199 -0.0702 -0.2676
 3765SOL    HW113548   8.905   8.094   2.066 -0.3009 -1.7720  0.1120
 3765SOL    HW213549   9.002   8.195   2.123 -1.2235  0.3427 -1.9076
 3766SOL     OW13550   9.232   9.319   4.999 -0.6009  0.0628  0.0556
 3766SOL    HW113551   9.188   9.398   5.028  2.1601  2.8514 -2.5423
 3766SOL    HW213552   9.289   9.295   5.072  0.7571  2.4161 -0.1267
 3767SOL     OW13553   0.568   2.616  10.214  0.7244 -0.6444 -0.3320
 3767SOL    HW113554   0.506   2.550  10.246  2.6643 -2.0429  0.7850
 3767SOL    HW213555   0.653   2.572  10.216  1.6139  0.6816 -3.2721
 3768SOL     OW13556   5.202   5.951   5.375  0.1778  0.1839 -0.4449
 3768SOL    HW113557   5.184   6.028   5.429 -1.3519 -0.0341 -0.5918
 3768SOL    HW213558   5.229   5.883   5.437  0.6642  0.5859 -0.2152
 3769SOL     OW13559   9.138   9.025   6.742  0.0572 -0.5034  0.1416
 3769SOL    HW113560   9.078   8.952   6.747 -1.6530  0.8813  0.7984
 3769SOL    HW213561   9.120   9.066   6.657 -1.0012  0.7396  0.9200
 3770SOL     OW13562   1.056   2.079   4.692 -0.2079 -0.2076  0.1965
 3770SOL    HW113563   1.051   1.999   4.745  0.8675 -1.0931 -0.9740
 3770SOL    HW213564   1.144   2.077   4.654 -0.9204  0.3868 -1.5986
 3771SOL     OW13565   1.851   9.589   3.074 -0.2502  0.0597 -0.1072
 3771SOL    HW113566   1.853   9.553   2.985  0.6352  3.2265 -1.5100
 3771SOL    HW213567   1.787   9.535   3.120 -0.7470 -1.7010 -2.6342
 3772SOL     OW13568   3.747   3.799   7.693  0.0958  0.0012  0.7491
 3772SOL    HW113569   3.775   3.785   7.603 -0.6280 -2.4889  0.8290
 3772SOL    HW213570   3.807   3.746   7.745  0.3263  1.1817  1.7360
 3773SOL     OW13571   0.162   6.201   4.676  0.0691  0.1920 -0.3086
 3773SOL    HW113572   0.093   6.215   4.611  0.5883  1.3668 -0.6449
 3773SOL    HW213573   0.201   6.117   4.652 -1.7313 -0.8971  0.3642
 3774SOL     OW13574   5.186   6.511   7.958 -0.3783  0.3298  0.6100
 3774SOL    HW113575   5.177   6.463   7.876  0.6853  0.2866  0.4982
 3774SOL    HW213576   5.116   6.576   7.955 -0.5227  0.1540 -0.2135
 3775SOL     OW13577   8.744   2.996   1.055 -0.3624  0.2748 -0.0820
 3775SOL    HW113578   8.653   3.013   1.031 -1.1872 -0.4648  2.2038
 3775SOL    HW213579   8.761   3.058   1.126  0.8657  0.2648 -0.3506
 3776SOL     OW13580   3.174   7.389   6.725 -0.0873 -0.2281  0.1079
 3776SOL    HW113581   3.122   7.470   6.729  1.3326  0.6560  2.2526
 3776SOL    HW213582   3.126   7.328   6.780  0.3815  0.1455  0.9505
 3777SOL     OW13583   8.650   2.359   1.483  0.7493  0.4968  0.0441
 3777SOL    HW113584   8.698   2.350   1.401  0.9231 -0.7351  0.2733
 3777SOL    HW213585   8.625   2.270   1.508 -1.7414  1.0672 -0.1076
 3778SOL     OW13586   0.922   4.363   3.054  0.0154 -0.4859 -0.3564
 3778SOL    HW113587   1.003   4.378   3.102  0.2292 -1.2428 -0.4696
 3778SOL    HW213588   0.950   4.330   2.969 -0.2790  2.4985 -1.7161
 3779SOL     OW13589   7.984   4.900   2.876 -0.3611 -0.3157 -0.2132
 3779SOL    HW113590   7.982   4.886   2.970  2.0203  0.5930  0.0635
 3779SOL    HW213591   8.002   4.994   2.867 -0.6278 -0.3757 -1.5707
 3780SOL     OW13592   1.889   3.266   1.415  0.2252 -0.1036 -0.1759
 3780SOL    HW113593   1.889   3.360   1.433  2.8001 -0.1844  0.5608
 3780SOL    HW213594   1.959   3.231   1.470 -2.2681 -2.8950  1.4933
 3781SOL     OW13595   8.698   7.042  10.088  0.3446  0.4342  0.4077
 3781SOL    HW113596   8.725   7.097  10.161  1.8516 -0.0583  0.2473
 3781SOL    HW213597   8.654   6.968  10.129  1.5624 -0.0587  0.8753
 3782SOL     OW13598   4.501   9.143   1.700 -0.0744 -0.0255 -0.2335
 3782SOL    HW113599   4.450   9.149   1.780 -0.9305  1.2171 -0.8534
 3782SOL    HW213600   4.497   9.050   1.676 -2.6863  0.1400 -0.6728
 3783SOL     OW13601   3.317   8.170   5.232  0.2038  0.3576  0.2001
 3783SOL    HW113602   3.304   8.093   5.288 -1.0873 -1.0987 -1.9297
 3783SOL    HW213603   3.298   8.138   5.144 -2.0513  3.5122 -0.6225
 3784SOL     OW13604   2.370   9.316   5.578  0.3104 -0.6871  0.0084
 3784SOL    HW113605   2.303   9.250   5.561  1.8149 -2.1291 -0.6436
 3784SOL    HW213606   2.333   9.398   5.545 -0.5398 -1.7180 -1.7151
 3785SOL     OW13607   2.268   5.153   8.804  0.2282 -0.0535  0.3797
 3785SOL    HW113608   2.338   5.153   8.870  0.7274 -0.8823 -0.1335
 3785SOL    HW213609   2.227   5.239   8.813  0.7857  0.1370  1.2455
 3786SOL     OW13610   9.220   4.143   5.517  0.3845 -0.2030 -0.1605
 3786SOL    HW113611   9.150   4.150   5.452  0.3962 -0.0466 -0.1561
 3786SOL    HW213612   9.300   4.160   5.468  0.5082 -1.2822 -0.3528
 3787SOL     OW13613   4.000   7.633   1.177 -0.3535 -0.2960 -0.1173
 3787SOL    HW113614   3.999   7.574   1.252 -1.1252 -1.1774 -0.7971
 3787SOL    HW213615   4.024   7.718   1.213 -0.8653 -0.6729  1.1434
 3788SOL     OW13616   5.962   9.598   0.306  0.0462 -0.5318 -0.1941
 3788SOL    HW113617   5.874   9.580   0.272 -0.5331  0.4020  0.7512
 3788SOL    HW213618   6.005   9.648   0.236 -0.4903 -0.2093 -0.3009
 3789SOL     OW13619   6.860   2.552   0.156  0.0287  0.3740 -0.1720
 3789SOL    HW113620   6.788   2.600   0.199 -0.1705 -0.0940  0.0279
 3789SOL    HW213621   6.816   2.498   0.091  0.2288  0.2678 -0.2171
 3790SOL     OW13622   6.100   8.707   1.349  0.2877 -0.0798 -0.0093
 3790SOL    HW113623   6.073   8.780   1.293  1.3148  0.6025  0.3564
 3790SOL    HW213624   6.036   8.639   1.331 -1.1323  1.1525  0.1556
 3791SOL     OW13625   2.257   5.930   9.368  0.3890  0.1103 -0.0433
 3791SOL    HW113626   2.224   5.902   9.283  0.4153 -0.6119  0.1845
 3791SOL    HW213627   2.349   5.951   9.352  1.0649 -2.3580  0.2981
 3792SOL     OW13628   9.817   6.443   2.943  0.4250 -0.0698  0.6301
 3792SOL    HW113629   9.778   6.491   3.016  0.7715  2.1240 -0.5395
 3792SOL    HW213630   9.800   6.498   2.867  2.5982 -0.8448 -0.4874
 3793SOL     OW13631  10.328   4.882   1.730 -0.0492 -0.7098  0.7274
 3793SOL    HW113632  10.265   4.848   1.793  0.1431 -1.8162  0.3404
 3793SOL    HW213633  10.315   4.830   1.652  1.1247 -0.7508  0.5330
 3794SOL     OW13634   7.990   0.425   2.553 -0.4862  0.0514  0.0746
 3794SOL    HW113635   8.050   0.484   2.507 -1.8163 -0.1650 -2.0621
 3794SOL    HW213636   7.943   0.482   2.614  0.3879  0.5997  0.2542
 3795SOL     OW13637   8.517   8.724   2.259  0.4646  0.3724  0.4101
 3795SOL    HW113638   8.489   8.780   2.332 -1.2609 -0.1107  0.1647
 3795SOL    HW213639   8.444   8.727   2.197  2.0253  1.0611 -1.5095
 3796SOL     OW13640   8.480   4.444   3.906  0.3773 -0.6446  0.2266
 3796SOL    HW113641   8.448   4.522   3.951  0.2874 -0.7422  0.3313
 3796SOL    HW213642   8.548   4.410   3.964 -1.8552 -2.5521  1.8674
 3797SOL     OW13643   8.801   9.900   4.460  0.4091  0.1332 -0.4014
 3797SOL    HW113644   8.763   9.861   4.381 -0.1743 -0.4292  0.1409
 3797SOL    HW213645   8.774   9.841   4.531 -0.8502  1.7471  0.5221
 3798SOL     OW13646   5.172   9.428   8.480 -0.1787  0.5179  0.4270
 3798SOL    HW113647   5.195   9.514   8.444 -0.9513  0.9242  0.8741
 3798SOL    HW213648   5.220   9.422   8.562  1.1514 -0.1782 -0.3630
 3799SOL     OW13649   0.336   2.502   0.128  0.1098  0.7013 -0.0737
 3799SOL    HW113650   0.419   2.521   0.084  0.0749 -1.5270 -1.2438
 3799SOL    HW213651   0.277   2.477   0.058 -0.9712  0.3568  0.9321
 3800SOL     OW13652   7.232   7.161   7.857 -0.0798 -0.4115  0.3232
 3800SOL    HW113653   7.225   7.187   7.765 -0.3704 -0.8936  0.2087
 3800SOL    HW213654   7.262   7.070   7.855  0.3408 -0.2864  0.7146
 3801SOL     OW13655   3.234   1.957   6.075  0.6257  0.0882  0.3517
 3801SOL    HW113656   3.193   1.885   6.123  0.6105 -1.5038 -1.8958
 3801SOL    HW213657   3.161   2.004   6.036  0.6566  1.2066  1.5674
 3802SOL     OW13658   9.589  10.508   2.386  0.3846  0.2128  0.4848
 3802SOL    HW113659   9.596  10.567   2.310 -0.9949  0.2344  0.3437
 3802SOL    HW213660   9.631  10.556   2.457  1.9086  0.0962 -0.2961
 3803SOL     OW13661   9.324   5.723   5.207 -0.2445  0.1419  0.6071
 3803SOL    HW113662   9.403   5.760   5.167  0.8611 -1.7481  0.9518
 3803SOL    HW213663   9.355   5.676   5.284 -1.9337  0.7573  1.7166
 3804SOL     OW13664  10.026   4.310   8.959 -0.4856  0.7400  0.2545
 3804SOL    HW113665   9.958   4.377   8.958 -1.9661 -0.6572  1.3265
 3804SOL    HW213666   9.984   4.233   8.922  0.9541  0.1886 -0.3084
 3805SOL     OW13667   1.344   4.884   6.938 -0.3150  0.6945 -0.5390
 3805SOL    HW113668   1.333   4.962   6.993  0.5262 -0.8466  1.9808
 3805SOL    HW213669   1.291   4.817   6.980  0.1278 -0.5068 -1.8124
 3806SOL     OW13670   9.863   0.203   0.380 -0.5747  0.1825  0.2871
 3806SOL    HW113671   9.769   0.203   0.395 -0.2707  1.4011  2.7144
 3806SOL    HW213672   9.902   0.196   0.467  1.5835  0.3769 -0.5768
 3807SOL     OW13673   5.907   2.232  10.215 -0.3998 -0.1214  0.4353
 3807SOL    HW113674   5.902   2.277  10.299 -2.3704  3.1252 -1.2124
 3807SOL    HW213675   5.817   2.203  10.199  0.0471 -1.1014 -0.3604
 3808SOL     OW13676   6.776   0.986   5.622 -0.1065  0.6385  0.0020
 3808SOL    HW113677   6.871   0.992   5.613 -0.1428 -0.9019 -1.9419
 3808SOL    HW213678   6.761   0.899   5.659 -0.8143 -0.1939 -2.1022
 3809SOL     OW13679   9.018   1.059   9.568  0.6471 -0.8371  0.0178
 3809SOL    HW113680   8.934   1.028   9.602  0.2113 -1.7433 -1.7584
 3809SOL    HW213681   9.084   1.011   9.618  0.0870 -1.0683  0.5467
 3810SOL     OW13682   6.546   8.734   1.678 -0.1605 -0.5970  0.0667
 3810SOL    HW113683   6.463   8.740   1.632 -0.1350  0.2853  0.1273
 3810SOL    HW213684   6.522   8.725   1.771 -0.2044  1.8754  0.3464
 3811SOL     OW13685   8.583   2.889   2.897  0.2427 -0.2136 -0.5634
 3811SOL    HW113686   8.649   2.951   2.865  1.5043 -1.1822  0.0634
 3811SOL    HW213687   8.634   2.811   2.922 -0.9126 -0.3124  1.7326
 3812SOL     OW13688   3.874   9.033   8.851 -0.0966  0.2391  0.1338
 3812SOL    HW113689   3.914   8.952   8.883  0.6738  1.2099  1.8087
 3812SOL    HW213690   3.927   9.058   8.775 -0.4216 -0.8756 -0.4726
 3813SOL     OW13691   8.729   2.729   1.227  0.2154 -0.0494  0.2727
 3813SOL    HW113692   8.807   2.738   1.282 -0.2897  0.7928  0.8893
 3813SOL    HW213693   8.666   2.791   1.265 -0.6405 -0.4776 -0.4068
 3814SOL     OW13694   9.562   0.131   8.587 -0.1685 -0.0121 -0.0998
 3814SOL    HW113695   9.541   0.182   8.509  0.6216 -2.7153 -2.2716
 3814SOL    HW213696   9.658   0.129   8.589 -0.1628 -1.5918 -0.3036
 3815SOL     OW13697   0.768   6.653   0.662 -0.3371 -0.3486  0.4355
 3815SOL    HW113698   0.805   6.689   0.743 -1.1928  1.2083  0.1707
 3815SOL    HW213699   0.782   6.722   0.597 -0.8515 -1.0380 -0.4240
 3816SOL     OW13700   9.528   9.178   5.911  0.4779  0.4844 -0.1169
 3816SOL    HW113701   9.572   9.262   5.900 -0.0988  0.8621  0.4220
 3816SOL    HW213702   9.563   9.123   5.840  0.6883  1.2452 -0.6111
 3817SOL     OW13703   8.467   4.213   3.474  0.2113  0.4900  0.2837
 3817SOL    HW113704   8.445   4.288   3.530  1.2133  2.5371 -1.9101
 3817SOL    HW213705   8.382   4.174   3.453 -0.4551  1.8020  0.4208
 3818SOL     OW13706   8.847   6.251   6.881  0.2526  0.1853 -0.1952
 3818SOL    HW113707   8.791   6.320   6.843 -1.4690 -0.1109  1.6507
 3818SOL    HW213708   8.908   6.299   6.937  0.2653  0.3225 -0.3221
 3819SOL     OW13709   4.795   3.976   8.331 -0.7987 -0.3762  0.2275
 3819SOL    HW113710   4.836   3.918   8.266  0.2100  0.6560 -0.0988
 3819SOL    HW213711   4.704   3.946   8.337 -0.6875 -1.0193 -1.0384
 3820SOL     OW13712   2.788   5.117   3.640 -0.0850  0.0698  0.3672
 3820SOL    HW113713   2.808   5.151   3.552  1.3580 -0.7433  0.3629
 3820SOL    HW213714   2.872   5.090   3.675 -1.0500 -3.0855  0.5441
 3821SOL     OW13715   4.213   5.805   8.220  0.5829 -0.3144  0.1892
 3821SOL    HW113716   4.307   5.824   8.217  0.7432 -1.1423 -1.5815
 3821SOL    HW213717   4.198   5.752   8.142 -1.2223 -0.8704  0.8798
 3822SOL     OW13718   6.094   9.144   2.257 -0.2426  0.1456  0.3970
 3822SOL    HW113719   6.060   9.154   2.346 -0.9661  0.5161  0.0916
 3822SOL    HW213720   6.035   9.081   2.216  0.4080 -0.4315  0.3357
 3823SOL     OW13721   3.371   8.899  10.601  0.5454  0.0173  0.5195
 3823SOL    HW113722   3.323   8.821  10.627  0.7577  0.3386  1.9367
 3823SOL    HW213723   3.305   8.967  10.592  0.5008 -0.0417  0.3822
 3824SOL     OW13724   4.767   9.225   5.149  0.3701 -0.2306  0.3017
 3824SOL    HW113725   4.736   9.144   5.190 -1.3862  0.1077 -0.2768
 3824SOL    HW213726   4.828   9.262   5.213 -0.7386 -0.7460  1.7106
 3825SOL     OW13727   7.856   0.759   7.956 -0.3696 -0.7148  0.0429
 3825SOL    HW113728   7.805   0.839   7.951  0.2102 -0.3268  0.2056
 3825SOL    HW213729   7.947   0.788   7.954 -0.1458 -1.3987 -0.3838
 3826SOL     OW13730   1.734   3.138   5.570 -0.1580 -0.5971 -0.0934
 3826SOL    HW113731   1.773   3.113   5.487 -0.7500  0.2088 -0.6313
 3826SOL    HW213732   1.692   3.222   5.553 -0.3736 -0.4616  0.9969
 3827SOL     OW13733   1.489   4.615   7.947  0.2256 -0.0486  0.2892
 3827SOL    HW113734   1.574   4.643   7.981  0.3152 -1.1769  1.0410
 3827SOL    HW213735   1.478   4.664   7.866  1.6948 -0.0344  0.0757
 3828SOL     OW13736   5.014   6.514   1.562 -0.0485  0.4298 -0.4646
 3828SOL    HW113737   5.033   6.545   1.650  1.4558 -0.0304 -0.6033
 3828SOL    HW213738   5.012   6.593   1.508  1.1913  0.5339 -0.3760
 3829SOL     OW13739   8.656   2.166   6.232 -0.7284  0.2167  0.0213
 3829SOL    HW113740   8.713   2.196   6.303 -0.9692  1.3897 -0.2584
 3829SOL    HW213741   8.712   2.109   6.180 -0.1709  0.3619  0.4424
 3830SOL     OW13742   0.698   1.464   2.690  0.1238 -0.1880  0.2600
 3830SOL    HW113743   0.749   1.463   2.609  0.9533 -0.8903  0.7767
 3830SOL    HW213744   0.702   1.374   2.723 -2.1502 -0.4919 -0.0916
 3831SOL     OW13745   4.429   7.171   6.434 -0.0490 -0.3341 -0.5506
 3831SOL    HW113746   4.345   7.132   6.411 -0.5350 -1.2232  2.3332
 3831SOL    HW213747   4.490   7.139   6.368 -1.9329  0.3533 -2.7251
 3832SOL     OW13748   1.217   6.796   3.718  0.2779 -0.3063 -0.0288
 3832SOL    HW113749   1.264   6.791   3.801 -0.5864 -0.6050  0.4631
 3832SOL    HW213750   1.211   6.889   3.700  1.5578 -0.2780 -0.4111
 3833SOL     OW13751   2.063   5.897   0.516 -0.0422  0.2303 -0.6189
 3833SOL    HW113752   2.008   5.875   0.592  0.3442  1.6924  0.1101
 3833SOL    HW213753   2.123   5.822   0.508 -0.5897 -0.2908  0.0326
 3834SOL     OW13754   9.006   0.325   7.676  0.4735  0.3473 -0.0801
 3834SOL    HW113755   9.014   0.418   7.697 -0.8182  0.2372  1.0841
 3834SOL    HW213756   9.018   0.320   7.581 -0.3238  1.8268 -0.2933
 3835SOL     OW13757   8.712   1.656   6.081  0.1999  0.4011  0.1668
 3835SOL    HW113758   8.759   1.574   6.068  1.5757  0.8546  1.8783
 3835SOL    HW213759   8.636   1.650   6.023  0.0628 -2.2317  0.5008
 3836SOL     OW13760   2.237   3.289   9.191  0.4353 -0.4655  0.1968
 3836SOL    HW113761   2.241   3.323   9.102  1.2729 -0.9386  0.0486
 3836SOL    HW213762   2.322   3.248   9.206  0.4005 -0.1840  1.3029
 3837SOL     OW13763   1.694   9.764  10.542 -0.0537 -0.1070  0.2386
 3837SOL    HW113764   1.631   9.765  10.470  1.1556  0.6252 -0.8647
 3837SOL    HW213765   1.711   9.857  10.559 -0.3603 -0.2774  1.5253
 3838SOL     OW13766   6.514   3.163   9.502  0.2870 -0.9555  0.3460
 3838SOL    HW113767   6.557   3.114   9.432  1.7895  1.6671 -0.7054
 3838SOL    HW213768   6.422   3.168   9.475  0.0276 -3.2092  0.5888
 3839SOL     OW13769   2.344   4.727  10.592 -0.4445 -0.2218  0.1987
 3839SOL    HW113770   2.404   4.753  10.661 -0.4129 -0.6003  0.3200
 3839SOL    HW213771   2.263   4.774  10.611 -0.4399 -0.3350  0.5062
 3840SOL     OW13772   2.496   3.864   0.254  0.1312 -0.0936  0.1956
 3840SOL    HW113773   2.404   3.838   0.261  0.0892 -0.7456 -1.9870
 3840SOL    HW213774   2.493   3.959   0.240 -0.4520 -0.4402 -2.5298
 3841SOL     OW13775   7.299   8.176   6.555  0.1803 -0.5639  0.2922
 3841SOL    HW113776   7.215   8.143   6.585 -0.4276  0.8213  0.1787
 3841SOL    HW213777   7.286   8.270   6.543  0.6436 -0.8188 -3.3730
 3842SOL     OW13778   1.708   2.743   6.894  0.2411 -0.4674  0.2991
 3842SOL    HW113779   1.671   2.696   6.819 -1.8610 -0.6044  1.3460
 3842SOL    HW213780   1.787   2.694   6.916 -0.9186 -2.5046  0.2447
 3843SOL     OW13781   3.081  10.505   3.190 -0.2300 -0.3722 -0.0838
 3843SOL    HW113782   3.074  10.439   3.259 -0.6232  0.3874  0.6222
 3843SOL    HW213783   3.019  10.476   3.123 -1.0874 -0.2573  0.6308
 3844SOL     OW13784   5.948   1.991   7.875 -0.0912 -0.0772  0.3008
 3844SOL    HW113785   6.028   2.004   7.825 -0.4109 -2.1155 -0.8552
 3844SOL    HW213786   5.974   1.938   7.950  0.0176  1.2225  1.2082
 3845SOL     OW13787   8.787   1.758   6.882 -0.1694 -0.2608  0.2392
 3845SOL    HW113788   8.763   1.671   6.848 -0.7740  0.7461 -2.1093
 3845SOL    HW213789   8.722   1.817   6.844  0.6047  1.3290  1.2971
 3846SOL     OW13790   0.434   6.647  10.597  0.1842 -0.7464  0.1490
 3846SOL    HW113791   0.349   6.605  10.611 -0.0370 -0.1439  0.6808
 3846SOL    HW213792   0.430   6.681  10.508  0.3959 -1.8972 -0.3200
 3847SOL     OW13793   2.850   8.338   9.982  0.3447  0.3893  0.2612
 3847SOL    HW113794   2.826   8.349   9.890 -1.3706 -0.5884  0.5528
 3847SOL    HW213795   2.902   8.416  10.003 -1.1314  1.7551 -0.9421
 3848SOL     OW13796   8.441   4.446   3.645 -0.2669 -0.1510  0.1471
 3848SOL    HW113797   8.521   4.457   3.594 -0.4702  1.1093  0.0638
 3848SOL    HW213798   8.472   4.434   3.735  0.0095  2.0117  0.3795
 3849SOL     OW13799   2.540   6.587   4.315 -0.3188 -0.0824  0.3876
 3849SOL    HW113800   2.496   6.573   4.399 -0.4071  1.1635  0.5640
 3849SOL    HW213801   2.535   6.681   4.300  0.6798 -0.1461 -0.4870
 3850SOL     OW13802   7.655   7.139   6.778  0.3540  0.4312 -0.2846
 3850SOL    HW113803   7.560   7.148   6.787  0.6304  1.7014  2.0984
 3850SOL    HW213804   7.667   7.050   6.745 -1.6316  0.0143 -0.0323
 3851SOL     OW13805   8.857   3.045   6.775  0.0626 -0.2586 -0.2393
 3851SOL    HW113806   8.789   3.052   6.708 -0.1433 -1.1159 -0.1279
 3851SOL    HW213807   8.826   2.977   6.834  0.4284  0.2132  0.5154
 3852SOL     OW13808   8.835   9.182   8.753  0.2165  0.1759  0.3131
 3852SOL    HW113809   8.849   9.262   8.804  0.4469  0.8052 -0.6993
 3852SOL    HW213810   8.749   9.194   8.712 -0.3198 -0.6721  1.1489
 3853SOL     OW13811   4.837   3.597   6.434 -0.0415  0.0370 -0.2110
 3853SOL    HW113812   4.797   3.516   6.468  0.2889 -0.8563 -1.8379
 3853SOL    HW213813   4.831   3.588   6.339  2.1410  0.8197 -0.4790
 3854SOL     OW13814   8.764   5.563   3.175 -1.0374 -0.5327 -0.1068
 3854SOL    HW113815   8.689   5.519   3.136 -0.5876 -0.3586 -1.2086
 3854SOL    HW213816   8.805   5.609   3.102 -0.4415  0.2089  0.6724
 3855SOL     OW13817   2.598   3.247   3.665 -0.1238  0.5210  0.2520
 3855SOL    HW113818   2.543   3.221   3.738 -1.0337  2.1334  0.1906
 3855SOL    HW213819   2.607   3.342   3.674  0.3952  0.6488 -1.2821
 3856SOL     OW13820   8.285   5.234   3.143  0.2072  0.0370 -0.0180
 3856SOL    HW113821   8.220   5.176   3.183  0.1548  0.7956  1.0316
 3856SOL    HW213822   8.234   5.301   3.098  0.2550 -1.1101 -1.9062
 3857SOL     OW13823   9.677   3.612   4.492 -0.2188 -0.3913  0.1025
 3857SOL    HW113824   9.614   3.554   4.449 -0.2289 -1.0876  1.0241
 3857SOL    HW213825   9.729   3.648   4.420 -0.4397 -1.2843 -0.5270
 3858SOL     OW13826   8.259   1.192   8.205  0.4035  0.1385  0.0983
 3858SOL    HW113827   8.267   1.251   8.130 -0.7798  0.0433 -0.1299
 3858SOL    HW213828   8.195   1.236   8.262  1.5408  0.3796  1.2235
 3859SOL     OW13829   3.532   7.227   0.865  0.0498 -0.0339 -0.0686
 3859SOL    HW113830   3.465   7.221   0.933  0.5385 -2.0531  0.3237
 3859SOL    HW213831   3.548   7.321   0.854  0.9703  0.4221  3.7016
 3860SOL     OW13832   8.633   0.374   4.151  0.3530  0.3883  0.3778
 3860SOL    HW113833   8.551   0.327   4.131 -1.7536  3.9392 -0.2088
 3860SOL    HW213834   8.628   0.391   4.245  1.0031 -0.2873  0.5456
 3861SOL     OW13835   8.445  10.613   6.952  0.0446  0.1401 -0.4539
 3861SOL    HW113836   8.525  10.643   6.909 -0.6137  0.1047 -1.7462
 3861SOL    HW213837   8.391  10.579   6.881 -0.5843 -1.0718  0.5682
 3862SOL     OW13838   8.256   8.949   2.916  0.4733  0.1077 -0.8511
 3862SOL    HW113839   8.168   8.916   2.935 -0.3413  0.8759 -3.0181
 3862SOL    HW213840   8.311   8.912   2.985 -1.3031 -1.4911 -0.2185
 3863SOL     OW13841   9.790   1.136   8.656  0.3244  0.3137 -0.3662
 3863SOL    HW113842   9.858   1.076   8.685  0.8703  1.1856  0.1973
 3863SOL    HW213843   9.743   1.159   8.735 -1.4025 -1.1564 -0.8913
 3864SOL     OW13844   1.752   9.957   0.389  0.9156 -0.3732  0.4294
 3864SOL    HW113845   1.768   9.924   0.301  1.4786  2.3819 -0.6266
 3864SOL    HW213846   1.839   9.961   0.429  0.6215 -1.9330  1.2803
 3865SOL     OW13847   2.000  10.333   4.669 -0.0920  0.5360  0.1520
 3865SOL    HW113848   2.068  10.269   4.651 -1.1569 -1.0078  1.3061
 3865SOL    HW213849   2.037  10.390   4.735  0.1219 -0.2857  0.7637
 3866SOL     OW13850   0.938   4.066  10.430 -0.4198  0.1924  0.1645
 3866SOL    HW113851   0.858   4.071  10.378 -0.1330 -1.4645 -0.5046
 3866SOL    HW213852   0.908   4.069  10.521 -1.3063 -0.8782 -0.0738
 3867SOL     OW13853   7.542   8.347   8.054 -0.1981 -0.1168  0.1350
 3867SOL    HW113854   7.484   8.321   8.125  0.1611 -0.3868  0.3336
 3867SOL    HW213855   7.583   8.429   8.085  0.5176 -0.6208  0.5708
 3868SOL     OW13856   4.307   7.516   6.744  0.2138  0.0958 -0.1973
 3868SOL    HW113857   4.243   7.489   6.679 -0.3806  0.5100  0.2110
 3868SOL    HW213858   4.357   7.436   6.763 -0.0198 -0.1675 -0.6910
 3869SOL     OW13859   7.947   9.395   6.286 -0.5753  0.0135  0.2797
 3869SOL    HW113860   7.869   9.444   6.311 -0.4472 -0.5460  1.8472
 3869SOL    HW213861   8.017   9.460   6.286 -1.1381  0.7441 -2.1248
 3870SOL     OW13862   5.078   3.660   6.228  0.4974 -0.0289  0.0412
 3870SOL    HW113863   5.029   3.722   6.282 -0.3851 -0.6358 -0.0336
 3870SOL    HW213864   5.143   3.713   6.183 -0.9686  1.0530 -0.9012
 3871SOL     OW13865   2.131  10.502   1.101  0.5346 -1.0976 -0.7273
 3871SOL    HW113866   2.064  10.570   1.111  1.0702 -0.5265 -0.9854
 3871SOL    HW213867   2.173  10.523   1.017  0.5726 -1.8671 -0.9044
 3872SOL     OW13868   4.012   3.939   9.307 -0.4841 -0.5620 -0.0298
 3872SOL    HW113869   3.946   3.943   9.238 -0.0565 -0.1661 -0.4277
 3872SOL    HW213870   4.088   3.899   9.264 -0.3246 -0.6135  0.3019
 3873SOL     OW13871   1.944   3.090   0.132  0.6725  0.5419 -0.0292
 3873SOL    HW113872   2.015   3.149   0.158  0.6615  0.7219 -0.4051
 3873SOL    HW213873   1.893   3.077   0.211 -1.1727  3.5173 -0.5738
 3874SOL     OW13874   4.501  10.032   4.691 -0.1605 -0.0731 -0.0665
 3874SOL    HW113875   4.536  10.107   4.643  2.1422 -0.7405  0.4560
 3874SOL    HW213876   4.522  10.050   4.783 -1.4577 -0.4167  0.3195
 3875SOL     OW13877   5.642   5.977   3.883 -0.3243 -0.0466  0.0846
 3875SOL    HW113878   5.700   5.927   3.940  1.6610  1.3088 -0.6502
 3875SOL    HW213879   5.591   6.032   3.944 -0.5929 -0.9559  0.7072
 3876SOL     OW13880  10.326   5.641   4.870  0.1981  0.4120 -0.3564
 3876SOL    HW113881  10.232   5.639   4.885  0.0610  2.4148 -0.6260
 3876SOL    HW213882  10.361   5.689   4.946  0.7071  1.5861 -1.2949
 3877SOL     OW13883   1.128   2.826   5.955  0.8903 -0.0253  0.1495
 3877SOL    HW113884   1.200   2.765   5.974  1.2497  0.3738  0.0824
 3877SOL    HW213885   1.165   2.887   5.892 -0.0585 -0.9227 -1.3688
 3878SOL     OW13886   6.584   6.373   6.753  0.7033  0.0961 -0.1765
 3878SOL    HW113887   6.671   6.409   6.764  1.3170 -1.4319  0.2157
 3878SOL    HW213888   6.593   6.280   6.773 -0.7068 -0.3981 -1.5651
 3879SOL     OW13889   6.829  10.027   5.446 -0.0386 -0.1493  0.1397
 3879SOL    HW113890   6.900   9.962   5.442 -0.7462 -0.8720 -1.7288
 3879SOL    HW213891   6.859  10.100   5.393  0.0797  0.3719  0.9106
 3880SOL     OW13892   6.718   1.369   6.276 -0.3838 -0.1693  0.1258
 3880SOL    HW113893   6.768   1.389   6.197  0.0917 -0.1305  0.4284
 3880SOL    HW213894   6.709   1.453   6.321  0.4994 -0.3924  0.7593
 3881SOL     OW13895   1.185   9.589   0.195  0.1579 -0.1753  0.9398
 3881SOL    HW113896   1.115   9.630   0.246 -1.0241  0.4489 -1.0726
 3881SOL    HW213897   1.184   9.497   0.222  0.6972  0.4189  3.1897
 3882SOL     OW13898   9.716   4.719   3.063  0.1840  0.7620 -0.5803
 3882SOL    HW113899   9.706   4.638   3.013  2.0067  0.7835 -1.0363
 3882SOL    HW213900   9.686   4.697   3.151 -0.9158  0.0856 -1.0988
 3883SOL     OW13901  10.172   8.424   6.303  0.4399 -0.2869 -0.0885
 3883SOL    HW113902  10.165   8.518   6.291  0.7862 -0.2137  0.2430
 3883SOL    HW213903  10.085   8.396   6.330  0.4090 -0.0117  0.0990
 3884SOL     OW13904   3.547   9.527   5.628  0.2203  0.4174 -0.6639
 3884SOL    HW113905   3.531   9.528   5.723 -0.1079  0.9111 -0.7216
 3884SOL    HW213906   3.552   9.434   5.606 -3.4798  0.0966 -0.7884
 3885SOL     OW13907   3.151   4.663   3.857 -0.1749 -0.2331  0.1061
 3885SOL    HW113908   3.099   4.742   3.874  1.7983  1.0230  0.6367
 3885SOL    HW213909   3.172   4.669   3.764 -1.2453 -0.9514 -0.2029
 3886SOL     OW13910   8.356  10.485   4.310 -0.0819 -0.0198  0.2914
 3886SOL    HW113911   8.423  10.530   4.259  0.4565 -1.9216 -0.8142
 3886SOL    HW213912   8.332  10.409   4.256 -3.2429  0.6419  0.5847
 3887SOL     OW13913   1.217   9.856   3.505  0.1382 -0.4106 -0.6572
 3887SOL    HW113914   1.125   9.836   3.490  0.1339  0.1207 -1.3930
 3887SOL    HW213915   1.264   9.779   3.473 -0.0919 -1.1227  0.6735
 3888SOL     OW13916   4.716   0.005   2.866 -0.0549 -0.6526  0.5538
 3888SOL    HW113917   4.657  -0.064   2.895  1.2329 -1.1344  2.1695
 3888SOL    HW213918   4.722   0.065   2.941 -1.3642  1.4356 -0.8993
 3889SOL     OW13919   8.539   2.075   3.310 -0.3653 -0.5614 -0.3967
 3889SOL    HW113920   8.568   2.138   3.376 -0.1936 -0.8191 -0.2208
 3889SOL    HW213921   8.553   2.119   3.226 -0.1278 -0.4163 -0.2819
 3890SOL     OW13922   9.783   3.903  10.086 -0.6665  0.2762 -0.0036
 3890SOL    HW113923   9.840   3.930  10.158 -1.2040  1.0558  0.1401
 3890SOL    HW213924   9.721   3.843  10.125 -0.3594 -0.0609 -0.0256
 3891SOL     OW13925   0.378   2.893   3.914 -0.0687  0.0845  0.2115
 3891SOL    HW113926   0.377   2.898   3.818 -1.7505  2.1579  0.2560
 3891SOL    HW213927   0.471   2.899   3.937  0.2552  3.2847 -1.2680
 3892SOL     OW13928   7.404   3.085   1.200  0.0054 -0.1410 -0.0668
 3892SOL    HW113929   7.312   3.106   1.216  0.5068  1.8197  0.4581
 3892SOL    HW213930   7.407   3.059   1.108 -1.2001 -1.1001  0.1478
 3893SOL     OW13931   7.161   6.957   0.225  0.4334  0.3135  0.2399
 3893SOL    HW113932   7.209   6.961   0.308 -2.3531  0.1083  1.9510
 3893SOL    HW213933   7.178   6.869   0.192  0.9953  0.1510  0.9264
 3894SOL     OW13934   9.745   6.665   7.899 -0.1840 -0.1682 -0.3228
 3894SOL    HW113935   9.749   6.741   7.958  0.8662  1.1718 -2.0211
 3894SOL    HW213936   9.703   6.597   7.951  1.3140  0.6980  2.2461
 3895SOL     OW13937   7.525   1.381   9.244  0.6986 -0.2455 -0.4174
 3895SOL    HW113938   7.459   1.442   9.212  1.7499 -0.1636 -2.6474
 3895SOL    HW213939   7.484   1.337   9.318 -1.8515 -0.1883 -1.6902
 3896SOL     OW13940   9.002   2.263   1.346  0.2938  0.6005  0.2418
 3896SOL    HW113941   9.080   2.264   1.290 -0.1775  1.8091 -0.4507
 3896SOL    HW213942   8.933   2.302   1.291 -0.8226 -0.5198  0.8078
 3897SOL     OW13943   5.644   9.198   4.778  0.2139  0.2474 -0.4191
 3897SOL    HW113944   5.685   9.114   4.798  1.3176  0.9194  0.1938
 3897SOL    HW213945   5.561   9.196   4.826 -0.3627 -0.9964 -1.4220
 3898SOL     OW13946   7.808   4.503   2.304 -0.0388  0.2082  0.0440
 3898SOL    HW113947   7.892   4.476   2.266  0.1287  1.8867 -0.8638
 3898SOL    HW213948   7.756   4.422   2.305  0.7961 -0.3983 -1.5454
 3899SOL     OW13949   8.773   1.902   9.989  0.1637 -0.1514  0.6356
 3899SOL    HW113950   8.847   1.925   9.934 -0.0470  2.0506  1.2036
 3899SOL    HW213951   8.792   1.942  10.074 -0.6991 -1.3587  1.4389
 3900SOL     OW13952   6.513   9.179   8.797  0.5062  0.2262 -0.0530
 3900SOL    HW113953   6.499   9.228   8.716 -0.9813 -0.5197 -0.2874
 3900SOL    HW213954   6.521   9.247   8.864 -0.3534  0.8328 -0.5392
 3901SOL     OW13955   0.008   9.962   0.025  0.7194  0.0774 -0.0022
 3901SOL    HW113956   0.072   9.897  -0.003 -0.7404 -1.4154  0.0042
 3901SOL    HW213957   0.058  10.025   0.077  2.1167 -1.1638  0.1921
 3902SOL     OW13958   2.039   6.914   3.803 -0.6149 -0.4320 -0.1019
 3902SOL    HW113959   2.074   6.828   3.779 -0.3708 -0.6976  1.1478
 3902SOL    HW213960   2.018   6.907   3.896 -0.0586  1.0293  0.1711
 3903SOL     OW13961   1.045  10.472   5.607  0.1094  0.5017 -0.2050
 3903SOL    HW113962   1.094  10.427   5.539  0.2614  2.2815 -1.3604
 3903SOL    HW213963   0.979  10.523   5.559 -1.4379 -0.1253  1.1633
 3904SOL     OW13964   4.113  10.616   0.438  0.1327  0.1977  0.3368
 3904SOL    HW113965   4.078  10.566   0.364  0.9669 -1.5562  1.0669
 3904SOL    HW213966   4.148  10.696   0.399 -1.3141  0.2863 -0.8695
 3905SOL     OW13967   8.074   2.928   8.480 -0.4314  0.1801  0.3027
 3905SOL    HW113968   8.165   2.924   8.451 -0.0556 -3.7705  1.3380
 3905SOL    HW213969   8.023   2.934   8.400  0.7129  0.2365 -0.4416
 3906SOL     OW13970  10.306   0.766   9.750 -0.1809  0.0760 -0.2446
 3906SOL    HW113971  10.370   0.760   9.821  2.1124  0.5667 -2.1713
 3906SOL    HW213972  10.311   0.681   9.706 -0.6390  0.2196 -0.5778
 3907SOL     OW13973   1.628   9.576   7.200  0.2869  0.1500 -0.1279
 3907SOL    HW113974   1.576   9.607   7.274  2.3321  2.3443  0.5122
 3907SOL    HW213975   1.563   9.558   7.132 -1.5763 -0.8560  1.7764
 3908SOL     OW13976  10.353   4.935   6.650 -0.1440 -0.2841  0.2130
 3908SOL    HW113977  10.412   4.995   6.604  0.4615 -1.0166  0.0118
 3908SOL    HW213978  10.314   4.988   6.720  0.5524  0.2849  0.1821
 3909SOL     OW13979   9.380   0.951   9.267  0.0871 -0.2224  0.1671
 3909SOL    HW113980   9.286   0.967   9.255 -0.0415 -0.6921  0.5175
 3909SOL    HW213981   9.386   0.857   9.285  0.5557 -0.0779  0.7982
 3910SOL     OW13982   2.015   5.523   5.144  0.2461 -0.0663 -0.7036
 3910SOL    HW113983   1.969   5.459   5.198  1.1055 -0.1588 -0.0622
 3910SOL    HW213984   2.102   5.529   5.183  0.4567  0.8471 -1.2896
 3911SOL     OW13985   8.264   7.524   1.535  0.0076  0.0486  0.7144
 3911SOL    HW113986   8.219   7.581   1.597 -1.0980 -0.3124  0.2780
 3911SOL    HW213987   8.322   7.470   1.589 -1.8575 -1.1579  1.6555
 3912SOL     OW13988   4.088   9.659   5.249  0.3946  0.0497 -0.2310
 3912SOL    HW113989   4.153   9.620   5.307 -1.7870 -2.3463  0.8357
 3912SOL    HW213990   4.130   9.661   5.163  3.4482  2.9640  1.0889
 3913SOL     OW13991   4.609   6.919   7.124  0.4462  0.4799 -0.1410
 3913SOL    HW113992   4.676   6.963   7.072  0.0810 -0.5833 -1.5772
 3913SOL    HW213993   4.528   6.935   7.076  0.1737 -0.9243 -0.2061
 3914SOL     OW13994   0.767   7.764   2.744  0.1000  0.2779 -0.3259
 3914SOL    HW113995   0.847   7.803   2.780  0.7719 -1.2114 -0.1473
 3914SOL    HW213996   0.789   7.746   2.652 -0.6321  1.4248 -0.7487
 3915SOL     OW13997   9.592   1.491   5.678 -0.1386  0.2489  0.1712
 3915SOL    HW113998   9.498   1.482   5.693 -0.5094  1.5000 -1.1445
 3915SOL    HW213999   9.613   1.577   5.715  0.5345 -0.0779  0.5666
 3916SOL     OW14000   7.552   4.750   9.200 -0.0249 -0.3450 -0.1667
 3916SOL    HW114001   7.641   4.746   9.165 -0.0265 -0.0709 -0.2067
 3916SOL    HW214002   7.542   4.670   9.252 -0.7269 -1.8087 -2.4210
 3917SOL     OW14003   2.200   1.561   1.438  0.3631  0.1601 -0.1314
 3917SOL    HW114004   2.143   1.630   1.405  1.1149  0.0141 -1.8617
 3917SOL    HW214005   2.174   1.483   1.389 -0.0027 -0.6527  1.2900
 3918SOL     OW14006   5.578   4.240   1.155  0.0931 -0.1057 -0.6432
 3918SOL    HW114007   5.631   4.237   1.234 -0.0480 -0.5322 -0.5595
 3918SOL    HW214008   5.528   4.157   1.156  0.8421 -0.5963 -1.6936
 3919SOL     OW14009   2.629   2.463   4.496  0.2963 -0.1181  0.2981
 3919SOL    HW114010   2.556   2.517   4.468 -0.8082 -1.2604  0.8798
 3919SOL    HW214011   2.645   2.403   4.422  0.8504  0.3248  0.0532
 3920SOL     OW14012   4.211   2.814   6.137 -0.2094 -0.1046  0.0027
 3920SOL    HW114013   4.278   2.772   6.191 -1.1209  1.1507  2.2758
 3920SOL    HW214014   4.128   2.784   6.174 -0.8746  1.2976 -0.2801
 3921SOL     OW14015   4.066   3.467   3.195  0.3123  0.0907  0.4267
 3921SOL    HW114016   4.038   3.559   3.193 -0.2922 -0.0980 -1.2122
 3921SOL    HW214017   4.029   3.433   3.277  1.0850  1.4350  1.3843
 3922SOL     OW14018   0.016   9.000   4.862 -0.4464  0.1313 -0.0627
 3922SOL    HW114019  -0.006   9.070   4.924  0.4154 -0.9643  1.5498
 3922SOL    HW214020   0.079   9.040   4.802 -1.7309  1.3804 -0.6443
 3923SOL     OW14021   7.726   6.485   4.219 -0.0442 -0.1290  0.2103
 3923SOL    HW114022   7.772   6.420   4.165 -0.8779 -1.1446  0.6898
 3923SOL    HW214023   7.676   6.433   4.282 -1.9189  0.9209 -0.3474
 3924SOL     OW14024   2.222   5.503   1.019 -0.3253 -0.1636 -0.0716
 3924SOL    HW114025   2.289   5.534   0.957  0.5053  0.3928  1.0704
 3924SOL    HW214026   2.266   5.436   1.070 -0.1665  1.1436  1.6041
 3925SOL     OW14027   6.260   7.633   7.698  0.3544 -0.1174 -0.5581
 3925SOL    HW114028   6.171   7.668   7.702  0.6559  0.6406  3.3904
 3925SOL    HW214029   6.304   7.671   7.774  3.3305 -2.4012 -0.9770
 3926SOL     OW14030   7.600   3.494  10.347 -0.0294 -0.3194  0.1724
 3926SOL    HW114031   7.518   3.474  10.301 -0.7696  0.6289  1.0214
 3926SOL    HW214032   7.642   3.409  10.360 -1.0158 -0.8562 -0.0255
 3927SOL     OW14033   2.104   0.745  10.105  0.0044  0.3013 -0.0425
 3927SOL    HW114034   2.089   0.770  10.014 -0.7044  1.3166  0.3269
 3927SOL    HW214035   2.199   0.739  10.114  0.1375  1.4350 -0.5468
 3928SOL     OW14036   3.681   3.078   9.103 -0.2976 -0.5506 -0.0916
 3928SOL    HW114037   3.716   3.115   9.184 -0.6055 -0.0198 -0.1959
 3928SOL    HW214038   3.750   3.020   9.071 -0.9022 -2.2806  1.5508
 3929SOL     OW14039   8.924   8.152   9.588 -0.1319 -0.3064 -0.3456
 3929SOL    HW114040   8.927   8.080   9.525  0.9099 -1.4380  0.9313
 3929SOL    HW214041   8.831   8.168   9.603 -0.3851 -0.4381 -1.6695
 3930SOL     OW14042   3.364   0.708   0.865  1.1038 -0.2170 -0.1451
 3930SOL    HW114043   3.348   0.679   0.955  0.9985 -0.8311 -0.3611
 3930SOL    HW214044   3.298   0.663   0.813  0.3390  1.1058 -0.3729
 3931SOL     OW14045  10.579   2.727   1.594 -0.1832 -0.3904 -0.0021
 3931SOL    HW114046  10.556   2.674   1.669 -1.4347 -1.8354 -1.3502
 3931SOL    HW214047  10.636   2.671   1.541 -0.1124  0.2468 -0.6211
 3932SOL     OW14048   0.708   9.085   6.809 -0.0918 -0.3069 -0.1492
 3932SOL    HW114049   0.750   9.146   6.748  0.2877  0.8509  1.2390
 3932SOL    HW214050   0.615   9.089   6.786  0.0054  0.3431 -0.4557
 3933SOL     OW14051   7.030   3.423   1.876  0.2244 -0.3192  0.4578
 3933SOL    HW114052   7.033   3.474   1.796 -2.4327 -1.1806 -0.3025
 3933SOL    HW214053   7.070   3.339   1.854  3.5243  0.8464  1.3861
 3934SOL     OW14054  10.031   7.366   4.941 -0.2138  0.2290 -0.1279
 3934SOL    HW114055  10.001   7.359   4.850 -1.5316 -0.6601  0.3441
 3934SOL    HW214056  10.092   7.439   4.940 -0.2599  0.2901 -1.7189
 3935SOL     OW14057   8.952   3.741   1.089  0.0616 -0.0912 -0.1923
 3935SOL    HW114058   8.900   3.778   1.018 -1.8809 -0.2534  1.0660
 3935SOL    HW214059   8.923   3.650   1.096 -2.6415  0.8132  3.1200
 3936SOL     OW14060   2.834   6.314   8.439 -0.1254  0.1587 -0.0768
 3936SOL    HW114061   2.883   6.343   8.515  0.8260 -0.3980 -0.4642
 3936SOL    HW214062   2.791   6.233   8.468 -1.9329  1.3285  0.6755
 3937SOL     OW14063   3.774   1.982   7.378  0.1925  0.1407  0.3724
 3937SOL    HW114064   3.816   1.982   7.464  0.5476  0.3216  0.2023
 3937SOL    HW214065   3.766   2.075   7.355  1.5086  0.0669 -0.4670
 3938SOL     OW14066   5.323   7.143   3.132 -0.4415 -0.0934 -0.3820
 3938SOL    HW114067   5.344   7.060   3.177 -0.3922  0.2178  0.1800
 3938SOL    HW214068   5.300   7.203   3.203  1.3228  0.9299 -0.5966
 3939SOL     OW14069   9.115   9.571   0.526 -0.3328 -0.6678  0.2414
 3939SOL    HW114070   9.031   9.558   0.481 -0.1233 -0.7308 -0.1405
 3939SOL    HW214071   9.101   9.538   0.614 -0.4753 -1.4273 -0.0578
 3940SOL     OW14072   7.601   7.744   5.827  0.1155 -0.1646 -0.9142
 3940SOL    HW114073   7.547   7.674   5.789  2.3337 -2.2258 -0.4859
 3940SOL    HW214074   7.616   7.716   5.917  1.1516  0.8167 -0.7701
 3941SOL     OW14075  10.026   6.185   6.495  0.5271 -0.2791  0.3921
 3941SOL    HW114076   9.993   6.130   6.424 -0.6645  0.0306  0.6902
 3941SOL    HW214077   9.962   6.176   6.565  0.1269  1.7317  0.3277
 3942SOL     OW14078   5.889   7.622   5.099  0.2312  0.0877 -0.0426
 3942SOL    HW114079   5.810   7.572   5.121 -0.6796  0.2378 -2.6391
 3942SOL    HW214080   5.940   7.563   5.043  1.4880  0.3810  0.7561
 3943SOL     OW14081   6.930  10.585   2.990 -0.9288 -0.1231  0.6411
 3943SOL    HW114082   6.986  10.654   3.026 -1.6123  0.2131  1.0785
 3943SOL    HW214083   6.872  10.630   2.929  0.0434 -0.6514 -0.7244
 3944SOL     OW14084   9.692  10.370   3.608 -0.3040  0.6011 -0.0813
 3944SOL    HW114085   9.725  10.307   3.673 -2.1074  0.2262  0.5441
 3944SOL    HW214086   9.714  10.331   3.524 -0.4136 -0.3471  0.3097
 3945SOL     OW14087   9.281   6.562   1.863  0.4912  0.0214 -0.1581
 3945SOL    HW114088   9.231   6.532   1.788  0.5579 -0.2271 -0.1058
 3945SOL    HW214089   9.364   6.593   1.827 -0.1042  1.4429 -0.3617
 3946SOL     OW14090   5.454   7.760   4.768  0.1007 -0.4481 -0.4011
 3946SOL    HW114091   5.466   7.706   4.690  0.3441  0.6057 -1.1159
 3946SOL    HW214092   5.448   7.850   4.735  1.1356  0.1329  0.8602
 3947SOL     OW14093   5.096   5.811   3.669 -0.4356  0.1968  0.0091
 3947SOL    HW114094   5.127   5.855   3.748  0.6719  1.2377 -0.9651
 3947SOL    HW214095   5.130   5.722   3.676 -0.5989  0.1940  0.8333
 3948SOL     OW14096  10.576   8.769   7.210 -0.4291  0.2919  0.0795
 3948SOL    HW114097  10.589   8.674   7.204 -1.4994  0.1007  0.5301
 3948SOL    HW214098  10.604   8.803   7.125 -0.4119 -0.4781 -0.2260
 3949SOL     OW14099   0.080   0.119   7.672  0.0705 -0.0721  0.3083
 3949SOL    HW114100   0.010   0.179   7.698 -0.1561 -0.4526  0.5906
 3949SOL    HW214101   0.079   0.121   7.576  0.3744  0.7259  0.3125
 3950SOL     OW14102   3.333  10.080   2.817 -0.0695 -0.2692  0.5317
 3950SOL    HW114103   3.270  10.022   2.775  0.7078  1.6098 -3.8888
 3950SOL    HW214104   3.401  10.022   2.850 -0.2585 -2.0835 -1.9407
 3951SOL     OW14105   2.044   8.888   2.263 -0.4586  0.1233  0.1257
 3951SOL    HW114106   2.005   8.925   2.183 -0.7490 -1.7423 -0.6667
 3951SOL    HW214107   1.979   8.823   2.292 -0.5704  1.0959  2.1812
 3952SOL     OW14108   0.145  10.360   5.675 -0.1342 -0.1914  0.4123
 3952SOL    HW114109   0.119  10.330   5.588 -1.0501  0.7716  0.3330
 3952SOL    HW214110   0.062  10.371   5.722  0.3210 -0.1839  1.2311
 3953SOL     OW14111   0.737   9.395   0.903  0.0534 -0.0765  0.1426
 3953SOL    HW114112   0.685   9.340   0.962  1.1642 -1.0915  0.2332
 3953SOL    HW214113   0.748   9.478   0.950  0.0087 -0.4890  0.9022
 3954SOL     OW14114   8.004   7.542   2.849 -0.1505  0.0667 -0.2808
 3954SOL    HW114115   8.018   7.583   2.934 -1.3713  1.0202 -0.5098
 3954SOL    HW214116   7.921   7.578   2.818  0.6102  0.2910 -2.1949
 3955SOL     OW14117   3.568   3.663   6.032 -0.1806  0.2575 -0.1645
 3955SOL    HW114118   3.602   3.736   6.083 -2.0262  0.0576  1.4600
 3955SOL    HW214119   3.596   3.585   6.080 -1.6788  0.0594  0.4464
 3956SOL     OW14120   1.040   4.922   0.900 -0.2618 -0.5626 -0.2271
 3956SOL    HW114121   0.981   4.850   0.921  1.1957 -1.5340  0.6647
 3956SOL    HW214122   1.107   4.919   0.968 -0.2487  1.7565 -0.0654
 3957SOL     OW14123   8.596   6.802   6.975 -0.1143 -0.0373  0.2309
 3957SOL    HW114124   8.681   6.762   6.956 -0.1477  0.1617 -0.3673
 3957SOL    HW214125   8.548   6.735   7.022  0.7900  0.2519  1.6233
 3958SOL     OW14126   7.375   8.820   8.905  0.4127  0.0414 -0.1596
 3958SOL    HW114127   7.346   8.780   8.823  0.7460 -1.1036  0.2593
 3958SOL    HW214128   7.466   8.842   8.890  0.5645 -0.4657  0.0050
 3959SOL     OW14129   3.735   4.690   8.629  0.5380 -0.2184  0.2928
 3959SOL    HW114130   3.712   4.747   8.702  1.1367  1.0344 -0.4799
 3959SOL    HW214131   3.687   4.608   8.647  0.0462  0.3441  1.6529
 3960SOL     OW14132   5.734   1.099   3.557  0.2298 -0.4084  0.2054
 3960SOL    HW114133   5.641   1.113   3.577 -0.1432 -1.4902 -0.7368
 3960SOL    HW214134   5.777   1.109   3.642 -0.6666  0.6277  0.5754
 3961SOL     OW14135   3.944  10.253   1.436  0.0675  0.4068 -0.6384
 3961SOL    HW114136   3.881  10.194   1.477 -1.1736  0.5568 -2.2308
 3961SOL    HW214137   3.976  10.204   1.360  0.0032  1.2831 -1.2425
 3962SOL     OW14138   5.418   9.481   2.750  0.5824 -0.2364  0.0492
 3962SOL    HW114139   5.446   9.465   2.660  1.1552 -2.8635  0.6309
 3962SOL    HW214140   5.496   9.517   2.793  0.6301 -0.0067 -0.2279
 3963SOL     OW14141   1.326   8.621  10.414  0.0566 -0.1594 -0.3338
 3963SOL    HW114142   1.381   8.628  10.336  0.7175  0.2759  0.1673
 3963SOL    HW214143   1.245   8.580  10.382 -0.0645  0.8874 -1.4428
 3964SOL     OW14144   3.057   3.555   1.065 -0.5199 -0.0389 -0.3546
 3964SOL    HW114145   3.083   3.482   1.122  1.4983  0.6292 -0.3500
 3964SOL    HW214146   2.962   3.562   1.078 -0.4066 -1.1083  1.4836
 3965SOL     OW14147   3.786   2.908  10.106  0.6050 -0.1847 -0.3613
 3965SOL    HW114148   3.802   2.842  10.039 -0.8880 -1.4373  0.4485
 3965SOL    HW214149   3.762   2.986  10.058  2.0781 -0.2844 -1.3270
 3966SOL     OW14150   3.381   0.389   9.945  0.1219  0.0925  0.1404
 3966SOL    HW114151   3.344   0.471   9.913 -2.8065 -0.2167  2.2849
 3966SOL    HW214152   3.438   0.414  10.017 -0.8596  0.2647  0.8672
 3967SOL     OW14153   0.698   8.574  10.460  0.2494  1.2104 -0.2293
 3967SOL    HW114154   0.651   8.588  10.378  0.3039 -0.2015 -0.5174
 3967SOL    HW214155   0.747   8.493  10.447  1.0581  1.4936  0.8440
 3968SOL     OW14156   4.518   3.960  10.380 -0.3917 -0.0191  0.5230
 3968SOL    HW114157   4.588   3.959  10.316  0.6531  1.9155  1.5432
 3968SOL    HW214158   4.520   4.048  10.418 -3.3494  0.1279  0.6365
 3969SOL     OW14159   1.153   5.834   2.171  0.0284 -0.5263  0.3118
 3969SOL    HW114160   1.212   5.817   2.245  0.8741 -2.2078 -0.6826
 3969SOL    HW214161   1.205   5.887   2.110  0.5226 -1.9228 -0.5204
 3970SOL     OW14162   1.249   6.823   8.942 -0.3487 -0.1805  0.1619
 3970SOL    HW114163   1.275   6.733   8.960 -0.7080 -0.1414  0.9203
 3970SOL    HW214164   1.296   6.846   8.862 -0.6579 -1.2146 -0.3412
 3971SOL     OW14165   2.876   0.852   4.726  0.1568  0.0332  0.3275
 3971SOL    HW114166   2.907   0.853   4.635 -1.3417 -0.5028 -0.2226
 3971SOL    HW214167   2.944   0.804   4.773 -0.0052 -1.5115 -0.9154
 3972SOL     OW14168   5.485   4.134   7.756  0.4251 -0.2909  0.1059
 3972SOL    HW114169   5.448   4.184   7.684 -0.5619  0.9914  1.4301
 3972SOL    HW214170   5.580   4.143   7.746  0.3407 -0.9443 -1.5426
 3973SOL     OW14171   9.040   3.365   9.685 -0.9359  0.3079  0.5126
 3973SOL    HW114172   9.002   3.279   9.704 -0.3574  0.0662  0.5856
 3973SOL    HW214173   9.131   3.357   9.711 -0.8338  0.8868  0.3341
 3974SOL     OW14174   2.834   8.426   4.561  0.1235  0.1592  0.2266
 3974SOL    HW114175   2.792   8.373   4.493  0.8067  0.8440 -0.7626
 3974SOL    HW214176   2.898   8.367   4.601  2.3272  0.6845 -2.2202
 3975SOL     OW14177   3.348   0.693   3.277  0.1588  0.2812  0.3830
 3975SOL    HW114178   3.289   0.660   3.210 -0.1874 -1.0115  1.2933
 3975SOL    HW214179   3.363   0.784   3.252 -0.7743  0.1271 -0.8637
 3976SOL     OW14180   5.685   8.223   3.220 -0.0328  0.6410 -0.7135
 3976SOL    HW114181   5.764   8.231   3.167  0.1941  2.0807 -0.2177
 3976SOL    HW214182   5.716   8.226   3.311 -0.5572  0.0341 -0.5077
 3977SOL     OW14183   2.865   9.008   7.830  0.8836  0.2294  0.8750
 3977SOL    HW114184   2.952   9.045   7.813 -0.0346  2.3731  0.5264
 3977SOL    HW214185   2.811   9.039   7.757 -0.5374  0.2210  1.8873
 3978SOL     OW14186   9.667   2.526   4.014 -0.2460  0.0873  0.0377
 3978SOL    HW114187   9.756   2.539   4.046 -1.0821  0.2109  2.5161
 3978SOL    HW214188   9.651   2.432   4.023 -1.0461  0.3473  1.6780
 3979SOL     OW14189   4.320   4.588   7.333 -0.0220  0.3941  0.8014
 3979SOL    HW114190   4.349   4.525   7.399  0.4124 -0.1487  0.1033
 3979SOL    HW214191   4.285   4.661   7.384 -0.8420 -0.5420  1.6191
 3980SOL     OW14192   3.646   8.048   1.054 -0.7591  0.7370  0.9461
 3980SOL    HW114193   3.720   8.099   1.023  2.1677 -4.1105 -1.2457
 3980SOL    HW214194   3.684   7.981   1.111 -3.6380 -1.0667  0.9728
 3981SOL     OW14195   6.091   3.573   4.729  0.5859  0.0380  0.0091
 3981SOL    HW114196   6.007   3.590   4.687  0.7706  0.5852 -0.1514
 3981SOL    HW214197   6.069   3.521   4.807  0.1910 -0.5264 -0.4752
 3982SOL     OW14198   7.264   9.838   6.067  0.0845 -0.4480  0.6495
 3982SOL    HW114199   7.199   9.786   6.115 -0.6218  0.5648  0.8189
 3982SOL    HW214200   7.302   9.895   6.134  0.9620 -0.8313  0.4941
 3983SOL     OW14201  10.151   5.542   8.349 -0.2106  0.3519 -0.0424
 3983SOL    HW114202  10.219   5.603   8.377 -1.6267  1.9396  0.1250
 3983SOL    HW214203  10.072   5.571   8.395 -0.6224 -2.6539  1.3375
 3984SOL     OW14204   6.969   5.101   1.307  0.0124 -0.4532  0.2472
 3984SOL    HW114205   6.909   5.027   1.311  0.9159 -1.3723 -1.8737
 3984SOL    HW214206   7.005   5.107   1.396 -1.1778 -1.5676  0.8466
 3985SOL     OW14207   2.505   9.120   8.766 -0.1302 -0.2698 -0.2386
 3985SOL    HW114208   2.580   9.062   8.754  1.4104  1.4311  0.7197
 3985SOL    HW214209   2.430   9.061   8.776  1.3988 -2.0926  1.0592
 3986SOL     OW14210  10.429   9.605   5.057  0.7586 -0.2651  0.1182
 3986SOL    HW114211  10.510   9.655   5.057  1.6563 -1.6170  1.3818
 3986SOL    HW214212  10.386   9.630   5.139 -0.1152  0.4269 -0.5332
 3987SOL     OW14213  10.549   5.226   6.277  0.2106  0.2074 -0.0127
 3987SOL    HW114214  10.510   5.221   6.190  0.5625 -1.4215 -0.1145
 3987SOL    HW214215  10.643   5.220   6.262  0.4368  2.3055  0.3516
 3988SOL     OW14216   0.058   9.470   4.859  0.7979 -0.0259 -0.1812
 3988SOL    HW114217   0.127   9.513   4.809 -0.0450  1.4269 -0.1532
 3988SOL    HW214218  -0.020   9.522   4.842 -0.0294 -0.9169  0.7432
 3989SOL     OW14219   7.100   7.835   6.932 -0.1899 -0.3870 -0.2771
 3989SOL    HW114220   7.191   7.860   6.922 -0.4454  0.5808 -0.2864
 3989SOL    HW214221   7.101   7.739   6.930  1.0661 -0.4764  1.8094
 3990SOL     OW14222   0.550   3.916   8.472 -0.1742 -0.1046  0.8703
 3990SOL    HW114223   0.499   3.844   8.435 -1.5388  1.7672 -1.1185
 3990SOL    HW214224   0.640   3.884   8.473 -0.6808 -1.6638 -0.3690
 3991SOL     OW14225   6.186   1.544   6.617 -0.5049 -0.3811  0.0743
 3991SOL    HW114226   6.193   1.468   6.559  2.7293 -0.3215  0.1850
 3991SOL    HW214227   6.232   1.614   6.570  0.2327  0.2930  1.7070
 3992SOL     OW14228   5.928   2.150   5.891 -0.1840 -0.3790  0.4298
 3992SOL    HW114229   5.917   2.063   5.853 -0.3668  0.0616 -0.5475
 3992SOL    HW214230   6.009   2.144   5.942 -1.5812 -1.8859  2.6470
 3993SOL     OW14231  10.076   1.594   2.921 -0.4590  0.0487  0.1757
 3993SOL    HW114232  10.079   1.508   2.965  0.5988 -0.5115 -0.9354
 3993SOL    HW214233  10.148   1.643   2.960 -1.3999  0.6660  1.2055
 3994SOL     OW14234   1.375   0.451   3.952  0.1296 -0.3320 -0.4666
 3994SOL    HW114235   1.333   0.511   3.891 -0.1195 -0.7338 -0.6948
 3994SOL    HW214236   1.324   0.458   4.033 -0.1874 -0.5834 -0.6419
 3995SOL     OW14237   7.424   0.526   4.680  0.1274  0.4420  0.2769
 3995SOL    HW114238   7.340   0.570   4.676 -0.8485 -1.3674 -0.8463
 3995SOL    HW214239   7.416   0.464   4.753  0.0939 -0.3876 -0.4051
 3996SOL     OW14240   2.322   6.925   8.163 -0.5133  0.0916  0.1819
 3996SOL    HW114241   2.367   6.882   8.091  1.8805 -1.5721  2.4923
 3996SOL    HW214242   2.301   6.854   8.224  0.0701  1.6997  2.3790
 3997SOL     OW14243   5.170   9.404   4.951  0.1477 -0.1831  0.2916
 3997SOL    HW114244   5.175   9.494   4.985  0.3650  0.7645 -2.0417
 3997SOL    HW214245   5.077   9.389   4.936  0.0155 -0.7319  1.5164
 3998SOL     OW14246   3.523   2.054   2.001 -0.3177  0.0689  0.0287
 3998SOL    HW114247   3.580   2.130   2.011  0.7726 -0.8447  0.9771
 3998SOL    HW214248   3.508   2.048   1.907  2.5295 -0.6153 -0.4637
 3999SOL     OW14249   8.417   3.708   3.480  0.6617 -0.1275  0.0431
 3999SOL    HW114250   8.507   3.738   3.494  0.6271 -0.5670  1.3386
 3999SOL    HW214251   8.392   3.668   3.563 -0.8992  0.4041 -0.1397
 4000SOL     OW14252   2.063   0.874   4.102 -0.2934  0.3863  0.4244
 4000SOL    HW114253   2.124   0.924   4.156  1.4619  2.0580 -2.7995
 4000SOL    HW214254   1.988   0.932   4.090 -0.3305  0.3381  0.4236
 4001SOL     OW14255   4.209   4.124   0.903 -0.1201 -0.3812  0.4688
 4001SOL    HW114256   4.180   4.165   0.822  0.0075 -0.7400  0.2421
 4001SOL    HW214257   4.129   4.118   0.957 -0.4010 -1.0299 -0.0084
 4002SOL     OW14258   1.203   3.349   3.185 -0.0081 -0.3246 -0.0433
 4002SOL    HW114259   1.111   3.367   3.205  0.1136 -0.6498  0.8485
 4002SOL    HW214260   1.208   3.254   3.180  0.4008 -0.3399  0.5663
 4003SOL     OW14261   8.662   3.759   3.599 -0.3478  0.0409 -0.1838
 4003SOL    HW114262   8.660   3.852   3.624  0.3851  0.2185 -0.7616
 4003SOL    HW214263   8.704   3.758   3.513 -0.6925 -0.7943 -0.3502
 4004SOL     OW14264   0.180   0.625   5.323  0.1387  0.8951 -0.5108
 4004SOL    HW114265   0.113   0.616   5.391  1.4945 -0.3923  0.6974
 4004SOL    HW214266   0.260   0.647   5.370  0.9668  0.6965 -1.7750
 4005SOL     OW14267  10.335   6.205   2.426  0.4540  0.1857  0.2764
 4005SOL    HW114268  10.388   6.177   2.351  1.2070  1.2329  0.3931
 4005SOL    HW214269  10.265   6.258   2.387  1.4099  1.5538  0.3639
 4006SOL     OW14270   9.350   0.488  10.552  0.6283  0.5178 -0.6322
 4006SOL    HW114271   9.439   0.522  10.563  1.2534 -0.6907 -1.7786
 4006SOL    HW214272   9.353   0.401  10.591 -0.2958  0.7951  0.0799
 4007SOL     OW14273   9.241   6.274   3.331  0.3596 -0.6469 -0.5062
 4007SOL    HW114274   9.164   6.255   3.384  0.0558 -0.2758 -0.8029
 4007SOL    HW214275   9.214   6.346   3.274  1.1456 -0.0248 -0.1161
 4008SOL     OW14276   9.602   5.831   2.337 -0.0932  0.4055 -0.4349
 4008SOL    HW114277   9.510   5.819   2.315 -0.0188 -0.1368 -0.4602
 4008SOL    HW214278   9.601   5.895   2.409 -0.3493  2.1004 -1.8570
 4009SOL     OW14279  10.384   3.091   1.678 -0.0655  0.0077  0.3624
 4009SOL    HW114280  10.477   3.104   1.656 -0.2304 -0.3971 -0.6302
 4009SOL    HW214281  10.340   3.086   1.593 -0.6837 -2.1401  0.7596
 4010SOL     OW14282   3.416   0.762   6.066 -0.1301  0.1622 -0.3160
 4010SOL    HW114283   3.419   0.782   5.972  0.0138  0.6758 -0.2046
 4010SOL    HW214284   3.393   0.845   6.107  0.5491  0.1187  0.1637
 4011SOL     OW14285   6.650   1.842   0.317 -0.8509  0.1344 -0.6524
 4011SOL    HW114286   6.642   1.871   0.408  1.1123  0.4961 -0.5624
 4011SOL    HW214287   6.743   1.851   0.297  0.2518 -6.2134 -0.5540
 4012SOL     OW14288   2.752   0.236   2.497  0.1062 -0.0299  0.1214
 4012SOL    HW114289   2.694   0.176   2.543 -0.1881 -0.3779 -0.6835
 4012SOL    HW214290   2.829   0.244   2.554  0.4067 -1.6234 -0.0090
 4013SOL     OW14291   0.777   8.151   8.749  0.8845  0.1634  0.1251
 4013SOL    HW114292   0.829   8.230   8.734  1.8290 -0.0142  2.0980
 4013SOL    HW214293   0.705   8.157   8.686  1.6072  1.9662 -0.6004
 4014SOL     OW14294  10.193   1.510   1.962  0.4638  0.1683  0.1069
 4014SOL    HW114295  10.210   1.603   1.943  0.6476 -0.2658 -2.1392
 4014SOL    HW214296  10.099   1.506   1.981  0.5845  0.8912  0.9353
 4015SOL     OW14297   0.613   3.841   5.504 -0.6333  0.1657  0.5268
 4015SOL    HW114298   0.702   3.871   5.520 -1.0869  3.1883 -1.7704
 4015SOL    HW214299   0.623   3.750   5.476  1.7193  0.4300  0.3148
 4016SOL     OW14300   5.986   3.353   1.453  0.3695 -0.4726  0.1841
 4016SOL    HW114301   5.946   3.412   1.517 -0.1263 -1.7748  1.1107
 4016SOL    HW214302   5.982   3.267   1.494  0.7538 -1.2207 -1.2866
 4017SOL     OW14303   0.156   2.731   5.052  0.3166  0.1029  0.2012
 4017SOL    HW114304   0.107   2.773   5.123  0.4964 -0.4472  0.6544
 4017SOL    HW214305   0.248   2.741   5.077  0.5783  2.4688 -1.3797
 4018SOL     OW14306   3.307   2.248   1.125 -0.2663  0.4004 -0.3536
 4018SOL    HW114307   3.281   2.336   1.149 -0.9610  0.2428 -0.5023
 4018SOL    HW214308   3.324   2.253   1.030 -1.6539  0.0779 -0.6417
 4019SOL     OW14309   9.294   7.951   0.607 -0.1156  0.5641  0.2354
 4019SOL    HW114310   9.375   7.902   0.621 -0.4050  0.2317  0.7953
 4019SOL    HW214311   9.293   8.016   0.677 -0.1033  0.8817 -0.0554
 4020SOL     OW14312   5.330   3.634   1.140  0.3105  0.1564 -0.5999
 4020SOL    HW114313   5.409   3.673   1.102 -0.0305  0.9364 -0.5169
 4020SOL    HW214314   5.258   3.666   1.086 -0.0003 -0.1896 -0.4019
 4021SOL     OW14315   6.905   9.886   0.744 -0.2988 -0.4113 -0.0038
 4021SOL    HW114316   6.887   9.855   0.655  0.4251  1.1866 -0.7440
 4021SOL    HW214317   6.971   9.826   0.777  1.3295  0.4387 -1.5283
 4022SOL     OW14318   0.149   3.149   6.995  0.1267  0.6113  0.0794
 4022SOL    HW114319   0.063   3.163   7.035 -0.6185  1.5416 -1.7286
 4022SOL    HW214320   0.147   3.058   6.966  0.4222  0.1298  1.4580
 4023SOL     OW14321   5.484   5.368   2.826  0.4478 -0.3617  0.6801
 4023SOL    HW114322   5.454   5.378   2.917  0.5128  0.4461  0.6225
 4023SOL    HW214323   5.547   5.439   2.814  0.4145 -0.4468 -0.0097
 4024SOL     OW14324   5.878   6.334   5.186 -0.4077 -0.0800 -0.2831
 4024SOL    HW114325   5.910   6.333   5.096 -0.4541 -0.7288 -0.2944
 4024SOL    HW214326   5.928   6.265   5.230 -2.4780 -1.8450 -0.5479
 4025SOL     OW14327   2.427   6.210   7.061  0.2135  0.2845 -0.1664
 4025SOL    HW114328   2.464   6.214   6.973 -0.2926  0.6767 -0.3671
 4025SOL    HW214329   2.344   6.257   7.055  0.3038  0.5611  0.5892
 4026SOL     OW14330   0.950   6.006   1.659  0.3438  0.4612  0.1924
 4026SOL    HW114331   0.981   5.918   1.636  2.0884  0.7389  1.2782
 4026SOL    HW214332   0.857   6.005   1.638  0.7380 -0.9497 -1.8172
 4027SOL     OW14333   8.939   2.296  10.121 -0.4731  0.0311 -0.1504
 4027SOL    HW114334   8.913   2.366  10.061 -0.1176 -0.4934 -0.9440
 4027SOL    HW214335   8.865   2.285  10.180 -1.5008 -0.4916 -1.4786
 4028SOL     OW14336   4.782   4.020   7.317 -0.4563 -0.1609 -0.3208
 4028SOL    HW114337   4.803   4.111   7.335  0.9847  0.2493 -3.4273
 4028SOL    HW214338   4.689   4.020   7.295 -0.4199  0.5835 -0.4823
 4029SOL     OW14339   9.210   5.420   9.208  0.2389 -0.1686 -0.0359
 4029SOL    HW114340   9.184   5.348   9.151 -2.1860 -0.7426  1.6431
 4029SOL    HW214341   9.139   5.484   9.199 -0.1788 -0.2502  2.1800
 4030SOL     OW14342   5.900   9.971   7.472 -0.7433  0.1229 -0.1978
 4030SOL    HW114343   5.905  10.062   7.444  0.9942  0.2759  0.5257
 4030SOL    HW214344   5.887   9.975   7.567 -0.1596 -0.3841 -0.0936
 4031SOL     OW14345   8.350   2.387   3.866  0.5768 -0.0258 -0.2601
 4031SOL    HW114346   8.401   2.452   3.818  1.6458 -0.1692  0.6319
 4031SOL    HW214347   8.357   2.307   3.814 -0.4624  0.4696 -1.1882
 4032SOL     OW14348   2.654   1.672   1.022 -0.0404 -0.3548  0.0784
 4032SOL    HW114349   2.621   1.761   1.033 -1.3675 -0.4865 -2.3151
 4032SOL    HW214350   2.688   1.648   1.109 -1.5702  1.6891  1.3209
 4033SOL     OW14351   9.446   7.371   9.484  0.4256 -0.3000 -0.4657
 4033SOL    HW114352   9.401   7.303   9.533 -0.5400  0.6277 -0.0261
 4033SOL    HW214353   9.383   7.443   9.478  1.3406  0.4860 -1.0906
 4034SOL     OW14354   0.821   9.272   9.270 -0.0668 -0.0749 -0.5775
 4034SOL    HW114355   0.836   9.304   9.359  3.1150 -0.0344 -1.0359
 4034SOL    HW214356   0.774   9.343   9.226 -0.2419  0.5598  0.6131
 4035SOL     OW14357   6.204   4.843   8.317 -0.1837  0.0601  0.2138
 4035SOL    HW114358   6.253   4.839   8.235 -0.2092 -3.0332  0.2407
 4035SOL    HW214359   6.121   4.885   8.293  0.4704  0.7333 -0.9472
 4036SOL     OW14360   4.189   7.968   2.890  0.2544  0.5048 -0.0647
 4036SOL    HW114361   4.244   7.957   2.811  1.7967 -0.4523  1.0759
 4036SOL    HW214362   4.198   7.885   2.937 -0.4579  1.1332  1.2356
 4037SOL     OW14363   1.584   3.333  10.231 -0.3382  0.4550  0.0197
 4037SOL    HW114364   1.552   3.415  10.270 -2.7664  0.0787 -1.0587
 4037SOL    HW214365   1.517   3.307  10.169  0.4171 -2.3311  0.2205
 4038SOL     OW14366   1.693   1.645   4.713 -0.2897 -0.5427  0.4893
 4038SOL    HW114367   1.615   1.590   4.704 -0.1393 -0.5234 -1.1341
 4038SOL    HW214368   1.764   1.591   4.678  0.0765  0.2001  0.0863
 4039SOL     OW14369   5.049   3.864   7.522  0.1648 -0.5275 -0.1139
 4039SOL    HW114370   5.059   3.908   7.438  0.7840 -0.6111 -0.0882
 4039SOL    HW214371   5.063   3.771   7.503 -0.9944 -0.7197 -0.1440
 4040SOL     OW14372   6.312   9.750   3.905  0.4282  0.1264  0.3854
 4040SOL    HW114373   6.254   9.674   3.902  0.1011  0.3954 -0.3751
 4040SOL    HW214374   6.358   9.742   3.989  0.9346 -1.2929  0.0054
 4041SOL     OW14375   5.242   3.861   9.042  0.6253  0.3448  0.4137
 4041SOL    HW114376   5.276   3.834   8.957  0.8209  1.2957  0.1737
 4041SOL    HW214377   5.274   3.795   9.104 -0.7947 -1.2197 -0.4598
 4042SOL     OW14378   1.095   0.746   3.225 -0.2324  0.2667 -0.3871
 4042SOL    HW114379   1.145   0.806   3.170 -0.1889  1.6073  1.0509
 4042SOL    HW214380   1.145   0.740   3.306 -2.0230  1.1287  0.8405
 4043SOL     OW14381   8.052   3.556   6.893 -0.1543 -0.5909 -1.0687
 4043SOL    HW114382   8.089   3.643   6.883  0.1555 -0.6195 -0.2551
 4043SOL    HW214383   8.058   3.517   6.806  2.0562 -0.7191 -0.9132
 4044SOL     OW14384   3.798   4.465   4.482 -0.4848 -0.0951  0.3451
 4044SOL    HW114385   3.814   4.376   4.514 -2.0706 -0.1148  1.1908
 4044SOL    HW214386   3.771   4.514   4.559 -0.5182  0.9036 -0.2821
 4045SOL     OW14387   4.873   3.883   4.979 -0.0054  0.0931 -0.9091
 4045SOL    HW114388   4.784   3.871   5.013 -0.0276  1.0882 -0.5745
 4045SOL    HW214389   4.865   3.865   4.885 -0.2339 -1.2927 -0.6485
 4046SOL     OW14390  10.101   1.003   4.552 -0.8847  0.2677 -0.5580
 4046SOL    HW114391  10.130   1.001   4.461 -0.3305 -1.4992 -0.3749
 4046SOL    HW214392  10.018   1.052   4.549 -1.3351 -0.5035 -2.1612
 4047SOL     OW14393   9.913   5.305   8.387 -0.0328  0.5223 -0.6055
 4047SOL    HW114394   9.933   5.292   8.295 -0.0241 -1.6206 -0.3398
 4047SOL    HW214395   9.935   5.222   8.429  0.2853  1.5401  1.4007
 4048SOL     OW14396   3.861   7.740   4.375  0.0127 -0.0785 -0.2791
 4048SOL    HW114397   3.949   7.777   4.380  0.2639 -0.6765 -0.1563
 4048SOL    HW214398   3.810   7.806   4.328  0.6149  0.1092 -0.6853
 4049SOL     OW14399   8.684   0.808   9.756 -0.5282 -0.1072  0.4532
 4049SOL    HW114400   8.612   0.815   9.817 -0.9366 -0.3917  0.0112
 4049SOL    HW214401   8.731   0.892   9.764 -2.1646  0.9993 -0.8123
 4050SOL     OW14402   4.100  10.280   1.797 -0.4363 -0.2323 -0.3940
 4050SOL    HW114403   4.124  10.244   1.712 -0.9483 -1.9327  0.1550
 4050SOL    HW214404   4.009  10.308   1.786 -0.7393 -1.1248 -0.2103
 4051SOL     OW14405   8.474   0.999   8.086 -1.0059  0.2742  0.2348
 4051SOL    HW114406   8.499   1.031   8.000  0.3727 -0.3560  0.3850
 4051SOL    HW214407   8.428   0.917   8.069  0.5620 -0.6230  0.1458
 4052SOL     OW14408   4.556   4.340   4.207 -0.7777  0.1500 -0.0015
 4052SOL    HW114409   4.548   4.387   4.124 -0.7472  0.5388  0.2131
 4052SOL    HW214410   4.522   4.402   4.273  1.7674  0.9692  0.6727
 4053SOL     OW14411   0.856   0.973   8.828  0.3570  0.6178  0.4769
 4053SOL    HW114412   0.847   0.878   8.830 -2.6549  0.6092 -2.8683
 4053SOL    HW214413   0.946   0.988   8.798  1.3162 -1.0175  2.3117
 4054SOL     OW14414   5.842   6.291   8.962 -0.3016  0.4819  0.1537
 4054SOL    HW114415   5.909   6.282   9.029  1.3418  1.6619 -1.2672
 4054SOL    HW214416   5.779   6.222   8.982  2.3525 -2.0677  0.3674
 4055SOL     OW14417   9.794   2.637   5.272  0.5027 -0.1936 -0.3886
 4055SOL    HW114418   9.848   2.565   5.239  0.6317 -0.3022  0.0490
 4055SOL    HW214419   9.830   2.715   5.230  0.8193 -0.2999 -0.3209
 4056SOL     OW14420   6.299   1.784   0.242 -0.6061 -0.2465  0.0075
 4056SOL    HW114421   6.338   1.761   0.326 -0.4674  0.4496  0.1469
 4056SOL    HW214422   6.295   1.702   0.193  0.4770 -0.4424  0.2231
 4057SOL     OW14423   0.625   2.853   4.577  0.1372 -0.2424 -0.4955
 4057SOL    HW114424   0.655   2.763   4.575  3.0125  0.5699  0.4583
 4057SOL    HW214425   0.538   2.849   4.616  1.7010 -2.3482  3.3469
 4058SOL     OW14426   2.671   3.099   8.771  0.0408 -0.3177 -0.3342
 4058SOL    HW114427   2.585   3.077   8.807  1.1646 -3.1928  0.8905
 4058SOL    HW214428   2.716   3.146   8.842 -0.7430  2.1169 -1.3236
 4059SOL     OW14429   6.033   9.878   6.251  0.0785  0.1624  0.7097
 4059SOL    HW114430   5.986   9.816   6.193  1.0193 -0.7804  0.9193
 4059SOL    HW214431   6.046   9.955   6.197  3.1981 -1.6006 -1.3387
 4060SOL     OW14432   6.360   1.623   4.441  0.1408 -0.4620 -0.1414
 4060SOL    HW114433   6.337   1.714   4.455  1.7129  0.0323 -0.5573
 4060SOL    HW214434   6.285   1.574   4.473 -1.3101  1.0056 -1.1408
 4061SOL     OW14435   5.214   0.161   2.276 -0.2731  0.7178  0.1793
 4061SOL    HW114436   5.205   0.113   2.358  0.4718 -0.6438 -0.4898
 4061SOL    HW214437   5.306   0.151   2.252  0.2076  3.4964  0.5559
 4062SOL     OW14438   1.174   5.703   7.640 -0.2355 -0.2858  0.8094
 4062SOL    HW114439   1.137   5.780   7.683 -0.7193 -0.0282 -0.0410
 4062SOL    HW214440   1.196   5.733   7.552  0.6125 -0.8342  0.8284
 4063SOL     OW14441   3.995   7.137   2.783  0.1689 -0.1077  0.3184
 4063SOL    HW114442   4.032   7.125   2.871  0.6818 -4.0654 -0.2491
 4063SOL    HW214443   4.070   7.135   2.725 -0.4207 -2.5855 -0.4636
 4064SOL     OW14444   6.479   1.194   3.737  0.8430  0.0445  0.1012
 4064SOL    HW114445   6.521   1.272   3.701  0.0215  1.8503  2.7866
 4064SOL    HW214446   6.534   1.170   3.812  1.9617 -3.0114 -1.4928
 4065SOL     OW14447   9.821   5.380   6.674  0.2788 -0.2215  0.0717
 4065SOL    HW114448   9.888   5.438   6.638 -0.6397  0.9337  0.1779
 4065SOL    HW214449   9.745   5.393   6.617 -0.4724 -0.0514  1.0898
 4066SOL     OW14450   2.587   7.138   3.751  0.2504 -0.0707  1.0006
 4066SOL    HW114451   2.631   7.054   3.765 -1.6298 -1.1938  0.5568
 4066SOL    HW214452   2.526   7.145   3.823 -0.0216  0.6336  0.7047
 4067SOL     OW14453   2.623   8.035   1.734 -0.5020 -0.5704  0.1604
 4067SOL    HW114454   2.697   8.032   1.674 -0.8119 -0.9770 -0.2122
 4067SOL    HW214455   2.602   8.128   1.742  0.3628 -0.4047  0.6771
 4068SOL     OW14456   2.844   3.046   5.085  0.4389 -0.1444  0.0101
 4068SOL    HW114457   2.856   3.132   5.125  2.9678 -0.6352  0.4731
 4068SOL    HW214458   2.770   3.058   5.026 -0.6191  1.7657  1.6033
 4069SOL     OW14459   9.090   8.680   0.164 -0.2393 -0.5631  0.0451
 4069SOL    HW114460   9.056   8.617   0.101  0.2923 -0.5220 -0.2844
 4069SOL    HW214461   9.176   8.705   0.130 -0.4529  0.3610  0.1451
 4070SOL     OW14462   3.975   0.673   6.936 -0.2831 -0.4836  0.5649
 4070SOL    HW114463   3.970   0.584   6.971 -1.0479 -1.0021 -0.8016
 4070SOL    HW214464   3.911   0.722   6.987 -1.0367 -1.1162  0.2582
 4071SOL     OW14465   9.243   0.194   4.225 -0.3004 -0.6250  0.4453
 4071SOL    HW114466   9.317   0.178   4.284 -0.1466  0.3832  0.5372
 4071SOL    HW214467   9.267   0.150   4.144  0.2053 -0.6770  0.6210
 4072SOL     OW14468   8.226   2.944   5.931 -0.0141  0.9911  0.0231
 4072SOL    HW114469   8.235   2.935   5.837 -1.1935 -1.0389  0.0640
 4072SOL    HW214470   8.271   2.867   5.967 -2.0516  0.1675  0.9462
 4073SOL     OW14471   9.614  10.643   1.541  0.1158 -0.6169  0.1492
 4073SOL    HW114472   9.706  10.618   1.555 -0.2537 -1.1669  1.8771
 4073SOL    HW214473   9.597  10.709   1.608 -0.3030  0.7664 -1.2673
 4074SOL     OW14474   1.653   6.457   4.641 -0.3593 -0.4555 -0.2149
 4074SOL    HW114475   1.594   6.382   4.639 -1.2206  0.2340 -1.8103
 4074SOL    HW214476   1.693   6.453   4.728 -1.2455 -2.0862  0.1565
 4075SOL     OW14477   2.638   2.965   3.260 -0.1179 -0.1163  0.1330
 4075SOL    HW114478   2.561   2.986   3.313  0.9964  0.2862  1.6549
 4075SOL    HW214479   2.707   3.022   3.294  0.3161  1.1785 -2.7188
 4076SOL     OW14480   7.283   0.041   7.483 -1.3702 -0.3679 -0.1349
 4076SOL    HW114481   7.258   0.131   7.503 -0.6972 -0.1799 -0.1176
 4076SOL    HW214482   7.295  -0.000   7.569 -1.5784 -0.4447 -0.1427
 4077SOL     OW14483   4.681   7.902   3.245  0.0896 -0.0865  0.1543
 4077SOL    HW114484   4.756   7.950   3.212  0.2346 -0.8421 -0.6586
 4077SOL    HW214485   4.664   7.940   3.332  0.7602  0.7814 -0.0798
 4078SOL     OW14486   5.424   4.001   1.158  0.1306 -0.5842  0.0920
 4078SOL    HW114487   5.484   3.932   1.130  0.4898 -0.6555  1.0025
 4078SOL    HW214488   5.368   3.959   1.224 -1.8225 -0.8924 -1.6766
 4079SOL     OW14489   8.022   4.265  10.461  0.4034 -0.2930 -0.4991
 4079SOL    HW114490   8.074   4.206  10.515 -0.6099 -1.3622 -0.6643
 4079SOL    HW214491   7.931   4.236  10.473 -0.5423  2.9957  1.7049
 4080SOL     OW14492   6.228   0.106   7.349 -0.3375 -0.5950  0.2859
 4080SOL    HW114493   6.159   0.093   7.414 -0.3841 -0.7714  0.2012
 4080SOL    HW214494   6.259   0.195   7.365 -2.1565  0.3626 -1.1571
 4081SOL     OW14495   6.124   9.490   6.530 -0.0736  0.7616 -0.1335
 4081SOL    HW114496   6.049   9.520   6.478  0.7995  2.0327 -0.7043
 4081SOL    HW214497   6.117   9.395   6.528 -0.7248  0.8068 -1.6147
 4082SOL     OW14498   9.181   6.061   7.326  0.4213 -0.4883 -0.1942
 4082SOL    HW114499   9.160   6.037   7.236 -1.5312  1.3551 -0.2974
 4082SOL    HW214500   9.111   6.020   7.378  0.2668  0.2981  0.2213
 4083SOL     OW14501   5.986   0.292   8.044 -0.5028  0.3550  0.4646
 4083SOL    HW114502   6.036   0.245   7.978 -1.1955 -1.4644  1.1716
 4083SOL    HW214503   5.976   0.381   8.008  1.7314  0.2948 -0.4360
 4084SOL     OW14504   6.527   2.912   5.719 -0.4365  0.2346  0.1852
 4084SOL    HW114505   6.439   2.908   5.682 -1.3657  1.5186  2.0902
 4084SOL    HW214506   6.571   2.834   5.686 -2.0685 -0.1094 -1.3144
 4085SOL     OW14507   8.779   5.069   3.092  0.7373  0.0609  0.8211
 4085SOL    HW114508   8.689   5.049   3.120  0.7142  2.1428  2.4721
 4085SOL    HW214509   8.772   5.080   2.997 -0.0905 -2.8428  0.4476
 4086SOL     OW14510  10.490   8.132   7.074  0.3655  0.3046 -0.5003
 4086SOL    HW114511  10.551   8.059   7.076 -0.5029 -0.4113  0.6594
 4086SOL    HW214512  10.514   8.186   7.149  0.8022  1.0842 -1.1701
 4087SOL     OW14513   8.677   1.311   1.956  0.2858 -0.0950 -0.2206
 4087SOL    HW114514   8.583   1.297   1.966  0.2927  1.1686  2.1955
 4087SOL    HW214515   8.715   1.223   1.961 -0.6866 -0.5618 -0.6613
 4088SOL     OW14516   4.590   0.798   9.503  0.2422 -0.1685  0.3710
 4088SOL    HW114517   4.560   0.708   9.516  1.7056 -0.8411 -0.4854
 4088SOL    HW214518   4.541   0.829   9.427  0.5787 -0.7045 -0.0777
 4089SOL     OW14519   3.917   3.601   9.119 -0.2823 -0.5697 -0.0857
 4089SOL    HW114520   3.896   3.541   9.191 -0.6492 -0.6220 -0.2346
 4089SOL    HW214521   3.900   3.550   9.040 -1.2361 -0.0615 -0.2229
 4090SOL     OW14522   3.617   8.929   8.877 -0.1623  0.1698 -0.6567
 4090SOL    HW114523   3.701   8.958   8.843 -0.2361 -0.1475 -1.1140
 4090SOL    HW214524   3.589   8.859   8.818  0.7890 -2.0212  1.3183
 4091SOL     OW14525   1.691   1.641   8.117  0.8275  0.4753  0.4008
 4091SOL    HW114526   1.606   1.680   8.136  0.6751  0.4941 -0.2868
 4091SOL    HW214527   1.711   1.669   8.028  0.1549 -1.9252 -0.5837
 4092SOL     OW14528   1.877   6.440   3.249 -0.0828 -0.2860  0.3012
 4092SOL    HW114529   1.913   6.375   3.188 -1.7772 -0.2430 -0.8068
 4092SOL    HW214530   1.788   6.411   3.266 -1.2815  2.2408 -1.0713
 4093SOL     OW14531   7.899   0.544   3.424  0.0515  0.5134  0.4954
 4093SOL    HW114532   7.880   0.598   3.501 -2.1783 -0.9207  1.0641
 4093SOL    HW214533   7.813   0.520   3.390  0.9883 -0.5725 -1.2519
 4094SOL     OW14534   9.550   1.221   0.573 -0.1901  0.0307  0.0892
 4094SOL    HW114535   9.560   1.128   0.550 -1.5632  0.0257 -0.6073
 4094SOL    HW214536   9.478   1.221   0.636  0.8862  0.4796  1.3651
 4095SOL     OW14537   3.055   6.102   7.334  0.1598  0.2521 -0.2478
 4095SOL    HW114538   3.044   6.174   7.396  0.1450  1.0912 -1.2032
 4095SOL    HW214539   3.072   6.026   7.389  0.7807  1.0949  0.7649
 4096SOL     OW14540   5.878   4.207   1.055  0.0509 -0.0886  0.0488
 4096SOL    HW114541   5.946   4.229   1.119  0.1616 -1.3506  0.3900
 4096SOL    HW214542   5.922   4.209   0.971  0.1510  0.5579  0.1114
 4097SOL     OW14543   8.759   4.123   0.360 -0.3497 -0.2596 -0.6872
 4097SOL    HW114544   8.746   4.053   0.296 -1.1060 -0.4637 -0.3289
 4097SOL    HW214545   8.810   4.189   0.313 -0.0705 -0.8196 -1.1942
 4098SOL     OW14546   1.413   9.383   3.300 -0.5332 -0.3793 -0.2543
 4098SOL    HW114547   1.364   9.312   3.340 -1.0940 -0.4850 -1.1037
 4098SOL    HW214548   1.424   9.357   3.209  1.4117 -0.5207 -0.0338
 4099SOL     OW14549   6.600   8.781   2.818  0.6117  0.3881  0.6249
 4099SOL    HW114550   6.627   8.825   2.899 -0.0370  2.5745 -0.2770
 4099SOL    HW214551   6.651   8.824   2.749 -2.8927  2.7147 -0.7884
 4100SOL     OW14552  10.654  10.329   7.835 -0.0839  0.2272 -0.6753
 4100SOL    HW114553  10.600  10.406   7.820 -0.5114 -0.1472 -1.0688
 4100SOL    HW214554  10.730  10.341   7.778 -1.3803 -0.8659 -2.7192
 4101SOL     OW14555   1.130   4.123   3.628  0.1792 -0.0265 -0.3677
 4101SOL    HW114556   1.111   4.181   3.702  1.0034  0.3578 -0.4466
 4101SOL    HW214557   1.120   4.034   3.664  0.4147  0.1576  0.1599
 4102SOL     OW14558   4.508   7.139   2.470  0.4827  0.0509 -0.0615
 4102SOL    HW114559   4.541   7.225   2.498  0.6924  0.0995 -0.4663
 4102SOL    HW214560   4.429   7.159   2.420  0.0903 -0.0400  0.5099
 4103SOL     OW14561   2.183   9.544   7.195 -0.8003 -0.3269 -0.2866
 4103SOL    HW114562   2.210   9.635   7.186 -1.7502  0.5161  3.6213
 4103SOL    HW214563   2.263   9.493   7.181  0.0882  1.1937 -0.9019
 4104SOL     OW14564  10.208  10.213   8.735  0.2129  0.0132 -0.1305
 4104SOL    HW114565  10.120  10.196   8.702 -0.0001  1.2251 -0.2698
 4104SOL    HW214566  10.234  10.294   8.690  1.4048 -0.3461 -0.1113
 4105SOL     OW14567   4.691   5.526   3.167  0.9786  0.0658 -0.2673
 4105SOL    HW114568   4.689   5.447   3.222 -1.0975 -0.2315 -0.6957
 4105SOL    HW214569   4.771   5.571   3.193  1.7748 -1.7580  0.5913
 4106SOL     OW14570   2.126   1.798   4.957 -0.0580  0.1127 -0.0259
 4106SOL    HW114571   2.094   1.848   4.882  0.4787  2.6862  1.3451
 4106SOL    HW214572   2.106   1.707   4.936 -2.4936  1.0066 -1.9970
 4107SOL     OW14573   3.244   6.839   9.554  0.4133  0.1868  0.3921
 4107SOL    HW114574   3.243   6.746   9.530  0.0897  0.4315 -0.5559
 4107SOL    HW214575   3.157   6.854   9.592  0.6894 -0.0398  1.1356
 4108SOL     OW14576   9.872   3.791   2.719  0.4001  0.2117 -0.1748
 4108SOL    HW114577   9.784   3.825   2.702 -0.0882 -0.4213  0.9558
 4108SOL    HW214578   9.923   3.816   2.642 -0.4440  1.6910 -0.2917
 4109SOL     OW14579   6.811   7.328   7.086 -0.1871 -0.0820  0.0581
 4109SOL    HW114580   6.848   7.345   7.000 -2.5182  3.7820 -0.3947
 4109SOL    HW214581   6.761   7.247   7.075  0.7574 -0.4774 -1.7342
 4110SOL     OW14582   6.888   3.483   7.846  0.3269 -0.0570  0.0770
 4110SOL    HW114583   6.928   3.549   7.903 -1.1632 -0.0114  1.1104
 4110SOL    HW214584   6.918   3.399   7.882 -0.0022 -0.0061  0.4806
 4111SOL     OW14585   9.478   1.257   8.667  0.2418 -0.2958 -0.1613
 4111SOL    HW114586   9.487   1.180   8.610 -0.6014 -2.0017  1.8751
 4111SOL    HW214587   9.386   1.282   8.658  0.7445  1.2241 -1.6286
 4112SOL     OW14588   3.382   0.049   1.514 -0.1036  0.2486  0.0953
 4112SOL    HW114589   3.430   0.090   1.442  0.1253  1.3762  0.8692
 4112SOL    HW214590   3.315  -0.004   1.471 -0.7697  1.8679 -0.9465
 4113SOL     OW14591   0.034   9.491   3.781 -0.9530  0.6755  0.2583
 4113SOL    HW114592  -0.046   9.461   3.824 -2.2036  0.5801 -1.9706
 4113SOL    HW214593   0.078   9.547   3.846 -0.2464 -3.0759  3.3634
 4114SOL     OW14594   2.160   8.505   0.484 -0.1837 -0.2874 -0.3201
 4114SOL    HW114595   2.168   8.546   0.397 -1.1988  0.5758 -0.0305
 4114SOL    HW214596   2.222   8.432   0.482  0.7483  0.4912 -1.3186
 4115SOL     OW14597   9.066   5.040   3.751  0.0438  0.3493  0.2131
 4115SOL    HW114598   9.070   5.006   3.841  0.3962  0.9151  0.4158
 4115SOL    HW214599   9.151   5.016   3.713 -0.9431 -1.9592 -0.7518
 4116SOL     OW14600  10.034   1.259   5.198 -0.2351 -0.0539 -0.2141
 4116SOL    HW114601  10.006   1.170   5.222  0.4135 -0.3337 -0.4530
 4116SOL    HW214602  10.102   1.280   5.263  0.2785 -0.1114 -0.7288
 4117SOL     OW14603   5.165   6.543   3.262  0.0300  0.2345  0.0009
 4117SOL    HW114604   5.231   6.501   3.318 -0.1411 -0.6713 -0.4636
 4117SOL    HW214605   5.200   6.631   3.247  2.6237 -1.0371 -2.5042
 4118SOL     OW14606   4.519   8.749   6.156 -0.1690 -0.0110  0.6229
 4118SOL    HW114607   4.455   8.677   6.152 -0.0158 -0.1267  0.0852
 4118SOL    HW214608   4.551   8.756   6.066 -1.2673  1.7277  0.3145
 4119SOL     OW14609   6.473   7.518   4.716  0.6037  0.2343  0.4592
 4119SOL    HW114610   6.532   7.551   4.649  2.1314 -1.2828  0.9612
 4119SOL    HW214611   6.531   7.496   4.790 -0.8821  0.8445  1.8817
 4120SOL     OW14612   0.941   9.090   7.151  0.4245 -0.2913 -0.5770
 4120SOL    HW114613   0.932   9.032   7.075  0.7131 -1.6002  0.3477
 4120SOL    HW214614   0.885   9.165   7.131 -1.6519 -1.8515 -0.9267
 4121SOL     OW14615   5.818   2.780   4.642  0.1099  0.1475 -0.5387
 4121SOL    HW114616   5.726   2.804   4.654 -0.3230 -1.5796 -0.0296
 4121SOL    HW214617   5.825   2.756   4.550 -0.4936 -1.6879 -0.1424
 4122SOL     OW14618   7.852   6.063   1.125 -0.0028  0.0003 -0.0347
 4122SOL    HW114619   7.942   6.045   1.100  0.0877  0.3414  0.0494
 4122SOL    HW214620   7.844   6.028   1.214  0.0248 -0.0901 -0.0674
 4123SOL     OW14621   1.432   8.835  10.553  0.1655  0.2615  0.0074
 4123SOL    HW114622   1.370   8.794  10.493  2.6809 -2.0219 -1.2297
 4123SOL    HW214623   1.449   8.922  10.515  0.0031 -0.2695 -1.3136
 4124SOL     OW14624   8.938   6.438   2.789  0.2956  0.3596  0.5526
 4124SOL    HW114625   8.911   6.427   2.881 -1.8911 -1.1882 -0.1763
 4124SOL    HW214626   8.856   6.460   2.743  1.3316  1.0082 -1.0621
 4125SOL     OW14627   6.076   0.908   6.181  0.1233 -0.3120  0.1537
 4125SOL    HW114628   5.993   0.861   6.182  0.2136 -0.4699  0.4711
 4125SOL    HW214629   6.099   0.915   6.088 -1.0966  1.2589 -0.0487
 4126SOL     OW14630   3.750   4.555   6.076 -0.1239 -0.2388  0.7196
 4126SOL    HW114631   3.709   4.633   6.113  0.4675  1.9309 -2.7279
 4126SOL    HW214632   3.841   4.582   6.060 -0.0256 -1.4583 -0.9625
 4127SOL     OW14633   4.881   7.437   9.107 -0.0625 -0.0784  0.3224
 4127SOL    HW114634   4.938   7.370   9.069 -0.5164 -0.2358 -0.1061
 4127SOL    HW214635   4.940   7.506   9.136  0.3812 -0.4797  0.3834
 4128SOL     OW14636   5.059   7.363   5.935  0.2145 -0.2584  0.0366
 4128SOL    HW114637   5.085   7.396   6.021  0.6065 -2.9465  1.0758
 4128SOL    HW214638   5.078   7.269   5.940 -0.9254 -0.6966 -2.5699
 4129SOL     OW14639   7.200   6.405  10.103 -0.2916  0.2405  0.0919
 4129SOL    HW114640   7.286   6.445  10.096  0.3127 -1.0658 -0.0982
 4129SOL    HW214641   7.139   6.479  10.101  0.6707  1.0448 -2.2347
 4130SOL     OW14642   8.180   9.007   1.195  0.7530 -0.3950  0.0092
 4130SOL    HW114643   8.244   8.943   1.225  0.8189 -0.1414  0.4183
 4130SOL    HW214644   8.101   8.989   1.247 -0.0244 -1.6959 -1.5494
 4131SOL     OW14645   8.928  10.447   0.146  0.0351  0.5169 -0.2226
 4131SOL    HW114646   8.933  10.408   0.059  1.3233  2.2247 -0.9704
 4131SOL    HW214647   8.975  10.386   0.202  0.5392  0.1420 -1.0274
 4132SOL     OW14648   6.111   7.050   8.258  0.4394  0.0032  0.1312
 4132SOL    HW114649   6.205   7.031   8.265  0.1925 -1.1101  0.7703
 4132SOL    HW214650   6.081   6.995   8.186  0.2218  0.1526  0.1077
 4133SOL     OW14651   6.759   9.445   3.110 -0.3587  0.1080  0.1714
 4133SOL    HW114652   6.716   9.531   3.106 -2.4881 -0.8517  1.1784
 4133SOL    HW214653   6.853   9.466   3.115 -0.7579  2.3316 -0.5206
 4134SOL     OW14654   5.923   5.583   2.562  0.4913  0.0874 -0.3336
 4134SOL    HW114655   5.989   5.643   2.526  0.8561 -0.0818  0.0513
 4134SOL    HW214656   5.846   5.596   2.506  0.6766  0.6749 -0.4593
 4135SOL     OW14657   3.560   6.009   2.279  0.3476 -0.2112  0.5549
 4135SOL    HW114658   3.530   5.921   2.258 -3.1525  1.0040 -0.1974
 4135SOL    HW214659   3.633   6.025   2.220 -0.6567 -1.7100 -1.1644
 4136SOL     OW14660   5.951   6.906   5.617  0.3496  0.4302  0.3413
 4136SOL    HW114661   5.877   6.966   5.619 -0.1589 -0.1893  1.1522
 4136SOL    HW214662   5.912   6.819   5.608  1.0259  0.1574 -0.0862
 4137SOL     OW14663   3.846   4.770   8.220 -0.3676  0.3354 -0.0388
 4137SOL    HW114664   3.830   4.862   8.199  2.5636  0.4324 -2.5428
 4137SOL    HW214665   3.922   4.771   8.277  1.2843 -0.5084 -2.0994
 4138SOL     OW14666   2.601   9.134   2.628 -0.5989  0.1545  0.9366
 4138SOL    HW114667   2.618   9.170   2.541 -0.0365 -0.5981  0.7242
 4138SOL    HW214668   2.506   9.123   2.632 -0.7903  1.6947  1.0351
 4139SOL     OW14669   8.252   3.594   1.169  0.4307  0.3205  0.0856
 4139SOL    HW114670   8.335   3.562   1.132 -0.1480  1.5500 -2.4649
 4139SOL    HW214671   8.196   3.610   1.093 -1.3401  1.7605  1.5991
 4140SOL     OW14672   6.471   5.714  10.209  0.4238  0.1071 -0.1767
 4140SOL    HW114673   6.567   5.719  10.205  0.3634  0.9211 -0.8517
 4140SOL    HW214674   6.443   5.803  10.233 -0.1538 -0.2291  0.4464
 4141SOL     OW14675   7.774   6.759   2.142 -0.0849 -0.1489  0.0548
 4141SOL    HW114676   7.819   6.748   2.226 -1.0665 -3.0263  0.3321
 4141SOL    HW214677   7.839   6.799   2.085  1.6447 -0.9052  1.3807
 4142SOL     OW14678   0.341   0.736   9.002 -0.4971 -0.3741 -0.2941
 4142SOL    HW114679   0.429   0.736   8.966 -0.5461  0.1853 -0.4292
 4142SOL    HW214680   0.294   0.802   8.951 -0.8066 -0.1999  0.2054
 4143SOL     OW14681   6.670   8.125   0.932 -0.4790 -0.0809 -0.1683
 4143SOL    HW114682   6.599   8.121   0.868  0.4261 -1.3862 -1.1648
 4143SOL    HW214683   6.743   8.166   0.885 -0.3330  0.5255  0.5814
 4144SOL     OW14684   2.179   5.303   9.980  0.2801  0.0853  0.4281
 4144SOL    HW114685   2.145   5.369  10.040  1.0560  1.6036 -0.7220
 4144SOL    HW214686   2.271   5.293  10.005  0.8054  1.2483 -0.8477
 4145SOL     OW14687   6.104   5.285   0.988 -0.1505 -0.4531  0.6126
 4145SOL    HW114688   6.136   5.334   0.912 -0.3219  0.6007  1.1857
 4145SOL    HW214689   6.128   5.194   0.971  0.1358 -0.1808 -0.5243
 4146SOL     OW14690   1.816   9.831   9.107  1.1136  0.7177  0.1522
 4146SOL    HW114691   1.758   9.815   9.182  1.1368  2.4154  0.5563
 4146SOL    HW214692   1.904   9.830   9.145  1.1289  1.5251  0.1387
 4147SOL     OW14693   6.379   8.878   8.020 -0.1044  0.3145  0.5478
 4147SOL    HW114694   6.448   8.944   8.018 -0.8778  1.1815 -1.9742
 4147SOL    HW214695   6.329   8.898   8.099  1.8866  0.2709  1.8911
 4148SOL     OW14696   5.929   8.389   1.020 -0.7991  0.0087  0.0041
 4148SOL    HW114697   6.014   8.390   0.976  0.6975  2.4006  2.5771
 4148SOL    HW214698   5.867   8.420   0.954  0.5809 -0.2238 -1.4676
 4149SOL     OW14699   6.915   0.944   3.684 -0.4716  0.1759  0.5686
 4149SOL    HW114700   6.863   0.926   3.762  0.3605 -1.2553  0.8275
 4149SOL    HW214701   7.006   0.942   3.715 -0.0936 -1.0291 -0.5182
 4150SOL     OW14702  10.545   0.678   8.289 -0.5575 -0.3333  0.5309
 4150SOL    HW114703  10.480   0.608   8.293  0.5391 -1.3381  1.3856
 4150SOL    HW214704  10.583   0.670   8.201 -3.0553  1.7077 -0.8837
 4151SOL     OW14705   3.987   0.739   9.891  0.2987  0.4281 -0.1931
 4151SOL    HW114706   4.064   0.759   9.837  0.1447 -0.1920 -0.6636
 4151SOL    HW214707   4.019   0.744   9.981  0.7774  0.6224 -0.3671
 4152SOL     OW14708   5.720   3.333   7.057  0.5624  0.1080 -0.1317
 4152SOL    HW114709   5.625   3.325   7.060  0.5301  0.7617  1.2398
 4152SOL    HW214710   5.748   3.319   7.147  1.8620 -1.0189 -0.6858
 4153SOL     OW14711   0.988   0.658   4.306 -0.8203  0.5645 -0.2135
 4153SOL    HW114712   0.941   0.593   4.253 -0.2532  0.1214 -0.1759
 4153SOL    HW214713   0.942   0.658   4.390 -0.5244 -0.1491 -0.0452
 4154SOL     OW14714   4.109   5.946   2.561 -0.1516 -0.5581  0.8970
 4154SOL    HW114715   4.124   5.919   2.470  0.0290  0.9894  0.4387
 4154SOL    HW214716   4.160   5.884   2.613 -1.4214 -2.3820  0.0621
 4155SOL     OW14717   2.114  10.065   8.580  0.1596 -0.9432  0.4685
 4155SOL    HW114718   2.184  10.041   8.641  0.4054  0.5961  0.8366
 4155SOL    HW214719   2.035  10.030   8.620  0.1076  1.2868  2.4892
 4156SOL     OW14720   1.421   8.862   2.876 -0.2470  0.3754  0.1170
 4156SOL    HW114721   1.480   8.937   2.879 -0.7569  0.7398  1.5218
 4156SOL    HW214722   1.441   8.819   2.792  2.3646  0.1945  0.7643
 4157SOL     OW14723   6.645   4.569   7.175 -0.3493 -0.2601 -0.5111
 4157SOL    HW114724   6.572   4.561   7.113  2.2708 -2.8349 -3.6704
 4157SOL    HW214725   6.623   4.510   7.246 -0.9980 -1.7971 -1.9114
 4158SOL     OW14726   7.831   4.044   1.703 -0.1893  0.0336  0.0108
 4158SOL    HW114727   7.775   4.074   1.631 -1.3034 -0.4795  0.6340
 4158SOL    HW214728   7.910   4.097   1.696 -1.2581  1.6629 -0.1397
 4159SOL     OW14729   5.248   7.749   9.482  0.1674 -0.5849  0.3693
 4159SOL    HW114730   5.244   7.844   9.471 -0.9107 -0.7162 -0.4787
 4159SOL    HW214731   5.337   7.727   9.455 -0.1795 -0.0262 -1.3958
 4160SOL     OW14732   1.537   4.430   7.271 -0.5008  0.6743  0.3443
 4160SOL    HW114733   1.448   4.415   7.303  0.4216 -0.9951  2.3192
 4160SOL    HW214734   1.544   4.375   7.193 -1.0110  0.3671  0.5108
 4161SOL     OW14735   5.366   2.605   6.509 -1.0193 -0.2699  0.4128
 4161SOL    HW114736   5.355   2.597   6.604  0.8121 -0.5169  0.6359
 4161SOL    HW214737   5.437   2.545   6.488 -2.5567 -1.5860 -1.4138
 4162SOL     OW14738   5.054   1.815   2.645  0.1650  0.3934 -0.4418
 4162SOL    HW114739   5.111   1.827   2.569  2.3766 -1.1341  0.8533
 4162SOL    HW214740   5.039   1.721   2.650 -0.0936  0.4811  0.8949
 4163SOL     OW14741   9.448   1.799   9.290  0.0511 -0.1008  0.0821
 4163SOL    HW114742   9.543   1.788   9.282  0.6272  2.7528  1.5070
 4163SOL    HW214743   9.416   1.795   9.200  1.2538 -2.5910 -0.3177
 4164SOL     OW14744  10.528   8.087   5.925  0.1927  1.1074  0.0490
 4164SOL    HW114745  10.459   8.153   5.920  0.5555  1.5836  1.0907
 4164SOL    HW214746  10.517   8.035   5.845 -1.6975  0.8429  0.4256
 4165SOL     OW14747   1.943   1.444   6.048  0.0735  0.0209  0.1182
 4165SOL    HW114748   2.018   1.393   6.078  0.9236  1.5760  0.7635
 4165SOL    HW214749   1.954   1.450   5.953  0.6521  0.0632  0.1874
 4166SOL     OW14750   2.037   1.293   5.702  0.0002  0.4567 -0.2668
 4166SOL    HW114751   1.981   1.365   5.674  0.1736  0.8664  0.4130
 4166SOL    HW214752   1.979   1.236   5.753  0.1091  0.6711  0.0967
 4167SOL     OW14753   7.473   4.085   5.297  0.5119 -0.3486  0.6575
 4167SOL    HW114754   7.534   4.088   5.223  2.0689  0.5354  1.9272
 4167SOL    HW214755   7.520   4.038   5.365 -0.5999 -0.4618  1.3721
 4168SOL     OW14756   5.621   0.752   9.506 -0.3488  0.3140  0.0020
 4168SOL    HW114757   5.690   0.761   9.440  0.0221  0.7470  0.4419
 4168SOL    HW214758   5.554   0.699   9.464 -0.1617  0.6747 -0.7602
 4169SOL     OW14759   0.754  10.068   6.004  0.3281 -0.1135  0.1647
 4169SOL    HW114760   0.787   9.981   6.024 -1.6947 -0.4367  2.6383
 4169SOL    HW214761   0.668  10.053   5.964 -0.3965  0.6936  1.3394
 4170SOL     OW14762   1.604   5.478   7.592 -0.0558  0.8755  0.4898
 4170SOL    HW114763   1.578   5.387   7.574  0.1115  0.9961 -0.4053
 4170SOL    HW214764   1.534   5.512   7.648 -0.1988  0.2430  0.7112
 4171SOL     OW14765   5.393  10.609   2.128 -0.8903 -0.4073  0.4596
 4171SOL    HW114766   5.469  10.557   2.104 -1.0489 -0.6137  0.4024
 4171SOL    HW214767   5.428  10.680   2.182 -0.2729  1.0641 -1.7373
 4172SOL     OW14768   4.521   2.410   3.092  0.1673  0.4201  0.3364
 4172SOL    HW114769   4.452   2.344   3.087  0.5252  0.0744 -0.0172
 4172SOL    HW214770   4.476   2.489   3.124 -0.5117  0.3633 -0.4535
 4173SOL     OW14771   7.571   0.858   2.108 -0.2801  0.1039  0.5211
 4173SOL    HW114772   7.551   0.911   2.184  0.0357  0.6352  0.2397
 4173SOL    HW214773   7.661   0.881   2.085 -0.0431 -0.7547  0.5587
 4174SOL     OW14774   8.928   5.457   6.176  0.4480 -0.5544  0.1059
 4174SOL    HW114775   8.925   5.537   6.229  1.8944 -0.4718  0.0839
 4174SOL    HW214776   8.836   5.428   6.173  0.1385  0.1683  1.5213
 4175SOL     OW14777   2.898   5.695   3.267  0.1137  0.1004  0.2123
 4175SOL    HW114778   2.837   5.743   3.210 -1.0146 -1.2186  0.2764
 4175SOL    HW214779   2.956   5.648   3.206  0.9410  1.1433  0.1563
 4176SOL     OW14780   2.951   0.760   9.218 -0.2925  0.6559 -0.4755
 4176SOL    HW114781   2.976   0.743   9.309  0.3604  1.3732 -0.5060
 4176SOL    HW214782   3.010   0.706   9.166 -2.3241 -1.7702 -0.4719
 4177SOL     OW14783   8.577   4.951  10.053  0.2134  0.8282 -0.3461
 4177SOL    HW114784   8.652   4.993  10.094 -0.3399  0.5783  0.9680
 4177SOL    HW214785   8.614   4.907   9.976  1.0764  2.2473 -0.7850
 4178SOL     OW14786   1.594   7.207   9.763 -0.2809  0.4512 -0.1687
 4178SOL    HW114787   1.679   7.163   9.767  0.2533  1.5018  0.1698
 4178SOL    HW214788   1.541   7.161   9.827  0.6058  0.9771  0.9762
 4179SOL     OW14789   6.563   3.053   4.203  0.2649  0.3060  0.5557
 4179SOL    HW114790   6.642   3.049   4.257  0.0928  0.5955  0.8341
 4179SOL    HW214791   6.548   2.963   4.177  4.0943  0.7184 -4.5543
 4180SOL     OW14792   0.472   1.320   2.964 -0.5478 -0.2136 -0.4940
 4180SOL    HW114793   0.447   1.412   2.959  2.2423  0.7002  0.8076
 4180SOL    HW214794   0.550   1.313   2.909 -0.7114 -1.8266 -0.5705
 4181SOL     OW14795   5.144   7.899   5.019  0.1459  0.8411 -0.1830
 4181SOL    HW114796   5.060   7.940   5.040 -1.1962 -2.1067  0.8212
 4181SOL    HW214797   5.139   7.880   4.925 -0.8378 -0.2803  0.0710
 4182SOL     OW14798   4.580   2.315   3.799  0.2013  0.0528 -0.0658
 4182SOL    HW114799   4.674   2.330   3.812  0.6632 -0.8054 -1.9424
 4182SOL    HW214800   4.574   2.222   3.777 -0.6909  0.6001 -2.5494
 4183SOL     OW14801   9.725   4.502   5.766 -0.6493 -0.0897  0.3842
 4183SOL    HW114802   9.651   4.552   5.801 -0.3499  1.0292 -0.5043
 4183SOL    HW214803   9.776   4.567   5.717  0.0844 -1.1633 -0.3150
 4184SOL     OW14804   0.501   7.593   8.565 -0.2465 -0.0813  0.2851
 4184SOL    HW114805   0.495   7.572   8.659  0.2283 -0.0638  0.3215
 4184SOL    HW214806   0.526   7.511   8.524 -0.3371 -0.0594  0.1864
 4185SOL     OW14807   8.682   3.339  10.334 -0.7865  0.0745 -0.3680
 4185SOL    HW114808   8.664   3.329  10.428 -1.6091  0.0114 -0.5230
 4185SOL    HW214809   8.776   3.358  10.329 -0.7640  0.2146  0.4745
 4186SOL     OW14810   8.527   4.540   9.345  0.0152 -0.1478 -0.1879
 4186SOL    HW114811   8.610   4.508   9.309  0.4266  1.4359 -0.7496
 4186SOL    HW214812   8.549   4.567   9.434 -0.8075 -3.2480  1.0779
 4187SOL     OW14813   8.198   4.442   5.462 -0.0884 -0.6122  0.2782
 4187SOL    HW114814   8.118   4.494   5.461  0.7378  0.7817  1.6215
 4187SOL    HW214815   8.193   4.390   5.542  0.6504  0.0538  0.7808
 4188SOL     OW14816   1.320   8.642   4.215 -0.8029 -0.1460  0.1242
 4188SOL    HW114817   1.268   8.718   4.242 -2.5005 -1.1581 -0.1395
 4188SOL    HW214818   1.258   8.569   4.216  0.7441 -1.5178  0.2427
 4189SOL     OW14819   4.914   8.153   4.069 -0.1900  0.0205 -0.2119
 4189SOL    HW114820   4.837   8.106   4.037 -0.9794  0.6896  0.6776
 4189SOL    HW214821   4.900   8.162   4.163  1.0479  0.0303 -0.0096
 4190SOL     OW14822   9.974   8.273   3.497 -0.0245  0.2133 -0.3882
 4190SOL    HW114823   9.911   8.343   3.479 -0.7919 -0.2675  0.3585
 4190SOL    HW214824   9.996   8.284   3.589 -1.5017 -1.5655  0.2288
 4191SOL     OW14825   4.841  10.209   5.541 -0.1359 -0.2072 -0.0721
 4191SOL    HW114826   4.839  10.212   5.637  3.1604 -2.9331  0.2727
 4191SOL    HW214827   4.815  10.297   5.514  1.4348  1.5431  3.4335
 4192SOL     OW14828   7.124   6.641   3.221  0.5270  0.4956 -0.2121
 4192SOL    HW114829   7.166   6.608   3.141 -0.2783 -1.7515  0.2266
 4192SOL    HW214830   7.197   6.673   3.274  0.9791  3.3463 -2.3195
 4193SOL     OW14831   5.441   3.541   9.391 -0.4088 -0.4002  0.5473
 4193SOL    HW114832   5.485   3.626   9.384 -0.4311 -0.4548 -0.4517
 4193SOL    HW214833   5.401   3.542   9.478 -2.0121  1.4347 -0.1132
 4194SOL     OW14834   5.161   8.977   9.899 -0.3983  0.2450 -0.3428
 4194SOL    HW114835   5.097   8.924   9.851 -1.7449 -0.2285  1.8162
 4194SOL    HW214836   5.183   8.925   9.976  1.7375  0.9266 -0.4208
 4195SOL     OW14837   3.548   0.875   8.247  0.2987  0.0196  0.1790
 4195SOL    HW114838   3.602   0.951   8.271 -0.0687  0.0575  0.9148
 4195SOL    HW214839   3.527   0.834   8.330  0.1412 -0.6548 -0.1914
 4196SOL     OW14840   5.148   8.391   5.114  0.7304  0.8197  0.0449
 4196SOL    HW114841   5.181   8.301   5.116 -1.0482  0.1325  0.5704
 4196SOL    HW214842   5.123   8.409   5.205 -2.7337  0.2851 -0.6631
 4197SOL     OW14843  10.031   0.657   1.437  0.0975 -0.0636  0.1987
 4197SOL    HW114844  10.032   0.702   1.521 -0.2955  2.0033 -0.8148
 4197SOL    HW214845  10.111   0.688   1.393 -0.8985  0.8372 -1.0693
 4198SOL     OW14846   3.525   5.362   9.512 -0.5488  0.0623 -1.0019
 4198SOL    HW114847   3.579   5.354   9.591 -2.4234  1.4577  0.5362
 4198SOL    HW214848   3.540   5.280   9.464  3.0148  0.4958 -0.8253
 4199SOL     OW14849   1.146   8.893   2.873  0.0983  0.7605  0.0261
 4199SOL    HW114850   1.242   8.890   2.872  0.0914 -1.2224 -1.5266
 4199SOL    HW214851   1.122   8.850   2.955  0.5254  0.8137  0.1830
 4200SOL     OW14852   5.864   9.394   7.059  0.3227  0.1007  0.0449
 4200SOL    HW114853   5.868   9.489   7.061 -0.5533  0.1384  0.7401
 4200SOL    HW214854   5.952   9.366   7.033  0.6767  1.0798  0.1637
 4201SOL     OW14855   9.411   6.077  10.615 -0.1784 -0.4826  0.8203
 4201SOL    HW114856   9.440   6.168  10.611 -0.2190 -0.4146  1.7895
 4201SOL    HW214857   9.396   6.060  10.708  3.0874 -2.4857  1.1498
 4202SOL     OW14858   2.535   8.404   5.631 -0.0145  0.1178  0.3661
 4202SOL    HW114859   2.554   8.327   5.577  1.6328 -0.9724  2.3597
 4202SOL    HW214860   2.557   8.478   5.575  0.5514 -0.9170 -0.8378
 4203SOL     OW14861   8.179   7.879   4.527 -0.9562 -0.0782  0.3567
 4203SOL    HW114862   8.217   7.959   4.490 -0.7120 -0.2059  0.3341
 4203SOL    HW214863   8.221   7.870   4.613  0.2959 -1.1161 -0.3389
 4204SOL     OW14864   5.806   9.299   0.459  0.2393 -0.4389  0.5072
 4204SOL    HW114865   5.758   9.236   0.405 -0.3582 -0.6037  1.2074
 4204SOL    HW214866   5.743   9.369   0.477  0.5191 -0.2407  0.7435
 4205SOL     OW14867   0.169   4.619   4.927 -0.0492 -0.4695 -0.2010
 4205SOL    HW114868   0.194   4.682   4.994  2.4950  0.2604 -1.7022
 4205SOL    HW214869   0.181   4.534   4.969 -0.5281 -0.0295  0.8773
 4206SOL     OW14870   6.920   5.054   3.608  0.2610  0.4712  0.1217
 4206SOL    HW114871   6.967   5.039   3.690  1.8722 -0.3839 -0.9152
 4206SOL    HW214872   6.915   5.150   3.602  1.6941  0.5956  0.3925
 4207SOL     OW14873   8.132   5.175   9.079  0.1878  0.2994  0.1967
 4207SOL    HW114874   8.107   5.152   9.168 -2.8797  1.7861 -0.1542
 4207SOL    HW214875   8.203   5.238   9.089 -1.5978  2.2176  1.7969
 4208SOL     OW14876   8.489   0.481   5.031  0.0178 -0.3309  0.0785
 4208SOL    HW114877   8.409   0.470   4.978 -0.6527  0.1336  0.9647
 4208SOL    HW214878   8.465   0.449   5.118  1.3257 -1.7410 -0.0347
 4209SOL     OW14879   7.678   0.612   2.225  0.5165  0.3476 -0.5003
 4209SOL    HW114880   7.749   0.653   2.274  0.9696 -0.7239 -0.2356
 4209SOL    HW214881   7.639   0.683   2.174  2.0681  0.8676 -0.9927
 4210SOL     OW14882   8.384   3.777   8.600 -0.2863 -0.6507  0.4092
 4210SOL    HW114883   8.422   3.864   8.610 -1.8285  0.0643  0.2615
 4210SOL    HW214884   8.454   3.717   8.629  0.9908  0.5823 -0.0310
 4211SOL     OW14885   9.757   0.131   3.530 -0.1947 -0.2584 -0.6149
 4211SOL    HW114886   9.690   0.135   3.598 -0.3141 -1.4089 -0.6433
 4211SOL    HW214887   9.840   0.138   3.577 -0.3087  0.1253 -0.4722
 4212SOL     OW14888   1.481   7.180   4.532 -0.4563  0.1499 -0.0336
 4212SOL    HW114889   1.395   7.168   4.493 -1.2274  2.0009  0.9732
 4212SOL    HW214890   1.503   7.093   4.568 -0.6969 -1.0163 -2.5066
 4213SOL     OW14891   9.441   7.682   8.035  0.1317 -0.0161  0.2804
 4213SOL    HW114892   9.383   7.678   7.959  0.2275  0.0950  0.2014
 4213SOL    HW214893   9.495   7.759   8.020  0.2041 -0.0387  0.4243
 4214SOL     OW14894   5.161   9.042   6.204 -0.2979  0.0860  0.3743
 4214SOL    HW114895   5.200   9.122   6.167  1.4495 -1.0977 -0.5279
 4214SOL    HW214896   5.123   8.998   6.128  1.6319 -1.4540  0.2306
 4215SOL     OW14897   9.044   6.723   9.785 -0.6667  0.3394 -0.3918
 4215SOL    HW114898   9.050   6.628   9.792 -0.7697  0.4181  0.9607
 4215SOL    HW214899   9.126   6.756   9.821 -0.9304  0.7781 -0.1725
 4216SOL     OW14900   0.269   4.393   1.584 -0.7615  0.3667 -0.0010
 4216SOL    HW114901   0.274   4.483   1.552 -1.7365  0.0004 -1.2466
 4216SOL    HW214902   0.177   4.381   1.607 -0.4774 -0.0588  0.9677
 4217SOL     OW14903   8.713   5.769   7.971  0.7225  0.4852 -0.6336
 4217SOL    HW114904   8.769   5.718   7.913  0.0753  0.2600 -1.0708
 4217SOL    HW214905   8.624   5.748   7.943  0.2532 -1.5050  1.9567
 4218SOL     OW14906   1.568   4.156   0.072  0.3050 -0.1812 -0.8266
 4218SOL    HW114907   1.502   4.225   0.060  1.1432  0.6629 -0.6908
 4218SOL    HW214908   1.582   4.121  -0.016  0.8976  0.7944 -1.1307
 4219SOL     OW14909   3.545   5.888   4.954 -0.1063  0.8986  0.6549
 4219SOL    HW114910   3.537   5.875   5.049  0.3127  1.1084  0.7203
 4219SOL    HW214911   3.527   5.981   4.941 -0.6026  0.7784  0.4757
 4220SOL     OW14912   1.137   1.866   1.394 -0.1349 -0.0901  0.8032
 4220SOL    HW114913   1.168   1.931   1.331  0.1435 -0.6297  0.3738
 4220SOL    HW214914   1.216   1.840   1.442 -0.3170  0.1938  1.2633
 4221SOL     OW14915   6.624   4.392  10.408 -0.0706 -0.3660 -0.5514
 4221SOL    HW114916   6.708   4.368  10.449  0.8571 -0.5196 -2.4322
 4221SOL    HW214917   6.593   4.467  10.459  1.1752 -0.3695  0.2501
 4222SOL     OW14918   7.169   4.843   9.454 -0.0455  0.2741 -0.2994
 4222SOL    HW114919   7.244   4.841   9.514 -0.7414 -2.1648  0.5898
 4222SOL    HW214920   7.101   4.890   9.502 -0.0333 -0.1225  0.1098
 4223SOL     OW14921   7.562   0.475  10.181 -0.4015 -0.1343 -0.6217
 4223SOL    HW114922   7.584   0.565  10.155  1.0182  0.0978  1.1335
 4223SOL    HW214923   7.645   0.428  10.176 -0.7334 -0.8513  0.3371
 4224SOL     OW14924   5.781   2.719   1.246 -0.3071  0.3561  0.1799
 4224SOL    HW114925   5.725   2.642   1.245  0.3018 -0.1670  1.8777
 4224SOL    HW214926   5.839   2.706   1.321  0.2521  2.1626  0.1315
 4225SOL     OW14927   6.468   0.571   0.181 -0.4744  0.1265 -0.1475
 4225SOL    HW114928   6.514   0.559   0.264  0.3907  1.0218 -0.4755
 4225SOL    HW214929   6.391   0.623   0.204 -0.1491  0.5151  0.0844
 4226SOL     OW14930   4.242   5.122   3.610  0.0728 -0.0413 -0.2278
 4226SOL    HW114931   4.236   5.027   3.602 -0.2119 -0.1426  0.9269
 4226SOL    HW214932   4.331   5.139   3.640  0.0064  0.0230 -0.0646
 4227SOL     OW14933   4.019   5.632   1.153  0.3996 -0.0296 -0.7024
 4227SOL    HW114934   3.942   5.687   1.146  1.1784  1.0651 -0.8654
 4227SOL    HW214935   4.092   5.689   1.129  1.3300 -0.8627  0.0396
 4228SOL     OW14936   1.588   4.021   0.826 -0.5503  0.4295  0.7510
 4228SOL    HW114937   1.605   4.090   0.763 -0.5703  0.2626  0.5630
 4228SOL    HW214938   1.597   4.064   0.912  1.3433  0.2448  0.6906
 4229SOL     OW14939   7.300   6.621   8.778 -0.7059  0.2733  0.7142
 4229SOL    HW114940   7.302   6.525   8.786 -1.9482  0.0379 -1.2638
 4229SOL    HW214941   7.390   6.645   8.756  0.0101 -0.2128  2.8517
 4230SOL     OW14942   5.680   3.191  10.596 -0.0713  0.7892  0.1733
 4230SOL    HW114943   5.708   3.134  10.524  0.6156  0.3849  0.7562
 4230SOL    HW214944   5.607   3.241  10.559 -0.5255 -0.2780 -0.4280
 4231SOL     OW14945   4.623   3.950   1.328 -0.7179  0.0599 -0.1549
 4231SOL    HW114946   4.692   3.989   1.381  1.5359 -3.0215 -0.5379
 4231SOL    HW214947   4.558   3.920   1.392  0.2034 -0.4202  0.5787
 4232SOL     OW14948   4.653   7.977   7.874 -0.6115 -0.6652 -0.1556
 4232SOL    HW114949   4.658   7.886   7.901  0.0983 -0.3641  0.7656
 4232SOL    HW214950   4.665   8.027   7.955  0.0249  0.2500 -0.8004
 4233SOL     OW14951   9.494   6.341   7.521  0.2898  0.2147  0.1799
 4233SOL    HW114952   9.513   6.424   7.566 -0.4383  2.0180 -2.6434
 4233SOL    HW214953   9.401   6.344   7.502  0.3478 -1.0363 -0.4063
 4234SOL     OW14954   8.887  10.436   1.026 -0.5798 -0.7778 -0.0023
 4234SOL    HW114955   8.882  10.404   1.116 -0.6659 -0.0739  0.2535
 4234SOL    HW214956   8.795  10.445   1.000 -0.6272  1.1022  0.6260
 4235SOL     OW14957   5.799  10.381   9.710 -0.4723  0.3439 -0.6964
 4235SOL    HW114958   5.819  10.345   9.797 -0.7101 -0.4512 -0.9657
 4235SOL    HW214959   5.722  10.436   9.725 -1.8771 -1.4852 -0.7492
 4236SOL     OW14960   4.728   4.111   0.344  0.4693 -0.0095  0.3760
 4236SOL    HW114961   4.815   4.152   0.345  0.9401 -0.9590  1.0418
 4236SOL    HW214962   4.675   4.163   0.403  1.3830 -0.9717  2.1160
 4237SOL     OW14963   2.305   7.229   7.835  0.3199 -0.0172  0.5763
 4237SOL    HW114964   2.275   7.152   7.882  0.1982  0.8039  1.8950
 4237SOL    HW214965   2.230   7.256   7.782  0.3638 -0.7910  0.1178
 4238SOL     OW14966   2.765   9.459   4.191  0.0053  0.7808 -0.1972
 4238SOL    HW114967   2.716   9.497   4.118 -1.7277 -0.7388  0.1012
 4238SOL    HW214968   2.799   9.377   4.157 -0.1301  0.4463  0.4613
 4239SOL     OW14969   6.400   7.207   5.225  0.2274 -0.1012  0.0307
 4239SOL    HW114970   6.349   7.158   5.160  0.3443  2.5208 -2.2419
 4239SOL    HW214971   6.335   7.258   5.274  0.2473 -1.1452  1.1817
 4240SOL     OW14972   2.473   9.838   5.213  0.1779 -0.6245  0.0720
 4240SOL    HW114973   2.427   9.757   5.236 -0.7896  0.2012  1.1095
 4240SOL    HW214974   2.468   9.842   5.117 -1.3732 -0.8776  0.1215
 4241SOL     OW14975   5.624   8.595   4.851  0.1153  0.3654  0.0680
 4241SOL    HW114976   5.555   8.572   4.913  0.4061 -1.0062 -0.0823
 4241SOL    HW214977   5.604   8.545   4.772 -0.0413  1.8091 -0.8258
 4242SOL     OW14978   9.130   6.799   4.503 -0.1279 -0.0569  0.4020
 4242SOL    HW114979   9.159   6.866   4.564  0.0276  0.5013 -0.2743
 4242SOL    HW214980   9.211   6.763   4.466 -0.2284  1.3008 -1.2680
 4243SOL     OW14981   4.174   5.247   4.535 -0.0624 -0.3090 -0.1031
 4243SOL    HW114982   4.108   5.301   4.578  0.2299  0.6535 -0.8235
 4243SOL    HW214983   4.126   5.170   4.504 -0.7855  0.2115 -0.3087
 4244SOL     OW14984   0.696   5.226   0.964  0.3553 -0.1539  0.0612
 4244SOL    HW114985   0.632   5.193   1.028  0.7925 -1.4855 -0.1551
 4244SOL    HW214986   0.708   5.154   0.903  0.6168  0.7888 -1.0366
 4245SOL     OW14987   6.475   4.473   0.497 -0.0672  0.5565  0.6234
 4245SOL    HW114988   6.454   4.387   0.533 -0.8639  0.2334 -0.5421
 4245SOL    HW214989   6.390   4.509   0.471  0.2743  1.6314  0.9460
 4246SOL     OW14990   0.709   1.939   0.251  0.3243  0.1794 -0.6130
 4246SOL    HW114991   0.730   1.910   0.162  0.9483 -0.1654 -0.3661
 4246SOL    HW214992   0.643   1.877   0.282 -0.5608  0.8503 -1.1574
 4247SOL     OW14993   9.220   3.801   0.866 -0.1116  0.3414 -0.4379
 4247SOL    HW114994   9.204   3.735   0.933  0.5553 -0.1737 -0.7741
 4247SOL    HW214995   9.145   3.794   0.807  0.5839 -1.0535 -1.2078
 4248SOL     OW14996   5.189   9.169   4.683  0.0912 -0.1619 -0.6123
 4248SOL    HW114997   5.247   9.174   4.759 -0.7041 -0.5695  0.0370
 4248SOL    HW214998   5.248   9.159   4.608  0.8562 -0.5072  0.0225
 4249SOL     OW14999  10.551   9.426   0.752 -0.0794  0.2839 -0.0934
 4249SOL    HW115000  10.505   9.362   0.806  1.2530 -0.2716  0.4196
 4249SOL    HW215001  10.516   9.413   0.664 -1.7465  0.6982  0.4744
 4250SOL     OW15002   6.833   5.809   0.647 -0.8251  0.0811  0.8110
 4250SOL    HW115003   6.819   5.904   0.657 -1.6203 -0.0324  0.8301
 4250SOL    HW215004   6.748   5.770   0.664 -1.1192 -0.4753 -1.5913
 4251SOL     OW15005   1.318   2.022   0.800  0.3716  0.4909 -0.0313
 4251SOL    HW115006   1.371   2.053   0.727  0.4256 -0.8962 -0.6160
 4251SOL    HW215007   1.381   1.986   0.862  0.3402  1.8084  0.8082
 4252SOL     OW15008   3.114   7.234   2.411 -0.2923 -0.7611 -0.2926
 4252SOL    HW115009   3.030   7.266   2.446 -0.0497 -2.2781  1.8907
 4252SOL    HW215010   3.168   7.312   2.402 -1.2651 -0.0023  0.3052
 4253SOL     OW15011   1.081   7.457   2.514  0.0716 -0.0071 -0.0924
 4253SOL    HW115012   1.063   7.388   2.450  1.0595  1.1531 -1.6841
 4253SOL    HW215013   1.011   7.448   2.578 -0.2418 -2.0163 -0.6385
 4254SOL     OW15014   6.421   5.298   4.335  0.6939  0.1941  0.4986
 4254SOL    HW115015   6.493   5.290   4.272  0.0060  0.7394 -0.3878
 4254SOL    HW215016   6.423   5.217   4.385 -0.1489 -1.3219 -1.7554
 4255SOL     OW15017   5.663   0.285  10.168  0.4152 -0.2362 -0.0601
 4255SOL    HW115018   5.585   0.340  10.176  0.1661 -0.2058 -2.1893
 4255SOL    HW215019   5.717   0.310  10.242 -0.7111  1.1945  0.3304
 4256SOL     OW15020   8.724   2.888  10.221 -0.2917 -0.1214 -0.4967
 4256SOL    HW115021   8.763   2.874  10.308 -1.4184  0.0227  0.0439
 4256SOL    HW215022   8.671   2.967  10.231 -2.0722 -1.2259 -0.7314
 4257SOL     OW15023   8.182   5.142   1.130 -0.0333  0.2873 -0.6498
 4257SOL    HW115024   8.256   5.202   1.138 -0.2020  0.6369 -1.5741
 4257SOL    HW215025   8.144   5.138   1.217  1.4303 -0.3635 -0.0120
 4258SOL     OW15026   5.257   6.111   5.985 -0.4013 -0.1211  0.6345
 4258SOL    HW115027   5.319   6.112   5.912 -1.2475 -1.4526 -0.1470
 4258SOL    HW215028   5.311   6.126   6.062  0.5578  1.0203 -0.2163
 4259SOL     OW15029   8.915   5.421  10.159 -0.0072  0.5316 -0.4856
 4259SOL    HW115030   8.835   5.394  10.114  1.6113 -0.8293 -2.7319
 4259SOL    HW215031   8.937   5.347  10.217  1.0166 -0.3108 -1.8943
 4260SOL     OW15032   4.535   9.217   6.578 -0.4810 -0.0280 -0.6060
 4260SOL    HW115033   4.582   9.153   6.524  2.3788  1.0166  0.4325
 4260SOL    HW215034   4.595   9.235   6.651 -2.0364  2.3083  0.2167
 4261SOL     OW15035   2.992   2.227   6.571  0.0030  0.3069 -0.3171
 4261SOL    HW115036   2.990   2.139   6.535  0.3380  0.0151  0.3560
 4261SOL    HW215037   3.046   2.277   6.509 -0.2459  0.0634 -0.7338
 4262SOL     OW15038   5.145   2.794   2.097  0.6636  0.8980 -0.2803
 4262SOL    HW115039   5.126   2.705   2.069  0.3024  1.3769 -1.6470
 4262SOL    HW215040   5.171   2.786   2.189  0.4975 -0.5840 -0.3464
 4263SOL     OW15041   8.818   3.554   1.522  0.1768 -0.3890  0.2728
 4263SOL    HW115042   8.728   3.562   1.491  0.6318  1.2608 -0.7883
 4263SOL    HW215043   8.810   3.532   1.615 -1.3528  0.9775  0.5150
 4264SOL     OW15044   1.756   7.204   4.311  0.0737  0.1240 -0.2754
 4264SOL    HW115045   1.837   7.160   4.337 -1.2131 -2.2978 -0.1365
 4264SOL    HW215046   1.735   7.260   4.386  3.2310  3.4262 -1.5684
 4265SOL     OW15047   5.350   5.080   3.981  0.0882 -0.1767 -0.1755
 4265SOL    HW115048   5.319   5.170   3.975  0.5412 -0.0037  0.0303
 4265SOL    HW215049   5.289   5.030   3.927 -0.3336  0.2084 -0.0579
 4266SOL     OW15050   6.918   2.569   9.584 -0.4933 -0.8715  0.1150
 4266SOL    HW115051   7.007   2.533   9.584  0.0827  0.4668  1.4348
 4266SOL    HW215052   6.918   2.634   9.653 -2.4869 -0.7308  0.0439
 4267SOL     OW15053   2.134   8.714   0.016  0.6293  0.2032 -1.0819
 4267SOL    HW115054   2.056   8.739  -0.033  0.4872  0.7052 -0.6026
 4267SOL    HW215055   2.167   8.795   0.054  2.4249  0.3320 -2.7133
 4268SOL     OW15056   6.091   1.552   2.398  0.2323  0.2997 -0.4216
 4268SOL    HW115057   6.002   1.520   2.384  0.3125 -1.5460  2.4193
 4268SOL    HW215058   6.147   1.482   2.366  0.5965  0.3502  0.0998
 4269SOL     OW15059   2.414   9.488   3.866  0.5098  0.5299 -0.0987
 4269SOL    HW115060   2.435   9.401   3.899 -0.9764  0.2177  0.0692
 4269SOL    HW215061   2.484   9.544   3.900 -0.6008  0.1464  3.1959
 4270SOL     OW15062   5.906   8.494   1.719  0.1058  0.1810 -0.1001
 4270SOL    HW115063   5.882   8.581   1.688  0.0977 -0.1503 -1.0568
 4270SOL    HW215064   5.979   8.469   1.662 -0.3936 -0.7433 -0.3452
 4271SOL     OW15065   5.812  10.618   0.525  0.1503 -0.2566  0.0354
 4271SOL    HW115066   5.876  10.652   0.463 -0.5430 -1.0911 -1.1701
 4271SOL    HW215067   5.770  10.545   0.480 -0.9937 -0.3382  1.1564
 4272SOL     OW15068   4.400   2.492   9.255 -0.2444 -0.2213  0.1731
 4272SOL    HW115069   4.487   2.468   9.287 -0.1323  0.6450  0.5427
 4272SOL    HW215070   4.416   2.547   9.179 -0.4222  1.0677  1.0373
 4273SOL     OW15071   2.652   7.595   6.517  0.3129 -0.0633  0.5198
 4273SOL    HW115072   2.673   7.629   6.604  1.9609  0.4861 -0.0720
 4273SOL    HW215073   2.702   7.649   6.457 -0.8545 -0.3959 -0.8050
 4274SOL     OW15074   2.258   0.437   5.992 -0.2373 -0.9507 -0.5649
 4274SOL    HW115075   2.283   0.358   6.041  1.1156  0.4905  1.2110
 4274SOL    HW215076   2.191   0.478   6.047  0.9028  0.4028 -0.1310
 4275SOL     OW15077   7.139   2.148   9.733 -0.1839 -0.1143  0.4088
 4275SOL    HW115078   7.057   2.174   9.691  0.1575 -1.0032 -0.8648
 4275SOL    HW215079   7.112   2.091   9.805 -0.7415  0.7431  0.8899
 4276SOL     OW15080   9.602   7.457   7.825 -0.2256  0.3402 -0.1553
 4276SOL    HW115081   9.538   7.385   7.825 -0.2549  0.3453  1.0674
 4276SOL    HW215082   9.687   7.414   7.834 -0.1253  0.3805 -0.9074
 4277SOL     OW15083   1.478   3.882   7.877  0.1584  0.2450  0.5350
 4277SOL    HW115084   1.460   3.907   7.787 -0.3271 -0.8358  0.3223
 4277SOL    HW215085   1.569   3.851   7.876  0.0640 -0.0304  0.3552
 4278SOL     OW15086   3.429   9.229   5.966  0.1521 -0.4460 -0.2088
 4278SOL    HW115087   3.427   9.170   6.041 -0.7049 -1.3075 -0.8820
 4278SOL    HW215088   3.375   9.185   5.900  0.0359  0.7870 -0.9583
 4279SOL     OW15089   0.502   7.751   5.882 -0.0491 -0.5057 -0.3146
 4279SOL    HW115090   0.446   7.828   5.892  1.8421  0.7425  1.6315
 4279SOL    HW215091   0.495   7.706   5.966 -2.5394 -3.6496 -1.9779
 4280SOL     OW15092   1.317   9.661   5.135 -0.2317 -0.1636 -0.1701
 4280SOL    HW115093   1.266   9.675   5.055 -0.9676 -1.7778 -0.0394
 4280SOL    HW215094   1.312   9.566   5.149 -0.7232  0.1453  2.1592
 4281SOL     OW15095   3.393   3.417   6.477  0.3652 -0.2057  0.2223
 4281SOL    HW115096   3.346   3.361   6.416  1.0771  0.0075 -0.5398
 4281SOL    HW215097   3.331   3.487   6.497  0.4725  0.2899 -1.0818
 4282SOL     OW15098   3.584   6.272   5.628  0.4373 -0.6041 -0.0973
 4282SOL    HW115099   3.652   6.339   5.619 -2.9159  3.5557  2.1638
 4282SOL    HW215100   3.584   6.250   5.721 -1.6901 -0.0086  0.0781
 4283SOL     OW15101   2.991   3.946   7.570  0.2562  0.0813 -0.6658
 4283SOL    HW115102   3.050   3.872   7.573 -1.1310 -1.1108 -1.2323
 4283SOL    HW215103   2.945   3.945   7.654  0.8529  0.8705 -0.3119
 4284SOL     OW15104   6.724   8.884   5.164 -0.0076  0.2470 -0.2008
 4284SOL    HW115105   6.785   8.829   5.116  2.9633  1.8685  1.4221
 4284SOL    HW215106   6.682   8.824   5.226  1.8472 -0.5610  0.3413
 4285SOL     OW15107   3.087   8.059   1.928  0.1492 -0.1613 -0.0047
 4285SOL    HW115108   3.022   7.996   1.897 -0.0018 -0.0570  0.1055
 4285SOL    HW215109   3.120   8.020   2.010 -0.3206  0.1603  0.3396
 4286SOL     OW15110   5.906  10.616   6.613  0.3247 -0.3146 -0.1459
 4286SOL    HW115111   5.994  10.632   6.578  0.5466 -1.1647  0.0240
 4286SOL    HW215112   5.920  10.601   6.706 -0.1161  0.4967  0.0655
 4287SOL     OW15113   0.845   3.290   5.473 -0.1965  0.2214  0.2374
 4287SOL    HW115114   0.922   3.306   5.419 -0.3564  1.1248  0.2496
 4287SOL    HW215115   0.862   3.337   5.555 -0.9903  0.9189  0.0229
 4288SOL     OW15116   2.145   3.274   8.226  0.3983  0.0227 -0.1947
 4288SOL    HW115117   2.227   3.247   8.183 -0.3311 -2.4362 -0.1963
 4288SOL    HW215118   2.080   3.275   8.156  0.1430  0.5852  0.0497
 4289SOL     OW15119  10.111   4.383   0.604 -0.3028 -0.0312  0.4173
 4289SOL    HW115120  10.066   4.326   0.666  0.8658  0.5384  1.8531
 4289SOL    HW215121  10.042   4.421   0.551 -1.2577 -1.3017  0.6946
 4290SOL     OW15122   2.303   5.414   2.474 -0.3001 -0.0160  0.3126
 4290SOL    HW115123   2.321   5.322   2.455 -0.3092  0.3187 -1.5200
 4290SOL    HW215124   2.309   5.421   2.569  0.3944 -1.7563  0.4282
 4291SOL     OW15125   3.475   5.694   3.732 -0.1867  0.4732 -0.2645
 4291SOL    HW115126   3.427   5.614   3.707  0.1342  0.6739 -1.6082
 4291SOL    HW215127   3.548   5.663   3.785 -0.4553 -0.0660 -0.2060
 4292SOL     OW15128   3.463   6.605   9.671  0.0182 -0.1992  0.0898
 4292SOL    HW115129   3.390   6.643   9.622 -0.3626  0.1174  0.8775
 4292SOL    HW215130   3.540   6.653   9.642 -0.1136 -0.4118 -0.6187
 4293SOL     OW15131   9.878   4.533   8.548 -0.3889  0.7717 -0.0603
 4293SOL    HW115132   9.810   4.469   8.569 -1.3438  1.4820 -0.8946
 4293SOL    HW215133   9.961   4.487   8.565 -1.0642 -0.2909  0.4357
 4294SOL     OW15134   2.593   5.643   1.698  0.3350 -0.2989  0.5881
 4294SOL    HW115135   2.608   5.553   1.667 -0.3359  0.2710 -1.5678
 4294SOL    HW215136   2.504   5.641   1.734  0.2139 -0.4401  0.2837
 4295SOL     OW15137   7.005   9.500   3.189  0.3231 -0.0850  0.4222
 4295SOL    HW115138   7.021   9.423   3.243 -0.3357  0.0409  0.8136
 4295SOL    HW215139   7.011   9.574   3.250  0.0412  0.0993  0.2298
 4296SOL     OW15140   1.127   3.083   3.157  0.3105  0.2745  0.1459
 4296SOL    HW115141   1.082   3.008   3.118  2.2139 -2.0654  2.0870
 4296SOL    HW215142   1.064   3.118   3.221 -0.4401  0.0866 -0.4693
 4297SOL     OW15143   7.802   8.065   4.957  0.5432  0.1845 -0.0767
 4297SOL    HW115144   7.735   8.121   4.996  1.2008  1.0822 -0.2275
 4297SOL    HW215145   7.871   8.061   5.024  0.4960 -0.4597 -0.0625
 4298SOL     OW15146   1.953   0.773   1.539  0.0347  0.4865  0.2441
 4298SOL    HW115147   1.860   0.756   1.553 -0.3362  0.5894 -1.7988
 4298SOL    HW215148   1.994   0.756   1.624 -1.7389 -0.2506  0.9898
 4299SOL     OW15149   4.824   1.284   7.670 -0.5067 -0.4929 -0.1875
 4299SOL    HW115150   4.892   1.264   7.606  1.2137  0.1468  1.3596
 4299SOL    HW215151   4.772   1.353   7.628  1.2270  0.6802 -0.5099
 4300SOL     OW15152   1.633   1.277   9.444 -0.4917 -0.5615 -0.0444
 4300SOL    HW115153   1.594   1.359   9.473  1.2917  0.9079 -1.5531
 4300SOL    HW215154   1.704   1.261   9.506 -1.0307 -1.1759  0.4352
 4301SOL     OW15155   7.336   0.394   0.733 -0.1930 -0.0893  0.4165
 4301SOL    HW115156   7.411   0.348   0.696  0.3333 -0.2314  1.6221
 4301SOL    HW215157   7.264   0.330   0.730 -0.5375  0.3091 -1.5063
 4302SOL     OW15158  10.287   5.452   2.783  0.1349  0.5186  0.5392
 4302SOL    HW115159  10.202   5.414   2.806  0.2948  0.2741  0.7222
 4302SOL    HW215160  10.345   5.427   2.855  0.7266 -0.5537 -0.2828
 4303SOL     OW15161   1.534   7.808   3.616 -0.3437 -0.1334 -0.1421
 4303SOL    HW115162   1.536   7.903   3.626  0.7405 -0.1738  0.1816
 4303SOL    HW215163   1.559   7.774   3.702 -0.8609 -0.7124 -0.2172
 4304SOL     OW15164   7.129   8.168   0.661  0.4080  0.6168  0.2310
 4304SOL    HW115165   7.201   8.167   0.724  0.2405 -1.2666  0.4245
 4304SOL    HW215166   7.073   8.095   0.686 -1.2236  1.6224 -0.3542
 4305SOL     OW15167   6.029   9.448   5.495  0.6890  0.4459 -0.0904
 4305SOL    HW115168   6.103   9.407   5.539  1.5513  0.5126 -1.4359
 4305SOL    HW215169   6.028   9.410   5.408 -0.1152  1.3425 -0.5005
 4306SOL     OW15170   1.886   9.948   8.685 -0.3569 -0.1725 -0.2077
 4306SOL    HW115171   1.815   9.991   8.638 -0.8569 -1.0109 -0.2521
 4306SOL    HW215172   1.849   9.929   8.772  0.3354  0.7680  0.3057
 4307SOL     OW15173   6.289   4.347   5.525  0.5375 -0.2424 -0.0361
 4307SOL    HW115174   6.212   4.338   5.581  1.4948 -2.3036  1.0685
 4307SOL    HW215175   6.325   4.433   5.546 -0.9906  0.4218 -0.0112
 4308SOL     OW15176   5.881   4.749   7.097 -0.2283  0.0794 -0.0485
 4308SOL    HW115177   5.856   4.745   7.190  1.1219 -1.7952  0.2818
 4308SOL    HW215178   5.808   4.708   7.052 -0.0918 -0.6494  0.3785
 4309SOL     OW15179   9.078   4.375   0.475 -0.4007 -0.1433  0.2317
 4309SOL    HW115180   9.045   4.461   0.451  1.3744  0.0862 -1.7345
 4309SOL    HW215181   9.164   4.392   0.515 -0.7147 -0.9239  1.2753
 4310SOL     OW15182   3.716   9.010   5.725 -0.6971 -0.0431 -0.2402
 4310SOL    HW115183   3.749   9.100   5.728 -0.3596 -0.1770  0.2333
 4310SOL    HW215184   3.651   9.006   5.795 -1.0908 -0.0192 -0.6079
 4311SOL     OW15185   5.474   2.304   3.426 -0.2858  0.3045 -0.0739
 4311SOL    HW115186   5.472   2.376   3.490 -2.6649 -0.5706  0.9572
 4311SOL    HW215187   5.394   2.316   3.375 -1.8256 -2.6251  1.3977
 4312SOL     OW15188   2.320   0.946  10.190  0.1725  0.4274  0.5067
 4312SOL    HW115189   2.317   0.922  10.283  1.8432  0.6829  0.6565
 4312SOL    HW215190   2.407   0.983  10.178 -0.6955  2.1677 -0.7631
 4313SOL     OW15191   7.968   7.616   2.057  0.4014  0.7350 -1.0311
 4313SOL    HW115192   7.944   7.544   1.998  1.6775  0.2499 -1.0067
 4313SOL    HW215193   7.901   7.614   2.125 -0.2691  0.3589 -1.6804
 4314SOL     OW15194   4.950   2.799   1.039  0.3989 -0.1019  0.0401
 4314SOL    HW115195   4.945   2.729   0.974  0.7736  0.6203 -0.7784
 4314SOL    HW215196   4.990   2.758   1.116  1.7139 -0.4997 -0.8399
 4315SOL     OW15197   7.314   1.587   9.177 -0.4159  0.1807 -0.7177
 4315SOL    HW115198   7.388   1.644   9.155 -0.1970 -0.0935 -0.6948
 4315SOL    HW215199   7.269   1.633   9.248  0.2983 -0.1155 -0.0576
 4316SOL     OW15200   4.881   6.009   4.971 -0.3097 -0.6539  0.3069
 4316SOL    HW115201   4.810   5.999   5.035  0.1446  1.3460  1.2033
 4316SOL    HW215202   4.894   6.104   4.965  1.5721 -0.9363 -0.6555
 4317SOL     OW15203   2.465   6.901   7.390  0.1965 -0.3856 -0.0704
 4317SOL    HW115204   2.389   6.954   7.416  0.9491  0.2836  0.7808
 4317SOL    HW215205   2.426   6.818   7.362 -0.8824  0.0611  0.0226
 4318SOL     OW15206   2.531   7.134   1.711  0.0799 -0.2457  0.1059
 4318SOL    HW115207   2.464   7.068   1.691  0.9756 -0.3170 -3.2093
 4318SOL    HW215208   2.513   7.206   1.650  1.0288  1.2412  1.4952
 4319SOL     OW15209   6.973   1.345   5.139  0.1873 -0.0299  0.1233
 4319SOL    HW115210   6.948   1.426   5.094  0.2822 -0.5582 -0.9096
 4319SOL    HW215211   6.979   1.370   5.231 -0.7431  0.9118 -0.0469
 4320SOL     OW15212   5.545   2.903   4.183  0.2279 -0.4739 -0.3847
 4320SOL    HW115213   5.452   2.897   4.160 -0.1021 -1.3765  1.0590
 4320SOL    HW215214   5.573   2.813   4.195  1.0956 -0.1722 -0.0590
 4321SOL     OW15215   3.825   9.121   8.241 -0.2815  0.2362 -0.3290
 4321SOL    HW115216   3.917   9.120   8.214 -0.6479 -0.2139 -1.6051
 4321SOL    HW215217   3.819   9.195   8.300  0.7270  0.7957 -0.8965
 4322SOL     OW15218   6.766   2.015   3.492  0.0488  0.1280 -0.1987
 4322SOL    HW115219   6.741   1.937   3.541 -0.2613  0.4575  0.1785
 4322SOL    HW215220   6.861   2.013   3.490  0.0792  0.3039  0.7509
 4323SOL     OW15221   4.126   1.974   3.194  0.1893 -1.1631  0.4435
 4323SOL    HW115222   4.042   2.015   3.215  1.7001  2.1875  0.6094
 4323SOL    HW215223   4.137   1.990   3.100  1.2163 -0.3123  0.6923
 4324SOL     OW15224   4.674   0.447   4.957 -0.3491  0.5190  0.1668
 4324SOL    HW115225   4.687   0.446   4.863 -0.7907 -0.1670  0.0981
 4324SOL    HW215226   4.692   0.357   4.984  0.0712  0.7824  0.7788
 4325SOL     OW15227   9.013   6.945   8.744 -0.9146  0.1676  0.5345
 4325SOL    HW115228   9.022   6.992   8.827 -0.1972  0.0757  0.5142
 4325SOL    HW215229   8.919   6.947   8.726 -1.1383 -0.2070  1.5789
 4326SOL     OW15230   1.342   1.983   3.006  0.1748 -0.0104 -0.2295
 4326SOL    HW115231   1.363   1.899   2.966 -0.2307 -0.2576  0.0643
 4326SOL    HW215232   1.261   1.967   3.054  0.1113  0.5403 -0.1420
 4327SOL     OW15233  10.514   4.506   8.280 -0.7034 -0.1742  0.2640
 4327SOL    HW115234  10.608   4.514   8.294 -0.5028 -0.9033 -0.5536
 4327SOL    HW215235  10.476   4.582   8.324  0.0548 -1.0401  2.5330
 4328SOL     OW15236   2.694   2.765   1.021  0.4896 -0.0607  0.0065
 4328SOL    HW115237   2.723   2.777   1.111  2.3252 -2.2697 -0.2050
 4328SOL    HW215238   2.603   2.736   1.027  0.4565  0.2537  1.0977
 4329SOL     OW15239   9.555   3.408   3.828  0.8572  0.4232  0.6170
 4329SOL    HW115240   9.493   3.481   3.837  1.0692  0.8068 -0.7546
 4329SOL    HW215241   9.507   3.341   3.780  1.6152  0.9555 -0.9952
 4330SOL     OW15242   8.432   6.593   8.358 -0.2144  0.5690 -0.6509
 4330SOL    HW115243   8.425   6.650   8.435  0.4680 -0.0043 -0.1517
 4330SOL    HW215244   8.362   6.528   8.370 -1.6314  1.8344 -1.7108
 4331SOL     OW15245   8.864   2.771   2.339  0.0450 -0.1585  0.0547
 4331SOL    HW115246   8.803   2.830   2.384 -0.2386  0.7983 -1.5351
 4331SOL    HW215247   8.842   2.684   2.374 -1.5456  0.3021  0.2921
 4332SOL     OW15248   2.348   9.821   1.004  0.4960  0.1756 -0.0473
 4332SOL    HW115249   2.280   9.835   1.070  1.8730  1.1349  1.2364
 4332SOL    HW215250   2.426   9.798   1.055  1.7922  1.6788 -1.2752
 4333SOL     OW15251   9.577   3.108   4.264  0.7126 -0.4898 -0.5935
 4333SOL    HW115252   9.654   3.054   4.282  2.5577  2.0411 -0.2539
 4333SOL    HW215253   9.584   3.129   4.171 -0.9933 -2.1733 -1.1671
 4334SOL     OW15254   1.015   1.516   5.422  0.4412 -0.0674 -0.0107
 4334SOL    HW115255   0.947   1.569   5.382 -0.2078 -0.4714  0.5174
 4334SOL    HW215256   1.084   1.511   5.357  0.5031  1.3792 -0.0816
 4335SOL     OW15257   4.261   5.255   1.493 -0.0562 -0.5862  0.2260
 4335SOL    HW115258   4.266   5.196   1.568 -1.3185 -0.5814  0.3421
 4335SOL    HW215259   4.349   5.254   1.456  1.0385  0.5267  2.5440
 4336SOL     OW15260   2.759   3.268   1.081 -0.2165 -0.1530 -0.0398
 4336SOL    HW115261   2.782   3.188   1.129  0.8294  0.0943 -0.1088
 4336SOL    HW215262   2.823   3.272   1.010 -1.3314 -0.1665 -1.0925
 4337SOL     OW15263   6.408   7.863   2.367  0.2036 -0.3757  0.1915
 4337SOL    HW115264   6.357   7.787   2.396  0.0204 -0.2719  0.1384
 4337SOL    HW215265   6.378   7.935   2.422  1.6208 -0.7112  1.4626
 4338SOL     OW15266   1.738   1.353   8.670  0.4940 -0.4096 -0.2149
 4338SOL    HW115267   1.754   1.418   8.601 -0.8492 -0.1512 -0.3272
 4338SOL    HW215268   1.756   1.400   8.751  1.5927 -0.5585 -0.3622
 4339SOL     OW15269   2.079   5.845   1.041  0.0485  0.1852 -0.4747
 4339SOL    HW115270   2.020   5.885   1.104 -1.3060 -0.5046 -1.2497
 4339SOL    HW215271   2.166   5.869   1.071 -0.1978 -3.1236  3.8669
 4340SOL     OW15272   9.392   4.237   0.746  0.0987 -0.2250 -0.1743
 4340SOL    HW115273   9.347   4.322   0.745 -1.7587 -1.0855 -3.5659
 4340SOL    HW215274   9.467   4.249   0.688  1.3217 -0.2739  1.3344
 4341SOL     OW15275   7.941  10.548   9.294  0.3215  0.0144  0.2019
 4341SOL    HW115276   7.989  10.631   9.301 -1.9023  1.5137 -1.1134
 4341SOL    HW215277   7.897  10.552   9.209 -1.0441 -1.8547  0.7386
 4342SOL     OW15278   3.175   7.650  10.057  0.1493 -0.3785  0.4178
 4342SOL    HW115279   3.224   7.732  10.063 -1.2929  0.4630  1.4580
 4342SOL    HW215280   3.135   7.653   9.970 -0.1140  0.1716  0.5517
 4343SOL     OW15281   5.407   3.976   6.988  0.0436 -0.1460 -0.4239
 4343SOL    HW115282   5.348   3.923   7.041  1.0686  0.4163  1.3537
 4343SOL    HW215283   5.421   3.924   6.908  0.3394 -2.1758  0.8731
 4344SOL     OW15284   4.081   9.645   9.332  0.3860  0.1364 -0.3061
 4344SOL    HW115285   4.099   9.732   9.296 -1.3774  1.0665  0.9275
 4344SOL    HW215286   4.083   9.657   9.427 -1.0041 -0.8935 -0.1161
 4345SOL     OW15287   4.711   9.268   0.383  0.7242  0.7886 -0.5289
 4345SOL    HW115288   4.661   9.315   0.449  1.1161  1.1057 -0.4592
 4345SOL    HW215289   4.784   9.229   0.431 -0.2931 -0.9885 -0.3380
 4346SOL     OW15290   7.141   1.241   4.218 -0.2825 -0.9393  0.7109
 4346SOL    HW115291   7.160   1.157   4.260  1.0035 -0.3702  1.3276
 4346SOL    HW215292   7.221   1.293   4.231 -1.2526  0.5802  0.8472
 4347SOL     OW15293   0.400   5.545   7.568  0.1597 -0.0311  0.6002
 4347SOL    HW115294   0.326   5.584   7.614 -0.1687  1.0847 -0.7942
 4347SOL    HW215295   0.398   5.586   7.481  2.1193 -0.3412  0.3694
 4348SOL     OW15296   1.806   7.312   3.641 -0.1984  0.0196 -0.0880
 4348SOL    HW115297   1.892   7.345   3.614 -0.1798  1.5023  1.6309
 4348SOL    HW215298   1.812   7.217   3.627  1.7719  0.0748  0.0923
 4349SOL     OW15299   2.530   9.217   3.448  0.1626  0.0147 -0.6905
 4349SOL    HW115300   2.522   9.150   3.380  1.8989 -1.3625  0.3693
 4349SOL    HW215301   2.569   9.292   3.404  0.1185 -0.4025 -1.4589
 4350SOL     OW15302   7.775  10.207   6.425  0.1320  0.3513  0.0383
 4350SOL    HW115303   7.737  10.121   6.406  0.1006  0.3034  0.3039
 4350SOL    HW215304   7.718  10.269   6.381 -1.2425  0.4006  1.7936
 4351SOL     OW15305   4.974   2.250   1.844  0.0463  0.9266  0.3200
 4351SOL    HW115306   4.910   2.310   1.807  0.8524  2.3574  1.1738
 4351SOL    HW215307   5.059   2.292   1.829  0.5308  0.7175  2.1546
 4352SOL     OW15308   6.602   3.238   0.637 -0.4881 -0.5126  0.0675
 4352SOL    HW115309   6.672   3.207   0.695  0.2438  1.0123  0.0626
 4352SOL    HW215310   6.548   3.295   0.692 -2.0842 -2.0945  0.2089
 4353SOL     OW15311   4.293   9.984   8.059  0.1409  0.1609  0.0716
 4353SOL    HW115312   4.241  10.006   7.982 -0.3828 -0.7123  0.1601
 4353SOL    HW215313   4.304  10.067   8.105  1.2419  0.8793 -1.3866
 4354SOL     OW15314   7.632   4.909   3.232  0.5350  0.5788 -0.4895
 4354SOL    HW115315   7.669   4.915   3.320  1.3688 -1.3350 -0.6621
 4354SOL    HW215316   7.572   4.835   3.236 -2.3981  2.7541 -0.5951
 4355SOL     OW15317   4.083   9.061   2.945 -0.1132  0.4560  0.0798
 4355SOL    HW115318   4.089   8.993   2.878 -0.5847 -0.3850  0.8647
 4355SOL    HW215319   4.168   9.060   2.988  0.1129  0.8376 -0.3600
 4356SOL     OW15320   3.752   8.917   2.016 -0.2169  0.5097 -0.0590
 4356SOL    HW115321   3.787   8.971   2.086 -2.3972  0.7420  0.9471
 4356SOL    HW215322   3.657   8.926   2.023 -0.5532  0.1783 -2.7838
 4357SOL     OW15323   2.120   7.814   5.056  0.4661 -0.0349 -0.3208
 4357SOL    HW115324   2.137   7.880   4.989  1.3504 -0.5771 -0.6481
 4357SOL    HW215325   2.206   7.795   5.093  0.1453 -0.6072  0.1436
 4358SOL     OW15326  10.057   3.649   6.460 -0.3493 -0.3886 -0.4521
 4358SOL    HW115327  10.144   3.621   6.429 -0.7586 -0.4696 -1.5670
 4358SOL    HW215328  10.045   3.600   6.541  1.4032  0.9840  0.7039
 4359SOL     OW15329   2.485   2.964   3.740  0.1088  0.4649 -0.4775
 4359SOL    HW115330   2.559   2.942   3.683  0.4777 -1.6893  0.6964
 4359SOL    HW215331   2.517   2.947   3.828 -1.4489  0.5087  0.1287
 4360SOL     OW15332   2.698  10.229   0.228  0.1005  0.0903  0.1084
 4360SOL    HW115333   2.732  10.205   0.314 -0.1217  1.5933  0.6587
 4360SOL    HW215334   2.611  10.265   0.246  0.3120  1.0368 -0.6353
 4361SOL     OW15335   8.194   1.807   9.997  0.2354  0.0338 -0.6852
 4361SOL    HW115336   8.139   1.733   9.974 -0.6288  0.4290  0.0501
 4361SOL    HW215337   8.141   1.859  10.057  1.7654 -0.1030  0.8772
 4362SOL     OW15338   3.227  10.501   5.529  0.0842 -0.2888  0.3439
 4362SOL    HW115339   3.216  10.549   5.447 -1.7359  0.4045  0.9578
 4362SOL    HW215340   3.174  10.422   5.519  0.4504 -0.5774  0.5935
 4363SOL     OW15341   6.381   2.398   0.930  0.2904  0.6194  0.3116
 4363SOL    HW115342   6.289   2.381   0.951  0.3359 -0.3820 -0.2533
 4363SOL    HW215343   6.400   2.481   0.974 -1.4796  1.9555 -1.2901
 4364SOL     OW15344   9.792   9.346   8.612  0.2397  0.7317 -0.5698
 4364SOL    HW115345   9.848   9.411   8.569  0.3011  0.2962 -1.1519
 4364SOL    HW215346   9.708   9.354   8.567 -0.4304  1.9379  0.8232
 4365SOL     OW15347   7.776   4.331   5.209 -0.1155 -0.5333 -0.0728
 4365SOL    HW115348   7.858   4.282   5.201 -0.3198 -1.1762  1.5060
 4365SOL    HW215349   7.708   4.265   5.194 -0.3733 -0.0814 -0.9769
 4366SOL     OW15350   8.601   6.834   3.500 -0.4210  0.0449 -0.0598
 4366SOL    HW115351   8.596   6.771   3.572 -2.6539 -0.2067 -0.3651
 4366SOL    HW215352   8.694   6.838   3.478 -0.0881 -2.4098  0.6126
 4367SOL     OW15353   9.430   3.441   5.675 -0.8998 -0.2811 -0.5388
 4367SOL    HW115354   9.471   3.372   5.623 -2.0536  0.2260 -2.2003
 4367SOL    HW215355   9.500   3.503   5.693 -0.6415 -0.0050 -2.3226
 4368SOL     OW15356   7.547   4.144   4.800 -0.2320  0.3037 -0.1594
 4368SOL    HW115357   7.568   4.089   4.724  0.0431  0.4892 -0.2241
 4368SOL    HW215358   7.587   4.229   4.778  1.9463 -0.2821  1.2189
 4369SOL     OW15359   4.803   1.649   9.838  0.4354  0.5531 -0.1764
 4369SOL    HW115360   4.798   1.735   9.880 -1.4906 -0.0736  1.0231
 4369SOL    HW215361   4.809   1.587   9.911  0.1744 -0.4113 -0.9500
 4370SOL     OW15362   5.703   0.717   8.520 -0.3151 -0.3977  0.2380
 4370SOL    HW115363   5.749   0.714   8.436 -0.4063 -1.0970  0.2041
 4370SOL    HW215364   5.610   0.723   8.496 -0.2511  0.9243  0.3037
 4371SOL     OW15365   0.135   4.200   7.793 -0.1049  0.4884 -0.3354
 4371SOL    HW115366   0.198   4.216   7.722  1.0749  0.3033  0.6374
 4371SOL    HW215367   0.156   4.267   7.859  1.1971 -1.4467  1.3567
 4372SOL     OW15368   4.202  10.414   5.387 -0.0598 -0.4137  0.1583
 4372SOL    HW115369   4.272  10.439   5.446 -1.1319 -0.7914  1.6471
 4372SOL    HW215370   4.180  10.325   5.412 -3.0892  0.6618  1.8826
 4373SOL     OW15371   8.815  10.001   5.950  0.0584 -0.3277 -0.2316
 4373SOL    HW115372   8.846   9.973   5.864  0.4046 -1.5262  0.2581
 4373SOL    HW215373   8.720  10.002   5.942  0.1171  1.4980 -1.1835
 4374SOL     OW15374   4.503   4.069   9.524 -0.3096  0.0055  0.5358
 4374SOL    HW115375   4.544   4.129   9.462 -1.9733 -0.0520 -0.6934
 4374SOL    HW215376   4.518   4.110   9.610  1.7319  0.2594  0.0870
 4375SOL     OW15377   1.844   4.744   3.112 -0.1049  0.8907 -0.2560
 4375SOL    HW115378   1.754   4.719   3.089  0.4877 -1.4216 -0.3032
 4375SOL    HW215379   1.876   4.790   3.034 -0.0796 -1.5558 -1.7962
 4376SOL     OW15380   9.481   4.912   7.851  0.0967  0.7852 -0.4674
 4376SOL    HW115381   9.440   4.894   7.766 -0.4424 -0.0740 -0.0327
 4376SOL    HW215382   9.408   4.915   7.913  0.5331  0.9134  0.0482
 4377SOL     OW15383   1.663   4.049   2.639 -0.4313 -0.1003  0.1832
 4377SOL    HW115384   1.748   4.007   2.632 -0.1271  0.6954 -1.1754
 4377SOL    HW215385   1.630   4.053   2.550 -1.8592 -0.3098  0.6845
 4378SOL     OW15386   5.893   3.203   3.134  0.4512 -0.3195 -0.1181
 4378SOL    HW115387   5.927   3.289   3.108  1.3161 -0.5893  0.0898
 4378SOL    HW215388   5.938   3.184   3.217 -1.2888 -0.0488  0.9346
 4379SOL     OW15389   9.816   7.986   4.904  0.1295  0.1744 -0.0341
 4379SOL    HW115390   9.815   7.958   4.812  1.2886 -0.4956  0.1303
 4379SOL    HW215391   9.753   7.928   4.947  1.1656 -0.9993 -0.0332
 4380SOL     OW15392   5.238   5.228   1.371 -0.2313  0.6592  0.8629
 4380SOL    HW115393   5.150   5.189   1.368 -0.0810  0.2615  1.4282
 4380SOL    HW215394   5.222   5.322   1.382 -0.5950  0.7761 -0.4521
 4381SOL     OW15395   2.179   8.521   2.453  0.1904 -0.1851 -0.5525
 4381SOL    HW115396   2.147   8.495   2.540  0.1348 -0.7398 -0.7344
 4381SOL    HW215397   2.163   8.445   2.398  1.7632 -0.4578 -0.6774
 4382SOL     OW15398   1.089   4.804   0.347  0.3534  0.7015  0.1930
 4382SOL    HW115399   1.134   4.728   0.312 -1.0195 -0.0170 -0.0790
 4382SOL    HW215400   1.087   4.790   0.442 -1.1525 -0.3725  0.0456
 4383SOL     OW15401   9.178   3.886  10.083  0.2376 -0.4923  0.0404
 4383SOL    HW115402   9.120   3.878  10.007 -1.2673  1.9971  0.8177
 4383SOL    HW215403   9.123   3.862  10.157  0.9532 -0.5129  0.5683
 4384SOL     OW15404   8.420   9.334   2.966  0.0750  0.0167 -0.5970
 4384SOL    HW115405   8.409   9.413   2.912  0.6301  0.3236 -0.2749
 4384SOL    HW215406   8.492   9.356   3.025 -1.3608  0.2172  1.1890
 4385SOL     OW15407   3.066   0.107   7.915  0.6436  0.9025  0.0471
 4385SOL    HW115408   3.016   0.176   7.870 -0.4846 -0.6494 -1.2063
 4385SOL    HW215409   3.129   0.077   7.849  0.2445 -0.1328  0.1286
 4386SOL     OW15410   0.446   9.767   0.514 -0.4377  0.2162 -0.3123
 4386SOL    HW115411   0.449   9.722   0.598  1.3780  0.7112 -0.0651
 4386SOL    HW215412   0.377   9.723   0.465 -1.9833  0.3198  1.6450
 4387SOL     OW15413   8.935   7.536   4.194  0.0586 -0.0306 -0.0681
 4387SOL    HW115414   8.965   7.452   4.228 -1.6101 -0.6669 -0.0729
 4387SOL    HW215415   8.862   7.561   4.251  0.4847  1.4050 -0.1027
 4388SOL     OW15416   8.855   1.909   7.378 -0.3534 -0.4135 -0.1088
 4388SOL    HW115417   8.866   1.934   7.286  0.5428 -0.2396  0.0302
 4388SOL    HW215418   8.840   1.815   7.376  1.9871 -0.8374 -0.3279
 4389SOL     OW15419   8.655   0.795   8.064  0.1118  0.6626  0.1552
 4389SOL    HW115420   8.621   0.884   8.062 -0.6758  0.3760 -1.8346
 4389SOL    HW215421   8.620   0.754   7.985  0.3878 -1.4529  1.0562
 4390SOL     OW15422   2.870   3.846   7.795 -0.1989  0.5921  0.2240
 4390SOL    HW115423   2.821   3.927   7.806 -0.8213  0.1962  0.4037
 4390SOL    HW215424   2.933   3.846   7.866  0.0914  1.1200 -0.0276
 4391SOL     OW15425   0.962   5.620  10.156  0.2927 -0.2122 -0.2591
 4391SOL    HW115426   1.024   5.693  10.158  1.9031 -1.5359  1.3167
 4391SOL    HW215427   0.936   5.608  10.247 -0.6266 -1.0636 -0.6151
 4392SOL     OW15428   0.051   5.614   0.434 -0.5887 -0.0671  0.4493
 4392SOL    HW115429  -0.017   5.628   0.368 -0.3677  0.8764  0.4025
 4392SOL    HW215430   0.004   5.612   0.517 -0.7584 -0.1694  0.3494
 4393SOL     OW15431   8.128   8.043   3.280 -0.3251  0.4866  0.6849
 4393SOL    HW115432   8.155   7.954   3.256  0.2417  0.4509  1.4199
 4393SOL    HW215433   8.135   8.093   3.198 -1.1678 -0.2532  0.1408
 4394SOL     OW15434   4.263   2.714   2.128  1.3346  0.5576  0.3394
 4394SOL    HW115435   4.262   2.626   2.165  2.2168  0.8502  1.0997
 4394SOL    HW215436   4.301   2.769   2.197  1.5453  1.3896 -0.4169
 4395SOL     OW15437   5.671   2.712   8.543 -0.0943 -0.1986 -0.2948
 4395SOL    HW115438   5.697   2.696   8.452  0.0242 -1.9559  0.0029
 4395SOL    HW215439   5.576   2.714   8.542 -0.1384 -1.5161 -0.2989
 4396SOL     OW15440   4.622  10.460   2.600  0.3151 -0.1553  0.2692
 4396SOL    HW115441   4.680  10.480   2.526 -0.3824 -0.7970 -0.4639
 4396SOL    HW215442   4.681  10.429   2.669  0.9963  0.6757  0.0762
 4397SOL     OW15443   2.167   9.446   7.817  0.0526 -0.0603  0.5648
 4397SOL    HW115444   2.223   9.442   7.739  1.0568 -1.0033  1.2976
 4397SOL    HW215445   2.097   9.508   7.794  0.8672  0.4157 -0.7248
 4398SOL     OW15446   2.223   3.321   7.128 -0.1664  0.9892 -0.2692
 4398SOL    HW115447   2.182   3.367   7.201 -0.6810  2.1466 -1.2437
 4398SOL    HW215448   2.150   3.286   7.077  0.1123  1.4032 -0.9730
 4399SOL     OW15449   3.700  10.633   4.574 -0.1301  0.1922  0.6027
 4399SOL    HW115450   3.692  10.714   4.625 -0.5383 -0.4294  1.5389
 4399SOL    HW215451   3.622  10.632   4.519  0.5095  1.0667 -0.3588
 4400SOL     OW15452   7.921   3.154   0.724  0.2921  0.4241  0.0567
 4400SOL    HW115453   7.966   3.144   0.808  0.1494 -1.0201 -0.0131
 4400SOL    HW215454   7.977   3.214   0.674  0.6469  0.8896  0.9893
 4401SOL     OW15455   8.157   3.747   7.884 -0.5496  0.0167 -0.3050
 4401SOL    HW115456   8.237   3.747   7.937 -1.4186  1.2053  1.0620
 4401SOL    HW215457   8.188   3.725   7.796  1.3453  0.7394  0.1125
 4402SOL     OW15458   6.697   6.992   1.216  0.2380  0.1311  0.5638
 4402SOL    HW115459   6.786   6.961   1.201  0.8368  2.1195 -0.3151
 4402SOL    HW215460   6.668   7.026   1.131 -1.9193 -1.6734  0.4582
 4403SOL     OW15461   3.714   2.948   5.948  0.0140 -0.6097 -0.9076
 4403SOL    HW115462   3.758   3.032   5.966 -0.7313 -0.1878 -1.0348
 4403SOL    HW215463   3.679   2.921   6.033  0.6139 -1.0074 -0.7815
 4404SOL     OW15464   2.244   9.364   6.901 -0.2641  0.4748  0.1348
 4404SOL    HW115465   2.249   9.428   6.829 -0.1841  1.7249  1.2133
 4404SOL    HW215466   2.333   9.330   6.908 -0.5641 -0.6976 -1.2354
 4405SOL     OW15467   3.584   7.402   9.565  0.3196  0.1791 -0.3941
 4405SOL    HW115468   3.528   7.394   9.487 -1.0340 -1.6600  0.6947
 4405SOL    HW215469   3.548   7.478   9.611 -1.4636 -1.0433  0.3531
 4406SOL     OW15470   8.084   6.976   5.548 -0.2362 -0.0154 -0.3093
 4406SOL    HW115471   8.141   6.926   5.489  1.1516 -0.8234  1.5908
 4406SOL    HW215472   8.002   6.927   5.550  0.0118 -0.4630 -0.8857
 4407SOL     OW15473   8.775   1.197   7.824 -0.2216 -0.2118 -0.0267
 4407SOL    HW115474   8.814   1.270   7.872 -0.3752 -0.2945  0.2277
 4407SOL    HW215475   8.845   1.131   7.819 -0.2353 -0.2455  0.1808
 4408SOL     OW15476   1.203   7.364   4.122  0.1549 -0.0659 -0.4145
 4408SOL    HW115477   1.156   7.413   4.055  1.0300 -0.6654 -1.4800
 4408SOL    HW215478   1.225   7.430   4.188 -0.5845  0.5521 -0.7652
 4409SOL     OW15479   3.054   2.246   2.954  0.2759  0.3049  0.0432
 4409SOL    HW115480   3.072   2.165   2.907 -0.8609  1.2020 -2.0661
 4409SOL    HW215481   2.976   2.228   3.006  1.1290 -0.4798  1.0994
 4410SOL     OW15482   5.369  10.368   3.279  0.2461 -0.5335  0.2096
 4410SOL    HW115483   5.431  10.406   3.216  2.4193 -1.4661  1.6544
 4410SOL    HW215484   5.344  10.442   3.335  0.1733 -0.1788 -0.2870
 4411SOL     OW15485   9.437   3.912   1.146  0.0761  0.4285  0.4254
 4411SOL    HW115486   9.455   3.895   1.054 -0.4708  0.4321  0.3153
 4411SOL    HW215487   9.410   4.004   1.149 -2.5587 -0.2667  0.1688
 4412SOL     OW15488   7.284   5.978   5.345 -0.3821  0.3778  0.0704
 4412SOL    HW115489   7.282   5.954   5.438 -0.8647  0.0690 -0.0131
 4412SOL    HW215490   7.368   6.022   5.333 -0.2760  0.3359  0.6336
 4413SOL     OW15491   2.863   9.345   0.645 -0.5858 -0.4582  0.0125
 4413SOL    HW115492   2.807   9.303   0.710  0.5478 -1.9749  0.0883
 4413SOL    HW215493   2.805   9.401   0.594 -2.0345 -1.4987  0.4700
 4414SOL     OW15494   3.805   6.412   5.650  0.1035 -0.1903  0.1262
 4414SOL    HW115495   3.818   6.466   5.572 -0.0114 -1.5366 -0.8658
 4414SOL    HW215496   3.852   6.330   5.631 -2.4254 -1.7638  0.1288
 4415SOL     OW15497   5.372   7.970   1.881 -0.5526  0.0371  0.4471
 4415SOL    HW115498   5.456   7.927   1.901  1.0059  3.0966  1.1066
 4415SOL    HW215499   5.337   7.921   1.807  2.2587 -0.8513 -0.4220
 4416SOL     OW15500   2.042   8.383   7.957  0.0588 -0.6163 -0.1588
 4416SOL    HW115501   2.130   8.349   7.975  0.9429  1.3443 -0.5574
 4416SOL    HW215502   2.018   8.343   7.873  0.6810 -0.9766 -0.1739
 4417SOL     OW15503   8.480   8.843  10.041  0.0790 -0.0940 -0.4659
 4417SOL    HW115504   8.435   8.758  10.042 -0.7310  0.3309  0.0057
 4417SOL    HW215505   8.502   8.860  10.132 -1.3175  0.9917 -0.2931
 4418SOL     OW15506   4.326   7.200   8.666 -0.5767  0.1013  0.1327
 4418SOL    HW115507   4.322   7.244   8.751 -0.2971  0.4422 -0.0301
 4418SOL    HW215508   4.240   7.158   8.657  0.2849 -2.2841  1.8283
 4419SOL     OW15509   0.299   4.581   4.703  0.0408  0.7455  0.0488
 4419SOL    HW115510   0.393   4.568   4.705  0.1351  1.4341  0.8272
 4419SOL    HW215511   0.275   4.597   4.794 -0.6974  1.4409 -0.2535
 4420SOL     OW15512  10.468   6.500   8.354  0.0470  0.2182  0.0682
 4420SOL    HW115513  10.477   6.405   8.350  0.2391  0.0239  2.8642
 4420SOL    HW215514  10.549   6.533   8.317  0.6781 -0.7638  0.5267
 4421SOL     OW15515   8.922   9.000   1.973  0.0998  0.6078  0.0792
 4421SOL    HW115516   8.886   8.943   1.906 -0.7333  0.2679  0.7889
 4421SOL    HW215517   8.847   9.022   2.029  0.9079  0.1151  1.4315
 4422SOL     OW15518   0.635   7.052   0.019 -0.2958  0.2055  0.3933
 4422SOL    HW115519   0.580   7.096  -0.045  0.1031  0.9310  0.5378
 4422SOL    HW215520   0.722   7.050  -0.021 -0.1796  0.0988  0.6473
 4423SOL     OW15521   8.174   9.840   4.747  0.4616 -0.6320  0.2994
 4423SOL    HW115522   8.104   9.837   4.813  1.2853 -0.0806  1.2234
 4423SOL    HW215523   8.181   9.933   4.725  0.4620 -0.7703 -0.2780
 4424SOL     OW15524   8.962   5.713   5.656  0.4243 -0.2503 -0.2419
 4424SOL    HW115525   8.899   5.670   5.598  2.0573  0.3201 -2.5632
 4424SOL    HW215526   9.039   5.656   5.654  0.9154  0.3616  0.5205
 4425SOL     OW15527   8.079   4.692   9.199  0.3121  0.1253  0.6519
 4425SOL    HW115528   8.073   4.772   9.147 -0.5815 -0.3177  0.0456
 4425SOL    HW215529   8.146   4.711   9.265  0.4337  1.2043  0.2359
 4426SOL     OW15530   1.270   5.368   9.298  0.6882 -0.5221 -0.0675
 4426SOL    HW115531   1.264   5.322   9.214  0.3463 -1.2520  0.3480
 4426SOL    HW215532   1.360   5.399   9.301  1.0502 -1.5023 -0.1927
 4427SOL     OW15533   4.001   7.907   5.821  0.3071 -1.0513 -0.2903
 4427SOL    HW115534   3.957   7.843   5.877  0.4474 -0.8216  0.0795
 4427SOL    HW215535   4.014   7.860   5.738  3.1694 -2.5806  0.9109
 4428SOL     OW15536   2.833   5.983   1.471  0.3829 -0.2314 -0.2080
 4428SOL    HW115537   2.861   6.016   1.556  0.6718  0.1469 -0.4473
 4428SOL    HW215538   2.820   6.062   1.418 -0.8690 -0.4024 -0.1858
 4429SOL     OW15539   8.311   8.921   6.571 -0.5711 -0.0179 -0.2052
 4429SOL    HW115540   8.399   8.883   6.581 -0.9081 -0.4058  1.6127
 4429SOL    HW215541   8.261   8.854   6.525 -0.2155 -0.2906 -0.1991
 4430SOL     OW15542   7.266   9.986   1.769  0.4012  0.0822  0.2758
 4430SOL    HW115543   7.252  10.009   1.677  0.8643  0.5873  0.3266
 4430SOL    HW215544   7.192   9.929   1.791  0.2183  0.0610 -0.3713
 4431SOL     OW15545   7.600   4.233   7.650 -0.1004  1.0953 -0.4605
 4431SOL    HW115546   7.548   4.153   7.641  0.0591  0.8823  0.4269
 4431SOL    HW215547   7.589   4.259   7.741  1.2478  1.0978 -0.2718
 4432SOL     OW15548   4.534   0.415   1.106 -0.8004  0.2774  0.0109
 4432SOL    HW115549   4.479   0.440   1.032 -2.4682  2.1186  1.7574
 4432SOL    HW215550   4.476   0.420   1.182  1.5168  1.3563  1.8372
 4433SOL     OW15551   9.789   6.978   7.683  0.2650  0.6845 -0.5733
 4433SOL    HW115552   9.880   6.992   7.711 -0.4315  2.1658  1.2044
 4433SOL    HW215553   9.785   6.886   7.659  2.5591  0.8968 -2.0798
 4434SOL     OW15554   6.241   8.624   7.958 -0.7112 -0.7144  0.5446
 4434SOL    HW115555   6.314   8.685   7.966  0.2855 -1.8697  0.5080
 4434SOL    HW215556   6.181   8.649   8.029 -0.5330  0.5462  0.2836
 4435SOL     OW15557   4.556  10.080   0.151  0.0933 -0.5866 -0.5105
 4435SOL    HW115558   4.546  10.092   0.245  0.3697 -1.1684 -0.3980
 4435SOL    HW215559   4.649  10.059   0.140  0.5267  1.4320 -1.1382
 4436SOL     OW15560   2.281   0.042   7.326  0.3980  0.4462  0.0847
 4436SOL    HW115561   2.260  -0.042   7.368  0.6553 -0.1771 -0.9959
 4436SOL    HW215562   2.376   0.050   7.337  0.6223 -0.2097 -1.2167
 4437SOL     OW15563   3.994   4.014   8.953 -0.0952 -0.8246  0.6507
 4437SOL    HW115564   3.925   4.007   8.888 -0.3919 -3.4870  1.1693
 4437SOL    HW215565   3.965   3.960   9.026  1.7370 -0.5818  1.6196
 4438SOL     OW15566   8.357   5.034   4.857 -0.4815 -0.1419 -0.2597
 4438SOL    HW115567   8.404   5.117   4.848  1.1705 -1.0961 -1.0407
 4438SOL    HW215568   8.424   4.967   4.839 -1.7208 -1.6517  0.4813
 4439SOL     OW15569   9.342   2.180   1.324 -0.0452  0.1203 -0.4321
 4439SOL    HW115570   9.280   2.162   1.395 -0.2595 -2.0880 -1.0862
 4439SOL    HW215571   9.288   2.211   1.252  0.0525  1.4330  0.0460
 4440SOL     OW15572   7.072   0.228   0.778  0.2587 -0.0266  0.0863
 4440SOL    HW115573   7.023   0.203   0.857 -0.7897 -0.3033 -0.6310
 4440SOL    HW215574   7.037   0.171   0.709  2.1255 -0.7609 -0.3151
 4441SOL     OW15575   1.220   4.232   3.379  0.3944 -0.2984 -0.2620
 4441SOL    HW115576   1.178   4.169   3.437 -2.6228  1.7428 -0.0419
 4441SOL    HW215577   1.219   4.314   3.428  1.2202  0.6581 -1.7877
 4442SOL     OW15578  10.555   9.137   3.018 -0.6155 -0.4974 -0.4317
 4442SOL    HW115579  10.641   9.114   3.053 -1.2502 -1.0897  0.7966
 4442SOL    HW215580  10.517   9.053   2.991 -0.6741 -0.2003 -1.3118
 4443SOL     OW15581   1.725   0.204   7.359 -1.1152 -0.1181  0.4875
 4443SOL    HW115582   1.646   0.151   7.373 -0.7651 -1.0090 -0.7231
 4443SOL    HW215583   1.730   0.216   7.265  1.0876 -1.5532  0.3381
 4444SOL     OW15584   9.897   0.024   1.641 -0.2343 -0.0753  0.7186
 4444SOL    HW115585   9.948  -0.049   1.605 -1.2117  0.7160 -2.5988
 4444SOL    HW215586   9.959   0.069   1.698  1.7362 -1.1155 -0.4549
 4445SOL     OW15587   9.881   0.973  10.343 -0.1906 -0.1585 -0.4172
 4445SOL    HW115588   9.877   1.065  10.372 -1.2967 -0.5671  0.8201
 4445SOL    HW215589   9.808   0.963  10.283 -1.9765 -0.9187  1.7291
 4446SOL     OW15590   2.056   2.551  10.297  0.0145 -0.1928 -0.2979
 4446SOL    HW115591   2.012   2.636  10.292 -1.3774 -0.9407 -2.6101
 4446SOL    HW215592   2.143   2.567  10.261 -0.6017  0.1004 -1.7546
 4447SOL     OW15593   4.010   1.260   9.439  0.0407  0.5362  0.3519
 4447SOL    HW115594   4.049   1.175   9.459  0.2976  0.6750  0.4471
 4447SOL    HW215595   3.917   1.248   9.456 -0.1016 -0.0687 -0.8035
 4448SOL     OW15596   4.753   1.039   9.182  0.2602  0.3660 -0.5201
 4448SOL    HW115597   4.821   1.095   9.144 -0.6238  1.1324 -1.0193
 4448SOL    HW215598   4.780   0.950   9.160  0.9177  0.6779 -1.0107
 4449SOL     OW15599   6.351   9.191   2.692  0.7890  0.1563 -0.3490
 4449SOL    HW115600   6.404   9.266   2.718 -0.3663  0.8665  0.0813
 4449SOL    HW215601   6.389   9.162   2.609  0.1498  2.4227 -1.5214
 4450SOL     OW15602   5.316   8.805  10.594  0.1819 -0.6987  0.4263
 4450SOL    HW115603   5.377   8.732  10.586  0.9732  0.0666 -0.7708
 4450SOL    HW215604   5.231   8.767  10.570  0.4743 -1.3728  0.4331
 4451SOL     OW15605   6.044   7.319   7.797  0.3875 -0.1591 -0.4657
 4451SOL    HW115606   5.991   7.329   7.718  1.9712 -1.1185 -1.7135
 4451SOL    HW215607   6.000   7.251   7.847  0.4675 -1.0166 -1.5285
 4452SOL     OW15608   0.344   0.697   4.094 -0.6479 -0.3433 -0.1940
 4452SOL    HW115609   0.304   0.753   4.027 -0.6940 -1.0197 -0.7337
 4452SOL    HW215610   0.273   0.642   4.126 -0.5893 -0.1398  0.3047
 4453SOL     OW15611   1.655   5.017   6.497 -0.2727 -0.2021 -0.7323
 4453SOL    HW115612   1.623   5.102   6.526 -1.5332 -0.6122 -0.8788
 4453SOL    HW215613   1.725   4.995   6.560 -1.2381  0.0660  0.4728
 4454SOL     OW15614   4.951   9.587   7.683 -0.0883  0.5658  0.0555
 4454SOL    HW115615   5.000   9.650   7.631 -0.2608  0.3940 -0.3157
 4454SOL    HW215616   4.893   9.640   7.738 -1.5014  0.6866 -1.4918
 4455SOL     OW15617   1.113   4.944   6.079  0.5843  0.1913 -0.3765
 4455SOL    HW115618   1.149   4.983   5.999  2.1190 -1.0216 -0.3309
 4455SOL    HW215619   1.026   4.915   6.054  1.0896 -0.2929 -1.6905
 4456SOL     OW15620   9.095   9.534   7.907 -0.3254 -0.2552 -0.8030
 4456SOL    HW115621   9.029   9.465   7.895  0.3007 -0.9426 -0.3847
 4456SOL    HW215622   9.133   9.517   7.993 -0.1903  0.6533 -0.6701
 4457SOL     OW15623   0.966   7.763   7.174 -0.2672  1.3370 -0.0210
 4457SOL    HW115624   0.968   7.703   7.100  0.0560  0.3577  0.7581
 4457SOL    HW215625   0.916   7.717   7.242 -1.1131  2.4693  0.1724
 4458SOL     OW15626   0.128   6.151   7.871 -0.1265  0.2581  0.0683
 4458SOL    HW115627   0.092   6.189   7.790  0.1658  0.2570 -0.0658
 4458SOL    HW215628   0.068   6.179   7.939 -0.8581 -0.4622 -0.2637
 4459SOL     OW15629   2.094   4.049   6.306  0.1459  0.1363 -0.1475
 4459SOL    HW115630   2.124   4.119   6.364 -1.2229  0.0804  0.6596
 4459SOL    HW215631   2.114   4.081   6.218  2.4526  0.1285  0.3108
 4460SOL     OW15632   0.425   6.540   7.403 -0.4557  0.2499 -0.1703
 4460SOL    HW115633   0.477   6.460   7.412 -1.2619 -0.4537 -1.3522
 4460SOL    HW215634   0.335   6.508   7.390 -1.1339  1.4157  1.4081
 4461SOL     OW15635   5.042   8.171   7.127 -0.6691 -0.0026  0.3972
 4461SOL    HW115636   5.123   8.204   7.087 -0.7658 -1.0247 -0.6816
 4461SOL    HW215637   5.061   8.171   7.221  0.7835 -0.6857  0.1411
 4462SOL     OW15638   7.760   6.625   8.089  0.1192 -0.1367 -0.4298
 4462SOL    HW115639   7.704   6.597   8.163  0.5683  0.0971  0.0049
 4462SOL    HW215640   7.748   6.720   8.085 -1.0971 -0.3127 -1.6533
 4463SOL     OW15641   9.654   2.452   5.436 -0.0799  0.2956  0.4094
 4463SOL    HW115642   9.682   2.532   5.391 -0.2669  1.4070  2.1784
 4463SOL    HW215643   9.593   2.410   5.375  1.6630  0.3378 -1.4608
 4464SOL     OW15644  10.338   5.245   9.238  0.3258  0.3250  0.1795
 4464SOL    HW115645  10.290   5.292   9.306 -2.8653 -0.1083 -1.5755
 4464SOL    HW215646  10.294   5.160   9.233  0.6815  0.2124 -2.1262
 4465SOL     OW15647   1.795   1.565   5.699  0.0279  0.2383  0.1885
 4465SOL    HW115648   1.715   1.543   5.651  0.2436  0.5188 -0.3181
 4465SOL    HW215649   1.863   1.568   5.631  0.3395  0.6465  0.5110
 4466SOL     OW15650   9.724   4.976  10.332  0.5565  0.5457 -0.6921
 4466SOL    HW115651   9.634   4.992  10.303 -0.1025  1.5825  1.6785
 4466SOL    HW215652   9.721   4.988  10.427  2.8583 -1.1323 -0.3328
 4467SOL     OW15653   0.945   0.974   7.822 -0.2087  0.8223 -0.3367
 4467SOL    HW115654   0.914   1.035   7.755  0.1699  0.5728 -0.7469
 4467SOL    HW215655   1.034   0.950   7.793  0.0512  0.9094  0.3890
 4468SOL     OW15656   0.175   4.927   5.400  0.3193  0.1915 -0.3776
 4468SOL    HW115657   0.194   4.981   5.477  1.3832 -0.7367  0.0349
 4468SOL    HW215658   0.102   4.971   5.358  0.5868  1.4616  0.4308
 4469SOL     OW15659   4.209   6.584   3.999 -0.2558  0.4043  0.0991
 4469SOL    HW115660   4.134   6.633   4.033 -1.2706 -1.9250  1.4968
 4469SOL    HW215661   4.276   6.650   3.984 -2.5447  2.6065 -1.2717
 4470SOL     OW15662   5.251   9.554   4.108 -0.3225  0.0956  0.0287
 4470SOL    HW115663   5.342   9.554   4.080 -0.3661  0.7716 -0.1339
 4470SOL    HW215664   5.247   9.619   4.178 -0.6248 -0.1296  0.2265
 4471SOL     OW15665   6.956   5.183   2.511 -0.3940  0.8122  0.5145
 4471SOL    HW115666   6.939   5.116   2.577 -0.7381  1.1548  0.7821
 4471SOL    HW215667   6.987   5.258   2.562 -1.3924  1.3355  0.3653
 4472SOL     OW15668   7.234   5.769   2.638  0.9412  0.0753 -0.2447
 4472SOL    HW115669   7.254   5.676   2.628 -0.3173 -0.0535 -2.1160
 4472SOL    HW215670   7.293   5.813   2.579  1.6081  0.5057  0.7207
 4473SOL     OW15671   0.262  10.224   7.126  0.7737 -0.0539  0.3234
 4473SOL    HW115672   0.295  10.202   7.039 -1.5302 -1.6393 -0.2489
 4473SOL    HW215673   0.220  10.144   7.157 -1.0223  1.3064  1.6166
 4474SOL     OW15674   6.419   6.341   5.328  0.1944  0.4879 -0.3921
 4474SOL    HW115675   6.469   6.423   5.325 -0.3493  0.8366 -0.1873
 4474SOL    HW215676   6.476   6.279   5.373  0.5020  0.8356 -0.2978
 4475SOL     OW15677   5.622   2.588   7.097  0.3101  0.2254  0.3818
 4475SOL    HW115678   5.646   2.497   7.117  0.1844 -0.0655 -0.7253
 4475SOL    HW215679   5.679   2.612   7.024 -1.3506  0.1768 -1.0005
 4476SOL     OW15680   1.071   4.134   8.716  0.4731 -0.3752  0.4233
 4476SOL    HW115681   1.149   4.128   8.661 -0.3516  1.1601 -0.9682
 4476SOL    HW215682   1.046   4.226   8.713 -2.3482 -1.0767 -0.5200
 4477SOL     OW15683   2.417   0.290   2.030  0.3913  0.1943 -0.0354
 4477SOL    HW115684   2.349   0.228   2.057 -0.2776 -0.2701 -2.5327
 4477SOL    HW215685   2.494   0.264   2.081 -1.5017  1.7628  4.1461
 4478SOL     OW15686   0.530   2.508   0.515  0.0362  0.0956  0.2472
 4478SOL    HW115687   0.599   2.565   0.480 -1.1542  1.0430 -0.6273
 4478SOL    HW215688   0.455   2.566   0.529 -0.5642 -0.8890  1.3187
 4479SOL     OW15689   0.392   4.380   3.442 -0.0807  0.3901  0.1570
 4479SOL    HW115690   0.367   4.305   3.496 -1.8540  1.5041  0.9691
 4479SOL    HW215691   0.446   4.342   3.372  1.2099 -1.2775  1.9438
 4480SOL     OW15692   5.006   9.743   5.103 -0.4886 -0.5426 -0.0303
 4480SOL    HW115693   5.033   9.813   5.043  1.6337 -1.0171  0.3020
 4480SOL    HW215694   4.944   9.785   5.162 -0.9342  0.4885 -1.1666
 4481SOL     OW15695   9.293   3.219   4.539  0.1370 -0.2136  0.2774
 4481SOL    HW115696   9.245   3.256   4.465 -1.0032 -1.2089  0.4988
 4481SOL    HW215697   9.241   3.143   4.566  1.8056 -1.3160  0.5451
 4482SOL     OW15698   7.644   5.935  10.194  0.3112  0.4593 -0.2843
 4482SOL    HW115699   7.684   5.852  10.219  0.5021  0.8056  0.5834
 4482SOL    HW215700   7.554   5.929  10.224 -0.2787 -0.2436 -2.0677
 4483SOL     OW15701   9.358   8.724   0.088 -0.0345  0.2116 -0.5363
 4483SOL    HW115702   9.401   8.725   0.003 -0.6890 -0.2663 -0.8790
 4483SOL    HW215703   9.410   8.664   0.140  0.2004  0.2844 -0.6858
 4484SOL     OW15704  10.498   7.899   5.724  0.1093  0.4136  0.1061
 4484SOL    HW115705  10.571   7.943   5.680  0.3228 -0.1963 -0.1534
 4484SOL    HW215706  10.437   7.876   5.653 -0.9378  1.9884  0.4307
 4485SOL     OW15707   2.128   9.930   2.307  0.0343 -0.0941  0.1963
 4485SOL    HW115708   2.209   9.972   2.337  0.1270  0.0078 -0.1836
 4485SOL    HW215709   2.093   9.991   2.242 -0.2909 -0.1904  0.2812
 4486SOL     OW15710   9.936   9.987   9.446  0.5151  0.8541  0.2649
 4486SOL    HW115711   9.994   9.981   9.371  3.3657  0.3320  2.3482
 4486SOL    HW215712   9.860   9.933   9.422  1.9647 -0.4423 -1.6603
 4487SOL     OW15713   5.288   7.687   2.940 -0.0810 -0.2669  0.2827
 4487SOL    HW115714   5.256   7.745   2.870 -1.2266 -0.4531  0.6364
 4487SOL    HW215715   5.213   7.632   2.962  1.2381 -2.6293 -0.7321
 4488SOL     OW15716   6.899   1.466   3.620  0.3690  0.4403 -0.1875
 4488SOL    HW115717   6.931   1.387   3.664 -0.8439 -0.4366 -0.8440
 4488SOL    HW215718   6.966   1.532   3.640  0.1896 -0.0485  2.4944
 4489SOL     OW15719  10.615   4.212   8.211  0.0071  0.4521 -0.3581
 4489SOL    HW115720  10.584   4.132   8.252 -2.4142  1.4831 -0.0385
 4489SOL    HW215721  10.627   4.273   8.284 -2.1241  1.5877 -0.8713
 4490SOL     OW15722   4.016   9.048   4.826  0.5271 -0.1879 -0.4667
 4490SOL    HW115723   4.076   9.000   4.883  0.6535  0.0788 -0.3747
 4490SOL    HW215724   3.970   9.108   4.885  0.3507 -0.2137 -0.5778
 4491SOL     OW15725   8.691   5.998   1.967 -0.4607 -0.2461 -0.3592
 4491SOL    HW115726   8.621   5.936   1.986 -1.7511  1.2128 -0.1092
 4491SOL    HW215727   8.685   6.064   2.037  1.9255 -0.6519  0.3464
 4492SOL     OW15728   2.202   9.190   6.393  0.2682 -0.4050  0.0218
 4492SOL    HW115729   2.178   9.215   6.304  0.4234  2.1789  0.6358
 4492SOL    HW215730   2.297   9.191   6.393  0.2629  0.2980  0.3878
 4493SOL     OW15731   6.755   3.651   2.936  0.4828 -0.1494 -0.0596
 4493SOL    HW115732   6.661   3.668   2.933  0.2976 -1.2915 -1.3263
 4493SOL    HW215733   6.770   3.612   3.022 -0.1469  0.2931  0.2533
 4494SOL     OW15734   9.074   4.273   4.517 -0.0246 -0.3061 -0.4262
 4494SOL    HW115735   9.025   4.246   4.594 -0.4564  1.7399  0.0805
 4494SOL    HW215736   9.071   4.198   4.458 -3.3277 -0.4728 -0.1863
 4495SOL     OW15737   7.485   1.837   5.530 -0.2185 -0.1378 -0.0801
 4495SOL    HW115738   7.529   1.895   5.469  2.6041 -0.4610  1.4665
 4495SOL    HW215739   7.502   1.749   5.496 -0.2575 -0.2459  0.1794
 4496SOL     OW15740   9.245   9.124   7.424 -0.1575 -0.3966 -0.1902
 4496SOL    HW115741   9.214   9.047   7.376 -0.9697 -0.5555  0.5634
 4496SOL    HW215742   9.168   9.180   7.432 -0.5225 -1.0999  2.3040
 4497SOL     OW15743   2.710   6.160  10.011 -0.1052 -0.4582  0.4289
 4497SOL    HW115744   2.721   6.113  10.094  1.0620 -1.2841 -0.1656
 4497SOL    HW215745   2.615   6.168  10.000 -0.3264 -2.1563  0.8551
 4498SOL     OW15746   7.531   5.608   9.739  0.6564  0.1892 -0.2587
 4498SOL    HW115747   7.624   5.596   9.755  0.5851 -1.2419 -0.7920
 4498SOL    HW215748   7.518   5.703   9.745  1.8861  0.3117  1.0909
 4499SOL     OW15749   2.581   1.255   3.272 -0.6856  0.2465 -0.4308
 4499SOL    HW115750   2.642   1.321   3.306  0.6006  0.0276 -2.1798
 4499SOL    HW215751   2.494   1.290   3.292 -0.0877  0.3026  2.6674
 4500SOL     OW15752   5.869   4.375   7.828  0.1186  1.0141  0.5207
 4500SOL    HW115753   5.852   4.410   7.741  0.1258 -1.6368 -0.6276
 4500SOL    HW215754   5.964   4.382   7.838  0.3995 -0.6738 -0.6534
 4501SOL     OW15755   1.400   5.165   5.001  0.1123  0.1641  0.3396
 4501SOL    HW115756   1.344   5.222   4.949 -1.3136 -1.0356  0.4946
 4501SOL    HW215757   1.481   5.157   4.950 -0.5434  0.4836 -0.7807
 4502SOL     OW15758   5.223   0.918   7.044 -0.2556 -0.1388 -0.1654
 4502SOL    HW115759   5.130   0.907   7.065 -0.2152 -1.1766 -0.5200
 4502SOL    HW215760   5.269   0.892   7.124 -0.2397 -0.3144 -0.2328
 4503SOL     OW15761   1.408   5.335   7.444  0.5536 -0.4972  0.0508
 4503SOL    HW115762   1.463   5.313   7.368  1.3618  0.1235  0.4380
 4503SOL    HW215763   1.352   5.406   7.413  0.6586 -0.4594 -0.0523
 4504SOL     OW15764   0.871   6.041   1.967 -0.4306  0.2542  0.2257
 4504SOL    HW115765   0.895   6.045   1.874  0.9071 -1.2343  0.4518
 4504SOL    HW215766   0.875   6.131   1.997  0.1147  0.6380 -0.9285
 4505SOL     OW15767   4.482   3.680   3.361  0.5565  0.0560 -0.1751
 4505SOL    HW115768   4.555   3.732   3.393  0.2709  0.6750 -0.5138
 4505SOL    HW215769   4.458   3.721   3.278  1.1612 -1.3931 -1.1194
 4506SOL     OW15770   7.159   2.313   4.399 -0.0447 -0.2017  0.2069
 4506SOL    HW115771   7.136   2.221   4.404 -0.1038 -0.4773 -2.9442
 4506SOL    HW215772   7.249   2.313   4.366  0.0283  0.8710  0.3706
 4507SOL     OW15773   5.877   8.850   7.157 -0.0093 -0.2780  0.0418
 4507SOL    HW115774   5.792   8.829   7.118  0.3810 -1.3895 -0.2569
 4507SOL    HW215775   5.890   8.783   7.224  0.3784  0.2225  0.4800
 4508SOL     OW15776   5.211   8.665   3.388 -0.1996 -0.3919  0.0676
 4508SOL    HW115777   5.145   8.681   3.455  1.7675 -0.2301  2.0715
 4508SOL    HW215778   5.285   8.627   3.435  1.6395  0.5782 -1.8487
 4509SOL     OW15779   5.097   0.619   9.927 -0.4765  0.2340  0.5264
 4509SOL    HW115780   5.150   0.540   9.921  0.7679  1.1455 -1.4029
 4509SOL    HW215781   5.065   0.634   9.838  0.7849  2.8391  0.4258
 4510SOL     OW15782   5.303   1.626   4.339 -0.3983 -0.5885  0.4166
 4510SOL    HW115783   5.283   1.719   4.325  0.5928 -0.2568  1.1156
 4510SOL    HW215784   5.306   1.589   4.250  1.4442  0.5436 -0.0475
 4511SOL     OW15785   8.738   4.442   4.923  0.1921 -0.3547  0.3856
 4511SOL    HW115786   8.735   4.534   4.898  1.7039 -0.0509  1.2095
 4511SOL    HW215787   8.773   4.397   4.846  0.5884 -0.0609  0.3900
 4512SOL     OW15788   1.955   0.402   7.700 -0.5736 -0.3576  0.3992
 4512SOL    HW115789   1.917   0.319   7.671 -0.9311 -0.9200  2.2965
 4512SOL    HW215790   1.918   0.415   7.788  1.0543  0.7815  0.9603
 4513SOL     OW15791   0.038   2.228   2.870  0.3079  0.3836 -0.1096
 4513SOL    HW115792   0.057   2.318   2.897  1.2404  0.4188 -0.7937
 4513SOL    HW215793   0.090   2.174   2.929 -0.3040  0.2887  0.3434
 4514SOL     OW15794  10.484   7.092   4.452  0.1203  0.2665  0.0197
 4514SOL    HW115795  10.499   7.046   4.369 -1.2749 -1.7105  0.7799
 4514SOL    HW215796  10.388   7.094   4.461  0.1917  1.8335  0.8890
 4515SOL     OW15797   6.056   4.797   5.950 -0.0551  0.0830 -0.0096
 4515SOL    HW115798   6.112   4.871   5.973  1.0936 -0.6506 -0.3712
 4515SOL    HW215799   6.040   4.753   6.033 -0.0041  0.2268  0.0776
 4516SOL     OW15800   4.112   1.056   9.755 -0.3633 -0.7215 -0.2072
 4516SOL    HW115801   4.110   1.017   9.668  0.9860 -0.4643 -0.3784
 4516SOL    HW215802   4.096   1.149   9.740 -1.0424 -0.8125 -0.0731
 4517SOL     OW15803   2.020   0.890   3.062 -0.1430  0.1494  0.3024
 4517SOL    HW115804   2.012   0.795   3.066  1.0428  0.0068 -0.4499
 4517SOL    HW215805   1.941   0.919   3.016 -0.4942 -0.4672  0.5172
 4518SOL     OW15806   9.560   3.698   3.695 -0.7889  0.6080  0.0310
 4518SOL    HW115807   9.554   3.760   3.622  1.1829  0.2443 -0.5029
 4518SOL    HW215808   9.475   3.655   3.698 -1.1373  1.1368 -1.5940
 4519SOL     OW15809   6.272   2.867   5.361  0.3684 -0.1358  0.0632
 4519SOL    HW115810   6.362   2.898   5.377  0.4264  0.0806 -0.6648
 4519SOL    HW215811   6.241   2.839   5.447  0.0217  2.7023  0.9665
 4520SOL     OW15812   0.652   5.297   2.677  0.9723  0.0866  0.1203
 4520SOL    HW115813   0.687   5.220   2.722 -0.9379 -0.3506  0.9490
 4520SOL    HW215814   0.729   5.353   2.661  2.3245 -1.7175 -0.0250
 4521SOL     OW15815   8.525   6.048   1.014  0.3315 -0.0302  0.1101
 4521SOL    HW115816   8.451   5.990   1.032 -0.4805  0.8035 -0.4800
 4521SOL    HW215817   8.594   5.989   0.984  0.5274 -1.0284  2.3101
 4522SOL     OW15818   1.637   2.882   9.266  0.1445 -0.4234  0.8479
 4522SOL    HW115819   1.647   2.798   9.222 -1.7000 -1.6962  2.6767
 4522SOL    HW215820   1.707   2.937   9.230  1.1283 -2.5783 -0.7082
 4523SOL     OW15821   6.444   3.209   5.629  0.2136  0.4890 -0.0268
 4523SOL    HW115822   6.400   3.183   5.710  0.0262  0.0487 -0.2660
 4523SOL    HW215823   6.470   3.300   5.644  1.1117  0.1006  0.9384
 4524SOL     OW15824   1.620   0.999   6.922 -0.1781 -0.1577 -0.2022
 4524SOL    HW115825   1.682   0.955   6.980  0.7905  0.6492 -0.5911
 4524SOL    HW215826   1.676   1.038   6.854 -1.2074 -0.3497 -1.1840
 4525SOL     OW15827   5.642   8.819   5.628  0.0364 -0.1645  0.3944
 4525SOL    HW115828   5.608   8.855   5.710 -0.5043  2.8596 -1.0164
 4525SOL    HW215829   5.720   8.870   5.610  0.3387 -1.0246 -0.8271
 4526SOL     OW15830   4.012   1.083   5.127 -0.1298  0.1353 -0.7221
 4526SOL    HW115831   4.079   1.060   5.191  1.1129  2.2492 -1.1951
 4526SOL    HW215832   4.012   1.011   5.065  1.0407 -0.3495 -0.1871
 4527SOL     OW15833  10.160   2.019   5.039  0.6110  0.0452  0.4891
 4527SOL    HW115834  10.108   2.063   4.971  1.0281  2.4701  1.6351
 4527SOL    HW215835  10.207   2.090   5.082  2.0697 -1.6913  1.8764
 4528SOL     OW15836   4.651   7.213   7.682 -0.2494 -0.1602 -0.3795
 4528SOL    HW115837   4.566   7.231   7.721 -0.6104 -0.6793 -0.9067
 4528SOL    HW215838   4.632   7.189   7.592  0.6404  1.9958 -1.2231
 4529SOL     OW15839   3.787   3.488   6.455 -0.4067 -0.6190 -0.2626
 4529SOL    HW115840   3.859   3.550   6.450  0.1693 -1.2726 -0.2182
 4529SOL    HW215841   3.726   3.517   6.387  0.0537 -0.2585 -0.5274
 4530SOL     OW15842   3.580   0.158   4.128  0.1700  0.2615 -0.3729
 4530SOL    HW115843   3.555   0.153   4.220  0.3891  2.6823 -0.1067
 4530SOL    HW215844   3.496   0.157   4.081 -0.0033  0.0920 -0.0615
 4531SOL     OW15845   4.397   0.033   8.927  0.7418  0.1752  0.2095
 4531SOL    HW115846   4.338   0.071   8.993 -0.4613  0.8969 -1.2138
 4531SOL    HW215847   4.343   0.025   8.849  2.3704  0.1921 -0.9682
 4532SOL     OW15848   6.598   6.449   8.208 -0.4744  0.5414 -0.3742
 4532SOL    HW115849   6.575   6.433   8.117  2.7820  2.0542 -1.6268
 4532SOL    HW215850   6.564   6.373   8.255 -4.2490  0.7594 -2.3600
 4533SOL     OW15851   0.533   4.693   0.705 -0.4225 -0.7971  0.1768
 4533SOL    HW115852   0.499   4.716   0.618  0.3919 -3.6506 -0.9844
 4533SOL    HW215853   0.622   4.663   0.689 -0.1877 -1.2087  2.0519
 4534SOL     OW15854   9.442   4.025   2.322 -0.0163  0.3113 -0.2407
 4534SOL    HW115855   9.459   3.943   2.277 -1.0367  0.1112 -0.2725
 4534SOL    HW215856   9.390   4.001   2.399  0.8146  0.7703  0.4899
 4535SOL     OW15857   6.032   1.597   3.207  0.0953  0.2900  0.0552
 4535SOL    HW115858   6.101   1.538   3.175  0.2963  1.2230 -1.3159
 4535SOL    HW215859   6.050   1.680   3.164 -2.1133  0.4592 -0.6671
 4536SOL     OW15860   3.210   9.394   1.766  0.2960  0.2162 -0.1677
 4536SOL    HW115861   3.121   9.428   1.758  0.2162  0.3266  1.0129
 4536SOL    HW215862   3.262   9.471   1.793  0.0323 -0.5660  3.0172
 4537SOL     OW15863   8.233   8.750   7.225  0.4811  0.1340  0.4613
 4537SOL    HW115864   8.216   8.668   7.179 -1.0738  0.6001  0.1587
 4537SOL    HW215865   8.314   8.734   7.274  1.5647 -0.7807 -1.4804
 4538SOL     OW15866   4.839  10.278   8.771  0.2804  0.0495  0.7022
 4538SOL    HW115867   4.864  10.189   8.792  0.1961 -0.1389  0.0035
 4538SOL    HW215868   4.829  10.321   8.857 -1.5142 -1.1106  1.1322
 4539SOL     OW15869   0.676   3.683  10.196 -0.0617  0.1301 -0.2384
 4539SOL    HW115870   0.616   3.610  10.208  1.1311 -1.3845 -2.5908
 4539SOL    HW215871   0.627   3.747  10.143 -0.5968  0.3679  0.5251
 4540SOL     OW15872   8.006   7.762   6.953 -0.1805  0.1316  0.0969
 4540SOL    HW115873   7.983   7.855   6.957  1.3076  0.4828  1.5469
 4540SOL    HW215874   7.960   7.723   7.027  0.7368  0.1122  0.6738
 4541SOL     OW15875   0.676   9.834   2.619 -0.1332 -0.9658 -0.3177
 4541SOL    HW115876   0.763   9.862   2.591 -0.7863  0.2054 -1.2674
 4541SOL    HW215877   0.692   9.758   2.675  1.4258 -1.4408 -1.3506
 4542SOL     OW15878   8.782   3.858   5.134  0.5803 -0.5468 -0.5457
 4542SOL    HW115879   8.769   3.861   5.228  0.9979  1.1547 -0.5071
 4542SOL    HW215880   8.763   3.947   5.104  1.7478 -0.7146 -1.8880
 4543SOL     OW15881   9.287   0.353   0.981  0.3292 -0.1621  0.0205
 4543SOL    HW115882   9.323   0.267   0.959  0.1071  0.0987 -1.5126
 4543SOL    HW215883   9.330   0.413   0.920 -1.9702  0.2838 -1.3113
 4544SOL     OW15884   7.913   8.654   0.074 -0.1041  0.6713  0.2884
 4544SOL    HW115885   7.966   8.728   0.045 -1.3357  0.8313 -1.7606
 4544SOL    HW215886   7.843   8.693   0.127  0.6578  0.6566  1.3481
 4545SOL     OW15887   7.085   0.695   0.471 -0.1156  0.4842 -0.1778
 4545SOL    HW115888   7.159   0.755   0.481 -0.3803  0.6375  1.0941
 4545SOL    HW215889   7.036   0.728   0.396  0.0670  1.5298  0.1440
 4546SOL     OW15890   1.525   3.418   2.622  0.6990  0.4322 -0.9291
 4546SOL    HW115891   1.607   3.408   2.575  0.0529 -3.7435 -1.6083
 4546SOL    HW215892   1.522   3.343   2.681 -2.6768  0.2427 -1.1192
 4547SOL     OW15893   6.551   5.521   7.275  0.1108  0.2212  0.1255
 4547SOL    HW115894   6.560   5.542   7.182 -2.7891 -0.4107 -0.4191
 4547SOL    HW215895   6.592   5.435   7.284 -0.4718 -0.1722 -0.8266
 4548SOL     OW15896   7.180   8.769   1.475 -0.4316 -0.3871  0.3024
 4548SOL    HW115897   7.192   8.863   1.466 -0.2637 -0.3904  0.4804
 4548SOL    HW215898   7.244   8.743   1.542 -0.0816 -0.7121 -0.1508
 4549SOL     OW15899   3.468   9.342   8.923 -0.0943  0.1756  0.3160
 4549SOL    HW115900   3.426   9.265   8.887  0.7557 -0.8037  1.3546
 4549SOL    HW215901   3.556   9.313   8.948 -0.0840  1.2012  1.6391
 4550SOL     OW15902   3.175   4.694   7.343 -0.0206 -0.4502  0.4578
 4550SOL    HW115903   3.247   4.754   7.364 -0.2869 -0.0820  0.3233
 4550SOL    HW215904   3.215   4.627   7.287  0.0793  0.0971 -0.1296
 4551SOL     OW15905   6.095   4.753  10.524  0.1360 -0.3097  0.1141
 4551SOL    HW115906   6.056   4.820  10.467 -2.5504 -0.8554  1.1644
 4551SOL    HW215907   6.057   4.670  10.494  1.6135 -1.0947  0.3173
 4552SOL     OW15908   6.437   2.096   9.962  0.5749  0.3815  0.2811
 4552SOL    HW115909   6.388   2.169   9.924  0.6271  0.5034  0.4485
 4552SOL    HW215910   6.375   2.023   9.961 -0.0063  0.8281  1.5508
 4553SOL     OW15911   8.428  10.237   8.228 -0.2917 -0.0630 -0.2362
 4553SOL    HW115912   8.355  10.215   8.286 -1.0079 -1.6217 -1.6435
 4553SOL    HW215913   8.500  10.180   8.258 -0.9241 -1.5157 -1.3466
 4554SOL     OW15914   7.649  10.241   7.421 -0.1303 -0.2507  0.0616
 4554SOL    HW115915   7.566  10.274   7.457  0.7416  0.3009  1.6534
 4554SOL    HW215916   7.653  10.150   7.449 -0.8166 -0.6962 -1.2053
 4555SOL     OW15917   5.923   3.709   8.157  0.7199  0.0091  0.2457
 4555SOL    HW115918   5.935   3.658   8.076  1.3095  0.5414 -0.0128
 4555SOL    HW215919   5.842   3.675   8.195  0.0809  0.1919 -0.9019
 4556SOL     OW15920   3.790   2.010   1.992 -0.9515 -0.4975  0.1527
 4556SOL    HW115921   3.796   1.931   2.046 -0.5483 -1.8005 -1.7041
 4556SOL    HW215922   3.700   2.011   1.961 -0.9188 -0.3015  0.0659
 4557SOL     OW15923   7.525   0.207   5.360 -0.2004  0.4852 -0.4265
 4557SOL    HW115924   7.595   0.263   5.394  0.0819  0.9542 -1.7498
 4557SOL    HW215925   7.456   0.213   5.426  0.9120  0.1795  0.7999
 4558SOL     OW15926   1.699   3.108   2.064 -0.0000 -1.1037 -0.0070
 4558SOL    HW115927   1.732   3.076   1.980 -0.3266  0.0103 -0.5839
 4558SOL    HW215928   1.760   3.176   2.090 -0.7801 -0.3298 -0.1521
 4559SOL     OW15929   0.667   9.898   3.777 -0.0910 -0.0570 -0.0785
 4559SOL    HW115930   0.593   9.913   3.836 -1.4292  0.3679 -1.7798
 4559SOL    HW215931   0.677   9.981   3.730  0.9055 -0.3939 -0.4958
 4560SOL     OW15932   3.584   9.900   5.129  0.2968  0.3365  0.4174
 4560SOL    HW115933   3.513   9.958   5.102  0.3003  0.4648  0.6755
 4560SOL    HW215934   3.663   9.954   5.126  0.5327 -0.0323 -0.7074
 4561SOL     OW15935  10.627   1.606   4.808  0.2272  0.1206  0.6562
 4561SOL    HW115936  10.637   1.520   4.767 -1.3764 -0.1073  0.6714
 4561SOL    HW215937  10.700   1.613   4.870  2.9790  0.6022 -2.3353
 4562SOL     OW15938   7.910   5.373   5.257 -0.1855 -0.4699 -0.3816
 4562SOL    HW115939   7.874   5.308   5.196 -1.3448 -1.0344  0.8390
 4562SOL    HW215940   7.850   5.447   5.251 -0.0374 -0.3425 -0.2806
 4563SOL     OW15941   4.653   0.231  10.121  0.1333  0.6650  1.2330
 4563SOL    HW115942   4.725   0.226  10.185  0.7684  2.6390  0.7323
 4563SOL    HW215943   4.687   0.286  10.051 -1.3156  0.2831  0.1952
 4564SOL     OW15944   3.793   9.791   7.565  0.2644 -0.1858  0.2073
 4564SOL    HW115945   3.780   9.741   7.485 -1.1678  0.3978  0.0385
 4564SOL    HW215946   3.803   9.882   7.536 -0.8904  0.1177  0.7036
 4565SOL     OW15947  10.444   3.022   5.710  0.0402  0.3139  0.3743
 4565SOL    HW115948  10.511   3.087   5.688 -0.6026  0.7649 -0.3255
 4565SOL    HW215949  10.490   2.957   5.763  1.4937 -0.3948 -1.6314
 4566SOL     OW15950   9.732   7.244  10.290  0.4666 -0.1893 -0.2247
 4566SOL    HW115951   9.795   7.256  10.219  0.8520  2.7136  0.5039
 4566SOL    HW215952   9.764   7.167  10.337  2.7742  0.4833 -0.5880
 4567SOL     OW15953   5.262   9.678   2.046  0.4704  0.1234  0.1655
 4567SOL    HW115954   5.210   9.611   2.090 -0.6648 -0.5158 -1.9857
 4567SOL    HW215955   5.343   9.684   2.097 -0.3181 -1.3119  1.6555
 4568SOL     OW15956   1.297   7.426   0.874 -0.0165  0.2399  0.7129
 4568SOL    HW115957   1.285   7.341   0.917  0.4367 -0.1459  0.0813
 4568SOL    HW215958   1.391   7.435   0.862 -0.0420  0.9486  1.0000
 4569SOL     OW15959   0.428   2.773   8.420 -0.4246  0.0108 -0.6191
 4569SOL    HW115960   0.445   2.680   8.437 -1.6241 -0.3345 -1.1552
 4569SOL    HW215961   0.465   2.819   8.495 -1.4415 -1.0589  0.5869
 4570SOL     OW15962   5.443   2.307   9.540  0.0351 -0.3045  0.3078
 4570SOL    HW115963   5.526   2.326   9.496 -0.5687 -0.6648 -1.0733
 4570SOL    HW215964   5.445   2.359   9.620  0.8135  1.1063 -0.5913
 4571SOL     OW15965   4.267   0.649   5.550 -0.6870 -0.3833 -0.3006
 4571SOL    HW115966   4.179   0.679   5.524 -0.9976 -0.9777  0.0293
 4571SOL    HW215967   4.254   0.612   5.637 -0.7558 -3.3273 -1.4463
 4572SOL     OW15968   9.023  10.050   7.068 -0.0273 -0.4150 -0.0608
 4572SOL    HW115969   9.057  10.042   7.157 -0.8197  0.3615  0.3243
 4572SOL    HW215970   9.094  10.018   7.013  0.4806 -0.8964  0.8422
 4573SOL     OW15971   2.893   1.037   3.658 -0.2421  0.1914 -0.1104
 4573SOL    HW115972   2.807   1.018   3.621 -0.3387  0.6614 -0.1303
 4573SOL    HW215973   2.952   0.978   3.611 -0.4085  0.5698 -0.8054
 4574SOL     OW15974   8.628   9.281   8.263  0.1959 -0.3841  0.3346
 4574SOL    HW115975   8.673   9.312   8.185  0.9271  0.8800  1.2135
 4574SOL    HW215976   8.663   9.194   8.279 -0.3422 -0.8736 -1.0088
 4575SOL     OW15977   3.459   1.835   2.141 -0.0721  0.2465  0.6915
 4575SOL    HW115978   3.474   1.917   2.093 -3.3361  0.6711  0.2050
 4575SOL    HW215979   3.390   1.790   2.093  1.3984 -2.7433  1.1327
 4576SOL     OW15980   0.680   0.174   0.295  0.1700 -0.0463 -0.0203
 4576SOL    HW115981   0.646   0.166   0.384 -0.7309  1.7244 -0.1611
 4576SOL    HW215982   0.611   0.136   0.240 -0.4786  1.1959 -0.1128
 4577SOL     OW15983   0.984   8.863   6.674  0.0646  0.2942 -0.2209
 4577SOL    HW115984   0.937   8.833   6.596  0.5230  1.4514 -0.9772
 4577SOL    HW215985   1.075   8.866   6.647  0.0787  1.9834 -0.0918
 4578SOL     OW15986   2.522   7.889   3.648 -0.2023  0.6116 -0.0952
 4578SOL    HW115987   2.482   7.883   3.735 -0.0834  0.2198 -0.0640
 4578SOL    HW215988   2.492   7.809   3.603  1.8379 -0.5264  0.4673
 4579SOL     OW15989  10.358   7.111   6.768 -0.7068  0.1030  0.3212
 4579SOL    HW115990  10.277   7.090   6.722 -0.6026  1.2459 -0.4375
 4579SOL    HW215991  10.332   7.177   6.833 -0.4638  0.1866  0.3357
 4580SOL     OW15992   8.924   9.454   5.641  0.0688 -0.1578 -0.2551
 4580SOL    HW115993   8.932   9.361   5.623 -1.6039 -0.5953  1.0254
 4580SOL    HW215994   8.845   9.462   5.695 -1.0778  2.2376 -2.0491
 4581SOL     OW15995   1.398   1.680   4.012  0.8379 -0.2190  0.1483
 4581SOL    HW115996   1.357   1.720   4.089  0.1948 -0.1669 -0.2116
 4581SOL    HW215997   1.467   1.742   3.987 -0.4636  0.9462 -0.6992
 4582SOL     OW15998   4.622   9.601   4.400 -0.3877 -0.1579 -0.7743
 4582SOL    HW115999   4.633   9.552   4.481  1.5183 -0.1966 -1.0188
 4582SOL    HW216000   4.576   9.681   4.426 -0.3123 -0.4399  0.2370
 4583SOL     OW16001   9.267   4.311  10.075  0.1799  0.0328  0.3451
 4583SOL    HW116002   9.255   4.406  10.070  0.3245  0.1208  1.5206
 4583SOL    HW216003   9.179   4.275  10.065 -0.1382  0.3777  1.7818
 4584SOL     OW16004   4.476   1.609   8.484  0.2980  0.8156  0.3123
 4584SOL    HW116005   4.542   1.593   8.552  0.6866 -2.1055 -0.6259
 4584SOL    HW216006   4.413   1.538   8.495 -0.7964  1.5320 -1.0565
 4585SOL     OW16007   1.281   6.076   7.183 -0.0990  0.1412 -0.5992
 4585SOL    HW116008   1.223   6.125   7.124 -0.1573  1.1149  0.2399
 4585SOL    HW216009   1.364   6.124   7.181  0.1413 -0.2609 -0.4673
 4586SOL     OW16010   1.904   0.877   7.156 -0.3375 -0.4200 -0.3462
 4586SOL    HW116011   1.848   0.944   7.194  0.1315 -0.5770  0.6535
 4586SOL    HW216012   1.929   0.912   7.070 -0.2166  0.6106  0.1044
 4587SOL     OW16013   0.882  10.130   3.124  0.0009  0.0062 -0.7851
 4587SOL    HW116014   0.957  10.188   3.110 -0.5644  0.5573 -1.6235
 4587SOL    HW216015   0.908  10.047   3.083  0.5216 -0.1171 -0.2235
 4588SOL     OW16016   6.507   4.197   5.516  0.4117 -0.0350  0.2179
 4588SOL    HW116017   6.467   4.110   5.530  0.6148  0.1783  2.5966
 4588SOL    HW216018   6.432   4.255   5.504  0.2581 -0.4454 -0.9630
 4589SOL     OW16019   4.085   2.503   6.528  0.3140  1.0165 -0.0630
 4589SOL    HW116020   4.062   2.477   6.617 -1.9752 -1.0297 -1.1225
 4589SOL    HW216021   4.179   2.486   6.521  0.1663 -0.6472  1.3921
 4590SOL     OW16022   1.497   8.213   3.221  0.3440  0.3288 -0.3080
 4590SOL    HW116023   1.582   8.198   3.181  1.3402  2.3137  0.9149
 4590SOL    HW216024   1.514   8.212   3.316 -1.5892 -2.3730  0.1236
 4591SOL     OW16025  10.174   8.558   5.757 -0.1739  0.2120 -0.1149
 4591SOL    HW116026  10.149   8.466   5.755 -2.1634  0.7254 -0.6461
 4591SOL    HW216027  10.251   8.563   5.700  0.1186 -1.1459  0.1311
 4592SOL     OW16028  10.571   5.480   7.865  0.0724 -0.3001  0.2229
 4592SOL    HW116029  10.652   5.489   7.815  0.3029 -1.3723  0.3745
 4592SOL    HW216030  10.530   5.566   7.861  0.7834  0.0105 -0.6075
 4593SOL     OW16031   9.335   1.728   9.017 -0.2585 -0.5034  0.2424
 4593SOL    HW116032   9.251   1.694   9.046 -0.1264  0.0181  1.2751
 4593SOL    HW216033   9.366   1.664   8.953 -1.3045 -0.8435  0.0594
 4594SOL     OW16034   8.177   7.805   0.234  0.7084  0.3758 -0.4299
 4594SOL    HW116035   8.204   7.814   0.143  0.1936 -0.2106 -0.6497
 4594SOL    HW216036   8.175   7.710   0.249 -0.7849  0.4041 -0.3048
 4595SOL     OW16037   2.381   4.157   9.693  0.6816 -1.0126  0.1941
 4595SOL    HW116038   2.406   4.178   9.603  0.1852 -0.1287  0.2459
 4595SOL    HW216039   2.395   4.063   9.700 -1.7797 -1.6448 -1.6572
 4596SOL     OW16040   8.942   0.941   3.663 -0.3229  0.3954  0.4300
 4596SOL    HW116041   8.864   0.901   3.701 -0.1400 -0.0690  0.3265
 4596SOL    HW216042   9.015   0.908   3.716 -0.0508 -0.3699 -0.3731
 4597SOL     OW16043   4.033   1.340   8.017 -0.1014  0.0902  0.1905
 4597SOL    HW116044   3.978   1.417   8.003 -1.4225 -0.8967 -0.2820
 4597SOL    HW216045   4.005   1.278   7.950  1.2260 -0.6621  0.2932
 4598SOL     OW16046   4.317   3.232   8.227 -0.6224 -0.3885 -0.0811
 4598SOL    HW116047   4.260   3.289   8.279 -0.9365 -1.3996  0.7234
 4598SOL    HW216048   4.307   3.145   8.267  1.0070 -0.7104 -0.3148
 4599SOL     OW16049   1.117   8.110   2.476 -0.8320 -0.4007 -0.0312
 4599SOL    HW116050   1.066   8.092   2.555 -0.4735 -0.4625  0.1908
 4599SOL    HW216051   1.073   8.061   2.407  0.2692 -2.4041  0.6021
 4600SOL     OW16052  10.493   5.520   1.472 -0.3394 -1.1056 -0.4280
 4600SOL    HW116053  10.489   5.473   1.389  0.7759 -1.2937 -0.3983
 4600SOL    HW216054  10.585   5.512   1.499 -0.8926 -1.8900  1.3273
 4601SOL     OW16055   3.792  10.502   5.040  0.3049  0.0774 -0.2197
 4601SOL    HW116056   3.776  10.437   4.971 -2.0325 -0.8700  1.1077
 4601SOL    HW216057   3.736  10.576   5.016  0.1664  0.1073  0.1927
 4602SOL     OW16058   0.187   6.739   2.822  0.9000  0.3269 -0.1368
 4602SOL    HW116059   0.132   6.816   2.814 -0.8494 -0.8838 -0.3827
 4602SOL    HW216060   0.132   6.666   2.792  1.9336 -1.2288  1.4936
 4603SOL     OW16061   7.711   8.920   9.687  0.1406 -0.2506 -0.2072
 4603SOL    HW116062   7.782   8.947   9.628  0.4022  1.1223  0.6820
 4603SOL    HW216063   7.714   8.825   9.686  2.7776 -0.2736  0.6460
 4604SOL     OW16064   7.367   6.812   5.166  0.3144 -0.2445 -0.4132
 4604SOL    HW116065   7.341   6.899   5.136  1.9161  0.4881  0.1508
 4604SOL    HW216066   7.450   6.827   5.212  0.0771 -1.9159  0.6595
 4605SOL     OW16067   0.921  10.185   1.907  0.2333  0.2410 -0.3660
 4605SOL    HW116068   0.850  10.122   1.919 -1.6068  2.1462 -0.6981
 4605SOL    HW216069   0.877  10.267   1.885  2.5902  1.3516 -1.2808
 4606SOL     OW16070   2.971   6.106   2.484  0.9141 -0.1615 -0.9220
 4606SOL    HW116071   2.985   6.138   2.573 -1.2893 -1.2915 -0.0908
 4606SOL    HW216072   2.949   6.184   2.433 -2.4859  0.0594  0.6376
 4607SOL     OW16073   2.811   7.816   5.601  0.1638  0.0137 -0.7861
 4607SOL    HW116074   2.831   7.735   5.554 -0.2076 -0.9891  0.6796
 4607SOL    HW216075   2.716   7.810   5.618  0.3039  0.2699  0.1589
 4608SOL     OW16076   1.300   5.669   1.465  0.0084 -0.0131  0.0548
 4608SOL    HW116077   1.313   5.710   1.379 -2.3074  2.8376  0.9278
 4608SOL    HW216078   1.232   5.604   1.450 -1.1415  1.1942 -0.1326
 4609SOL     OW16079   3.661   2.935   1.020  0.0949  0.3172  0.5196
 4609SOL    HW116080   3.588   2.877   0.998  0.4145  0.5677 -1.3836
 4609SOL    HW216081   3.620   3.015   1.053 -0.6717  1.1448 -2.1565
 4610SOL     OW16082   0.412  10.022   8.140  0.0271 -1.0051  0.4075
 4610SOL    HW116083   0.424  10.066   8.056  1.1429  1.0829  1.5701
 4610SOL    HW216084   0.383  10.091   8.200  1.6227 -1.8451  2.2913
 4611SOL     OW16085   6.503   6.538   5.013 -0.7063 -0.1558  0.4799
 4611SOL    HW116086   6.525   6.547   5.106  2.0602 -1.6405  0.0586
 4611SOL    HW216087   6.545   6.457   4.986 -3.2137 -0.8612 -1.6318
 4612SOL     OW16088  10.239   9.790   9.337  0.1036  0.5124 -0.0408
 4612SOL    HW116089  10.243   9.867   9.279 -1.0469  0.5448 -0.0912
 4612SOL    HW216090  10.318   9.740   9.315 -0.1665  0.6635 -1.4400
 4613SOL     OW16091   6.474   6.786   4.632 -0.0827 -0.0643 -0.1237
 4613SOL    HW116092   6.517   6.821   4.554 -0.7432  0.9853 -0.0342
 4613SOL    HW216093   6.435   6.863   4.675 -0.0412 -0.6676  1.0464
 4614SOL     OW16094   4.372   6.900   7.457  0.3232 -0.0066  0.3319
 4614SOL    HW116095   4.311   6.927   7.389 -0.0076  3.0663  1.6711
 4614SOL    HW216096   4.458   6.903   7.415 -0.1609 -2.7803 -1.1172
 4615SOL     OW16097   4.624   8.545   7.556  1.2289  0.3250  0.0657
 4615SOL    HW116098   4.669   8.570   7.637  0.0605 -2.1916  1.6228
 4615SOL    HW216099   4.540   8.592   7.560  0.6862 -0.6894  0.9474
 4616SOL     OW16100   4.151   0.568   4.277 -0.1097  0.4000  0.1866
 4616SOL    HW116101   4.086   0.499   4.259 -0.4726  1.1053 -1.3912
 4616SOL    HW216102   4.189   0.588   4.192  1.3201  0.8724  0.9077
 4617SOL     OW16103   3.644   5.174   3.581 -0.2013  0.1583 -0.4241
 4617SOL    HW116104   3.700   5.225   3.639 -0.4153 -0.1696  0.0751
 4617SOL    HW216105   3.689   5.090   3.572  0.3948  0.5690 -1.6235
 4618SOL     OW16106   6.757   9.715   4.848  0.4383 -0.1324  0.2418
 4618SOL    HW116107   6.748   9.796   4.899 -0.6591 -0.3823  0.4741
 4618SOL    HW216108   6.832   9.731   4.791  3.0709 -0.5814  3.2806
 4619SOL     OW16109  10.585   8.991   6.152  0.2978 -0.1470 -0.3691
 4619SOL    HW116110  10.659   8.967   6.207 -1.4022  0.1742  2.2761
 4619SOL    HW216111  10.558   9.077   6.185 -0.0330  0.6851 -2.6478
 4620SOL     OW16112  10.347   9.456   1.098  0.4043  0.3061  0.2608
 4620SOL    HW116113  10.280   9.427   1.160 -0.6597  2.0457  0.0128
 4620SOL    HW216114  10.362   9.381   1.041  0.7922 -1.0567  2.0934
 4621SOL     OW16115   0.956   7.651   6.935  0.1867  0.0795  0.1624
 4621SOL    HW116116   0.972   7.562   6.903 -0.3326  0.2318 -0.5399
 4621SOL    HW216117   0.929   7.700   6.858  0.5215  0.8708  0.5295
 4622SOL     OW16118   9.884   9.681   5.107  0.6488 -0.6057 -0.0974
 4622SOL    HW116119   9.920   9.629   5.179  1.5121 -0.5710 -0.4930
 4622SOL    HW216120   9.792   9.693   5.131  0.5568 -1.8490  0.2710
 4623SOL     OW16121   5.478   0.758   0.951 -0.2045 -0.4081  0.0694
 4623SOL    HW116122   5.406   0.766   1.013 -0.6906 -1.2313 -0.3652
 4623SOL    HW216123   5.484   0.844   0.909  0.5131  0.3393  1.6369
 4624SOL     OW16124   1.929   4.500   6.776 -0.5606  0.3003  0.5812
 4624SOL    HW116125   1.997   4.474   6.714 -0.5450  1.0512  0.2626
 4624SOL    HW216126   1.975   4.512   6.859 -0.6793 -1.2727  0.8930
 4625SOL     OW16127   8.376   2.182   1.784  0.1837  0.1151  0.2971
 4625SOL    HW116128   8.368   2.277   1.793  0.5231  0.1195  0.5891
 4625SOL    HW216129   8.419   2.170   1.700  0.9229  0.2608  0.6453
 4626SOL     OW16130   5.368   9.027   4.192  0.2107  0.0167 -0.0151
 4626SOL    HW116131   5.461   9.006   4.206 -0.3221 -1.8648  1.0681
 4626SOL    HW216132   5.341   8.968   4.122 -0.1641  0.5745 -0.3390
 4627SOL     OW16133   3.073   6.807  10.351  0.4019  0.2326  0.1409
 4627SOL    HW116134   3.163   6.795  10.382  0.2772  2.2233  1.4509
 4627SOL    HW216135   3.042   6.886  10.396 -3.4981 -2.6260  3.2030
 4628SOL     OW16136   2.994   6.970   2.580  0.4584 -0.6134  0.4482
 4628SOL    HW116137   3.085   7.001   2.580 -0.0109  1.2051 -2.7742
 4628SOL    HW216138   2.945   7.040   2.623  0.3023 -0.4443 -0.0039
 4629SOL     OW16139   7.101   4.112   1.539 -0.1184  0.3480  0.0612
 4629SOL    HW116140   7.119   4.179   1.474  0.9572 -0.8984 -0.9846
 4629SOL    HW216141   7.154   4.037   1.512 -1.6958 -1.1379  0.8534
 4630SOL     OW16142  10.199   5.119   3.283  0.1722  0.1820 -0.1300
 4630SOL    HW116143  10.171   5.107   3.192 -1.2825 -0.0285  0.3163
 4630SOL    HW216144  10.269   5.184   3.278 -0.8764  1.2847 -1.2573
 4631SOL     OW16145   0.172   4.932   2.258 -0.1100 -0.0858  0.4642
 4631SOL    HW116146   0.081   4.960   2.264  0.3425  1.3617  1.2519
 4631SOL    HW216147   0.218   4.987   2.322  1.7235  1.1700 -1.7663
 4632SOL     OW16148   9.141   1.004   0.488 -0.0038 -0.5312 -0.1177
 4632SOL    HW116149   9.102   1.067   0.548  1.3254  0.4312 -0.2157
 4632SOL    HW216150   9.077   0.933   0.482 -1.5773  0.8204 -0.0404
 4633SOL     OW16151   9.615   6.279   6.654 -0.3307  0.1316 -0.3591
 4633SOL    HW116152   9.586   6.339   6.723  0.9038  0.1724  0.1438
 4633SOL    HW216153   9.698   6.245   6.686  0.5638  0.5968 -2.0992
 4634SOL     OW16154   2.326   5.928   1.095 -0.0966 -0.6944  0.0646
 4634SOL    HW116155   2.357   6.015   1.121 -1.0498  0.1628 -1.5314
 4634SOL    HW216156   2.388   5.900   1.029 -0.0315 -1.0564  0.2784
 4635SOL     OW16157   7.534   0.575   5.080 -0.0931  0.1501  0.3340
 4635SOL    HW116158   7.601   0.529   5.130 -0.1955 -0.6743 -0.2537
 4635SOL    HW216159   7.561   0.565   4.989 -0.2088  1.1334  0.1813
 4636SOL     OW16160   0.217   0.878   8.569 -0.1106 -0.3752 -0.5620
 4636SOL    HW116161   0.234   0.784   8.575  0.3478 -0.2257  0.8375
 4636SOL    HW216162   0.200   0.905   8.659  0.3822  0.9922 -0.8536
 4637SOL     OW16163   0.858   3.591   3.493 -0.0079  0.0174 -0.0541
 4637SOL    HW116164   0.831   3.671   3.449 -1.6247 -0.7009 -0.4365
 4637SOL    HW216165   0.778   3.557   3.532  0.8291 -0.9315  0.9112
 4638SOL     OW16166   8.031   2.458   6.318  0.3110  0.8007  0.0819
 4638SOL    HW116167   8.106   2.494   6.365 -0.9573  2.5235  0.9315
 4638SOL    HW216168   8.032   2.502   6.234  0.1064  1.0286  0.1980
 4639SOL     OW16169   2.851   1.013   5.138 -0.1772 -0.5808  0.5216
 4639SOL    HW116170   2.860   1.078   5.068  0.8396 -1.5881 -0.3289
 4639SOL    HW216171   2.938   0.975   5.147 -0.3119 -0.5552  2.2863
 4640SOL     OW16172  10.424   7.846   4.878 -0.6716 -0.1149  0.0170
 4640SOL    HW116173  10.338   7.836   4.837 -0.3991  0.1088 -0.6234
 4640SOL    HW216174  10.458   7.757   4.884 -0.1894 -0.0555 -1.4198
 4641SOL     OW16175  10.281   6.710   4.181 -0.0389  0.2544  0.2084
 4641SOL    HW116176  10.273   6.801   4.153 -2.2020  0.3439  0.9521
 4641SOL    HW216177  10.240   6.660   4.110  1.7309 -0.2483 -0.5145
 4642SOL     OW16178   8.301   1.191   3.063 -0.2084 -0.0779  0.0635
 4642SOL    HW116179   8.381   1.232   3.027  0.0456 -0.4023  0.2521
 4642SOL    HW216180   8.263   1.145   2.988  1.3668 -2.4104  0.5673
 4643SOL     OW16181   1.210   4.177  10.459  0.3231 -0.1739  0.0414
 4643SOL    HW116182   1.221   4.263  10.419  0.3384  0.6718  1.7819
 4643SOL    HW216183   1.127   4.145  10.424 -0.1023  0.9261  0.0088
 4644SOL     OW16184   8.337   3.501   0.436 -0.2426  0.7023 -0.4362
 4644SOL    HW116185   8.260   3.445   0.424  0.2375 -0.1007  0.1747
 4644SOL    HW216186   8.301   3.583   0.470 -0.6058 -0.8554  3.4754
 4645SOL     OW16187   4.888   6.910   0.083 -0.0603  0.2002 -0.3438
 4645SOL    HW116188   4.888   6.957  -0.000  1.8595 -0.8373 -0.9827
 4645SOL    HW216189   4.837   6.831   0.065 -1.6157  1.0252  0.1814
 4646SOL     OW16190   1.138   7.757  10.283 -0.6400  0.6930 -0.0379
 4646SOL    HW116191   1.162   7.785  10.195 -1.8664 -0.3344 -0.7295
 4646SOL    HW216192   1.220   7.756  10.331  0.0290  1.3979 -1.1324
 4647SOL     OW16193   4.986  10.309   9.988  0.3925 -0.3808 -0.0201
 4647SOL    HW116194   4.983  10.288   9.895  2.3670 -2.2964  0.2542
 4647SOL    HW216195   4.971  10.225  10.032  0.7685  0.2448  1.3775
 4648SOL     OW16196   5.777   6.838   4.139  0.2801  0.4983  0.3030
 4648SOL    HW116197   5.711   6.801   4.081  0.7792 -1.8037  1.0744
 4648SOL    HW216198   5.731   6.906   4.188 -1.3199 -0.5074  0.2676
 4649SOL     OW16199   4.642   7.691   1.884 -0.1407  0.3057  0.3339
 4649SOL    HW116200   4.632   7.596   1.881  0.9553  0.1605  0.6411
 4649SOL    HW216201   4.689   7.707   1.966 -0.6111  1.1492  0.4475
 4650SOL     OW16202  10.100   3.892   3.982  0.6465 -0.0456 -0.3787
 4650SOL    HW116203  10.159   3.959   3.947  0.7484  0.5796  0.9180
 4650SOL    HW216204  10.014   3.935   3.983  0.1865 -0.8496 -1.9730
 4651SOL     OW16205   1.498   6.217  10.169  0.2878 -0.4458  0.3309
 4651SOL    HW116206   1.532   6.139  10.126  0.9723 -0.3578  0.7079
 4651SOL    HW216207   1.406   6.196  10.188  0.3167 -0.9404 -0.0666
 4652SOL     OW16208   3.839   0.932   6.387 -0.0230 -0.0000  0.0121
 4652SOL    HW116209   3.898   0.863   6.358 -0.8057 -0.0865 -1.4846
 4652SOL    HW216210   3.885   0.974   6.460  1.5198 -0.5738 -0.5824
 4653SOL     OW16211   1.546   4.866  10.516 -0.1262 -0.0770  0.6116
 4653SOL    HW116212   1.479   4.799  10.532  0.1013 -0.2675  0.7833
 4653SOL    HW216213   1.582   4.885  10.602 -0.0633  0.1340  0.5396
 4654SOL     OW16214   6.460   9.092   0.808 -0.2472  0.5285  0.0548
 4654SOL    HW116215   6.447   9.152   0.734  0.8709  0.8115  0.0645
 4654SOL    HW216216   6.494   9.148   0.878 -1.1527  0.2370  0.7449
 4655SOL     OW16217   3.725   1.502   8.355  0.6921  0.5237  0.0644
 4655SOL    HW116218   3.638   1.537   8.374  1.2115  2.6435 -1.2005
 4655SOL    HW216219   3.709   1.411   8.330 -1.0727  0.6752  0.5050
 4656SOL     OW16220   3.688   7.322   1.873 -0.9742 -0.4957 -0.3424
 4656SOL    HW116221   3.603   7.355   1.901  0.4597  1.2257  2.3457
 4656SOL    HW216222   3.701   7.242   1.924 -0.0762  0.4767  1.0255
 4657SOL     OW16223   0.197   5.665   7.793 -1.3101  0.1792 -0.2729
 4657SOL    HW116224   0.106   5.683   7.817 -1.1171 -1.2629  1.7832
 4657SOL    HW216225   0.232   5.750   7.766 -2.8846  1.0074  0.1673
 4658SOL     OW16226   7.986   2.574   9.288  0.1644  0.5893 -0.1483
 4658SOL    HW116227   7.991   2.526   9.371 -0.0103  1.4282  0.3597
 4658SOL    HW216228   7.901   2.618   9.291 -0.8073 -1.0645 -1.7298
 4659SOL     OW16229   0.001   8.086   5.173  0.1404 -0.0163  0.1122
 4659SOL    HW116230   0.060   8.059   5.244  0.8631  2.1751  0.4136
 4659SOL    HW216231   0.059   8.102   5.099 -0.4838 -1.0322 -0.6291
 4660SOL     OW16232   9.177   6.132   7.027 -0.2780  0.0775 -0.6365
 4660SOL    HW116233   9.203   6.199   7.090  1.3442 -0.7939 -0.3265
 4660SOL    HW216234   9.214   6.162   6.944  1.0186 -0.7100 -0.3731
 4661SOL     OW16235   1.894   7.365   5.774 -0.0780 -0.4473  0.5908
 4661SOL    HW116236   1.944   7.303   5.828  1.1080 -0.5513 -0.5874
 4661SOL    HW216237   1.866   7.313   5.698  2.0190  0.6809 -1.0580
 4662SOL     OW16238   9.468   3.394   4.743 -0.6502  0.0765 -0.3061
 4662SOL    HW116239   9.490   3.307   4.709 -0.0927  0.4191 -0.8448
 4662SOL    HW216240   9.376   3.387   4.767 -0.1864 -1.1989  1.3685
 4663SOL     OW16241   0.824   4.333   3.670  0.1958  0.2661  0.1342
 4663SOL    HW116242   0.792   4.373   3.589  0.5500  1.9490  0.7750
 4663SOL    HW216243   0.856   4.407   3.722  0.4405 -0.8277  1.6080
 4664SOL     OW16244   5.482   4.797   8.701  0.1252  0.0939 -0.1177
 4664SOL    HW116245   5.449   4.708   8.689  3.0662 -1.0589 -0.2987
 4664SOL    HW216246   5.577   4.789   8.696  0.5783  3.0108  1.5339
 4665SOL     OW16247   9.333   1.634   9.692  0.0844  0.0374  0.1175
 4665SOL    HW116248   9.405   1.696   9.699  1.5350 -1.7233  1.7695
 4665SOL    HW216249   9.275   1.657   9.764 -1.2613  1.6090 -1.3528
 4666SOL     OW16250   4.807   1.293   3.968 -0.3211  0.9062  0.0669
 4666SOL    HW116251   4.877   1.228   3.978 -1.9685 -0.7773  1.2807
 4666SOL    HW216252   4.852   1.371   3.936  2.1776  0.0093  1.0919
 4667SOL     OW16253   0.797   3.867   0.389  0.3854 -0.1222 -0.1596
 4667SOL    HW116254   0.881   3.910   0.374 -0.0187  0.7715  0.0616
 4667SOL    HW216255   0.767   3.901   0.474 -0.1205 -0.5624 -0.1526
 4668SOL     OW16256   6.807   0.387   7.855 -0.1239  0.4945  0.0501
 4668SOL    HW116257   6.798   0.377   7.760 -0.1050  1.2098 -0.0307
 4668SOL    HW216258   6.874   0.455   7.865  0.5563 -0.2280  0.5853
 4669SOL     OW16259   7.378   5.916   7.117  0.3208 -0.4948  0.4234
 4669SOL    HW116260   7.294   5.931   7.159 -0.2287 -1.2533 -0.3584
 4669SOL    HW216261   7.389   5.990   7.057  0.9516  0.4129  1.6139
 4670SOL     OW16262   7.143   5.698   5.949 -0.3349  0.0881 -0.3194
 4670SOL    HW116263   7.165   5.790   5.938  1.9297 -0.2987  0.4736
 4670SOL    HW216264   7.059   5.687   5.903  0.4361  2.0426 -2.3546
 4671SOL     OW16265   8.264   3.395   2.626  0.2169 -0.3761  0.3473
 4671SOL    HW116266   8.216   3.382   2.544 -1.2553 -0.6443  1.2238
 4671SOL    HW216267   8.319   3.317   2.634  0.5094 -0.2660 -0.4569
 4672SOL     OW16268   3.039   1.640   8.048 -0.2526 -0.1061  0.1415
 4672SOL    HW116269   2.971   1.579   8.020 -0.8452  0.2414  0.7930
 4672SOL    HW216270   3.117   1.614   7.998 -1.1531  0.2188 -1.4805
 4673SOL     OW16271   9.057   8.159   3.638 -0.3043  0.3574 -0.4403
 4673SOL    HW116272   9.024   8.215   3.708  0.9082 -0.7760  1.1008
 4673SOL    HW216273   8.981   8.107   3.611 -0.5141 -0.1066  0.9713
 4674SOL     OW16274   9.172   7.804   1.830  0.4423  0.5679  0.2689
 4674SOL    HW116275   9.115   7.881   1.830 -0.1811  0.1156  0.8087
 4674SOL    HW216276   9.187   7.785   1.737  0.2218  1.0634  0.1283
 4675SOL     OW16277   7.102   8.365   1.445 -0.2428 -0.0579 -0.2411
 4675SOL    HW116278   7.138   8.454   1.441  0.1659 -0.1515  0.9569
 4675SOL    HW216279   7.050   8.357   1.365  0.5110  0.9082 -0.8496
 4676SOL     OW16280   7.494   1.601   9.632 -0.4094 -0.1568  0.0059
 4676SOL    HW116281   7.423   1.538   9.621  0.1356 -1.1737  1.8887
 4676SOL    HW216282   7.494   1.651   9.550 -1.6122 -1.8199 -1.0911
 4677SOL     OW16283   1.365   1.424   4.308 -0.1697  0.6122 -0.1620
 4677SOL    HW116284   1.455   1.442   4.336 -0.4545  1.8247  0.0233
 4677SOL    HW216285   1.317   1.412   4.390 -0.3822  1.0150 -0.2272
 4678SOL     OW16286   3.745   2.304   7.561  0.4359  0.0110  0.3792
 4678SOL    HW116287   3.812   2.372   7.552  0.1989  0.0832 -0.9961
 4678SOL    HW216288   3.696   2.307   7.479 -0.0688 -1.2958  0.6071
 4679SOL     OW16289   0.673   1.392   5.221  0.0730  0.1217  0.4712
 4679SOL    HW116290   0.737   1.463   5.215  0.4791 -0.2661  0.1946
 4679SOL    HW216291   0.706   1.325   5.162  1.3007 -1.5681  2.8974
 4680SOL     OW16292   2.881   3.153   1.980  0.3298 -0.2864 -0.1520
 4680SOL    HW116293   2.817   3.109   2.036  0.3270  1.3354  1.2092
 4680SOL    HW216294   2.964   3.140   2.025  0.0748  2.6129  1.3628
 4681SOL     OW16295   7.573   4.432   2.718  0.0036 -0.2290 -0.1833
 4681SOL    HW116296   7.516   4.478   2.657 -0.6328  1.6014  1.6756
 4681SOL    HW216297   7.516   4.367   2.760  0.1711 -0.7234 -0.6989
 4682SOL     OW16298   4.737   4.698   1.265 -0.5829 -0.4836  0.4190
 4682SOL    HW116299   4.772   4.672   1.180 -1.1644  0.5206 -0.1401
 4682SOL    HW216300   4.655   4.742   1.245 -0.8498 -0.4448  1.5253
 4683SOL     OW16301   7.697   9.286   2.083 -0.2308  0.3346  0.3016
 4683SOL    HW116302   7.661   9.363   2.126 -0.5525 -0.1270  0.8857
 4683SOL    HW216303   7.639   9.215   2.110  2.0046 -0.7759  2.6574
 4684SOL     OW16304  10.384  10.120   1.384  0.2749 -0.2962 -0.1836
 4684SOL    HW116305  10.292  10.102   1.401  0.2623 -1.8598 -1.6507
 4684SOL    HW216306  10.431  10.045   1.421  0.6506 -1.1491 -2.2590
 4685SOL     OW16307   1.318   0.734   5.007  0.1869 -0.3784 -0.2169
 4685SOL    HW116308   1.365   0.654   4.982 -2.0621 -2.4740  1.6692
 4685SOL    HW216309   1.364   0.764   5.085 -1.0737 -2.0542  1.2509
 4686SOL     OW16310   8.327   7.954  10.406 -0.2327 -0.0997 -0.2143
 4686SOL    HW116311   8.242   7.918  10.383 -0.7321  0.9327 -0.0350
 4686SOL    HW216312   8.357   7.997  10.326  0.0590 -0.3547 -0.2406
 4687SOL     OW16313   4.960   4.549   7.272  0.4007 -0.5360  0.7130
 4687SOL    HW116314   5.018   4.583   7.204 -2.9416  2.9929 -0.7482
 4687SOL    HW216315   4.995   4.584   7.353  1.9149 -1.0121  0.3014
 4688SOL     OW16316   4.919   4.684   0.610  0.2618  0.0096 -0.1722
 4688SOL    HW116317   4.968   4.672   0.692  1.3310  1.3054 -0.5878
 4688SOL    HW216318   4.929   4.601   0.564  1.9760  0.1732 -0.1679
 4689SOL     OW16319   3.461   4.349   9.617 -0.0048 -0.3099 -0.5514
 4689SOL    HW116320   3.368   4.363   9.600 -0.3584 -0.7506  0.8472
 4689SOL    HW216321   3.479   4.262   9.581 -0.8529 -1.4325  1.5137
 4690SOL     OW16322   1.480   9.956   0.407 -0.1541 -0.0662  0.1482
 4690SOL    HW116323   1.461   9.864   0.392  0.1195 -0.0711 -0.1943
 4690SOL    HW216324   1.576   9.962   0.400  0.0139 -0.0824  2.0498
 4691SOL     OW16325   9.289   6.333   4.565  0.4206 -0.1985  0.5212
 4691SOL    HW116326   9.257   6.265   4.505  0.3435  0.7042 -0.4998
 4691SOL    HW216327   9.380   6.347   4.540  0.0304  1.0915 -0.2921
 4692SOL     OW16328   9.727   5.285   7.118 -0.1672  0.1346 -0.1112
 4692SOL    HW116329   9.747   5.235   7.039 -2.2994 -1.9648  0.5735
 4692SOL    HW216330   9.668   5.354   7.088 -0.2903 -0.1296 -0.4861
 4693SOL     OW16331   1.178   1.987  10.427 -0.0508 -0.3580 -0.7595
 4693SOL    HW116332   1.090   1.964  10.399  0.3786 -1.2225 -1.4636
 4693SOL    HW216333   1.178   1.976  10.522 -0.8128  0.0553 -0.7123
 4694SOL     OW16334   7.261   5.235   8.420  0.4359  0.6840 -0.2515
 4694SOL    HW116335   7.296   5.200   8.502  1.6474  0.7329 -0.7301
 4694SOL    HW216336   7.269   5.163   8.358  1.0877  1.1635 -0.7364
 4695SOL     OW16337   6.664   1.460   7.426 -0.3110  0.5707 -0.2722
 4695SOL    HW116338   6.738   1.454   7.366 -0.0858  2.5165 -0.2590
 4695SOL    HW216339   6.590   1.484   7.370  0.0788  3.2767  0.2397
 4696SOL     OW16340   6.357   2.126   0.765 -0.4037  0.0918  0.0868
 4696SOL    HW116341   6.351   2.068   0.840 -0.2901  0.9440  0.7711
 4696SOL    HW216342   6.444   2.166   0.771 -0.5710  0.5184 -0.2275
 4697SOL     OW16343   4.830   7.621   0.902  0.1366 -0.2467  0.0489
 4697SOL    HW116344   4.758   7.557   0.898 -1.2583  1.2513  0.3450
 4697SOL    HW216345   4.821   7.673   0.822  1.1727 -0.2844 -0.1154
 4698SOL     OW16346   7.489   2.297   2.215 -0.0971  0.7486 -0.1591
 4698SOL    HW116347   7.532   2.364   2.161  0.5529 -0.1834 -0.8153
 4698SOL    HW216348   7.542   2.219   2.204  0.0027  0.4839  1.7706
 4699SOL     OW16349   8.381   0.910   8.879 -0.2607  0.5361  0.4363
 4699SOL    HW116350   8.454   0.914   8.941  1.0611  1.2493 -1.0983
 4699SOL    HW216351   8.381   0.820   8.848  1.2993  0.9811 -1.0137
 4700SOL     OW16352   0.285   8.903   1.974  0.1703  0.1097 -0.4832
 4700SOL    HW116353   0.196   8.883   2.004  0.2761  0.5685  0.1636
 4700SOL    HW216354   0.342   8.868   2.043  0.4328  0.9042 -0.2779
 4701SOL     OW16355   6.334   2.441   5.504  0.1493 -0.2228 -0.1756
 4701SOL    HW116356   6.254   2.394   5.529 -0.2300  0.6093  0.2561
 4701SOL    HW216357   6.355   2.409   5.417 -0.6932 -0.4156 -0.3170
 4702SOL     OW16358   1.497   6.925   6.939  0.0859  0.3652 -0.1319
 4702SOL    HW116359   1.483   6.835   6.967  0.3076  0.4169  0.1413
 4702SOL    HW216360   1.558   6.918   6.865 -2.6153 -0.0307 -2.5168
 4703SOL     OW16361   2.165   8.894   4.299  0.4658 -0.3488 -0.3925
 4703SOL    HW116362   2.200   8.876   4.386  1.8018 -2.3852 -1.2879
 4703SOL    HW216363   2.237   8.934   4.251  0.4029 -1.0803 -1.1313
 4704SOL     OW16364   5.360   1.872   8.466 -0.0534 -0.2454 -0.0299
 4704SOL    HW116365   5.387   1.781   8.454 -1.5730 -0.9307  1.3663
 4704SOL    HW216366   5.269   1.867   8.495 -0.0606  1.7172  0.4629
 4705SOL     OW16367   9.598   0.841   7.923  0.0291  0.4102  0.1703
 4705SOL    HW116368   9.636   0.921   7.888  0.5716  0.1407  0.1413
 4705SOL    HW216369   9.543   0.871   7.996 -0.1804  0.8550 -0.1648
 4706SOL     OW16370   5.839   2.336   6.819 -0.5077  0.5650 -0.6139
 4706SOL    HW116371   5.928   2.333   6.786 -1.2743 -0.9977 -2.8372
 4706SOL    HW216372   5.793   2.269   6.768 -2.2515 -0.9682  2.6261
 4707SOL     OW16373   6.947   6.835   1.261 -0.2314  0.2834 -0.4007
 4707SOL    HW116374   7.013   6.862   1.197 -0.0640 -0.3294 -0.4904
 4707SOL    HW216375   6.953   6.740   1.264 -0.6006  0.2690  0.1432
 4708SOL     OW16376   9.908  10.111   8.239 -0.3816  0.4046  0.8519
 4708SOL    HW116377   9.983  10.170   8.245  0.1812 -0.0599 -1.1595
 4708SOL    HW216378   9.833  10.168   8.222  0.0196  0.6377 -0.1849
 4709SOL     OW16379   9.396   1.980   7.527  0.0755  0.0942  1.5198
 4709SOL    HW116380   9.343   1.926   7.585  0.2336  0.3104  1.8725
 4709SOL    HW216381   9.406   1.929   7.447  0.4037 -0.4871  1.9259
 4710SOL     OW16382   0.267   3.233  10.580 -0.0500  0.6278  0.3588
 4710SOL    HW116383   0.319   3.245  10.659  2.1702  2.9773 -1.3092
 4710SOL    HW216384   0.320   3.176  10.524 -0.1673  1.4432 -0.6064
 4711SOL     OW16385   2.874   9.094   2.309 -0.2458 -0.1560  0.2311
 4711SOL    HW116386   2.868   9.014   2.257  1.3370 -1.1788  1.5236
 4711SOL    HW216387   2.968   9.110   2.319 -0.5061  0.6364  1.7896
 4712SOL     OW16388   5.167   1.720   1.477 -0.2933  0.4913 -0.1068
 4712SOL    HW116389   5.144   1.659   1.406 -2.7530 -1.2599  2.0314
 4712SOL    HW216390   5.098   1.786   1.474  0.2889  1.1025 -0.0906
 4713SOL     OW16391   6.541   2.483  10.625  0.4727  0.4984  0.3475
 4713SOL    HW116392   6.559   2.410  10.684 -0.6582  0.3902  0.5794
 4713SOL    HW216393   6.617   2.485  10.566  0.5984 -0.7638  0.4297
 4714SOL     OW16394   5.278   5.755   5.554 -0.3164  0.1302 -0.1162
 4714SOL    HW116395   5.225   5.819   5.602  0.2680  0.4999  0.0487
 4714SOL    HW216396   5.259   5.672   5.597  1.1335  0.6296  1.6184
 4715SOL     OW16397   5.829  10.583   3.010 -0.1546 -0.1503 -0.2340
 4715SOL    HW116398   5.906  10.629   3.043 -0.5741 -0.4682  1.2589
 4715SOL    HW216399   5.769  10.653   2.983  1.0793  0.0903 -2.5155
 4716SOL     OW16400   4.740   8.868   1.644 -0.6651  0.3269 -0.3955
 4716SOL    HW116401   4.686   8.895   1.719 -0.5113  0.5230 -0.3543
 4716SOL    HW216402   4.790   8.793   1.676 -2.2299 -1.0109 -0.9767
 4717SOL     OW16403   0.126   9.088   9.159  0.1577 -0.0114 -0.7951
 4717SOL    HW116404   0.088   9.007   9.124  0.8018 -0.6290 -0.1027
 4717SOL    HW216405   0.183   9.120   9.089 -1.1104  0.5819 -1.5966
 4718SOL     OW16406   3.767   4.896   0.978 -0.0439 -0.1490 -0.2476
 4718SOL    HW116407   3.753   4.972   1.035 -1.5059 -1.4972  1.3294
 4718SOL    HW216408   3.859   4.875   0.988  0.8666  2.4579 -2.1913
 4719SOL     OW16409   4.072   3.892   1.956 -0.0793 -0.2255 -0.4910
 4719SOL    HW116410   4.144   3.934   1.909  0.6922 -2.4121 -1.3630
 4719SOL    HW216411   4.114   3.848   2.030 -1.1532  2.2543  1.7757
 4720SOL     OW16412   3.187   0.673   9.066  0.4253  0.3876  0.1837
 4720SOL    HW116413   3.271   0.715   9.046  0.1339 -0.0977 -2.5843
 4720SOL    HW216414   3.205   0.579   9.055 -0.2580  0.2073  0.5712
 4721SOL     OW16415   4.847   8.898   4.722 -0.6528  0.4679 -0.0476
 4721SOL    HW116416   4.752   8.905   4.714 -0.6145  1.3214  0.1969
 4721SOL    HW216417   4.865   8.806   4.701 -1.6190  0.0574  0.7774
 4722SOL     OW16418   2.450   5.996   7.231 -0.0876 -0.4419 -0.0849
 4722SOL    HW116419   2.437   6.074   7.177 -0.0431  0.4925  1.1973
 4722SOL    HW216420   2.542   5.972   7.215 -0.0894 -0.2188 -0.4589
 4723SOL     OW16421   2.022   5.573   6.044 -0.2218 -0.1892 -0.3390
 4723SOL    HW116422   2.073   5.533   5.974 -0.3828 -1.4287  0.2315
 4723SOL    HW216423   2.044   5.666   6.039 -0.7665 -0.1186 -2.4752
 4724SOL     OW16424   1.477   6.016   1.705  0.1547 -0.3442  0.2839
 4724SOL    HW116425   1.428   5.934   1.703  1.0264 -0.8832 -0.0215
 4724SOL    HW216426   1.537   6.009   1.630 -0.7187  1.1935 -0.6115
 4725SOL     OW16427   9.178   6.789   1.630  0.5810  0.3273 -0.0850
 4725SOL    HW116428   9.172   6.883   1.614 -1.5768 -0.1404 -2.7679
 4725SOL    HW216429   9.089   6.762   1.652  0.5491 -1.4305 -2.0397
 4726SOL     OW16430   6.774   4.050   2.385 -0.5542 -0.0749  0.2978
 4726SOL    HW116431   6.760   4.000   2.465  2.1308 -0.0900  0.8448
 4726SOL    HW216432   6.852   4.011   2.345 -1.0081  0.8366 -1.6106
 4727SOL     OW16433   7.161   7.435   8.893  0.1420 -0.4735 -0.3684
 4727SOL    HW116434   7.082   7.457   8.942  0.3009  2.5423 -1.2549
 4727SOL    HW216435   7.129   7.417   8.804  0.4459  1.7812 -0.9917
 4728SOL     OW16436   5.117   0.316  10.112 -0.1146 -0.1417  0.2465
 4728SOL    HW116437   5.095   0.223  10.112  0.0253 -0.1772  0.6788
 4728SOL    HW216438   5.139   0.336  10.021 -2.3862  0.0214 -0.3138
 4729SOL     OW16439   6.063   1.207   4.490  0.0115  0.6431  0.2691
 4729SOL    HW116440   6.108   1.290   4.504 -0.2793  0.9087 -0.3177
 4729SOL    HW216441   6.132   1.141   4.491  0.1860  0.8386  1.2043
 4730SOL     OW16442   4.973   6.290   5.102  0.1788  0.7623 -0.1317
 4730SOL    HW116443   5.022   6.216   5.138  1.0975  2.4841  2.4224
 4730SOL    HW216444   5.013   6.307   5.017  0.4831 -1.1136 -0.4033
 4731SOL     OW16445   9.538  10.555   1.011 -0.2804  0.3954 -0.1780
 4731SOL    HW116446   9.583  10.513   1.084  0.5557  2.7693  0.7687
 4731SOL    HW216447   9.566  10.647   1.014  0.7156  0.4412 -4.1709
 4732SOL     OW16448   2.979   4.760   8.365  0.3513  0.8041  0.7035
 4732SOL    HW116449   2.970   4.689   8.427  1.1688  0.3980  0.3744
 4732SOL    HW216450   2.891   4.798   8.359 -0.7671 -1.7796 -1.0372
 4733SOL     OW16451   0.368   5.886   5.968  0.4344 -0.2494  0.3075
 4733SOL    HW116452   0.457   5.921   5.972  0.5875 -0.6774  0.6618
 4733SOL    HW216453   0.348   5.860   6.057  0.5354 -1.5906 -0.0378
 4734SOL     OW16454   8.462   1.558   6.288  0.1574 -0.9135  0.4793
 4734SOL    HW116455   8.480   1.478   6.238  0.3780  1.1053 -2.9712
 4734SOL    HW216456   8.543   1.576   6.336  1.3678 -0.9676 -1.4652
 4735SOL     OW16457   9.884   9.956   0.905  0.2948  0.2469  0.3011
 4735SOL    HW116458   9.858  10.048   0.907 -0.5205  0.0886 -1.1561
 4735SOL    HW216459   9.976   9.958   0.880 -0.2926  0.6588 -2.1065
 4736SOL     OW16460   5.017   4.251   0.219  0.2807  0.5825 -0.4032
 4736SOL    HW116461   4.980   4.199   0.148 -1.7123  3.2679 -1.5202
 4736SOL    HW216462   5.111   4.242   0.210  0.1003 -3.2068 -0.1122
 4737SOL     OW16463   3.906   0.937   5.466 -0.0949  0.2679  0.6202
 4737SOL    HW116464   3.987   0.984   5.488  0.4354 -1.0233  1.5758
 4737SOL    HW216465   3.936   0.851   5.436 -0.8478  1.3544 -4.0121
 4738SOL     OW16466   0.214   0.059   8.636  0.2067 -0.5105  0.2580
 4738SOL    HW116467   0.174   0.047   8.722  0.3110  0.4441  0.4571
 4738SOL    HW216468   0.306   0.080   8.654  0.0873  0.3185 -0.0415
 4739SOL     OW16469   9.367   3.296   1.761  0.3588  0.3108  0.0020
 4739SOL    HW116470   9.367   3.391   1.752 -3.4346  0.3676 -1.1415
 4739SOL    HW216471   9.345   3.280   1.853  0.6619  0.5470  0.1144
 4740SOL     OW16472   3.264   3.438   0.758  0.0078 -0.1790 -0.0449
 4740SOL    HW116473   3.327   3.370   0.780 -1.1295 -1.1848  0.2151
 4740SOL    HW216474   3.182   3.391   0.743 -1.5800  1.2792  3.0345
 4741SOL     OW16475   6.005   9.712   8.194  0.4958 -0.3436 -0.7258
 4741SOL    HW116476   5.924   9.680   8.152 -2.0191  2.6587  1.3372
 4741SOL    HW216477   6.023   9.648   8.262 -0.4960 -0.7980 -0.8639
 4742SOL     OW16478   6.750   4.334   6.094  0.4160  0.2755 -0.1390
 4742SOL    HW116479   6.740   4.241   6.076 -2.4887  0.2312  1.0584
 4742SOL    HW216480   6.761   4.339   6.189  0.6211  1.1590 -0.1960
 4743SOL     OW16481   3.187   3.066   7.369  0.4333 -0.4531 -0.0242
 4743SOL    HW116482   3.175   3.076   7.464  1.5876  0.9668  0.0102
 4743SOL    HW216483   3.259   3.003   7.361 -0.3172 -1.3407 -0.0089
 4744SOL     OW16484   7.593   0.576   9.501 -0.6241 -0.5145 -0.1639
 4744SOL    HW116485   7.659   0.548   9.565 -0.3390  0.7661  0.1221
 4744SOL    HW216486   7.530   0.627   9.552 -2.1102 -2.0541 -0.3561
 4745SOL     OW16487   9.671   4.021   4.509  0.5565 -0.0868 -0.6901
 4745SOL    HW116488   9.695   4.076   4.584  0.7343 -0.0090 -0.8034
 4745SOL    HW216489   9.580   4.043   4.491  0.3720 -0.4376 -0.2106
 4746SOL     OW16490   1.444   0.857   3.066 -0.0776 -0.1337  0.3097
 4746SOL    HW116491   1.526   0.906   3.079  1.1316 -0.2028 -4.6421
 4746SOL    HW216492   1.388   0.918   3.018 -0.5720 -1.8170 -1.3993
 4747SOL     OW16493   8.829   4.226   3.286 -0.1166  0.0550  0.2779
 4747SOL    HW116494   8.801   4.312   3.318 -1.4866 -0.3828  0.3137
 4747SOL    HW216495   8.767   4.205   3.215  0.5117 -0.6785 -0.0697
 4748SOL     OW16496   9.456   1.272   5.945  0.3168 -0.0598  0.2476
 4748SOL    HW116497   9.418   1.301   6.029 -2.2990  0.0349 -0.8651
 4748SOL    HW216498   9.493   1.186   5.964  0.5121  0.3120  1.6723
 4749SOL     OW16499   0.253   8.580   0.642 -0.5865  0.6387 -0.2470
 4749SOL    HW116500   0.313   8.568   0.716  0.8265  0.1650 -1.4062
 4749SOL    HW216501   0.307   8.624   0.576 -1.9137  1.3567 -0.8735
 4750SOL     OW16502   4.610  10.160   8.075 -0.1562 -0.0903  0.2990
 4750SOL    HW116503   4.616  10.232   8.139  0.7393  0.2908 -0.1812
 4750SOL    HW216504   4.542  10.188   8.015  0.0008  0.2429  0.2680
 4751SOL     OW16505   0.099   5.872   4.895 -0.0355  0.5884 -0.5122
 4751SOL    HW116506   0.175   5.919   4.862 -0.2174  0.0825 -1.7110
 4751SOL    HW216507   0.108   5.874   4.990  2.7258 -1.4415 -0.6089
 4752SOL     OW16508   6.682   8.208   0.654 -0.0660 -0.2972  0.3627
 4752SOL    HW116509   6.680   8.115   0.630 -0.3878 -0.4750  1.0579
 4752SOL    HW216510   6.766   8.239   0.620 -0.2707 -0.6626 -0.5176
 4753SOL     OW16511   2.817  10.216   4.890 -0.0495  0.3118  0.0013
 4753SOL    HW116512   2.869  10.264   4.826 -0.4578  0.8608  0.0758
 4753SOL    HW216513   2.843  10.253   4.974 -0.8835  0.8951  0.0031
 4754SOL     OW16514   6.090   4.810   2.801 -0.9458 -0.0054 -0.5621
 4754SOL    HW116515   6.166   4.754   2.818 -0.4929  1.3266  2.2805
 4754SOL    HW216516   6.128   4.896   2.784 -1.7727  0.2516 -1.1386
 4755SOL     OW16517   0.674   5.940   6.519  0.4934  0.0805 -0.2450
 4755SOL    HW116518   0.672   5.849   6.490  0.4634 -0.0595  0.1995
 4755SOL    HW216519   0.603   5.947   6.583  0.1111  0.5644 -0.7128
 4756SOL     OW16520  10.579   5.191   2.259 -0.0601 -0.7171  0.5140
 4756SOL    HW116521  10.551   5.254   2.192  2.2598 -0.3107 -0.1616
 4756SOL    HW216522  10.571   5.239   2.341 -0.8989 -0.4797  0.3056
 4757SOL     OW16523   8.568   7.292   8.730 -0.7265  0.2204 -0.3312
 4757SOL    HW116524   8.633   7.315   8.797 -0.3054 -2.9190  0.4843
 4757SOL    HW216525   8.617   7.292   8.648 -1.0295  3.1221 -0.6355
 4758SOL     OW16526   5.568   8.454   4.614 -0.0054  0.2850  0.1497
 4758SOL    HW116527   5.522   8.379   4.577  0.7610 -0.0813 -0.0949
 4758SOL    HW216528   5.507   8.527   4.605  0.3258  0.3226 -2.3121
 4759SOL     OW16529   1.450   3.918   8.978 -0.1175 -0.6398  0.3722
 4759SOL    HW116530   1.465   3.930   8.884  0.8554 -3.3713  0.1070
 4759SOL    HW216531   1.457   4.006   9.015 -1.2200  0.6146 -2.1781
 4760SOL     OW16532   1.311   5.495   3.208 -0.4909  0.2224 -0.3086
 4760SOL    HW116533   1.322   5.586   3.236 -0.4418  0.5526 -1.3471
 4760SOL    HW216534   1.216   5.484   3.201 -0.5194  0.0183  0.3470
 4761SOL     OW16535   2.309   4.227  10.398 -0.5899 -0.0613 -0.7022
 4761SOL    HW116536   2.372   4.186  10.458 -1.4007 -0.0378  0.1858
 4761SOL    HW216537   2.357   4.237  10.316  0.3490 -0.6647 -0.2402
 4762SOL     OW16538   2.929   5.771   2.345  0.1727  0.5167  0.1844
 4762SOL    HW116539   2.854   5.830   2.342  0.8280  1.3459 -2.2461
 4762SOL    HW216540   2.899   5.691   2.300 -0.3085 -0.5659  2.3262
 4763SOL     OW16541   6.514   0.615   5.813 -0.4991 -0.2784  0.5675
 4763SOL    HW116542   6.573   0.689   5.797 -1.2015  0.3759  0.8993
 4763SOL    HW216543   6.571   0.544   5.840  0.0292  0.7841  2.3978
 4764SOL     OW16544   3.672   4.840  10.038 -0.5800 -0.5401  0.2153
 4764SOL    HW116545   3.687   4.897  10.113 -0.0463 -1.4768  0.8462
 4764SOL    HW216546   3.586   4.865  10.005 -1.4677 -1.0670  2.0333
 4765SOL     OW16547   9.596   7.247   3.759  0.7909 -0.3188  0.1928
 4765SOL    HW116548   9.604   7.327   3.811  1.6063 -0.2021 -0.0987
 4765SOL    HW216549   9.585   7.178   3.824 -3.0240  0.3050  0.4036
 4766SOL     OW16550   4.275   3.072   8.977  0.0463 -0.3541  0.7377
 4766SOL    HW116551   4.280   3.008   8.907  0.7406 -3.0686  3.0726
 4766SOL    HW216552   4.340   3.138   8.955 -2.0883  0.8376 -2.7804
 4767SOL     OW16553   7.397   2.509   3.313 -0.2656 -0.3325  0.2084
 4767SOL    HW116554   7.344   2.536   3.239 -1.3673  0.5103  1.2633
 4767SOL    HW216555   7.404   2.414   3.305 -1.2039 -0.3525 -0.4349
 4768SOL     OW16556   9.527   7.212   1.819 -0.2196 -0.0441 -1.3866
 4768SOL    HW116557   9.431   7.219   1.819 -0.2588  0.6291 -4.0268
 4768SOL    HW216558   9.545   7.122   1.795 -0.0452 -1.1919  2.4348
 4769SOL     OW16559   6.084   8.460   8.780 -0.2459 -0.1853  0.2838
 4769SOL    HW116560   6.098   8.439   8.687 -0.6531 -1.6668  0.5290
 4769SOL    HW216561   5.989   8.461   8.790 -0.2320  1.4463  0.3929
 4770SOL     OW16562   2.702   6.012   4.845 -0.4286 -0.4224 -0.1582
 4770SOL    HW116563   2.666   5.945   4.788  0.7511 -1.0571 -0.1920
 4770SOL    HW216564   2.788   5.978   4.871  1.9378  2.5375 -3.0831
 4771SOL     OW16565   8.834   0.051   3.782 -0.3031 -0.3386 -0.0436
 4771SOL    HW116566   8.858  -0.036   3.813  0.0116  0.0351  0.7784
 4771SOL    HW216567   8.861   0.051   3.690  0.3612 -0.8549  0.1419
 4772SOL     OW16568   0.923   9.474   2.007 -0.0974 -0.2917 -0.2796
 4772SOL    HW116569   0.973   9.437   1.935 -0.5111  0.5607 -1.0144
 4772SOL    HW216570   0.934   9.411   2.078 -0.6051 -1.7186 -1.4188
 4773SOL     OW16571   8.233   6.358   9.387 -0.1913  0.1347  0.3291
 4773SOL    HW116572   8.287   6.352   9.308 -0.9840  0.1877 -0.2276
 4773SOL    HW216573   8.296   6.365   9.458  0.6228 -2.5943 -0.0149
 4774SOL     OW16574   6.750   0.307   6.278 -0.1399 -0.1760  0.1884
 4774SOL    HW116575   6.754   0.380   6.340 -0.4393 -0.9476  1.1346
 4774SOL    HW216576   6.761   0.348   6.192 -0.3507  0.9823  0.7001
 4775SOL     OW16577   2.130   6.500   4.398 -0.2376 -0.3156  0.1728
 4775SOL    HW116578   2.219   6.526   4.420  0.2236 -0.1361 -1.6894
 4775SOL    HW216579   2.129   6.498   4.302 -2.1519 -0.6255  0.1568
 4776SOL     OW16580   1.616   6.008   3.326  0.4226  0.1770 -0.4168
 4776SOL    HW116581   1.579   5.987   3.240  2.2678  1.5732 -1.6315
 4776SOL    HW216582   1.585   6.096   3.344 -0.2166 -0.2274  0.5402
 4777SOL     OW16583   6.928   0.710   4.587  0.1783 -0.2683  0.4539
 4777SOL    HW116584   6.918   0.804   4.571  1.5420 -0.4283 -1.7418
 4777SOL    HW216585   6.867   0.668   4.525  1.1408 -0.8485 -0.1241
 4778SOL     OW16586   0.181   4.302   0.890  0.2517 -0.0780  0.2695
 4778SOL    HW116587   0.157   4.230   0.833 -0.5010  1.3451 -1.2890
 4778SOL    HW216588   0.251   4.348   0.844  1.0064 -0.0336  1.4247
 4779SOL     OW16589   8.226   9.239   3.473  0.3587  0.2953  0.3805
 4779SOL    HW116590   8.251   9.218   3.563 -0.7645  0.0010  0.6364
 4779SOL    HW216591   8.221   9.154   3.429  0.7848  0.4294  0.0616
 4780SOL     OW16592   6.818   4.561  10.616  0.0473  0.1254  0.0272
 4780SOL    HW116593   6.874   4.636  10.634  0.0385  0.0031  0.5544
 4780SOL    HW216594   6.760   4.554  10.692  2.2061 -2.3970  1.6170
 4781SOL     OW16595   9.027   5.641   4.848 -0.6818 -0.5212 -0.8278
 4781SOL    HW116596   8.974   5.572   4.888 -2.0109  0.6008 -0.5821
 4781SOL    HW216597   9.044   5.702   4.920 -2.3479  1.0715 -1.7272
 4782SOL     OW16598   5.238   7.286   4.789  0.3310 -0.4451  0.3568
 4782SOL    HW116599   5.321   7.254   4.752 -0.5017 -0.1374 -1.9399
 4782SOL    HW216600   5.241   7.381   4.776 -0.3841 -0.4342  0.2495
 4783SOL     OW16601   2.868   1.302   0.070  0.1427  0.1036 -0.1226
 4783SOL    HW116602   2.925   1.244   0.020  1.5253  2.4531 -1.4659
 4783SOL    HW216603   2.913   1.315   0.153 -0.5405 -1.2432  0.4920
 4784SOL     OW16604   7.205   5.787   4.552  0.1025  0.0045  0.6363
 4784SOL    HW116605   7.150   5.755   4.480  0.1734  0.6408  0.2983
 4784SOL    HW216606   7.294   5.763   4.527  0.1162  0.1335  0.5627
 4785SOL     OW16607   5.468   0.777   5.732  0.0868  0.2079 -0.4171
 4785SOL    HW116608   5.469   0.870   5.755 -2.2083  0.1397  0.2977
 4785SOL    HW216609   5.402   0.740   5.791  0.3054 -1.6953 -1.3238
 4786SOL     OW16610  10.209   8.839   4.058 -0.4939 -0.1959  0.2726
 4786SOL    HW116611  10.237   8.753   4.027 -2.3279 -0.7181 -0.0400
 4786SOL    HW216612  10.291   8.887   4.072  0.5351 -1.6472 -0.4966
 4787SOL     OW16613   5.897   3.274   3.794  0.6795 -0.1171  0.4254
 4787SOL    HW116614   5.821   3.299   3.847  0.4180  0.5062 -0.2377
 4787SOL    HW216615   5.922   3.354   3.748 -0.0109 -0.9829 -1.5350
 4788SOL     OW16616   4.244   0.683   6.891  0.1358 -0.2323  0.2452
 4788SOL    HW116617   4.261   0.662   6.799 -1.3464  3.4518 -1.0780
 4788SOL    HW216618   4.149   0.688   6.898  0.2478  0.5556  1.6919
 4789SOL     OW16619   9.488   7.213   7.853 -0.4657 -0.1956  0.2139
 4789SOL    HW116620   9.552   7.163   7.904 -0.7457 -0.4058  0.3641
 4789SOL    HW216621   9.476   7.161   7.773  1.6285  1.2297 -1.1123
 4790SOL     OW16622   4.062  10.224   5.915 -0.0723 -0.3646  0.6887
 4790SOL    HW116623   4.061  10.250   6.007 -0.8190 -0.4436  0.7093
 4790SOL    HW216624   4.118  10.289   5.872 -0.8147  0.4751  0.9640
 4791SOL     OW16625   4.196   3.731   9.913 -0.4507  0.1588  0.2829
 4791SOL    HW116626   4.184   3.817   9.954 -0.3312  0.8841 -1.1572
 4791SOL    HW216627   4.113   3.685   9.930 -0.7551  0.7855  0.5250
 4792SOL     OW16628   9.394   0.790   4.982  0.3408  0.0284 -0.1360
 4792SOL    HW116629   9.349   0.711   4.951  2.8568 -0.7463 -2.2077
 4792SOL    HW216630   9.411   0.773   5.075 -0.7234 -1.0717 -0.1167
 4793SOL     OW16631   9.963   8.494   0.963 -0.4737 -0.0324 -0.0811
 4793SOL    HW116632   9.991   8.419   0.911 -1.2584 -0.1081 -0.4092
 4793SOL    HW216633  10.031   8.560   0.948 -0.2333 -0.3638 -0.4892
 4794SOL     OW16634   5.798   8.813   4.695  0.1521 -0.3287  0.2021
 4794SOL    HW116635   5.770   8.755   4.766 -0.0078 -0.9471 -0.3550
 4794SOL    HW216636   5.718   8.858   4.669 -0.6270 -2.6979 -1.9472
 4795SOL     OW16637   2.653   2.025   4.502  0.2180 -0.6605 -0.3585
 4795SOL    HW116638   2.623   2.035   4.412 -1.0142 -0.7241  0.0309
 4795SOL    HW216639   2.701   1.942   4.502 -0.7704 -1.2452 -0.7052
 4796SOL     OW16640   3.817   0.485   1.236  0.3667 -0.3741  0.1931
 4796SOL    HW116641   3.767   0.526   1.165 -2.6052  1.7167  3.1500
 4796SOL    HW216642   3.905   0.476   1.201 -0.5966  1.6603 -3.3080
 4797SOL     OW16643  10.490   6.626   5.017  0.0840  0.3041  0.1739
 4797SOL    HW116644  10.567   6.576   5.043  0.0121  0.2587  0.3063
 4797SOL    HW216645  10.492   6.704   5.073  0.0272  0.2970  0.1864
 4798SOL     OW16646   9.659   9.231   2.637  0.5011  0.1125  0.1732
 4798SOL    HW116647   9.599   9.158   2.628  0.1346  0.4606 -0.2499
 4798SOL    HW216648   9.621   9.285   2.707 -0.2482  0.8601 -0.7741
 4799SOL     OW16649   7.753   0.352   6.967  0.2128 -0.5550 -0.0951
 4799SOL    HW116650   7.845   0.328   6.973  0.3557 -0.4113 -1.4022
 4799SOL    HW216651   7.747   0.438   7.009  0.1063 -1.7777  2.6035
 4800SOL     OW16652   2.553   0.724   6.829 -0.3533 -0.1948 -0.2004
 4800SOL    HW116653   2.594   0.762   6.751 -0.0079  0.7972  0.4385
 4800SOL    HW216654   2.582   0.633   6.830 -0.5016 -0.2713 -1.3154
 4801SOL     OW16655   3.461   2.754   4.564  0.1968 -0.6064  0.0757
 4801SOL    HW116656   3.514   2.834   4.564  1.9815 -1.7283  0.8574
 4801SOL    HW216657   3.417   2.755   4.649  0.0148 -0.3377 -0.0201
 4802SOL     OW16658   2.732   9.505   9.566 -0.4574 -0.2174  0.2585
 4802SOL    HW116659   2.719   9.599   9.582  1.4303  0.0353  0.5753
 4802SOL    HW216660   2.646   9.473   9.539 -1.1990  1.5527  0.3748
 4803SOL     OW16661   9.416   6.134   0.229  0.6777 -0.4283 -0.0547
 4803SOL    HW116662   9.354   6.178   0.287 -0.2512 -1.4354 -0.2379
 4803SOL    HW216663   9.435   6.051   0.273 -0.7924 -1.6434 -1.5938
 4804SOL     OW16664   5.175   2.976   1.638 -0.2234 -0.8714  0.3634
 4804SOL    HW116665   5.178   3.066   1.606 -1.7215 -0.3723  1.4916
 4804SOL    HW216666   5.197   2.983   1.731 -1.5749 -1.4712  0.7508
 4805SOL     OW16667   8.524   0.219  10.456  0.3491  0.1430 -0.0574
 4805SOL    HW116668   8.517   0.205  10.551  3.1579 -0.6255  0.1402
 4805SOL    HW216669   8.507   0.312  10.444 -0.1847  0.2274  1.1975
 4806SOL     OW16670   5.539   8.987   1.271 -0.2933  0.1032  0.0594
 4806SOL    HW116671   5.550   8.905   1.318  0.0880  0.2415  0.2170
 4806SOL    HW216672   5.590   8.976   1.191  2.1430  1.1918  1.3411
 4807SOL     OW16673   4.388   3.487   2.372 -0.2034  0.3698 -0.4942
 4807SOL    HW116674   4.298   3.504   2.345  0.5702  1.3483 -2.6358
 4807SOL    HW216675   4.418   3.569   2.411  0.0986  0.4065 -0.7957
 4808SOL     OW16676   1.001   4.643   4.438  0.4386  0.1982 -0.4213
 4808SOL    HW116677   0.938   4.634   4.366 -0.8970  2.7667  0.2766
 4808SOL    HW216678   0.994   4.561   4.487 -2.3037  0.2707 -0.4994
 4809SOL     OW16679   0.838   3.200   1.964 -0.3708  0.2241  0.0449
 4809SOL    HW116680   0.919   3.199   1.914 -0.4285  1.0163 -0.0763
 4809SOL    HW216681   0.845   3.277   2.021 -0.8025 -0.0089  0.4265
 4810SOL     OW16682   9.160   3.765   5.144  0.4012 -0.5447 -0.1153
 4810SOL    HW116683   9.228   3.831   5.128  0.6868 -0.4766  1.2430
 4810SOL    HW216684   9.207   3.682   5.147  0.0084 -0.8746 -2.0701
 4811SOL     OW16685   0.239   3.341   6.221  0.2798  0.2458  0.4633
 4811SOL    HW116686   0.202   3.427   6.208  0.5488  0.0968 -1.4859
 4811SOL    HW216687   0.198   3.309   6.302 -1.5657  1.2584 -0.0272
 4812SOL     OW16688   6.370   9.365   9.482  0.1184 -0.5342 -0.2346
 4812SOL    HW116689   6.343   9.334   9.395 -1.5805 -0.1233  0.1032
 4812SOL    HW216690   6.291   9.356   9.536  0.7030  0.6464  0.8720
 4813SOL     OW16691   3.146   6.670   5.882  0.1428  0.4401 -0.0343
 4813SOL    HW116692   3.074   6.637   5.936 -1.0665  3.7957  0.6845
 4813SOL    HW216693   3.105   6.694   5.799  0.3301  2.3540  0.3680
 4814SOL     OW16694   6.102   7.453   4.054  0.0189  0.0475  0.5468
 4814SOL    HW116695   6.021   7.483   4.095 -0.7085 -0.7350 -0.2642
 4814SOL    HW216696   6.073   7.389   3.989  1.4558 -2.0334  1.8532
 4815SOL     OW16697   7.968   5.917   6.629 -0.2314 -0.3016  0.0569
 4815SOL    HW116698   8.001   6.005   6.609  2.3795 -1.2461 -0.1615
 4815SOL    HW216699   7.952   5.877   6.544 -2.6977  0.3246  0.1542
 4816SOL     OW16700   7.719   8.576   9.059  0.1909  0.4473 -0.5562
 4816SOL    HW116701   7.682   8.618   9.137 -0.1102 -0.4262 -0.2206
 4816SOL    HW216702   7.682   8.624   8.985 -0.3062  0.6405 -0.1817
 4817SOL     OW16703   9.568   2.121   1.057 -0.2688  0.3500  0.2220
 4817SOL    HW116704   9.525   2.035   1.065 -2.6292  1.3401 -0.7343
 4817SOL    HW216705   9.580   2.151   1.147  0.8708 -1.0729  0.5784
 4818SOL     OW16706  10.137   0.938   9.966 -0.0662  0.0322 -0.3033
 4818SOL    HW116707  10.149   0.995   9.890  3.7044  1.7058  1.2941
 4818SOL    HW216708  10.148   0.850   9.932 -0.1819  0.6272 -1.9504
 4819SOL     OW16709   8.774   5.577   5.496  0.0791  0.2472 -0.1469
 4819SOL    HW116710   8.738   5.591   5.409  1.9181  1.4957 -0.7629
 4819SOL    HW216711   8.751   5.486   5.517 -2.7996  0.7363 -0.6940
 4820SOL     OW16712   9.756   9.625   9.273 -0.3447  0.1838 -0.0471
 4820SOL    HW116713   9.754   9.561   9.203  0.6913 -0.8709  0.8449
 4820SOL    HW216714   9.829   9.683   9.251 -1.4136  1.2436 -0.9644
 4821SOL     OW16715   7.895   0.070   8.389 -0.4656  0.6560 -0.1280
 4821SOL    HW116716   7.929   0.128   8.458 -0.1018  0.6964 -0.3375
 4821SOL    HW216717   7.943   0.096   8.311  0.0529 -0.2691 -0.1203
 4822SOL     OW16718   1.362   1.864  10.216 -0.3090 -0.2764 -0.2966
 4822SOL    HW116719   1.298   1.888  10.283  0.9780 -0.2813  0.9690
 4822SOL    HW216720   1.430   1.931  10.222  0.6496 -1.2126 -0.4420
 4823SOL     OW16721   7.083   1.781   8.775 -0.6268  0.3917  0.4756
 4823SOL    HW116722   7.068   1.688   8.789 -0.1989  0.0865 -1.0053
 4823SOL    HW216723   7.014   1.824   8.827 -1.3451 -0.7603  0.5022
 4824SOL     OW16724  10.397   6.104   0.369 -0.7008  0.4230 -0.1888
 4824SOL    HW116725  10.411   6.107   0.464 -1.2813  1.0212 -0.1096
 4824SOL    HW216726  10.484   6.115   0.332 -0.0712 -2.5089  0.2458
 4825SOL     OW16727   1.256   3.299   5.871  0.3370 -0.0381 -0.5798
 4825SOL    HW116728   1.271   3.383   5.828  0.1414  0.2750 -0.0556
 4825SOL    HW216729   1.330   3.290   5.931 -0.2970  0.3887  0.3013
 4826SOL     OW16730   6.941   1.749   7.374  0.1263  0.6261  0.3516
 4826SOL    HW116731   6.933   1.655   7.388 -0.4496  0.8176  1.4300
 4826SOL    HW216732   7.033   1.763   7.355  0.0020 -0.2934 -1.0203
 4827SOL     OW16733   5.958   2.270   0.036  0.1043  0.1368 -0.8943
 4827SOL    HW116734   5.883   2.214   0.058  0.2272  0.0373 -0.7214
 4827SOL    HW216735   5.950   2.344   0.096 -0.3228  0.5455 -1.4428
 4828SOL     OW16736   0.506   2.863  10.294 -0.2170  0.1548  0.5785
 4828SOL    HW116737   0.528   2.907  10.212  0.5662  1.1293  1.2876
 4828SOL    HW216738   0.523   2.771  10.277 -0.1834  0.3293 -0.3902
 4829SOL     OW16739   0.598   0.511   8.026 -0.0957  0.4057 -0.2633
 4829SOL    HW116740   0.558   0.594   8.054  0.2145  0.4112  0.1647
 4829SOL    HW216741   0.690   0.519   8.051 -0.3035 -0.5531  0.9103
 4830SOL     OW16742   4.736   4.222   8.759 -0.4184  0.7118 -0.2834
 4830SOL    HW116743   4.798   4.267   8.703 -0.4526  1.6150  0.3903
 4830SOL    HW216744   4.662   4.282   8.766 -0.8521  0.1671 -0.0921
 4831SOL     OW16745   3.543  10.124   9.945 -0.6866  0.1382  0.3644
 4831SOL    HW116746   3.577  10.085  10.026 -2.1154  0.4147  1.1390
 4831SOL    HW216747   3.620  10.159   9.901  0.1802 -0.3908  1.4083
 4832SOL     OW16748   0.073   4.130   8.652  0.0168 -0.2296  0.2414
 4832SOL    HW116749   0.145   4.191   8.665  0.3011 -0.4932 -0.0804
 4832SOL    HW216750   0.088   4.093   8.565  0.0564 -1.0311  0.5765
 4833SOL     OW16751   7.559   3.368   0.402 -0.6652 -0.3662  0.3399
 4833SOL    HW116752   7.478   3.408   0.371  0.4419 -0.1401 -2.5850
 4833SOL    HW216753   7.592   3.320   0.327  3.3151  1.8138  0.4144
 4834SOL     OW16754   0.797   9.405   4.106  0.1175  0.4534 -0.3333
 4834SOL    HW116755   0.778   9.315   4.135  0.8707  0.1596 -0.7375
 4834SOL    HW216756   0.775   9.405   4.013  2.8235 -0.1463 -1.0421
 4835SOL     OW16757   1.953   9.097   2.646 -0.1592  0.6973 -0.6053
 4835SOL    HW116758   1.895   9.138   2.581 -1.1038 -1.1803 -1.0024
 4835SOL    HW216759   2.036   9.088   2.601 -0.3977  0.7279 -1.0612
 4836SOL     OW16760   9.174   8.663   6.671 -0.0415  0.1833  0.2384
 4836SOL    HW116761   9.097   8.712   6.702 -1.0262 -1.4246  0.4676
 4836SOL    HW216762   9.172   8.673   6.576 -0.6668 -0.0011  0.2254
 4837SOL     OW16763   5.723  10.022   7.160 -0.0789 -0.1935  0.2809
 4837SOL    HW116764   5.715   9.968   7.081  1.2504 -0.6784  0.4387
 4837SOL    HW216765   5.644  10.075   7.162 -0.7485 -1.1246 -0.6612
 4838SOL     OW16766   2.071  10.216   9.748 -0.2627 -0.0608 -0.4566
 4838SOL    HW116767   2.132  10.266   9.803 -0.1880  0.2633 -0.8228
 4838SOL    HW216768   2.073  10.128   9.784  0.0762  0.0555 -0.1760
 4839SOL     OW16769   3.559   0.672   1.778 -0.3391  0.0651 -0.5222
 4839SOL    HW116770   3.567   0.661   1.873 -1.0340 -1.5519 -0.6242
 4839SOL    HW216771   3.493   0.740   1.767 -2.3281 -1.6281  0.2015
 4840SOL     OW16772   2.042   6.894   3.302  1.3843  0.0562 -0.3209
 4840SOL    HW116773   2.070   6.844   3.379  1.0842  0.7514  0.2560
 4840SOL    HW216774   1.961   6.852   3.274  1.7567 -0.5123 -0.5756
 4841SOL     OW16775   8.477   4.601   5.194 -0.4389  0.1061 -0.1369
 4841SOL    HW116776   8.434   4.609   5.109  1.2350 -0.0650 -1.0425
 4841SOL    HW216777   8.570   4.616   5.175 -0.0905  0.5409  1.7430
 4842SOL     OW16778   2.904   8.524   0.202 -0.3000  0.0935  0.2380
 4842SOL    HW116779   2.942   8.593   0.149 -1.2575 -0.6831 -1.5539
 4842SOL    HW216780   2.979   8.482   0.244  0.7785 -0.6476 -2.2593
 4843SOL     OW16781   8.792   4.384   7.341 -0.0375 -0.2567 -0.1278
 4843SOL    HW116782   8.749   4.318   7.286  0.9865 -0.6325 -0.5021
 4843SOL    HW216783   8.720   4.429   7.384 -0.7689 -1.7667  0.3175
 4844SOL     OW16784   8.250   0.788   3.643  0.2047  0.2335  0.0978
 4844SOL    HW116785   8.341   0.815   3.655  0.2832  0.3330 -0.6789
 4844SOL    HW216786   8.255   0.694   3.629  0.3155  0.4232 -1.2079
 4845SOL     OW16787   7.911   9.841   9.631 -0.1114  0.1633 -0.0787
 4845SOL    HW116788   7.977   9.788   9.584  0.7185  1.0497  0.0543
 4845SOL    HW216789   7.955   9.868   9.711 -1.7033 -1.7946  1.5683
 4846SOL     OW16790   9.006   8.405   6.537  0.4639  0.1415  0.0512
 4846SOL    HW116791   9.020   8.387   6.444  1.8498 -2.4736  0.6643
 4846SOL    HW216792   9.059   8.483   6.555 -0.7747  1.4071 -1.5339
 4847SOL     OW16793   8.946   8.179   4.293  0.0836 -0.4843  0.9216
 4847SOL    HW116794   8.996   8.172   4.375  3.4042  1.1123 -0.7633
 4847SOL    HW216795   8.969   8.265   4.259 -2.2408 -0.5778 -1.0849
 4848SOL     OW16796   3.304   0.756   6.778 -0.0194  0.2926 -0.7894
 4848SOL    HW116797   3.221   0.747   6.826 -0.7995  0.3254 -2.0939
 4848SOL    HW216798   3.365   0.700   6.825 -0.4562  1.1409  0.8780
 4849SOL     OW16799   3.653   3.607   2.904 -0.0788 -0.1658 -0.4745
 4849SOL    HW116800   3.695   3.607   2.990  0.8396 -0.6775 -0.8967
 4849SOL    HW216801   3.718   3.646   2.846 -0.4048 -0.4749 -1.0582
 4850SOL     OW16802  10.497   7.753   1.366  0.3857 -0.3205  0.4506
 4850SOL    HW116803  10.540   7.818   1.310 -0.2630 -0.3852 -0.1387
 4850SOL    HW216804  10.567   7.717   1.420  0.7430  0.9101  0.8267
 4851SOL     OW16805   3.664  10.198   2.860  0.4337  0.7256  0.2529
 4851SOL    HW116806   3.572  10.211   2.839  0.8387  0.2782 -2.0373
 4851SOL    HW216807   3.678  10.104   2.854  0.7081  0.5796  2.3338
 4852SOL     OW16808   6.037   3.173   2.535 -0.2727 -0.4654 -0.0804
 4852SOL    HW116809   6.006   3.157   2.624 -0.8903 -0.3641 -0.2722
 4852SOL    HW216810   5.957   3.178   2.482 -0.0161  1.2963 -0.3464
 4853SOL     OW16811   6.825   4.546   8.842  0.1778  0.0042 -0.0246
 4853SOL    HW116812   6.802   4.597   8.764  1.3860 -0.3687 -0.6496
 4853SOL    HW216813   6.791   4.598   8.915  0.6540  1.3028 -0.6873
 4854SOL     OW16814   5.352   0.929   0.594  0.2044 -0.1666  0.0317
 4854SOL    HW116815   5.278   0.937   0.654 -0.7454 -0.4042 -1.0575
 4854SOL    HW216816   5.394   1.015   0.596 -0.5253  0.1942  0.1522
 4855SOL     OW16817   2.168  10.073   7.940  0.2299  0.5754 -0.3318
 4855SOL    HW116818   2.078  10.098   7.962  0.5937  0.1294  1.9280
 4855SOL    HW216819   2.168   9.977   7.944  0.9254  0.5910  0.3565
 4856SOL     OW16820   1.733   5.154   4.363 -0.1882  0.4652 -0.2121
 4856SOL    HW116821   1.810   5.131   4.311  0.2154  1.2492  0.0194
 4856SOL    HW216822   1.757   5.236   4.406 -0.3448 -0.3826  1.5707
 4857SOL     OW16823   1.181  10.144   1.766  0.1771  0.4910  0.1050
 4857SOL    HW116824   1.142  10.228   1.790 -1.6384 -0.4009  0.4862
 4857SOL    HW216825   1.126  10.111   1.695  0.9224 -0.3302 -0.1175
 4858SOL     OW16826   5.035   0.397   3.170 -0.3106  0.2382  0.0019
 4858SOL    HW116827   5.049   0.426   3.080  2.5660 -0.1937  0.1984
 4858SOL    HW216828   5.032   0.477   3.222 -0.4972  0.4307 -0.3025
 4859SOL     OW16829   5.852   9.117   1.209  0.0086  0.4173  0.5273
 4859SOL    HW116830   5.785   9.163   1.158  1.3572  1.9804  0.0694
 4859SOL    HW216831   5.840   9.151   1.298 -0.6972 -0.3908  0.7575
 4860SOL     OW16832   4.572   1.926   4.993  0.2408  0.6999  0.0280
 4860SOL    HW116833   4.525   1.976   5.059  0.6927  0.7509  0.3203
 4860SOL    HW216834   4.504   1.892   4.934 -0.2199  0.1524  0.8607
 4861SOL     OW16835   1.968   9.629   5.543  0.0669 -0.0301  0.4517
 4861SOL    HW116836   1.915   9.569   5.595 -0.3002  0.8728  1.1470
 4861SOL    HW216837   1.906   9.672   5.485  0.7525 -2.7605 -2.5998
 4862SOL     OW16838   2.667   6.571   9.336  0.1245  0.1469  0.0020
 4862SOL    HW116839   2.632   6.658   9.354  1.3124  0.3207  1.6587
 4862SOL    HW216840   2.758   6.574   9.368 -0.5924 -2.5015  2.7570
 4863SOL     OW16841   8.897   9.040   4.715 -0.2183 -0.2264  0.3529
 4863SOL    HW116842   8.808   9.030   4.748 -0.1513 -0.8039  0.3589
 4863SOL    HW216843   8.945   9.079   4.788 -0.1871 -1.0297  0.7724
 4864SOL     OW16844   5.555   2.563   8.846  0.0508 -0.6145 -0.8557
 4864SOL    HW116845   5.557   2.486   8.789 -3.9333 -0.8511 -0.9559
 4864SOL    HW216846   5.517   2.632   8.792  1.5470  0.8741 -0.1125
 4865SOL     OW16847   7.103   2.828   7.881  0.5663 -0.5641  0.1789
 4865SOL    HW116848   7.017   2.788   7.870 -0.2038  0.7977  0.9382
 4865SOL    HW216849   7.153   2.764   7.933  0.1919 -1.5732 -0.6809
 4866SOL     OW16850   4.884   2.580   5.969  0.4169  0.4230 -0.4326
 4866SOL    HW116851   4.954   2.628   6.011 -0.1186  0.6478  0.2227
 4866SOL    HW216852   4.837   2.646   5.918  0.4570  0.3466 -0.5683
 4867SOL     OW16853   0.100   0.032   8.924 -0.4259 -0.6880 -0.7963
 4867SOL    HW116854   0.011  -0.005   8.924 -0.9720  0.5640 -1.3190
 4867SOL    HW216855   0.090   0.119   8.962  0.2587  0.1159 -2.3460
 4868SOL     OW16856   1.175   1.510   3.942  0.1691 -0.2515 -0.0740
 4868SOL    HW116857   1.256   1.558   3.958 -1.1550  2.1701 -0.0858
 4868SOL    HW216858   1.188   1.426   3.985  2.2725  0.4735  0.8536
 4869SOL     OW16859   6.770   2.818   9.401  0.4709 -0.7244  0.1627
 4869SOL    HW116860   6.844   2.859   9.444  0.5518  0.0076 -0.6323
 4869SOL    HW216861   6.727   2.890   9.353 -1.0723 -1.0184  1.0397
 4870SOL     OW16862   5.981  10.279   2.561 -0.4012  0.0743 -0.1922
 4870SOL    HW116863   5.973  10.263   2.655 -0.4266 -0.8238 -0.3455
 4870SOL    HW216864   6.002  10.373   2.555 -0.4678  0.1551  0.6987
 4871SOL     OW16865   1.686   5.323   5.130 -0.4842  0.0955  0.3448
 4871SOL    HW116866   1.709   5.405   5.084  1.5097 -0.7560 -0.2931
 4871SOL    HW216867   1.658   5.264   5.060 -1.2083 -0.0207  0.7206
 4872SOL     OW16868   2.341   8.840   8.999  0.7773  0.0167 -0.0405
 4872SOL    HW116869   2.263   8.783   9.003 -0.7745  1.9910 -0.6999
 4872SOL    HW216870   2.317   8.916   9.052  2.0663  0.8929 -0.6846
 4873SOL     OW16871   1.773  10.381   6.477 -0.0575 -0.2465  0.9532
 4873SOL    HW116872   1.754  10.445   6.546  2.7119  0.3553  1.2868
 4873SOL    HW216873   1.788  10.434   6.399 -1.2963 -0.8019  0.3011
 4874SOL     OW16874   0.232  10.430   8.131 -0.1460 -0.1555 -0.0362
 4874SOL    HW116875   0.290  10.381   8.072 -1.4393 -0.2977 -1.2488
 4874SOL    HW216876   0.256  10.522   8.117  0.8075 -0.2855  0.6258
 4875SOL     OW16877   5.592   0.086   9.110 -0.4701  0.1547 -0.3045
 4875SOL    HW116878   5.629   0.094   9.022 -1.1598  0.1477 -0.6002
 4875SOL    HW216879   5.545   0.003   9.109  1.4812 -1.0363  0.8266
 4876SOL     OW16880   0.214   6.989   9.753  0.3848 -0.5213 -0.6510
 4876SOL    HW116881   0.286   6.950   9.705  0.1191 -3.5281  1.1195
 4876SOL    HW216882   0.184   6.920   9.812 -1.3941  1.8717  1.5009
 4877SOL     OW16883   2.298   9.430   7.590  0.8290  0.6547 -0.1246
 4877SOL    HW116884   2.367   9.494   7.608 -1.2420  2.9462  0.2330
 4877SOL    HW216885   2.243   9.472   7.525  0.2089 -1.4944 -1.0758
 4878SOL     OW16886   3.081   3.036   5.975  0.3821  0.3370  0.2524
 4878SOL    HW116887   3.077   3.115   5.921  0.3049  1.4702  1.8587
 4878SOL    HW216888   3.066   3.067   6.065 -1.7474 -1.7620  0.7213
 4879SOL     OW16889   5.614   7.543   7.790  0.1919 -0.4777 -0.0839
 4879SOL    HW116890   5.690   7.586   7.830 -0.8635  1.7629 -0.2979
 4879SOL    HW216891   5.638   7.533   7.698  0.9610 -1.6498  0.2207
 4880SOL     OW16892   3.143  10.473   2.761  0.0148  0.2177  0.0837
 4880SOL    HW116893   3.233  10.450   2.738  0.6089 -2.5680  4.0260
 4880SOL    HW216894   3.148  10.563   2.792  0.6691  1.2104 -2.6476
 4881SOL     OW16895   9.026   0.096   2.137  0.0477 -0.2030  0.0451
 4881SOL    HW116896   9.094   0.142   2.187 -1.2896  1.5832  0.3225
 4881SOL    HW216897   9.038   0.004   2.160  2.3419  0.0563  0.0950
 4882SOL     OW16898   0.775   3.898   0.122 -0.4257  0.4119 -0.1607
 4882SOL    HW116899   0.680   3.885   0.110 -0.4190  0.1839  0.0332
 4882SOL    HW216900   0.788   3.893   0.216  0.2809 -3.1406 -0.3225
 4883SOL     OW16901   4.104   0.821   3.697 -0.5388 -0.2624  0.2635
 4883SOL    HW116902   4.183   0.811   3.751  0.2879  1.8403 -0.4540
 4883SOL    HW216903   4.037   0.851   3.759  0.4421  2.2936  0.2148
 4884SOL     OW16904   1.856   7.268   6.935 -0.0396  0.3805 -0.6928
 4884SOL    HW116905   1.859   7.173   6.935 -0.4263  0.3540 -1.4329
 4884SOL    HW216906   1.943   7.295   6.906  0.8377  0.3358  1.7018
 4885SOL     OW16907   7.553   9.660   0.707  0.1084 -0.4944  0.6719
 4885SOL    HW116908   7.641   9.649   0.741 -0.2534 -2.2656  1.1619
 4885SOL    HW216909   7.502   9.591   0.750 -1.3652  0.0781 -0.0859
 4886SOL     OW16910   4.688   3.034   7.273 -0.1372  0.1634 -0.1976
 4886SOL    HW116911   4.663   2.944   7.295 -1.0014  0.4195 -0.1174
 4886SOL    HW216912   4.740   3.063   7.348 -0.0407 -0.1856 -0.1242
 4887SOL     OW16913   9.812   3.071   2.639  0.0961 -0.1581  0.1268
 4887SOL    HW116914   9.822   3.063   2.544  0.8760  0.9132  0.1088
 4887SOL    HW216915   9.822   3.164   2.657  2.0378 -0.5674  1.4893
 4888SOL     OW16916   9.179   3.014   4.669  0.6538 -0.3258 -0.0719
 4888SOL    HW116917   9.225   2.932   4.656  0.0933 -0.9035  1.3468
 4888SOL    HW216918   9.088   2.995   4.647  0.4611 -0.1918  0.5829
 4889SOL     OW16919   3.365   3.849   0.525  0.3209  0.2982  0.4601
 4889SOL    HW116920   3.356   3.889   0.438 -0.3885  1.1321  0.9008
 4889SOL    HW216921   3.374   3.756   0.507 -1.8002  0.1965 -0.4611
 4890SOL     OW16922   2.043   9.340   7.072  0.1848 -0.2189  0.4918
 4890SOL    HW116923   2.082   9.397   7.138 -1.3161 -0.5063  1.6948
 4890SOL    HW216924   2.098   9.350   6.995  1.7021  0.5217  1.6323
 4891SOL     OW16925   0.619   8.820   2.514 -0.4476 -0.0073  0.2779
 4891SOL    HW116926   0.601   8.759   2.586 -0.1110  0.8457  1.1044
 4891SOL    HW216927   0.574   8.782   2.438  0.2008 -1.5707  0.6304
 4892SOL     OW16928   0.049   4.776   0.222  0.9865 -0.0465 -0.1937
 4892SOL    HW116929   0.105   4.832   0.277  2.3390 -1.6406  0.1408
 4892SOL    HW216930   0.024   4.704   0.280 -0.0967 -0.1979 -0.8344
 4893SOL     OW16931   7.488  10.268   4.002  0.7598 -0.5770 -0.2496
 4893SOL    HW116932   7.492  10.361   4.023 -1.0994 -0.2135 -1.2019
 4893SOL    HW216933   7.469  10.266   3.908 -0.7885 -1.8447  0.0435
 4894SOL     OW16934   8.208   6.250   2.246  0.1241 -0.0431  0.1932
 4894SOL    HW116935   8.223   6.215   2.158 -2.2007 -3.0590  0.8360
 4894SOL    HW216936   8.162   6.333   2.232 -1.8040 -1.3232 -1.5086
 4895SOL     OW16937  10.495  10.478   8.746  0.2558  0.1468  0.4109
 4895SOL    HW116938  10.501  10.385   8.768 -2.1658 -0.4692 -1.1100
 4895SOL    HW216939  10.475  10.522   8.828  2.2899 -0.4985  1.3140
 4896SOL     OW16940   6.240   3.800   3.073 -0.7005 -0.2472  0.2530
 4896SOL    HW116941   6.163   3.844   3.038 -0.3093 -0.0443 -0.3712
 4896SOL    HW216942   6.228   3.708   3.049 -1.0596 -0.3246  0.7247
 4897SOL     OW16943   4.019  10.530   6.297 -0.1226  0.6588  0.8226
 4897SOL    HW116944   3.960  10.597   6.262 -0.5501 -0.0674  0.1445
 4897SOL    HW216945   4.033  10.557   6.388 -0.4282  1.5772  0.6112
 4898SOL     OW16946   6.200   1.941   0.594  0.5617 -0.6672  0.3263
 4898SOL    HW116947   6.131   1.882   0.623  3.0345 -2.6680  2.6849
 4898SOL    HW216948   6.222   1.992   0.671  0.7893  1.0166 -0.7874
 4899SOL     OW16949   7.012   2.628   2.928  0.1494  0.0052 -0.1391
 4899SOL    HW116950   6.998   2.548   2.877 -0.4947 -0.5307  0.8439
 4899SOL    HW216951   7.007   2.698   2.863 -0.1067 -0.6902 -0.9007
 4900SOL     OW16952   7.250   6.162   3.396 -0.0394  0.3208 -0.5764
 4900SOL    HW116953   7.326   6.197   3.443 -0.2066 -0.1555  0.0763
 4900SOL    HW216954   7.180   6.163   3.462  0.0171 -1.4423 -0.4497
 4901SOL     OW16955   5.324   1.388   7.012 -0.0302  0.3221 -0.1722
 4901SOL    HW116956   5.343   1.413   7.103 -0.3548  2.1236 -0.5545
 4901SOL    HW216957   5.405   1.350   6.979  0.4915  0.8499  0.4887
 4902SOL     OW16958   1.627   3.338   6.700  0.5257 -0.6388 -0.2394
 4902SOL    HW116959   1.712   3.335   6.744  0.8745 -1.8740 -0.9459
 4902SOL    HW216960   1.627   3.262   6.641 -1.5693 -1.4621  0.6897
 4903SOL     OW16961   2.871   1.478   7.810 -0.0268 -0.1315 -0.8107
 4903SOL    HW116962   2.921   1.553   7.781  0.5310 -0.0523  0.2893
 4903SOL    HW216963   2.925   1.402   7.787  0.2078 -0.0928 -0.4010
 4904SOL     OW16964  10.385   4.374   7.559  0.8744 -0.1062  0.8290
 4904SOL    HW116965  10.367   4.285   7.528 -1.0222  0.3521  0.4925
 4904SOL    HW216966  10.435   4.415   7.488 -2.1075  0.4478 -1.1294
 4905SOL     OW16967   4.670   1.706   0.266 -0.1879  0.3385  0.6040
 4905SOL    HW116968   4.745   1.671   0.314 -0.5826 -0.1562  0.8754
 4905SOL    HW216969   4.675   1.664   0.180 -2.0759 -2.4817  1.7227
 4906SOL     OW16970   3.720   6.822   5.554  0.4191  0.8545  0.4113
 4906SOL    HW116971   3.643   6.847   5.503 -0.7589  0.7058  2.0622
 4906SOL    HW216972   3.791   6.873   5.516 -0.1043 -0.2351 -2.2543
 4907SOL     OW16973   5.143   3.576  10.382 -0.5036  0.0139 -0.5915
 4907SOL    HW116974   5.156   3.671  10.379 -0.7478  0.0727  0.0949
 4907SOL    HW216975   5.078   3.559  10.313 -1.7259  0.5727  0.3902
 4908SOL     OW16976   6.613   4.553   3.399 -0.3179  0.4863  0.2606
 4908SOL    HW116977   6.683   4.490   3.412  2.5958  3.4414  0.1474
 4908SOL    HW216978   6.545   4.526   3.461  0.7171 -2.6505  0.2043
 4909SOL     OW16979   3.216   8.835   5.800  1.4381  0.4796 -0.2229
 4909SOL    HW116980   3.123   8.826   5.777  1.6942 -2.1179 -0.5178
 4909SOL    HW216981   3.215   8.863   5.891  0.2951 -1.4219  0.4034
 4910SOL     OW16982   8.482   6.364  10.307 -0.3202 -0.1147 -0.3645
 4910SOL    HW116983   8.464   6.274  10.332 -0.2968 -0.7137 -2.3211
 4910SOL    HW216984   8.577   6.369  10.299 -0.1903  0.5510  1.2562
 4911SOL     OW16985   9.795  10.409   7.430  0.4134 -1.4483 -0.8451
 4911SOL    HW116986   9.786  10.503   7.421 -0.1928 -1.4505 -0.3494
 4911SOL    HW216987   9.753  10.389   7.513  1.5924 -2.0066 -0.3555
 4912SOL     OW16988   3.236   9.440   8.564 -0.1321  0.3760  0.0262
 4912SOL    HW116989   3.189   9.435   8.481 -1.1830 -0.3288  0.6370
 4912SOL    HW216990   3.328   9.450   8.539 -0.4457  0.3047 -1.2167
 4913SOL     OW16991   2.088   3.678   5.525 -0.4342 -0.4776  0.6548
 4913SOL    HW116992   2.147   3.648   5.595  0.3814 -1.3885 -0.3784
 4913SOL    HW216993   2.147   3.716   5.460 -1.1449 -0.0060  0.2848
 4914SOL     OW16994   6.429   2.240   1.149 -0.1719  0.3051  0.0212
 4914SOL    HW116995   6.377   2.207   1.075  0.6278  3.0479 -1.9582
 4914SOL    HW216996   6.472   2.163   1.185  0.0245 -1.0915 -2.9187
 4915SOL     OW16997   3.470   8.599  10.528 -0.4019  0.4289 -0.1119
 4915SOL    HW116998   3.530   8.619  10.600  0.0410  1.8265 -0.8416
 4915SOL    HW216999   3.383   8.620  10.563 -0.3861 -0.5120  0.5574
 4916SOL     OW17000   6.348  10.349   9.294  0.2957 -0.2695  0.1742
 4916SOL    HW117001   6.373  10.268   9.339  0.6857 -0.1216  0.2326
 4916SOL    HW217002   6.261  10.369   9.327  0.6566 -0.0524  1.0406
 4917SOL     OW17003   2.623   2.093   5.162  0.0091  0.1306 -0.7868
 4917SOL    HW117004   2.550   2.144   5.197 -0.1161  0.2852 -1.2568
 4917SOL    HW217005   2.583   2.036   5.095  0.5283  1.3547 -2.2008
 4918SOL     OW17006   2.601   3.470  10.375  0.0915  0.2256  0.5104
 4918SOL    HW117007   2.524   3.460  10.319 -0.5843  0.0716  1.4606
 4918SOL    HW217008   2.675   3.464  10.314 -0.6416  0.5616 -0.4363
 4919SOL     OW17009   3.686   9.351   4.000  0.4932 -0.1261 -0.2033
 4919SOL    HW117010   3.591   9.365   4.003  0.2994 -1.2904 -0.0178
 4919SOL    HW217011   3.702   9.315   3.913  0.5233 -1.2939  0.2582
 4920SOL     OW17012   4.240   8.558   6.293 -0.1416  0.0709 -0.2923
 4920SOL    HW117013   4.187   8.637   6.285  0.8469  0.8520  0.5268
 4920SOL    HW217014   4.282   8.549   6.208 -0.4471  0.2862 -0.4695
 4921SOL     OW17015   9.190   3.007   2.725 -0.4348 -0.2729 -0.0447
 4921SOL    HW117016   9.143   2.930   2.758 -0.3836 -0.4743 -0.4351
 4921SOL    HW217017   9.280   2.994   2.754 -0.8009  0.6397  1.6314
 4922SOL     OW17018   8.680   1.455   9.216  0.3958  0.3312  0.2227
 4922SOL    HW117019   8.711   1.532   9.265  0.3444  0.2457  0.3929
 4922SOL    HW217020   8.585   1.464   9.216  0.3875  0.2497  0.2772
 4923SOL     OW17021  10.575   7.866  10.456 -1.0040 -0.2764 -0.4668
 4923SOL    HW117022  10.639   7.844  10.387 -0.8814  0.1016 -0.4754
 4923SOL    HW217023  10.586   7.960  10.469 -3.2990  0.3081 -2.2256
 4924SOL     OW17024   6.677   0.344   0.964  0.1265  0.0139  0.6272
 4924SOL    HW117025   6.743   0.328   1.031  1.8068  1.8950 -0.4289
 4924SOL    HW217026   6.684   0.269   0.905  1.1763  0.0692  0.6649
 4925SOL     OW17027   3.015   1.667   6.754 -0.6846 -0.1486 -0.5458
 4925SOL    HW117028   2.976   1.581   6.766 -2.2214  0.7486  1.3640
 4925SOL    HW217029   2.987   1.718   6.830  1.9594  1.4325 -0.4925
 4926SOL     OW17030   9.600   2.233   0.771  0.1808 -0.5146 -0.2233
 4926SOL    HW117031   9.604   2.201   0.861 -1.1531 -2.0439 -0.6764
 4926SOL    HW217032   9.509   2.262   0.759  0.9851  2.3262 -0.2604
 4927SOL     OW17033   1.403   0.831   5.248  0.0185  0.6615 -0.4057
 4927SOL    HW117034   1.410   0.842   5.343  1.4792 -0.9046 -0.2901
 4927SOL    HW217035   1.477   0.880   5.213  0.0344  0.4582 -0.6556
 4928SOL     OW17036   8.919   7.954   9.144 -0.3131 -0.7152 -0.0932
 4928SOL    HW117037   8.873   8.017   9.088 -1.1174 -0.0522  1.2575
 4928SOL    HW217038   8.929   7.876   9.090 -0.1517  0.2446 -1.4891
 4929SOL     OW17039   1.478   8.065   2.810 -0.2862  0.0412  0.0873
 4929SOL    HW117040   1.437   7.999   2.755 -1.7805  0.7955  0.2522
 4929SOL    HW217041   1.423   8.069   2.888  0.7871  0.2509  0.8581
 4930SOL     OW17042   6.672   9.015   2.062 -0.2460 -0.3277  0.3230
 4930SOL    HW117043   6.590   9.058   2.038  1.1393  3.0456  1.0607
 4930SOL    HW217044   6.731   9.034   1.989  0.6668 -0.2088  1.0719
 4931SOL     OW17045   5.048   7.943   0.495 -0.0045  0.5396 -0.0895
 4931SOL    HW117046   5.072   8.028   0.534 -0.9940  0.6290  0.3428
 4931SOL    HW217047   5.128   7.891   0.503  0.4297  1.2328  0.2135
 4932SOL     OW17048   3.260  10.278   5.968  0.6476 -0.1541  0.5708
 4932SOL    HW117049   3.324  10.303   5.903  1.4197  0.9092  1.7028
 4932SOL    HW217050   3.281  10.187   5.989  2.6660  0.5652  1.8764
 4933SOL     OW17051   3.395   9.558   6.640  0.6127  0.1405  0.1021
 4933SOL    HW117052   3.377   9.472   6.677 -1.6647  1.0550  1.3129
 4933SOL    HW217053   3.386   9.546   6.545 -1.7811 -0.5778  0.3597
 4934SOL     OW17054   8.378   1.191   4.910 -0.2931 -0.3102  0.4586
 4934SOL    HW117055   8.398   1.141   4.831 -0.3427 -0.9541  0.8499
 4934SOL    HW217056   8.326   1.265   4.878 -1.8838 -1.5267  0.0869
 4935SOL     OW17057   3.137   1.363   2.175  0.0759  0.4044 -0.2423
 4935SOL    HW117058   3.089   1.327   2.101 -0.5189  0.1893  0.2360
 4935SOL    HW217059   3.226   1.378   2.142 -0.5670  1.8178 -1.4764
 4936SOL     OW17060   7.468   8.415   7.139  0.0210 -0.0392 -0.1175
 4936SOL    HW117061   7.464   8.499   7.094 -2.3730 -0.0235  0.0209
 4936SOL    HW217062   7.440   8.351   7.074 -1.7206 -0.2396  0.7785
 4937SOL     OW17063   5.921   2.684  10.157  0.3662  0.1501  0.3203
 4937SOL    HW117064   5.911   2.773  10.122 -0.7677  0.4327  1.2797
 4937SOL    HW217065   5.951   2.697  10.247  0.9495 -0.4711  0.2159
 4938SOL     OW17066   8.548   3.123   9.447 -0.1880  0.1443 -0.5366
 4938SOL    HW117067   8.616   3.072   9.491 -0.1606  0.6174 -0.0215
 4938SOL    HW217068   8.570   3.118   9.354  1.4978  1.6453 -0.2485
 4939SOL     OW17069   0.067   3.102   2.510 -0.2365  0.0171  0.2141
 4939SOL    HW117070   0.101   3.108   2.600  1.5490 -0.6807 -0.3807
 4939SOL    HW217071   0.144   3.085   2.456 -1.2637  0.5423 -1.4897
 4940SOL     OW17072   0.688   9.924  10.173  1.0433 -0.2012 -0.5194
 4940SOL    HW117073   0.721   9.962  10.092  0.1512  1.3455 -0.2117
 4940SOL    HW217074   0.741   9.964  10.242  1.8375 -1.5517 -0.3239
 4941SOL     OW17075   1.418   9.816  10.404 -0.2777  0.2524 -0.0534
 4941SOL    HW117076   1.363   9.828  10.481  0.5308  0.5942  0.4876
 4941SOL    HW217077   1.377   9.744  10.356 -0.3594 -0.4964  1.0996
 4942SOL     OW17078   8.143   0.615   4.172  0.1399 -0.6624  0.5561
 4942SOL    HW117079   8.057   0.595   4.133  0.1715 -0.4643  0.3765
 4942SOL    HW217080   8.187   0.667   4.104  0.0695 -0.0249  0.9866
 4943SOL     OW17081   3.588   7.444   4.874 -0.0911  0.6097  0.2756
 4943SOL    HW117082   3.681   7.421   4.876 -0.4258 -0.9240 -0.2567
 4943SOL    HW217083   3.543   7.361   4.858 -1.4158  1.6590 -1.8936
 4944SOL     OW17084  10.219   1.358   9.703 -0.3823 -0.5524 -0.5566
 4944SOL    HW117085  10.141   1.394   9.745 -0.5327 -1.1760 -0.2887
 4944SOL    HW217086  10.254   1.430   9.651  1.5075  1.2792  2.8868
 4945SOL     OW17087   7.477   2.184  10.072 -0.2172 -0.2002 -0.1212
 4945SOL    HW117088   7.429   2.198   9.990  0.2949  1.5618 -0.1703
 4945SOL    HW217089   7.431   2.112  10.115 -1.0769 -0.5288 -1.5216
 4946SOL     OW17090   3.684   0.959   8.650 -0.2648 -0.3662 -0.5023
 4946SOL    HW117091   3.686   0.873   8.610  0.0159 -0.5530 -0.0907
 4946SOL    HW217092   3.771   0.970   8.688 -0.1171  0.3222 -1.0277
 4947SOL     OW17093   8.031   7.285   4.898 -0.1690 -0.0483 -0.7227
 4947SOL    HW117094   8.064   7.364   4.855  1.0061 -0.9033 -1.4459
 4947SOL    HW217095   8.085   7.277   4.977  0.0959 -0.4288 -0.9413
 4948SOL     OW17096   4.401   0.946   1.761  0.1740  0.6747 -0.1864
 4948SOL    HW117097   4.317   0.970   1.723 -0.4933 -0.4684  0.5130
 4948SOL    HW217098   4.380   0.880   1.827  1.6987 -0.1975 -0.5178
 4949SOL     OW17099   6.564   7.095   8.800 -0.0264  0.2525 -0.2157
 4949SOL    HW117100   6.642   7.041   8.815 -0.4308 -0.7048 -1.3369
 4949SOL    HW217101   6.537   7.072   8.710 -1.6484  0.4806  0.1873
 4950SOL     OW17102   3.923   9.010   1.411  0.0487  0.4106 -0.7711
 4950SOL    HW117103   3.865   8.934   1.399  0.3918  0.1276 -0.6379
 4950SOL    HW217104   3.972   9.016   1.330  0.8102 -0.1811 -0.3596
 4951SOL     OW17105   5.983   3.056   0.423 -0.0975  0.0960 -0.1452
 4951SOL    HW117106   5.991   3.152   0.420 -0.0053  0.0882 -2.5300
 4951SOL    HW217107   6.071   3.025   0.444 -0.4439  0.4999  2.1950
 4952SOL     OW17108  10.015   5.336   6.287  0.1939 -0.4781  0.0565
 4952SOL    HW117109   9.984   5.289   6.364  2.1733 -0.0890  1.1642
 4952SOL    HW217110   9.944   5.396   6.264 -2.2160 -3.4649 -1.0785
 4953SOL     OW17111   6.778   7.774   9.298 -0.0344 -0.3544 -0.0984
 4953SOL    HW117112   6.859   7.784   9.247  1.3780 -0.4971  2.0073
 4953SOL    HW217113   6.726   7.851   9.274  3.0298  2.8241  2.3903
 4954SOL     OW17114   0.724   8.902   3.291  0.5255 -0.0022 -0.0027
 4954SOL    HW117115   0.643   8.952   3.281  0.4494 -0.4793 -2.2362
 4954SOL    HW217116   0.697   8.820   3.332 -0.5947 -1.1259 -2.7606
 4955SOL     OW17117   4.647   1.280   6.985  0.3642  0.1959  0.7016
 4955SOL    HW117118   4.562   1.323   6.970  0.4082  0.0106 -0.1204
 4955SOL    HW217119   4.706   1.320   6.921 -0.1493 -2.6806 -1.8469
 4956SOL     OW17120   7.641   8.975  10.648 -0.2794  0.1826 -0.2057
 4956SOL    HW117121   7.716   9.006  10.699  1.4975 -2.0893 -1.2423
 4956SOL    HW217122   7.592   8.919  10.708 -1.1353  1.5802  0.4409
 4957SOL     OW17123   1.563   5.549   3.413 -0.5556 -0.1032 -0.2453
 4957SOL    HW117124   1.600   5.567   3.499 -0.9809  1.2037 -0.3231
 4957SOL    HW217125   1.475   5.587   3.416 -0.2303  0.8045 -1.5761
 4958SOL     OW17126   2.261   3.145   8.448 -0.1766  0.3315 -0.2969
 4958SOL    HW117127   2.244   3.201   8.373 -0.4758  1.5834  0.6740
 4958SOL    HW217128   2.353   3.160   8.470  0.4608 -1.4181 -1.4750
 4959SOL     OW17129  10.254   7.935   6.456 -1.1468  0.0910  0.2233
 4959SOL    HW117130  10.272   8.013   6.403 -1.8919  0.6005  0.7090
 4959SOL    HW217131  10.160   7.938   6.473 -1.0489 -0.4851  0.9347
 4960SOL     OW17132   8.788   8.804   1.579  0.2840  0.1818  0.1487
 4960SOL    HW117133   8.842   8.880   1.599  0.0893  0.0417  1.2746
 4960SOL    HW217134   8.709   8.816   1.633  0.0657 -0.6014  0.0122
 4961SOL     OW17135   7.813   3.454   8.712  0.3776  0.4695 -0.0953
 4961SOL    HW117136   7.836   3.542   8.741 -2.1442  1.1001  0.2249
 4961SOL    HW217137   7.883   3.398   8.746  1.6608  2.2335  0.2869
 4962SOL     OW17138   4.185   6.183   5.666 -0.1123  0.0539  0.0137
 4962SOL    HW117139   4.236   6.118   5.715 -0.6599  0.1042  0.6653
 4962SOL    HW217140   4.155   6.245   5.733 -0.6720  0.2561 -0.4192
 4963SOL     OW17141   8.025   1.103   7.620 -0.0823 -0.2693 -0.2770
 4963SOL    HW117142   8.072   1.111   7.537 -1.2446 -0.8289 -1.0296
 4963SOL    HW217143   8.022   1.009   7.637  4.0152 -0.1089  2.7932
 4964SOL     OW17144  10.580   6.227   4.520  0.1516  0.1636 -0.3857
 4964SOL    HW117145  10.558   6.291   4.452  1.0588 -0.1611 -0.9941
 4964SOL    HW217146  10.496   6.184   4.539 -0.0754  0.0549 -1.5151
 4965SOL     OW17147   2.858  10.578   5.046  0.4606  0.4748  0.0742
 4965SOL    HW117148   2.829  10.487   5.038  0.9390  0.4280 -1.7412
 4965SOL    HW217149   2.807  10.614   5.119  0.8949 -1.4682  1.3871
 4966SOL     OW17150   5.135   4.647   6.350  0.1516 -0.2001  0.0894
 4966SOL    HW117151   5.066   4.705   6.383  0.5517  0.7476 -0.7119
 4966SOL    HW217152   5.088   4.569   6.321 -0.5192  0.2007  0.0738
 4967SOL     OW17153   3.616   2.254   5.853 -0.0169 -0.3297  0.7161
 4967SOL    HW117154   3.694   2.308   5.837  0.7282 -1.8176 -1.1713
 4967SOL    HW217155   3.625   2.225   5.944 -1.1842  3.7037  2.3277
 4968SOL     OW17156   3.941  10.003   6.933  0.4876  0.2258 -0.0164
 4968SOL    HW117157   4.004   9.988   6.862  1.4689  0.6138  0.7450
 4968SOL    HW217158   3.991   9.984   7.013 -0.5317  0.0190  0.5868
 4969SOL     OW17159   9.369   5.215   8.057 -0.3367 -0.2970 -0.2363
 4969SOL    HW117160   9.419   5.217   7.976  0.0713 -0.7237  0.0017
 4969SOL    HW217161   9.314   5.138   8.050  1.9453 -2.1821  1.1929
 4970SOL     OW17162   9.481   3.290   8.161 -0.1967 -0.2855 -0.2945
 4970SOL    HW117163   9.461   3.369   8.112  3.1249 -0.3158 -1.9927
 4970SOL    HW217164   9.576   3.294   8.176 -0.4121 -2.3819  2.4847
 4971SOL     OW17165   5.536   8.889   3.410  0.0852 -0.0225  0.4578
 4971SOL    HW117166   5.457   8.900   3.462 -0.6284 -0.8057 -0.4392
 4971SOL    HW217167   5.572   8.805   3.437  0.0182 -0.1690  0.0999
 4972SOL     OW17168   0.049   5.676   6.591 -0.6942  0.0165  0.4433
 4972SOL    HW117169   0.071   5.585   6.570 -1.5808 -0.0900 -0.0887
 4972SOL    HW217170   0.012   5.711   6.510 -0.8191  0.7132  0.7905
 4973SOL     OW17171   1.735  10.269   2.758  0.6715 -0.2207  0.6942
 4973SOL    HW117172   1.675  10.282   2.684  0.0000 -0.3155  1.2150
 4973SOL    HW217173   1.819  10.252   2.717  0.6057  1.0928 -0.0475
 4974SOL     OW17174   9.785   3.823   6.910 -0.0365 -0.3131 -0.2274
 4974SOL    HW117175   9.767   3.813   7.004  0.0234 -0.8178 -0.2647
 4974SOL    HW217176   9.749   3.908   6.887 -2.3435 -1.2286 -0.3005
 4975SOL     OW17177   0.374   5.102   3.466  0.1067 -0.0848  0.2278
 4975SOL    HW117178   0.293   5.101   3.517 -0.0334 -0.4136 -0.0025
 4975SOL    HW217179   0.346   5.110   3.375  0.3412  0.0013  0.1607
 4976SOL     OW17180   9.079   6.016   7.943  0.0190  0.0354  0.3438
 4976SOL    HW117181   9.054   6.105   7.916  0.1729  0.0279  0.1719
 4976SOL    HW217182   9.107   5.974   7.862  0.8434  0.1304  0.5659
 4977SOL     OW17183   5.714   0.144   8.215 -0.3404 -0.3347  0.0596
 4977SOL    HW117184   5.695   0.192   8.134 -0.4513 -0.7406 -0.1619
 4977SOL    HW217185   5.636   0.156   8.269 -0.9946 -1.4537 -0.5819
 4978SOL     OW17186   7.775   8.056   3.495 -0.2041  0.2552 -0.2402
 4978SOL    HW117187   7.748   7.989   3.432 -1.3225 -1.0922  1.5875
 4978SOL    HW217188   7.699   8.113   3.503 -0.6280 -0.4507  0.9644
 4979SOL     OW17189   5.446   9.439   6.230  0.8191  0.5299 -0.0849
 4979SOL    HW117190   5.472   9.507   6.168  1.1186  1.1506  0.7066
 4979SOL    HW217191   5.356   9.462   6.253  1.2812  1.3199  1.0204
 4980SOL     OW17192   4.359   0.762   3.797  0.2132  0.1328 -0.7688
 4980SOL    HW117193   4.380   0.674   3.828 -2.2292 -0.0803  0.4677
 4980SOL    HW217194   4.370   0.757   3.702  0.7224 -1.3142 -0.6518
 4981SOL     OW17195   0.747   8.736   8.472 -0.3102 -0.2688  0.4287
 4981SOL    HW117196   0.656   8.712   8.458 -0.4845 -1.3818  2.9224
 4981SOL    HW217197   0.795   8.654   8.463  0.3877  0.1981 -0.2402
 4982SOL     OW17198  10.203   1.982   4.293  0.6284 -0.9369  0.5925
 4982SOL    HW117199  10.231   1.905   4.343  1.1601 -2.4620 -1.8888
 4982SOL    HW217200  10.284   2.026   4.269  0.6012 -1.7437 -1.1314
 4983SOL     OW17201   6.451   5.829   8.882 -0.1463 -0.1479  0.1512
 4983SOL    HW117202   6.435   5.761   8.947 -1.9462 -0.4016 -0.5127
 4983SOL    HW217203   6.388   5.897   8.903 -1.3920 -0.6249 -1.8527
 4984SOL     OW17204   2.810  10.098  10.364 -0.0150 -0.2342  0.0568
 4984SOL    HW117205   2.720  10.111  10.394 -0.1598  0.8325 -0.8171
 4984SOL    HW217206   2.818  10.152  10.286  1.9409  1.1566  1.1372
 4985SOL     OW17207   5.243   0.465   6.121 -0.3519 -0.5162 -0.2766
 4985SOL    HW117208   5.215   0.389   6.071  1.9815 -1.8970  0.3577
 4985SOL    HW217209   5.244   0.435   6.212  2.4404 -0.4588 -0.1865
 4986SOL     OW17210   2.224   7.503   0.803 -0.4086  0.2028  0.1539
 4986SOL    HW117211   2.185   7.440   0.742 -2.4650  0.9390  0.6459
 4986SOL    HW217212   2.238   7.582   0.750  0.2238  0.0266  0.0446
 4987SOL     OW17213  10.387   9.328   7.303  0.0965  0.0769 -0.2034
 4987SOL    HW117214  10.362   9.410   7.259  2.9462  0.1818 -1.8499
 4987SOL    HW217215  10.466   9.350   7.352 -0.6949 -1.0903  1.6946
 4988SOL     OW17216   5.737   3.904   3.895 -0.3939  0.1099  0.9427
 4988SOL    HW117217   5.759   3.884   3.986 -1.4799 -0.0993  1.1671
 4988SOL    HW217218   5.793   3.846   3.844 -0.7190 -0.7121  1.5099
 4989SOL     OW17219   3.098  10.390   0.686  0.1029  0.3216 -0.4365
 4989SOL    HW117220   3.057  10.414   0.603  0.5312 -0.4108 -0.8648
 4989SOL    HW217221   3.028  10.350   0.737  0.2171 -0.7304 -1.0817
 4990SOL     OW17222   2.185   9.171   3.625  0.1865  0.0770  0.5803
 4990SOL    HW117223   2.180   9.107   3.554 -0.7929  0.2042  0.5163
 4990SOL    HW217224   2.245   9.238   3.593 -2.1906  1.4610 -1.2472
 4991SOL     OW17225   7.865   6.707   4.099  0.0907  0.6546  0.0696
 4991SOL    HW117226   7.885   6.742   4.185  0.4181  1.5310 -0.3418
 4991SOL    HW217227   7.793   6.646   4.113  0.5535  0.3291  1.0378
 4992SOL     OW17228   1.611   4.122   5.159  0.1058  0.0769  0.2798
 4992SOL    HW117229   1.639   4.209   5.129  0.7333  0.1653  1.0913
 4992SOL    HW217230   1.518   4.134   5.180 -0.0165  0.3399 -0.3771
 4993SOL     OW17231   9.472   7.260   1.175  0.1645 -0.5791  0.3756
 4993SOL    HW117232   9.422   7.209   1.111 -0.3168 -0.6468  0.7995
 4993SOL    HW217233   9.433   7.348   1.170  1.0825 -0.2053 -0.4546
 4994SOL     OW17234   4.968   9.873   6.828  0.1667  0.6347  0.1504
 4994SOL    HW117235   4.958   9.835   6.740  0.6831  1.3402 -0.2252
 4994SOL    HW217236   4.880   9.868   6.866 -0.3101  1.2761 -0.8116
 4995SOL     OW17237   2.521  10.446   7.658 -0.0007 -0.3250  0.3060
 4995SOL    HW117238   2.606  10.432   7.700  0.1468 -0.5689 -0.0688
 4995SOL    HW217239   2.457  10.436   7.729  0.1950 -1.4484  0.3405
 4996SOL     OW17240   0.677   6.319   1.158  0.0248 -0.6594 -0.3178
 4996SOL    HW117241   0.685   6.395   1.101 -0.6740 -0.1697  0.2219
 4996SOL    HW217242   0.659   6.355   1.244  1.8042 -1.3453  0.4051
 4997SOL     OW17243  10.168   4.445   8.776 -0.7422  0.3037  0.5069
 4997SOL    HW117244  10.216   4.381   8.723  2.7294  1.5028  1.9107
 4997SOL    HW217245  10.118   4.391   8.838  2.2065 -1.2090  1.7626
 4998SOL     OW17246   2.540   2.012   1.368 -0.3879  0.7894 -0.5705
 4998SOL    HW117247   2.498   1.954   1.305  0.2952  0.0669 -0.3816
 4998SOL    HW217248   2.634   1.994   1.358 -0.2983  0.0366  1.2201
 4999SOL     OW17249   7.751   1.605   1.948  1.0927 -0.7110 -0.6844
 4999SOL    HW117250   7.704   1.580   1.869 -0.6921  0.8041 -0.1648
 4999SOL    HW217251   7.800   1.684   1.922 -0.0702  0.2198 -0.1388
 5000SOL     OW17252   0.001   7.458   2.374  0.3857 -0.7660  0.1148
 5000SOL    HW117253  -0.088   7.437   2.401 -0.1682  0.1180 -0.9347
 5000SOL    HW217254   0.007   7.553   2.382  1.6442 -0.9181  1.3290
 5001SOL     OW17255   7.951   4.222   6.540 -0.7484  0.1904  0.4190
 5001SOL    HW117256   7.927   4.130   6.548  0.2077 -0.2745 -1.4765
 5001SOL    HW217257   7.961   4.252   6.631 -0.8352 -1.6279  1.0707
 5002SOL     OW17258   9.125  10.406   2.455 -0.0692  0.3327  0.0716
 5002SOL    HW117259   9.061  10.369   2.516  1.0843  0.1759  1.2265
 5002SOL    HW217260   9.179  10.464   2.508  0.3183  1.0075 -1.0261
 5003SOL     OW17261   9.468   7.552   3.572 -0.4459 -0.2848  0.1623
 5003SOL    HW117262   9.540   7.489   3.582 -0.4600 -0.4936 -0.9399
 5003SOL    HW217263   9.393   7.508   3.613 -0.3551 -0.8037 -0.2137
 5004SOL     OW17264   9.912   7.213   1.066 -0.3691 -0.3046 -0.6901
 5004SOL    HW117265   9.957   7.267   1.001  0.0130  0.3576  0.1006
 5004SOL    HW217266   9.974   7.207   1.139 -1.6447  0.8433  0.5323
 5005SOL     OW17267   8.694   2.663   4.093  0.1324  0.3176 -0.3380
 5005SOL    HW117268   8.630   2.627   4.155  2.0815  0.7969  2.0932
 5005SOL    HW217269   8.664   2.753   4.078 -0.8946 -0.0974 -0.9569
 5006SOL     OW17270   6.719   5.476   2.992  0.1048  0.0911  0.0829
 5006SOL    HW117271   6.668   5.460   3.072 -0.7875  0.4899 -0.3941
 5006SOL    HW217272   6.663   5.443   2.921  0.6033  0.3512 -0.4356
 5007SOL     OW17273   1.746   2.875   4.169  0.1592  0.1517 -0.4669
 5007SOL    HW117274   1.803   2.912   4.102  0.7825  0.6952  0.3449
 5007SOL    HW217275   1.727   2.948   4.228 -1.5803  0.0451 -0.8274
 5008SOL     OW17276  10.119   4.919   5.736 -0.3065  0.0817 -0.0907
 5008SOL    HW117277  10.095   4.971   5.813  0.9490  0.3304  0.1440
 5008SOL    HW217278  10.140   4.833   5.770  0.2014  0.1767 -0.1653
 5009SOL     OW17279   9.061   2.253   6.238 -0.1129 -0.7459  0.3747
 5009SOL    HW117280   8.994   2.187   6.218 -1.3727  0.7143 -0.4474
 5009SOL    HW217281   9.014   2.319   6.289 -1.0128  3.1225 -4.7110
 5010SOL     OW17282   1.232   5.834   7.410 -0.3245 -0.0156  0.2770
 5010SOL    HW117283   1.285   5.909   7.385 -1.1766  0.5069  0.0030
 5010SOL    HW217284   1.155   5.838   7.352 -0.8894 -0.4875  0.9706
 5011SOL     OW17285   6.644   9.250   6.017 -0.0490 -0.1871 -0.5095
 5011SOL    HW117286   6.728   9.281   5.983  1.6730 -1.6882  1.9581
 5011SOL    HW217287   6.627   9.168   5.970  0.5545 -0.5286 -0.1423
 5012SOL     OW17288   4.910   2.972   8.009 -0.1058 -0.8797  0.3279
 5012SOL    HW117289   4.941   2.979   8.099 -1.5353 -0.9257  0.8560
 5012SOL    HW217290   4.921   2.880   7.987  0.7028 -0.7733  0.2778
 5013SOL     OW17291   6.771   3.432   1.655 -0.3666 -0.7086 -0.3967
 5013SOL    HW117292   6.778   3.433   1.559  1.0465 -0.1005 -0.3112
 5013SOL    HW217293   6.847   3.381   1.684  0.3466  0.7871  0.4564
 5014SOL     OW17294   9.605   6.710   1.875  0.4033 -0.2824 -0.2721
 5014SOL    HW117295   9.659   6.674   1.804 -1.9621 -4.1262 -0.3916
 5014SOL    HW217296   9.537   6.760   1.829  1.0311  0.4121 -0.4508
 5015SOL     OW17297  10.245   2.044   4.574 -0.0943  0.4473 -0.0272
 5015SOL    HW117298  10.273   2.089   4.654  0.4643  1.9943 -1.0598
 5015SOL    HW217299  10.165   2.089   4.547  0.4968  0.8941 -1.0987
 5016SOL     OW17300   2.122   8.600   4.797  0.6451  0.4740  0.1330
 5016SOL    HW117301   2.050   8.541   4.818  0.2033 -0.1786 -2.7482
 5016SOL    HW217302   2.080   8.686   4.786  0.6697  0.5389  0.5260
 5017SOL     OW17303   1.058   6.259   8.350 -0.3494 -0.0810  0.1069
 5017SOL    HW117304   1.123   6.188   8.350  0.1656  0.3768 -0.2560
 5017SOL    HW217305   1.066   6.298   8.262  0.5597  1.4705  0.8335
 5018SOL     OW17306   9.520   7.940  10.072  0.4595 -0.4458 -0.3246
 5018SOL    HW117307   9.483   7.915   9.987  1.8817  0.3044 -1.2128
 5018SOL    HW217308   9.456   7.999  10.110 -0.3001 -0.9635 -0.7788
 5019SOL     OW17309   5.297   8.683   4.988 -0.0790  0.3475 -0.5121
 5019SOL    HW117310   5.250   8.706   5.068 -1.6801  2.1929 -1.8741
 5019SOL    HW217311   5.345   8.604   5.010 -0.7383  0.6033  2.1514
 5020SOL     OW17312   1.802   1.439   8.936  0.2091 -0.3299  0.3033
 5020SOL    HW117313   1.862   1.385   8.988  2.0413  0.3454 -0.9847
 5020SOL    HW217314   1.737   1.471   8.999 -0.2461 -3.0062  1.3284
 5021SOL     OW17315   7.092   5.251   8.828 -0.2129 -0.7110 -0.0702
 5021SOL    HW117316   7.130   5.240   8.915 -0.5995  1.0540  0.3532
 5021SOL    HW217317   7.104   5.166   8.786 -1.8793 -2.2934  2.4194
 5022SOL     OW17318   8.323   4.097   8.815  0.1381  0.3531 -0.2471
 5022SOL    HW117319   8.277   4.013   8.807 -0.6985  0.8813 -1.2227
 5022SOL    HW217320   8.360   4.096   8.903 -0.0179 -0.9654 -0.1809
 5023SOL     OW17321   4.626   3.338   2.618 -0.7082 -0.1578 -0.2997
 5023SOL    HW117322   4.642   3.312   2.527  1.7409  1.0824 -0.3105
 5023SOL    HW217323   4.570   3.269   2.653 -3.0773  0.1143 -3.1410
 5024SOL     OW17324   7.390  10.003   4.744  0.0920 -0.3721  0.9995
 5024SOL    HW117325   7.469  10.024   4.694 -1.1813  1.0804 -0.5016
 5024SOL    HW217326   7.406  10.041   4.831  0.2015  1.8651  0.0534
 5025SOL     OW17327   1.821   4.728   1.306 -0.1670  0.0267 -1.0485
 5025SOL    HW117328   1.846   4.786   1.234  1.6626 -3.4367 -3.4397
 5025SOL    HW217329   1.749   4.676   1.271 -1.9162  0.8047  1.1262
 5026SOL     OW17330   7.411   1.983   7.799 -0.0091  0.0195  0.8117
 5026SOL    HW117331   7.335   1.970   7.856  0.8395 -0.6366  1.8387
 5026SOL    HW217332   7.470   2.038   7.851  0.6695 -0.3783  0.4769
 5027SOL     OW17333   6.107   9.901   1.072 -0.6541  0.2194  0.0721
 5027SOL    HW117334   6.035   9.916   1.134 -0.3934 -1.9830  1.0359
 5027SOL    HW217335   6.186   9.927   1.120 -0.5285 -0.7155  0.4055
 5028SOL     OW17336   8.262   7.839   4.791  0.0828  0.2398 -0.1774
 5028SOL    HW117337   8.212   7.795   4.860  0.5504  1.2629  0.8342
 5028SOL    HW217338   8.225   7.927   4.787  0.8001  0.5360 -0.4561
 5029SOL     OW17339   0.071   2.911   8.709 -0.2410  0.2548 -0.2895
 5029SOL    HW117340   0.003   2.845   8.714 -0.7679  0.8666  1.7335
 5029SOL    HW217341   0.024   2.994   8.700  0.1794  0.6936  1.2160
 5030SOL     OW17342   9.417   2.334   7.165  0.4718  0.4958 -0.6950
 5030SOL    HW117343   9.410   2.324   7.070  0.8905 -0.3753 -0.6405
 5030SOL    HW217344   9.327   2.322   7.197  0.7317 -2.1930 -0.7403
 5031SOL     OW17345   1.485   6.046   8.651 -0.3071  0.0578  0.9974
 5031SOL    HW117346   1.558   6.037   8.590 -0.4741 -1.5458  0.9929
 5031SOL    HW217347   1.505   5.985   8.721 -1.9155 -0.8668  0.7006
 5032SOL     OW17348   4.149  10.276   0.242  0.0194 -0.5837 -0.2289
 5032SOL    HW117349   4.207  10.300   0.314 -0.3754  0.5153 -0.2637
 5032SOL    HW217350   4.207  10.239   0.175  0.5601 -0.3290  0.1015
 5033SOL     OW17351   1.170   8.326   7.223  0.0571  0.1205 -0.0928
 5033SOL    HW117352   1.159   8.240   7.184  1.7397  0.0187 -0.3897
 5033SOL    HW217353   1.238   8.368   7.170  0.3524  1.0535  0.9987
 5034SOL     OW17354   8.826   1.964   7.104  0.8332  0.2228 -0.4663
 5034SOL    HW117355   8.813   2.042   7.050 -0.1685 -0.5759 -1.4170
 5034SOL    HW217356   8.778   1.895   7.058 -0.9271 -0.2784  1.9582
 5035SOL     OW17357   2.942   3.539   6.449 -0.8215  0.2935  0.3211
 5035SOL    HW117358   2.875   3.503   6.391  0.8892  2.2381 -3.1420
 5035SOL    HW217359   2.896   3.604   6.501 -2.1963 -0.6517  0.3490
 5036SOL     OW17360   3.212   4.881   7.106  0.8359  0.1029 -0.0174
 5036SOL    HW117361   3.273   4.818   7.144  0.6255 -0.6613 -0.9246
 5036SOL    HW217362   3.126   4.850   7.134  0.7598  0.2896 -0.0439
 5037SOL     OW17363   2.753   6.987   0.070  0.0124 -0.0751  0.0374
 5037SOL    HW117364   2.847   6.975   0.061 -0.0164  0.0257 -0.4344
 5037SOL    HW217365   2.730   7.049   0.001 -0.0240  1.8645  1.7141
 5038SOL     OW17366   5.870   1.120   6.006 -0.5029  0.1892 -0.0071
 5038SOL    HW117367   5.824   1.204   6.011 -0.1148  0.4044  0.0137
 5038SOL    HW217368   5.806   1.059   5.968 -0.7423  0.5259 -0.1473
 5039SOL     OW17369   7.070   0.238   8.661 -0.3794 -0.3463  0.1262
 5039SOL    HW117370   7.043   0.150   8.689  0.8323 -0.9149 -0.4270
 5039SOL    HW217371   7.102   0.279   8.742  3.5045 -2.1322 -0.2593
 5040SOL     OW17372   4.652  10.570   0.192 -0.0098  0.3060 -0.6717
 5040SOL    HW117373   4.659  10.664   0.179  0.2658  0.4665  0.5330
 5040SOL    HW217374   4.564  10.556   0.226  0.2800  0.2589  0.0880
 5041SOL     OW17375   2.521   9.780   6.134  0.8288 -0.4408  0.3179
 5041SOL    HW117376   2.443   9.742   6.173  0.2754 -0.2124 -0.5422
 5041SOL    HW217377   2.488   9.837   6.064  1.6848  0.7737  0.8573
 5042SOL     OW17378   1.687  10.137   1.709  0.0787 -0.2009  0.3652
 5042SOL    HW117379   1.748  10.142   1.782  1.6566 -1.7508 -0.7658
 5042SOL    HW217380   1.611  10.092   1.745 -0.7848  2.2705  1.9533
 5043SOL     OW17381   7.151   1.951   0.707  0.1425 -0.0669  0.0665
 5043SOL    HW117382   7.198   1.957   0.625 -0.2876 -0.1841 -0.1925
 5043SOL    HW217383   7.199   2.008   0.767  1.4352 -1.2726  0.2169
 5044SOL     OW17384   3.084   5.540   2.703 -0.4290  0.5973 -0.2249
 5044SOL    HW117385   3.018   5.506   2.641  0.3807  0.7982 -1.2302
 5044SOL    HW217386   3.167   5.527   2.657  0.4555 -1.3558  1.7505
 5045SOL     OW17387   7.842   6.109  10.185 -0.3158 -0.3019  0.0664
 5045SOL    HW117388   7.764   6.053  10.185 -0.6089  0.0690 -0.9428
 5045SOL    HW217389   7.813   6.190  10.228 -0.7122  0.0877 -0.8865
 5046SOL     OW17390   0.011   7.380   2.106  0.0061  0.1416 -0.0613
 5046SOL    HW117391   0.023   7.399   2.199  0.0816  1.1194 -0.2589
 5046SOL    HW217392   0.053   7.295   2.093 -0.2093 -0.1120  0.8417
 5047SOL     OW17393   9.862   1.723   0.584  0.2660 -0.4309  0.0030
 5047SOL    HW117394   9.911   1.779   0.645 -0.1630 -0.8316  0.7295
 5047SOL    HW217395   9.779   1.705   0.629 -0.4640  0.0347 -1.0978
 5048SOL     OW17396   2.590   2.546   2.373  0.1480 -0.0337  0.3620
 5048SOL    HW117397   2.569   2.495   2.451  0.6194 -0.7529  0.0312
 5048SOL    HW217398   2.667   2.598   2.399  2.0259 -2.2552 -0.3823
 5049SOL     OW17399   4.394   6.203   6.291 -0.0792 -0.1487  0.2034
 5049SOL    HW117400   4.401   6.125   6.347 -0.8989  0.1824  0.7787
 5049SOL    HW217401   4.322   6.183   6.231 -1.4202  0.7953  1.4261
 5050SOL     OW17402   1.576   5.292   9.278  0.2614  0.4655  0.2940
 5050SOL    HW117403   1.571   5.279   9.184  0.0126  0.1707  0.3486
 5050SOL    HW217404   1.666   5.321   9.294  0.6810 -0.7208  0.1226
 5051SOL     OW17405   4.524   6.423   3.966  0.0419 -0.6459  0.3504
 5051SOL    HW117406   4.448   6.456   4.014  0.8148 -0.5358  1.5330
 5051SOL    HW217407   4.493   6.415   3.875 -1.3195 -0.4396  0.7694
 5052SOL     OW17408   7.058   1.739   1.876  0.0090 -0.3766  0.2617
 5052SOL    HW117409   7.068   1.655   1.832  0.8978  0.6310 -1.5742
 5052SOL    HW217410   7.095   1.803   1.815  0.6589  1.2025  2.1846
 5053SOL     OW17411   8.861   9.757   1.624 -0.2909 -0.0192  0.1144
 5053SOL    HW117412   8.912   9.756   1.705  0.4273  3.0259 -0.1653
 5053SOL    HW217413   8.924   9.779   1.556 -1.3255 -0.0093 -0.8767
 5054SOL     OW17414   2.385   8.848   2.068 -0.4047 -0.3444  0.4971
 5054SOL    HW117415   2.302   8.879   2.031 -1.9509 -1.2588  2.9179
 5054SOL    HW217416   2.359   8.779   2.130  2.2280 -0.9785  1.0242
 5055SOL     OW17417   6.233   4.098   0.964  0.5933  0.1300 -0.5768
 5055SOL    HW117418   6.299   4.092   0.894  0.5908  1.3521 -0.7156
 5055SOL    HW217419   6.188   4.014   0.962  1.0067 -0.0854 -1.6398
 5056SOL     OW17420   4.764   5.158   7.910 -0.7139  0.7601  0.2439
 5056SOL    HW117421   4.851   5.123   7.889 -0.9197 -0.5648  1.4419
 5056SOL    HW217422   4.781   5.228   7.973 -0.5980 -1.4043  2.7854
 5057SOL     OW17423   7.723  10.124   4.035  0.5225 -0.3064  0.1173
 5057SOL    HW117424   7.730  10.048   3.977 -1.6934 -1.5363  1.3307
 5057SOL    HW217425   7.633  10.153   4.025  0.9221  1.2677  0.8188
 5058SOL     OW17426   0.300   6.624   3.583 -0.2019  0.3641 -0.4689
 5058SOL    HW117427   0.220   6.656   3.624 -1.5661 -2.2290 -0.8783
 5058SOL    HW217428   0.280   6.621   3.490 -0.4556 -2.1149 -0.4219
 5059SOL     OW17429   0.282   9.442   7.040  0.3612 -0.2054 -0.0027
 5059SOL    HW117430   0.223   9.472   7.110  1.6043  0.5715  0.7393
 5059SOL    HW217431   0.223   9.414   6.970 -0.9009  0.0365  0.9288
 5060SOL     OW17432   2.191   8.270   4.803  0.2646 -0.0160 -0.3763
 5060SOL    HW117433   2.164   8.247   4.714 -0.8166  0.8759 -0.3033
 5060SOL    HW217434   2.114   8.312   4.841  0.4461 -1.0536  1.2485
 5061SOL     OW17435   8.280  10.607   0.311  0.4472 -0.7042  0.3247
 5061SOL    HW117436   8.205  10.645   0.265 -1.4672 -0.6230  3.2058
 5061SOL    HW217437   8.262  10.513   0.312  0.7246 -0.7557  0.4250
 5062SOL     OW17438   4.007   9.099   1.676  0.2393  0.4966  0.3121
 5062SOL    HW117439   3.967   9.105   1.589  0.8682 -3.5264 -0.4339
 5062SOL    HW217440   4.098   9.076   1.659  0.3071 -0.6658  2.0036
 5063SOL     OW17441   2.101   6.592   6.313  0.3810 -0.2151  0.2973
 5063SOL    HW117442   2.162   6.526   6.345  1.7008  1.2766  0.9434
 5063SOL    HW217443   2.130   6.611   6.224  0.2896 -0.1607  0.2789
 5064SOL     OW17444   1.279   5.430   0.459  0.6283  0.2576  0.2899
 5064SOL    HW117445   1.367   5.394   0.461  0.1700 -1.1120 -1.5477
 5064SOL    HW217446   1.233   5.385   0.531  0.6063 -1.4919 -0.7462
 5065SOL     OW17447   7.917   5.720   3.887  0.0832 -0.1822  0.2943
 5065SOL    HW117448   7.949   5.751   3.972 -0.0912  2.0498 -0.3964
 5065SOL    HW217449   7.951   5.784   3.824  0.2140 -1.7904 -1.3365
 5066SOL     OW17450   8.839   8.245   0.944  0.2338 -0.4358 -0.1121
 5066SOL    HW117451   8.888   8.273   0.866  1.6137 -0.2467  0.7860
 5066SOL    HW217452   8.865   8.308   1.011 -2.1402  0.3647  0.1423
 5067SOL     OW17453   6.991   6.065   2.633  0.4330 -0.5278  0.3626
 5067SOL    HW117454   6.942   6.051   2.553  2.0118 -0.8150 -0.6091
 5067SOL    HW217455   7.036   6.149   2.621  1.5326 -1.0748  0.4465
 5068SOL     OW17456   4.640   9.795   9.214  0.3744  0.2946  0.2040
 5068SOL    HW117457   4.572   9.757   9.269 -0.2053 -0.3783 -0.9295
 5068SOL    HW217458   4.721   9.781   9.263 -0.1679  0.1197  1.0755
 5069SOL     OW17459   0.678   0.958   3.569  0.0750 -0.1598  0.0494
 5069SOL    HW117460   0.757   1.011   3.585 -0.2342 -0.1481  1.7571
 5069SOL    HW217461   0.639   0.996   3.491  1.3044  0.3885 -0.3302
 5070SOL     OW17462   0.612   0.641   7.238 -0.3059  0.2959 -0.2731
 5070SOL    HW117463   0.593   0.602   7.153 -0.8324 -0.1590  0.0503
 5070SOL    HW217464   0.639   0.731   7.218  0.1769 -0.0050 -0.9608
 5071SOL     OW17465   8.107   8.335   8.571 -0.4717 -0.1898  0.2682
 5071SOL    HW117466   8.142   8.257   8.528 -1.2849  0.4103 -1.6029
 5071SOL    HW217467   8.144   8.408   8.520 -0.0430  0.6595  1.7320
 5072SOL     OW17468   5.510   1.951   2.012  0.6282  0.0202  0.1481
 5072SOL    HW117469   5.577   2.019   2.011  0.8065 -0.1502 -0.9615
 5072SOL    HW217470   5.435   1.992   2.055  1.0825  0.5664  0.4306
 5073SOL     OW17471   7.673   5.947   8.552  0.2758  0.3908 -0.0890
 5073SOL    HW117472   7.608   5.912   8.613 -0.4402  0.6380 -0.7012
 5073SOL    HW217473   7.639   5.926   8.465  0.2560  1.8377 -0.4579
 5074SOL     OW17474   4.377   5.727   6.063 -0.8331  0.4046 -0.0328
 5074SOL    HW117475   4.434   5.805   6.062  1.0292 -0.8476 -2.3867
 5074SOL    HW217476   4.411   5.673   6.134 -1.2266  1.0633  0.6798
 5075SOL     OW17477   3.257   9.476   0.926 -0.5494 -0.2935 -0.2620
 5075SOL    HW117478   3.333   9.450   0.978  0.3706  1.2185 -0.7610
 5075SOL    HW217479   3.244   9.404   0.864  0.9179 -0.2961 -0.6034
 5076SOL     OW17480  10.270   1.619   4.099  0.0094  0.4549 -0.3393
 5076SOL    HW117481  10.202   1.679   4.070  0.5450  0.2537 -2.1217
 5076SOL    HW217482  10.237   1.532   4.078  1.0994  0.3934 -1.9502
 5077SOL     OW17483   1.257   4.573   3.665  0.1627 -0.6769 -0.0343
 5077SOL    HW117484   1.282   4.552   3.575  0.8086  1.8562 -0.5049
 5077SOL    HW217485   1.172   4.616   3.658  0.9690  1.0735  0.3233
 5078SOL     OW17486   7.406   4.342   3.798 -1.1180  0.3161  0.2627
 5078SOL    HW117487   7.460   4.319   3.873  0.3337  1.0130 -0.5071
 5078SOL    HW217488   7.331   4.284   3.802 -0.7569 -0.0690  1.8967
 5079SOL     OW17489   1.197   0.829   4.369 -0.5404  0.3479  0.5794
 5079SOL    HW117490   1.137   0.757   4.350 -0.1277  0.0190  0.5093
 5079SOL    HW217491   1.210   0.871   4.284  1.5325 -1.2993 -0.0124
 5080SOL     OW17492   9.719   5.619   1.783 -0.4231  0.3314 -0.0518
 5080SOL    HW117493   9.796   5.672   1.805 -0.1089  0.3130 -1.0643
 5080SOL    HW217494   9.646   5.665   1.824  0.0494  0.6591  0.4389
 5081SOL     OW17495   8.104   8.955   8.618 -0.4338 -0.1118  0.0356
 5081SOL    HW117496   8.193   8.921   8.630 -0.7876 -0.2648  3.0181
 5081SOL    HW217497   8.117   9.046   8.590  0.6480 -0.4481 -0.5926
 5082SOL     OW17498  10.550   7.592   2.722  0.0519 -0.0201 -0.5835
 5082SOL    HW117499  10.580   7.601   2.632  2.0993 -0.6731 -0.0041
 5082SOL    HW217500  10.615   7.637   2.775  0.4475 -2.0291  0.7772
 5083SOL     OW17501  10.175   7.758  10.080  0.0877 -0.0977  1.3060
 5083SOL    HW117502  10.253   7.744  10.134  0.1830  0.1387  1.2310
 5083SOL    HW217503  10.104   7.721  10.132  0.2234 -0.1582  1.4543
 5084SOL     OW17504  10.131   6.016   1.970  0.1959 -0.2403  0.3831
 5084SOL    HW117505  10.071   6.051   2.036  2.3692  0.7943  1.9252
 5084SOL    HW217506  10.204   6.078   1.968  0.2058 -0.1240 -3.1871
 5085SOL     OW17507   5.155   5.519   4.336 -0.3116 -0.2516 -0.3687
 5085SOL    HW117508   5.129   5.569   4.413 -0.5329 -1.6755  0.5230
 5085SOL    HW217509   5.251   5.524   4.335 -0.3518  0.7086 -0.6818
 5086SOL     OW17510   4.080   3.866   1.373 -0.0007  0.4557 -0.1553
 5086SOL    HW117511   4.080   3.887   1.280  0.9525  1.0096 -0.0475
 5086SOL    HW217512   4.148   3.800   1.382  0.9912  1.5212  0.3639
 5087SOL     OW17513   9.400   6.709   0.570 -0.1436  0.1104 -0.6039
 5087SOL    HW117514   9.470   6.681   0.629 -2.5520 -1.4608  1.7569
 5087SOL    HW217515   9.437   6.783   0.522  3.0599 -0.5807  0.5122
 5088SOL     OW17516   9.038  10.006   5.748 -0.2360 -0.0440  0.2787
 5088SOL    HW117517   9.014  10.095   5.773  0.1020  0.4804 -1.1878
 5088SOL    HW217518   9.133  10.008   5.738 -0.2556 -0.4862 -0.0540
 5089SOL     OW17519   0.149   4.474   9.525 -0.0735  0.6845 -0.2874
 5089SOL    HW117520   0.162   4.510   9.612 -0.5052  0.9811 -0.3444
 5089SOL    HW217521   0.082   4.407   9.536  1.3437 -0.7597 -0.0206
 5090SOL     OW17522   6.336   2.322   4.373 -0.0734  0.2587 -0.1322
 5090SOL    HW117523   6.381   2.326   4.289 -0.0189 -0.8554 -0.1748
 5090SOL    HW217524   6.243   2.320   4.351 -0.0988  1.0185 -0.1121
 5091SOL     OW17525  10.197   8.941   6.979 -0.3568  0.4261 -0.5067
 5091SOL    HW117526  10.103   8.940   6.996 -0.0866  0.1805  1.1468
 5091SOL    HW217527  10.228   8.855   7.010  0.1706 -0.2781 -2.7568
 5092SOL     OW17528   7.623   3.821   2.991 -0.3717  0.5177 -0.0529
 5092SOL    HW117529   7.710   3.811   2.952 -0.5859 -1.8725 -0.0630
 5092SOL    HW217530   7.638   3.873   3.070  0.7123  1.8841 -1.0996
 5093SOL     OW17531   5.719   4.997   9.735 -0.1647 -0.3051 -0.4009
 5093SOL    HW117532   5.779   5.060   9.775 -2.0389  1.1782  0.2492
 5093SOL    HW217533   5.695   5.035   9.651 -0.6200 -0.5989 -0.4121
 5094SOL     OW17534   3.870   0.065   2.005 -0.6477 -0.3223  0.3613
 5094SOL    HW117535   3.844   0.107   1.923 -2.5051  0.0660  1.0966
 5094SOL    HW217536   3.846  -0.027   1.994  0.5364 -0.6067 -0.0697
 5095SOL     OW17537   5.953   0.816   1.415 -0.4814 -0.1069 -0.0887
 5095SOL    HW117538   5.897   0.740   1.434 -1.7920  1.2478  1.7630
 5095SOL    HW217539   5.895   0.891   1.423  1.0568  1.2043 -0.6920
 5096SOL     OW17540   6.168   7.860   3.110  0.6299 -0.1944  0.4208
 5096SOL    HW117541   6.123   7.824   3.033 -0.2506 -1.1075  1.3102
 5096SOL    HW217542   6.170   7.954   3.096 -0.7603 -0.2203 -0.1007
 5097SOL     OW17543  10.205   5.769   0.899 -0.1818  0.3360 -0.3654
 5097SOL    HW117544  10.197   5.835   0.830  0.1831 -0.1205 -0.8569
 5097SOL    HW217545  10.126   5.715   0.890  0.1839 -0.1345 -0.8847
 5098SOL     OW17546   1.752   5.379   4.033  0.0985  0.2458  0.0109
 5098SOL    HW117547   1.786   5.310   3.976 -0.1400  0.4644 -0.3963
 5098SOL    HW217548   1.825   5.398   4.093  0.7481  0.7817 -0.9247
 5099SOL     OW17549   5.134   4.173   0.562 -0.2371  0.3162 -0.4836
 5099SOL    HW117550   5.177   4.122   0.494 -1.6612 -2.5050  0.5771
 5099SOL    HW217551   5.069   4.114   0.600 -1.5457  2.7240  1.3574
 5100SOL     OW17552   2.497  10.098   9.281  0.3243 -0.0710 -0.0807
 5100SOL    HW117553   2.536  10.177   9.243  0.8081  0.3668  1.2506
 5100SOL    HW217554   2.456  10.129   9.362 -0.5264 -0.9952 -0.1384
 5101SOL     OW17555   7.599   9.552   4.075 -0.5887 -0.6539  0.0011
 5101SOL    HW117556   7.663   9.619   4.102 -0.5541 -0.4575 -0.5648
 5101SOL    HW217557   7.651   9.485   4.032 -0.4764 -1.5977  1.5267
 5102SOL     OW17558   7.164   6.483   9.143 -0.2985 -0.7128  0.2574
 5102SOL    HW117559   7.081   6.461   9.101 -0.7560 -1.3338  1.4458
 5102SOL    HW217560   7.230   6.447   9.084 -0.7416  1.5055 -1.7319
 5103SOL     OW17561   1.576   1.409   3.512 -0.5604  0.5234  0.2972
 5103SOL    HW117562   1.609   1.320   3.504 -1.3002  0.3047 -0.3778
 5103SOL    HW217563   1.562   1.420   3.606 -0.4517 -0.0647  0.3880
 5104SOL     OW17564   1.291   1.197   7.846  0.4633 -0.0776 -0.2458
 5104SOL    HW117565   1.237   1.120   7.824 -3.4352  1.8022  1.7019
 5104SOL    HW217566   1.269   1.261   7.778 -2.8200  1.8757  2.3453
 5105SOL     OW17567   5.384   2.895   3.259 -0.4859 -0.0710  0.1930
 5105SOL    HW117568   5.410   2.971   3.207  2.3577 -1.1661 -0.1472
 5105SOL    HW217569   5.289   2.887   3.244 -0.5108  2.2137 -1.3087
 5106SOL     OW17570   1.361   6.834   1.551 -0.0280  0.1230 -0.2376
 5106SOL    HW117571   1.374   6.926   1.576  2.4933  0.0714 -1.0564
 5106SOL    HW217572   1.378   6.784   1.630 -0.2643  0.3049 -0.0706
 5107SOL     OW17573   9.418   4.733   4.168 -0.1060 -0.0182 -0.4272
 5107SOL    HW117574   9.458   4.727   4.255  0.5254  2.2892 -0.4825
 5107SOL    HW217575   9.324   4.731   4.185  0.0156 -0.4463  0.2226
 5108SOL     OW17576   2.512   7.446   5.995 -0.3039 -0.0886 -0.1842
 5108SOL    HW117577   2.502   7.351   5.990 -0.3671 -0.0530 -0.8019
 5108SOL    HW217578   2.596   7.459   6.041  0.3371 -0.4590 -1.2181
 5109SOL     OW17579   7.683   9.769   3.580 -0.0835  0.9498 -0.7029
 5109SOL    HW117580   7.616   9.808   3.524 -0.7333 -0.3213 -0.8257
 5109SOL    HW217581   7.637   9.703   3.631  0.4103  2.2952  1.6366
 5110SOL     OW17582   2.049   7.576   6.856 -0.2611  0.0162  0.3887
 5110SOL    HW117583   2.076   7.489   6.827 -1.6347 -1.9107  4.1216
 5110SOL    HW217584   2.123   7.633   6.836  0.7774 -1.9890 -1.9678
 5111SOL     OW17585   0.307   6.030   3.198 -0.0702 -0.1837 -0.0159
 5111SOL    HW117586   0.238   5.968   3.225 -1.7527  1.7294  0.2728
 5111SOL    HW217587   0.358   5.981   3.134 -2.3616 -1.3448 -1.1023
 5112SOL     OW17588   4.221   0.770   9.728  0.0646 -0.0047 -0.3936
 5112SOL    HW117589   4.225   0.731   9.640  3.5843 -1.7688  0.3774
 5112SOL    HW217590   4.310   0.762   9.762 -0.6185  2.7707  2.5016
 5113SOL     OW17591   8.268   5.901   7.784 -0.7679 -0.1002 -0.9900
 5113SOL    HW117592   8.290   5.975   7.839  0.5648 -0.6887 -0.6961
 5113SOL    HW217593   8.190   5.929   7.736 -2.2202  0.2893  1.4317
 5114SOL     OW17594   7.913   9.124   3.595 -0.4297  0.3656  0.5583
 5114SOL    HW117595   7.926   9.182   3.520  1.1371 -0.3785  0.2111
 5114SOL    HW217596   7.928   9.179   3.672 -0.5542  0.7828  0.2856
 5115SOL     OW17597  10.377   1.344   7.534 -0.2000  0.3372  0.3669
 5115SOL    HW117598  10.308   1.342   7.468  0.1467 -2.3251 -0.0055
 5115SOL    HW217599  10.448   1.394   7.493  0.1219 -1.4852 -1.4597
 5116SOL     OW17600   1.420   7.869   0.321  0.2599  0.1070  0.3754
 5116SOL    HW117601   1.407   7.838   0.232  1.9680  0.7013 -0.1252
 5116SOL    HW217602   1.392   7.960   0.319  1.9166  0.6432 -0.0525
 5117SOL     OW17603   6.670   8.017   4.091  0.5157  0.4461 -0.1109
 5117SOL    HW117604   6.691   8.098   4.044 -3.1732  1.0243 -1.0312
 5117SOL    HW217605   6.688   7.947   4.029 -0.2776  0.8898 -0.8460
 5118SOL     OW17606   9.643   9.419   5.930 -0.3026  0.5705  0.3025
 5118SOL    HW117607   9.582   9.481   5.891 -0.3907  0.3613  0.1028
 5118SOL    HW217608   9.638   9.436   6.024 -2.7444 -1.2307  0.6136
 5119SOL     OW17609   2.594   9.258   7.427  0.3639  0.5021 -0.0959
 5119SOL    HW117610   2.682   9.295   7.426 -1.1540  4.6665 -0.4157
 5119SOL    HW217611   2.558   9.284   7.512 -1.0798  0.4497 -0.6601
 5120SOL     OW17612   2.140   3.714   9.679  0.1736  0.4866 -0.0342
 5120SOL    HW117613   2.065   3.674   9.635  0.5192  0.9043 -1.0358
 5120SOL    HW217614   2.136   3.681   9.768  0.5964 -2.0125 -0.8582
 5121SOL     OW17615   6.978   8.608   8.292  0.0756 -0.0615 -0.1750
 5121SOL    HW117616   6.898   8.613   8.239 -0.4932  0.9353  0.7438
 5121SOL    HW217617   6.952   8.562   8.372  0.1773  1.0651  0.5269
 5122SOL     OW17618   0.107   3.920   9.959 -0.0451 -0.3335 -0.2591
 5122SOL    HW117619   0.112   3.935  10.053  1.3763 -0.1608 -0.3390
 5122SOL    HW217620   0.023   3.875   9.946  0.8106 -2.6072  1.4030
 5123SOL     OW17621   6.178   5.306   0.648  0.4182 -0.5070  0.0271
 5123SOL    HW117622   6.238   5.376   0.674 -2.8503  1.8576  1.9268
 5123SOL    HW217623   6.143   5.333   0.563 -1.1854  0.5546  0.9662
 5124SOL     OW17624   6.811   1.366   0.466 -0.1783  0.7000 -1.1178
 5124SOL    HW117625   6.750   1.438   0.478 -0.5853  0.2203 -0.1877
 5124SOL    HW217626   6.756   1.293   0.437 -0.3367 -0.1636  1.1624
 5125SOL     OW17627   2.169   5.036   0.345  0.0597  0.5188  0.6020
 5125SOL    HW117628   2.114   4.964   0.374  0.5278  0.0342  0.2982
 5125SOL    HW217629   2.163   5.101   0.416 -1.4031  0.7631  0.2900
 5126SOL     OW17630   6.865  10.223   8.410 -0.0175  0.9301  0.1166
 5126SOL    HW117631   6.877  10.296   8.350  0.4663  0.1744 -0.7380
 5126SOL    HW217632   6.803  10.165   8.365 -0.0893  0.6260  0.5992
 5127SOL     OW17633   6.771   0.056   9.161 -0.8428  0.0542 -0.1538
 5127SOL    HW117634   6.829   0.079   9.234  0.3668  1.5860 -1.5085
 5127SOL    HW217635   6.779  -0.038   9.151  0.5575  0.1018  0.4113
 5128SOL     OW17636   8.101   9.623   0.196  0.1473 -0.1089 -0.3754
 5128SOL    HW117637   8.033   9.604   0.261  1.7079 -0.6610  1.1845
 5128SOL    HW217638   8.055   9.619   0.112 -1.3301 -2.7636  0.4197
 5129SOL     OW17639   4.697   0.773   7.418 -0.3330  0.2859  0.6212
 5129SOL    HW117640   4.629   0.825   7.461 -1.0321  0.0324 -0.1444
 5129SOL    HW217641   4.764   0.762   7.484 -1.5198 -0.3800  1.7645
 5130SOL     OW17642   6.029   9.661   1.017  0.0023 -0.1994 -0.3304
 5130SOL    HW117643   6.061   9.749   1.034  0.2345 -0.5190  0.9346
 5130SOL    HW217644   5.941   9.660   1.052  0.1492 -0.5920  0.0328
 5131SOL     OW17645   0.449   5.233   2.981 -0.2421 -0.3775  0.0714
 5131SOL    HW117646   0.459   5.307   2.921 -0.6887 -0.5793 -0.2524
 5131SOL    HW217647   0.360   5.201   2.966  0.5919 -2.2559 -1.2439
 5132SOL     OW17648   9.029   2.017   5.012  0.0762  0.7101 -0.4625
 5132SOL    HW117649   9.095   2.076   5.047  1.2793 -0.3639 -0.8081
 5132SOL    HW217650   9.073   1.973   4.939 -0.7736 -0.5475 -0.2598
 5133SOL     OW17651   3.449   7.571   4.129 -0.5002 -0.4171  0.2768
 5133SOL    HW117652   3.435   7.567   4.224 -1.2439  0.9463  0.2581
 5133SOL    HW217653   3.396   7.646   4.101  0.0737 -0.5258 -1.1531
 5134SOL     OW17654   6.516   3.035   7.402 -0.0244 -0.1429  0.6704
 5134SOL    HW117655   6.517   3.029   7.497  0.2678 -0.6814  0.6371
 5134SOL    HW217656   6.468   2.958   7.373 -1.6902  0.9327  0.4372
 5135SOL     OW17657   3.601   1.302   2.682 -0.4745 -0.2318  0.3465
 5135SOL    HW117658   3.533   1.302   2.749  0.0923 -0.2858  0.9269
 5135SOL    HW217659   3.556   1.333   2.603 -1.1163 -0.0436  0.7744
 5136SOL     OW17660   9.078   5.585   7.730 -0.1580 -0.4201 -0.2896
 5136SOL    HW117661   9.081   5.537   7.647  0.4734  0.1493 -0.6081
 5136SOL    HW217662   8.986   5.585   7.754 -0.6039  0.7785 -1.8249
 5137SOL     OW17663   2.058   3.680   6.684 -0.2017  0.0103 -0.1186
 5137SOL    HW117664   2.078   3.667   6.591 -0.4927 -0.5733 -0.1032
 5137SOL    HW217665   2.128   3.737   6.716  0.3106 -0.3893 -0.5227
 5138SOL     OW17666   1.845  10.441   5.254 -0.3262  0.5490 -0.1830
 5138SOL    HW117667   1.753  10.446   5.280 -0.7221  0.6010 -1.5585
 5138SOL    HW217668   1.874  10.355   5.286 -1.0742  0.2020 -0.4169
 5139SOL     OW17669   3.554   4.295   5.607 -0.2499 -0.1512 -0.6840
 5139SOL    HW117670   3.582   4.263   5.521  0.6268  0.1155 -0.5150
 5139SOL    HW217671   3.567   4.221   5.666 -0.5510 -0.2368 -0.7247
 5140SOL     OW17672   5.135   7.975   9.617 -0.6893  0.2686 -0.0742
 5140SOL    HW117673   5.078   7.901   9.638 -0.9732  0.7522  0.9531
 5140SOL    HW217674   5.084   8.030   9.558 -1.1888  0.5539  0.6126
 5141SOL     OW17675   1.988   9.949   9.494  0.2049 -0.0333 -0.0076
 5141SOL    HW117676   1.997   9.867   9.445  1.0756 -0.1106  0.2677
 5141SOL    HW217677   2.074   9.990   9.488  0.6428 -0.5259  2.3298
 5142SOL     OW17678   4.664   7.540   6.493 -0.1634  0.1509 -0.5878
 5142SOL    HW117679   4.623   7.517   6.409 -0.8382  0.9055 -0.4770
 5142SOL    HW217680   4.634   7.473   6.554  1.5207 -1.2792 -1.2535
 5143SOL     OW17681   2.689   5.188   0.754 -0.2441 -0.1495 -0.5582
 5143SOL    HW117682   2.738   5.270   0.758 -1.1569  0.5037 -2.1184
 5143SOL    HW217683   2.695   5.153   0.843  0.1250  1.6193  0.1549
 5144SOL     OW17684   5.621   2.371   4.992 -0.3514  0.1885  0.1156
 5144SOL    HW117685   5.527   2.350   4.999 -0.6345  1.5705  0.8057
 5144SOL    HW217686   5.639   2.370   4.898 -1.5243  1.7685 -0.1580
 5145SOL     OW17687   5.746   2.978   5.661  0.4501 -0.1090  0.0858
 5145SOL    HW117688   5.661   2.976   5.617  0.9236  2.7812 -1.2490
 5145SOL    HW217689   5.808   3.000   5.591  2.1652 -1.1571  1.2079
 5146SOL     OW17690  10.550   7.079   3.104  0.5487  0.6204 -0.0769
 5146SOL    HW117691  10.458   7.053   3.098  0.5026  0.8301 -0.2866
 5146SOL    HW217692  10.580   7.044   3.188 -0.5598  3.2211  1.4808
 5147SOL     OW17693   7.310   6.741   8.274  0.2860 -0.7498 -0.4598
 5147SOL    HW117694   7.398   6.707   8.293  0.5838 -1.2155 -2.5193
 5147SOL    HW217695   7.259   6.717   8.351  2.1374  0.3083  1.2059
 5148SOL     OW17696   4.319  10.366   8.583 -0.1646 -0.1531 -0.5202
 5148SOL    HW117697   4.377  10.300   8.544 -0.2961 -1.1428  0.8657
 5148SOL    HW217698   4.235  10.353   8.538 -0.4058 -1.4931  0.2383
 5149SOL     OW17699   4.781   3.465   9.763 -0.4639  0.1312 -0.5952
 5149SOL    HW117700   4.742   3.411   9.694 -0.9135 -0.3887  0.0596
 5149SOL    HW217701   4.861   3.419   9.788 -1.2488 -0.6619  0.5100
 5150SOL     OW17702   0.627   0.692   6.277 -0.1861 -0.1986 -0.2211
 5150SOL    HW117703   0.655   0.780   6.303  0.2027 -0.0041 -1.2551
 5150SOL    HW217704   0.574   0.706   6.199 -2.2319 -0.6751  1.0101
 5151SOL     OW17705   7.926   8.489   4.810 -0.6440  0.1600 -0.0414
 5151SOL    HW117706   7.977   8.546   4.868  0.5396 -2.4291  1.6463
 5151SOL    HW217707   7.966   8.500   4.724 -0.3023  1.6458  0.2702
 5152SOL     OW17708   9.065   1.134   7.858 -0.1051 -0.1424  0.6130
 5152SOL    HW117709   9.159   1.119   7.848 -0.2949 -0.0430 -1.7331
 5152SOL    HW217710   9.059   1.223   7.892  0.6548  0.3239 -0.4076
 5153SOL     OW17711   7.906   7.755   1.776  0.1634 -0.1610  0.5126
 5153SOL    HW117712   7.830   7.736   1.831  0.5152  0.9390  1.4136
 5153SOL    HW217713   7.911   7.851   1.773  0.0708 -0.1648 -1.5813
 5154SOL     OW17714   2.940   6.596   6.002 -0.1776 -0.4050  0.2328
 5154SOL    HW117715   2.909   6.618   6.090  0.0034 -0.4570  0.3093
 5154SOL    HW217716   2.860   6.582   5.951 -0.5764  4.2216 -0.8620
 5155SOL     OW17717   7.858   0.651   8.910  0.4075  0.5288  0.1245
 5155SOL    HW117718   7.906   0.613   8.984 -0.9775 -0.6138  0.4916
 5155SOL    HW217719   7.882   0.744   8.911  2.2547  0.0931  0.5186
 5156SOL     OW17720   1.970   4.241   9.385 -0.3321  0.5084 -0.3156
 5156SOL    HW117721   2.018   4.165   9.350  0.2724 -0.7932  2.9337
 5156SOL    HW217722   1.882   4.208   9.401 -0.0326  0.3621  1.2294
 5157SOL     OW17723   6.452  10.326   6.498 -0.2396  0.4399  0.0965
 5157SOL    HW117724   6.446  10.323   6.594 -2.2749  0.7580  0.0189
 5157SOL    HW217725   6.468  10.418   6.478 -1.4948  0.6721  0.0920
 5158SOL     OW17726   2.581   7.179   6.685  0.4421  0.0197  0.2098
 5158SOL    HW117727   2.599   7.142   6.599 -0.6188  1.2296 -0.5668
 5158SOL    HW217728   2.505   7.130   6.717  0.4822 -0.0387  0.2164
 5159SOL     OW17729   3.820   9.714   1.733  0.3643 -0.0970  0.2381
 5159SOL    HW117730   3.767   9.794   1.734 -1.2616 -1.0700 -1.5248
 5159SOL    HW217731   3.892   9.734   1.672 -1.4792 -0.7268 -2.3034
 5160SOL     OW17732   4.759   3.422   8.762  0.3671 -0.0187  0.3730
 5160SOL    HW117733   4.672   3.462   8.757 -0.0864 -0.6561  2.2975
 5160SOL    HW217734   4.791   3.445   8.850  0.9018 -2.1837  0.8079
 5161SOL     OW17735   7.912   1.563   2.300 -0.1680  0.0084 -0.1705
 5161SOL    HW117736   7.932   1.471   2.284  0.1293  0.1763 -0.8030
 5161SOL    HW217737   7.818   1.565   2.316 -0.1050 -0.4592  0.2934
 5162SOL     OW17738   9.610  10.192   5.730  0.2338  0.0401 -0.2413
 5162SOL    HW117739   9.641  10.278   5.701 -0.8022  0.8833  1.0303
 5162SOL    HW217740   9.550  10.211   5.802 -1.5369 -1.6359 -1.1765
 5163SOL     OW17741   9.776   3.488   9.408  0.6768 -0.1022 -0.0959
 5163SOL    HW117742   9.727   3.498   9.490  0.2518 -0.6632 -0.2673
 5163SOL    HW217743   9.805   3.397   9.410  0.9028 -0.0356 -0.4401
 5164SOL     OW17744   8.203   1.611  10.525  0.0084  0.1822 -0.1878
 5164SOL    HW117745   8.115   1.573  10.529  0.5063 -0.8843  1.2254
 5164SOL    HW217746   8.209   1.667  10.602 -0.1906  2.0694 -1.4708
 5165SOL     OW17747   5.960   2.846   2.761 -0.0635  0.0435 -0.5267
 5165SOL    HW117748   5.947   2.777   2.695 -0.8034 -2.4200  2.0304
 5165SOL    HW217749   6.047   2.830   2.796 -0.5854 -0.1975  0.7069
 5166SOL     OW17750   0.593   2.134   8.693 -0.6206  0.2221  0.3297
 5166SOL    HW117751   0.540   2.193   8.639 -0.3562  1.2808  1.2003
 5166SOL    HW217752   0.669   2.186   8.719 -0.0879 -0.6872  0.6452
 5167SOL     OW17753   9.317   5.047   7.437 -0.0594 -0.0058  0.2481
 5167SOL    HW117754   9.282   5.085   7.357  1.4122 -2.6904 -1.8742
 5167SOL    HW217755   9.240   5.025   7.489 -1.0555  1.8271 -0.3749
 5168SOL     OW17756   5.871   3.684   0.257 -0.2763  0.2212  0.0116
 5168SOL    HW117757   5.907   3.658   0.172  0.3465  0.8697  0.0722
 5168SOL    HW217758   5.818   3.609   0.284  0.8466 -0.6676 -0.1838
 5169SOL     OW17759   9.623   7.406   1.485 -0.1833  0.3298  0.6890
 5169SOL    HW117760   9.539   7.424   1.444 -0.0580  0.7926  0.6328
 5169SOL    HW217761   9.616   7.316   1.515  0.2057 -0.5160 -1.5583
 5170SOL     OW17762   6.058   8.276   7.183 -0.4513  0.0920  0.5376
 5170SOL    HW117763   5.978   8.325   7.166  0.1081  1.4062  1.5140
 5170SOL    HW217764   6.128   8.341   7.174  0.3189 -0.5244  1.8444
 5171SOL     OW17765   7.628   2.880   4.562  0.1302  0.1555 -0.3035
 5171SOL    HW117766   7.705   2.826   4.579 -1.1231 -0.9491  2.3415
 5171SOL    HW217767   7.626   2.888   4.466  1.9972 -2.0458 -0.6250
 5172SOL     OW17768   2.502   5.354   4.567 -0.5848  0.3004 -0.1276
 5172SOL    HW117769   2.408   5.371   4.579 -0.4464  0.5627  0.6694
 5172SOL    HW217770   2.514   5.348   4.472 -1.1600  1.7330 -0.3165
 5173SOL     OW17771   3.744   0.076   3.282  0.4002 -0.3541  0.0577
 5173SOL    HW117772   3.789  -0.005   3.259 -0.3635 -0.7547 -0.0658
 5173SOL    HW217773   3.653   0.060   3.260  0.1271  0.3050  0.6467
 5174SOL     OW17774   4.917   2.431   9.386  0.0361 -0.1988  0.1870
 5174SOL    HW117775   5.011   2.430   9.401  0.3216 -1.1919 -1.3730
 5174SOL    HW217776   4.884   2.353   9.432  0.2004 -0.6161 -0.3877
 5175SOL     OW17777   3.033  10.326   5.404 -0.0850 -0.1039  1.0029
 5175SOL    HW117778   2.961  10.262   5.400 -0.1473 -0.0048  0.4432
 5175SOL    HW217779   3.077  10.317   5.320  0.6506 -0.2630  1.4018
 5176SOL     OW17780   2.111   9.740   0.281  0.5379  0.1680 -0.3717
 5176SOL    HW117781   2.104   9.821   0.230 -0.1501 -0.2178 -0.8973
 5176SOL    HW217782   2.200   9.709   0.263  0.6444  0.5526 -0.5411
 5177SOL     OW17783   1.172   6.896  10.354 -0.7955  0.2436 -0.0832
 5177SOL    HW117784   1.206   6.905  10.443 -1.8555  0.2133  0.3400
 5177SOL    HW217785   1.188   6.981  10.314 -1.2134  0.5975  0.4724
 5178SOL     OW17786   9.764   1.410   7.690 -0.0346 -0.0332 -0.2916
 5178SOL    HW117787   9.759   1.503   7.712 -2.5580 -0.2751  0.4816
 5178SOL    HW217788   9.719   1.403   7.606 -1.5257 -0.7604  0.5309
 5179SOL     OW17789  10.019   6.418   4.271 -0.6564  0.0465 -0.5384
 5179SOL    HW117790   9.995   6.325   4.271  1.1637 -0.4867 -1.6533
 5179SOL    HW217791  10.080   6.426   4.197  1.3916  1.5459  1.2103
 5180SOL     OW17792   1.903   3.538   3.208  0.1013  0.1019  0.2192
 5180SOL    HW117793   1.972   3.473   3.200 -0.5202 -0.3886 -1.5851
 5180SOL    HW217794   1.932   3.595   3.279  0.1513 -2.7437  2.7011
 5181SOL     OW17795   0.219   9.245   7.337  0.3908  0.4508  0.2444
 5181SOL    HW117796   0.136   9.201   7.319  0.2844  1.0093 -0.6826
 5181SOL    HW217797   0.277   9.216   7.266  0.0538  2.4720 -0.9115
 5182SOL     OW17798   7.015   3.109   2.260 -0.2770 -0.1788 -0.1535
 5182SOL    HW117799   7.042   3.043   2.324 -2.5827 -0.0873  1.0405
 5182SOL    HW217800   6.929   3.079   2.230 -1.6563  2.4526  0.8099
 5183SOL     OW17801   9.763   0.663   9.416  0.1497 -0.5853  0.1751
 5183SOL    HW117802   9.817   0.653   9.495 -1.2484  1.0922  1.4268
 5183SOL    HW217803   9.693   0.599   9.428  1.0689 -1.8294 -0.8037
 5184SOL     OW17804   8.031   0.076   5.224  0.6572 -0.7572 -0.1592
 5184SOL    HW117805   7.941   0.043   5.225  0.5184 -0.5470 -1.9359
 5184SOL    HW217806   8.064   0.051   5.137  1.9789  0.0405  0.0955
 5185SOL     OW17807   2.892   3.992   3.584 -0.3967 -0.1820 -0.1825
 5185SOL    HW117808   2.836   4.069   3.595 -0.3083  0.0119 -1.0137
 5185SOL    HW217809   2.943   4.011   3.505  2.2999  0.5050  1.6041
 5186SOL     OW17810   2.023   9.147   0.876 -0.5288 -0.3010  0.1821
 5186SOL    HW117811   1.994   9.057   0.885  1.1520 -0.9186 -0.2633
 5186SOL    HW217812   2.116   9.141   0.857 -0.5635  1.4879 -0.8529
 5187SOL     OW17813   8.429   5.009   8.752  0.3051 -0.3654  0.5668
 5187SOL    HW117814   8.482   5.031   8.829 -1.9315 -1.3998  2.5503
 5187SOL    HW217815   8.409   4.916   8.762 -0.7069 -0.3388 -0.8455
 5188SOL     OW17816   6.167   1.328   7.071 -0.6548 -0.6257 -0.5118
 5188SOL    HW117817   6.252   1.349   7.109 -1.5194  1.2309  0.5115
 5188SOL    HW217818   6.184   1.252   7.014  1.8917  0.4102 -1.2474
 5189SOL     OW17819   2.280   4.246   3.819  0.3011  0.3116  0.1521
 5189SOL    HW117820   2.237   4.292   3.747  1.0488  0.4788 -0.1963
 5189SOL    HW217821   2.241   4.284   3.898 -2.0815 -1.3581 -0.1377
 5190SOL     OW17822   2.304   3.178   6.304 -0.1952  0.0222  0.3241
 5190SOL    HW117823   2.381   3.174   6.247  0.2208 -0.4894  0.9107
 5190SOL    HW217824   2.337   3.210   6.388 -0.1727 -2.2647  1.2642
 5191SOL     OW17825   8.729   4.621  10.331 -0.5164  0.5105  0.0383
 5191SOL    HW117826   8.668   4.553  10.360 -1.5368  0.8976 -1.1259
 5191SOL    HW217827   8.805   4.611  10.389 -0.5055 -1.7879 -0.2862
 5192SOL     OW17828   6.028   8.738   4.561 -0.4507 -0.4079  0.0853
 5192SOL    HW117829   5.942   8.755   4.598 -0.7681 -0.0953 -0.7882
 5192SOL    HW217830   6.054   8.653   4.598 -0.7344 -0.0914  1.0437
 5193SOL     OW17831  10.040   3.210   3.824  0.3150 -0.4797  0.5105
 5193SOL    HW117832   9.974   3.277   3.840  1.6732  1.1591 -0.3424
 5193SOL    HW217833  10.060   3.174   3.910 -0.3912  0.2860  1.0102
 5194SOL     OW17834   4.551   1.370   9.794 -0.9945  0.4617  0.4087
 5194SOL    HW117835   4.525   1.341   9.881 -1.5381  1.3487  0.5490
 5194SOL    HW217836   4.640   1.404   9.805 -0.6864 -0.3124  0.4118
 5195SOL     OW17837   2.518  10.600   4.818  0.0205 -0.7387 -0.3357
 5195SOL    HW117838   2.543  10.573   4.906 -2.1790 -1.1320  0.2407
 5195SOL    HW217839   2.601  10.612   4.772  1.2560  0.1014  1.9493
 5196SOL     OW17840   7.372   2.663   0.012  0.6241  0.2217 -0.2855
 5196SOL    HW117841   7.398   2.682  -0.078  2.3151  1.9224  0.4839
 5196SOL    HW217842   7.278   2.647   0.007  0.5007  1.1910 -2.2285
 5197SOL     OW17843   3.114   4.427   4.866  0.1050 -0.4759 -0.2251
 5197SOL    HW117844   3.059   4.349   4.876 -0.9628  0.1913 -0.7466
 5197SOL    HW217845   3.158   4.415   4.782  1.9304 -1.6816  0.8038
 5198SOL     OW17846   2.841   0.393   6.367  0.0905  0.0600 -0.2570
 5198SOL    HW117847   2.906   0.396   6.297 -0.8887  1.0338 -1.1445
 5198SOL    HW217848   2.816   0.301   6.372  0.9107 -0.1829 -0.4827
 5199SOL     OW17849   2.697   2.347   1.969  0.2425 -0.3030 -0.4451
 5199SOL    HW117850   2.688   2.279   1.902  1.3164 -2.0365  1.0597
 5199SOL    HW217851   2.784   2.384   1.954 -0.0197  0.2063 -0.7569
 5200SOL     OW17852   6.177   0.583   9.181 -0.3617 -0.3936 -0.4880
 5200SOL    HW117853   6.270   0.593   9.161  0.3219 -1.3519  1.8309
 5200SOL    HW217854   6.138   0.555   9.098  1.3916  0.0500 -1.5216
 5201SOL     OW17855   0.376   1.985   3.378  0.1339  0.2554 -0.5173
 5201SOL    HW117856   0.389   2.077   3.403  0.6691  0.9169 -2.9251
 5201SOL    HW217857   0.354   1.941   3.459  0.2478  2.4473  0.7887
 5202SOL     OW17858   5.210   4.293   4.024 -0.4389  0.1380  0.5218
 5202SOL    HW117859   5.118   4.269   4.016 -0.1284 -0.9056 -0.0522
 5202SOL    HW217860   5.249   4.222   4.075  0.1362  0.3458  0.3761
 5203SOL     OW17861   8.974   3.744   0.660 -0.2015 -0.5229 -0.0105
 5203SOL    HW117862   8.965   3.653   0.689 -0.3056 -0.4964  0.0402
 5203SOL    HW217863   8.884   3.773   0.643 -0.4786  0.4467  2.5813
 5204SOL     OW17864   9.608   3.853   7.161 -0.1752 -0.1905  0.3750
 5204SOL    HW117865   9.649   3.831   7.244 -0.6666 -0.4934  0.5423
 5204SOL    HW217866   9.580   3.944   7.171  1.5554  0.4471 -0.1945
 5205SOL     OW17867   1.597   1.783   9.409 -0.0415  0.2758  0.4065
 5205SOL    HW117868   1.679   1.739   9.389 -0.7704 -0.9007 -0.1139
 5205SOL    HW217869   1.580   1.840   9.334  1.0179  1.6667  1.1827
 5206SOL     OW17870   0.287  10.501   9.425  0.2849 -0.2979  0.4101
 5206SOL    HW117871   0.324  10.449   9.354  0.0113 -1.0710  0.8267
 5206SOL    HW217872   0.354  10.566   9.444  0.4136 -0.1521 -0.4710
 5207SOL     OW17873   7.305   5.027   2.660 -0.1381 -0.0774  0.0595
 5207SOL    HW117874   7.342   5.102   2.706 -0.1512 -0.8524  1.3580
 5207SOL    HW217875   7.223   5.009   2.706 -0.3755 -0.5982 -0.5519
 5208SOL     OW17876   9.795   2.009   4.324 -0.1189  0.3265 -0.1085
 5208SOL    HW117877   9.724   2.005   4.388 -0.1525  0.4173 -0.1401
 5208SOL    HW217878   9.825   1.919   4.315  0.3203  0.3956  0.5335
 5209SOL     OW17879   6.167   2.716   4.499  0.5296  0.3163  0.1325
 5209SOL    HW117880   6.165   2.796   4.551  1.6457  1.3659 -1.3807
 5209SOL    HW217881   6.153   2.745   4.409 -0.6424 -1.3788 -0.2972
 5210SOL     OW17882   8.812   4.966   6.023 -0.1724  0.3355  0.0258
 5210SOL    HW117883   8.845   4.877   6.022  0.4304  0.5599 -0.4857
 5210SOL    HW217884   8.749   4.967   6.096  0.4988 -0.2567  0.6328
 5211SOL     OW17885   6.562   0.138   4.911  0.0024 -0.0200  0.2116
 5211SOL    HW117886   6.488   0.194   4.935 -0.0576 -0.3683  0.8602
 5211SOL    HW217887   6.622   0.145   4.986 -0.0955 -0.9724  0.3887
 5212SOL     OW17888   6.856   2.769  10.521  0.0242  0.1448  0.5693
 5212SOL    HW117889   6.773   2.799  10.557 -1.4548 -1.2246 -1.5247
 5212SOL    HW217890   6.834   2.733  10.435  2.9490  0.7412 -0.5561
 5213SOL     OW17891   8.364   6.125   6.232 -0.1227  0.1196  0.1461
 5213SOL    HW117892   8.363   6.194   6.166  2.0521 -1.3578 -1.5491
 5213SOL    HW217893   8.303   6.060   6.200 -1.3918  0.7433  1.2208
 5214SOL     OW17894  10.373   9.612   2.423 -0.7273  0.1965 -0.0415
 5214SOL    HW117895  10.334   9.570   2.499 -1.7370  0.0203 -0.6329
 5214SOL    HW217896  10.314   9.590   2.351 -0.3109  1.1456 -0.6982
 5215SOL     OW17897   8.447   5.663   5.443  0.1254  0.4474  0.8425
 5215SOL    HW117898   8.363   5.618   5.433  0.2118  0.4226  0.1180
 5215SOL    HW217899   8.509   5.609   5.394  0.2475  1.2870  0.0252
 5216SOL     OW17900   3.982   3.899   0.442  0.0618  0.6146 -0.4004
 5216SOL    HW117901   3.987   3.859   0.355 -1.2464 -1.7057  0.5102
 5216SOL    HW217902   3.918   3.846   0.489 -0.3037  2.6581  1.5720
 5217SOL     OW17903   5.575   7.328   5.444 -0.6046  0.9122 -0.2606
 5217SOL    HW117904   5.487   7.322   5.407 -1.0164 -1.8633  0.8988
 5217SOL    HW217905   5.633   7.309   5.370 -1.2587 -1.3033 -0.2943
 5218SOL     OW17906   8.211   1.620   5.405 -0.3483  0.2471 -0.1196
 5218SOL    HW117907   8.286   1.678   5.419  0.7724 -1.2602  0.3324
 5218SOL    HW217908   8.184   1.594   5.492 -1.1424  0.4407 -0.3024
 5219SOL     OW17909   3.466  10.454   1.629  0.1522 -0.0436 -0.3124
 5219SOL    HW117910   3.415  10.506   1.567  0.5256  0.9822  0.2251
 5219SOL    HW217911   3.514  10.518   1.681  0.2745 -0.9122  0.6792
 5220SOL     OW17912   6.648   6.613   9.021 -0.1394  0.2434  0.5542
 5220SOL    HW117913   6.721   6.662   9.058  1.0243  0.9107 -2.3432
 5220SOL    HW217914   6.580   6.615   9.089  0.8400  3.5511  1.6140
 5221SOL     OW17915   1.904   2.184   0.189 -0.1748 -0.0821  0.3016
 5221SOL    HW117916   1.861   2.204   0.273 -3.0688  2.7999 -1.6472
 5221SOL    HW217917   1.850   2.115   0.151 -0.8659  0.8944 -0.5313
 5222SOL     OW17918   6.011   7.322   2.690  0.2138 -0.1822  0.4185
 5222SOL    HW117919   6.072   7.263   2.734 -0.0658 -1.0916 -0.3641
 5222SOL    HW217920   6.058   7.353   2.613  0.1939  0.2737  0.5846
 5223SOL     OW17921   7.355   3.456   4.759 -0.2881 -0.1089 -0.5997
 5223SOL    HW117922   7.275   3.405   4.769 -0.3599 -0.0355 -0.7853
 5223SOL    HW217923   7.426   3.393   4.771 -0.3708 -0.0862  0.0198
 5224SOL     OW17924   0.661   0.078   3.976 -0.0542 -0.2285  0.2155
 5224SOL    HW117925   0.711   0.016   3.925 -2.0905 -1.5834 -0.2453
 5224SOL    HW217926   0.626   0.140   3.912 -2.0509 -1.5368 -0.0584
 5225SOL     OW17927   9.163   8.350   6.045 -1.0914  0.4612  0.1324
 5225SOL    HW117928   9.155   8.285   6.114 -0.8014 -0.1065 -0.3510
 5225SOL    HW217929   9.256   8.350   6.023 -1.3425 -0.2857 -1.0941
 5226SOL     OW17930   1.110   1.758   3.793 -0.5421  0.1210 -0.0421
 5226SOL    HW117931   1.027   1.756   3.841 -1.7051  0.4259 -1.9533
 5226SOL    HW217932   1.143   1.668   3.798 -2.2708 -0.6305 -1.3577
 5227SOL     OW17933   8.256   4.659   9.399  0.3520  0.3877 -0.0410
 5227SOL    HW117934   8.208   4.581   9.426  0.6923  0.0567 -0.3747
 5227SOL    HW217935   8.334   4.624   9.354  0.9004  0.9072  0.4861
 5228SOL     OW17936   6.572   7.445   1.650  0.0640 -0.5295 -0.5623
 5228SOL    HW117937   6.576   7.436   1.745  1.2013  0.1357 -0.5297
 5228SOL    HW217938   6.517   7.372   1.621  1.3990 -2.0100  0.4421
 5229SOL     OW17939   7.216   3.900   0.979  0.4367  0.3897 -0.5713
 5229SOL    HW117940   7.241   3.938   0.894  1.7130  0.5916 -0.1343
 5229SOL    HW217941   7.284   3.834   0.996 -0.1812 -0.1166 -0.0055
 5230SOL     OW17942   5.655   1.975   5.664 -0.4208  0.4786 -0.3048
 5230SOL    HW117943   5.738   1.971   5.712 -0.6777  0.5070  0.1503
 5230SOL    HW217944   5.680   1.988   5.573  0.0807  0.2555 -0.1988
 5231SOL     OW17945   1.959  10.170   1.624  0.4696 -0.0746 -0.1619
 5231SOL    HW117946   2.001  10.178   1.538 -0.9098  1.7001 -0.7546
 5231SOL    HW217947   1.873  10.132   1.604  1.4274 -3.0459  0.9372
 5232SOL     OW17948   5.506   3.051   0.344 -0.1945 -0.3844  0.6378
 5232SOL    HW117949   5.472   3.000   0.270 -2.0326  0.2512  1.0019
 5232SOL    HW217950   5.585   3.093   0.309 -0.0938 -1.4082 -0.4467
 5233SOL     OW17951   7.262   9.150   4.686  0.0644  0.1515 -0.4900
 5233SOL    HW117952   7.191   9.107   4.734 -0.5526  1.9528  0.3067
 5233SOL    HW217953   7.312   9.196   4.753  0.9864  0.2767 -1.2482
 5234SOL     OW17954   2.464   1.394   4.511 -0.2761  0.2089  0.5818
 5234SOL    HW117955   2.556   1.369   4.507 -0.4329 -0.4777  0.9789
 5234SOL    HW217956   2.464   1.482   4.548  0.2100  0.1419  0.7444
 5235SOL     OW17957   9.782   8.214   2.562  0.0209  0.0995  0.6454
 5235SOL    HW117958   9.698   8.189   2.602  0.1179 -0.1806  0.6731
 5235SOL    HW217959   9.832   8.251   2.635 -0.5878  1.5692  0.3600
 5236SOL     OW17960   1.052   9.164  10.075 -0.6063 -0.1684 -0.0878
 5236SOL    HW117961   1.121   9.214  10.118 -0.7970 -0.9002  1.1081
 5236SOL    HW217962   0.985   9.229  10.053 -0.6730  0.1683  1.0714
 5237SOL     OW17963   4.632   9.182   9.435  0.0374 -0.2417 -0.1492
 5237SOL    HW117964   4.539   9.163   9.452 -0.0429 -0.1700 -0.4984
 5237SOL    HW217965   4.631   9.244   9.362  0.3786 -0.8304 -0.6707
 5238SOL     OW17966   7.959   0.866   9.888  0.3902  0.1124 -0.4356
 5238SOL    HW117967   7.979   0.829   9.803  0.0424 -0.4149 -0.2911
 5238SOL    HW217968   7.865   0.853   9.898  0.1913  1.3337 -0.5242
 5239SOL     OW17969   5.494   5.286   4.506  0.2844 -0.0287 -0.3197
 5239SOL    HW117970   5.487   5.320   4.417 -2.5022  0.3576 -0.0631
 5239SOL    HW217971   5.502   5.191   4.495  0.4428  0.0586 -1.0020
 5240SOL     OW17972   7.531   5.417   3.711 -0.2885  0.0932 -0.0574
 5240SOL    HW117973   7.603   5.356   3.693 -0.8027  0.0149 -2.0893
 5240SOL    HW217974   7.572   5.503   3.717  0.2204 -0.2074  1.0728
 5241SOL     OW17975   0.681   8.354   7.565  0.4558  0.5966 -0.3525
 5241SOL    HW117976   0.614   8.422   7.568  1.2098  1.3332  1.7662
 5241SOL    HW217977   0.751   8.391   7.511  0.1470  0.7950 -0.6171
 5242SOL     OW17978   2.428   6.539   8.574  0.0944  0.0898 -0.3556
 5242SOL    HW117979   2.519   6.539   8.544 -0.1241 -0.9262 -1.0683
 5242SOL    HW217980   2.391   6.457   8.540 -1.2933  0.8309 -0.7068
 5243SOL     OW17981   5.145   8.153   2.868 -0.1791  0.4962 -0.0382
 5243SOL    HW117982   5.092   8.112   2.936  0.0422  0.9302  0.3983
 5243SOL    HW217983   5.097   8.136   2.787  0.9154 -2.4226 -0.1994
 5244SOL     OW17984   8.704   8.737   8.714  0.3932 -0.3748  0.1024
 5244SOL    HW117985   8.707   8.656   8.662  0.3431 -0.8936  0.8915
 5244SOL    HW217986   8.629   8.724   8.772  0.6730  0.0426  0.5566
 5245SOL     OW17987   6.544   0.926   8.094 -0.7400 -0.5465  0.3378
 5245SOL    HW117988   6.469   0.920   8.152 -0.7132 -1.3651  0.2950
 5245SOL    HW217989   6.577   0.836   8.086  0.8256 -0.0821  1.1232
 5246SOL     OW17990   5.942   1.470   0.518 -0.2952 -0.6523  0.7378
 5246SOL    HW117991   6.014   1.407   0.510 -0.4497 -0.6125 -1.5961
 5246SOL    HW217992   5.863   1.418   0.513 -0.4160 -0.4369  0.2872
 5247SOL     OW17993   8.702   8.552   5.521 -0.4988 -0.5217  0.6512
 5247SOL    HW117994   8.759   8.485   5.557 -2.1802 -1.3381  1.9153
 5247SOL    HW217995   8.659   8.510   5.447  0.0329 -0.1110  0.0950
 5248SOL     OW17996   7.575   3.330   8.673 -0.0412  0.4798 -0.2443
 5248SOL    HW117997   7.578   3.289   8.586  0.4864  0.2544 -0.1253
 5248SOL    HW217998   7.650   3.390   8.674  1.3951 -1.2240  0.8756
 5249SOL     OW17999   8.210   1.144   1.737  0.2090 -0.1532  0.3293
 5249SOL    HW118000   8.235   1.232   1.709  0.4965  0.3256  1.9922
 5249SOL    HW218001   8.239   1.087   1.666  0.4010  1.0487 -0.5748
 5250SOL     OW18002  10.376   0.508  10.240 -0.4362 -0.2238  0.6983
 5250SOL    HW118003  10.395   0.414  10.240  1.2949  0.0804  1.6889
 5250SOL    HW218004  10.318   0.521  10.165 -1.4142 -2.2080  1.0594
 5251SOL     OW18005   9.903  10.364   5.375  0.2278 -0.6028 -0.1486
 5251SOL    HW118006   9.860  10.448   5.356 -0.0762  0.2934  3.6300
 5251SOL    HW218007   9.951  10.343   5.295  0.0910  3.0344 -1.3906
 5252SOL     OW18008   6.773   1.376   4.706 -0.5616 -0.1825 -0.1918
 5252SOL    HW118009   6.803   1.450   4.652 -0.5548  0.5655  0.8135
 5252SOL    HW218010   6.767   1.303   4.644 -1.0284  0.7618 -1.3077
 5253SOL     OW18011   3.188   7.877   6.573 -0.4270  0.3103  0.4733
 5253SOL    HW118012   3.207   7.913   6.660 -0.8950  1.4890  0.1056
 5253SOL    HW218013   3.166   7.953   6.519 -0.3742 -0.4232 -0.6275
 5254SOL     OW18014   4.019   1.661   3.895  0.2561  0.0819 -0.2132
 5254SOL    HW118015   3.948   1.684   3.835  0.3320 -0.5825 -0.5694
 5254SOL    HW218016   4.097   1.661   3.840  0.4808  0.4656  0.1025
 5255SOL     OW18017   5.523   1.822   2.793  0.9132 -0.2318 -0.5905
 5255SOL    HW118018   5.460   1.890   2.768 -1.2065 -2.0182 -0.4161
 5255SOL    HW218019   5.551   1.846   2.881  0.4880  0.6189 -0.6782
 5256SOL     OW18020   8.699   7.244   3.876 -0.7246 -0.3626  0.5208
 5256SOL    HW118021   8.635   7.311   3.854 -0.2424 -0.4944 -1.4151
 5256SOL    HW218022   8.776   7.293   3.905  0.0435  0.0396 -2.0058
 5257SOL     OW18023   1.677   0.079   2.064  0.1348 -0.0177  0.3624
 5257SOL    HW118024   1.702   0.045   1.978  1.2676 -0.1075  0.7039
 5257SOL    HW218025   1.657   0.001   2.115  0.6969 -0.0507  0.5393
 5258SOL     OW18026   7.323   2.470   3.979  0.3969  0.0945 -0.0571
 5258SOL    HW118027   7.234   2.444   4.002 -0.0465 -0.4740 -2.2378
 5258SOL    HW218028   7.327   2.564   3.997 -0.1570 -0.1345  1.3968
 5259SOL     OW18029   6.093   2.290   1.262  0.3420  0.3939  0.2929
 5259SOL    HW118030   6.129   2.201   1.271  0.9086  0.4213 -1.2759
 5259SOL    HW218031   6.124   2.337   1.339  0.5997 -0.5955  0.8079
 5260SOL     OW18032   7.450   1.150   4.045  0.1736  0.0006 -0.1404
 5260SOL    HW118033   7.468   1.177   4.135  0.7274 -0.1273 -0.2097
 5260SOL    HW218034   7.470   1.228   3.992  1.8218 -0.5274 -0.3456
 5261SOL     OW18035   8.275   1.996   3.936  0.5245 -0.3650 -0.0821
 5261SOL    HW118036   8.366   2.005   3.965  0.2377  0.3239  0.6453
 5261SOL    HW218037   8.271   2.046   3.854  0.3576  1.2816  0.8906
 5262SOL     OW18038   6.489   2.280   2.697 -0.7932  0.4543  0.4966
 5262SOL    HW118039   6.494   2.295   2.603 -0.1486  0.8258  0.5794
 5262SOL    HW218040   6.480   2.185   2.706 -0.6327  0.3957  0.0658
 5263SOL     OW18041   4.947   6.617   2.976  0.4681  0.9131  0.5792
 5263SOL    HW118042   5.007   6.669   3.028  0.7345  0.0918  1.1065
 5263SOL    HW218043   4.923   6.543   3.032  0.3806  0.2677 -0.2812
 5264SOL     OW18044   9.132   5.158   7.214  0.4785  0.1747 -0.7481
 5264SOL    HW118045   9.147   5.251   7.194  2.4024 -0.2240 -1.3569
 5264SOL    HW218046   9.040   5.144   7.193  0.3453  1.7771 -1.3823
 5265SOL     OW18047   0.435   0.979   5.371 -0.2829  0.0219 -0.4045
 5265SOL    HW118048   0.400   0.925   5.442  0.3406  0.6057  0.3779
 5265SOL    HW218049   0.376   1.055   5.367  1.3764  1.5608  1.6608
 5266SOL     OW18050   0.831   3.039   9.729 -0.2125 -0.3489 -0.1385
 5266SOL    HW118051   0.770   3.094   9.679 -0.8517 -0.2334  0.7624
 5266SOL    HW218052   0.875   3.100   9.789  1.3110 -0.3037 -1.2321
 5267SOL     OW18053   9.400   5.997   8.570  0.1141 -0.2565 -0.0292
 5267SOL    HW118054   9.356   5.912   8.558  0.4730 -0.6064  0.9450
 5267SOL    HW218055   9.334   6.052   8.611 -0.8075  0.6409 -2.5499
 5268SOL     OW18056   3.372   7.604   5.613 -0.1521 -0.1455 -0.0392
 5268SOL    HW118057   3.456   7.619   5.569 -0.4134  0.9714 -0.2025
 5268SOL    HW218058   3.383   7.522   5.660  1.3004  0.3562  0.5517
 5269SOL     OW18059   3.769   7.592   9.838 -0.2676  0.3737 -0.3403
 5269SOL    HW118060   3.694   7.537   9.861  0.1658  0.1150  0.5051
 5269SOL    HW218061   3.840   7.530   9.823  0.1119  0.6793  0.1798
 5270SOL     OW18062   9.172   0.875   6.968 -0.1573  0.4941  0.5575
 5270SOL    HW118063   9.204   0.919   6.890  1.3596 -1.0899  0.2304
 5270SOL    HW218064   9.077   0.882   6.962 -0.0341  1.5140 -0.7384
 5271SOL     OW18065   3.522   6.999   8.577 -0.1600  0.2141 -0.4434
 5271SOL    HW118066   3.428   7.000   8.559 -0.6020 -0.1494  1.5592
 5271SOL    HW218067   3.564   7.003   8.491 -2.0068 -0.6138 -1.4284
 5272SOL     OW18068   6.465   9.828   7.075 -0.4298  0.5859 -0.1393
 5272SOL    HW118069   6.481   9.786   6.990 -0.8424 -1.8236  0.8932
 5272SOL    HW218070   6.551   9.860   7.102 -0.0709  0.3212 -0.9279
 5273SOL     OW18071   5.634   5.048   7.833  0.5123 -0.0719 -0.3640
 5273SOL    HW118072   5.728   5.064   7.838  0.4289  0.0806  1.9435
 5273SOL    HW218073   5.623   4.958   7.864 -0.0517 -0.3359 -1.3076
 5274SOL     OW18074  10.100   3.888   7.339  0.0070 -0.1062 -0.0910
 5274SOL    HW118075  10.194   3.893   7.355 -0.4276  3.0527  2.6836
 5274SOL    HW218076  10.082   3.960   7.279 -0.6215 -0.9493 -0.9356
 5275SOL     OW18077  10.224   1.170   5.720 -0.0940 -0.2439 -0.1579
 5275SOL    HW118078  10.230   1.156   5.626 -0.9364 -0.0883 -0.2401
 5275SOL    HW218079  10.269   1.094   5.758 -0.5391 -0.7787 -0.6742
 5276SOL     OW18080   0.002   5.182  10.130  0.6125  0.8449 -0.1707
 5276SOL    HW118081  -0.092   5.194  10.116  0.7107  0.5790 -1.1451
 5276SOL    HW218082   0.025   5.248  10.196  0.0729  2.1282 -1.2188
 5277SOL     OW18083   6.427   4.156   4.821  0.1291 -0.4576 -0.3813
 5277SOL    HW118084   6.469   4.235   4.854 -0.1871 -0.8416  0.9901
 5277SOL    HW218085   6.484   4.085   4.850  0.2493 -0.7754 -1.3416
 5278SOL     OW18086  10.193   6.656   0.303 -0.4380  0.3599  0.4152
 5278SOL    HW118087  10.281   6.659   0.342 -0.2101 -0.1014 -0.0517
 5278SOL    HW218088  10.178   6.563   0.284 -1.1052  0.4108  0.6584
 5279SOL     OW18089   1.040   0.249   8.432  0.2446 -0.0116  0.6592
 5279SOL    HW118090   1.133   0.243   8.453  0.7114  0.4220 -1.0928
 5279SOL    HW218091   1.002   0.300   8.503  1.5391  0.6153  0.9258
 5280SOL     OW18092   8.598   5.000   9.554  0.8214 -0.1596  0.1534
 5280SOL    HW118093   8.503   5.015   9.549  0.7647 -0.6698 -0.3879
 5280SOL    HW218094   8.624   5.041   9.637  0.2277  0.5008  0.0209
 5281SOL     OW18095   1.442   4.378   3.021  0.3970 -0.7979 -0.1160
 5281SOL    HW118096   1.485   4.300   3.056 -1.4277 -1.3628  0.9804
 5281SOL    HW218097   1.470   4.449   3.079 -0.1761 -1.1683  0.6239
 5282SOL     OW18098   9.022   7.672   0.496 -0.8878 -0.3365  0.0684
 5282SOL    HW118099   9.028   7.581   0.465 -0.4281 -0.0835 -0.5945
 5282SOL    HW218100   8.942   7.673   0.548 -1.1191 -1.0313 -0.2508
 5283SOL     OW18101   1.396   0.143   9.266 -0.5724  0.0117 -0.6609
 5283SOL    HW118102   1.424   0.164   9.177 -1.3616  1.7865 -0.5329
 5283SOL    HW218103   1.445   0.203   9.322 -2.3523  1.1180 -0.2016
 5284SOL     OW18104   0.130   1.613   3.733  0.4059  0.8956  0.1810
 5284SOL    HW118105   0.131   1.529   3.778  1.9371  1.5554  1.4410
 5284SOL    HW218106   0.049   1.655   3.762 -1.4623 -0.8862 -2.0386
 5285SOL     OW18107   7.724   2.758   5.770  0.2542  0.3713  0.3903
 5285SOL    HW118108   7.773   2.803   5.702  0.2191 -1.2981 -0.8081
 5285SOL    HW218109   7.719   2.821   5.843  3.9302  0.7294  0.5110
 5286SOL     OW18110   4.668   3.038   0.334  0.3962  0.5619  0.0047
 5286SOL    HW118111   4.675   3.126   0.296  1.5466  0.0608 -1.0094
 5286SOL    HW218112   4.717   2.982   0.273  1.0369 -0.5225  1.4610
 5287SOL     OW18113   7.222  10.402  10.011 -0.1342 -0.0437 -0.0351
 5287SOL    HW118114   7.169  10.370   9.938 -0.8664  0.6064  0.1845
 5287SOL    HW218115   7.161  10.457  10.061  0.5474  0.0817  0.6716
 5288SOL     OW18116   0.462   9.469   2.674 -0.0631 -0.4664  0.1232
 5288SOL    HW118117   0.522   9.403   2.639 -0.9895 -0.9787 -0.5331
 5288SOL    HW218118   0.384   9.462   2.620 -0.6066  0.4082  0.7642
 5289SOL     OW18119   8.408   6.927   2.098  0.1955  0.0820  0.4273
 5289SOL    HW118120   8.476   6.990   2.072 -0.0907  0.3089  0.2065
 5289SOL    HW218121   8.455   6.858   2.145  0.5695  0.2634  0.3249
 5290SOL     OW18122  10.005   5.066   1.857  0.0180 -0.0049  0.2241
 5290SOL    HW118123   9.981   4.992   1.801  0.9656 -0.3985  0.3162
 5290SOL    HW218124  10.072   5.030   1.915  0.4583  0.9237  0.2953
 5291SOL     OW18125   8.110   0.535   0.116 -0.1719 -0.2568 -0.1862
 5291SOL    HW118126   8.016   0.546   0.101 -0.5732 -0.5584  1.8111
 5291SOL    HW218127   8.140   0.621   0.146  0.6778  0.4349 -2.7512
 5292SOL     OW18128   4.976   1.500   9.314 -0.0478 -0.2377 -0.2658
 5292SOL    HW118129   5.053   1.556   9.319 -0.2712  0.0187  0.5332
 5292SOL    HW218130   4.987   1.450   9.234  0.3735  0.6440 -0.7712
 5293SOL     OW18131   5.614   4.529   7.130 -0.1844 -0.0131 -0.5291
 5293SOL    HW118132   5.627   4.600   7.067  0.1085 -1.1977 -1.8378
 5293SOL    HW218133   5.604   4.450   7.076 -0.7476 -0.9433  0.8790
 5294SOL     OW18134   9.944   5.924   7.696  0.1597  0.0028  0.2156
 5294SOL    HW118135   9.909   5.862   7.760  0.7774 -0.3946  0.1806
 5294SOL    HW218136   9.877   5.991   7.687 -0.5077 -0.6528  0.2711
 5295SOL     OW18137   0.521   4.702   3.096  0.3041  0.2391  0.5185
 5295SOL    HW118138   0.578   4.626   3.084 -0.1206  0.3076 -2.8987
 5295SOL    HW218139   0.441   4.666   3.135  0.3676 -0.9706 -0.4138
 5296SOL     OW18140   7.857   5.255   6.352  0.3644 -0.3057  0.2120
 5296SOL    HW118141   7.770   5.257   6.312 -0.2490 -1.1566  1.4250
 5296SOL    HW218142   7.917   5.249   6.278 -0.7101 -1.5064 -0.6101
 5297SOL     OW18143   5.772   1.543   5.939 -0.3131  0.5336 -0.0629
 5297SOL    HW118144   5.853   1.581   5.903 -0.0495  0.5522  0.5383
 5297SOL    HW218145   5.761   1.586   6.023 -1.8085  1.6775 -0.8001
 5298SOL     OW18146   6.573   9.047   8.052  0.2901  0.3726  0.7913
 5298SOL    HW118147   6.624   9.127   8.040  0.7939 -0.1830 -1.1374
 5298SOL    HW218148   6.606   9.009   8.133  2.9741  0.0614 -0.3591
 5299SOL     OW18149   9.304   6.477   5.234  0.2884  0.2643 -0.0630
 5299SOL    HW118150   9.286   6.389   5.269 -0.1221  1.0785  1.9496
 5299SOL    HW218151   9.370   6.464   5.167  0.5176 -1.5394  0.4716
 5300SOL     OW18152  10.431   4.836   8.984  0.2147 -0.5333 -0.3186
 5300SOL    HW118153  10.437   4.754   8.936  0.4384 -1.1899  0.7950
 5300SOL    HW218154  10.410   4.902   8.918 -2.3853 -1.8533 -0.9229
 5301SOL     OW18155   3.400   1.402   7.005  0.5258  1.0252  0.2035
 5301SOL    HW118156   3.400   1.461   7.079  3.1599  1.9983 -0.4670
 5301SOL    HW218157   3.443   1.451   6.934  0.2211 -0.6741 -1.2459
 5302SOL     OW18158   2.617   8.398   0.331 -0.3430 -0.1268 -0.4838
 5302SOL    HW118159   2.659   8.366   0.411  0.0479 -0.4746 -0.8283
 5302SOL    HW218160   2.664   8.355   0.260 -0.5230  0.3773 -0.9141
 5303SOL     OW18161  10.200  10.319   1.317 -0.0866  0.0132  0.1747
 5303SOL    HW118162  10.206  10.331   1.222 -0.1553  0.7836  0.2610
 5303SOL    HW218163  10.261  10.248   1.336 -2.5101 -2.5255 -0.8610
 5304SOL     OW18164   1.855   7.357   2.673 -0.1481  0.1394  0.2901
 5304SOL    HW118165   1.877   7.307   2.751 -0.9730  0.2068  0.5774
 5304SOL    HW218166   1.877   7.448   2.695 -1.2443  0.2918  0.7918
 5305SOL     OW18167   9.285   3.462   4.069  0.2522  0.5041 -0.5909
 5305SOL    HW118168   9.271   3.480   3.976  0.8079  0.1462 -0.7441
 5305SOL    HW218169   9.273   3.547   4.112 -1.0697  0.4785 -0.8614
 5306SOL     OW18170   1.534   3.275   9.036 -0.0419  0.4435 -0.2468
 5306SOL    HW118171   1.494   3.276   9.123 -2.7971  1.0282 -1.4089
 5306SOL    HW218172   1.549   3.367   9.015 -1.3125  0.4833 -1.1334
 5307SOL     OW18173   0.548   9.368  10.019 -0.0551 -0.0863  0.1356
 5307SOL    HW118174   0.473   9.349   9.963 -2.1133  0.7054  2.4371
 5307SOL    HW218175   0.549   9.296  10.082  0.3076  0.5420  0.8717
 5308SOL     OW18176   6.525   8.539   4.533  0.1323  0.0384 -0.3813
 5308SOL    HW118177   6.601   8.583   4.573  0.0383 -0.5219  0.4302
 5308SOL    HW218178   6.537   8.446   4.553 -0.9355 -0.0236  0.0578
 5309SOL     OW18179   9.740   4.735   6.517 -0.3531  0.5469  0.1914
 5309SOL    HW118180   9.792   4.815   6.527  0.8857 -0.1269 -0.5280
 5309SOL    HW218181   9.758   4.684   6.596  0.3460  0.1768 -0.2009
 5310SOL     OW18182   4.587   8.617   1.067 -0.2403 -0.1865  0.3388
 5310SOL    HW118183   4.587   8.533   1.021 -1.4828 -0.5735  0.9888
 5310SOL    HW218184   4.603   8.682   1.000 -0.6676 -0.8421 -0.4152
 5311SOL     OW18185  10.552   0.246   7.501  0.6330  0.3873 -0.5172
 5311SOL    HW118186  10.628   0.301   7.481 -0.0562  1.6661  0.2306
 5311SOL    HW218187  10.480   0.285   7.453  0.0221  0.4693  0.4265
 5312SOL     OW18188   2.217   8.772   8.145  0.2890 -0.4837 -0.3588
 5312SOL    HW118189   2.137   8.721   8.154  0.6114 -0.7633  1.2232
 5312SOL    HW218190   2.242   8.761   8.054  0.3685 -3.2122 -0.0811
 5313SOL     OW18191   0.663   1.736   8.219 -0.0626 -0.0435 -0.5635
 5313SOL    HW118192   0.610   1.789   8.160 -1.9429 -0.7520  0.4240
 5313SOL    HW218193   0.614   1.655   8.229  0.8852 -0.4750  0.9240
 5314SOL     OW18194   4.133   4.844   4.963 -0.3945  0.2636 -0.4743
 5314SOL    HW118195   4.182   4.835   5.045 -1.2225 -1.1382 -0.1092
 5314SOL    HW218196   4.043   4.859   4.991 -0.9810 -1.8747 -1.0858
 5315SOL     OW18197   1.453   6.327   0.783  0.1030  0.4388  0.8519
 5315SOL    HW118198   1.426   6.402   0.730  0.8473 -0.6376 -1.1478
 5315SOL    HW218199   1.548   6.328   0.781  0.1266 -0.5706  0.7786
 5316SOL     OW18200   7.014  10.634   8.754  0.1818  0.3255  0.5398
 5316SOL    HW118201   6.942  10.635   8.818  0.0471  0.9129  0.3812
 5316SOL    HW218202   6.982  10.575   8.685 -0.2270  0.7101  0.3899
 5317SOL     OW18203   5.974   1.866   1.996  0.1935  0.3317 -0.1164
 5317SOL    HW118204   5.927   1.795   2.039  0.5900 -0.4375 -0.9201
 5317SOL    HW218205   5.917   1.893   1.924 -0.0781  1.0259  0.3473
 5318SOL     OW18206   3.195   9.062   1.306  0.2339  0.4595 -0.9485
 5318SOL    HW118207   3.132   9.107   1.362 -0.1221  1.5393 -2.1642
 5318SOL    HW218208   3.277   9.065   1.355 -0.5827 -0.8553  0.6059
 5319SOL     OW18209   3.517   8.944   1.677 -0.4471 -0.8388  0.2000
 5319SOL    HW118210   3.468   8.992   1.744  1.1779 -0.2796  1.0480
 5319SOL    HW218211   3.602   8.988   1.674  0.8453 -3.1749  0.4627
 5320SOL     OW18212   3.212   6.368   3.487 -0.1013 -0.2110  0.1165
 5320SOL    HW118213   3.188   6.441   3.544  0.9352  0.5759 -0.4165
 5320SOL    HW218214   3.199   6.290   3.541  0.9974  0.5162  1.5014
 5321SOL     OW18215   5.638   5.068  10.190 -0.1868 -0.1311  0.0243
 5321SOL    HW118216   5.685   4.992  10.156  0.7586  0.5078 -0.1359
 5321SOL    HW218217   5.569   5.085  10.125 -0.7045 -1.1179  0.2979
 5322SOL     OW18218   9.785   0.976   5.013 -0.1474  0.0798  0.0832
 5322SOL    HW118219   9.701   0.980   4.966 -0.1173  0.7319  0.0647
 5322SOL    HW218220   9.782   1.051   5.072 -0.5470 -1.2179  1.7709
 5323SOL     OW18221   0.838   9.234  10.620  0.3408 -0.1558 -0.0961
 5323SOL    HW118222   0.762   9.290  10.630  0.3054 -0.2226  0.0077
 5323SOL    HW218223   0.811   9.168  10.556 -0.1290 -0.9463  0.8951
 5324SOL     OW18224   4.011   4.953   6.462  0.0615  0.5037  0.2574
 5324SOL    HW118225   4.010   4.862   6.434  1.0403  0.0749  1.5133
 5324SOL    HW218226   3.935   4.961   6.520 -1.9277  1.3751 -2.2634
 5325SOL     OW18227   1.142   1.477   2.762  0.1619 -0.0526  0.0745
 5325SOL    HW118228   1.193   1.497   2.840  1.4324 -1.7308 -0.2762
 5325SOL    HW218229   1.071   1.541   2.763  1.8056  1.8750  0.9992
 5326SOL     OW18230   9.930   9.734   1.723  0.2760 -0.0422  0.1407
 5326SOL    HW118231   9.906   9.730   1.631  0.6023  1.4605 -0.0288
 5326SOL    HW218232  10.004   9.795   1.727 -0.0446  0.3038  1.4515
 5327SOL     OW18233   9.967   9.833   2.971 -0.4254  0.2579 -0.1093
 5327SOL    HW118234  10.039   9.844   2.909 -1.0219 -0.0610 -0.8770
 5327SOL    HW218235   9.943   9.741   2.963 -1.7134  0.6286 -0.7782
 5328SOL     OW18236   2.488   6.647   6.973  0.2299  0.0237 -0.1888
 5328SOL    HW118237   2.491   6.590   6.896  2.4978  0.9381 -0.8746
 5328SOL    HW218238   2.407   6.697   6.964  0.1185 -0.3788 -1.6020
 5329SOL     OW18239   1.125   3.935   4.030  0.1414  0.2282  0.4706
 5329SOL    HW118240   1.058   3.882   4.072 -1.4001 -0.3541 -2.4571
 5329SOL    HW218241   1.159   3.991   4.100 -3.3508  0.5219  2.1349
 5330SOL     OW18242  10.017   8.691   5.296 -0.1553 -0.3488 -0.5981
 5330SOL    HW118243  10.048   8.700   5.206  0.3991 -2.1518 -0.6280
 5330SOL    HW218244  10.081   8.634   5.338  0.2906  1.4769  1.3285
 5331SOL     OW18245  10.649   8.804   0.546  0.2889 -0.4840  0.0754
 5331SOL    HW118246  10.687   8.738   0.489  1.8923 -0.5563  1.1719
 5331SOL    HW218247  10.555   8.802   0.526  0.6658 -1.1879 -1.8086
 5332SOL     OW18248   8.594   8.388   0.007  0.5944  0.0084 -0.1842
 5332SOL    HW118249   8.658   8.387   0.078 -0.5216  1.8842  0.9432
 5332SOL    HW218250   8.554   8.301   0.008  0.6846 -0.0302  1.4354
 5333SOL     OW18251   3.194   1.920   0.940 -0.0949 -0.5335 -0.6696
 5333SOL    HW118252   3.253   1.847   0.962  1.9076  1.4273  0.8439
 5333SOL    HW218253   3.228   1.954   0.857  0.4307  0.0913 -0.2068
 5334SOL     OW18254   0.165   0.463   7.979  0.2079  0.4886 -0.3995
 5334SOL    HW118255   0.120   0.383   8.007  2.2985 -0.1679  1.3267
 5334SOL    HW218256   0.191   0.444   7.888  2.5612 -1.7839  0.6165
 5335SOL     OW18257   5.369   2.110   4.759 -0.4481  0.5217  0.0126
 5335SOL    HW118258   5.429   2.083   4.829 -0.4592  0.1980 -0.1047
 5335SOL    HW218259   5.356   2.204   4.775  0.1289  0.6063  0.0121
 5336SOL     OW18260   4.244   7.100   6.053  0.0828  0.3006  0.1490
 5336SOL    HW118261   4.174   7.053   6.008  0.0070 -0.2502  0.8373
 5336SOL    HW218262   4.324   7.053   6.029 -0.0491 -0.5242  1.2591
 5337SOL     OW18263   8.486   8.926   8.041 -0.1015  0.1655  0.2800
 5337SOL    HW118264   8.506   8.912   8.134 -0.2612  2.0633  0.6519
 5337SOL    HW218265   8.507   9.018   8.026  1.0924 -0.3916 -1.9071
 5338SOL     OW18266   1.948   3.649   0.054  0.3864 -0.2841  0.3266
 5338SOL    HW118267   1.911   3.623  -0.031  0.8339 -0.7878  0.2799
 5338SOL    HW218268   2.023   3.704   0.031 -0.0592  0.3781  0.4158
 5339SOL     OW18269   4.540   8.648   0.559  0.3159  0.6785 -0.1266
 5339SOL    HW118270   4.459   8.597   0.565 -0.8497  2.4477 -0.1766
 5339SOL    HW218271   4.591   8.604   0.490  0.6034 -1.9871  1.6413
 5340SOL     OW18272   5.792   9.744   3.746 -0.3562 -0.2016  0.3669
 5340SOL    HW118273   5.744   9.691   3.682  0.3464 -0.7446  0.2800
 5340SOL    HW218274   5.788   9.694   3.827 -1.5384  0.6455  0.8735
 5341SOL     OW18275   5.284   0.460   2.300 -0.4269 -0.0534  0.7187
 5341SOL    HW118276   5.246   0.439   2.386 -2.2167  0.9831  0.2192
 5341SOL    HW218277   5.331   0.380   2.276 -2.9870 -1.7849  1.0307
 5342SOL     OW18278   9.430   4.295  10.279 -0.5928 -0.8000 -0.0934
 5342SOL    HW118279   9.376   4.284  10.200  2.2498 -1.2412 -2.1245
 5342SOL    HW218280   9.490   4.221  10.278  0.2740 -0.1934  1.9016
 5343SOL     OW18281   7.892   9.070  10.344 -0.9073  0.0577  0.3801
 5343SOL    HW118282   7.914   9.162  10.362 -0.5758 -0.3041  2.0413
 5343SOL    HW218283   7.977   9.029  10.327 -1.0339  0.0080 -0.1392
 5344SOL     OW18284   1.113   0.017   3.926  0.0876 -0.0045  0.2897
 5344SOL    HW118285   1.107   0.086   3.860  1.0681  0.0582  0.2547
 5344SOL    HW218286   1.115   0.064   4.009  4.1778  0.3588  0.2123
 5345SOL     OW18287   5.797   5.844   7.854 -0.0421  0.5775  0.0442
 5345SOL    HW118288   5.852   5.768   7.833 -0.1128  0.7316 -0.7623
 5345SOL    HW218289   5.859   5.914   7.873  0.0263  0.3744  0.5601
 5346SOL     OW18290  10.133   0.537   1.692 -0.3310 -0.5039  0.1101
 5346SOL    HW118291  10.104   0.522   1.782  1.5583  0.4712  0.9316
 5346SOL    HW218292  10.064   0.497   1.638 -3.2636  1.8015  1.8588
 5347SOL     OW18293   0.202   2.876   1.795  0.5663 -0.3723  0.6277
 5347SOL    HW118294   0.277   2.876   1.736  0.2942 -0.2466  0.2761
 5347SOL    HW218295   0.133   2.922   1.747  0.5294  0.2764  1.2882
 5348SOL     OW18296   5.848   7.007   3.255 -0.2900 -0.3000 -0.3316
 5348SOL    HW118297   5.860   6.912   3.262  1.5798  0.0039  1.4093
 5348SOL    HW218298   5.910   7.034   3.188 -0.0721 -0.1782 -0.0803
 5349SOL     OW18299   2.780   6.367   0.781 -0.1001  0.4157  0.6326
 5349SOL    HW118300   2.767   6.444   0.836  0.7325  0.2721  1.0498
 5349SOL    HW218301   2.782   6.402   0.691  0.7313  0.9521  0.8486
 5350SOL     OW18302   4.010   5.365   8.722  0.4841  0.2191 -0.0991
 5350SOL    HW118303   3.999   5.316   8.803  2.4276  0.9603  0.6691
 5350SOL    HW218304   3.931   5.418   8.715  0.0252 -0.3050  0.9858
 5351SOL     OW18305   0.865   4.828   3.480  0.0017 -0.0132  0.0729
 5351SOL    HW118306   0.794   4.808   3.420 -0.6279  0.1816  0.7403
 5351SOL    HW218307   0.945   4.807   3.431 -0.4933  0.1955 -0.8363
 5352SOL     OW18308   3.393   0.531  10.462 -0.1045 -0.4267 -0.4185
 5352SOL    HW118309   3.361   0.584  10.389  0.6187  0.9333  0.2156
 5352SOL    HW218310   3.323   0.535  10.527  0.0037 -0.1190 -0.3177
 5353SOL     OW18311   0.624   0.171   6.167  0.1811  0.7170  0.3596
 5353SOL    HW118312   0.663   0.084   6.181  0.1598  0.9024  1.6945
 5353SOL    HW218313   0.535   0.163   6.202 -0.7004  0.5891 -1.7510
 5354SOL     OW18314   7.125   0.436   8.054 -0.1729  0.5965 -0.1235
 5354SOL    HW118315   7.215   0.414   8.029 -0.2879  1.1617 -1.1021
 5354SOL    HW218316   7.094   0.491   7.982 -1.0824  0.9432  0.5243
 5355SOL     OW18317   9.228   7.163   7.092 -0.1204  0.2070 -0.5393
 5355SOL    HW118318   9.196   7.151   7.003 -0.4680 -1.5068 -0.2158
 5355SOL    HW218319   9.166   7.224   7.132  0.5722  1.7629 -1.7002
 5356SOL     OW18320   8.640   7.911   4.601 -0.6709 -0.0257  0.5378
 5356SOL    HW118321   8.593   7.883   4.680  0.5031 -0.3323  1.1433
 5356SOL    HW218322   8.732   7.913   4.627 -0.5142  2.6640  0.0057
 5357SOL     OW18323   5.564   0.817   7.906  0.3157 -0.9613  0.4531
 5357SOL    HW118324   5.512   0.852   7.979  1.1261 -0.7276  0.9365
 5357SOL    HW218325   5.535   0.866   7.830  1.9286  1.3843  1.2255
 5358SOL     OW18326   3.794   0.499   9.823  0.2696 -0.3011 -0.4637
 5358SOL    HW118327   3.764   0.543   9.743 -1.4003 -0.1364  0.2289
 5358SOL    HW218328   3.736   0.423   9.832  1.2230 -1.0060 -0.0367
 5359SOL     OW18329  10.391   1.292   4.572 -0.5404  0.1454 -0.6654
 5359SOL    HW118330  10.346   1.240   4.638  0.3529 -1.8534 -1.5752
 5359SOL    HW218331  10.362   1.382   4.590 -2.3990 -0.6567  0.7311
 5360SOL     OW18332   2.096  10.446   3.811  0.1999  0.4342 -0.3952
 5360SOL    HW118333   2.027  10.471   3.750  1.0114  0.3859 -1.3594
 5360SOL    HW218334   2.050  10.417   3.890 -0.8653  0.4941 -0.9885
 5361SOL     OW18335   0.552   2.009  10.540  0.0538 -0.6468 -0.0569
 5361SOL    HW118336   0.495   1.937  10.566  1.3246 -1.1904  1.3031
 5361SOL    HW218337   0.547   2.009  10.444 -1.7141 -1.0673 -0.0086
 5362SOL     OW18338   2.368   9.165   1.335  0.1705  0.0104 -0.2397
 5362SOL    HW118339   2.412   9.249   1.346  0.2016 -0.2080  1.5935
 5362SOL    HW218340   2.282   9.177   1.376 -0.9120 -0.0849 -2.2988
 5363SOL     OW18341   6.024   7.394   8.462  0.4117 -0.0705 -0.0523
 5363SOL    HW118342   6.033   7.320   8.402  0.9521  0.2712 -0.3975
 5363SOL    HW218343   6.073   7.367   8.540 -0.0883 -0.4125  0.1525
 5364SOL     OW18344   1.802   6.830   4.852  0.1609 -0.2756 -0.1205
 5364SOL    HW118345   1.806   6.799   4.761 -1.0715  0.1350 -0.3348
 5364SOL    HW218346   1.893   6.828   4.882  0.8099  1.0372 -1.8596
 5365SOL     OW18347   0.185   6.550   0.016 -0.8413  0.0579 -0.1516
 5365SOL    HW118348   0.146   6.528   0.101  0.4750 -1.0441  0.2040
 5365SOL    HW218349   0.149   6.636  -0.006 -0.9785  0.5043  1.6767
 5366SOL     OW18350   8.927   3.007   1.878  0.4130 -0.3431 -0.4451
 5366SOL    HW118351   8.973   2.954   1.813  0.8939 -1.6593  0.9064
 5366SOL    HW218352   8.994   3.028   1.943 -0.0977  0.7884 -0.2730
 5367SOL     OW18353   4.144   3.952   4.657  0.4358 -0.1686  0.1692
 5367SOL    HW118354   4.219   3.945   4.598 -0.3109 -0.2817 -0.7948
 5367SOL    HW218355   4.148   4.042   4.690 -0.3718  0.6768 -1.8324
 5368SOL     OW18356   3.742   2.184   0.064  0.3114 -0.6067 -0.0726
 5368SOL    HW118357   3.662   2.185   0.012 -0.5000  0.0536  1.1547
 5368SOL    HW218358   3.805   2.233   0.011 -0.3677 -0.3339 -0.6449
 5369SOL     OW18359   2.449   4.896   7.674  0.1628  0.1765 -0.3122
 5369SOL    HW118360   2.517   4.898   7.607  0.0535  0.8770 -0.4089
 5369SOL    HW218361   2.456   4.808   7.713  1.1560  0.2611 -0.2769
 5370SOL     OW18362   4.548   3.566   2.952  0.0670 -0.7191  0.6718
 5370SOL    HW118363   4.558   3.480   2.994 -0.5576 -1.3477 -0.4052
 5370SOL    HW218364   4.534   3.545   2.859 -0.0470  0.5574  0.3900
 5371SOL     OW18365   5.214  10.445   9.861  0.1338  0.1091 -0.3963
 5371SOL    HW118366   5.126  10.422   9.890  0.5463 -0.5184  0.4033
 5371SOL    HW218367   5.213  10.431   9.767 -0.6488  0.2168 -0.4130
 5372SOL     OW18368   2.772   9.626   6.740 -0.0170  0.5213  0.1146
 5372SOL    HW118369   2.798   9.545   6.695  0.9444  1.0647 -0.3223
 5372SOL    HW218370   2.793   9.610   6.832 -3.4162 -1.2117  0.7871
 5373SOL     OW18371   0.904   1.305   0.556  0.3140  0.0342  0.3487
 5373SOL    HW118372   0.930   1.241   0.490 -1.9383  1.5006 -2.1666
 5373SOL    HW218373   0.966   1.377   0.545  0.9798 -0.4079  1.0773
 5374SOL     OW18374   1.975   6.131   7.502  0.2967  0.2956 -0.2996
 5374SOL    HW118375   2.042   6.075   7.541 -0.2701  0.0375  0.3193
 5374SOL    HW218376   2.007   6.220   7.514 -0.7869  0.3882  2.6307
 5375SOL     OW18377   7.679   0.014   5.241 -0.0490  0.0416  0.4844
 5375SOL    HW118378   7.614   0.065   5.290  1.1656  0.1993  2.0291
 5375SOL    HW218379   7.632  -0.065   5.215 -1.7599  1.5192 -1.3022
 5376SOL     OW18380   3.027   8.460   6.319  0.1257  0.1799  0.5670
 5376SOL    HW118381   2.959   8.512   6.275 -0.9872 -1.2962  0.4540
 5376SOL    HW218382   3.003   8.369   6.300  0.9704 -0.4325  2.2464
 5377SOL     OW18383   9.353   9.510   9.559  0.4070  0.2981 -0.0372
 5377SOL    HW118384   9.413   9.513   9.484  0.8365  0.5432  0.3111
 5377SOL    HW218385   9.394   9.566   9.625  0.7647 -1.0249  0.9058
 5378SOL     OW18386   0.123   3.173   2.915  0.0213  0.2621  0.4506
 5378SOL    HW118387   0.139   3.080   2.934  0.7210  0.6897  2.1196
 5378SOL    HW218388   0.038   3.191   2.955 -0.9713 -0.0413 -1.4008
 5379SOL     OW18389   5.348   9.438   5.398 -0.0045 -0.1865  0.3902
 5379SOL    HW118390   5.308   9.454   5.313  1.2256  1.2621  0.0373
 5379SOL    HW218391   5.302   9.498   5.458  0.2153 -0.0271  0.4025
 5380SOL     OW18392   7.931  10.191   4.429 -0.0120 -0.5290  0.7147
 5380SOL    HW118393   7.880  10.208   4.508  0.2647  0.8504  0.6212
 5380SOL    HW218394   8.008  10.144   4.461  0.6929  1.0633  1.4733
 5381SOL     OW18395   5.822   4.374   2.039 -0.1451  0.0382  0.5074
 5381SOL    HW118396   5.851   4.437   1.972 -0.2576 -0.4911 -0.0524
 5381SOL    HW218397   5.847   4.414   2.122 -1.6586  1.5834  0.2713
 5382SOL     OW18398   9.231   7.183   1.368 -0.1821 -0.4174 -0.4146
 5382SOL    HW118399   9.304   7.192   1.307  0.2863 -0.7726  0.0751
 5382SOL    HW218400   9.196   7.096   1.350  0.0876 -0.6069 -0.0496
 5383SOL     OW18401   8.772   2.576  10.399  0.0848 -0.7079 -0.0808
 5383SOL    HW118402   8.856   2.595  10.358  0.1770  0.2371  0.5111
 5383SOL    HW218403   8.744   2.493  10.360  0.6966 -0.3988 -1.2056
 5384SOL     OW18404   8.705   9.431   8.555  0.2711 -0.1837 -0.4846
 5384SOL    HW118405   8.688   9.346   8.514  2.2451 -0.4594 -0.8223
 5384SOL    HW218406   8.646   9.434   8.630 -0.0234 -1.7457 -0.6208
 5385SOL     OW18407   2.769   7.763   2.318 -0.0269 -0.0945  0.7470
 5385SOL    HW118408   2.753   7.843   2.268 -2.5747  0.7319  2.6706
 5385SOL    HW218409   2.779   7.793   2.408  1.4499 -1.7810  1.1951
 5386SOL     OW18410   8.201   1.061   1.170 -0.1316  0.3991  0.1069
 5386SOL    HW118411   8.182   1.143   1.215  1.3292  1.1605 -0.6187
 5386SOL    HW218412   8.129   1.052   1.107 -0.4350  0.9872  0.3566
 5387SOL     OW18413   6.853   7.908   6.987 -0.5240  0.2251 -0.4199
 5387SOL    HW118414   6.842   7.960   7.066 -0.1882 -0.7484  0.2923
 5387SOL    HW218415   6.948   7.899   6.977 -0.5680  0.2236 -0.8483
 5388SOL     OW18416   6.749   8.469   1.222  0.7431 -0.5468 -0.5174
 5388SOL    HW118417   6.660   8.447   1.193 -0.4909 -0.0200  2.5056
 5388SOL    HW218418   6.750   8.565   1.223  0.1534 -0.4756  2.3735
 5389SOL     OW18419   4.833   8.483   2.345  0.1507  0.2032 -0.1714
 5389SOL    HW118420   4.785   8.564   2.363 -1.2064 -0.4568 -0.6144
 5389SOL    HW218421   4.900   8.478   2.413 -1.1961  0.5813  1.2430
 5390SOL     OW18422   0.729   4.970   0.825  0.4428  0.0192  0.2663
 5390SOL    HW118423   0.780   4.889   0.823  0.0057 -0.2474 -0.5776
 5390SOL    HW218424   0.645   4.944   0.863 -0.0142 -0.1285 -0.8073
 5391SOL     OW18425   9.926   7.737   2.468  0.0254 -0.8790  0.4062
 5391SOL    HW118426   9.957   7.827   2.479 -0.3707 -0.8029  0.9266
 5391SOL    HW218427   9.881   7.737   2.384  0.1006 -0.6143  0.3645
 5392SOL     OW18428   7.506   6.126   1.225 -0.5139 -0.3250 -0.8901
 5392SOL    HW118429   7.560   6.202   1.245 -1.1603  0.2652 -1.3561
 5392SOL    HW218430   7.509   6.118   1.129  0.6549 -1.7156 -0.7728
 5393SOL     OW18431   5.198  10.219   1.144 -0.0590 -0.5084 -0.4512
 5393SOL    HW118432   5.166  10.146   1.092 -1.3059  0.6979 -1.4400
 5393SOL    HW218433   5.144  10.294   1.118  0.7343  0.6358  0.9969
 5394SOL     OW18434   9.399   9.890   3.591  0.0324 -0.1062  0.1695
 5394SOL    HW118435   9.307   9.916   3.595  0.4459  1.3361  0.8975
 5394SOL    HW218436   9.431   9.924   3.508 -0.5290 -2.3038 -1.0356
 5395SOL     OW18437   1.325  10.307   8.894 -0.3325  0.2261  0.4890
 5395SOL    HW118438   1.274  10.375   8.939 -1.5127  0.9437 -1.7624
 5395SOL    HW218439   1.263  10.235   8.882 -0.6222  0.7823 -1.5619
 5396SOL     OW18440   9.676   4.678   5.105  0.4152 -0.1800 -0.4754
 5396SOL    HW118441   9.622   4.609   5.143  0.1336  0.2831 -0.0232
 5396SOL    HW218442   9.747   4.631   5.061  1.2397 -0.7359  1.3370
 5397SOL     OW18443   7.826  10.222   6.120  0.9601 -0.6290  0.5209
 5397SOL    HW118444   7.775  10.198   6.042  0.3570 -1.4503  1.1475
 5397SOL    HW218445   7.761  10.250   6.184  1.5639  1.5960  0.2339
 5398SOL     OW18446   1.568   0.383   2.377 -0.4101  0.3491  0.1637
 5398SOL    HW118447   1.520   0.454   2.420 -0.3023  0.0533  0.7832
 5398SOL    HW218448   1.648   0.375   2.429  0.9385  1.6787 -1.5528
 5399SOL     OW18449   7.357   7.210   4.954  0.6376  0.5247 -0.2494
 5399SOL    HW118450   7.388   7.139   4.898 -0.8597 -1.0815  0.8876
 5399SOL    HW218451   7.347   7.285   4.894  0.0673 -0.8528 -1.9509
 5400SOL     OW18452   6.217   8.063   0.734  0.1820  0.3198 -0.2240
 5400SOL    HW118453   6.233   8.012   0.655  0.6304 -0.2918  0.2507
 5400SOL    HW218454   6.297   8.114   0.746  1.5711 -2.0449  1.6318
 5401SOL     OW18455   6.233   2.522   6.443  0.7028 -0.9987  0.4370
 5401SOL    HW118456   6.242   2.514   6.538 -0.6925 -1.1478  0.5725
 5401SOL    HW218457   6.222   2.432   6.411  4.4575 -1.3459 -0.3009
 5402SOL     OW18458   9.444   9.617   1.321  0.1333 -0.5592  0.1595
 5402SOL    HW118459   9.462   9.649   1.233  0.6880 -1.9895 -0.2935
 5402SOL    HW218460   9.529   9.621   1.365  0.2652 -1.4997  0.0295
 5403SOL     OW18461   0.469   8.661   2.732 -0.4983  0.2221 -0.1008
 5403SOL    HW118462   0.383   8.620   2.720 -0.9645  0.7514  1.2479
 5403SOL    HW218463   0.471   8.687   2.824  1.7192 -1.1362  0.3156
 5404SOL     OW18464   9.189   9.193   7.744 -0.3101  0.1513 -0.4390
 5404SOL    HW118465   9.152   9.221   7.660  0.2642 -0.3696 -0.8762
 5404SOL    HW218466   9.280   9.171   7.724  0.6222  2.5528  0.8575
 5405SOL     OW18467  10.311   5.912   9.285  0.7982 -0.6310  0.2317
 5405SOL    HW118468  10.246   5.900   9.355  1.8213  0.4198  1.4207
 5405SOL    HW218469  10.330   5.823   9.256 -0.2023 -1.0460  0.7843
 5406SOL     OW18470   1.157   7.111   7.632 -0.5593  0.6909  0.1083
 5406SOL    HW118471   1.186   7.064   7.554  2.3391  1.4268  0.6120
 5406SOL    HW218472   1.083   7.165   7.602 -0.1235  0.2461 -1.8729
 5407SOL     OW18473   9.604   4.845   4.027 -0.2792 -0.2331  0.1337
 5407SOL    HW118474   9.522   4.822   4.072 -0.2881  1.1545  0.8860
 5407SOL    HW218475   9.665   4.865   4.098 -0.0612  1.2769 -0.4578
 5408SOL     OW18476   1.204   8.510   5.156  0.1762  0.4234 -0.1411
 5408SOL    HW118477   1.160   8.434   5.118  0.8589 -1.1063  1.9164
 5408SOL    HW218478   1.288   8.475   5.186  0.6494  2.0940  0.5531
 5409SOL     OW18479   5.723   1.218   4.926  0.3885 -0.1048  0.1243
 5409SOL    HW118480   5.768   1.296   4.893  0.9092 -0.4462  0.0206
 5409SOL    HW218481   5.768   1.197   5.007 -0.9858  0.8243  1.1838
 5410SOL     OW18482  10.599   5.046   5.301 -0.2342 -0.1668  0.2045
 5410SOL    HW118483  10.513   5.007   5.310 -1.2305  1.8025 -0.1917
 5410SOL    HW218484  10.599   5.084   5.213  1.3840 -0.8717 -0.1452
 5411SOL     OW18485   6.779  10.453   3.304 -0.0388 -0.2802 -0.2397
 5411SOL    HW118486   6.779  10.374   3.250  0.0690 -0.8340  0.5475
 5411SOL    HW218487   6.852  10.440   3.365 -0.3745  0.1673  0.2687
 5412SOL     OW18488  10.643   0.854   0.090  0.4516 -0.4789  0.0210
 5412SOL    HW118489  10.608   0.883   0.174  0.3828 -2.1085  0.5916
 5412SOL    HW218490  10.578   0.792   0.057  2.0330 -2.4795  0.4270
 5413SOL     OW18491   2.026   0.456   1.318  0.3220  0.4000  0.1875
 5413SOL    HW118492   2.067   0.376   1.352  0.6108  0.6020  0.3262
 5413SOL    HW218493   2.021   0.514   1.393  1.9982  1.2706 -0.3165
 5414SOL     OW18494  10.470   2.592   5.614  0.4004  0.1755  0.3879
 5414SOL    HW118495  10.542   2.654   5.621 -0.3342  1.3885 -1.7424
 5414SOL    HW218496  10.397   2.635   5.660  1.1604 -1.4470  3.3401
 5415SOL     OW18497   6.487   5.226   4.872 -0.5246 -0.5087 -0.0836
 5415SOL    HW118498   6.437   5.217   4.954  0.7026 -2.2707  0.5255
 5415SOL    HW218499   6.533   5.143   4.863 -0.1732 -0.1227 -2.2946
 5416SOL     OW18500   2.078   9.071   3.034  0.7000 -0.4917 -0.0864
 5416SOL    HW118501   2.107   9.033   2.951 -0.4482 -0.2279 -0.6291
 5416SOL    HW218502   2.158   9.080   3.086  1.3462 -1.2349 -0.9240
 5417SOL     OW18503   9.208   7.200   9.942 -0.3536 -0.4822 -0.2835
 5417SOL    HW118504   9.276   7.140   9.910  0.0089  0.9985 -2.5553
 5417SOL    HW218505   9.139   7.143   9.974  0.2567 -2.1209 -1.7331
 5418SOL     OW18506  10.231   8.779   4.419  0.0831 -0.5416  0.2640
 5418SOL    HW118507  10.319   8.742   4.410 -0.0786 -1.1199  0.9942
 5418SOL    HW218508  10.180   8.736   4.351  0.7238  0.9884 -1.2519
 5419SOL     OW18509   7.551   2.146   6.014 -0.3804 -0.3929 -0.4117
 5419SOL    HW118510   7.619   2.210   6.035 -0.3912 -0.2245 -0.8697
 5419SOL    HW218511   7.503   2.186   5.941 -0.8205 -0.6165 -0.2462
 5420SOL     OW18512   3.510   5.287   5.159 -0.6802 -0.1117  0.2161
 5420SOL    HW118513   3.536   5.256   5.246  1.0568  0.6727  0.0044
 5420SOL    HW218514   3.536   5.379   5.158  1.8017 -0.7218 -2.0299
 5421SOL     OW18515   0.836   5.058   7.766 -0.5662 -0.3001  0.2555
 5421SOL    HW118516   0.819   4.968   7.736  1.3407 -0.5805 -0.0875
 5421SOL    HW218517   0.788   5.113   7.704 -1.2277 -1.0503  0.0828
 5422SOL     OW18518   7.327   3.790   6.085  0.0063 -0.0273  0.2213
 5422SOL    HW118519   7.321   3.884   6.068 -1.1456 -0.0882  0.2259
 5422SOL    HW218520   7.398   3.760   6.028  0.6006  0.8809  0.4422
 5423SOL     OW18521   6.325   0.902   0.621  0.0707 -0.2584 -0.0545
 5423SOL    HW118522   6.358   0.990   0.601 -1.3687  0.0864 -1.0811
 5423SOL    HW218523   6.263   0.915   0.693 -1.1484 -0.1988 -1.0832
 5424SOL     OW18524   5.201   4.142   9.904 -0.0049 -0.2324  0.5422
 5424SOL    HW118525   5.123   4.176   9.861 -1.1157 -2.4312  0.6939
 5424SOL    HW218526   5.209   4.193   9.985  1.5539  3.2789 -1.5998
 5425SOL     OW18527   2.531   6.709   4.796  0.3815  0.1027 -0.6532
 5425SOL    HW118528   2.507   6.621   4.825  0.9085  0.3050  0.4589
 5425SOL    HW218529   2.476   6.768   4.849 -0.2738  0.4404 -1.6873
 5426SOL     OW18530  10.081   2.110   1.321  0.7685 -0.4052  0.1594
 5426SOL    HW118531  10.104   2.052   1.248 -0.4862 -0.3780 -0.2792
 5426SOL    HW218532  10.118   2.195   1.296 -1.0374  0.0276 -1.2870
 5427SOL     OW18533   8.931   3.445  10.401  0.6651 -0.1591  0.5060
 5427SOL    HW118534   8.923   3.458  10.495 -1.3528 -0.1043  0.3871
 5427SOL    HW218535   8.943   3.533  10.366 -2.1433  0.3505  0.5219
 5428SOL     OW18536   6.400   2.750   2.502  0.3202  0.4729 -0.2160
 5428SOL    HW118537   6.333   2.690   2.535  1.9825 -1.0901  0.4766
 5428SOL    HW218538   6.364   2.837   2.518 -1.5074 -0.3192  0.1854
 5429SOL     OW18539   7.789   9.841   0.140  0.3921 -0.0485 -0.3954
 5429SOL    HW118540   7.848   9.858   0.066 -1.0541  3.5079 -0.9401
 5429SOL    HW218541   7.720   9.786   0.104  0.8437 -0.1782 -1.0748
 5430SOL     OW18542   5.112   2.848   0.458 -0.8449  0.2438  0.4914
 5430SOL    HW118543   5.102   2.861   0.363  1.0706  1.2732  0.3722
 5430SOL    HW218544   5.030   2.879   0.495 -1.2851  0.6700 -0.7831
 5431SOL     OW18545   9.919  10.249   8.692  0.3816  0.5659  0.0047
 5431SOL    HW118546   9.905  10.316   8.625  2.7268  1.3578  0.2342
 5431SOL    HW218547   9.908  10.295   8.775  1.3253  0.5246  0.1619
 5432SOL     OW18548   4.076   6.005   8.448 -0.2525 -0.4682 -0.2667
 5432SOL    HW118549   4.047   6.031   8.536  0.7800  0.3648 -0.1533
 5432SOL    HW218550   3.997   5.971   8.406 -1.3616  1.5409  0.0880
 5433SOL     OW18551   5.772   4.456   8.771 -0.2427 -0.3740  0.2251
 5433SOL    HW118552   5.788   4.368   8.736  0.2371 -0.6283  1.0568
 5433SOL    HW218553   5.679   4.471   8.757 -0.1727 -0.6996 -0.6255
 5434SOL     OW18554   0.003  10.406   2.149 -0.3382  0.4381 -0.3790
 5434SOL    HW118555   0.087  10.360   2.158 -0.5209  0.1192 -0.2893
 5434SOL    HW218556  -0.049  10.376   2.224 -0.5383  0.6239 -0.4420
 5435SOL     OW18557   0.915   7.035   0.793  0.2412  0.0303 -0.3315
 5435SOL    HW118558   0.986   7.095   0.770 -0.0044  0.9235  1.0655
 5435SOL    HW218559   0.861   7.085   0.855 -1.7182 -0.5565 -1.4783
 5436SOL     OW18560   2.623   2.473   0.685  0.4414  0.3613  0.1316
 5436SOL    HW118561   2.689   2.542   0.685  0.4668  0.3442 -0.4369
 5436SOL    HW218562   2.672   2.393   0.699  0.4078  0.4625  0.8299
 5437SOL     OW18563   1.475   7.795   7.582  0.0912 -0.4212 -0.1317
 5437SOL    HW118564   1.547   7.734   7.564 -1.5385 -2.2356 -0.8195
 5437SOL    HW218565   1.453   7.780   7.674  0.1471 -0.3393 -0.1042
 5438SOL     OW18566   7.314  10.073   2.117  0.5183  0.0578  0.2888
 5438SOL    HW118567   7.320  10.167   2.098  1.4637 -0.6977 -4.9572
 5438SOL    HW218568   7.224  10.050   2.093  1.0060 -0.6347 -0.9937
 5439SOL     OW18569   2.297   0.614   0.287  0.1541  0.2148 -0.0751
 5439SOL    HW118570   2.374   0.600   0.232  0.1132 -1.2698  0.1856
 5439SOL    HW218571   2.232   0.652   0.229  1.5734  3.1748  0.0933
 5440SOL     OW18572   8.895   7.267   9.157  0.3165 -0.2118  0.4353
 5440SOL    HW118573   8.942   7.191   9.190  1.9860 -0.7385 -2.6934
 5440SOL    HW218574   8.934   7.341   9.202  1.0980 -0.9806  1.0587
 5441SOL     OW18575   9.792   0.489   7.649 -0.0704  0.8142  0.4634
 5441SOL    HW118576   9.710   0.536   7.666  0.6502  2.6577 -0.7988
 5441SOL    HW218577   9.766   0.415   7.594 -1.6570 -2.1988  4.7509
 5442SOL     OW18578   8.867   9.833   0.892  0.2443 -0.3996  0.4438
 5442SOL    HW118579   8.910   9.905   0.846  1.4040 -1.8719 -0.8968
 5442SOL    HW218580   8.935   9.797   0.949  0.1816 -1.4251 -0.1100
 5443SOL     OW18581   0.824   1.090   4.524 -0.1473 -0.0466 -0.3188
 5443SOL    HW118582   0.918   1.081   4.533 -0.1533 -0.3750 -0.5887
 5443SOL    HW218583   0.812   1.177   4.485 -0.0635  0.8806  1.5818
 5444SOL     OW18584   1.071   7.303   2.270  0.7062  0.2475  0.1533
 5444SOL    HW118585   1.019   7.234   2.313  1.0384 -0.4542 -0.5432
 5444SOL    HW218586   1.019   7.328   2.194  1.3262 -0.3968 -0.5010
 5445SOL     OW18587   9.497   3.582   6.241  0.5044 -0.0582 -0.2703
 5445SOL    HW118588   9.567   3.638   6.206  1.5846 -0.6342  0.9028
 5445SOL    HW218589   9.532   3.549   6.323 -0.3963 -1.9083 -0.5943
 5446SOL     OW18590   2.108   8.519   7.582  0.1150  0.1333 -0.1996
 5446SOL    HW118591   2.148   8.458   7.644 -0.6757 -0.5063 -0.3160
 5446SOL    HW218592   2.170   8.592   7.579  0.2636  0.1092  1.2204
 5447SOL     OW18593   1.860   1.341   2.011 -0.4146 -0.2733  1.1100
 5447SOL    HW118594   1.824   1.255   2.036  0.1373 -0.0871  2.6597
 5447SOL    HW218595   1.937   1.352   2.068 -0.5983  1.3456  1.0805
 5448SOL     OW18596   7.584   0.731   4.077 -0.0028 -0.7606 -0.6424
 5448SOL    HW118597   7.668   0.728   4.031  0.3833 -0.0752 -0.0133
 5448SOL    HW218598   7.595   0.801   4.141 -0.9181 -0.9445 -0.2731
 5449SOL     OW18599   5.023   6.384   8.136  0.0719  0.5585 -0.0602
 5449SOL    HW118600   4.935   6.397   8.099 -0.0939  0.1296  0.1862
 5449SOL    HW218601   5.078   6.445   8.087  0.2101 -1.2306 -2.2934
 5450SOL     OW18602   4.514   4.524   9.214 -0.2387 -0.0197 -0.2456
 5450SOL    HW118603   4.492   4.568   9.296 -0.8437 -0.3749 -0.2142
 5450SOL    HW218604   4.444   4.549   9.154 -0.0606 -0.1598 -0.5134
 5451SOL     OW18605   0.140   2.457   9.736  0.2129 -0.2617  0.2496
 5451SOL    HW118606   0.067   2.492   9.788  0.5128 -1.1968  1.3423
 5451SOL    HW218607   0.216   2.509   9.763  0.4275 -0.9395  1.0085
 5452SOL     OW18608   8.042   9.090   5.291 -0.5597 -0.2805 -0.1607
 5452SOL    HW118609   8.002   9.022   5.238 -0.9464 -0.9727  0.9934
 5452SOL    HW218610   7.970   9.126   5.343  0.1669 -1.1865  1.5531
 5453SOL     OW18611   6.900   5.127   0.277  0.2686  0.1382  0.0622
 5453SOL    HW118612   6.835   5.197   0.268 -1.1936 -1.0084  1.2889
 5453SOL    HW218613   6.919   5.101   0.187  0.6125  1.8564 -0.4087
 5454SOL     OW18614   2.385   5.889   1.886  0.0984  0.1749 -0.6593
 5454SOL    HW118615   2.306   5.880   1.938  0.6868 -1.2841  0.0518
 5454SOL    HW218616   2.418   5.799   1.877  2.0449  0.8066 -0.3069
 5455SOL     OW18617   6.924   5.408   4.190 -0.0121  0.7511  0.1302
 5455SOL    HW118618   7.000   5.466   4.185 -1.1743  2.4066  0.6025
 5455SOL    HW218619   6.849   5.467   4.180 -1.2547 -0.7389  0.3522
 5456SOL     OW18620   6.996   6.331   6.792  0.1873  0.3593 -0.0136
 5456SOL    HW118621   6.949   6.284   6.723 -1.9192  2.8954 -0.4498
 5456SOL    HW218622   7.024   6.262   6.852 -1.7543 -1.5694 -1.1551
 5457SOL     OW18623   2.331   1.923   9.474 -0.6558 -0.0774  0.0748
 5457SOL    HW118624   2.383   1.969   9.409  0.9651 -1.9844 -0.0920
 5457SOL    HW218625   2.312   1.988   9.541  0.7864  1.0306 -0.5537
 5458SOL     OW18626   0.505   7.088   1.785 -0.3989 -0.2787 -0.7988
 5458SOL    HW118627   0.583   7.143   1.789 -0.7865  0.2697 -0.6429
 5458SOL    HW218628   0.435   7.142   1.823 -0.0540 -2.2341  3.1150
 5459SOL     OW18629   2.641   2.736   8.845  0.5872 -0.5828  0.4418
 5459SOL    HW118630   2.735   2.738   8.823  0.2357  1.4208 -1.2505
 5459SOL    HW218631   2.597   2.733   8.760 -0.9159 -2.1475  1.2324
 5460SOL     OW18632   3.974   2.618   9.343  0.6791 -0.0042  0.0637
 5460SOL    HW118633   4.024   2.577   9.272  0.1090  0.3778 -0.5654
 5460SOL    HW218634   4.024   2.598   9.422  1.3575 -0.3810 -0.4533
 5461SOL     OW18635   9.642   5.307   5.818 -0.4282 -0.3810  0.0489
 5461SOL    HW118636   9.619   5.270   5.903 -1.2221 -1.5950 -0.6654
 5461SOL    HW218637   9.718   5.258   5.790 -0.8993 -0.8239 -0.4722
 5462SOL     OW18638   3.184   0.408   6.742 -0.0254  0.2699  0.4984
 5462SOL    HW118639   3.278   0.389   6.741 -0.0337  0.2143  0.6571
 5462SOL    HW218640   3.161   0.424   6.651 -0.3079 -1.9328  0.1316
 5463SOL     OW18641   4.629   1.289   4.182  0.3614 -0.1897  0.3329
 5463SOL    HW118642   4.685   1.285   4.105 -2.0789  0.4918 -1.6498
 5463SOL    HW218643   4.550   1.241   4.157 -0.3284 -0.4084  2.6407
 5464SOL     OW18644   2.300   4.752   1.060 -0.9749  0.1303 -0.6098
 5464SOL    HW118645   2.293   4.789   1.148  1.2983  0.8828 -0.6806
 5464SOL    HW218646   2.315   4.659   1.074 -0.0302  0.3418 -0.1643
 5465SOL     OW18647   7.373   5.131   5.549  0.0542  0.1386  0.3416
 5465SOL    HW118648   7.350   5.038   5.553 -0.8204  0.1367 -2.7437
 5465SOL    HW218649   7.291   5.176   5.534  0.5831  1.3680  0.9986
 5466SOL     OW18650   4.993   3.279   6.335  0.1557 -0.1863  0.2085
 5466SOL    HW118651   4.902   3.263   6.312  0.3041  0.4654 -0.9016
 5466SOL    HW218652   5.004   3.238   6.421 -1.0940 -0.5301  0.2182
 5467SOL     OW18653   6.787   1.941   4.961 -0.1682 -0.4384 -0.0873
 5467SOL    HW118654   6.797   2.030   4.927 -1.2600 -0.9114 -1.8215
 5467SOL    HW218655   6.745   1.952   5.046 -0.9125  0.7090 -0.5654
 5468SOL     OW18656   9.040   6.455   9.890 -0.2168 -0.3246 -0.2061
 5468SOL    HW118657   9.080   6.370   9.872  0.4592 -0.3513  1.3489
 5468SOL    HW218658   8.947   6.435   9.903 -0.3749 -0.5676 -1.5390
 5469SOL     OW18659   7.290   7.514   0.332  0.4621  0.3766 -0.4110
 5469SOL    HW118660   7.221   7.568   0.293  0.0334 -0.0116 -0.1995
 5469SOL    HW218661   7.246   7.432   0.355  1.1666 -0.1799 -0.9968
 5470SOL     OW18662   7.767   9.590   5.065 -0.4554  0.3324  1.2693
 5470SOL    HW118663   7.816   9.534   5.125 -0.9449  0.5050  1.8303
 5470SOL    HW218664   7.789   9.557   4.978  0.6525  0.3953  1.5103
 5471SOL     OW18665   2.472   9.632   2.633 -0.9027 -0.5419 -0.0488
 5471SOL    HW118666   2.554   9.606   2.674  0.3086  1.4785 -1.0178
 5471SOL    HW218667   2.424   9.678   2.702  0.4785  1.5423 -0.3734
 5472SOL     OW18668   1.576   5.148   2.393 -0.6316 -0.0046 -0.2771
 5472SOL    HW118669   1.571   5.207   2.317  0.2550  0.2549 -0.1474
 5472SOL    HW218670   1.624   5.072   2.361  0.7804  0.6047  0.3077
 5473SOL     OW18671   2.080   6.056   4.775  0.4447  0.0119 -0.3274
 5473SOL    HW118672   2.130   5.979   4.803  0.3554  0.3834  0.9318
 5473SOL    HW218673   2.119   6.082   4.692 -0.1086 -1.9184 -1.2502
 5474SOL     OW18674   8.099   4.975   3.344  0.7087  0.2570  0.6252
 5474SOL    HW118675   8.155   4.916   3.293  0.3587 -0.1879  0.7487
 5474SOL    HW218676   8.097   4.936   3.432  0.2780  0.3140  0.6411
 5475SOL     OW18677   1.047   0.649   9.065 -0.2191 -0.6133  0.0916
 5475SOL    HW118678   0.977   0.685   9.011  0.0073 -0.9601 -0.4345
 5475SOL    HW218679   1.002   0.592   9.128 -0.5892  0.5630  0.9499
 5476SOL     OW18680   9.013   3.240   9.988 -0.0606  0.1179  0.2859
 5476SOL    HW118681   9.016   3.322  10.036 -0.9539 -0.4154  1.3210
 5476SOL    HW218682   9.095   3.196  10.008  0.2050  0.5437  0.1216
 5477SOL     OW18683   1.658   9.512   9.885 -0.5780 -0.8864  0.6667
 5477SOL    HW118684   1.736   9.501   9.832 -1.4404 -1.5440 -0.5329
 5477SOL    HW218685   1.587   9.475   9.831 -1.6339 -0.7466  1.9012
 5478SOL     OW18686   6.257   8.301   5.420  0.4713  0.3715 -0.1501
 5478SOL    HW118687   6.276   8.282   5.511 -0.5013  2.1977  0.4970
 5478SOL    HW218688   6.166   8.275   5.408  0.7784 -0.4469 -0.7921
 5479SOL     OW18689   2.978   9.152   0.925 -0.1537  0.1067 -0.2856
 5479SOL    HW118690   2.924   9.100   0.985  2.0777 -0.1465  1.6495
 5479SOL    HW218691   2.977   9.240   0.962 -0.7278  0.5493 -1.3121
 5480SOL     OW18692   8.753   8.414   6.666  0.5051  0.3795 -0.4475
 5480SOL    HW118693   8.842   8.389   6.640  1.7226  1.0358  2.6105
 5480SOL    HW218694   8.731   8.487   6.608  2.1849  0.5653 -0.9195
 5481SOL     OW18695   8.437   7.656   8.916  0.1272 -0.1354 -0.0839
 5481SOL    HW118696   8.368   7.618   8.862 -1.3961 -0.9524  2.2774
 5481SOL    HW218697   8.519   7.628   8.874 -0.9347 -0.4194 -2.1042
 5482SOL     OW18698   0.471   2.070   3.775  0.1427 -0.4962  0.3147
 5482SOL    HW118699   0.513   2.062   3.861  1.0464 -0.3720 -0.1012
 5482SOL    HW218700   0.458   2.164   3.763  2.8243 -0.1933 -0.9486
 5483SOL     OW18701   1.326   0.306   5.939 -0.3354  0.5048  0.1143
 5483SOL    HW118702   1.365   0.274   5.858  1.6813  1.7430  0.5197
 5483SOL    HW218703   1.399   0.347   5.987 -1.9610  2.1600  1.3571
 5484SOL     OW18704   2.660   7.398  10.323  0.5901 -0.1670 -0.0146
 5484SOL    HW118705   2.607   7.475  10.304  1.1924  0.1233 -0.5677
 5484SOL    HW218706   2.685   7.364  10.237  2.6354  0.6603  0.1777
 5485SOL     OW18707   8.151   3.753   5.725 -0.1963  0.1210  0.4975
 5485SOL    HW118708   8.122   3.757   5.634 -2.3441 -0.1347  1.1085
 5485SOL    HW218709   8.242   3.782   5.722 -0.3418  0.5694 -1.6600
 5486SOL     OW18710   7.446   4.213   1.374 -0.1931 -0.3305  0.1108
 5486SOL    HW118711   7.468   4.306   1.370  0.3735 -0.4827 -0.5636
 5486SOL    HW218712   7.524   4.171   1.410 -0.2114 -0.6176 -0.1801
 5487SOL     OW18713   2.682   1.284   9.794 -0.5682 -0.1778 -0.1830
 5487SOL    HW118714   2.650   1.348   9.857 -0.0888  1.6133 -1.6547
 5487SOL    HW218715   2.648   1.200   9.825 -0.5575  0.6510  2.2664
 5488SOL     OW18716   2.064   8.437   8.441  0.7631 -0.0849  0.0074
 5488SOL    HW118717   2.140   8.496   8.448  0.8066  0.2479 -2.4656
 5488SOL    HW218718   2.008   8.478   8.375 -1.4659 -0.4963  1.5594
 5489SOL     OW18719   0.527   1.846   8.030  0.9313 -0.0963  0.4667
 5489SOL    HW118720   0.549   1.933   7.996  0.1727 -0.1126 -0.0989
 5489SOL    HW218721   0.442   1.859   8.073  0.1321 -0.8435 -0.8472
 5490SOL     OW18722   0.488  10.624   2.778 -0.2343 -0.1235 -0.0058
 5490SOL    HW118723   0.432  10.623   2.855 -1.1778  0.9050 -0.6389
 5490SOL    HW218724   0.446  10.687   2.719  1.8639  1.1101 -0.2934
 5491SOL     OW18725   8.753   2.192   7.803 -0.6087  0.2623 -0.1549
 5491SOL    HW118726   8.768   2.175   7.896  3.1589  0.0672 -0.6625
 5491SOL    HW218727   8.740   2.106   7.765 -1.8746  0.3215  0.0957
 5492SOL     OW18728   5.296   0.055   5.785  0.0933 -0.1675 -0.1692
 5492SOL    HW118729   5.304   0.133   5.840 -0.3229 -0.6452  0.5789
 5492SOL    HW218730   5.328   0.083   5.699 -2.3801  1.5971 -0.6185
 5493SOL     OW18731   8.132   6.535  10.120 -0.1216  0.9327 -0.1406
 5493SOL    HW118732   8.118   6.588  10.041 -3.1590 -0.2081 -0.4918
 5493SOL    HW218733   8.046   6.533  10.163  0.5259 -1.5925  1.2151
 5494SOL     OW18734   3.977   0.974   9.222  0.0765 -0.5643 -0.0547
 5494SOL    HW118735   3.984   0.994   9.129 -0.9847  0.2613  0.0177
 5494SOL    HW218736   3.907   1.031   9.254  0.8500 -0.3648  1.3870
 5495SOL     OW18737   9.887   0.499   2.176 -0.2757 -0.1300  0.1399
 5495SOL    HW118738   9.904   0.585   2.215 -1.3701 -0.5661  1.6851
 5495SOL    HW218739   9.878   0.440   2.251 -1.3713 -1.2250 -0.8056
 5496SOL     OW18740   0.048   3.525   2.238 -0.0203 -0.2169  0.3871
 5496SOL    HW118741  -0.037   3.488   2.215 -0.2150 -0.2914  1.1910
 5496SOL    HW218742   0.109   3.483   2.178 -0.2785 -1.6350  1.0590
 5497SOL     OW18743   7.763   9.067   3.954 -0.2617  0.0566 -0.7773
 5497SOL    HW118744   7.819   8.990   3.959  1.2555  1.0991 -1.0274
 5497SOL    HW218745   7.679   9.034   3.922  0.5531 -1.3909 -1.4985
 5498SOL     OW18746   0.965   2.330   1.268  0.0836  0.1681  0.2069
 5498SOL    HW118747   0.965   2.303   1.176 -1.5895  1.5245 -0.2412
 5498SOL    HW218748   0.987   2.423   1.266  0.6754  0.0614  1.2482
 5499SOL     OW18749   9.759   1.117   1.145 -0.1438 -0.2380 -0.4393
 5499SOL    HW118750   9.696   1.157   1.086 -1.4076  0.1699  1.1219
 5499SOL    HW218751   9.709   1.095   1.223  1.1866 -2.0042 -0.0073
 5500SOL     OW18752   3.170   7.173   1.430 -0.4901  0.5134  0.4523
 5500SOL    HW118753   3.129   7.090   1.454  0.0099  0.4204  1.0141
 5500SOL    HW218754   3.134   7.193   1.344 -0.8452 -0.1330  0.4388
 5501SOL     OW18755   7.194   5.971   4.983  0.1530  0.0306 -0.8150
 5501SOL    HW118756   7.254   6.045   4.989  0.2732 -0.1815  0.9697
 5501SOL    HW218757   7.242   5.906   4.932  1.0207  0.2670 -0.3231
 5502SOL     OW18758   3.869   6.229   2.709  0.0440 -0.2647  0.0367
 5502SOL    HW118759   3.857   6.149   2.762 -0.6628  0.5297  1.1286
 5502SOL    HW218760   3.867   6.300   2.773 -0.8637  0.7405 -1.0746
 5503SOL     OW18761   7.698   6.280   7.825  0.3993  0.9628 -0.2774
 5503SOL    HW118762   7.679   6.371   7.848  2.1517  1.2734  0.1118
 5503SOL    HW218763   7.644   6.262   7.749  0.6524  2.6109 -0.8737
 5504SOL     OW18764   1.743   1.996  10.384 -0.1144 -0.5894  0.5642
 5504SOL    HW118765   1.669   1.943  10.416  0.0474 -1.0384  0.2085
 5504SOL    HW218766   1.709   2.085  10.381  0.0057 -0.4492  2.4305
 5505SOL     OW18767   3.285   3.064   1.257  0.5085 -0.1271 -0.6358
 5505SOL    HW118768   3.220   3.134   1.252  0.5999 -0.0825 -1.2743
 5505SOL    HW218769   3.241   2.993   1.304 -0.3381 -0.4508 -1.8822
 5506SOL     OW18770   5.836   9.995   9.875  0.1144 -0.6326 -0.6267
 5506SOL    HW118771   5.825   9.977   9.968 -0.3678  1.0288 -0.3193
 5506SOL    HW218772   5.878  10.081   9.872 -1.2770  0.0600 -1.9115
 5507SOL     OW18773   1.493   8.202   7.101  0.2216  0.5714  0.0837
 5507SOL    HW118774   1.478   8.195   7.195  0.9327 -0.6608  0.1292
 5507SOL    HW218775   1.469   8.116   7.066  1.2261  0.5805 -0.6705
 5508SOL     OW18776   2.856   5.431   6.413  0.8655 -0.5553  0.2881
 5508SOL    HW118777   2.828   5.397   6.499 -2.4125 -2.4532 -1.3213
 5508SOL    HW218778   2.864   5.353   6.359 -0.6580  0.7736 -2.0010
 5509SOL     OW18779   9.740   2.915   9.456  0.3500 -0.2548 -0.1276
 5509SOL    HW118780   9.704   2.857   9.389 -1.2024  0.5079  0.0035
 5509SOL    HW218781   9.826   2.878   9.475 -0.1079 -1.8261 -0.8803
 5510SOL     OW18782   6.478  10.557   9.215 -0.0361  0.4817  0.3354
 5510SOL    HW118783   6.426  10.479   9.235  0.9325 -0.1610  0.3965
 5510SOL    HW218784   6.531  10.571   9.293  0.5834  0.5575 -0.0912
 5511SOL     OW18785   0.182   9.795   1.537 -0.2945  0.4636 -0.4579
 5511SOL    HW118786   0.104   9.754   1.501 -1.5045  0.2855  2.1055
 5511SOL    HW218787   0.166   9.889   1.528  0.5947  0.4550 -2.5840
 5512SOL     OW18788   7.547   9.404   2.325  0.1992 -0.5511  0.3080
 5512SOL    HW118789   7.521   9.316   2.296  0.7670 -0.7673  0.4418
 5512SOL    HW218790   7.576   9.391   2.416 -2.2571  0.2315  1.2851
 5513SOL     OW18791   9.333  10.558   5.344 -0.3018  0.0475 -0.1895
 5513SOL    HW118792   9.371  10.643   5.366  0.9639 -0.4845 -0.2456
 5513SOL    HW218793   9.406  10.497   5.352 -0.4085 -0.6107 -3.1648
 5514SOL     OW18794   2.452   3.499   6.040  0.1525  0.0703 -0.6171
 5514SOL    HW118795   2.404   3.418   6.021  1.0501 -0.9607  1.2467
 5514SOL    HW218796   2.514   3.508   5.968  0.2090 -1.0466 -0.7209
 5515SOL     OW18797   4.244   1.896   4.342  0.3474 -0.3927  0.1071
 5515SOL    HW118798   4.315   1.960   4.347  0.9934 -1.1242  0.4680
 5515SOL    HW218799   4.278   1.828   4.284 -1.0346  0.4342 -1.7754
 5516SOL     OW18800   5.308   0.685   9.492  0.2867  0.6233  0.4627
 5516SOL    HW118801   5.213   0.684   9.485  0.1488  0.0573  2.0015
 5516SOL    HW218802   5.339   0.686   9.401 -1.1724  0.5095 -0.0620
 5517SOL     OW18803   5.859   3.523   7.907 -0.0301  0.6955  0.3140
 5517SOL    HW118804   5.915   3.544   7.832  0.8412 -4.7587 -1.0309
 5517SOL    HW218805   5.770   3.521   7.871  0.0356  0.8706  0.1397
 5518SOL     OW18806   0.456   2.138   2.001  0.2700  0.1861 -0.6845
 5518SOL    HW118807   0.472   2.225   2.039  1.7648 -0.2372 -0.2336
 5518SOL    HW218808   0.518   2.133   1.928  1.5534 -1.1426  0.4210
 5519SOL     OW18809   1.740   2.560   0.402  0.7441  0.0710 -0.4665
 5519SOL    HW118810   1.766   2.620   0.471 -1.0278 -1.1717  1.4149
 5519SOL    HW218811   1.806   2.571   0.334  1.2215  3.1069  0.3604
 5520SOL     OW18812   4.763   8.039   0.784 -0.4069  0.1636 -0.3710
 5520SOL    HW118813   4.673   8.048   0.814  0.0586  1.9736  0.6130
 5520SOL    HW218814   4.764   8.081   0.698 -0.8514 -1.4078 -1.1738
 5521SOL     OW18815   8.287  10.110   0.193  0.2777  0.1148  0.3974
 5521SOL    HW118816   8.238  10.040   0.235  2.8315 -1.8157  0.3794
 5521SOL    HW218817   8.287  10.087   0.100 -0.7861  1.4566  0.0204
 5522SOL     OW18818   1.724   1.080   1.885 -0.4142  0.3099 -0.2416
 5522SOL    HW118819   1.766   1.084   1.971  0.8426 -0.1057 -0.8081
 5522SOL    HW218820   1.642   1.127   1.896 -0.7662 -0.6469  1.4489
 5523SOL     OW18821   2.624   9.697  10.018  0.2576  0.2450  0.0813
 5523SOL    HW118822   2.612   9.781  10.062  0.3951  0.6566 -0.6498
 5523SOL    HW218823   2.548   9.645  10.044  0.7640  0.1541  1.4984
 5524SOL     OW18824   1.330   0.805   3.601  0.0402 -0.9930 -0.4712
 5524SOL    HW118825   1.271   0.874   3.570 -0.8520 -1.9065 -0.8564
 5524SOL    HW218826   1.317   0.733   3.540  1.5351 -1.2518 -0.5305
 5525SOL     OW18827   2.916   4.752   4.557  0.2388  0.3088 -0.0880
 5525SOL    HW118828   2.864   4.833   4.561 -0.9629 -0.4298 -0.1517
 5525SOL    HW218829   2.997   4.778   4.513 -0.7213  1.2016 -1.4274
 5526SOL     OW18830   5.900   1.852   8.108  0.6723  0.1116  0.5523
 5526SOL    HW118831   5.944   1.768   8.093 -0.5093 -0.1611 -1.8972
 5526SOL    HW218832   5.817   1.828   8.150  0.0095 -0.0723 -0.8074
 5527SOL     OW18833   7.006   1.837   4.267  0.0922  0.0733  0.6133
 5527SOL    HW118834   7.055   1.774   4.214 -0.0024 -0.2078  0.8518
 5527SOL    HW218835   6.915   1.808   4.260  0.0330  0.2535  0.6329
 5528SOL     OW18836   8.681   6.529   5.186 -0.1275 -0.0961  0.0221
 5528SOL    HW118837   8.598   6.545   5.142 -0.3891  0.8527  0.8102
 5528SOL    HW218838   8.656   6.505   5.276  0.4221  3.7055  1.3693
 5529SOL     OW18839   1.287   3.345   6.398  0.2847 -0.1314 -0.5641
 5529SOL    HW118840   1.303   3.439   6.404  0.3423 -0.2305  1.6124
 5529SOL    HW218841   1.374   3.306   6.404  0.0706 -0.3791  1.2888
 5530SOL     OW18842   0.539   6.948   4.640  0.3534  0.0547  0.1500
 5530SOL    HW118843   0.502   6.932   4.727  0.2902 -0.2162  0.0742
 5530SOL    HW218844   0.634   6.941   4.653  0.2965 -2.1134 -0.1992
 5531SOL     OW18845   8.497   0.199   8.775  0.4412 -0.2308  0.1978
 5531SOL    HW118846   8.565   0.235   8.717  0.1344 -1.6728 -1.1406
 5531SOL    HW218847   8.539   0.192   8.860  1.3881  0.5925 -0.1799
 5532SOL     OW18848   7.308   8.088   0.840 -0.5328  0.4269 -0.2314
 5532SOL    HW118849   7.380   8.152   0.834  0.1168 -0.2961 -0.3683
 5532SOL    HW218850   7.292   8.080   0.934 -0.8394  1.0303 -0.2303
 5533SOL     OW18851   3.212   1.830   7.734  0.4475 -0.4815  0.3104
 5533SOL    HW118852   3.191   1.833   7.828 -0.8375  1.0556  0.0181
 5533SOL    HW218853   3.282   1.895   7.724 -0.5381  0.5693 -0.0110
 5534SOL     OW18854   1.736   1.116   9.201 -0.1664  0.7622  0.1711
 5534SOL    HW118855   1.809   1.128   9.262 -1.1459  1.8389  1.1843
 5534SOL    HW218856   1.764   1.161   9.121  2.0385 -2.4588 -1.0692
 5535SOL     OW18857   3.365   1.300  10.118 -0.1031  0.5145 -0.9396
 5535SOL    HW118858   3.434   1.347  10.071  0.9703 -0.2042 -0.1388
 5535SOL    HW218859   3.404   1.281  10.204 -0.4833 -1.8257 -1.2297
 5536SOL     OW18860   9.571   5.845   3.517 -0.4430  0.2078  0.0110
 5536SOL    HW118861   9.606   5.926   3.553 -0.5380  0.2877 -0.0763
 5536SOL    HW218862   9.575   5.857   3.422 -0.0797 -0.0511 -0.0080
 5537SOL     OW18863   6.023   3.636  10.183 -0.0101 -0.0821 -0.0245
 5537SOL    HW118864   5.956   3.595  10.127  2.0940 -0.0891 -2.7411
 5537SOL    HW218865   6.094   3.572  10.186 -0.4514 -0.6323  3.8574
 5538SOL     OW18866  10.525   5.089   0.304 -0.1512 -0.2162  0.1815
 5538SOL    HW118867  10.614   5.058   0.321  0.4803  1.8677  0.8934
 5538SOL    HW218868  10.497   5.130   0.385 -0.1238  2.8791 -1.2315
 5539SOL     OW18869   3.290   9.597   3.636 -0.4069  0.0922  0.3850
 5539SOL    HW118870   3.207   9.569   3.600 -0.2659 -0.6183  0.5969
 5539SOL    HW218871   3.270   9.679   3.682 -0.7665  0.4920 -0.4792
 5540SOL     OW18872   5.327   3.814   9.708 -0.5417 -0.0394 -0.5883
 5540SOL    HW118873   5.270   3.743   9.678 -0.3090 -0.6628  0.3988
 5540SOL    HW218874   5.295   3.836   9.795  0.5573 -0.2294 -0.1150
 5541SOL     OW18875   3.931   3.609   2.546 -0.1828 -0.5378  0.2091
 5541SOL    HW118876   3.888   3.633   2.464 -0.0822  1.8417  0.7757
 5541SOL    HW218877   3.898   3.521   2.566 -1.7561 -0.3477 -1.3419
 5542SOL     OW18878   7.460   9.383   1.236  0.1227 -0.2411  0.5273
 5542SOL    HW118879   7.506   9.410   1.156 -1.6321  1.5920  0.0397
 5542SOL    HW218880   7.367   9.392   1.213 -0.4509 -1.5622  2.1871
 5543SOL     OW18881   6.140   0.152  10.626  0.0773 -0.5112 -0.3265
 5543SOL    HW118882   6.222   0.105  10.614  0.9695  1.1083 -0.9354
 5543SOL    HW218883   6.079   0.086  10.660  1.8414 -1.5408  0.9874
 5544SOL     OW18884   6.916   3.399   8.606  0.0064 -0.8712 -0.2806
 5544SOL    HW118885   6.854   3.326   8.598 -1.6458  0.6237 -1.9645
 5544SOL    HW218886   6.906   3.430   8.696 -1.6995 -0.6985 -0.5084
 5545SOL     OW18887   2.403   1.710   4.530 -0.0508  0.5500  0.2837
 5545SOL    HW118888   2.337   1.770   4.495 -0.0724  1.3608  1.6359
 5545SOL    HW218889   2.487   1.745   4.499 -0.0291  1.5839  1.4434
 5546SOL     OW18890   2.324   7.447   2.606 -0.0839  0.2758 -0.4226
 5546SOL    HW118891   2.309   7.445   2.701  0.5241 -0.8893 -0.3336
 5546SOL    HW218892   2.244   7.411   2.568  0.1527 -0.4379 -0.2674
 5547SOL     OW18893   8.429   7.510   9.498 -0.2538  0.1623  0.0250
 5547SOL    HW118894   8.406   7.430   9.545 -0.9119  0.4617  0.2146
 5547SOL    HW218895   8.347   7.542   9.462  0.0788  0.5027 -0.4488
 5548SOL     OW18896   0.384   9.158   1.877  0.3698 -0.2284 -0.2249
 5548SOL    HW118897   0.324   9.091   1.908  0.3340 -0.4707 -0.7986
 5548SOL    HW218898   0.438   9.179   1.953  0.7039 -1.2577 -0.1668
 5549SOL     OW18899   9.567   0.314   2.857  0.2612  0.0512  0.2247
 5549SOL    HW118900   9.556   0.328   2.951 -0.1227  0.9402  0.0573
 5549SOL    HW218901   9.657   0.284   2.847  0.7386  1.2638  0.7423
 5550SOL     OW18902   7.019   3.597   4.481 -0.1175  0.7196 -0.1142
 5550SOL    HW118903   6.968   3.531   4.527  1.5627 -0.9293 -0.4814
 5550SOL    HW218904   7.078   3.633   4.548  1.0800 -0.3933 -0.5285
 5551SOL     OW18905   1.312   3.263   8.104 -0.4359 -0.4258 -0.4570
 5551SOL    HW118906   1.371   3.187   8.109 -1.1683 -0.9705  0.1864
 5551SOL    HW218907   1.345   3.313   8.030  0.3755 -1.1112 -0.5844
 5552SOL     OW18908   3.724   3.305   4.051 -0.2162  0.8643  0.3758
 5552SOL    HW118909   3.756   3.270   3.967  0.5362  2.2904  0.0412
 5552SOL    HW218910   3.788   3.273   4.115 -0.1071  0.7785  0.2258
 5553SOL     OW18911   9.623   6.492   9.194 -0.3277 -0.4492  0.4124
 5553SOL    HW118912   9.580   6.559   9.140  0.9631 -1.1812 -1.6039
 5553SOL    HW218913   9.680   6.542   9.253  1.3128  0.2843 -1.6739
 5554SOL     OW18914   0.303   2.148   1.293  0.0127  0.2913 -0.3426
 5554SOL    HW118915   0.292   2.239   1.263 -0.2316  1.0468  1.8423
 5554SOL    HW218916   0.362   2.155   1.368 -2.3915 -0.8677  1.8318
 5555SOL     OW18917   9.027   1.707   5.696  0.1503 -0.2185 -0.3116
 5555SOL    HW118918   9.021   1.636   5.760  0.4637  1.8961  2.2332
 5555SOL    HW218919   8.942   1.706   5.651 -0.7461 -0.7676  1.3041
 5556SOL     OW18920   8.583   0.648   9.124  0.4917 -0.4831 -0.0333
 5556SOL    HW118921   8.566   0.741   9.110  0.5459 -0.5361 -0.4709
 5556SOL    HW218922   8.535   0.626   9.204 -0.8655 -0.4495 -0.8022
 5557SOL     OW18923   2.100  10.244   1.849 -0.3162  0.0956  0.3695
 5557SOL    HW118924   2.082  10.338   1.846 -0.0978  0.1058 -0.7345
 5557SOL    HW218925   2.050  10.208   1.776  0.3541 -0.5216  0.2084
 5558SOL     OW18926   0.927   5.368   1.654 -0.1931 -0.0419  0.2417
 5558SOL    HW118927   0.913   5.375   1.748 -1.7824 -1.5884  0.1814
 5558SOL    HW218928   0.988   5.438   1.633  2.2852 -1.2272  2.8353
 5559SOL     OW18929   1.062   3.187  10.440 -0.2739 -0.0280 -0.0228
 5559SOL    HW118930   1.051   3.095  10.416 -1.8700  0.2464 -0.4998
 5559SOL    HW218931   1.003   3.234  10.381 -0.7416  1.1382  1.3230
 5560SOL     OW18932   3.550   9.502   0.872  0.1123 -0.1625 -0.1586
 5560SOL    HW118933   3.547   9.411   0.902 -0.8604  0.2456  1.0751
 5560SOL    HW218934   3.481   9.508   0.805  1.2036 -0.6779 -1.3758
 5561SOL     OW18935   1.172   0.839   2.173 -0.0612 -0.2835 -0.1592
 5561SOL    HW118936   1.223   0.808   2.098  0.9033  0.3601  0.2103
 5561SOL    HW218937   1.168   0.764   2.232 -0.9904 -0.8575 -0.9153
 5562SOL     OW18938   2.983   2.066   3.272  0.4288  0.5754  0.2306
 5562SOL    HW118939   3.020   1.997   3.217 -0.8676  1.0086 -1.2853
 5562SOL    HW218940   2.898   2.031   3.299  0.0556  1.2958  0.0062
 5563SOL     OW18941   8.463   4.834   1.722 -0.1636 -0.9312 -0.5017
 5563SOL    HW118942   8.518   4.757   1.710  2.4007  0.8589 -1.0131
 5563SOL    HW218943   8.493   4.872   1.804 -1.4853 -0.4989 -0.1904
 5564SOL     OW18944   8.040   7.618   7.329  0.6473 -0.4039  0.6138
 5564SOL    HW118945   8.002   7.531   7.321 -2.2884  0.8076  0.0898
 5564SOL    HW218946   8.099   7.612   7.404  0.0146 -2.6695  0.9898
 5565SOL     OW18947   5.677   0.647   1.722  0.3485  0.0504 -0.2843
 5565SOL    HW118948   5.687   0.676   1.813 -2.1930  0.5664 -0.1040
 5565SOL    HW218949   5.619   0.711   1.682 -0.6420 -1.5482 -1.5497
 5566SOL     OW18950   7.568   1.007   3.858  0.1791  0.0181  0.7220
 5566SOL    HW118951   7.581   1.081   3.800 -2.6794 -0.6180 -0.9016
 5566SOL    HW218952   7.507   1.039   3.925 -3.5974 -1.4512 -1.7064
 5567SOL     OW18953   4.844   0.166   6.858  0.4267 -0.3130 -0.3196
 5567SOL    HW118954   4.904   0.149   6.784  1.5593 -3.2038  1.1038
 5567SOL    HW218955   4.786   0.089   6.860 -0.1937  0.1565  1.2375
 5568SOL     OW18956   1.255   6.784   8.017 -0.0815  0.1399  0.1431
 5568SOL    HW118957   1.217   6.709   8.063 -1.2699  0.5430 -0.1550
 5568SOL    HW218958   1.273   6.848   8.086 -0.8447  0.3211  0.1759
 5569SOL     OW18959   5.206   1.578   7.917 -0.2598  0.5588 -0.2410
 5569SOL    HW118960   5.224   1.657   7.865 -2.1772  0.1396 -1.6915
 5569SOL    HW218961   5.226   1.505   7.857 -1.3460  0.0352  0.0020
 5570SOL     OW18962   3.302  10.372   1.166 -0.2090 -0.1437  0.0918
 5570SOL    HW118963   3.220  10.418   1.147 -0.1703 -0.2885 -0.4354
 5570SOL    HW218964   3.289  10.336   1.255 -0.2886  0.7628  0.4541
 5571SOL     OW18965   3.610   9.727   8.791  0.3661 -1.1871  0.1024
 5571SOL    HW118966   3.665   9.650   8.773 -0.3735 -1.5481 -0.7040
 5571SOL    HW218967   3.523   9.701   8.761  0.4160  0.5072 -1.6490
 5572SOL     OW18968   8.289   6.734   5.701  0.3108 -0.0689  1.0636
 5572SOL    HW118969   8.236   6.678   5.645 -3.3531 -0.3021  4.2963
 5572SOL    HW218970   8.354   6.676   5.740 -1.2325 -1.4060  1.7743
 5573SOL     OW18971   9.124   7.148  10.257 -1.0675  0.2549  0.0890
 5573SOL    HW118972   9.084   7.084  10.198  0.2558 -0.0573 -0.5126
 5573SOL    HW218973   9.122   7.230  10.209 -1.2038  0.2842  0.1461
 5574SOL     OW18974   8.997   3.196   4.220 -0.1494 -0.4581 -0.1811
 5574SOL    HW118975   8.924   3.238   4.266 -1.0849 -3.3119  1.1398
 5574SOL    HW218976   8.956   3.142   4.153  0.8265 -1.0456 -0.3268
 5575SOL     OW18977   7.240   4.041   6.571  0.3093 -0.5492 -0.0146
 5575SOL    HW118978   7.205   4.128   6.593 -1.2275 -0.6419 -1.8031
 5575SOL    HW218979   7.289   4.014   6.649  0.7460  1.8606  0.6414
 5576SOL     OW18980   9.412   7.077   7.286 -0.1861  0.3490 -0.2068
 5576SOL    HW118981   9.332   7.092   7.235 -1.0451  1.5066  1.3829
 5576SOL    HW218982   9.394   6.997   7.334 -0.5086  0.7228  0.3122
 5577SOL     OW18983   9.120   2.461   4.239  0.1207  0.2321  0.0198
 5577SOL    HW118984   9.171   2.412   4.304 -1.8093 -0.2250  1.3038
 5577SOL    HW218985   9.140   2.553   4.256 -0.4483  0.1265  1.4268
 5578SOL     OW18986   6.389   0.156   0.739  0.0748  0.3040 -0.3021
 5578SOL    HW118987   6.346   0.116   0.815  0.3712  1.1216  0.3180
 5578SOL    HW218988   6.340   0.124   0.664 -1.3776  0.8796  0.3556
 5579SOL     OW18989   4.491  10.178   3.852  0.2664  0.3103  0.1361
 5579SOL    HW118990   4.542  10.116   3.904 -2.1257 -1.2303  0.7813
 5579SOL    HW218991   4.475  10.252   3.911 -1.1050 -0.7318  1.1078
 5580SOL     OW18992   8.209   2.791   1.572 -0.5370 -0.1103  0.0101
 5580SOL    HW118993   8.199   2.746   1.488  1.3709  0.2518 -0.4425
 5580SOL    HW218994   8.236   2.880   1.548 -0.1502  0.0494  1.0159
 5581SOL     OW18995   4.211   1.734   4.109 -0.4732 -0.4716  0.0839
 5581SOL    HW118996   4.239   1.654   4.155  2.9891 -0.6697 -2.0316
 5581SOL    HW218997   4.155   1.702   4.038 -0.3116 -0.8872  0.1387
 5582SOL     OW18998   9.833   8.885   3.107  0.2633 -0.1607  0.0764
 5582SOL    HW118999   9.787   8.887   3.023 -0.7704 -1.1883  0.5758
 5582SOL    HW219000   9.825   8.794   3.136 -0.7805  0.4759  2.0020
 5583SOL     OW19001   5.635   6.151   6.905 -0.0916  0.3643  0.0147
 5583SOL    HW119002   5.632   6.215   6.833  1.5578  0.2096 -0.2225
 5583SOL    HW219003   5.667   6.202   6.979  0.8666 -0.0856 -0.0798
 5584SOL     OW19004   8.873   9.481   1.583 -0.1103  0.0986  0.6771
 5584SOL    HW119005   8.968   9.479   1.576  0.0467  0.9742  2.2543
 5584SOL    HW219006   8.851   9.574   1.585 -0.8219 -0.0801  2.1857
 5585SOL     OW19007   6.818   8.064   9.160 -0.5375  0.1380 -1.1135
 5585SOL    HW119008   6.787   8.154   9.149  0.4487  0.6670  0.2407
 5585SOL    HW219009   6.909   8.073   9.187 -1.1409 -1.1575  1.6355
 5586SOL     OW19010   7.579   6.494   7.915 -0.3683  0.1061 -0.4781
 5586SOL    HW119011   7.649   6.545   7.957  0.5553 -0.1200 -1.6926
 5586SOL    HW219012   7.508   6.557   7.903  0.4808  0.9605 -1.2755
 5587SOL     OW19013   9.572   1.982   6.149 -0.2843  0.1046  0.2017
 5587SOL    HW119014   9.479   1.971   6.130 -0.2877  0.4562  0.0134
 5587SOL    HW219015   9.611   2.011   6.066  0.1674 -1.0295 -0.0012
 5588SOL     OW19016   8.392  10.153   7.233  0.5791 -0.4028  0.4021
 5588SOL    HW119017   8.379  10.086   7.165  1.2893 -0.5136  0.3638
 5588SOL    HW219018   8.316  10.145   7.290  0.3662 -0.8432  0.0621
 5589SOL     OW19019   5.396   8.929   1.790 -0.0670 -0.1207 -0.1636
 5589SOL    HW119020   5.463   8.873   1.826 -1.1250  0.0784  2.3250
 5589SOL    HW219021   5.313   8.892   1.821 -1.1334  0.0060 -2.5805
 5590SOL     OW19022   4.951   2.533   0.600 -0.2665 -0.1340 -0.7009
 5590SOL    HW119023   4.969   2.439   0.604 -1.7107 -0.3888  0.1671
 5590SOL    HW219024   5.015   2.573   0.660 -0.4980 -0.6919 -0.0797
 5591SOL     OW19025   0.424   5.415   2.772 -0.2532 -0.3210 -0.0588
 5591SOL    HW119026   0.515   5.391   2.752  0.0938  1.4823 -0.8785
 5591SOL    HW219027   0.372   5.349   2.727  0.6291 -1.5564  0.6553
 5592SOL     OW19028  10.341   7.578   0.134  0.6023  0.0934 -0.0584
 5592SOL    HW119029  10.409   7.595   0.069 -0.1634  2.0484 -0.4243
 5592SOL    HW219030  10.288   7.507   0.097  1.5979 -0.4738 -0.4166
 5593SOL     OW19031   1.074   5.539   3.777 -0.0345  0.1554 -0.3744
 5593SOL    HW119032   1.019   5.616   3.787  2.4440  2.2173 -1.6671
 5593SOL    HW219033   1.124   5.534   3.859 -0.3909 -0.2793 -0.1772
 5594SOL     OW19034   7.750   9.534  10.473 -0.1802  0.1655 -0.1842
 5594SOL    HW119035   7.788   9.617  10.501  0.3114  0.1098 -0.6706
 5594SOL    HW219036   7.826   9.480  10.449 -0.4628 -0.6034  0.6083
 5595SOL     OW19037   4.375   7.261   7.714 -0.5062 -0.1135 -0.2044
 5595SOL    HW119038   4.287   7.261   7.676 -0.9003  0.0509  0.6664
 5595SOL    HW219039   4.370   7.325   7.785  0.8480  1.2601 -1.2948
 5596SOL     OW19040   1.473   2.196   2.211  0.1950 -0.0054 -0.3104
 5596SOL    HW119041   1.393   2.215   2.163  1.1223  1.3636 -1.3943
 5596SOL    HW219042   1.468   2.102   2.232 -2.4491  0.3861  1.1694
 5597SOL     OW19043   4.293   1.518   5.504 -0.4582  0.6019 -0.1608
 5597SOL    HW119044   4.347   1.559   5.436  0.7807 -0.7592 -0.0575
 5597SOL    HW219045   4.356   1.480   5.565 -1.5211 -1.1333 -0.0690
 5598SOL     OW19046   0.490   7.895   2.431  0.3701 -0.5773 -0.0205
 5598SOL    HW119047   0.539   7.884   2.513  0.4545 -0.7296 -0.0910
 5598SOL    HW219048   0.428   7.822   2.431 -1.2121  0.7047  1.0175
 5599SOL     OW19049   0.661   6.071   1.668 -0.1706 -0.6346  0.7305
 5599SOL    HW119050   0.641   6.101   1.757  0.0078 -0.9905  0.8909
 5599SOL    HW219051   0.596   6.002   1.651  0.2408 -1.0515  0.8482
 5600SOL     OW19052   1.548  10.059   9.802  0.2131  0.5745 -0.0151
 5600SOL    HW119053   1.632  10.030   9.765 -0.6922  0.1739 -1.8440
 5600SOL    HW219054   1.483  10.000   9.763 -0.9745  1.0706  1.1392
 5601SOL     OW19055   9.748   8.984   9.010 -0.0944 -0.0522 -0.1959
 5601SOL    HW119056   9.659   9.019   9.002 -0.2226 -0.6611 -1.6547
 5601SOL    HW219057   9.805   9.060   9.008 -0.4678  0.2091 -1.5563
 5602SOL     OW19058   9.234   6.383   0.804  0.2408 -0.4132 -0.3874
 5602SOL    HW119059   9.300   6.428   0.856 -0.7367  0.5353  0.0712
 5602SOL    HW219060   9.235   6.428   0.720 -0.5424  0.3204 -0.0216
 5603SOL     OW19061   8.221   0.210   8.766 -0.1100  0.4885  0.4482
 5603SOL    HW119062   8.312   0.239   8.755  0.2526 -0.6169  0.4740
 5603SOL    HW219063   8.228   0.117   8.788 -1.2606  0.3517  0.2678
 5604SOL     OW19064   1.339   2.000   5.370 -0.4084  0.0507  0.4311
 5604SOL    HW119065   1.366   2.009   5.278 -0.6043 -0.8830  0.2775
 5604SOL    HW219066   1.337   1.906   5.386  0.1439  0.2134  1.5556
 5605SOL     OW19067   7.850   9.911   7.278  0.1652 -0.2490 -0.6187
 5605SOL    HW119068   7.787   9.968   7.322  0.2407 -0.8791  0.3211
 5605SOL    HW219069   7.935   9.949   7.300  0.1417  1.1049 -2.5765
 5606SOL     OW19070   3.145   0.858   5.518  0.0451 -0.1152 -0.0831
 5606SOL    HW119071   3.150   0.779   5.573  0.1705  0.7216  1.1564
 5606SOL    HW219072   3.057   0.892   5.534  0.1844  0.2935 -0.1806
 5607SOL     OW19073   1.121   8.486   2.593  1.3817 -0.1169 -0.2615
 5607SOL    HW119074   1.056   8.428   2.634  1.6231 -0.2897 -0.1200
 5607SOL    HW219075   1.070   8.562   2.564  0.7701 -1.1236 -1.9791
 5608SOL     OW19076   3.401   7.362   7.048  0.3441 -0.2147 -0.5922
 5608SOL    HW119077   3.334   7.430   7.056  0.4251  0.1313 -2.3237
 5608SOL    HW219078   3.482   7.404   7.076 -0.1425 -0.6900  1.6895
 5609SOL     OW19079   1.122   0.154   1.994 -0.4530 -0.2990 -0.1603
 5609SOL    HW119080   1.045   0.201   2.027 -1.0421 -1.9963  1.0083
 5609SOL    HW219081   1.102   0.138   1.902 -0.1661  1.7827 -0.6514
 5610SOL     OW19082   4.864   0.669   4.982 -0.1864 -0.0893 -0.0847
 5610SOL    HW119083   4.811   0.698   4.908  0.0208 -0.9258 -0.5756
 5610SOL    HW219084   4.841   0.577   4.994  1.6340 -0.6792 -0.7722
 5611SOL     OW19085   1.111   4.868   8.197  0.0480 -0.3914 -0.0471
 5611SOL    HW119086   1.142   4.937   8.138  1.6095  0.2052  1.3993
 5611SOL    HW219087   1.070   4.804   8.138  0.8884  0.5094 -1.7041
 5612SOL     OW19088   8.810   8.608   4.368  0.2204  0.2296  0.1468
 5612SOL    HW119089   8.891   8.660   4.370 -0.9780  2.1799  0.3018
 5612SOL    HW219090   8.817   8.551   4.444  1.1355  0.8855  0.5815
 5613SOL     OW19091   8.732  10.156   0.941  0.1883  0.1728 -0.4583
 5613SOL    HW119092   8.770  10.165   0.853  0.2797 -0.1374 -0.4522
 5613SOL    HW219093   8.680  10.235   0.952  2.4986  1.6921  0.3694
 5614SOL     OW19094   2.201   9.324   9.000 -0.5624  0.5186 -0.4861
 5614SOL    HW119095   2.180   9.328   8.906 -0.0183 -0.3238 -0.6484
 5614SOL    HW219096   2.146   9.392   9.039 -0.9799  0.7137 -1.3832
 5615SOL     OW19097   3.800   9.403   6.067  0.4756 -0.2889 -0.4536
 5615SOL    HW119098   3.895   9.418   6.074  0.6033 -1.3550  0.2977
 5615SOL    HW219099   3.764   9.490   6.046  1.4768  0.4520  0.7313
 5616SOL     OW19100   9.911   0.102   4.518 -0.2422 -0.4813  0.3407
 5616SOL    HW119101   9.816   0.096   4.528 -0.4704  1.6769 -0.0835
 5616SOL    HW219102   9.935   0.186   4.556  1.1767  0.0641 -1.5572
 5617SOL     OW19103   3.538   3.861   2.550  0.2519 -0.3479 -0.3266
 5617SOL    HW119104   3.569   3.884   2.637 -0.9122 -0.2962  0.0888
 5617SOL    HW219105   3.496   3.940   2.517  0.4304 -0.4528 -0.8247
 5618SOL     OW19106   0.259   1.813   2.609 -0.9632  0.2252 -0.4399
 5618SOL    HW119107   0.246   1.852   2.696  2.3673  1.1869 -0.2294
 5618SOL    HW219108   0.236   1.721   2.620 -1.1234  0.4459  1.3151
 5619SOL     OW19109   8.338   4.877   0.692  0.4861 -0.2349 -0.0937
 5619SOL    HW119110   8.318   4.905   0.603 -1.0747  1.8939  0.8358
 5619SOL    HW219111   8.255   4.846   0.727  1.4267 -2.6128  0.1605
 5620SOL     OW19112   1.356   8.468   2.749 -0.3182 -0.2053  0.1440
 5620SOL    HW119113   1.281   8.472   2.690 -0.7177  0.1886  0.6680
 5620SOL    HW219114   1.323   8.502   2.832  0.5025  0.2238  0.3097
 5621SOL     OW19115   1.231   8.667   8.851 -0.2043 -0.3444 -0.0474
 5621SOL    HW119116   1.232   8.675   8.756 -1.3268 -0.5780 -0.0990
 5621SOL    HW219117   1.176   8.740   8.881  1.7429  0.9285  0.5896
 5622SOL     OW19118   0.985   3.694   1.553 -0.2117 -0.3704 -0.4784
 5622SOL    HW119119   1.006   3.755   1.482  1.2546 -2.7915 -2.2890
 5622SOL    HW219120   0.942   3.620   1.509  0.8009 -1.9848  1.1031
 5623SOL     OW19121  10.334   0.016   2.066  0.0525 -0.0931 -0.0716
 5623SOL    HW119122  10.254   0.063   2.041 -0.7980 -0.5814  1.5637
 5623SOL    HW219123  10.403   0.054   2.012 -1.5654 -1.0017 -3.0142
 5624SOL     OW19124   4.473   3.368   7.816 -0.4575  0.4156  0.6265
 5624SOL    HW119125   4.430   3.312   7.881 -0.6633 -0.9145 -0.6061
 5624SOL    HW219126   4.406   3.381   7.749 -0.3265  1.9738  0.7559
 5625SOL     OW19127  10.474   4.440   1.943  0.6662  0.2310  0.1517
 5625SOL    HW119128  10.472   4.508   2.010  0.3861 -0.2311  0.6201
 5625SOL    HW219129  10.415   4.472   1.875 -1.2406 -0.5252  1.3610
 5626SOL     OW19130   1.966   4.296   3.831  0.8155 -0.1494  0.1539
 5626SOL    HW119131   2.011   4.288   3.915 -0.2407 -0.1364  0.7421
 5626SOL    HW219132   1.909   4.219   3.827  0.2875  0.2502 -0.1915
 5627SOL     OW19133   4.784   6.341   4.350  0.3610 -0.1680 -0.2814
 5627SOL    HW119134   4.858   6.311   4.297 -0.0345  0.3043 -1.1201
 5627SOL    HW219135   4.718   6.272   4.340 -0.1240  0.4032 -1.3147
 5628SOL     OW19136   6.190   1.152   6.845  0.6265 -0.0171  0.3929
 5628SOL    HW119137   6.101   1.168   6.813  0.8241  2.4180  0.8773
 5628SOL    HW219138   6.202   1.058   6.835 -1.7816 -0.3286 -0.2414
 5629SOL     OW19139   7.636   5.808   4.198 -0.0383  0.1175  0.1633
 5629SOL    HW119140   7.710   5.785   4.255  0.5436  0.1608 -0.5550
 5629SOL    HW219141   7.593   5.880   4.243  0.3927  0.1366  0.5610
 5630SOL     OW19142   7.935   8.065   1.615 -0.1891  0.2135 -0.6952
 5630SOL    HW119143   7.955   8.136   1.676 -1.6953  0.0305  0.0464
 5630SOL    HW219144   8.017   8.051   1.567  0.5864  1.3789  0.2345
 5631SOL     OW19145   4.024   0.893   4.928  0.0194 -0.5447  0.1002
 5631SOL    HW119146   3.937   0.911   4.892 -0.2068  2.6363  1.8974
 5631SOL    HW219147   4.084   0.927   4.862 -0.1601 -0.8231 -0.2110
 5632SOL     OW19148   8.611   3.322  10.628  0.1077 -0.5972 -0.3904
 5632SOL    HW119149   8.697   3.283  10.638  0.5829 -0.1190 -2.2862
 5632SOL    HW219150   8.551   3.247  10.627  0.6366 -1.0297 -0.3218
 5633SOL     OW19151   6.600   7.311   3.726  0.0147  0.0197 -0.0723
 5633SOL    HW119152   6.671   7.316   3.662  0.9345 -0.0806  0.9201
 5633SOL    HW219153   6.548   7.236   3.698  1.3008 -0.9953  0.1719
 5634SOL     OW19154   2.820   2.516   3.272 -0.2253 -0.7401  0.2845
 5634SOL    HW119155   2.766   2.512   3.194 -0.0359  0.8152  0.0528
 5634SOL    HW219156   2.883   2.444   3.261 -0.6527 -0.9844 -0.6394
 5635SOL     OW19157   4.393   8.546  10.317  0.1479  0.3258  0.2882
 5635SOL    HW119158   4.446   8.530  10.239 -1.0630  0.5928 -0.6276
 5635SOL    HW219159   4.349   8.463  10.334  2.1788 -0.4693  2.1580
 5636SOL     OW19160  10.073   4.691   9.359 -0.0238 -0.4383  0.1310
 5636SOL    HW119161  10.142   4.685   9.292  0.0635 -1.9436  0.3392
 5636SOL    HW219162  10.116   4.734   9.433  0.2487  0.0342 -0.2923
 5637SOL     OW19163   2.171   8.831   0.383  0.5635 -0.2032  0.4128
 5637SOL    HW119164   2.260   8.827   0.420  0.4220 -2.2530  0.6239
 5637SOL    HW219165   2.171   8.766   0.314 -0.4887  0.5482 -0.3178
 5638SOL     OW19166   8.436   0.073   2.258  0.6679  0.9200  0.7091
 5638SOL    HW119167   8.382   0.076   2.180  0.0462 -0.2026  1.0753
 5638SOL    HW219168   8.520   0.039   2.228  0.5837  0.9438  0.4475
 5639SOL     OW19169   6.179   4.063   0.362 -0.3025 -0.5419 -0.6215
 5639SOL    HW119170   6.098   4.022   0.332 -0.2868  0.2902 -1.9336
 5639SOL    HW219171   6.247   4.024   0.308 -0.0599 -0.0796 -0.6596
 5640SOL     OW19172   8.590   6.966   3.874  0.5256 -0.3339 -0.3439
 5640SOL    HW119173   8.495   6.976   3.873  0.5064 -0.5284 -1.6995
 5640SOL    HW219174   8.625   7.053   3.857  0.5313 -0.6171 -1.9401
 5641SOL     OW19175   6.807   1.099   8.834 -0.6632 -0.3048  0.2120
 5641SOL    HW119176   6.758   1.160   8.779 -1.0022  0.1571  1.0111
 5641SOL    HW219177   6.806   1.138   8.921  1.0570 -0.3318  0.2799
 5642SOL     OW19178   6.518   6.145   4.182  0.2429  0.4319 -0.3897
 5642SOL    HW119179   6.609   6.144   4.210  0.4545 -2.9363 -0.8508
 5642SOL    HW219180   6.469   6.110   4.257 -0.4636  0.6875 -0.7219
 5643SOL     OW19181   6.090   8.154   0.314 -0.0553  0.6529  0.0402
 5643SOL    HW119182   6.043   8.106   0.382  0.7138 -0.4109 -0.1458
 5643SOL    HW219183   6.120   8.233   0.357 -0.5455  0.5304  0.6236
 5644SOL     OW19184   9.635   7.647   1.631  0.0067 -0.3069  0.1817
 5644SOL    HW119185   9.587   7.687   1.558 -0.1596  1.4632  1.2037
 5644SOL    HW219186   9.681   7.573   1.591 -1.8723 -0.7980 -1.2484
 5645SOL     OW19187   6.835   0.335   2.258 -0.0578  0.4004  0.3838
 5645SOL    HW119188   6.810   0.423   2.287  0.1803  0.7943 -0.5587
 5645SOL    HW219189   6.906   0.350   2.195 -1.2346 -0.3394 -1.1678
 5646SOL     OW19190   0.921   5.362   1.050 -0.6354  0.5145  0.0546
 5646SOL    HW119191   0.834   5.327   1.034  0.5513 -2.0481 -1.6226
 5646SOL    HW219192   0.946   5.327   1.135  0.5680 -3.3402 -1.6177
 5647SOL     OW19193   4.386   9.191   0.507 -0.0497 -0.5893  0.4632
 5647SOL    HW119194   4.450   9.257   0.534 -0.6801 -0.1287  0.8627
 5647SOL    HW219195   4.424   9.151   0.429  0.4047  0.1635  0.2869
 5648SOL     OW19196   7.942   7.214   5.789  0.3179 -0.1099 -0.0551
 5648SOL    HW119197   8.033   7.238   5.773  1.1594 -2.0430  1.3492
 5648SOL    HW219198   7.917   7.265   5.866 -0.1125  1.0973 -0.9770
 5649SOL     OW19199   8.846   5.970   4.141  0.2726 -0.5287 -0.3039
 5649SOL    HW119200   8.793   5.946   4.065  1.2468 -0.3424 -1.0466
 5649SOL    HW219201   8.844   5.891   4.197 -0.3168 -0.7160 -0.5750
 5650SOL     OW19202   8.313   5.564   6.216  0.0287  0.4317 -0.3837
 5650SOL    HW119203   8.325   5.599   6.127  0.7757 -0.4397 -0.6445
 5650SOL    HW219204   8.220   5.540   6.220 -0.4607  2.1734 -0.2711
 5651SOL     OW19205   2.208   9.384   5.031 -0.5488  0.2497  0.0796
 5651SOL    HW119206   2.184   9.294   5.008  2.6578 -1.3631  2.2092
 5651SOL    HW219207   2.191   9.390   5.125 -0.9573  1.9884 -0.0786
 5652SOL     OW19208  10.430   9.471   3.889 -0.1772 -0.0315 -0.1467
 5652SOL    HW119209  10.419   9.393   3.834  0.6120 -1.2243  1.3228
 5652SOL    HW219210  10.344   9.485   3.928 -0.3625 -0.0557 -0.5364
 5653SOL     OW19211   8.296   0.486   4.827  0.3230  0.0009 -0.5034
 5653SOL    HW119212   8.319   0.578   4.843  1.4695 -0.5049  0.9688
 5653SOL    HW219213   8.300   0.477   4.732  0.0750  1.4938 -0.6861
 5654SOL     OW19214   6.699   8.051   6.808  0.4331 -0.1523 -0.4256
 5654SOL    HW119215   6.761   8.006   6.866 -0.7097 -1.5745 -0.2267
 5654SOL    HW219216   6.740   8.048   6.722 -0.5793 -3.9150 -0.9642
 5655SOL     OW19217   1.778   4.346   0.063  0.2526 -0.3650  0.2283
 5655SOL    HW119218   1.721   4.270   0.073 -0.9279  0.6448  1.4755
 5655SOL    HW219219   1.818   4.359   0.149 -0.5435  1.1687  0.3962
 5656SOL     OW19220   1.821   8.539   1.813 -0.3483 -0.5837  0.2529
 5656SOL    HW119221   1.832   8.609   1.878 -0.2590 -1.3607  1.0947
 5656SOL    HW219222   1.727   8.537   1.795 -0.5389 -1.1287  1.2460
 5657SOL     OW19223   6.197   2.994  10.206 -0.7053 -0.1528 -0.4834
 5657SOL    HW119224   6.205   2.898  10.208  1.1410 -0.0181  0.4382
 5657SOL    HW219225   6.264   3.022  10.144 -0.0910  0.6262  0.5076
 5658SOL     OW19226   7.979   4.300   0.859  0.3301  0.0895  0.4225
 5658SOL    HW119227   7.943   4.219   0.823 -0.3217  0.6431 -0.2076
 5658SOL    HW219228   7.958   4.367   0.793  1.2641  0.6860  0.7148
 5659SOL     OW19229   0.027   2.732   2.660 -0.9180 -0.6099  0.1514
 5659SOL    HW119230   0.060   2.642   2.663 -1.1943 -0.6850  1.3747
 5659SOL    HW219231   0.005   2.746   2.568 -2.7767 -2.4956  0.2396
 5660SOL     OW19232   5.805   8.928   8.563 -0.3738 -0.3039  0.0511
 5660SOL    HW119233   5.847   8.865   8.504 -0.5289 -0.2845 -0.0826
 5660SOL    HW219234   5.799   8.882   8.647  1.5639  0.3175  0.5849
 5661SOL     OW19235   8.905   6.516   9.255 -0.3009 -0.1044 -0.4915
 5661SOL    HW119236   8.966   6.459   9.207  1.3979  1.8886 -0.8662
 5661SOL    HW219237   8.936   6.513   9.345 -0.2169  0.1678 -0.5095
 5662SOL     OW19238   5.825   0.824   2.906  0.4338  0.9209 -0.0128
 5662SOL    HW119239   5.888   0.754   2.888  1.0748  0.2858  3.7438
 5662SOL    HW219240   5.739   0.783   2.896  0.7062  0.5366 -0.8880
 5663SOL     OW19241  10.145   6.552   5.229  0.4490  0.1589  0.0606
 5663SOL    HW119242  10.179   6.627   5.277  0.8469 -0.6383  1.0453
 5663SOL    HW219243  10.145   6.580   5.137  1.7175  0.9353  0.2884
 5664SOL     OW19244   0.063   6.009   5.395  0.4723  0.2177  0.6381
 5664SOL    HW119245   0.075   6.052   5.311 -5.1389 -0.2565 -0.7827
 5664SOL    HW219246   0.082   6.077   5.460  2.0246  1.4836 -1.0437
 5665SOL     OW19247   3.185   1.839   3.535 -0.1658 -0.5438 -0.0677
 5665SOL    HW119248   3.277   1.814   3.528 -0.3819 -1.4688  0.3191
 5665SOL    HW219249   3.181   1.892   3.615 -0.0632 -0.9370  0.1988
 5666SOL     OW19250   6.357   0.947   5.716  0.0109  0.6678  0.0268
 5666SOL    HW119251   6.390   0.905   5.636 -0.2801  0.9960 -0.2693
 5666SOL    HW219252   6.405   0.904   5.787  0.4788  0.5714 -0.3434
 5667SOL     OW19253   3.880   6.924   7.563 -0.9192  0.7209  0.7464
 5667SOL    HW119254   3.971   6.940   7.588  0.1025 -2.0144 -0.7724
 5667SOL    HW219255   3.867   6.978   7.485  0.1886 -0.4579 -0.3091
 5668SOL     OW19256   3.731   0.885   2.577  0.4705  0.3494  0.4809
 5668SOL    HW119257   3.827   0.876   2.577  0.7313  2.3783 -1.2908
 5668SOL    HW219258   3.707   0.884   2.484 -0.7182  3.8826  0.6234
 5669SOL     OW19259   9.370   1.281   6.627  0.1715  0.0532  0.6140
 5669SOL    HW119260   9.419   1.340   6.685  0.7016  0.6885 -0.4352
 5669SOL    HW219261   9.436   1.248   6.567 -0.4992  0.0558 -0.1375
 5670SOL     OW19262   4.845   6.241   3.037 -0.2338  0.3204 -0.7033
 5670SOL    HW119263   4.855   6.315   3.097 -0.9679 -0.1491  0.0156
 5670SOL    HW219264   4.932   6.200   3.035 -0.8900 -1.6414  2.7170
 5671SOL     OW19265   1.792   2.879   1.002 -0.8477 -0.1449  0.2300
 5671SOL    HW119266   1.851   2.805   1.011  1.1429  0.9132 -2.4660
 5671SOL    HW219267   1.815   2.937   1.074  0.8271 -0.1913 -0.2206
 5672SOL     OW19268   1.186   9.534   1.609  0.1723 -0.0853 -0.1684
 5672SOL    HW119269   1.125   9.572   1.547 -0.0613 -1.1258 -0.5841
 5672SOL    HW219270   1.258   9.501   1.556  1.3381  1.4926  0.3413
 5673SOL     OW19271   2.717   5.127   2.527 -0.0592  0.4092 -0.1577
 5673SOL    HW119272   2.715   5.200   2.465 -1.3687  0.0384 -0.5942
 5673SOL    HW219273   2.688   5.165   2.610  2.1450  1.0075  0.3802
 5674SOL     OW19274   2.205   2.906   1.819  0.5768 -0.1282 -0.0504
 5674SOL    HW119275   2.237   2.913   1.909  2.5163 -0.9339 -0.6256
 5674SOL    HW219276   2.233   2.819   1.791 -4.2153 -2.0282  0.0925
 5675SOL     OW19277   5.989   3.855   3.491 -0.5798 -0.2060  0.2011
 5675SOL    HW119278   6.080   3.858   3.465 -0.8880 -0.0121 -0.9032
 5675SOL    HW219279   5.942   3.828   3.412 -1.1682 -3.6432  1.5628
 5676SOL     OW19280   6.266   1.948   6.598  0.2333  0.4043  0.4916
 5676SOL    HW119281   6.217   1.972   6.520 -2.6590 -1.0571  1.6952
 5676SOL    HW219282   6.291   1.857   6.584 -1.3213 -0.2524  1.6316
 5677SOL     OW19283   9.659   3.994   1.804 -0.7165 -0.3288 -0.5670
 5677SOL    HW119284   9.653   4.086   1.831 -2.4953 -0.5208 -0.1786
 5677SOL    HW219285   9.690   3.997   1.714  0.6505  0.5628 -0.0996
 5678SOL     OW19286   8.396   6.297   0.329 -0.6998 -0.1251 -0.2803
 5678SOL    HW119287   8.417   6.326   0.418  3.3610  0.5758 -1.2602
 5678SOL    HW219288   8.437   6.210   0.323  0.4676  0.4964 -1.8681
 5679SOL     OW19289   7.498   0.275   7.097 -0.4659  0.3175  0.7930
 5679SOL    HW119290   7.475   0.367   7.086 -0.2501  0.5488  2.0924
 5679SOL    HW219291   7.425   0.238   7.147 -0.7019 -0.2986  0.0058
 5680SOL     OW19292   8.042   7.391   8.879  0.0888 -0.0371  0.9542
 5680SOL    HW119293   8.121   7.336   8.882 -0.6443 -1.1293  1.0693
 5680SOL    HW219294   7.976   7.340   8.926 -1.6025 -0.7040 -1.8753
 5681SOL     OW19295   3.122   9.835   1.396 -0.2233  0.3873  0.2774
 5681SOL    HW119296   3.106   9.917   1.444  1.8089  0.7141  0.4778
 5681SOL    HW219297   3.145   9.772   1.464  0.3093  0.2167 -0.0598
 5682SOL     OW19298   2.313   8.984   5.844  0.0113 -0.0285  0.2841
 5682SOL    HW119299   2.340   9.076   5.846 -0.8340  0.2334 -0.0698
 5682SOL    HW219300   2.389   8.937   5.879  1.2178  0.6104 -1.3180
 5683SOL     OW19301   2.323   0.513   5.446  0.0764 -0.3656 -0.1391
 5683SOL    HW119302   2.311   0.495   5.539  0.2005 -2.4706 -0.4635
 5683SOL    HW219303   2.313   0.427   5.404 -1.2479  0.7017 -2.2135
 5684SOL     OW19304   0.617   3.560   2.072 -0.4067  0.0598  0.1102
 5684SOL    HW119305   0.573   3.560   1.987 -0.4913 -0.6470  0.1518
 5684SOL    HW219306   0.571   3.494   2.123  0.1572 -0.0824  0.4392
 5685SOL     OW19307   8.486   1.320   7.333  0.5807 -0.5081 -0.4382
 5685SOL    HW119308   8.420   1.372   7.287  0.2508  0.3422  0.9334
 5685SOL    HW219309   8.497   1.242   7.279 -0.1323  0.2269 -1.6913
 5686SOL     OW19310  10.040   0.175   3.947  0.5410 -0.7169 -0.3089
 5686SOL    HW119311  10.119   0.122   3.958  0.6904 -0.8122 -1.7582
 5686SOL    HW219312  10.044   0.206   3.857 -1.4126 -1.2830 -0.6252
 5687SOL     OW19313  10.634   9.906   8.572 -0.0711  0.5188 -0.5016
 5687SOL    HW119314  10.542   9.925   8.588  0.1573  1.2610 -0.0455
 5687SOL    HW219315  10.653   9.947   8.487  0.1860  1.5710  0.0518
 5688SOL     OW19316   1.915  10.042   4.066  0.5790 -0.2694 -0.2692
 5688SOL    HW119317   1.899   9.994   3.985 -2.2132 -0.5145  0.3371
 5688SOL    HW219318   1.916  10.134   4.040  0.1218 -0.3707 -0.6502
 5689SOL     OW19319   3.073   5.086   0.018 -0.0786  0.2094 -0.2887
 5689SOL    HW119320   3.078   5.128   0.104 -1.5232  0.1920 -0.1804
 5689SOL    HW219321   3.157   5.107  -0.023 -0.3577  2.3454  0.1384
 5690SOL     OW19322   4.648   8.674   9.681  0.2767  0.1721 -0.1836
 5690SOL    HW119323   4.624   8.590   9.720 -1.6571 -0.1121 -1.8344
 5690SOL    HW219324   4.682   8.725   9.755  1.5449 -2.0207  0.8610
 5691SOL     OW19325   5.042   3.555   6.607 -0.2046  0.5124  0.1910
 5691SOL    HW119326   5.010   3.476   6.652  0.5216 -0.6070 -1.1615
 5691SOL    HW219327   4.974   3.574   6.542  1.1718 -1.1118 -1.8248
 5692SOL     OW19328   6.852   4.928   7.840  0.3661  0.4089  0.1818
 5692SOL    HW119329   6.936   4.882   7.836  0.2651  0.3118 -2.4108
 5692SOL    HW219330   6.787   4.863   7.815 -0.4239  0.6810  1.4366
 5693SOL     OW19331   9.574   0.972   9.079 -0.6710 -0.0908 -0.2510
 5693SOL    HW119332   9.581   1.065   9.101  1.5563 -0.7005  2.0437
 5693SOL    HW219333   9.501   0.940   9.132  0.3816 -0.1804  1.1854
 5694SOL     OW19334  10.209   2.849   5.550 -0.0584  0.3409  0.0747
 5694SOL    HW119335  10.248   2.789   5.613 -0.6829 -0.5144 -0.3266
 5694SOL    HW219336  10.194   2.929   5.599  0.1483 -0.0657  0.8158
 5695SOL     OW19337   6.351   1.226   4.986 -0.1198 -0.4527  0.0021
 5695SOL    HW119338   6.285   1.160   4.961 -0.6814  0.5238 -1.1823
 5695SOL    HW219339   6.434   1.178   4.984 -0.5686 -1.2468 -0.4013
 5696SOL     OW19340   3.318   3.260   8.299  0.6549 -0.2210  0.5847
 5696SOL    HW119341   3.302   3.355   8.293 -1.0684 -0.4906  0.5079
 5696SOL    HW219342   3.370   3.240   8.221  1.6816  0.7544  0.9778
 5697SOL     OW19343   7.217   6.655   2.593  0.0898  0.0335  0.8034
 5697SOL    HW119344   7.275   6.610   2.655 -0.1722 -0.2428  0.8514
 5697SOL    HW219345   7.274   6.717   2.547  0.5130 -0.5226  0.5608
 5698SOL     OW19346  10.640   1.370   8.609 -0.0357  0.0087 -0.1416
 5698SOL    HW119347  10.619   1.463   8.621  0.5615  0.0321  0.7691
 5698SOL    HW219348  10.725   1.370   8.565  0.2892 -0.1036  0.4789
 5699SOL     OW19349   6.600   3.976   0.809  0.0659 -0.2675  0.0577
 5699SOL    HW119350   6.598   4.057   0.861  2.9220 -0.8182  1.1777
 5699SOL    HW219351   6.544   3.995   0.733 -0.1908  2.3591  0.8118
 5700SOL     OW19352   4.787   9.131   0.805 -0.7018 -0.0946 -0.5603
 5700SOL    HW119353   4.763   9.222   0.821  0.4826  0.3361 -1.0940
 5700SOL    HW219354   4.705   9.083   0.807 -1.4604  1.1355 -1.2259
 5701SOL     OW19355   2.708   3.038  10.040  0.1406  0.1142  0.8437
 5701SOL    HW119356   2.739   3.119   9.998 -0.8905  0.4297  0.6755
 5701SOL    HW219357   2.779   3.014  10.100  1.1887  0.2302 -0.3016
 5702SOL     OW19358   4.488   8.693   0.097  0.2605 -0.3097 -0.2443
 5702SOL    HW119359   4.543   8.621   0.068  1.8894  0.8671 -0.2183
 5702SOL    HW219360   4.450   8.663   0.179 -0.7231 -1.8841 -1.2129
 5703SOL     OW19361   5.618   3.525   7.794  0.3008 -0.5093  0.4877
 5703SOL    HW119362   5.537   3.516   7.845  0.1402 -2.8553 -0.1014
 5703SOL    HW219363   5.590   3.565   7.712 -0.2857 -1.3873  0.2523
 5704SOL     OW19364   9.441   0.906   8.835  0.0086  0.2805 -0.2561
 5704SOL    HW119365   9.371   0.878   8.893  0.4950 -0.3318  0.0384
 5704SOL    HW219366   9.499   0.958   8.891 -0.5754  1.4106 -0.6613
 5705SOL     OW19367   1.466   6.485   2.400 -0.2175 -0.5119 -0.4630
 5705SOL    HW119368   1.426   6.532   2.327 -0.7726  0.3375  0.3582
 5705SOL    HW219369   1.554   6.465   2.371 -0.1497  0.5784 -1.0517
 5706SOL     OW19370   6.090   8.904   2.872 -1.1689  0.0875 -0.1331
 5706SOL    HW119371   6.087   8.977   2.933 -0.3725 -0.0456  0.0719
 5706SOL    HW219372   6.137   8.835   2.920 -2.4623 -0.7938 -0.0707
 5707SOL     OW19373   3.862   7.245   3.983  0.2777  0.0504 -0.1809
 5707SOL    HW119374   3.776   7.284   3.968  0.5358  0.7330  0.0800
 5707SOL    HW219375   3.897   7.230   3.895  0.6334  1.4534 -0.2946
 5708SOL     OW19376   8.089   4.141   2.660  0.1268  0.0710 -0.0064
 5708SOL    HW119377   8.137   4.193   2.724 -0.2192 -0.7275  0.9441
 5708SOL    HW219378   8.124   4.168   2.575  2.8778 -1.0373  0.6521
 5709SOL     OW19379   8.350   9.263   4.369  0.0392  0.0421 -0.2176
 5709SOL    HW119380   8.422   9.199   4.363 -0.2348 -0.2010 -1.0316
 5709SOL    HW219381   8.394   9.347   4.380  0.3940 -0.4372  2.9947
 5710SOL     OW19382   8.340   5.456   0.144 -0.1254  0.2352  0.1519
 5710SOL    HW119383   8.335   5.399   0.068  0.5089  0.9354 -0.4369
 5710SOL    HW219384   8.261   5.509   0.141 -0.8158 -0.7224  0.8138
 5711SOL     OW19385   5.436   3.678   7.079  0.0937  0.7711  0.4460
 5711SOL    HW119386   5.365   3.673   7.015  0.6857 -1.3009 -0.1198
 5711SOL    HW219387   5.512   3.707   7.028  1.0316 -2.6116 -0.3753
 5712SOL     OW19388   2.431   8.368   1.472  0.1384 -0.0760  0.2933
 5712SOL    HW119389   2.451   8.448   1.424  0.6998  0.2798  1.1062
 5712SOL    HW219390   2.461   8.298   1.415 -1.0711  0.2375 -0.7790
 5713SOL     OW19391   4.180   3.834   0.982  0.3418  0.2371  0.9230
 5713SOL    HW119392   4.112   3.805   0.921  2.2804 -1.7199 -0.4970
 5713SOL    HW219393   4.190   3.928   0.965 -0.4265  0.0827 -0.4969
 5714SOL     OW19394   3.819   5.525   1.754 -0.3441 -0.2627  0.3657
 5714SOL    HW119395   3.848   5.449   1.703 -1.8400  0.2563 -1.3937
 5714SOL    HW219396   3.812   5.596   1.690 -1.9034  0.5474  1.3543
 5715SOL     OW19397   8.371   8.066   4.201  0.3291 -0.5175  0.3282
 5715SOL    HW119398   8.295   8.097   4.152 -0.4903 -3.1075 -0.1915
 5715SOL    HW219399   8.341   8.063   4.292 -1.3210 -4.2283 -0.1830
 5716SOL     OW19400   7.639   3.999   9.996 -0.8110  0.1404  0.1950
 5716SOL    HW119401   7.656   4.081   9.948  2.8397 -0.7147 -0.2656
 5716SOL    HW219402   7.626   4.027  10.087  1.2892  1.2654  0.2200
 5717SOL     OW19403   1.648   7.207   4.075  0.2692 -0.6708 -0.5127
 5717SOL    HW119404   1.670   7.290   4.034  3.3113 -1.4669 -0.7104
 5717SOL    HW219405   1.682   7.214   4.164  0.6558 -1.7228 -0.5648
 5718SOL     OW19406   4.783   4.495   3.956 -0.4913 -0.2370  0.0052
 5718SOL    HW119407   4.692   4.467   3.964 -0.6261  0.3606  0.6949
 5718SOL    HW219408   4.832   4.414   3.938 -1.0888 -0.6394  0.1627
 5719SOL     OW19409   3.400  10.075   2.184 -0.6847 -0.2819 -0.4065
 5719SOL    HW119410   3.346   9.997   2.197 -2.6120  0.6352 -2.4261
 5719SOL    HW219411   3.426  10.071   2.092  1.0166  0.3989  0.0044
 5720SOL     OW19412   9.035  10.072   9.475 -0.4460 -0.0336 -0.1729
 5720SOL    HW119413   9.077  10.112   9.399 -0.8037  0.3647 -0.1641
 5720SOL    HW219414   9.082   9.989   9.488  0.3241  0.3986 -0.1669
 5721SOL     OW19415   1.344   8.912   4.536  0.7812 -0.0176 -0.4119
 5721SOL    HW119416   1.421   8.921   4.593 -1.0675  0.0700  2.2443
 5721SOL    HW219417   1.294   8.840   4.575 -0.3919 -0.2383 -2.2280
 5722SOL     OW19418   1.664   3.973   4.572 -0.4744 -0.0970  0.1271
 5722SOL    HW119419   1.574   3.984   4.601 -1.5331  1.7652 -3.2239
 5722SOL    HW219420   1.714   4.037   4.622 -0.4285 -2.5162  3.5089
 5723SOL     OW19421   3.880   4.273   8.501  0.2107 -0.0495  0.1917
 5723SOL    HW119422   3.885   4.345   8.438  1.6193 -0.4727 -0.2139
 5723SOL    HW219423   3.950   4.212   8.474  0.6753 -0.3720  1.9983
 5724SOL     OW19424   5.701   5.406   6.519 -0.3059 -0.4083 -0.2639
 5724SOL    HW119425   5.706   5.493   6.558  1.4058 -0.4113 -0.4042
 5724SOL    HW219426   5.776   5.402   6.460 -1.9173 -0.9637 -2.4410
 5725SOL     OW19427   1.737   2.095   1.349  0.0706 -0.2122 -0.0918
 5725SOL    HW119428   1.733   2.185   1.383 -0.2125 -0.3133  0.1428
 5725SOL    HW219429   1.684   2.097   1.270  2.0506  0.4299 -1.4695
 5726SOL     OW19430   8.174   1.538   2.904  0.3605  0.1599  0.1057
 5726SOL    HW119431   8.200   1.618   2.859 -0.0454  0.9907  1.2890
 5726SOL    HW219432   8.142   1.480   2.834  2.2035  0.3602 -0.9709
 5727SOL     OW19433   3.771   1.554   1.275  0.7024  0.6921 -0.1899
 5727SOL    HW119434   3.789   1.488   1.343  1.2775  1.7473  0.7268
 5727SOL    HW219435   3.714   1.510   1.213 -0.5573 -0.0824  1.4312
 5728SOL     OW19436   7.102   0.725   3.330 -0.5025 -0.1098  0.1729
 5728SOL    HW119437   7.037   0.720   3.400  0.4523  1.8333  1.2724
 5728SOL    HW219438   7.055   0.694   3.252 -1.2693 -3.3630  1.7959
 5729SOL     OW19439   6.127   2.575   3.369 -0.0405 -0.2117 -0.1029
 5729SOL    HW119440   6.210   2.539   3.337 -0.0668 -0.2747 -0.0995
 5729SOL    HW219441   6.131   2.563   3.464 -0.3172 -0.7689 -0.1570
 5730SOL     OW19442  10.496   1.233   8.433 -0.1680  0.7973  0.3456
 5730SOL    HW119443  10.536   1.290   8.498  2.3127  0.9644 -1.1598
 5730SOL    HW219444  10.560   1.163   8.420  1.0904  2.4257 -4.0691
 5731SOL     OW19445  10.063   7.000   2.844  0.8927 -0.7758 -0.6238
 5731SOL    HW119446  10.116   6.990   2.923 -1.5013 -1.3941  1.0433
 5731SOL    HW219447  10.056   6.911   2.809 -0.3689 -1.0066  0.1515
 5732SOL     OW19448   0.391   2.076   0.173 -0.5619 -0.0522 -0.1510
 5732SOL    HW119449   0.477   2.115   0.157 -0.6768  0.7377  0.9798
 5732SOL    HW219450   0.333   2.121   0.112 -0.1465 -0.7789 -1.1084
 5733SOL     OW19451   4.746   9.501   3.673 -0.5662  0.0467 -0.0743
 5733SOL    HW119452   4.698   9.481   3.593  0.6957 -1.2756 -0.5452
 5733SOL    HW219453   4.775   9.416   3.706  0.6981  0.7243  0.6496
 5734SOL     OW19454   6.521   6.321   7.969 -0.7856 -0.0317 -0.0365
 5734SOL    HW119455   6.548   6.379   7.899 -0.3212 -0.2723 -0.0613
 5734SOL    HW219456   6.578   6.245   7.961 -0.5471  0.0514  0.7632
 5735SOL     OW19457   3.967   1.716   6.265  0.4876  0.2422 -0.3849
 5735SOL    HW119458   4.024   1.769   6.321 -0.3729 -0.7970  1.6058
 5735SOL    HW219459   3.920   1.659   6.327 -2.1268  0.5114 -1.9817
 5736SOL     OW19460   2.722   3.009   2.858  0.7732  1.1537  0.7681
 5736SOL    HW119461   2.790   3.020   2.792  0.5685  1.0205  0.5330
 5736SOL    HW219462   2.721   2.915   2.876 -0.5349  0.8742 -0.5209
 5737SOL     OW19463   7.334   8.904   8.313 -0.2597 -0.0040  0.2098
 5737SOL    HW119464   7.390   8.833   8.343 -1.0810 -0.5381  0.5416
 5737SOL    HW219465   7.386   8.952   8.250  1.8122  1.5199  2.8852
 5738SOL     OW19466   7.467   4.583   6.280 -0.3478  0.1818 -0.6840
 5738SOL    HW119467   7.505   4.655   6.330 -0.8170  0.1516 -0.2714
 5738SOL    HW219468   7.395   4.552   6.335  1.0481 -1.9116  0.1011
 5739SOL     OW19469   2.563   4.837   0.989  0.9920 -0.4598  0.2755
 5739SOL    HW119470   2.533   4.925   1.011  0.0688 -0.5531 -0.5772
 5739SOL    HW219471   2.483   4.788   0.969  1.5840 -1.1602 -0.4605
 5740SOL     OW19472   3.842   0.921   3.016 -0.4646 -0.3104  0.1372
 5740SOL    HW119473   3.878   0.917   3.105 -0.7267  0.1279  0.2639
 5740SOL    HW219474   3.919   0.918   2.960 -0.3310 -1.3677  0.3509
 5741SOL     OW19475   3.247   9.094   1.027 -0.9022 -0.1727 -0.4602
 5741SOL    HW119476   3.221   9.096   1.120 -1.0253 -0.7430 -0.4788
 5741SOL    HW219477   3.164   9.098   0.979 -0.8423  0.0585 -0.5414
 5742SOL     OW19478   3.589  10.097   5.496  0.3279 -0.2084 -0.0145
 5742SOL    HW119479   3.508  10.119   5.450 -0.1818  0.0663  0.9789
 5742SOL    HW219480   3.657  10.105   5.430 -0.3146  0.6547 -0.5989
 5743SOL     OW19481   6.092   2.741   0.725  0.3596 -0.3518 -0.2639
 5743SOL    HW119482   6.046   2.686   0.661 -0.3271  0.4096 -0.4528
 5743SOL    HW219483   6.026   2.761   0.791  0.9211 -0.6917  0.4169
 5744SOL     OW19484   7.762   3.468   3.846  0.0002  0.5166  0.1348
 5744SOL    HW119485   7.675   3.460   3.807 -0.0513  0.7277  0.2036
 5744SOL    HW219486   7.748   3.522   3.924 -0.1897 -1.1791  1.3516
 5745SOL     OW19487   8.784   5.006   2.837 -0.4430 -0.4961  0.0905
 5745SOL    HW119488   8.716   4.939   2.828 -2.2563  1.3660 -0.8443
 5745SOL    HW219489   8.791   5.044   2.750  1.1727 -0.0121  0.4050
 5746SOL     OW19490   4.125   8.513   5.882  0.3445  0.1722 -0.0851
 5746SOL    HW119491   4.116   8.452   5.808  3.2930 -1.7161  0.9372
 5746SOL    HW219492   4.052   8.574   5.871 -0.5307 -1.2109 -3.3864
 5747SOL     OW19493   8.501   7.925   2.955 -0.4096  0.1964  0.8945
 5747SOL    HW119494   8.510   8.011   2.995  0.9189  0.7197 -0.4130
 5747SOL    HW219495   8.454   7.941   2.873  2.0358  0.1639 -0.6126
 5748SOL     OW19496   4.489   8.018   9.791  0.5922  0.2312 -0.2870
 5748SOL    HW119497   4.560   7.964   9.825  0.2051 -0.4118 -0.4796
 5748SOL    HW219498   4.443   8.050   9.868  1.4578  1.1553 -0.1460
 5749SOL     OW19499   1.654   6.964   4.623  0.7720 -0.2475 -0.2070
 5749SOL    HW119500   1.659   6.870   4.603  1.3177  0.0372 -1.5532
 5749SOL    HW219501   1.731   7.001   4.579  0.8638  0.7593  0.7833
 5750SOL     OW19502   1.255   2.328   0.737  0.8326 -0.3558 -0.0374
 5750SOL    HW119503   1.303   2.365   0.812  1.7058 -1.6575  0.0768
 5750SOL    HW219504   1.254   2.234   0.754  0.4870 -0.6039 -1.3610
 5751SOL     OW19505   5.131   4.879   5.474 -0.2487  0.0156  0.0368
 5751SOL    HW119506   5.181   4.832   5.541  1.7885 -1.0025 -2.0720
 5751SOL    HW219507   5.190   4.947   5.444 -1.0244  0.2800 -0.9290
 5752SOL     OW19508  10.625   3.078  10.242 -0.3905 -0.0982  0.0838
 5752SOL    HW119509  10.533   3.054  10.249 -0.5854  0.6590  0.1154
 5752SOL    HW219510  10.665   3.043  10.322 -0.1767 -2.4671 -0.9592
 5753SOL     OW19511   4.445   3.248   9.646 -0.0943 -0.2417  0.1125
 5753SOL    HW119512   4.460   3.228   9.739  1.7492 -0.0013 -0.1114
 5753SOL    HW219513   4.524   3.292   9.618 -1.8970  2.6533 -0.7909
 5754SOL     OW19514  10.180   4.347   4.755 -0.3621 -0.0109  0.7482
 5754SOL    HW119515  10.234   4.409   4.804 -0.6654  0.8514  0.0169
 5754SOL    HW219516  10.224   4.263   4.765  1.6595  0.8183 -0.6113
 5755SOL     OW19517   2.189   4.235   7.979  0.4193  0.1874  0.2848
 5755SOL    HW119518   2.143   4.233   7.896  0.9096 -1.6427  0.0334
 5755SOL    HW219519   2.136   4.180   8.038  2.2797 -2.1339 -0.0704
 5756SOL     OW19520   3.544   3.593   7.477  0.2886 -0.0755  0.7125
 5756SOL    HW119521   3.533   3.683   7.509 -1.9620 -0.4069  1.0475
 5756SOL    HW219522   3.615   3.599   7.414 -0.2408  2.1012  0.2185
 5757SOL     OW19523  10.159   6.619   7.779  0.2123  0.1377 -0.4432
 5757SOL    HW119524  10.237   6.664   7.812 -1.1253  2.2368  0.0550
 5757SOL    HW219525  10.115   6.586   7.857  0.5455 -0.9849 -0.7160
 5758SOL     OW19526   8.885   3.605   9.706 -0.2450  0.7104  0.3390
 5758SOL    HW119527   8.804   3.554   9.704  0.5919 -0.8121  2.2141
 5758SOL    HW219528   8.955   3.540   9.700  0.8559  1.7096  1.5807
 5759SOL     OW19529   5.835   0.060   6.986 -0.0349 -0.0680 -0.6888
 5759SOL    HW119530   5.913   0.021   6.946  0.0253  0.5597 -1.2016
 5759SOL    HW219531   5.791   0.104   6.913 -0.5587  0.0776 -0.2859
 5760SOL     OW19532   9.495   6.597   3.731  0.1446  0.6567  0.0500
 5760SOL    HW119533   9.569   6.575   3.788 -0.6790 -0.5377  0.6940
 5760SOL    HW219534   9.421   6.550   3.769 -1.3303  3.0807  0.3596
 5761SOL     OW19535   1.040  10.461   0.619  0.2454 -0.2847 -0.0330
 5761SOL    HW119536   0.946  10.471   0.629  0.3138  0.0472  0.2845
 5761SOL    HW219537   1.056  10.475   0.525 -0.2220 -2.0551 -0.4285
 5762SOL     OW19538  10.253   8.108   6.929 -0.0588  0.3303 -0.2605
 5762SOL    HW119539  10.338   8.085   6.967 -0.5675 -1.4007 -0.0485
 5762SOL    HW219540  10.274   8.148   6.845  1.0394  2.8416  1.1006
 5763SOL     OW19541   8.722   8.030   9.879  0.0027  0.5653 -0.1685
 5763SOL    HW119542   8.736   8.118   9.843  1.4120  0.2728 -0.3787
 5763SOL    HW219543   8.774   8.029   9.960 -1.0266  0.3352  0.5081
 5764SOL     OW19544   1.385  10.373   0.371  0.4562 -0.2681  0.0873
 5764SOL    HW119545   1.338  10.294   0.397 -1.0894  0.3714 -0.6049
 5764SOL    HW219546   1.449  10.387   0.441  0.5086 -1.8961  0.4103
 5765SOL     OW19547   8.718   8.526   4.776  0.3058 -0.4588 -0.0648
 5765SOL    HW119548   8.759   8.478   4.705  1.4186  0.7520 -0.2769
 5765SOL    HW219549   8.780   8.521   4.849 -0.1849 -0.5034  0.3610
 5766SOL     OW19550   9.660   2.751   1.496  0.4771  0.1500 -0.1735
 5766SOL    HW119551   9.701   2.827   1.537  1.0231 -1.2281  1.9903
 5766SOL    HW219552   9.730   2.709   1.447  0.0690  1.2116 -1.7662
 5767SOL     OW19553   4.832   0.213   7.141  0.6316 -0.4166 -0.0382
 5767SOL    HW119554   4.921   0.228   7.172  0.7817  0.4465 -0.8428
 5767SOL    HW219555   4.842   0.163   7.060  0.2854 -1.8223  0.7446
 5768SOL     OW19556   6.987   9.980   6.406  0.0771  0.1697  0.3127
 5768SOL    HW119557   6.952   9.908   6.354 -1.3966  1.0686  0.0042
 5768SOL    HW219558   6.945  10.059   6.370  0.3984  0.9991  1.6735
 5769SOL     OW19559   6.880   5.568   3.324 -0.7106  0.1795 -0.0329
 5769SOL    HW119560   6.833   5.618   3.391  0.7114 -0.1837  1.2922
 5769SOL    HW219561   6.966   5.609   3.319 -0.1840 -0.9247 -0.3305
 5770SOL     OW19562   7.279   5.037   4.643 -1.0127 -0.5030 -0.4409
 5770SOL    HW119563   7.318   5.048   4.730 -0.3156 -1.2512 -0.6415
 5770SOL    HW219564   7.348   5.066   4.583 -1.7938  0.8408 -0.7471
 5771SOL     OW19565   5.473   1.067   5.824  0.3634  0.5931  0.0177
 5771SOL    HW119566   5.444   1.137   5.765  0.8733  0.8655  0.0863
 5771SOL    HW219567   5.554   1.100   5.863 -0.9852  1.3052  2.4327
 5772SOL     OW19568   6.298   8.227   6.991  0.6454  0.6498  0.1183
 5772SOL    HW119569   6.335   8.142   6.966  0.4881  1.3281 -2.8566
 5772SOL    HW219570   6.366   8.269   7.044  1.5320 -0.5606 -0.0288
 5773SOL     OW19571   1.933   0.872   3.798 -0.1879  0.2435 -0.3366
 5773SOL    HW119572   1.924   0.810   3.869  0.7535  1.1396  0.5978
 5773SOL    HW219573   2.021   0.858   3.764 -0.6046 -0.1352 -1.3119
 5774SOL     OW19574   1.033   7.383   0.326  0.0051  0.1716  0.0159
 5774SOL    HW119575   1.010   7.297   0.290 -2.5861  1.2894 -1.2502
 5774SOL    HW219576   1.123   7.373   0.357  0.1828 -2.6508 -1.1405
 5775SOL     OW19577   7.222   8.748   8.664 -0.1269  0.0934 -0.5217
 5775SOL    HW119578   7.176   8.776   8.585  1.3243 -1.7274 -2.0973
 5775SOL    HW219579   7.181   8.665   8.688  0.6827 -0.3034 -0.4780
 5776SOL     OW19580  10.004   9.481   5.580  0.2974 -0.5321 -0.2131
 5776SOL    HW119581   9.992   9.387   5.563  0.7301 -1.0723  2.0707
 5776SOL    HW219582   9.916   9.518   5.575  0.0471 -1.1595 -0.5951
 5777SOL     OW19583   3.371  10.230   1.764 -0.8182  0.1657 -0.2466
 5777SOL    HW119584   3.337  10.267   1.845  1.0705  0.3828  0.5099
 5777SOL    HW219585   3.404  10.306   1.715 -0.3347 -0.1322 -0.3937
 5778SOL     OW19586   2.705   7.771   4.581 -0.0422  0.2868 -0.0381
 5778SOL    HW119587   2.696   7.867   4.577 -1.6719  0.2620  1.5789
 5778SOL    HW219588   2.637   7.738   4.523 -0.5930  0.1169  0.6941
 5779SOL     OW19589   3.301   3.735  10.235 -0.2751  0.0238  0.1273
 5779SOL    HW119590   3.387   3.695  10.217 -0.3041 -0.7032  1.4926
 5779SOL    HW219591   3.313   3.781  10.318 -1.7454 -1.9122  1.5062
 5780SOL     OW19592   4.248   5.388   2.100 -0.0851  0.6714 -0.0213
 5780SOL    HW119593   4.167   5.338   2.088 -0.5932  1.3618  0.4656
 5780SOL    HW219594   4.268   5.422   2.014  0.3758 -0.5276 -0.4056
 5781SOL     OW19595   7.628   0.036   7.378  0.1639  0.3580 -0.0579
 5781SOL    HW119596   7.666   0.124   7.376  0.1881  0.3389 -1.1181
 5781SOL    HW219597   7.535   0.051   7.392 -0.4096  0.8201 -3.4040
 5782SOL     OW19598   2.886   8.919   6.263 -0.0508 -0.5080 -0.1416
 5782SOL    HW119599   2.877   8.852   6.329  1.4229 -2.1609 -1.5308
 5782SOL    HW219600   2.845   8.997   6.302  1.1978 -1.2345  2.8591
 5783SOL     OW19601  10.012   3.043   1.475  0.3148  0.2676  0.4878
 5783SOL    HW119602   9.927   3.034   1.430 -0.2306  0.3796  1.4671
 5783SOL    HW219603  10.001   2.996   1.557  1.3334 -0.0162  0.4735
 5784SOL     OW19604   4.515   2.499   2.555  0.2546 -0.2095 -0.2745
 5784SOL    HW119605   4.556   2.461   2.633 -0.3595 -0.5073 -0.0958
 5784SOL    HW219606   4.588   2.510   2.494  0.4112 -1.8942 -0.4253
 5785SOL     OW19607   0.315   0.514   3.752 -0.1155 -0.0650 -0.2629
 5785SOL    HW119608   0.396   0.551   3.787 -0.0128 -0.5601  0.0362
 5785SOL    HW219609   0.269   0.482   3.829 -1.0650  1.0906 -0.3142
 5786SOL     OW19610   7.521   1.909   1.372  0.0282 -0.5723 -0.4398
 5786SOL    HW119611   7.557   1.896   1.460  1.5112  1.4161 -0.6680
 5786SOL    HW219612   7.428   1.923   1.386  0.0081 -1.6506  0.6638
 5787SOL     OW19613   8.177   6.686   7.170 -0.0271  0.1731  0.1372
 5787SOL    HW119614   8.138   6.624   7.108 -0.1737  0.8377 -0.4391
 5787SOL    HW219615   8.105   6.711   7.227 -0.4453  1.3078 -0.8519
 5788SOL     OW19616   5.792   8.631   6.929 -0.5097 -0.0028 -0.2781
 5788SOL    HW119617   5.826   8.548   6.964 -0.0421 -0.3143 -1.3896
 5788SOL    HW219618   5.861   8.661   6.870  0.1564  2.1728  1.4896
 5789SOL     OW19619   9.771   4.165   7.071  0.3881 -0.5468  0.3110
 5789SOL    HW119620   9.715   4.208   7.135 -0.0938 -0.2046 -0.3304
 5789SOL    HW219621   9.748   4.072   7.077  0.5016 -0.5467  0.7791
 5790SOL     OW19622   6.335   6.190   3.011  0.1209 -0.0149 -0.5101
 5790SOL    HW119623   6.250   6.232   3.002 -0.0675 -0.6717 -1.9533
 5790SOL    HW219624   6.365   6.176   2.922  0.9454 -1.3955 -0.0538
 5791SOL     OW19625   0.073  10.534   8.478  0.0349  0.5599 -0.2812
 5791SOL    HW119626   0.114  10.585   8.548  1.4488  1.8105 -1.9190
 5791SOL    HW219627   0.087  10.443   8.504  1.9323  0.9799  0.3341
 5792SOL     OW19628   8.745   1.720   0.984  0.1441 -0.4055  0.6709
 5792SOL    HW119629   8.780   1.636   1.014  0.9731 -0.5546 -0.6233
 5792SOL    HW219630   8.656   1.700   0.954  0.5954 -1.0096 -0.3376
 5793SOL     OW19631   5.228   3.148   1.873 -0.8797 -0.4533 -0.5346
 5793SOL    HW119632   5.177   3.215   1.827 -0.0776  0.8232  0.3586
 5793SOL    HW219633   5.223   3.174   1.965  0.3616 -1.0087 -0.2903
 5794SOL     OW19634   0.962   1.477   0.115 -0.1076  0.1707 -0.0479
 5794SOL    HW119635   0.986   1.481   0.207 -0.4640 -1.1385  0.1292
 5794SOL    HW219636   1.012   1.403   0.080 -0.0827  0.5614 -0.8729
 5795SOL     OW19637   1.930   4.698   0.661  0.5211  0.1122 -0.7780
 5795SOL    HW119638   1.940   4.695   0.566  3.4872 -0.6779 -0.5406
 5795SOL    HW219639   1.948   4.609   0.690 -1.0886  0.1672  0.5079
 5796SOL     OW19640   8.172   4.336   8.369  0.4160  0.1642  0.2865
 5796SOL    HW119641   8.188   4.430   8.378 -0.8553  0.2665  1.9570
 5796SOL    HW219642   8.219   4.296   8.443  1.0217 -0.5524 -0.4542
 5797SOL     OW19643   9.963   2.178   9.131  0.0952  0.2287 -0.0882
 5797SOL    HW119644  10.002   2.095   9.160  0.2376  0.1438 -0.5108
 5797SOL    HW219645   9.971   2.176   9.035 -0.1167  0.6245 -0.1168
 5798SOL     OW19646   2.839   8.551   8.763  0.1545 -0.0904 -0.1491
 5798SOL    HW119647   2.867   8.474   8.713 -0.0731 -1.4141  1.6688
 5798SOL    HW219648   2.744   8.543   8.769  0.1525  0.2098  0.2530
 5799SOL     OW19649   6.147   6.713   8.448 -0.3991  0.1397  0.1657
 5799SOL    HW119650   6.098   6.669   8.518  0.9323 -0.3910  0.8110
 5799SOL    HW219651   6.212   6.766   8.494  1.5972 -1.4869 -0.6085
 5800SOL     OW19652   9.574   1.813   5.475 -0.1669 -0.4517  0.8136
 5800SOL    HW119653   9.633   1.750   5.433 -1.1942 -1.1070  0.3042
 5800SOL    HW219654   9.486   1.781   5.454 -0.7336  1.5277 -0.0236
 5801SOL     OW19655   9.942   5.432   9.218  1.0097 -0.3156  0.5445
 5801SOL    HW119656  10.006   5.503   9.221  0.0493  0.6716 -0.9772
 5801SOL    HW219657   9.888   5.446   9.296  2.1407 -0.7317  1.4472
 5802SOL     OW19658   8.830   7.058   3.031  0.1787  0.2678 -0.1489
 5802SOL    HW119659   8.787   7.094   2.953  0.8710  1.4756  0.0173
 5802SOL    HW219660   8.760   7.053   3.096 -0.2634 -0.1498 -0.6454
 5803SOL     OW19661   1.708   7.447   6.708  0.1353  0.7181  0.2410
 5803SOL    HW119662   1.727   7.540   6.693  2.0129  0.1137 -1.6493
 5803SOL    HW219663   1.673   7.417   6.624  0.2890 -0.4411  0.5844
 5804SOL     OW19664   0.040   7.348   9.113 -0.1826 -0.7626  0.4191
 5804SOL    HW119665   0.087   7.275   9.153 -0.2593 -0.1808  1.6271
 5804SOL    HW219666   0.104   7.419   9.110 -0.0233 -0.9413 -1.0124
 5805SOL     OW19667   0.086   6.209   5.552 -0.6975 -0.8822 -0.4848
 5805SOL    HW119668   0.170   6.250   5.571 -0.9024 -0.0259 -1.3372
 5805SOL    HW219669   0.040   6.209   5.636 -0.6968  0.6725 -0.4567
 5806SOL     OW19670   7.175   7.410   7.108 -0.0159 -0.2830 -0.0061
 5806SOL    HW119671   7.268   7.413   7.128  0.3743  1.4525 -1.8338
 5806SOL    HW219672   7.170   7.402   7.013 -1.7031  0.9202 -0.0781
 5807SOL     OW19673  10.235   2.758   8.701 -0.2520 -0.7926 -0.1538
 5807SOL    HW119674  10.154   2.804   8.678 -0.3922 -0.7424  0.4300
 5807SOL    HW219675  10.218   2.721   8.788  0.7464  0.1973  0.4945
 5808SOL     OW19676   0.924   5.870   6.721  0.0823 -0.1936 -0.3426
 5808SOL    HW119677   0.951   5.935   6.656  2.4852 -1.9817 -1.2782
 5808SOL    HW219678   0.850   5.825   6.680 -0.8079  1.0668 -0.1993
 5809SOL     OW19679   7.642   7.365   8.882  0.3739 -0.6677  0.6883
 5809SOL    HW119680   7.568   7.306   8.868  0.7633 -1.0204  0.0602
 5809SOL    HW219681   7.608   7.432   8.941 -0.7207 -0.3351 -0.2798
 5810SOL     OW19682   2.785   7.244   0.332  0.3055  0.1087  0.0752
 5810SOL    HW119683   2.741   7.293   0.402  0.3352  0.5254 -0.1904
 5810SOL    HW219684   2.727   7.170   0.315  0.2514  0.0553  0.4756
 5811SOL     OW19685   1.724  10.034   4.266 -0.0857 -0.1780 -0.4736
 5811SOL    HW119686   1.770  10.049   4.348  1.1274 -1.5340 -0.8626
 5811SOL    HW219687   1.794  10.019   4.202 -1.0024 -2.9076 -0.9751
 5812SOL     OW19688   5.835   8.429   0.099  0.2984 -0.7304  0.1742
 5812SOL    HW119689   5.906   8.369   0.075 -1.3381 -2.7723  0.2637
 5812SOL    HW219690   5.881   8.506   0.134  2.4788 -1.6158 -0.5522
 5813SOL     OW19691   3.503   2.307   7.381  0.9461 -0.1854  0.3262
 5813SOL    HW119692   3.544   2.304   7.294 -1.6251  0.6450 -1.0299
 5813SOL    HW219693   3.447   2.230   7.383 -0.9467  1.1110  0.1227
 5814SOL     OW19694   3.040   4.278   9.264  0.1223  1.0685  0.0097
 5814SOL    HW119695   3.027   4.322   9.180 -0.1927 -1.4238 -1.3326
 5814SOL    HW219696   2.960   4.228   9.278 -0.0659  1.8352  2.1188
 5815SOL     OW19697   1.789   3.559   1.354  0.5069 -0.5186 -0.0119
 5815SOL    HW119698   1.866   3.614   1.362 -0.6188  1.4955 -1.9055
 5815SOL    HW219699   1.774   3.551   1.260 -1.3961 -1.1276  0.2879
 5816SOL     OW19700   2.302   3.012   0.594  0.2727  0.2182  0.2144
 5816SOL    HW119701   2.305   3.005   0.498 -3.4571 -1.9208  0.0282
 5816SOL    HW219702   2.208   3.015   0.614  0.9240  0.8084  3.8174
 5817SOL     OW19703   0.661   9.116  10.391 -0.1464  0.3605 -0.0263
 5817SOL    HW119704   0.668   9.056  10.465  1.6425  1.6411  0.9286
 5817SOL    HW219705   0.719   9.080  10.324 -0.2066  0.2709 -0.0306
 5818SOL     OW19706   5.646   6.564   4.706 -0.1950  0.1544  0.5422
 5818SOL    HW119707   5.661   6.481   4.751  1.9288  0.8115  1.1651
 5818SOL    HW219708   5.731   6.587   4.669 -0.1620  3.0322  2.1078
 5819SOL     OW19709   1.301   7.844   0.731 -0.2712  0.4551 -0.2754
 5819SOL    HW119710   1.367   7.882   0.789 -0.0951 -0.7663  0.3400
 5819SOL    HW219711   1.351   7.803   0.661 -0.3951  0.0054 -0.1023
 5820SOL     OW19712   3.029   2.005   1.812 -0.3458  0.2639  0.5040
 5820SOL    HW119713   2.963   1.977   1.749 -0.0437 -0.6330  0.5690
 5820SOL    HW219714   3.105   2.029   1.757 -0.0420 -0.6287  0.5155
 5821SOL     OW19715   3.183   8.295   6.828 -0.0361  0.2598 -0.3863
 5821SOL    HW119716   3.117   8.226   6.838  0.8063 -0.5219 -0.0435
 5821SOL    HW219717   3.266   8.252   6.849  0.5499  1.3066 -0.4810
 5822SOL     OW19718   0.457   6.050   7.585  0.3303  0.0633  0.0865
 5822SOL    HW119719   0.448   6.129   7.638 -2.4214  0.1689 -0.3713
 5822SOL    HW219720   0.483   5.982   7.647  1.5925  1.0780  0.6996
 5823SOL     OW19721   6.236   7.943   8.270  0.1178 -0.1407  0.4469
 5823SOL    HW119722   6.235   7.853   8.305  0.0604  0.6054  2.4902
 5823SOL    HW219723   6.328   7.960   8.251  0.4269 -0.0023  1.9144
 5824SOL     OW19724   9.465   2.170   0.348 -0.1989  0.2186 -0.3089
 5824SOL    HW119725   9.557   2.172   0.373 -0.2622 -1.3876  0.1719
 5824SOL    HW219726   9.418   2.146   0.428 -0.9106 -0.0643 -0.7973
 5825SOL     OW19727   3.100   4.103   5.141 -0.2869  0.8281 -0.0327
 5825SOL    HW119728   3.148   4.037   5.091  1.7912  1.7271  0.6474
 5825SOL    HW219729   3.042   4.144   5.077 -1.6365 -1.5840 -0.4777
 5826SOL     OW19730   3.807   1.527   9.907 -0.2816 -0.0506 -0.0030
 5826SOL    HW119731   3.895   1.502   9.936 -0.7870 -2.1111 -0.1188
 5826SOL    HW219732   3.785   1.603   9.961  0.8685 -0.5771  1.2692
 5827SOL     OW19733   5.792   9.298   7.610  0.5716 -0.3422 -0.0576
 5827SOL    HW119734   5.733   9.367   7.579 -0.2154 -0.3467  1.3334
 5827SOL    HW219735   5.877   9.341   7.618 -0.0066  0.6127  1.2379
 5828SOL     OW19736   6.041   5.717   2.824 -0.2956 -0.3096 -0.0500
 5828SOL    HW119737   6.006   5.766   2.751  1.0670  0.5406 -0.1719
 5828SOL    HW219738   6.000   5.631   2.818 -1.4218  0.2731 -0.8400
 5829SOL     OW19739   4.468   9.966   7.196 -0.2108 -0.0285  0.2811
 5829SOL    HW119740   4.465   9.871   7.210  0.1180 -0.2710 -1.1392
 5829SOL    HW219741   4.540   9.978   7.134 -0.9794  1.0375 -0.4207
 5830SOL     OW19742   9.006   1.577   3.126  0.2578  0.2793  0.4945
 5830SOL    HW119743   9.074   1.599   3.063  0.0039 -0.6933 -0.1459
 5830SOL    HW219744   8.944   1.524   3.076  0.1376 -0.6606  1.5956
 5831SOL     OW19745   9.128   9.663   1.792  0.2665 -0.2104  0.1790
 5831SOL    HW119746   9.161   9.722   1.724 -1.3071 -1.0545 -1.3717
 5831SOL    HW219747   9.193   9.593   1.796  1.0422  0.5000  0.5302
 5832SOL     OW19748   1.238   9.419   2.933  0.4184 -0.0044  0.5885
 5832SOL    HW119749   1.177   9.375   2.873  1.3201 -2.0927  1.1087
 5832SOL    HW219750   1.190   9.424   3.016  0.3180 -0.0383  0.5335
 5833SOL     OW19751   4.600   4.260   8.441 -0.1815  0.5910  0.1243
 5833SOL    HW119752   4.588   4.354   8.428  1.5571  0.8035 -0.1414
 5833SOL    HW219753   4.592   4.248   8.536 -0.3750  1.0135  0.1644
 5834SOL     OW19754   3.648   9.301  10.416 -0.1308  0.0896  0.1832
 5834SOL    HW119755   3.722   9.240  10.415 -0.7609 -0.6941 -0.5187
 5834SOL    HW219756   3.630   9.315  10.509 -0.0287 -0.8804  0.3628
 5835SOL     OW19757   6.293   9.728   0.300 -0.0063  0.2708 -0.2067
 5835SOL    HW119758   6.255   9.783   0.369 -2.3847  0.6150 -1.6810
 5835SOL    HW219759   6.374   9.772   0.276 -1.1422  2.3878 -0.3760
 5836SOL     OW19760   6.778   0.884   3.009 -0.7874  0.3944  0.8053
 5836SOL    HW119761   6.815   0.932   2.935  0.6960 -2.1418 -0.2365
 5836SOL    HW219762   6.704   0.836   2.972  0.2191 -1.2167  0.8108
 5837SOL     OW19763   2.582   2.747   9.341  0.0892  0.4322  0.1418
 5837SOL    HW119764   2.664   2.779   9.379 -0.8616  2.2210  0.8194
 5837SOL    HW219765   2.588   2.768   9.248  1.3926 -1.7419 -0.3561
 5838SOL     OW19766   9.161   6.450   0.267  0.0892  0.7094 -0.5222
 5838SOL    HW119767   9.069   6.474   0.256 -0.3159 -0.3607  0.3000
 5838SOL    HW219768   9.159   6.355   0.280  1.1104  0.8979  1.4199
 5839SOL     OW19769   2.126   7.943   4.436 -0.4486  0.9227  0.0097
 5839SOL    HW119770   2.174   7.931   4.354  2.6343  4.0358  1.0975
 5839SOL    HW219771   2.035   7.958   4.409  0.7290  3.4797 -3.0811
 5840SOL     OW19772   7.565   4.508   0.775  0.3253 -0.2049 -0.3085
 5840SOL    HW119773   7.653   4.546   0.781 -0.1808  0.9468  0.0292
 5840SOL    HW219774   7.539   4.521   0.684  0.6156 -0.8310 -0.4885
 5841SOL     OW19775   9.264   0.746   3.687 -0.2964 -0.6421 -0.0074
 5841SOL    HW119776   9.249   0.653   3.707  1.4245 -1.1094 -0.7124
 5841SOL    HW219777   9.229   0.792   3.763 -2.1624 -1.7711 -0.1171
 5842SOL     OW19778   9.607   6.128   3.946 -0.0749  0.5093  0.1053
 5842SOL    HW119779   9.627   6.212   3.987 -1.7169  0.7852  0.3924
 5842SOL    HW219780   9.521   6.103   3.980 -0.9223  0.1043 -2.1226
 5843SOL     OW19781   5.038   2.132   8.143  0.0835 -0.4349 -0.1686
 5843SOL    HW119782   4.949   2.116   8.174  0.2055 -1.8396 -0.4494
 5843SOL    HW219783   5.076   2.193   8.206  0.1313 -2.7048  2.1212
 5844SOL     OW19784   4.092   9.977   6.710  0.1523  0.2624  0.5750
 5844SOL    HW119785   4.122   9.972   6.620 -0.9904  0.2513  0.1873
 5844SOL    HW219786   4.172   9.991   6.761  0.7953  0.3375 -0.4367
 5845SOL     OW19787   5.167   0.139  10.499  0.3855  0.0211  0.3429
 5845SOL    HW119788   5.174   0.223  10.452  1.3537  0.2791  0.9019
 5845SOL    HW219789   5.189   0.073  10.434  0.0628  0.2424  0.0077
 5846SOL     OW19790   5.898  10.252   0.943  0.1857 -0.1818 -0.5605
 5846SOL    HW119791   5.940  10.251   1.029  0.1762  0.9372 -0.5187
 5846SOL    HW219792   5.866  10.342   0.934 -1.6956 -0.8443 -0.8391
 5847SOL     OW19793   1.841  10.348   2.271  0.0939  0.2331 -0.4567
 5847SOL    HW119794   1.878  10.265   2.301 -1.8814 -0.3948  0.3907
 5847SOL    HW219795   1.847  10.344   2.175 -0.0763 -0.9503 -0.4331
 5848SOL     OW19796   0.592   1.840   8.716 -0.0811 -0.3345  0.1722
 5848SOL    HW119797   0.616   1.933   8.711 -1.0206 -0.1477 -1.2965
 5848SOL    HW219798   0.629   1.801   8.637 -1.5346 -0.7558 -0.3221
 5849SOL     OW19799   1.050   1.667  10.602 -0.0106 -0.2409 -0.2002
 5849SOL    HW119800   1.021   1.592  10.653  0.7508  0.6479  1.6327
 5849SOL    HW219801   1.025   1.743  10.654 -2.3356  0.9481 -2.8038
 5850SOL     OW19802   6.110   7.551   4.962  0.0703 -0.3769 -0.0403
 5850SOL    HW119803   6.179   7.617   4.960 -0.4135  0.1495  0.3974
 5850SOL    HW219804   6.147   7.476   4.915  1.0226 -0.1888  0.3845
 5851SOL     OW19805   0.240   7.829   4.043  0.2331  0.1526 -0.2293
 5851SOL    HW119806   0.258   7.860   3.954  0.8555  1.2738  0.2616
 5851SOL    HW219807   0.298   7.882   4.099  1.2355 -1.8338  0.6956
 5852SOL     OW19808   3.150   1.065   8.141 -0.2465  0.1570 -0.0776
 5852SOL    HW119809   3.076   1.004   8.148 -0.5060  0.4589 -0.1691
 5852SOL    HW219810   3.110   1.147   8.114  0.2688  0.0094 -1.3455
 5853SOL     OW19811   3.913   3.901   3.821 -0.1484  0.1754  0.2664
 5853SOL    HW119812   3.863   3.836   3.772 -0.5950  1.3477 -0.9201
 5853SOL    HW219813   3.930   3.861   3.906 -0.8257 -1.2718 -0.2582
 5854SOL     OW19814   3.821   0.515   0.633  0.1268  0.0754 -0.1793
 5854SOL    HW119815   3.888   0.583   0.624  1.1937 -0.9525 -0.2573
 5854SOL    HW219816   3.750   0.558   0.681  0.6144  1.3397 -0.5476
 5855SOL     OW19817   0.502   1.031   1.224 -0.0414  0.0205 -0.1900
 5855SOL    HW119818   0.530   1.030   1.133  2.3133 -0.9745  0.4592
 5855SOL    HW219819   0.477   1.121   1.241  0.7636  0.5106 -1.4768
 5856SOL     OW19820   6.193   5.159   3.902  0.5209  0.3234 -0.3423
 5856SOL    HW119821   6.190   5.072   3.862  0.2743  0.1699  0.0026
 5856SOL    HW219822   6.253   5.209   3.847 -0.5166  0.3953 -1.4465
 5857SOL     OW19823   9.605   4.912   8.189  0.3611 -0.4074 -0.1548
 5857SOL    HW119824   9.594   4.831   8.139  2.7880 -1.2958  0.6069
 5857SOL    HW219825   9.527   4.916   8.245  0.0494 -2.0398 -0.4226
 5858SOL     OW19826   3.132   0.102   5.084  0.3896  0.4015 -0.0733
 5858SOL    HW119827   3.127   0.009   5.062 -0.6325  0.3987  0.1173
 5858SOL    HW219828   3.062   0.143   5.032  1.0058  1.1075 -0.3640
 5859SOL     OW19829   4.900  10.468   3.330 -0.1821 -0.1064  0.1352
 5859SOL    HW119830   4.966  10.533   3.355 -0.4006 -0.1640  0.8743
 5859SOL    HW219831   4.947  10.385   3.328  0.1899  0.1114 -1.2006
 5860SOL     OW19832   8.881   2.396   5.283 -0.5232  0.3573 -0.1438
 5860SOL    HW119833   8.814   2.351   5.334  0.5415 -1.1360  0.0216
 5860SOL    HW219834   8.839   2.416   5.200 -1.9775  1.9258  0.9117
 5861SOL     OW19835   8.313   6.368   3.808  0.1320 -0.1675  0.0654
 5861SOL    HW119836   8.267   6.429   3.866  1.5931 -0.6419  1.7969
 5861SOL    HW219837   8.243   6.312   3.772 -0.8154  0.1774  1.3091
 5862SOL     OW19838   0.787   6.478   9.081 -0.4674 -0.4125 -0.0191
 5862SOL    HW119839   0.799   6.572   9.090  2.0178 -0.5794 -0.7798
 5862SOL    HW219840   0.812   6.458   8.991 -0.0859 -1.8756  0.3654
 5863SOL     OW19841   8.691   4.997   4.204  0.2738 -0.3663  0.0858
 5863SOL    HW119842   8.743   5.074   4.179 -1.0665  0.5007 -0.0926
 5863SOL    HW219843   8.636   5.028   4.276 -0.3041 -1.1429 -0.0171
 5864SOL     OW19844   8.202  10.042   9.447  0.0803 -0.1810  0.3750
 5864SOL    HW119845   8.153  10.086   9.516 -0.0828  1.1154 -0.5165
 5864SOL    HW219846   8.136  10.021   9.381  0.5047  0.3253 -0.2210
 5865SOL     OW19847   3.875   4.828   8.925  0.1296  0.5259 -0.5103
 5865SOL    HW119848   3.806   4.776   8.967 -1.0095  0.9719 -1.7309
 5865SOL    HW219849   3.941   4.764   8.899 -1.1849 -0.3643 -1.8677
 5866SOL     OW19850   1.588   2.862   5.877 -0.6431  0.5939  0.0839
 5866SOL    HW119851   1.571   2.921   5.951 -1.2610  0.2625  0.2113
 5866SOL    HW219852   1.504   2.855   5.832 -0.4105  0.3311 -0.3160
 5867SOL     OW19853   7.061   1.196   7.384 -0.1065 -0.4409 -0.6738
 5867SOL    HW119854   7.122   1.267   7.362  0.3596 -1.2117 -1.9143
 5867SOL    HW219855   7.112   1.137   7.440  0.9128 -1.9742 -3.0767
 5868SOL     OW19856   3.788   9.214   3.780  0.0927  0.1420  0.1711
 5868SOL    HW119857   3.804   9.210   3.686  0.5714  0.8824  0.2116
 5868SOL    HW219858   3.866   9.173   3.819  0.1389  0.3039  0.2532
 5869SOL     OW19859   0.616   8.159   6.769  0.1756  0.1982 -0.5902
 5869SOL    HW119860   0.588   8.161   6.677  1.2024  0.3835 -0.9105
 5869SOL    HW219861   0.535   8.161   6.819 -0.3738  2.6166 -1.4472
 5870SOL     OW19862   7.914   9.432   9.883 -0.7152  0.3629  0.2053
 5870SOL    HW119863   7.965   9.446   9.802 -1.3128 -1.5389 -0.5509
 5870SOL    HW219864   7.971   9.466   9.952  0.6978  0.2252 -0.8215
 5871SOL     OW19865  10.142   6.565   2.642  0.1332  0.3478  0.0885
 5871SOL    HW119866  10.073   6.509   2.606  1.1250 -0.5125 -0.5498
 5871SOL    HW219867  10.221   6.511   2.636  1.0459  1.6655 -0.1227
 5872SOL     OW19868   5.273   4.483   3.413  0.1160 -0.3730  0.0726
 5872SOL    HW119869   5.227   4.437   3.483  2.2516 -0.4627  1.5072
 5872SOL    HW219870   5.296   4.415   3.350  0.9104 -0.8491  0.8573
 5873SOL     OW19871   3.609  10.594   2.510  0.0206 -0.3471 -0.2187
 5873SOL    HW119872   3.675  10.550   2.458 -0.4688 -0.5038 -0.7191
 5873SOL    HW219873   3.655  10.623   2.589  1.4407  2.2838 -1.8904
 5874SOL     OW19874   1.104   8.976   9.551  0.1647  0.0708  0.8801
 5874SOL    HW119875   1.066   8.996   9.637 -1.3641 -0.5038  0.3770
 5874SOL    HW219876   1.067   8.890   9.528 -1.6301  1.3640 -1.5035
 5875SOL     OW19877   3.476   2.396   4.218  0.2543 -0.1059 -0.9669
 5875SOL    HW119878   3.462   2.343   4.296  2.3197 -1.6574 -1.5824
 5875SOL    HW219879   3.570   2.394   4.203  0.6222  4.3377 -0.6743
 5876SOL     OW19880   2.032   6.103   6.869 -0.1354 -0.7729 -0.7182
 5876SOL    HW119881   2.024   6.008   6.878  2.7645 -1.0036  0.4153
 5876SOL    HW219882   2.103   6.116   6.806  0.3710  0.5875  0.0790
 5877SOL     OW19883   9.766   9.410   0.026 -0.3339 -0.1793  0.1629
 5877SOL    HW119884   9.800   9.461  -0.047 -1.9323  0.2836 -0.2950
 5877SOL    HW219885   9.804   9.450   0.104 -0.2781  0.6625 -0.2911
 5878SOL     OW19886   9.387   3.597   8.497  0.0419 -0.1163  0.3577
 5878SOL    HW119887   9.399   3.681   8.453  2.9776  0.2053  1.5435
 5878SOL    HW219888   9.380   3.619   8.590 -0.3562 -1.0991  0.5672
 5879SOL     OW19889   8.113   2.187   2.424 -0.1399  0.1512  0.8783
 5879SOL    HW119890   8.152   2.151   2.504 -0.4805 -1.6653  0.2737
 5879SOL    HW219891   8.135   2.123   2.356 -1.7476  0.5254 -0.0319
 5880SOL     OW19892  10.013   1.525   7.411 -0.4405 -0.2592 -0.0957
 5880SOL    HW119893   9.988   1.485   7.328 -1.1757  2.7165 -1.4522
 5880SOL    HW219894  10.108   1.534   7.406 -0.3278 -1.3209  0.0175
 5881SOL     OW19895   0.765   0.590   4.476 -0.0992 -0.1136 -0.4260
 5881SOL    HW119896   0.748   0.681   4.451 -0.9291 -0.9227 -3.1749
 5881SOL    HW219897   0.699   0.571   4.543 -0.9575  0.8807 -0.9543
 5882SOL     OW19898   9.070   2.577   0.880  0.7688  0.0535 -0.0633
 5882SOL    HW119899   9.071   2.637   0.806  0.1548 -0.0760 -0.1792
 5882SOL    HW219900   9.158   2.540   0.882  0.3033 -1.2685 -1.8174
 5883SOL     OW19901   0.953   0.297   8.687  0.3908 -0.4135 -0.1224
 5883SOL    HW119902   0.918   0.223   8.737 -0.3747 -1.7439 -2.4584
 5883SOL    HW219903   1.037   0.316   8.727  0.2717 -2.0749  1.0116
 5884SOL     OW19904   6.979   2.061   6.422  0.1165 -0.4409 -0.1784
 5884SOL    HW119905   6.992   1.990   6.485  1.2504 -2.3692 -2.4185
 5884SOL    HW219906   7.030   2.134   6.457  1.1712 -1.6299  0.8675
 5885SOL     OW19907   1.311   9.915   0.638  0.0580  0.7605  0.1191
 5885SOL    HW119908   1.360   9.926   0.720 -0.2311 -0.9258  0.5661
 5885SOL    HW219909   1.377   9.898   0.572  0.2993  2.1879 -0.0240
 5886SOL     OW19910   4.201   9.077   0.952  0.2117  0.2920 -0.2149
 5886SOL    HW119911   4.257   9.135   0.901  0.3323  0.3419 -0.0259
 5886SOL    HW219912   4.209   8.992   0.909 -1.1245  0.7250 -1.4075
 5887SOL     OW19913   0.997   4.811   4.029 -0.2679  0.2366  0.2600
 5887SOL    HW119914   0.953   4.862   3.961  1.6916  2.3780  0.4775
 5887SOL    HW219915   1.050   4.875   4.076  0.6789 -1.6917  1.9537
 5888SOL     OW19916   0.417   9.316   0.434 -0.3248  0.2507  0.3016
 5888SOL    HW119917   0.356   9.372   0.385 -0.3108 -0.7240 -0.8632
 5888SOL    HW219918   0.416   9.233   0.387  1.6171  0.0888  0.4777
 5889SOL     OW19919   8.941   2.335   0.988 -0.5082 -0.1530 -0.2241
 5889SOL    HW119920   8.983   2.259   0.948  0.9592  0.5187 -0.0183
 5889SOL    HW219921   8.976   2.410   0.939  0.6542  0.6208  1.6980
 5890SOL     OW19922   3.026  10.430  10.417  0.7140 -0.2461  0.5880
 5890SOL    HW119923   3.032  10.354  10.475  2.0353 -0.3483  0.3381
 5890SOL    HW219924   2.974  10.494  10.467  2.0956 -0.1960  2.0324
 5891SOL     OW19925   8.146   9.145   4.956  0.0810  0.1470  0.3623
 5891SOL    HW119926   8.133   9.215   5.019  0.9533  1.5780 -0.9915
 5891SOL    HW219927   8.110   9.067   4.999 -1.5653  1.5327  1.6140
 5892SOL     OW19928   1.529  10.594   6.844  0.3738  0.1638  0.0172
 5892SOL    HW119929   1.437  10.605   6.868 -0.1287  0.7205 -1.9602
 5892SOL    HW219930   1.577  10.650   6.906 -0.5211 -0.6556  1.5039
 5893SOL     OW19931   9.163   0.275   4.700 -0.1373  0.2268 -0.3077
 5893SOL    HW119932   9.137   0.367   4.704  0.0869  0.2542  0.4985
 5893SOL    HW219933   9.244   0.275   4.649  1.5463  0.8528  2.2363
 5894SOL     OW19934   0.942   1.314  10.408 -0.1717 -0.0597  0.0370
 5894SOL    HW119935   0.894   1.283  10.332  1.4180 -1.3093 -0.5312
 5894SOL    HW219936   0.964   1.234  10.456 -0.1464  0.6174  1.1899
 5895SOL     OW19937   3.532   4.816   1.176 -0.5708 -0.3287  0.4917
 5895SOL    HW119938   3.499   4.895   1.218 -1.6365 -1.4379  1.8262
 5895SOL    HW219939   3.584   4.848   1.102 -1.4287  1.5821  0.6613
 5896SOL     OW19940  10.573   4.958   5.628 -0.4059 -0.0363 -0.2037
 5896SOL    HW119941  10.624   4.881   5.604  1.2368  0.3686  1.7170
 5896SOL    HW219942  10.482   4.928   5.623  0.0447 -1.2821 -2.0436
 5897SOL     OW19943   9.450   9.879   4.666  0.4350  0.1595  0.7120
 5897SOL    HW119944   9.434   9.972   4.654 -0.8861  0.0806  1.6386
 5897SOL    HW219945   9.525   9.875   4.725  0.1483  0.6610  1.1219
 5898SOL     OW19946   3.790   8.528   1.178  0.2416 -0.5387  0.1778
 5898SOL    HW119947   3.735   8.606   1.186  2.9461  1.7606 -1.5899
 5898SOL    HW219948   3.740   8.469   1.122 -1.5394  0.2460  0.8629
 5899SOL     OW19949   5.065   2.347   2.187  0.0296 -0.0346 -0.0253
 5899SOL    HW119950   5.100   2.430   2.156  1.6903 -0.5302  0.4561
 5899SOL    HW219951   5.129   2.282   2.160 -1.2784 -1.1923 -0.4510
 5900SOL     OW19952   4.448   6.917   6.177 -0.5027  0.3900 -0.0385
 5900SOL    HW119953   4.488   6.878   6.100 -0.0473  0.3937  0.1929
 5900SOL    HW219954   4.516   6.973   6.214 -0.2513 -0.6640  1.1318
 5901SOL     OW19955   6.256   8.518   3.373 -0.8050  0.3188 -0.2443
 5901SOL    HW119956   6.190   8.505   3.440 -1.7508  0.4986 -1.1180
 5901SOL    HW219957   6.247   8.442   3.315 -1.9897  1.5733 -1.7787
 5902SOL     OW19958   6.713   6.043   4.569 -0.0203  0.1570  0.1851
 5902SOL    HW119959   6.633   6.093   4.582 -0.8865 -1.4532  1.4359
 5902SOL    HW219960   6.767   6.062   4.646  0.6033  0.8311 -0.4012
 5903SOL     OW19961   5.142  10.564   0.294  0.0282 -0.4716 -0.2284
 5903SOL    HW119962   5.199  10.627   0.251 -0.4937 -0.3463 -0.7499
 5903SOL    HW219963   5.073  10.617   0.333  0.6393 -0.5541  1.0256
 5904SOL     OW19964   1.063   2.963   7.611  0.1186 -0.2581 -0.5464
 5904SOL    HW119965   1.051   2.876   7.572 -1.8686  0.4147 -1.5319
 5904SOL    HW219966   1.089   3.019   7.538  1.7145 -0.0445  0.1432
 5905SOL     OW19967   1.785   4.080   6.045  0.0099  0.1932  0.2358
 5905SOL    HW119968   1.784   4.165   6.002 -1.8038  0.4292  0.6670
 5905SOL    HW219969   1.837   4.024   5.987  1.9823  1.7748  0.3900
 5906SOL     OW19970   9.515   2.639   5.063  0.3991  0.0549 -0.1852
 5906SOL    HW119971   9.575   2.565   5.058  0.4493 -0.0415  1.3499
 5906SOL    HW219972   9.430   2.599   5.082  0.0990  0.2985 -0.9450
 5907SOL     OW19973   9.790   7.243   7.775 -0.0031 -0.2816  0.1478
 5907SOL    HW119974   9.777   7.157   7.737 -1.4305  0.0365 -0.1522
 5907SOL    HW219975   9.848   7.229   7.850  1.1825 -1.2222 -0.9254
 5908SOL     OW19976   7.846   2.207   8.326 -0.0675  0.1029 -0.0012
 5908SOL    HW119977   7.778   2.199   8.260 -1.3963 -1.8117  1.4953
 5908SOL    HW219978   7.909   2.138   8.306  0.2279  0.3705 -0.0171
 5909SOL     OW19979   1.301   4.206   2.299 -0.7148 -0.3073  0.1392
 5909SOL    HW119980   1.304   4.296   2.332 -1.4453 -0.1129 -0.3012
 5909SOL    HW219981   1.208   4.186   2.292 -0.6134 -0.4013 -1.5634
 5910SOL     OW19982   4.865   0.180   6.535 -0.8709 -0.3055  0.0984
 5910SOL    HW119983   4.955   0.168   6.567 -0.3170  0.0036 -1.2786
 5910SOL    HW219984   4.844   0.270   6.556 -0.2434  0.1148 -0.9993
 5911SOL     OW19985   5.541   8.505   7.375 -0.3622  0.1479  0.0956
 5911SOL    HW119986   5.491   8.552   7.442 -0.6989 -1.6346  1.1586
 5911SOL    HW219987   5.518   8.549   7.293 -2.5661  0.3260  0.7370
 5912SOL     OW19988   3.507   2.718   7.985 -0.0872  0.0682  0.1135
 5912SOL    HW119989   3.493   2.649   8.050 -0.1143 -0.6403 -0.6241
 5912SOL    HW219990   3.419   2.739   7.954  0.0038 -0.4097 -0.4986
 5913SOL     OW19991   8.677   7.417   4.697  0.0553  0.0522 -0.4076
 5913SOL    HW119992   8.700   7.345   4.755 -0.6777  0.3008  0.2027
 5913SOL    HW219993   8.684   7.495   4.751 -0.5559  0.2962 -0.6631
 5914SOL     OW19994   8.496   3.050   0.493  0.2896  0.2755 -0.4091
 5914SOL    HW119995   8.474   2.975   0.438 -1.6323  0.8425 -0.4918
 5914SOL    HW219996   8.411   3.090   0.513  1.1337  1.3854  1.1120
 5915SOL     OW19997   8.877   1.610   0.084 -0.2997 -0.5589 -0.0901
 5915SOL    HW119998   8.811   1.649   0.141  1.0892 -1.6229  2.3954
 5915SOL    HW219999   8.946   1.676   0.078  0.3129 -1.0815  0.9237
 5916SOL     OW20000   6.796   9.084   7.387 -0.1117 -0.2277 -0.3693
 5916SOL    HW120001   6.753   9.004   7.417  1.8488 -0.8299  0.9886
 5916SOL    HW220002   6.738   9.117   7.318 -1.9323 -1.7823  0.3098
 5917SOL     OW20003  10.063   5.581  10.386  0.1640  0.0067 -0.6554
 5917SOL    HW120004  10.140   5.526  10.370  0.5147 -0.1306  1.2598
 5917SOL    HW220005  10.095   5.654  10.438 -1.0112 -0.1676  0.3862
 5918SOL     OW20006   5.562   9.097   0.511 -0.1221 -0.3245 -0.8647
 5918SOL    HW120007   5.618   9.032   0.552 -0.7770 -1.1722 -1.2922
 5918SOL    HW220008   5.574   9.083   0.417 -0.9507 -0.4216 -0.9570
 5919SOL     OW20009   0.160   5.596   5.764  0.3400 -0.4721  0.0308
 5919SOL    HW120010   0.254   5.615   5.766  0.2125  0.2280  2.2827
 5919SOL    HW220011   0.124   5.660   5.703  1.2261 -0.2876 -0.3187
 5920SOL     OW20012   8.680   4.747   5.471 -0.1998 -0.3566  0.1422
 5920SOL    HW120013   8.702   4.679   5.535  0.3066 -1.0400 -0.7415
 5920SOL    HW220014   8.612   4.708   5.416  1.0597 -0.6878 -1.2341
 5921SOL     OW20015   5.526   7.735   8.248 -0.2314  0.1303  0.6547
 5921SOL    HW120016   5.510   7.805   8.312  0.8303  0.1495  0.9161
 5921SOL    HW220017   5.458   7.748   8.182 -1.2851  0.1762  1.7011
 5922SOL     OW20018   9.539   8.557   3.772 -0.3694  0.2078 -0.2381
 5922SOL    HW120019   9.521   8.562   3.678 -1.9835  2.0642  0.1010
 5922SOL    HW220020   9.561   8.647   3.797  1.0663 -0.4526  1.0013
 5923SOL     OW20021   2.481   7.179   9.896 -0.3175 -0.3074  0.6639
 5923SOL    HW120022   2.495   7.234   9.820  0.1386 -0.3691  0.7040
 5923SOL    HW220023   2.389   7.154   9.890 -0.4676  0.2634  0.5188
 5924SOL     OW20024   2.752   7.486   3.009 -0.2153 -0.2459  0.1701
 5924SOL    HW120025   2.726   7.577   3.014 -0.7143 -0.4077  0.6054
 5924SOL    HW220026   2.816   7.475   3.080 -0.0942 -0.2201  0.0664
 5925SOL     OW20027   8.013   3.496   9.405  0.1516  0.4353 -0.3942
 5925SOL    HW120028   8.068   3.432   9.451 -1.2115 -0.6222 -0.1589
 5925SOL    HW220029   7.947   3.520   9.470 -0.5970  0.4648 -1.1628
 5926SOL     OW20030  10.261   1.218   8.618  0.1302  0.0221  0.2858
 5926SOL    HW120031  10.287   1.302   8.656  3.6578 -1.5594  1.8022
 5926SOL    HW220032  10.317   1.207   8.542 -0.3494 -0.9346  0.0449
 5927SOL     OW20033   5.572   2.831   3.828 -0.1844  0.1702 -0.2765
 5927SOL    HW120034   5.507   2.885   3.873 -0.1128  0.1051 -0.0939
 5927SOL    HW220035   5.588   2.876   3.745 -2.6261 -1.2839 -1.6758
 5928SOL     OW20036   3.116   0.872  10.143 -0.2525  1.1602 -0.0543
 5928SOL    HW120037   3.027   0.878  10.107 -0.6094  0.0151  0.5994
 5928SOL    HW220038   3.169   0.922  10.081 -1.0749  0.4458 -1.4097
 5929SOL     OW20039   5.158   4.210   6.540  0.2847 -0.0959  0.0757
 5929SOL    HW120040   5.141   4.118   6.524  1.0561 -0.6310  1.9975
 5929SOL    HW220041   5.251   4.214   6.564 -0.1712  0.8331  1.9453
 5930SOL     OW20042   7.413   1.146   6.021 -0.0904 -0.1754  0.3645
 5930SOL    HW120043   7.354   1.092   5.968  1.6139 -1.4020 -0.3772
 5930SOL    HW220044   7.388   1.236   5.999 -1.1287 -0.6569 -0.5565
 5931SOL     OW20045   8.323   1.342   5.874  0.5764 -0.1592  0.1898
 5931SOL    HW120046   8.300   1.251   5.890 -1.8581  0.3191 -0.2237
 5931SOL    HW220047   8.277   1.391   5.943  0.4018  0.8711 -0.6322
 5932SOL     OW20048   3.574   3.443   9.198  0.1691 -0.0580  0.2502
 5932SOL    HW120049   3.658   3.403   9.219  0.6311 -0.2803 -1.7704
 5932SOL    HW220050   3.509   3.380   9.230  0.7614 -0.0146  1.5751
 5933SOL     OW20051   3.283   0.099   1.761  0.0363  0.2151  0.0200
 5933SOL    HW120052   3.316   0.075   1.674  2.5377  0.3623  0.8680
 5933SOL    HW220053   3.248   0.018   1.797  1.2528 -0.4105 -0.1765
 5934SOL     OW20054   1.990   9.139   5.035 -0.0623  0.1546 -0.3684
 5934SOL    HW120055   2.071   9.110   4.994 -0.1796 -1.7539  0.6021
 5934SOL    HW220056   1.934   9.164   4.962  0.9840  0.3528 -1.1226
 5935SOL     OW20057   1.061   8.466   2.255 -0.6206  0.3387  0.0688
 5935SOL    HW120058   1.138   8.424   2.293 -0.1611  0.6517 -0.5070
 5935SOL    HW220059   0.988   8.439   2.312 -0.0329  0.3536  0.8347
 5936SOL     OW20060   2.286   0.228   6.138  0.2395 -0.5749 -0.3565
 5936SOL    HW120061   2.225   0.169   6.184  0.0547  0.6812  1.0884
 5936SOL    HW220062   2.359   0.239   6.199  0.8654 -0.2952 -1.1461
 5937SOL     OW20063  10.610   1.080   4.136  0.1991 -0.1090  0.2303
 5937SOL    HW120064  10.553   1.112   4.066 -0.5661 -0.9825  0.4317
 5937SOL    HW220065  10.694   1.062   4.092 -0.3381 -0.8560 -0.5147
 5938SOL     OW20066   0.722   5.203   7.560 -0.3101 -0.1748 -0.1544
 5938SOL    HW120067   0.655   5.142   7.529 -0.8580  0.9951 -1.4013
 5938SOL    HW220068   0.783   5.210   7.487 -0.9098  1.6318 -0.5538
 5939SOL     OW20069   7.232   6.485   2.052  0.0360  0.0734  0.9371
 5939SOL    HW120070   7.156   6.428   2.047 -1.5285  2.1267  0.0834
 5939SOL    HW220071   7.222   6.533   2.134  0.7092 -0.0152  1.0822
 5940SOL     OW20072   5.124   2.781   6.030  0.7072 -0.0647  0.5919
 5940SOL    HW120073   5.177   2.759   5.954 -0.9711  0.4845 -0.7852
 5940SOL    HW220074   5.175   2.848   6.076  0.5791  1.5333 -1.4782
 5941SOL     OW20075   3.996   1.280   0.291  0.5090  0.0660 -0.0657
 5941SOL    HW120076   3.941   1.353   0.263  0.0373 -0.2079  0.1357
 5941SOL    HW220077   4.025   1.239   0.209  1.6476  1.0941 -0.2176
 5942SOL     OW20078   9.403   4.222   4.914  0.8263 -0.0016  0.5553
 5942SOL    HW120079   9.421   4.187   5.001  0.3554  0.8253  0.9969
 5942SOL    HW220080   9.311   4.248   4.918  0.2183 -1.7211 -0.8046
 5943SOL     OW20081   8.611   0.977   6.183  0.3831 -0.7077  0.1898
 5943SOL    HW120082   8.554   1.004   6.111 -0.1190  0.7781  1.1133
 5943SOL    HW220083   8.570   0.897   6.217 -1.1412  0.2934  0.7900
 5944SOL     OW20084   0.697   0.160   5.603 -0.0081  0.0182 -0.2310
 5944SOL    HW120085   0.761   0.102   5.646 -1.5034 -1.2636  0.3878
 5944SOL    HW220086   0.726   0.165   5.512  0.1497 -1.8307 -0.3320
 5945SOL     OW20087   0.464   5.332  10.432 -0.4424  0.8177  0.0348
 5945SOL    HW120088   0.475   5.290  10.517 -0.5383  1.4969  0.3821
 5945SOL    HW220089   0.532   5.398  10.429  0.2380  0.1041 -0.8566
 5946SOL     OW20090   9.856  10.151   7.373 -0.4486 -0.7522 -0.1733
 5946SOL    HW120091   9.855  10.246   7.385  0.0659 -0.3812 -2.6008
 5946SOL    HW220092   9.764  10.125   7.377 -0.6340 -0.0883  0.0433
 5947SOL     OW20093   9.729   6.566   7.417  0.3421  0.0300  0.7762
 5947SOL    HW120094   9.793   6.567   7.346 -1.4787 -0.3058 -0.9498
 5947SOL    HW220095   9.767   6.621   7.485  1.8666  0.8839 -0.7130
 5948SOL     OW20096   3.624   8.747   1.057 -0.4986 -0.1033 -0.1574
 5948SOL    HW120097   3.558   8.759   0.989 -0.0774  2.3909 -0.2328
 5948SOL    HW220098   3.592   8.799   1.131  0.2377 -0.7869  0.6598
 5949SOL     OW20099   2.579   3.025   0.674  0.4448  0.1613 -0.2453
 5949SOL    HW120100   2.502   3.057   0.627 -0.5996  1.8975  2.4549
 5949SOL    HW220101   2.557   2.935   0.698 -1.1629  0.9074  1.2241
 5950SOL     OW20102   8.687   8.669   3.759 -0.6770 -0.3595  0.3627
 5950SOL    HW120103   8.677   8.639   3.849 -0.9393  0.3437  0.5699
 5950SOL    HW220104   8.666   8.592   3.706  1.9532 -1.5865  0.8838
 5951SOL     OW20105   2.187   8.504   3.291  0.3026  0.3882  0.9343
 5951SOL    HW120106   2.168   8.595   3.269 -0.8724 -0.3868 -1.5852
 5951SOL    HW220107   2.282   8.500   3.297  0.5626  1.3240 -1.4450
 5952SOL     OW20108   9.851   2.939   4.990  0.6661 -0.3046  0.2330
 5952SOL    HW120109   9.927   2.913   4.938  1.6972  3.3894 -0.3892
 5952SOL    HW220110   9.888   2.978   5.069 -0.5373  1.4989 -0.0558
 5953SOL     OW20111   8.377   8.918   8.606  0.3880 -0.5823  0.0382
 5953SOL    HW120112   8.408   8.844   8.554  0.8032 -1.4045  1.4240
 5953SOL    HW220113   8.440   8.988   8.588  0.7370 -0.9732 -0.2616
 5954SOL     OW20114   2.119   7.389   0.557 -0.6861 -0.1965  0.3927
 5954SOL    HW120115   2.063   7.442   0.501 -1.0996 -1.0085  0.0185
 5954SOL    HW220116   2.196   7.372   0.504 -0.2141  0.6410  0.7863
 5955SOL     OW20117   1.487   2.775   8.021  0.1144 -0.5478  0.3328
 5955SOL    HW120118   1.557   2.710   8.027  0.3743 -0.6062 -2.4131
 5955SOL    HW220119   1.456   2.769   7.931 -1.3976  1.5811  0.6492
 5956SOL     OW20120   5.039   3.877   5.737 -0.1741  0.1890 -0.1631
 5956SOL    HW120121   4.986   3.952   5.763 -0.8587  0.0866 -1.1978
 5956SOL    HW220122   5.124   3.915   5.713  1.0319  0.1475  3.4532
 5957SOL     OW20123   3.742   0.521   2.550  0.0971  0.0170 -0.7061
 5957SOL    HW120124   3.729   0.508   2.644 -1.0707 -1.9791 -1.0779
 5957SOL    HW220125   3.811   0.587   2.544  0.3354  0.0556  1.5403
 5958SOL     OW20126   3.225   0.171   0.530 -0.1450 -0.4892  0.0665
 5958SOL    HW120127   3.203   0.115   0.456  1.1123  0.1346 -0.8277
 5958SOL    HW220128   3.229   0.260   0.493 -1.1179  0.0679  1.2407
 5959SOL     OW20129   0.943  10.308   2.574 -0.3893  0.6044 -0.5028
 5959SOL    HW120130   1.005  10.311   2.647  0.2649 -0.1916 -1.0105
 5959SOL    HW220131   0.873  10.368   2.600  0.0401  0.6614  0.5854
 5960SOL     OW20132   0.511   3.051   7.964  0.5441 -0.1870  0.4813
 5960SOL    HW120133   0.580   2.991   7.936 -0.3816 -1.9682  1.8400
 5960SOL    HW220134   0.553   3.108   8.029  0.6860 -1.4556  1.5266
 5961SOL     OW20135   8.682   8.139   5.319 -0.0890  0.8541  0.7137
 5961SOL    HW120136   8.680   8.068   5.383 -0.3248 -0.7936 -1.0264
 5961SOL    HW220137   8.775   8.152   5.301 -0.0478  0.9066  0.9679
 5962SOL     OW20138   3.419   5.204   0.701 -0.3526  0.0241  0.2812
 5962SOL    HW120139   3.483   5.141   0.666 -0.6360 -0.6267  0.8889
 5962SOL    HW220140   3.339   5.153   0.710 -0.5375  0.4253  0.9592
 5963SOL     OW20141   3.523   6.158   1.992 -0.6498  0.4755 -0.1891
 5963SOL    HW120142   3.441   6.112   1.974 -1.2441  0.1364  2.9258
 5963SOL    HW220143   3.495   6.246   2.017 -0.1391  0.2292  1.3272
 5964SOL     OW20144   7.481   8.651   6.256  0.0020  0.2684 -0.0435
 5964SOL    HW120145   7.421   8.679   6.325 -0.0629 -2.8593  1.3561
 5964SOL    HW220146   7.424   8.612   6.190  0.2436  0.8513 -0.5990
 5965SOL     OW20147   8.235   3.696   9.782  0.0661 -0.4740  0.3604
 5965SOL    HW120148   8.164   3.694   9.718  0.4085 -0.9405 -0.0132
 5965SOL    HW220149   8.267   3.787   9.780  0.4801 -0.6341 -0.5841
 5966SOL     OW20150   8.294   7.030   9.840 -0.0893 -0.2257  0.1262
 5966SOL    HW120151   8.382   7.066   9.840  0.9629 -2.5111  2.2669
 5966SOL    HW220152   8.294   6.966   9.769  0.5047 -1.2695  1.0394
 5967SOL     OW20153  10.625   3.933   9.422 -0.2799  0.2130  0.7137
 5967SOL    HW120154  10.578   3.869   9.367  0.0336  1.0164 -0.5278
 5967SOL    HW220155  10.713   3.897   9.431 -0.5394 -0.2905  1.3451
 5968SOL     OW20156   8.116   3.188   7.571 -0.7490  0.3635 -0.3575
 5968SOL    HW120157   8.107   3.108   7.519  1.0087  0.4046 -0.8038
 5968SOL    HW220158   8.143   3.254   7.508  0.3760  0.6699  0.4223
 5969SOL     OW20159   3.547   8.472   6.341 -0.5590 -0.2178  0.0527
 5969SOL    HW120160   3.479   8.433   6.285 -0.0835  0.0754 -0.7543
 5969SOL    HW220161   3.627   8.425   6.317  0.2041  1.7769 -1.5838
 5970SOL     OW20162   1.047  10.088   8.942  0.1172  0.1130 -0.2493
 5970SOL    HW120163   1.061  10.147   9.017  0.3520  0.7721 -0.8014
 5970SOL    HW220164   0.953  10.069   8.944 -0.0587  0.9308 -0.3653
 5971SOL     OW20165   0.035   6.670   6.303 -1.4121 -0.4783  0.1330
 5971SOL    HW120166  -0.055   6.701   6.293 -0.9241  0.6653 -1.0255
 5971SOL    HW220167   0.071   6.673   6.214  0.1875  0.4231  0.7763
 5972SOL     OW20168   0.725   7.375   3.896 -0.2419  0.2076  0.0528
 5972SOL    HW120169   0.675   7.300   3.928  0.9391 -0.6734 -0.0995
 5972SOL    HW220170   0.816   7.355   3.919  0.2917  0.8412 -1.4003
 5973SOL     OW20171   1.719   5.148   4.669  0.0075  0.4312 -0.3753
 5973SOL    HW120172   1.629   5.179   4.682  0.1145  0.1002  1.5072
 5973SOL    HW220173   1.710   5.070   4.614 -0.9646 -0.0465  0.4176
 5974SOL     OW20174   0.065   3.816   4.572 -0.0346 -0.1499 -0.6454
 5974SOL    HW120175   0.052   3.723   4.557  1.7261 -0.4368 -0.5315
 5974SOL    HW220176   0.135   3.821   4.637  0.3506  1.2646 -1.1277
 5975SOL     OW20177   2.992   5.519   8.235 -0.5093 -0.2082 -0.1582
 5975SOL    HW120178   2.937   5.472   8.298 -2.0844  0.8683 -0.6911
 5975SOL    HW220179   2.932   5.574   8.186  1.0495  0.9935 -0.8106
 5976SOL     OW20180   9.975   9.032   2.069  0.1362  0.1645 -0.8020
 5976SOL    HW120181   9.936   8.974   2.004 -2.0897 -1.2939  1.5981
 5976SOL    HW220182   9.905   9.094   2.090  0.4539  0.0625  0.7252
 5977SOL     OW20183   0.141   8.240   8.394  0.5989 -0.6076 -0.2225
 5977SOL    HW120184   0.138   8.335   8.383  1.0246 -0.6197 -0.4913
 5977SOL    HW220185   0.108   8.205   8.311  1.5650 -0.6944 -0.5839
 5978SOL     OW20186   4.981   7.220   0.553  0.0969  0.0948  0.2685
 5978SOL    HW120187   4.984   7.312   0.527 -1.2821  0.2330  0.5340
 5978SOL    HW220188   5.026   7.217   0.638  0.1191  0.5212  0.2731
 5979SOL     OW20189   4.368   2.477   6.523  0.1643  0.2623  0.6778
 5979SOL    HW120190   4.408   2.393   6.504 -0.1379  0.3411 -0.3461
 5979SOL    HW220191   4.400   2.500   6.610  0.8574 -0.5429  0.6399
 5980SOL     OW20192   9.773   5.148   9.246  0.2214 -0.1101  0.1004
 5980SOL    HW120193   9.823   5.221   9.281 -0.8436  0.2368  0.9538
 5980SOL    HW220194   9.691   5.187   9.217 -1.0002 -1.1447  1.9487
 5981SOL     OW20195   5.880   7.432   2.028  0.4354 -0.2982 -0.1040
 5981SOL    HW120196   5.789   7.458   2.014 -0.4916 -2.6167  1.0514
 5981SOL    HW220197   5.913   7.412   1.940 -0.4191 -0.1381 -0.4722
 5982SOL     OW20198   1.384   8.088   9.116  0.0347 -0.0284 -0.1178
 5982SOL    HW120199   1.459   8.029   9.130  0.0467 -0.2762 -1.1573
 5982SOL    HW220200   1.349   8.061   9.031 -0.4172  0.9806 -0.2552
 5983SOL     OW20201   5.523   4.305   4.391 -0.5494 -0.2962 -0.0713
 5983SOL    HW120202   5.548   4.351   4.471 -0.0230  2.0595 -1.4669
 5983SOL    HW220203   5.605   4.300   4.341 -1.1934 -0.1775 -1.1589
 5984SOL     OW20204  10.615   5.732   1.263 -0.4347  0.1424  0.3621
 5984SOL    HW120205  10.615   5.728   1.167 -0.9709  0.3146  0.3566
 5984SOL    HW220206  10.526   5.708   1.288  0.0194 -1.0831  0.8702
 5985SOL     OW20207   2.818   4.865   1.811  0.1972 -0.1596  0.1065
 5985SOL    HW120208   2.802   4.955   1.783 -0.6845  0.3415  2.0366
 5985SOL    HW220209   2.805   4.812   1.732 -2.7710  1.0675 -0.3562
 5986SOL     OW20210  10.102   3.135   0.518 -0.3200 -0.0271 -0.5702
 5986SOL    HW120211  10.171   3.136   0.452 -0.1720 -1.0234 -0.4448
 5986SOL    HW220212  10.106   3.222   0.558  0.1192  0.3072 -1.3134
 5987SOL     OW20213   6.927   0.752   7.169  0.3005 -0.4533 -0.1977
 5987SOL    HW120214   6.861   0.686   7.188 -0.1491 -0.0847 -0.4733
 5987SOL    HW220215   6.927   0.809   7.246  0.1064 -0.2923 -0.3189
 5988SOL     OW20216   8.624   8.601  10.219  0.5883 -0.3703  0.4544
 5988SOL    HW120217   8.618   8.681  10.272  0.9344 -0.3222  0.4217
 5988SOL    HW220218   8.540   8.596  10.174 -0.3336 -1.2272  2.1681
 5989SOL     OW20219   8.931   2.041   9.805 -0.1110  0.4489  0.4625
 5989SOL    HW120220   8.878   2.121   9.812  1.5959  1.5753  1.0203
 5989SOL    HW220221   8.987   2.055   9.729  1.0141  0.3126  1.2393
 5990SOL     OW20222   6.095   0.494   0.598  0.0423  0.1726 -0.1248
 5990SOL    HW120223   6.099   0.481   0.693 -1.6270 -1.2406 -0.1973
 5990SOL    HW220224   6.083   0.588   0.588  2.0392  0.6017  0.9568
 5991SOL     OW20225  10.585   7.120   0.315 -0.3443 -0.2787  0.1071
 5991SOL    HW120226  10.557   7.160   0.232  0.4925 -1.5851 -0.8491
 5991SOL    HW220227  10.553   7.180   0.383 -2.1311  0.2112 -1.0909
 5992SOL     OW20228   7.618   6.849   9.910  0.0705  0.7165 -0.6018
 5992SOL    HW120229   7.664   6.813   9.985  0.9122  0.3033 -1.3035
 5992SOL    HW220230   7.645   6.941   9.907  0.4488  0.6041 -0.7020
 5993SOL     OW20231   5.754   0.879   8.937 -0.5166 -0.1866  0.0636
 5993SOL    HW120232   5.662   0.901   8.923  0.2617  3.1217 -0.7510
 5993SOL    HW220233   5.777   0.824   8.863 -2.0783 -2.2114  0.9818
 5994SOL     OW20234   3.617   8.001   3.272  0.5572  0.0223  0.0380
 5994SOL    HW120235   3.652   8.082   3.310  1.4058  0.3894 -1.4432
 5994SOL    HW220236   3.694   7.950   3.248  0.1006  0.1197 -1.8038
 5995SOL     OW20237   3.486   3.876   9.761  0.1519  0.1800 -0.4452
 5995SOL    HW120238   3.547   3.927   9.707 -0.6951  1.9172  0.1730
 5995SOL    HW220239   3.509   3.899   9.851 -0.3724 -0.4010 -0.1522
 5996SOL     OW20240   8.590   9.068   6.455 -0.7776  0.5359 -0.1856
 5996SOL    HW120241   8.507   9.079   6.409 -3.0509 -1.8139  2.8500
 5996SOL    HW220242   8.595   9.142   6.515 -1.4225  0.0504  0.4978
 5997SOL     OW20243   6.082   1.572   0.762  0.2448 -0.8260 -0.6300
 5997SOL    HW120244   6.149   1.529   0.814  0.0670 -1.5142 -0.9640
 5997SOL    HW220245   6.052   1.505   0.701 -1.2590 -0.7463 -0.0092
 5998SOL     OW20246   0.853   0.600   2.259  0.0988  0.0976 -0.0933
 5998SOL    HW120247   0.831   0.507   2.250 -1.8069  0.0960  2.9853
 5998SOL    HW220248   0.816   0.641   2.181 -1.6966 -1.3984 -0.1126
 5999SOL     OW20249   7.574   7.684   0.146 -0.3291  0.3824  0.1709
 5999SOL    HW120250   7.566   7.733   0.228  0.6715 -0.0204  0.5259
 5999SOL    HW220251   7.506   7.721   0.090 -2.0488 -0.3468  1.6629
 6000SOL     OW20252   1.109   5.939   3.685 -0.5961  0.2134  0.1109
 6000SOL    HW120253   1.199   5.925   3.657 -0.7356 -3.4848  0.9514
 6000SOL    HW220254   1.110   5.921   3.779 -2.1115  0.8346  0.2788
 6001SOL     OW20255   8.329  10.379   9.733 -0.6185 -0.2834 -0.4115
 6001SOL    HW120256   8.267  10.418   9.672  0.3125  1.2309 -0.4688
 6001SOL    HW220257   8.405  10.438   9.729  0.5343 -1.6843  0.1633
 6002SOL     OW20258   9.691   4.957   5.132  0.7751  0.2226  0.0439
 6002SOL    HW120259   9.690   4.861   5.134 -1.6617  0.1527  2.3864
 6002SOL    HW220260   9.740   4.979   5.054  0.0887 -2.9628 -1.4657
 6003SOL     OW20261   9.174   4.666   9.239  0.4744  0.0632  0.2340
 6003SOL    HW120262   9.160   4.616   9.319 -1.9459  0.8270  0.3731
 6003SOL    HW220263   9.243   4.619   9.192  0.0635 -1.9115  1.5338
 6004SOL     OW20264   4.718   2.837   7.487 -0.1810 -0.1767 -0.2948
 6004SOL    HW120265   4.661   2.891   7.541 -0.1089 -2.3053  2.1112
 6004SOL    HW220266   4.804   2.844   7.528  0.0627 -1.2373 -0.5763
 6005SOL     OW20267   1.172   0.371   5.130 -0.1893 -0.2399 -0.0134
 6005SOL    HW120268   1.218   0.316   5.067 -1.1093 -0.7767 -0.2420
 6005SOL    HW220269   1.237   0.434   5.160  0.5420 -0.6555 -0.7036
 6006SOL     OW20270   2.401   3.489   2.168  0.9123  0.4385 -0.1401
 6006SOL    HW120271   2.367   3.557   2.110  0.2102 -0.0288 -0.2959
 6006SOL    HW220272   2.411   3.412   2.111  0.6182  0.0957  0.2693
 6007SOL     OW20273   0.480   7.130   2.817 -0.1042 -0.6854 -0.0413
 6007SOL    HW120274   0.521   7.213   2.843  1.2578 -0.8715 -1.4743
 6007SOL    HW220275   0.419   7.111   2.888  0.3661  0.9749  0.8676
 6008SOL     OW20276   7.932  10.494   8.619  0.4192  0.1451 -0.3227
 6008SOL    HW120277   7.968  10.583   8.626  2.7490 -0.6472 -1.1079
 6008SOL    HW220278   8.004  10.443   8.581 -0.7764 -2.1397  0.3432
 6009SOL     OW20279   6.419   8.945   9.975 -0.3570  0.0656 -0.0419
 6009SOL    HW120280   6.328   8.973   9.979 -0.8449 -1.3935 -0.2098
 6009SOL    HW220281   6.436   8.907  10.062  0.2638  0.8250  0.1720
 6010SOL     OW20282   1.816   0.553   4.873 -0.3238 -0.0398  0.6873
 6010SOL    HW120283   1.758   0.489   4.833 -1.3230  0.7479  0.8598
 6010SOL    HW220284   1.793   0.636   4.833  0.6098  0.3145  0.8456
 6011SOL     OW20285   0.736  10.540   6.930 -0.0643 -0.1244  0.4189
 6011SOL    HW120286   0.659  10.493   6.961  0.1108 -0.2652  0.6410
 6011SOL    HW220287   0.701  10.623   6.898 -0.6069 -1.0836 -1.6308
 6012SOL     OW20288   5.382   1.388   7.303  0.2318 -0.0968 -0.2412
 6012SOL    HW120289   5.348   1.303   7.333 -0.3024 -0.2547 -1.2630
 6012SOL    HW220290   5.475   1.385   7.326  0.0759 -0.6575  0.3797
 6013SOL     OW20291   0.105   7.049   2.196  0.9723 -0.4906 -0.6698
 6013SOL    HW120292   0.028   6.997   2.171  0.0818 -0.2898  1.4221
 6013SOL    HW220293   0.117   7.030   2.289  1.6120  1.7639 -0.2282
 6014SOL     OW20294  10.371   9.353   2.879 -0.1146 -0.5095  0.2132
 6014SOL    HW120295  10.431   9.292   2.922  1.2288 -0.0123 -0.9027
 6014SOL    HW220296  10.322   9.393   2.952  1.5071 -0.3015  1.2347
 6015SOL     OW20297   5.859  10.391   9.441 -0.4738 -0.4077 -0.4017
 6015SOL    HW120298   5.852  10.424   9.531 -1.0469 -0.8006 -0.2980
 6015SOL    HW220299   5.952  10.400   9.419 -0.0938 -1.4752  0.6792
 6016SOL     OW20300   2.186   2.976   2.090 -0.1221 -0.2594 -0.4701
 6016SOL    HW120301   2.213   2.993   2.180 -1.0446 -0.9724 -0.0463
 6016SOL    HW220302   2.153   2.886   2.091 -2.9015  0.6553 -0.8332
 6017SOL     OW20303   4.045   2.962   1.350 -0.4765  0.0679  0.3350
 6017SOL    HW120304   4.032   3.023   1.422 -1.6492  0.1617  0.0602
 6017SOL    HW220305   4.054   2.876   1.393 -0.8138  0.1693  0.6055
 6018SOL     OW20306   8.162   1.077   3.949 -0.2636  0.2738  0.7733
 6018SOL    HW120307   8.176   1.032   3.865 -1.6790 -0.9747  1.1627
 6018SOL    HW220308   8.196   1.165   3.935 -0.6559  0.1587 -1.1965
 6019SOL     OW20309   6.868   0.585   9.125  0.3516  0.6446  0.4269
 6019SOL    HW120310   6.875   0.513   9.189  1.1116  0.4661  0.1493
 6019SOL    HW220311   6.933   0.648   9.154  0.3475  0.7906  0.1106
 6020SOL     OW20312   1.839   3.095   0.413 -0.3062  0.5026 -0.0924
 6020SOL    HW120313   1.823   3.190   0.407  0.0666  0.4608 -2.6529
 6020SOL    HW220314   1.774   3.064   0.476 -1.6800  2.2174 -0.5797
 6021SOL     OW20315   7.613   8.716   6.578 -0.4010 -0.6622 -0.0901
 6021SOL    HW120316   7.685   8.733   6.637 -0.6564  0.0149  0.0302
 6021SOL    HW220317   7.654   8.678   6.500 -0.1121 -2.0083  0.6819
 6022SOL     OW20318   6.629   1.249   9.336 -0.5559  0.2840 -0.1942
 6022SOL    HW120319   6.619   1.344   9.329 -0.2936  0.3240 -0.0225
 6022SOL    HW220320   6.667   1.234   9.422  1.2477  0.1631 -0.9471
 6023SOL     OW20321   3.559   0.448  10.147  0.0103  0.2357  0.0461
 6023SOL    HW120322   3.493   0.518  10.147 -0.0693  0.2195 -2.2199
 6023SOL    HW220323   3.525   0.384  10.210 -1.5828  0.7237 -0.2609
 6024SOL     OW20324   8.666   4.514   7.062 -0.3899  0.1705  0.1449
 6024SOL    HW120325   8.656   4.443   7.126 -0.0885  1.4146  1.6383
 6024SOL    HW220326   8.760   4.527   7.055 -0.4603  1.5844  1.2838
 6025SOL     OW20327   6.523   9.830   0.486 -0.3092 -0.2291  0.0959
 6025SOL    HW120328   6.428   9.826   0.477 -0.1423 -0.1797 -2.6393
 6025SOL    HW220329   6.540   9.914   0.528 -1.4556  0.3941 -0.6477
 6026SOL     OW20330   1.329   2.743   9.037 -0.7132  0.2337 -0.0479
 6026SOL    HW120331   1.405   2.798   9.018 -0.2152 -0.1456  0.8163
 6026SOL    HW220332   1.306   2.764   9.127 -1.5754  0.2615 -0.2614
 6027SOL     OW20333   0.001   9.666   3.562 -0.0658 -0.0933 -0.2521
 6027SOL    HW120334   0.033   9.608   3.632 -0.5429  2.3808  2.1721
 6027SOL    HW220335   0.069   9.731   3.552 -1.7002  1.9388  0.9292
 6028SOL     OW20336   5.209   4.019   3.428  0.3943  0.3718  0.0651
 6028SOL    HW120337   5.160   4.080   3.483 -0.9208  0.2381 -0.8924
 6028SOL    HW220338   5.168   4.027   3.342  0.3323 -1.6861 -0.1353
 6029SOL     OW20339   1.382   1.650   6.930 -0.5219 -0.1065  0.3989
 6029SOL    HW120340   1.338   1.633   6.846 -0.5578  0.6060  0.2664
 6029SOL    HW220341   1.312   1.680   6.988 -0.2636  0.8249  0.2495
 6030SOL     OW20342   7.584   0.437   3.637  0.0093 -0.0208  0.4661
 6030SOL    HW120343   7.624   0.483   3.563 -0.3114 -1.9561 -1.0010
 6030SOL    HW220344   7.547   0.507   3.691  0.5246  1.4904 -1.0356
 6031SOL     OW20345   8.309   3.194   8.082  0.1581 -0.1390 -0.1894
 6031SOL    HW120346   8.314   3.117   8.026  1.0148 -0.4928  0.3406
 6031SOL    HW220347   8.241   3.248   8.043  0.6835 -0.4029 -1.5239
 6032SOL     OW20348   6.583   7.110   6.620  0.2969  0.0134  0.1316
 6032SOL    HW120349   6.522   7.037   6.629 -0.6004  0.7895  0.3957
 6032SOL    HW220350   6.630   7.112   6.703  1.1031 -0.9270 -0.2709
 6033SOL     OW20351   0.049   9.737   4.240 -0.0247  0.0401  0.1567
 6033SOL    HW120352   0.012   9.686   4.168  0.6044 -0.5439  0.2413
 6033SOL    HW220353  -0.020   9.739   4.306 -0.1266 -0.5240  0.0678
 6034SOL     OW20354   6.809   2.986   1.376 -0.5428 -0.1971 -0.0340
 6034SOL    HW120355   6.799   3.073   1.338  1.8365  0.9350  1.6398
 6034SOL    HW220356   6.787   2.997   1.469 -3.1308 -2.1399 -0.3132
 6035SOL     OW20357   1.686   3.363   1.693  0.4850 -0.4032 -0.2094
 6035SOL    HW120358   1.738   3.283   1.697  1.6095  0.3215  0.2937
 6035SOL    HW220359   1.597   3.333   1.680  1.1747 -1.6526 -2.6606
 6036SOL     OW20360   8.202   1.430   8.057 -0.0021 -0.4848  0.3629
 6036SOL    HW120361   8.132   1.465   8.000  1.2980  1.5298 -0.1045
 6036SOL    HW220362   8.166   1.437   8.145 -0.4796  0.3936  0.1179
 6037SOL     OW20363   6.095   3.783   7.912  0.2306  0.3916 -0.1348
 6037SOL    HW120364   6.000   3.782   7.922  0.1870 -0.7296 -0.5385
 6037SOL    HW220365   6.110   3.821   7.826  0.2089  1.6630  0.4105
 6038SOL     OW20366   0.696   7.207   8.204  0.1402  0.4390 -0.3834
 6038SOL    HW120367   0.695   7.279   8.141  0.3318  0.3646 -0.4736
 6038SOL    HW220368   0.613   7.214   8.251  0.6506  1.4367  0.4123
 6039SOL     OW20369   5.752   7.833   3.305  0.1469 -0.7973 -0.1084
 6039SOL    HW120370   5.671   7.880   3.284 -0.8328 -2.3587 -0.0388
 6039SOL    HW220371   5.819   7.874   3.251 -0.7345  0.3931 -0.3417
 6040SOL     OW20372   6.843   2.936   4.270  0.4310 -1.0004  0.0914
 6040SOL    HW120373   6.819   2.881   4.195 -1.2467  1.5570 -1.4309
 6040SOL    HW220374   6.932   2.965   4.251  0.0189 -0.3746 -0.9563
 6041SOL     OW20375   8.338   9.328   8.043  0.1841  0.5647  0.4828
 6041SOL    HW120376   8.322   9.250   8.096  2.0241  1.4967  2.5746
 6041SOL    HW220377   8.400   9.300   7.976 -0.2800 -0.0732  0.3093
 6042SOL     OW20378   4.374   7.656   2.678  0.3929 -0.4973 -0.2574
 6042SOL    HW120379   4.312   7.729   2.676  0.5338 -0.3837 -1.7355
 6042SOL    HW220380   4.427   7.672   2.756 -0.0895  0.5446 -0.1201
 6043SOL     OW20381   0.562   6.682   5.050 -0.2446  0.5108 -0.3001
 6043SOL    HW120382   0.479   6.638   5.068  0.7035 -1.8970 -1.3347
 6043SOL    HW220383   0.563   6.692   4.954  0.6222  0.5502 -0.2919
 6044SOL     OW20384   6.579  10.636   4.173  0.2190  0.4027  0.4759
 6044SOL    HW120385   6.556  10.546   4.151 -2.1203  1.3191 -1.2211
 6044SOL    HW220386   6.646  10.661   4.110 -0.2346  0.3124 -0.0452
 6045SOL     OW20387   1.143   1.017   9.372 -0.7825 -1.1269  0.6699
 6045SOL    HW120388   1.059   1.062   9.383  0.3394  0.6720  2.7317
 6045SOL    HW220389   1.160   1.022   9.278 -0.5938  3.3407  0.7147
 6046SOL     OW20390   7.710   4.929   4.881  0.1214 -0.2209 -0.1105
 6046SOL    HW120391   7.652   4.859   4.912  0.0534  0.4873  1.4406
 6046SOL    HW220392   7.776   4.937   4.949 -0.1879  1.6011  0.0086
 6047SOL     OW20393   1.456   6.110   0.564  0.0469 -0.9219  0.3958
 6047SOL    HW120394   1.536   6.082   0.608 -0.1999 -1.2371  0.6534
 6047SOL    HW220395   1.388   6.099   0.631  0.2499  2.4283  1.3046
 6048SOL     OW20396   8.769   7.362   6.721 -0.3544  0.1154  0.0736
 6048SOL    HW120397   8.825   7.408   6.658  1.0653 -0.5444  0.8108
 6048SOL    HW220398   8.732   7.431   6.775 -1.9008  0.7350 -1.6708
 6049SOL     OW20399   3.808   9.222   0.326  0.0484 -0.1673  0.7656
 6049SOL    HW120400   3.837   9.232   0.236  0.9569 -1.8148  0.8495
 6049SOL    HW220401   3.718   9.189   0.319  0.0147 -0.0176  0.4756
 6050SOL     OW20402   2.410   6.649   6.202  0.1388 -0.1838  0.6059
 6050SOL    HW120403   2.362   6.590   6.261  0.0364 -0.7974 -0.0766
 6050SOL    HW220404   2.346   6.673   6.135  0.2407  0.5570  0.7650
 6051SOL     OW20405   7.906   4.087   1.288 -0.2750 -0.1626  0.1736
 6051SOL    HW120406   7.998   4.066   1.304 -0.4644 -0.6120  0.7115
 6051SOL    HW220407   7.908   4.151   1.217  0.4515 -0.1716  0.1772
 6052SOL     OW20408   4.090   4.999   9.505 -0.1438 -0.5804  0.2612
 6052SOL    HW120409   4.154   4.983   9.436  0.3510  1.3156  0.2319
 6052SOL    HW220410   4.131   4.965   9.584  0.6014 -0.0145  0.1250
 6053SOL     OW20411   4.250   5.057   4.841 -0.0063 -0.4976  0.0407
 6053SOL    HW120412   4.224   4.983   4.896  0.6622 -1.0920 -0.4302
 6053SOL    HW220413   4.290   5.118   4.903  1.6038 -1.5701  0.1284
 6054SOL     OW20414   2.742   2.133   0.035  0.4008  0.2416 -0.1118
 6054SOL    HW120415   2.809   2.071   0.063  0.0578  0.0048  0.1972
 6054SOL    HW220416   2.747   2.204   0.099  0.0710  0.0205  0.1628
 6055SOL     OW20417   4.884   0.171   5.920 -0.1000 -0.0042 -0.6011
 6055SOL    HW120418   4.876   0.131   5.833 -0.9021  0.3621 -0.7091
 6055SOL    HW220419   4.901   0.264   5.902  0.8306 -0.1139 -0.3532
 6056SOL     OW20420   6.938   7.139   7.681  0.1058 -0.2861 -0.4658
 6056SOL    HW120421   6.917   7.047   7.693 -1.8622 -0.2040 -2.5371
 6056SOL    HW220422   7.017   7.139   7.627  0.7576 -0.7113  0.4581
 6057SOL     OW20423   2.002   2.077   6.980 -0.1152 -0.8048  0.2978
 6057SOL    HW120424   1.976   2.027   6.903 -2.0291 -1.8012  1.4983
 6057SOL    HW220425   1.923   2.080   7.034  0.6093  1.5515  1.3439
 6058SOL     OW20426   3.871   8.197   0.983  0.4434  0.0454  0.1780
 6058SOL    HW120427   3.952   8.230   0.943 -0.6173  1.9776 -0.5344
 6058SOL    HW220428   3.825   8.276   1.011 -1.4698 -0.9584  0.0038
 6059SOL     OW20429   4.219  10.597   8.711 -0.5976  0.6535 -0.0730
 6059SOL    HW120430   4.248  10.511   8.678  0.2932  0.1593  1.8545
 6059SOL    HW220431   4.253  10.659   8.647  0.7977 -0.2751 -0.2843
 6060SOL     OW20432   8.954   4.443   1.232 -0.1153 -0.3733  0.7155
 6060SOL    HW120433   8.934   4.525   1.186  0.0043 -0.0461  1.2402
 6060SOL    HW220434   8.959   4.468   1.324  2.1692 -0.5411  0.6789
 6061SOL     OW20435   0.823   0.423   2.976  0.2349  0.3869 -0.3265
 6061SOL    HW120436   0.733   0.452   2.993 -0.3551 -1.6874  0.3259
 6061SOL    HW220437   0.873   0.453   3.052 -0.5603 -1.0672  0.8104
 6062SOL     OW20438   9.242   8.546   2.517  0.4913 -0.1796 -0.0822
 6062SOL    HW120439   9.237   8.451   2.527  3.3358 -0.2548  2.4085
 6062SOL    HW220440   9.309   8.560   2.450  0.5790  0.0339  0.0464
 6063SOL     OW20441   7.817   4.706   9.230 -0.5029 -0.1958  0.2521
 6063SOL    HW120442   7.912   4.691   9.237 -0.2921 -1.4013 -3.2907
 6063SOL    HW220443   7.781   4.622   9.203 -2.4685  0.5138  0.4899
 6064SOL     OW20444   4.411   9.391   7.276 -0.2900 -0.4112 -0.3583
 6064SOL    HW120445   4.481   9.329   7.255  1.3158  0.7220  1.2702
 6064SOL    HW220446   4.457   9.473   7.294 -1.8049 -0.0798  2.6095
 6065SOL     OW20447   5.589   4.497   4.596  0.2006  0.1360  0.3005
 6065SOL    HW120448   5.656   4.469   4.659 -0.1499  0.9291  1.0472
 6065SOL    HW220449   5.629   4.572   4.551 -0.2010  0.6416  0.7824
 6066SOL     OW20450   4.508   1.694   6.891 -0.1110  0.3251  0.0488
 6066SOL    HW120451   4.511   1.639   6.969  0.8856  2.3072  1.4960
 6066SOL    HW220452   4.417   1.721   6.884 -0.2268  0.0451  0.4627
 6067SOL     OW20453   4.182   5.636   8.437 -0.3123  0.2000 -0.2799
 6067SOL    HW120454   4.219   5.684   8.512  2.4160 -1.9580 -0.0833
 6067SOL    HW220455   4.203   5.690   8.361  1.6764 -0.0347  0.0508
 6068SOL     OW20456  10.386   4.652   5.406  0.4378  0.9451  0.5475
 6068SOL    HW120457  10.356   4.733   5.447  0.0017  1.2451 -0.3480
 6068SOL    HW220458  10.400   4.675   5.314  2.6859  0.6260  0.7510
 6069SOL     OW20459   3.660   2.012   8.411 -0.1746  0.7567  0.4015
 6069SOL    HW120460   3.729   2.038   8.350  2.1400 -1.7810  1.6930
 6069SOL    HW220461   3.665   2.077   8.481 -2.3257  3.2314 -1.5208
 6070SOL     OW20462   4.350   3.284   1.551  0.0310 -0.0717  0.4850
 6070SOL    HW120463   4.288   3.287   1.478 -0.2696  2.9159  0.7519
 6070SOL    HW220464   4.298   3.257   1.626 -0.2159 -0.6948  0.0936
 6071SOL     OW20465   7.890   7.639   9.160 -0.9949  0.1193  0.4404
 6071SOL    HW120466   7.955   7.703   9.189 -1.3203  1.1473 -0.9833
 6071SOL    HW220467   7.926   7.554   9.187 -0.5275  0.8723  2.2949
 6072SOL     OW20468   0.075   1.666   2.254 -0.1024  0.3951  0.3296
 6072SOL    HW120469   0.022   1.600   2.209 -0.2366  0.9722 -0.3718
 6072SOL    HW220470   0.135   1.615   2.308  0.4993 -0.3389 -0.9912
 6073SOL     OW20471   9.905   5.934   4.746  0.0780  0.5631 -0.1013
 6073SOL    HW120472   9.944   5.983   4.674 -0.1520  0.4618 -0.2998
 6073SOL    HW220473   9.815   5.966   4.750  0.1478  0.7109  0.2724
 6074SOL     OW20474   7.876   2.841   2.307 -0.0142  0.7046 -0.1723
 6074SOL    HW120475   7.820   2.876   2.238 -0.0295  2.6641  0.7709
 6074SOL    HW220476   7.911   2.759   2.270 -2.6148 -0.0395 -1.1821
 6075SOL     OW20477  10.487   0.057   2.276 -0.0503 -0.6849 -0.6145
 6075SOL    HW120478  10.441   0.011   2.206 -0.8246 -0.2457 -0.4031
 6075SOL    HW220479  10.529   0.131   2.233 -1.7574  0.4548 -0.4153
 6076SOL     OW20480   1.898   3.922   2.641 -0.6952  0.8593 -0.1224
 6076SOL    HW120481   1.971   3.892   2.695  0.7069 -0.6764 -2.6676
 6076SOL    HW220482   1.846   3.844   2.626 -1.5964  1.4701 -0.2398
 6077SOL     OW20483   7.211   2.567   3.507  0.1397 -0.1029 -0.0842
 6077SOL    HW120484   7.246   2.508   3.573  0.2549  0.1426  0.0780
 6077SOL    HW220485   7.276   2.564   3.436  0.5301  0.3996  0.2443
 6078SOL     OW20486   6.025   6.207   2.664  0.0540 -0.6176 -0.0464
 6078SOL    HW120487   6.110   6.215   2.708 -0.4313 -1.7415  1.1598
 6078SOL    HW220488   6.044   6.225   2.572  1.6108 -0.8474  0.2008
 6079SOL     OW20489   4.958   1.621   8.069  0.0863  0.4510  0.3266
 6079SOL    HW120490   4.943   1.534   8.105 -0.1226  0.6665  0.7604
 6079SOL    HW220491   5.044   1.615   8.026  0.2481  0.1398  0.6878
 6080SOL     OW20492   2.553   8.149   5.470 -0.0302  0.2394 -0.2121
 6080SOL    HW120493   2.469   8.106   5.452 -0.5631  0.4177  1.7009
 6080SOL    HW220494   2.580   8.185   5.385 -2.2506  0.8139 -0.7359
 6081SOL     OW20495   7.077   8.869  10.034  0.3595  0.7802 -0.2084
 6081SOL    HW120496   7.150   8.875   9.972  2.3338 -2.5508  1.5031
 6081SOL    HW220497   7.108   8.919  10.110  0.2107  0.6250 -0.0454
 6082SOL     OW20498   2.157   1.796   6.227 -0.0314 -0.0763  0.2880
 6082SOL    HW120499   2.207   1.721   6.259  0.0193  0.0378  0.4749
 6082SOL    HW220500   2.065   1.771   6.240 -0.0117 -0.0508  0.4704
 6083SOL     OW20501   6.972  10.289   7.289 -0.1966  0.0818  0.6766
 6083SOL    HW120502   7.051  10.343   7.296  0.9967 -1.7739  3.4333
 6083SOL    HW220503   6.910  10.330   7.349  0.1095 -0.6195  1.4886
 6084SOL     OW20504   2.219   6.827   4.513  0.1270 -0.3043 -0.2821
 6084SOL    HW120505   2.147   6.763   4.505 -1.2636  1.2435 -0.7908
 6084SOL    HW220506   2.297   6.780   4.484 -0.8347 -1.8012 -0.5282
 6085SOL     OW20507   3.233   3.434  10.409 -1.0418  0.2233  0.3888
 6085SOL    HW120508   3.322   3.399  10.407 -0.0874  2.3874  1.4877
 6085SOL    HW220509   3.189   3.384  10.479 -0.8250 -1.0633 -0.3611
 6086SOL     OW20510   7.873   3.800   9.200  0.3008  0.2544 -0.4295
 6086SOL    HW120511   7.820   3.732   9.243  0.6684 -0.2738 -0.8105
 6086SOL    HW220512   7.918   3.845   9.272 -0.8906  0.9172 -0.0689
 6087SOL     OW20513   6.688  10.331   8.860  0.1129 -0.6270  0.1984
 6087SOL    HW120514   6.711  10.244   8.891 -2.7039 -1.8625 -0.9016
 6087SOL    HW220515   6.738  10.342   8.779 -2.6456 -3.1458 -2.0359
 6088SOL     OW20516   0.015   5.632   7.524  0.0559 -0.3152 -0.0414
 6088SOL    HW120517  -0.078   5.649   7.541  0.1342  0.1103 -0.0391
 6088SOL    HW220518   0.050   5.715   7.493  0.9688  0.2203  2.2093
 6089SOL     OW20519   5.970   8.277   6.707 -0.3716 -0.3099 -0.1812
 6089SOL    HW120520   5.889   8.321   6.681  0.0426  0.3011 -0.4662
 6089SOL    HW220521   5.941   8.197   6.750 -1.1244 -0.1654 -0.4019
 6090SOL     OW20522   1.810   7.992   7.454 -0.0558 -0.4647 -0.0458
 6090SOL    HW120523   1.813   8.087   7.467  0.9251 -0.5556  0.5112
 6090SOL    HW220524   1.755   7.980   7.377  0.5151  0.6138 -0.6572
 6091SOL     OW20525   0.461  10.307   3.127  0.5686  0.1022 -0.6679
 6091SOL    HW120526   0.421  10.231   3.084  1.0564 -0.6406  0.1580
 6091SOL    HW220527   0.417  10.383   3.088  2.0185 -0.4220 -3.6694
 6092SOL     OW20528   5.795   9.065   0.876 -0.1946 -0.3446  0.4594
 6092SOL    HW120529   5.811   9.015   0.956  2.1188  1.1652  1.0386
 6092SOL    HW220530   5.736   9.136   0.903 -1.0313 -0.9880  0.3417
 6093SOL     OW20531   1.289   0.275   8.185 -0.0718  0.0720  0.0321
 6093SOL    HW120532   1.195   0.260   8.178  0.0410 -0.1565 -1.3111
 6093SOL    HW220533   1.298   0.348   8.246 -1.1169  0.2162  0.0270
 6094SOL     OW20534  10.423   8.226   3.529 -0.5634 -0.2259  0.1865
 6094SOL    HW120535  10.356   8.197   3.591  0.3245  0.6566  1.6104
 6094SOL    HW220536  10.503   8.231   3.581 -0.0523  1.8087 -0.7132
 6095SOL     OW20537   8.419   8.190   9.737  0.6345 -0.0020 -0.7995
 6095SOL    HW120538   8.407   8.273   9.689  0.7047  0.3159 -0.2680
 6095SOL    HW220539   8.476   8.138   9.680 -2.0800 -1.0395 -2.7992
 6096SOL     OW20540   9.810   7.741   9.834 -0.0391  0.2032 -0.2085
 6096SOL    HW120541   9.747   7.784   9.775 -1.3597 -1.1282  0.1767
 6096SOL    HW220542   9.762   7.731   9.916  1.6528  1.7021  1.0255
 6097SOL     OW20543   1.356   9.690   6.544  0.2508  0.3009 -0.0569
 6097SOL    HW120544   1.294   9.747   6.589  1.4849  1.5297  0.1372
 6097SOL    HW220545   1.408   9.749   6.489  0.4305 -0.8611 -1.1966
 6098SOL     OW20546   8.274   3.041   4.731 -0.4696  0.7827  0.0481
 6098SOL    HW120547   8.359   3.075   4.758  0.8618 -2.1687 -0.1353
 6098SOL    HW220548   8.226   3.029   4.813 -0.9581  2.8592  0.1227
 6099SOL     OW20549   6.575   9.943   2.309  0.6250 -0.3063  0.2091
 6099SOL    HW120550   6.562  10.016   2.369  1.1289 -0.9391  1.0989
 6099SOL    HW220551   6.620   9.876   2.360  1.4359 -0.7062 -0.9814
 6100SOL     OW20552   4.178   8.124   3.445 -0.5003 -0.5214  0.5827
 6100SOL    HW120553   4.251   8.097   3.501 -1.1724 -1.7532  0.8874
 6100SOL    HW220554   4.134   8.193   3.496  0.5896  0.4533  0.2675
 6101SOL     OW20555   9.809   1.955   2.973  0.2135  0.0513 -0.0574
 6101SOL    HW120556   9.847   1.950   2.885 -0.4920  2.4663 -0.5958
 6101SOL    HW220557   9.790   1.865   2.997  3.8986 -1.0960 -0.7746
 6102SOL     OW20558   2.045   3.896  10.230  0.2994  0.2033 -0.5841
 6102SOL    HW120559   2.023   3.978  10.273  0.2467 -0.8133  1.4396
 6102SOL    HW220560   1.969   3.876  10.176 -1.6702 -0.6107  2.2459
 6103SOL     OW20561   9.530   5.239   4.077 -0.0172 -0.4875  0.3801
 6103SOL    HW120562   9.499   5.213   3.991  0.4926 -1.1612  0.3918
 6103SOL    HW220563   9.466   5.303   4.108  1.1000  1.7493 -1.5631
 6104SOL     OW20564  10.444   2.278   2.446 -0.4538  0.1465 -0.2318
 6104SOL    HW120565  10.410   2.269   2.535 -0.6826  0.5779 -0.2721
 6104SOL    HW220566  10.534   2.246   2.451 -0.2783  0.6995  0.2908
 6105SOL     OW20567   8.877   0.390   6.945  0.1013 -0.0060 -0.0897
 6105SOL    HW120568   8.957   0.343   6.970 -0.2237 -1.1358 -1.1018
 6105SOL    HW220569   8.905   0.451   6.876  0.0403 -0.6281 -0.6699
 6106SOL     OW20570  10.006   6.331   3.358 -0.8253  0.2922  0.3103
 6106SOL    HW120571  10.015   6.303   3.267  3.1233 -0.2270  0.6845
 6106SOL    HW220572  10.010   6.250   3.408 -1.2713  0.7129  1.0459
 6107SOL     OW20573   5.509   5.041   8.280 -0.5757 -0.1827 -0.3924
 6107SOL    HW120574   5.463   5.040   8.365  1.1747  0.0749  0.6030
 6107SOL    HW220575   5.445   5.007   8.218 -1.3868 -1.9538  1.3128
 6108SOL     OW20576   4.315   8.229   4.430 -0.2198  0.2843 -0.3811
 6108SOL    HW120577   4.341   8.175   4.504  0.6299  0.2438 -0.6983
 6108SOL    HW220578   4.227   8.199   4.408 -0.9894  1.0963  1.3541
 6109SOL     OW20579   9.587  10.392   4.017 -0.3379 -0.2660  0.2408
 6109SOL    HW120580   9.532  10.379   4.094 -0.6755 -0.2977 -0.0052
 6109SOL    HW220581   9.526  10.400   3.944  0.0382 -2.6590 -0.4052
 6110SOL     OW20582   6.320   1.801   2.717  0.2061  1.2280  0.4978
 6110SOL    HW120583   6.338   1.773   2.627  2.7720  1.5516  0.8318
 6110SOL    HW220584   6.226   1.789   2.728 -0.0240  0.3387 -1.9336
 6111SOL     OW20585   5.080   0.391  10.370 -0.4819  0.0214 -0.1500
 6111SOL    HW120586   5.092   0.484  10.350 -2.0734  0.1185 -0.8017
 6111SOL    HW220587   5.091   0.346  10.286 -0.6719 -0.2742 -0.0197
 6112SOL     OW20588   0.051   5.518   0.842  0.4656 -0.6232  0.1261
 6112SOL    HW120589  -0.032   5.540   0.799  0.6215  0.1329  0.2036
 6112SOL    HW220590   0.025   5.479   0.925  0.1787  1.3529  1.0054
 6113SOL     OW20591   0.247   7.753  10.547  0.8097 -0.1437  0.4086
 6113SOL    HW120592   0.177   7.786  10.491  2.4143 -0.0347 -1.6534
 6113SOL    HW220593   0.246   7.811  10.623 -1.0478  0.0871  0.2568
 6114SOL     OW20594   2.549   8.418   2.194 -0.1442 -0.0987 -0.1918
 6114SOL    HW120595   2.466   8.429   2.240 -0.3607  1.5525 -0.9021
 6114SOL    HW220596   2.578   8.508   2.175  1.8683 -0.6133  0.1470
 6115SOL     OW20597   1.316   3.902   2.356  0.0377 -0.1969  0.1849
 6115SOL    HW120598   1.308   3.880   2.449  1.9738 -1.5199  0.0992
 6115SOL    HW220599   1.363   3.985   2.354 -0.8131  0.2936  0.3946
 6116SOL     OW20600  10.199   7.127   0.807  0.0423  0.3485 -0.5573
 6116SOL    HW120601  10.147   7.060   0.763  0.6874 -1.2588  1.0131
 6116SOL    HW220602  10.272   7.143   0.748  0.7415 -1.5591 -0.2828
 6117SOL     OW20603   3.542   0.521   8.036  0.6996  0.0017 -0.4410
 6117SOL    HW120604   3.521   0.438   7.991 -1.3550  1.1084 -1.6956
 6117SOL    HW220605   3.494   0.516   8.118  1.2412 -0.3652 -0.1384
 6118SOL     OW20606   7.183   1.728   6.448 -0.2815 -0.1399  0.4445
 6118SOL    HW120607   7.238   1.716   6.525 -0.7316  0.6351  0.9024
 6118SOL    HW220608   7.232   1.789   6.394 -0.3680 -0.0032  0.5215
 6119SOL     OW20609   0.790  10.218   5.784 -0.4556 -0.3242 -0.2471
 6119SOL    HW120610   0.719  10.275   5.755 -1.1324 -0.5448  0.9305
 6119SOL    HW220611   0.777  10.209   5.878  3.0943  2.4036  0.7024
 6120SOL     OW20612   9.843   8.963   2.574  0.0331  0.8431 -1.3634
 6120SOL    HW120613   9.816   9.037   2.627 -1.9708  0.3249 -1.6034
 6120SOL    HW220614   9.898   9.000   2.505  0.5262  1.8458 -0.4424
 6121SOL     OW20615   8.732   3.112   7.587 -0.4163 -0.3675 -0.1519
 6121SOL    HW120616   8.694   3.170   7.521 -0.6951 -0.8277 -0.3984
 6121SOL    HW220617   8.778   3.045   7.537  1.3950  0.5978  0.1439
 6122SOL     OW20618   0.108   9.471   8.903 -0.4712  0.3981 -0.2249
 6122SOL    HW120619   0.193   9.514   8.896 -0.0959 -0.1449  0.7441
 6122SOL    HW220620   0.064   9.489   8.820  1.1317 -0.4532 -1.3138
 6123SOL     OW20621   5.307   5.280   2.627  0.5229  0.3262  0.1286
 6123SOL    HW120622   5.363   5.320   2.694 -0.3875 -0.1851  1.2340
 6123SOL    HW220623   5.332   5.323   2.546 -0.2491  2.9985  1.2101
 6124SOL     OW20624   6.944  10.199   1.380 -0.1636 -0.2562  0.4007
 6124SOL    HW120625   6.876  10.136   1.403 -0.9647  0.1675 -0.6980
 6124SOL    HW220626   6.898  10.283   1.374  0.5746  0.1474  0.2519
 6125SOL     OW20627   3.481   6.540   7.524  0.1761 -0.1432  0.2755
 6125SOL    HW120628   3.444   6.548   7.612 -0.1448  0.0221  0.1293
 6125SOL    HW220629   3.487   6.630   7.492  0.2812 -0.2034  0.1238
 6126SOL     OW20630   6.794   8.076   7.249 -0.2153 -0.0692 -0.0072
 6126SOL    HW120631   6.885   8.104   7.257 -0.1261 -0.7305  1.6525
 6126SOL    HW220632   6.769   8.050   7.338 -2.6202  1.8711 -0.0112
 6127SOL     OW20633   9.912   8.860   8.373 -0.3263 -0.6935 -0.1013
 6127SOL    HW120634   9.840   8.899   8.324 -0.3894 -0.7000 -0.0131
 6127SOL    HW220635   9.986   8.860   8.311 -0.8702 -2.3369 -0.8050
 6128SOL     OW20636   8.329   2.215   9.542 -0.3666 -0.7038  0.1990
 6128SOL    HW120637   8.352   2.128   9.510 -0.3832 -0.7494  0.3099
 6128SOL    HW220638   8.311   2.202   9.635  2.9718 -0.0173  1.0907
 6129SOL     OW20639   0.824   7.581   1.052  0.1096  0.3457  0.2427
 6129SOL    HW120640   0.756   7.561   1.117  0.8078  1.1401  1.2579
 6129SOL    HW220641   0.906   7.577   1.101  1.0699 -2.4930 -1.3587
 6130SOL     OW20642   0.858   5.833   3.025 -0.1211 -0.9418  0.4706
 6130SOL    HW120643   0.772   5.864   3.055 -0.2503 -0.5569 -0.2894
 6130SOL    HW220644   0.838   5.779   2.948  0.3719 -0.3013 -0.1098
 6131SOL     OW20645   1.468   9.413   1.694 -0.3108  0.0064  0.3537
 6131SOL    HW120646   1.404   9.406   1.765 -1.1442 -2.2347 -0.5512
 6131SOL    HW220647   1.470   9.326   1.654  1.6400  0.6546 -1.0958
 6132SOL     OW20648   0.707   0.947   5.365 -0.0355 -0.0284  0.1382
 6132SOL    HW120649   0.623   0.985   5.341 -0.5903 -0.3695  1.4128
 6132SOL    HW220650   0.684   0.867   5.413  1.0054 -0.1319  0.4963
 6133SOL     OW20651   5.996   4.127   6.576  0.7800 -0.7752  0.6642
 6133SOL    HW120652   6.032   4.041   6.597  0.5526 -0.8010  0.9556
 6133SOL    HW220653   5.998   4.131   6.481  2.4917 -0.3767  0.6866
 6134SOL     OW20654   0.515   7.802   6.671 -0.3079  0.3113  0.0431
 6134SOL    HW120655   0.579   7.738   6.701  0.0209 -0.0258 -1.3179
 6134SOL    HW220656   0.468   7.828   6.750  0.0825 -1.0195  0.7345
 6135SOL     OW20657   4.882   1.675   7.059  0.3774 -0.2272  0.1179
 6135SOL    HW120658   4.863   1.735   7.131  1.8126  0.0190  0.3086
 6135SOL    HW220659   4.905   1.732   6.985 -1.6977 -0.4521 -0.7674
 6136SOL     OW20660   7.802  10.542   9.067  0.2899  0.9595 -0.7439
 6136SOL    HW120661   7.817  10.510   8.978  1.1283  2.3981 -1.1437
 6136SOL    HW220662   7.731  10.605   9.059 -0.0801  0.6108 -0.2786
 6137SOL     OW20663   6.110   2.823   2.310  0.8047 -0.3288 -0.2100
 6137SOL    HW120664   6.153   2.821   2.225  0.7051  1.0112 -0.3122
 6137SOL    HW220665   6.162   2.885   2.362 -0.2923  0.4096  0.0409
 6138SOL     OW20666   1.657   7.502   5.887  0.3099  0.0275 -1.0544
 6138SOL    HW120667   1.711   7.505   5.966  1.0857  0.7111 -1.5935
 6138SOL    HW220668   1.717   7.475   5.818  0.7317  3.4388 -2.2030
 6139SOL     OW20669   1.509   7.846   6.060 -0.5800 -0.0140  0.2760
 6139SOL    HW120670   1.469   7.921   6.103 -1.1349  0.8405 -1.6061
 6139SOL    HW220671   1.599   7.845   6.092 -0.9100  0.6782  1.2755
 6140SOL     OW20672   1.508   8.963   5.601  0.4028 -0.0167  0.3403
 6140SOL    HW120673   1.445   8.921   5.660  0.8756 -0.7074  0.3606
 6140SOL    HW220674   1.537   9.040   5.649  0.6653 -0.4899  0.9527
 6141SOL     OW20675   1.608   5.023   3.299  0.6713 -0.5749  0.1033
 6141SOL    HW120676   1.549   5.098   3.288 -1.3418 -1.5862  2.8605
 6141SOL    HW220677   1.695   5.058   3.280 -0.1158  2.6451  1.6856
 6142SOL     OW20678   1.280   5.591   2.814  0.2370  0.3120 -0.1348
 6142SOL    HW120679   1.302   5.503   2.844 -1.4454 -0.4578 -0.9718
 6142SOL    HW220680   1.255   5.639   2.894  0.5065 -0.1808  0.2466
 6143SOL     OW20681   6.040   3.608   5.469  0.1783  0.3301 -0.1371
 6143SOL    HW120682   6.022   3.621   5.562 -0.9364 -1.3664 -0.0788
 6143SOL    HW220683   6.047   3.696   5.433 -2.8308  1.1134  0.9159
 6144SOL     OW20684   5.415   5.341   5.627  0.0004  0.5179 -0.4776
 6144SOL    HW120685   5.379   5.402   5.691  1.2594  0.3464  0.4283
 6144SOL    HW220686   5.357   5.264   5.632 -0.2323  0.7225  0.0482
 6145SOL     OW20687   5.376   7.656   7.364 -0.1721 -0.5515  0.4778
 6145SOL    HW120688   5.470   7.670   7.361 -0.0900 -0.5401 -4.6934
 6145SOL    HW220689   5.366   7.563   7.384  1.0612 -0.9507 -0.6796
 6146SOL     OW20690   1.026   8.781   5.624  0.3928  0.1359 -0.3103
 6146SOL    HW120691   0.953   8.831   5.658  2.1264  2.7843 -0.1711
 6146SOL    HW220692   1.001   8.761   5.534 -0.9213  0.0478  0.0533
 6147SOL     OW20693   4.940  10.580   8.998 -0.3542 -0.5767 -0.0210
 6147SOL    HW120694   5.017  10.530   8.970 -0.0031 -1.5406  2.3577
 6147SOL    HW220695   4.870  10.515   9.001 -1.2516  0.2425 -1.9088
 6148SOL     OW20696   7.392   4.335   7.189 -0.2531 -0.1308 -0.1608
 6148SOL    HW120697   7.434   4.412   7.226 -1.8722  0.4330  0.5767
 6148SOL    HW220698   7.386   4.274   7.262  0.3245 -0.6804 -0.5559
 6149SOL     OW20699   9.226   8.634  10.154 -0.2514  0.3137  0.1211
 6149SOL    HW120700   9.250   8.680  10.074 -0.1273 -0.4684 -0.3064
 6149SOL    HW220701   9.170   8.695  10.202 -0.8975  0.5265 -0.8890
 6150SOL     OW20702   0.331   1.522   6.927 -0.7270  0.0620  0.1743
 6150SOL    HW120703   0.339   1.459   6.856 -2.5070 -1.1029  0.9388
 6150SOL    HW220704   0.281   1.595   6.890 -1.9539 -0.6961  0.2901
 6151SOL     OW20705   7.754   0.004   5.635 -0.2808 -0.1838 -0.1334
 6151SOL    HW120706   7.843  -0.030   5.641 -0.2943 -0.1773  0.1023
 6151SOL    HW220707   7.762   0.096   5.659 -0.2759 -0.0637 -0.5804
 6152SOL     OW20708   3.978   0.579   9.036  0.3552  0.1144  0.2543
 6152SOL    HW120709   4.025   0.594   8.954 -0.2625  2.3082  0.2506
 6152SOL    HW220710   3.886   0.578   9.012  0.1812  0.4965  0.8878
 6153SOL     OW20711   2.740   9.152   5.893  0.4365 -0.8438 -0.5877
 6153SOL    HW120712   2.743   9.073   5.838 -1.9229 -1.2249 -0.2871
 6153SOL    HW220713   2.750   9.224   5.831  2.0271 -1.3252 -0.9449
 6154SOL     OW20714   2.261   5.905   9.785 -0.1051  0.4580 -0.2995
 6154SOL    HW120715   2.222   5.892   9.699  0.2009 -3.0527 -0.0276
 6154SOL    HW220716   2.192   5.947   9.837 -1.6911 -0.8920 -1.2234
 6155SOL     OW20717   4.812   7.523   7.492 -0.1393 -0.2758  0.3139
 6155SOL    HW120718   4.749   7.483   7.433 -0.2595  1.5102 -0.8618
 6155SOL    HW220719   4.897   7.501   7.455 -0.0035 -2.5220  1.7919
 6156SOL     OW20720   9.961  10.530   5.584 -0.7271 -0.0682 -0.7776
 6156SOL    HW120721   9.965  10.463   5.516 -0.3072  0.4542 -1.2796
 6156SOL    HW220722   9.975  10.612   5.538 -0.7048  0.3243 -0.0941
 6157SOL     OW20723   9.314   8.728   7.138  0.1599 -0.7164 -0.3823
 6157SOL    HW120724   9.382   8.747   7.202 -0.5534 -0.9499  0.4646
 6157SOL    HW220725   9.317   8.801   7.076 -2.6877  2.5583  2.8878
 6158SOL     OW20726   2.841   2.159   5.321 -0.1784  0.7179  0.7903
 6158SOL    HW120727   2.765   2.140   5.266 -0.3860  0.7025  1.0776
 6158SOL    HW220728   2.805   2.163   5.410  0.0166  1.4955  0.8440
 6159SOL     OW20729   1.104   5.485   1.428  0.0721 -0.2357  0.4177
 6159SOL    HW120730   1.117   5.411   1.368  1.8713  0.3559 -0.0013
 6159SOL    HW220731   1.011   5.504   1.423 -0.2137 -1.6779 -0.4184
 6160SOL     OW20732   8.770   0.286   5.772  0.0578 -0.7252  0.8620
 6160SOL    HW120733   8.799   0.281   5.681 -2.9206  0.2609 -0.2704
 6160SOL    HW220734   8.744   0.196   5.793  0.4813 -0.9013  0.6583
 6161SOL     OW20735   2.954   6.721   5.171 -0.1568 -0.3834  0.2643
 6161SOL    HW120736   2.902   6.790   5.212 -1.1964 -0.7685 -0.3718
 6161SOL    HW220737   3.028   6.767   5.133 -1.4972  0.6094 -1.2723
 6162SOL     OW20738   4.878   3.010   2.036  0.7967  0.2593 -0.4267
 6162SOL    HW120739   4.946   2.959   2.080  0.2944 -1.1709 -1.2555
 6162SOL    HW220740   4.873   2.973   1.948 -2.3418 -0.9562  0.1696
 6163SOL     OW20741   5.428   1.054  10.586 -0.4443 -0.2043  0.1408
 6163SOL    HW120742   5.431   1.032  10.492  0.9292  2.1808 -0.4657
 6163SOL    HW220743   5.463   0.977  10.630  0.3224 -0.8035 -1.4472
 6164SOL     OW20744   8.563   9.878   8.379  1.1083  0.3294  0.2939
 6164SOL    HW120745   8.557   9.887   8.283  0.5857  1.3522  0.4100
 6164SOL    HW220746   8.618   9.800   8.392  0.1652 -0.5787 -0.8408
 6165SOL     OW20747   0.861   9.958   6.992  0.8171 -0.2703  0.3925
 6165SOL    HW120748   0.828   9.992   7.075  0.2849 -0.2306  0.1706
 6165SOL    HW220749   0.936  10.013   6.972  0.0501  0.7016  0.1120
 6166SOL     OW20750   0.521  10.444   8.589  0.0808  0.0898 -0.2243
 6166SOL    HW120751   0.526  10.540   8.583 -0.5696  0.2066  0.8870
 6166SOL    HW220752   0.440  10.427   8.638 -0.4100 -1.0734 -1.3953
 6167SOL     OW20753   1.060   1.619   7.239  0.2469 -0.5837 -0.0802
 6167SOL    HW120754   1.054   1.695   7.297  0.8318  0.7811 -1.7571
 6167SOL    HW220755   0.970   1.585   7.234 -0.4106  1.1979 -0.8696
 6168SOL     OW20756   3.897  10.523   3.156 -0.6412  0.0247 -0.1401
 6168SOL    HW120757   3.909  10.429   3.166 -0.8775 -0.0763 -0.8316
 6168SOL    HW220758   3.906  10.540   3.063  0.9046  0.8995  0.1236
 6169SOL     OW20759   3.367   1.536   0.470  0.9180 -0.1661  0.4616
 6169SOL    HW120760   3.459   1.511   0.479  1.0488  0.6945  1.8009
 6169SOL    HW220761   3.354   1.604   0.536 -0.4067  0.5147 -0.4527
 6170SOL     OW20762   2.921   7.866   1.328 -0.0803  0.0427 -0.2387
 6170SOL    HW120763   3.014   7.889   1.329 -0.1541  0.3630  0.5250
 6170SOL    HW220764   2.920   7.771   1.340  0.1267  0.2470  1.7495
 6171SOL     OW20765   3.371  10.334   2.729 -0.0053 -1.0473 -0.0306
 6171SOL    HW120766   3.432  10.330   2.655 -0.7353 -0.8052 -0.6627
 6171SOL    HW220767   3.338  10.245   2.737 -1.4301 -0.6739 -1.3168
 6172SOL     OW20768   9.396   9.137   9.645  0.1711 -0.0546  0.2351
 6172SOL    HW120769   9.384   9.164   9.554  1.1551 -3.5233 -1.0915
 6172SOL    HW220770   9.491   9.133   9.657  0.0643 -0.8949  0.9223
 6173SOL     OW20771   7.733   5.689  10.328  0.5654  0.6483  1.1132
 6173SOL    HW120772   7.674   5.651  10.393  0.0867 -1.0402 -0.2195
 6173SOL    HW220773   7.806   5.724  10.379 -0.7212  1.1809  2.6737
 6174SOL     OW20774   0.845   0.020   1.499  0.6788 -0.6802  0.1523
 6174SOL    HW120775   0.756  -0.004   1.474  0.0283  2.3505 -0.9227
 6174SOL    HW220776   0.883   0.055   1.418  2.1363 -0.0496  1.0724
 6175SOL     OW20777   8.261   3.948   8.206  0.0686  0.2029 -0.6552
 6175SOL    HW120778   8.216   4.019   8.160  1.1680  0.2598 -1.7128
 6175SOL    HW220779   8.351   3.980   8.216  0.5675 -0.9960 -1.0947
 6176SOL     OW20780   2.240   0.500   5.728  0.0590 -0.3400  0.2467
 6176SOL    HW120781   2.247   0.465   5.817  0.4379 -1.5702 -0.2509
 6176SOL    HW220782   2.148   0.524   5.719 -0.8186 -3.4428 -0.1571
 6177SOL     OW20783   7.493   2.390   2.647 -0.2249  0.1061  0.0468
 6177SOL    HW120784   7.504   2.338   2.567 -1.4304 -1.0939  0.6233
 6177SOL    HW220785   7.399   2.387   2.665 -0.0045  0.5877  1.3535
 6178SOL     OW20786   1.704   4.211   1.705 -0.0559 -0.3720  0.2946
 6178SOL    HW120787   1.787   4.256   1.699 -0.1128 -0.1006  1.2606
 6178SOL    HW220788   1.661   4.250   1.781 -0.9014 -0.7661  0.0365
 6179SOL     OW20789   7.942   8.687   8.622  0.2078 -0.0386 -0.1988
 6179SOL    HW120790   7.965   8.771   8.584  1.3066  0.1828  0.8863
 6179SOL    HW220791   7.851   8.697   8.649 -0.4811 -0.0754 -2.3192
 6180SOL     OW20792   3.434   6.913   0.343  0.0654 -0.1523 -0.1317
 6180SOL    HW120793   3.475   6.827   0.340  0.0900 -0.2342  1.4512
 6180SOL    HW220794   3.365   6.904   0.409  0.9204  1.3618  1.0406
 6181SOL     OW20795   3.752   9.923   3.338  0.0478  0.3200  0.1526
 6181SOL    HW120796   3.820   9.865   3.304 -1.4738 -2.1255  1.0353
 6181SOL    HW220797   3.791   9.962   3.416  1.2317  0.8058 -0.6600
 6182SOL     OW20798   9.064   1.500   9.926 -0.0658 -0.2388 -0.4602
 6182SOL    HW120799   8.996   1.551   9.971  1.5851  1.4259  0.2737
 6182SOL    HW220800   9.105   1.449   9.995 -0.2595 -0.9108 -0.8301
 6183SOL     OW20801   2.128   4.153   2.869 -0.1332 -0.2979 -0.2027
 6183SOL    HW120802   2.052   4.114   2.912 -0.6103  0.6976 -0.1380
 6183SOL    HW220803   2.093   4.226   2.818  0.8634  0.6351  0.3958
 6184SOL     OW20804   6.811   9.287   0.087  0.3663  0.1207 -0.3565
 6184SOL    HW120805   6.810   9.328   0.000  1.5666 -2.3526 -1.6401
 6184SOL    HW220806   6.892   9.318   0.127  1.7614 -1.5946 -1.7029
 6185SOL     OW20807   1.171   9.904   2.365  0.0415 -0.6010  0.2435
 6185SOL    HW120808   1.182   9.911   2.460  0.2376  0.3492  0.1607
 6185SOL    HW220809   1.174   9.810   2.347  3.3485 -0.7169  0.8009
 6186SOL     OW20810   0.572   5.759   8.452  0.4443 -0.5937  0.4092
 6186SOL    HW120811   0.505   5.815   8.411  0.9178 -0.9140 -0.8528
 6186SOL    HW220812   0.536   5.738   8.538 -0.2538  0.7301  0.4739
 6187SOL     OW20813   5.771   5.291   4.339 -0.4905  0.2521  0.4831
 6187SOL    HW120814   5.688   5.282   4.292 -2.2356 -0.3951  3.4441
 6187SOL    HW220815   5.800   5.380   4.320  0.1075 -0.5733 -3.4195
 6188SOL     OW20816   5.588   4.179   4.021  0.2354 -0.3281 -0.4667
 6188SOL    HW120817   5.544   4.265   4.017  1.4562  0.3485  0.2254
 6188SOL    HW220818   5.538   4.130   4.087  0.4695  0.4152  0.2820
 6189SOL     OW20819   0.430   4.813   9.262 -0.0460  0.5696 -0.1961
 6189SOL    HW120820   0.486   4.880   9.222  1.4227  0.3195  1.3023
 6189SOL    HW220821   0.487   4.736   9.268 -1.6361 -0.7919 -1.6886
 6190SOL     OW20822   3.431   6.275   1.502 -0.0481 -0.4004  0.3039
 6190SOL    HW120823   3.348   6.232   1.523 -0.9324  0.8684 -0.4453
 6190SOL    HW220824   3.475   6.215   1.443 -1.7119  0.0968 -1.5470
 6191SOL     OW20825   7.361   1.652   7.894 -0.3313 -0.2154  0.6175
 6191SOL    HW120826   7.317   1.644   7.809 -0.2403 -0.3484  0.5817
 6191SOL    HW220827   7.441   1.700   7.874 -1.6897  2.4678  1.1128
 6192SOL     OW20828   8.691   5.026   0.247  0.3638  0.2672 -0.2325
 6192SOL    HW120829   8.638   4.946   0.254  0.8416 -0.1449 -1.1558
 6192SOL    HW220830   8.730   5.037   0.334 -0.6732  0.1865  0.2570
 6193SOL     OW20831   8.752  10.236   4.838 -0.4298  0.5429  0.2788
 6193SOL    HW120832   8.737  10.255   4.745  1.4286  1.3541  0.1033
 6193SOL    HW220833   8.684  10.285   4.883 -0.2838  1.5668 -0.5750
 6194SOL     OW20834   6.146   3.839   0.103 -0.2033 -0.1288  0.0207
 6194SOL    HW120835   6.139   3.761   0.048 -1.2188 -0.4114  0.5184
 6194SOL    HW220836   6.080   3.899   0.067  1.2993  0.9637 -1.0401
 6195SOL     OW20837   6.647   5.682   7.909  0.5177  0.2937 -0.7450
 6195SOL    HW120838   6.637   5.593   7.944 -0.1061  0.8437  0.5191
 6195SOL    HW220839   6.705   5.726   7.971  0.0607  1.0430 -0.8341
 6196SOL     OW20840   7.111   3.287  10.335 -0.0090  0.0139 -0.0323
 6196SOL    HW120841   7.054   3.363  10.341 -0.9486 -0.7345  0.7417
 6196SOL    HW220842   7.051   3.212  10.326  0.8186 -0.8235  1.1608
 6197SOL     OW20843   9.492   1.310   7.566 -0.0948  0.5565  0.5474
 6197SOL    HW120844   9.429   1.351   7.624  0.3125  3.1121 -0.6979
 6197SOL    HW220845   9.473   1.345   7.479  1.8627  0.0118 -0.1769
 6198SOL     OW20846   0.649   3.275   2.599 -0.2042 -0.3237  0.0663
 6198SOL    HW120847   0.685   3.359   2.569 -0.8552 -0.3205 -0.7513
 6198SOL    HW220848   0.713   3.211   2.568  0.0564 -0.1716  0.2802
 6199SOL     OW20849   0.839   4.370   8.664  0.0948  0.9031 -0.2897
 6199SOL    HW120850   0.851   4.340   8.574 -0.5719  0.8786 -0.3767
 6199SOL    HW220851   0.910   4.432   8.678  0.2028  0.9119 -0.8381
 6200SOL     OW20852   6.022   1.836   5.301 -0.4436 -0.6123  0.0706
 6200SOL    HW120853   6.060   1.852   5.215 -0.2065 -0.1612  0.2546
 6200SOL    HW220854   5.929   1.824   5.285 -0.2159 -1.9068 -0.4106
 6201SOL     OW20855   0.672   3.104   5.563 -0.2296 -0.0533  0.1141
 6201SOL    HW120856   0.730   3.173   5.531  0.1072  0.1172  1.0741
 6201SOL    HW220857   0.699   3.090   5.654 -0.5224 -1.2106  0.0358
 6202SOL     OW20858   3.864   2.988   4.020  0.2586 -0.1743 -0.1021
 6202SOL    HW120859   3.866   3.043   4.099  3.0034  1.7765 -1.3587
 6202SOL    HW220860   3.804   3.033   3.961  1.9397  1.1851 -0.8551
 6203SOL     OW20861   2.775   7.524   9.249  0.1748 -0.2795  0.2460
 6203SOL    HW120862   2.776   7.619   9.260 -0.3898 -0.1842 -0.4441
 6203SOL    HW220863   2.770   7.490   9.338  1.7583  0.2976  0.5824
 6204SOL     OW20864   7.670   9.385   3.715  0.5485 -0.2205 -0.2892
 6204SOL    HW120865   7.745   9.396   3.774  0.3888  0.3500 -0.1851
 6204SOL    HW220866   7.609   9.454   3.741  0.1553 -0.4336 -0.6351
 6205SOL     OW20867   2.183   4.747   4.655  0.0277 -0.0524  0.1351
 6205SOL    HW120868   2.171   4.838   4.682  2.0545  0.4979 -0.6407
 6205SOL    HW220869   2.227   4.705   4.729  0.9593  0.1422 -0.3005
 6206SOL     OW20870   9.550   9.628   2.670 -0.9837 -0.1923 -0.1075
 6206SOL    HW120871   9.544   9.548   2.723  0.0669  0.0614  0.4077
 6206SOL    HW220872   9.639   9.628   2.636 -1.0372  0.6689 -0.2620
 6207SOL     OW20873   6.682   7.060   2.147  0.3800 -0.1708  0.7495
 6207SOL    HW120874   6.643   7.082   2.231  0.0464 -1.1857  0.8702
 6207SOL    HW220875   6.770   7.027   2.169  0.3879 -0.1995  0.6762
 6208SOL     OW20876   2.796  10.621   9.134  0.1892 -0.0967 -0.4226
 6208SOL    HW120877   2.740  10.660   9.200 -0.4045  0.6976 -1.3654
 6208SOL    HW220878   2.741  10.555   9.091  0.1630  0.2662 -0.9513
 6209SOL     OW20879   7.260   2.595   1.404 -0.7020  0.5359  0.7132
 6209SOL    HW120880   7.307   2.517   1.376 -1.6118 -0.1173  0.9598
 6209SOL    HW220881   7.328   2.662   1.414  0.3911 -0.7333  2.3957
 6210SOL     OW20882   9.273   5.525   8.420  0.1908  0.4943  0.1685
 6210SOL    HW120883   9.251   5.432   8.418 -1.8477  0.9444 -0.0552
 6210SOL    HW220884   9.269   5.553   8.328  0.4833  0.8667  0.2639
 6211SOL     OW20885   5.743  10.441   4.768 -0.6463 -0.1025  0.0366
 6211SOL    HW120886   5.778  10.449   4.680  0.3303 -1.2588  0.2934
 6211SOL    HW220887   5.814  10.401   4.819 -1.0446  0.8711  1.4377
 6212SOL     OW20888   1.490   3.990   0.529  0.0802 -0.4932  0.7849
 6212SOL    HW120889   1.435   4.065   0.550 -1.2269 -1.5592  1.3699
 6212SOL    HW220890   1.550   4.022   0.461 -1.1324  0.7888  0.2624
 6213SOL     OW20891   8.451   3.617   9.561  0.2191  0.6990  0.1376
 6213SOL    HW120892   8.382   3.675   9.528  0.4278  0.9332  0.1067
 6213SOL    HW220893   8.511   3.607   9.486  0.4247  0.8175  0.2840
 6214SOL     OW20894   2.808   4.044   3.130  0.3014 -0.1887  0.0473
 6214SOL    HW120895   2.798   3.949   3.132 -2.6635  0.0296 -0.1812
 6214SOL    HW220896   2.830   4.063   3.038 -0.7780 -0.5438 -0.2930
 6215SOL     OW20897   8.786   1.153   3.882 -0.1340  0.7180 -0.1310
 6215SOL    HW120898   8.711   1.098   3.860 -1.7202  2.0566  1.6917
 6215SOL    HW220899   8.798   1.208   3.805 -1.4162  0.8917 -0.2327
 6216SOL     OW20900  10.415   1.960   6.607 -0.2088 -0.0820  0.3687
 6216SOL    HW120901  10.334   1.924   6.571  0.1738  0.8489 -1.5206
 6216SOL    HW220902  10.485   1.911   6.563  0.2646  0.8569  0.0315
 6217SOL     OW20903   8.344   9.627   1.400  0.3761  0.7281  0.0992
 6217SOL    HW120904   8.399   9.687   1.349 -1.0382  1.8582 -0.1522
 6217SOL    HW220905   8.370   9.642   1.491  2.5112 -0.8804 -0.1618
 6218SOL     OW20906   7.903   7.336   6.049 -0.3540 -0.0299  0.6944
 6218SOL    HW120907   7.868   7.424   6.034  1.3926  0.4643 -0.8223
 6218SOL    HW220908   7.964   7.347   6.122  0.3602  0.1588  0.0701
 6219SOL     OW20909   3.188   3.600   6.517  0.2193  0.3604 -0.1689
 6219SOL    HW120910   3.178   3.686   6.479  2.4514  0.5801 -0.3981
 6219SOL    HW220911   3.104   3.557   6.504 -0.4767  2.0021 -1.3011
 6220SOL     OW20912   1.798   8.710   1.291 -0.5028  0.5867 -0.0659
 6220SOL    HW120913   1.833   8.631   1.250  0.4946  1.1300 -0.2947
 6220SOL    HW220914   1.735   8.744   1.227 -1.2413 -0.2341  0.2121
 6221SOL     OW20915   1.147   1.429   3.675  0.6141  0.2953 -0.8970
 6221SOL    HW120916   1.181   1.340   3.688 -1.1884 -0.4189 -0.7805
 6221SOL    HW220917   1.146   1.467   3.763  0.1238 -0.0661 -0.7421
 6222SOL     OW20918   6.419   5.139   8.481  0.1140  0.1995 -0.1470
 6222SOL    HW120919   6.395   5.049   8.502  0.1534  0.4471  1.0524
 6222SOL    HW220920   6.496   5.132   8.426 -0.8030 -0.5282 -1.3934
 6223SOL     OW20921   4.233   0.807   8.985  0.1821  0.2888 -0.6147
 6223SOL    HW120922   4.321   0.807   9.021  0.3361 -1.4383 -0.9287
 6223SOL    HW220923   4.242   0.769   8.897 -0.9028 -0.2132 -0.5315
 6224SOL     OW20924   9.243   5.861   5.611 -0.0020  0.2635 -0.3012
 6224SOL    HW120925   9.167   5.857   5.552  0.4147  1.5133 -0.9442
 6224SOL    HW220926   9.251   5.953   5.633  0.7053 -0.0080  0.6114
 6225SOL     OW20927   5.923   2.546   1.449 -0.1375 -0.0492  0.1779
 6225SOL    HW120928   5.881   2.483   1.391 -0.4564  0.7926 -0.5265
 6225SOL    HW220929   6.006   2.505   1.473 -0.9064 -1.3107  0.8006
 6226SOL     OW20930   8.615   3.879  10.557 -0.5459 -1.1375 -0.4101
 6226SOL    HW120931   8.705   3.871  10.587 -0.0880  1.0519 -1.0493
 6226SOL    HW220932   8.621   3.928  10.475 -2.4576  1.4620  0.8608
 6227SOL     OW20933  10.195   6.952   4.036  0.1661  0.2423  0.0245
 6227SOL    HW120934  10.274   6.997   4.006  2.2986 -1.9218  1.8935
 6227SOL    HW220935  10.161   7.007   4.106 -0.4419  1.5235 -1.2232
 6228SOL     OW20936   9.354   2.317   0.663 -0.2835 -0.3954 -0.2606
 6228SOL    HW120937   9.322   2.347   0.748 -0.0370  0.1993 -0.3806
 6228SOL    HW220938   9.298   2.362   0.600  0.8707  0.7605 -0.4805
 6229SOL     OW20939   4.084   9.409   6.180  1.0159 -0.3355  0.6178
 6229SOL    HW120940   4.079   9.475   6.249 -0.3691  0.0409  0.1814
 6229SOL    HW220941   4.131   9.452   6.109  1.0344 -0.1824  0.7229
 6230SOL     OW20942   4.783  10.459   4.877  0.3904 -0.1745  0.1627
 6230SOL    HW120943   4.787  10.408   4.797 -3.3002  0.6872 -0.7645
 6230SOL    HW220944   4.740  10.541   4.852  0.9578  1.0105  2.6570
 6231SOL     OW20945   2.826   1.043   5.421 -0.1667  0.0234  0.0309
 6231SOL    HW120946   2.866   1.126   5.396 -0.2037  0.3297  0.9765
 6231SOL    HW220947   2.831   0.990   5.341  1.3378  0.3473 -0.1285
 6232SOL     OW20948   5.323   1.585   4.846  0.7811 -0.8389 -0.3818
 6232SOL    HW120949   5.415   1.558   4.850  0.5664 -1.4465  1.8481
 6232SOL    HW220950   5.274   1.503   4.854  0.0660 -0.3413  0.4142
 6233SOL     OW20951   9.578   7.783   3.621  0.2362 -0.2288  1.0422
 6233SOL    HW120952   9.531   7.794   3.703  0.4881 -1.6580  1.4025
 6233SOL    HW220953   9.535   7.709   3.578  2.1451 -1.6476  1.4363
 6234SOL     OW20954   4.362   5.020   2.528  0.4538  0.5231  0.5468
 6234SOL    HW120955   4.293   5.083   2.506  0.3125 -0.7385 -3.4788
 6234SOL    HW220956   4.407   5.005   2.444  2.3354 -2.5478  1.9585
 6235SOL     OW20957   3.512   1.100   6.528  0.3516  0.1278 -0.0012
 6235SOL    HW120958   3.518   1.014   6.569 -0.0343  0.2962  0.4179
 6235SOL    HW220959   3.481   1.158   6.598  0.2849  0.5389 -0.3660
 6236SOL     OW20960   2.548   4.637   5.167  0.4073 -0.1535 -0.1037
 6236SOL    HW120961   2.493   4.561   5.145  0.7874 -0.9976  1.6936
 6236SOL    HW220962   2.637   4.609   5.147  0.8309 -1.1395  2.6817
 6237SOL     OW20963   5.277   2.324   6.528 -0.2423 -0.3591  0.2234
 6237SOL    HW120964   5.272   2.245   6.474  1.8222 -0.9887  0.8648
 6237SOL    HW220965   5.291   2.395   6.465  1.6815 -1.0243 -0.1596
 6238SOL     OW20966   1.323   7.214   2.452  0.3779 -0.4925  0.1185
 6238SOL    HW120967   1.315   7.289   2.394  0.7648 -0.6653 -0.1643
 6238SOL    HW220968   1.314   7.138   2.394  1.8846 -0.6856  0.0913
 6239SOL     OW20969   3.714   4.844   6.205 -0.6756 -0.1434 -0.0634
 6239SOL    HW120970   3.736   4.937   6.208  0.2344 -0.3318 -0.4772
 6239SOL    HW220971   3.713   4.816   6.296  1.3356 -0.2131 -0.0095
 6240SOL     OW20972   7.370   4.046   6.805  0.0851  0.0276 -0.0410
 6240SOL    HW120973   7.399   4.116   6.864  0.6170 -0.4552  0.2821
 6240SOL    HW220974   7.365   3.968   6.862 -1.9016  0.0911 -0.0584
 6241SOL     OW20975   1.834   0.054   1.694 -0.2019  0.0145 -0.1073
 6241SOL    HW120976   1.788   0.111   1.632  0.8435  1.4715  0.3927
 6241SOL    HW220977   1.885   0.114   1.748  0.0067 -1.3314  1.2555
 6242SOL     OW20978   1.132   4.991   9.010 -0.2356  0.0802  0.1100
 6242SOL    HW120979   1.066   5.059   9.027 -1.1096 -1.1110  1.7458
 6242SOL    HW220980   1.081   4.914   8.987  0.6316 -0.6053  0.4465
 6243SOL     OW20981   1.121   3.998   1.838  0.2818 -0.0106  0.5308
 6243SOL    HW120982   1.209   3.979   1.869 -0.1579 -2.8335  0.3489
 6243SOL    HW220983   1.063   3.956   1.902 -1.0325  2.2966  0.9916
 6244SOL     OW20984   4.704   1.143   9.436  0.0121 -0.1009 -0.1907
 6244SOL    HW120985   4.762   1.218   9.448 -0.0433 -0.1899  0.7092
 6244SOL    HW220986   4.723   1.111   9.347  0.9245  0.2161 -0.1183
 6245SOL     OW20987   0.015  10.460   3.211  0.1801 -0.0912  0.3661
 6245SOL    HW120988   0.023  10.366   3.227 -2.5422 -0.5653 -0.5602
 6245SOL    HW220989   0.074  10.477   3.137  0.2540 -1.2045  0.1504
 6246SOL     OW20990   3.690   3.442   8.521  0.3846 -0.7601  0.1204
 6246SOL    HW120991   3.723   3.517   8.570  1.0863 -0.0612 -1.3423
 6246SOL    HW220992   3.685   3.473   8.431  3.1204 -3.1482 -1.0259
 6247SOL     OW20993   6.473   8.369   5.732 -0.4395 -0.1276  0.2781
 6247SOL    HW120994   6.380   8.391   5.729 -0.6203 -0.9440 -0.8014
 6247SOL    HW220995   6.513   8.440   5.782 -1.3463  1.3296 -0.9567
 6248SOL     OW20996   0.659   2.938   4.017  0.1491 -0.2687  0.3052
 6248SOL    HW120997   0.666   3.032   3.999  1.1482 -0.4505 -0.3295
 6248SOL    HW220998   0.658   2.932   4.112  0.7277  0.3453  0.3537
 6249SOL     OW20999   4.042   4.401   8.657  0.1303  0.6412 -0.3214
 6249SOL    HW121000   3.994   4.346   8.595 -0.8776  1.7786 -0.5819
 6249SOL    HW221001   3.984   4.407   8.734  1.0238 -0.1193  0.4306
 6250SOL     OW21002   5.541   4.974   6.921  0.2634  0.2286 -0.1742
 6250SOL    HW121003   5.594   4.983   7.001 -0.2868  0.1682  0.1998
 6250SOL    HW221004   5.464   5.029   6.937  1.3439  2.3388 -1.7166
 6251SOL     OW21005   0.393   0.648   7.612 -0.3269  0.1779  0.4884
 6251SOL    HW121006   0.473   0.700   7.602 -1.0878  1.5339  1.1975
 6251SOL    HW221007   0.409   0.596   7.691  0.5279 -0.9105 -0.3524
 6252SOL     OW21008   7.310   4.772   5.688 -0.3584 -0.5647  0.3158
 6252SOL    HW121009   7.232   4.762   5.742 -0.1666  2.1920  1.2495
 6252SOL    HW221010   7.278   4.811   5.607 -0.1390 -1.1271 -0.0524
 6253SOL     OW21011   4.174   5.153   4.160 -0.0441 -0.3250  0.2902
 6253SOL    HW121012   4.250   5.181   4.209  1.4014 -2.7210 -0.3848
 6253SOL    HW221013   4.195   5.173   4.069  0.3936 -2.1015 -0.0377
 6254SOL     OW21014  10.129   4.879  10.365 -0.2477 -0.5322  0.4353
 6254SOL    HW121015  10.084   4.933  10.300  0.9353  0.2231  0.2170
 6254SOL    HW221016  10.087   4.901  10.448 -0.0556  0.4329  0.2862
 6255SOL     OW21017   0.023   0.691   9.671 -0.0158  0.3316  0.4375
 6255SOL    HW121018  -0.016   0.745   9.602  1.1959 -0.5060 -0.9647
 6255SOL    HW221019   0.073   0.753   9.724  0.1471  0.8201 -0.2629
 6256SOL     OW21020   2.043   8.917  10.234  0.0960 -0.0225  0.4443
 6256SOL    HW121021   2.105   8.978  10.193 -1.4100  0.3318 -1.4260
 6256SOL    HW221022   2.006   8.967  10.307  0.7940  0.3453  0.5582
 6257SOL     OW21023   7.721   6.879   1.662  0.3551 -0.6280 -0.4249
 6257SOL    HW121024   7.633   6.880   1.625  0.6590 -1.3972 -1.2009
 6257SOL    HW221025   7.769   6.816   1.609  1.6116  0.3787 -0.5538
 6258SOL     OW21026   2.518   7.365   0.839  0.5442 -0.8715  0.4935
 6258SOL    HW121027   2.528   7.437   0.901  0.1139 -2.1135  2.0707
 6258SOL    HW221028   2.424   7.360   0.823  0.7580  0.3957 -1.5099
 6259SOL     OW21029   3.111   0.703   6.991 -0.1736 -0.3236  0.2225
 6259SOL    HW121030   3.065   0.624   6.964  0.1536 -0.5423  0.2968
 6259SOL    HW221031   3.054   0.775   6.962  1.0377 -0.4405 -2.8558
 6260SOL     OW21032   1.789   1.815   2.944  0.2439 -0.1708  0.0130
 6260SOL    HW121033   1.855   1.857   3.000  0.2927 -0.0357 -0.1453
 6260SOL    HW221034   1.739   1.760   3.004 -0.8152  1.2801  0.5210
 6261SOL     OW21035   8.761   0.383   2.302  0.2113  0.2216 -0.2098
 6261SOL    HW121036   8.675   0.349   2.326  0.8532 -0.4858  1.1852
 6261SOL    HW221037   8.784   0.336   2.222 -0.2849 -0.2747 -0.0629
 6262SOL     OW21038   5.825   5.406   6.128  0.4363  0.6409 -0.0297
 6262SOL    HW121039   5.776   5.488   6.128  0.4953  0.7610 -2.7549
 6262SOL    HW221040   5.829   5.380   6.036  1.9078 -1.5399  0.5649
 6263SOL     OW21041   7.468   8.217   2.603 -1.0476 -0.4786 -0.2743
 6263SOL    HW121042   7.408   8.289   2.626 -1.4332 -0.6055 -0.8499
 6263SOL    HW221043   7.480   8.169   2.684 -1.6684 -0.3980 -0.1258
 6264SOL     OW21044   3.027   1.749   2.586  0.4141  0.0894 -0.0392
 6264SOL    HW121045   3.094   1.696   2.630  1.3946  2.5106  1.5800
 6264SOL    HW221046   3.046   1.738   2.492  1.6097 -1.1000  0.3059
 6265SOL     OW21047   6.352   8.911   3.960 -0.0539 -0.0566  0.3004
 6265SOL    HW121048   6.417   8.891   3.893 -0.5604 -0.0530 -0.2082
 6265SOL    HW221049   6.362   9.005   3.976  1.0812 -0.3315  1.3412
 6266SOL     OW21050   3.919   8.713   5.850  0.1044  0.3640 -0.4727
 6266SOL    HW121051   3.917   8.794   5.901  0.8301  0.7231 -0.9899
 6266SOL    HW221052   3.898   8.742   5.761  1.2514  0.1380 -0.8345
 6267SOL     OW21053   7.723   1.621   6.095  0.7790  0.1146 -0.3488
 6267SOL    HW121054   7.712   1.623   6.000 -0.7787 -0.0956 -0.2012
 6267SOL    HW221055   7.797   1.679   6.112  0.3862  1.0146 -1.5914
 6268SOL     OW21056   4.020   5.446   2.280  0.2010  0.4346 -0.1287
 6268SOL    HW121057   3.986   5.505   2.212 -0.0660  1.1496  0.6069
 6268SOL    HW221058   4.089   5.497   2.323  0.5876 -0.1328 -0.0583
 6269SOL     OW21059   0.886   5.783   5.464 -0.0937  0.0295  0.5426
 6269SOL    HW121060   0.960   5.737   5.503  0.4853 -0.1962 -0.7746
 6269SOL    HW221061   0.913   5.874   5.462 -0.2941  0.1026  1.0335
 6270SOL     OW21062   8.888   4.774   8.654 -0.3039 -0.1568 -0.3219
 6270SOL    HW121063   8.893   4.745   8.563 -0.6979  0.6461 -0.6048
 6270SOL    HW221064   8.859   4.865   8.649  1.9586  0.6860  0.4751
 6271SOL     OW21065  10.492   3.773   1.812  0.1421 -0.5549 -0.4100
 6271SOL    HW121066  10.534   3.764   1.897  1.4913  1.2162 -0.8241
 6271SOL    HW221067  10.565   3.786   1.751 -0.8926  0.1596 -1.5382
 6272SOL     OW21068   7.538   7.531   0.401 -0.3793  0.2041 -0.7338
 6272SOL    HW121069   7.537   7.626   0.407 -2.6301  0.1687  0.9953
 6272SOL    HW221070   7.453   7.508   0.363  0.0324 -1.1147 -0.9080
 6273SOL     OW21071   9.705   0.106   1.981 -0.0220  0.2684  0.0838
 6273SOL    HW121072   9.682   0.196   1.959 -1.7358 -0.5825 -1.9143
 6273SOL    HW221073   9.711   0.061   1.897 -2.0686 -2.1029  1.0746
 6274SOL     OW21074   6.119   6.047   3.486  0.4064 -1.0189 -0.3534
 6274SOL    HW121075   6.143   6.086   3.570 -1.5767 -1.2514  0.3871
 6274SOL    HW221076   6.182   5.976   3.473  2.1383  0.4260 -0.2081
 6275SOL     OW21077   3.890   5.283   1.606 -0.1864 -0.2551  0.2525
 6275SOL    HW121078   3.852   5.196   1.611 -0.6036 -0.3536 -2.7902
 6275SOL    HW221079   3.879   5.309   1.515  1.8785  2.1091  0.5608
 6276SOL     OW21080   0.217   3.829   9.482 -0.5499 -0.0820 -0.2996
 6276SOL    HW121081   0.304   3.834   9.442  0.2694 -0.2521  1.3946
 6276SOL    HW221082   0.201   3.736   9.492 -2.7500 -0.3463 -4.2470
 6277SOL     OW21083   7.285   2.254   6.357 -0.7032 -0.1016 -0.0810
 6277SOL    HW121084   7.281   2.254   6.453 -0.7184  2.5916 -0.0278
 6277SOL    HW221085   7.378   2.244   6.337 -0.4976  0.9453  0.2869
 6278SOL     OW21086   1.807   3.069   5.088  0.0039  0.1085  0.4277
 6278SOL    HW121087   1.751   3.145   5.073  0.9620  0.6480 -0.5939
 6278SOL    HW221088   1.749   3.002   5.124 -0.8961  1.2535  1.1524
 6279SOL     OW21089   5.351   2.261   8.064  0.3815  0.6348 -0.3804
 6279SOL    HW121090   5.256   2.274   8.062  0.6886  3.5634 -2.6273
 6279SOL    HW221091   5.368   2.203   7.990  0.3418 -0.7432  0.6399
 6280SOL     OW21092   9.027   1.474   1.597 -0.1418  0.1877  0.2997
 6280SOL    HW121093   9.034   1.386   1.633  0.0080 -0.2876 -0.8544
 6280SOL    HW221094   9.117   1.500   1.578 -0.2579  0.1951 -0.2672
 6281SOL     OW21095   6.812   1.945   8.601  0.0145 -0.1592 -0.4433
 6281SOL    HW121096   6.774   1.862   8.632  1.0664 -0.1976  0.8279
 6281SOL    HW221097   6.902   1.922   8.577 -0.0492  0.3890 -1.2504
 6282SOL     OW21098   6.360   5.458   7.607 -0.1470  0.2797 -0.5689
 6282SOL    HW121099   6.425   5.515   7.649  1.0782 -0.3006 -1.6128
 6282SOL    HW221100   6.321   5.409   7.680  1.2868 -0.0447  0.0123
 6283SOL     OW21101   1.426   4.362   6.312  0.4650 -0.4682 -0.2859
 6283SOL    HW121102   1.373   4.336   6.387 -1.8795  1.8150 -1.0113
 6283SOL    HW221103   1.378   4.330   6.236  0.4001  1.1026 -0.9454
 6284SOL     OW21104   1.412   3.036   9.027  0.0041 -0.2449 -0.4068
 6284SOL    HW121105   1.404   3.018   9.121  0.0555  0.6539 -0.2179
 6284SOL    HW221106   1.462   3.118   9.023  0.3834 -0.5090 -1.2378
 6285SOL     OW21107   8.413   3.677  10.186  0.2692  0.5377 -0.0106
 6285SOL    HW121108   8.334   3.701  10.137  0.4289  0.1269 -0.4777
 6285SOL    HW221109   8.390   3.690  10.278  0.3314  2.4791 -0.2190
 6286SOL     OW21110   2.054   3.387   1.789  0.0532  0.1888  0.4760
 6286SOL    HW121111   2.119   3.354   1.850  0.4466 -0.7379 -0.4147
 6286SOL    HW221112   2.002   3.449   1.840  2.8453  2.5225  0.7698
 6287SOL     OW21113   8.039   3.766   3.193  0.2638 -0.0107  0.0581
 6287SOL    HW121114   7.989   3.723   3.124 -0.1097  0.8263 -0.2058
 6287SOL    HW221115   7.979   3.767   3.269  0.2666  0.0517  0.0597
 6288SOL     OW21116   1.966   3.156   8.864 -0.2061 -0.1079 -0.1109
 6288SOL    HW121117   1.895   3.165   8.928 -0.6869  1.1279 -0.7976
 6288SOL    HW221118   1.921   3.140   8.781  0.3187  0.5964 -0.5346
 6289SOL     OW21119   1.246   5.451  10.153  0.2587 -0.7684  0.0152
 6289SOL    HW121120   1.163   5.423  10.193 -0.3755 -0.8466 -1.3036
 6289SOL    HW221121   1.289   5.369  10.128  0.1548 -0.6977 -0.4086
 6290SOL     OW21122   4.911   7.212   1.872 -0.5558 -0.5841  0.4137
 6290SOL    HW121123   4.924   7.261   1.791  0.6756  0.2875  1.1051
 6290SOL    HW221124   4.996   7.172   1.889 -1.1275 -1.7433  0.6682
 6291SOL     OW21125   8.280   2.126   5.011 -0.2512  0.2280  0.1820
 6291SOL    HW121126   8.307   2.163   5.095 -1.3556 -1.3527  1.2954
 6291SOL    HW221127   8.359   2.129   4.957  0.4170  1.5055  1.1835
 6292SOL     OW21128   1.748   7.863  10.133 -0.3557  0.2781  0.2425
 6292SOL    HW121129   1.670   7.865  10.078 -0.7455  1.6199  0.8083
 6292SOL    HW221130   1.816   7.906  10.079  0.4322 -2.1051 -0.8086
 6293SOL     OW21131   3.836   3.362   2.620 -0.2681  0.3029  0.0861
 6293SOL    HW121132   3.887   3.285   2.644 -0.3185 -0.0705 -0.9670
 6293SOL    HW221133   3.761   3.360   2.680  0.2558  0.1197  0.7509
 6294SOL     OW21134   3.369  10.042   0.077 -0.1215  0.2708 -0.6552
 6294SOL    HW121135   3.392  10.081   0.161  0.3317 -0.9229 -0.2074
 6294SOL    HW221136   3.397  10.107   0.012  1.7686  0.1699  0.0006
 6295SOL     OW21137   0.310   4.562   6.497  0.5524 -0.5623  0.0959
 6295SOL    HW121138   0.366   4.519   6.432  1.9523  0.8385  0.3159
 6295SOL    HW221139   0.321   4.509   6.576  0.2117 -1.2739 -0.3218
 6296SOL     OW21140   1.279   3.026   5.806 -0.1298  0.1406 -0.1129
 6296SOL    HW121141   1.372   3.036   5.783  0.2888  0.3098  1.5426
 6296SOL    HW221142   1.258   3.105   5.855 -1.0760 -0.0563 -0.1861
 6297SOL     OW21143  10.409   8.168   9.220  0.1293 -0.1142 -0.8084
 6297SOL    HW121144  10.445   8.092   9.267 -0.5941 -0.6951 -1.1685
 6297SOL    HW221145  10.461   8.174   9.140  0.3190 -0.1117 -0.6848
 6298SOL     OW21146   7.854   4.677   4.333  0.1971 -0.2479  0.6533
 6298SOL    HW121147   7.896   4.625   4.264 -0.8021 -0.1817 -0.0372
 6298SOL    HW221148   7.809   4.747   4.286  1.6373  1.3690  1.5866
 6299SOL     OW21149   5.132   7.627   7.624  0.3962 -0.6101  0.5228
 6299SOL    HW121150   5.129   7.664   7.713 -1.1888 -0.0098  0.2523
 6299SOL    HW221151   5.155   7.535   7.637 -0.2270 -0.6306  1.5908
 6300SOL     OW21152   6.996   8.635   4.381 -0.2112  0.2631  0.2219
 6300SOL    HW121153   6.946   8.581   4.319 -0.5787  2.1196 -1.1827
 6300SOL    HW221154   6.936   8.650   4.454 -1.8508  2.4171 -1.4096
 6301SOL     OW21155   1.184   9.047   7.673  0.4952  0.0209 -0.3364
 6301SOL    HW121156   1.166   9.124   7.620  2.0358  2.0120  1.8502
 6301SOL    HW221157   1.262   9.008   7.633  1.4525  1.3109  0.2377
 6302SOL     OW21158   3.565   0.147   6.443 -0.0041 -0.2029 -0.0997
 6302SOL    HW121159   3.659   0.163   6.440 -0.3419  2.6295 -4.1902
 6302SOL    HW221160   3.549   0.085   6.372 -1.2082 -0.8714  0.7345
 6303SOL     OW21161   8.928   6.404   8.737  0.1252 -0.2824 -0.8634
 6303SOL    HW121162   8.987   6.331   8.753 -0.6584 -0.6075  0.7442
 6303SOL    HW221163   8.958   6.473   8.796 -1.1504 -0.5052  0.0988
 6304SOL     OW21164   7.592   0.000   8.448 -0.0006  0.5008  0.1133
 6304SOL    HW121165   7.686  -0.020   8.448  0.0208  0.5915  0.4945
 6304SOL    HW221166   7.588   0.096   8.452 -0.1060  0.4439  2.1834
 6305SOL     OW21167   7.570   2.642   8.872  0.2091 -0.3360  0.1767
 6305SOL    HW121168   7.488   2.658   8.826 -0.5958 -2.0776  0.9238
 6305SOL    HW221169   7.627   2.601   8.806  0.3210  0.4211 -0.2070
 6306SOL     OW21170   9.212   3.027   9.584  0.1373  0.0066  0.0820
 6306SOL    HW121171   9.184   3.011   9.494 -0.7423 -2.3426  0.7201
 6306SOL    HW221172   9.288   3.085   9.575 -1.0732  1.3847 -2.0322
 6307SOL     OW21173   3.609   5.318   0.872 -0.0336 -0.5626  0.3203
 6307SOL    HW121174   3.540   5.284   0.815 -0.6515 -0.8410  1.2031
 6307SOL    HW221175   3.562   5.359   0.945  0.7102 -1.2258  1.2092
 6308SOL     OW21176   7.480   4.736   7.733 -0.1046 -0.0310  0.4175
 6308SOL    HW121177   7.423   4.790   7.678 -0.8743  0.0396  1.2469
 6308SOL    HW221178   7.420   4.695   7.796  0.2749 -2.7699 -0.8435
 6309SOL     OW21179   6.865   5.315   1.648 -0.2135 -0.0291 -0.8009
 6309SOL    HW121180   6.891   5.397   1.605  0.1488 -0.2691 -1.0441
 6309SOL    HW221181   6.798   5.278   1.590 -0.7173  0.3173 -0.4547
 6310SOL     OW21182   2.317   5.135   2.392 -0.3420 -0.6432  0.2815
 6310SOL    HW121183   2.390   5.094   2.345  0.0096  0.6793 -0.3667
 6310SOL    HW221184   2.264   5.175   2.322 -1.4222 -1.1506  0.7845
 6311SOL     OW21185   0.921   0.522   1.613  0.0170  0.3372  0.1416
 6311SOL    HW121186   0.992   0.584   1.603 -1.4072  1.8937 -0.7691
 6311SOL    HW221187   0.843   0.576   1.626 -1.4336 -1.1782 -1.5956
 6312SOL     OW21188   2.046   4.860   7.617 -0.1607 -0.1534  0.2743
 6312SOL    HW121189   2.124   4.884   7.568 -2.0626 -0.4110 -3.1541
 6312SOL    HW221190   1.975   4.910   7.577 -2.3362 -2.5612  0.8405
 6313SOL     OW21191   4.312   6.717   5.152 -0.4180 -0.7015  0.3215
 6313SOL    HW121192   4.227   6.684   5.123 -0.5756  0.8797 -1.1750
 6313SOL    HW221193   4.303   6.725   5.247 -1.7971 -0.9485  0.2365
 6314SOL     OW21194   6.955  10.062   9.647 -0.1048 -0.0816  0.2079
 6314SOL    HW121195   6.987  10.151   9.633 -0.2432 -0.2039 -0.9500
 6314SOL    HW221196   6.970  10.046   9.741 -0.3471  1.2498  0.4889
 6315SOL     OW21197   2.291   8.872   3.527 -0.7496 -0.0857  0.8764
 6315SOL    HW121198   2.385   8.858   3.510 -0.3941  0.3463  2.3590
 6315SOL    HW221199   2.272   8.813   3.600 -2.1202 -1.5866 -0.6060
 6316SOL     OW21200   5.313   2.081   0.652 -0.2237  0.1945 -0.0174
 6316SOL    HW121201   5.297   2.067   0.559  1.4625 -2.1366 -0.0520
 6316SOL    HW221202   5.331   2.175   0.659 -2.5028  0.8353 -1.6186
 6317SOL     OW21203   9.359   0.430   7.116  0.1692 -0.6608 -0.1038
 6317SOL    HW121204   9.433   0.391   7.162  1.1117  0.5801 -0.5269
 6317SOL    HW221205   9.312   0.479   7.183  0.6731 -0.1038 -0.1506
 6318SOL     OW21206   4.196   6.748   3.654 -0.2982  0.2581 -0.4708
 6318SOL    HW121207   4.225   6.741   3.563  2.1758 -0.0206  0.2557
 6318SOL    HW221208   4.233   6.831   3.684 -0.8956  0.2326  0.3496
 6319SOL     OW21209   0.046   5.268   6.864  0.2827 -0.4407 -0.2546
 6319SOL    HW121210   0.136   5.301   6.868 -0.0973  0.5968  0.2845
 6319SOL    HW221211  -0.008   5.348   6.859 -0.5932 -1.0520 -0.9102
 6320SOL     OW21212   5.530   9.730   3.418 -0.0604  0.2373 -0.2557
 6320SOL    HW121213   5.484   9.810   3.391 -1.3551 -0.2495  0.3781
 6320SOL    HW221214   5.501   9.716   3.509  0.4915 -0.7137 -0.2157
 6321SOL     OW21215   9.248   6.812   5.767  0.2347 -0.1159  1.0939
 6321SOL    HW121216   9.154   6.828   5.754 -0.3910 -1.6290  3.1874
 6321SOL    HW221217   9.252   6.729   5.814  2.7562 -0.9667 -0.4145
 6322SOL     OW21218   9.209   2.504   2.796 -0.0496 -0.2842  0.2113
 6322SOL    HW121219   9.286   2.453   2.822 -0.0493 -0.1495  0.4849
 6322SOL    HW221220   9.198   2.487   2.703  1.4327  1.1881 -0.2678
 6323SOL     OW21221   7.176   4.527   1.584  0.1811  0.5628  0.7251
 6323SOL    HW121222   7.235   4.459   1.616 -0.0547  0.4441  0.9103
 6323SOL    HW221223   7.145   4.495   1.500  0.7517  0.8445  0.4055
 6324SOL     OW21224   4.689   7.297   4.891 -0.0829  0.4335 -0.1483
 6324SOL    HW121225   4.624   7.306   4.822 -0.1370  0.2260 -0.1251
 6324SOL    HW221226   4.754   7.236   4.856 -0.0407  0.4317 -0.0688
 6325SOL     OW21227   5.926   7.108   2.397 -0.6277  0.3946  0.2750
 6325SOL    HW121228   5.960   7.119   2.486 -1.9266 -0.1572  0.8674
 6325SOL    HW221229   5.931   7.196   2.359 -0.1935  0.6725  0.9409
 6326SOL     OW21230   1.916   5.862   6.730 -0.3059  0.9652  0.0061
 6326SOL    HW121231   1.950   5.773   6.720 -0.0275  1.0182  0.4514
 6326SOL    HW221232   1.939   5.905   6.647 -0.4975  0.6069 -0.2359
 6327SOL     OW21233   7.205   7.438   6.823 -0.3587 -0.1060 -0.3005
 6327SOL    HW121234   7.252   7.472   6.747  0.7979 -1.0519 -0.0400
 6327SOL    HW221235   7.113   7.459   6.806  0.0046  0.6416 -1.4440
 6328SOL     OW21236   3.955   4.425   7.271  0.1288  0.0174  0.7585
 6328SOL    HW121237   3.961   4.419   7.366  1.8019 -0.5298  0.6474
 6328SOL    HW221238   3.944   4.518   7.254 -0.8518  0.0562  1.4951
 6329SOL     OW21239   8.959   4.693   5.298 -0.5821 -0.6178  0.2777
 6329SOL    HW121240   8.918   4.614   5.333 -1.3017  0.1835  1.3005
 6329SOL    HW221241   8.889   4.736   5.249 -1.1980  0.9994  2.4230
 6330SOL     OW21242   1.673   9.499   0.777  0.3736  0.6298 -0.0851
 6330SOL    HW121243   1.705   9.589   0.785 -1.1758  1.0395  3.5987
 6330SOL    HW221244   1.592   9.507   0.725  0.7789  1.1759 -0.6517
 6331SOL     OW21245   6.166   9.727   0.763 -0.1984 -0.3814  0.3451
 6331SOL    HW121246   6.160   9.658   0.697  0.0270  0.5873 -0.7272
 6331SOL    HW221247   6.112   9.697   0.835 -2.8219 -0.2175 -1.4236
 6332SOL     OW21248   9.709   3.681   7.629 -0.4526 -0.2039  0.0090
 6332SOL    HW121249   9.682   3.733   7.553 -1.5955 -0.1834  0.4068
 6332SOL    HW221250   9.665   3.722   7.703  1.4560  0.4012  0.8728
 6333SOL     OW21251   8.608   6.024   5.063  1.0285  0.2214  0.4584
 6333SOL    HW121252   8.545   5.974   5.116  1.7099 -0.8150  0.3204
 6333SOL    HW221253   8.686   6.031   5.119  1.8499 -1.1104 -0.4820
 6334SOL     OW21254   1.329   5.947   9.684  0.3413 -0.3529 -0.1292
 6334SOL    HW121255   1.386   5.884   9.641 -0.0288 -0.4051 -0.5519
 6334SOL    HW221256   1.247   5.943   9.635 -0.3643 -0.9774  1.0524
 6335SOL     OW21257   4.947   2.671   6.218  0.0863  0.4816 -0.4494
 6335SOL    HW121258   5.007   2.597   6.229  3.2381  2.7619 -0.7985
 6335SOL    HW221259   5.004   2.744   6.194 -2.6925  3.2917  0.8138
 6336SOL     OW21260   5.879   7.107   4.121  0.0727 -0.0959  0.0282
 6336SOL    HW121261   5.936   7.121   4.046 -0.7821  0.1457 -0.5894
 6336SOL    HW221262   5.885   7.013   4.139  0.0211 -0.2099 -0.5481
 6337SOL     OW21263   2.001  10.496   2.051 -0.5946  0.2366  0.0979
 6337SOL    HW121264   1.921  10.455   2.019  0.4289 -1.5558 -0.2991
 6337SOL    HW221265   2.041  10.536   1.973  0.5821 -1.8612 -0.4371
 6338SOL     OW21266   7.696  10.174   5.900 -0.2694  0.1095  0.0705
 6338SOL    HW121267   7.742  10.154   5.818  0.1017  1.0440  0.0366
 6338SOL    HW221268   7.612  10.208   5.872 -0.7086 -0.8962  0.1189
 6339SOL     OW21269   0.939   1.902   8.893 -0.0600  0.5182 -0.1504
 6339SOL    HW121270   1.016   1.866   8.850  1.2182  1.3357  1.3531
 6339SOL    HW221271   0.972   1.941   8.974 -2.1808 -0.0078  1.0739
 6340SOL     OW21272   0.786   2.679   7.024 -0.5447  0.5102 -0.1929
 6340SOL    HW121273   0.772   2.600   6.972 -4.4911  2.7009 -2.9914
 6340SOL    HW221274   0.722   2.673   7.095  0.3468  0.5038  0.6412
 6341SOL     OW21275   8.846   2.816   3.688 -0.1464 -0.1837  0.6094
 6341SOL    HW121276   8.838   2.736   3.636  1.5549  0.7983 -1.3150
 6341SOL    HW221277   8.925   2.801   3.741 -1.5234 -0.9267  2.5480
 6342SOL     OW21278   4.148   1.439   3.192  0.4657 -0.0440 -0.0958
 6342SOL    HW121279   4.069   1.493   3.200  0.5283  0.2880 -1.5147
 6342SOL    HW221280   4.136   1.370   3.258 -1.1943 -0.2229 -0.5375
 6343SOL     OW21281   9.229  10.511   0.125  0.3740 -0.1798 -0.1878
 6343SOL    HW121282   9.144  10.529   0.165  0.8127 -0.5220  0.9295
 6343SOL    HW221283   9.242  10.583   0.063  0.2168  1.0477  1.1655
 6344SOL     OW21284   7.342   9.241   5.639 -0.5909 -0.1745 -0.2474
 6344SOL    HW121285   7.348   9.230   5.734 -1.2179  0.1810 -0.1684
 6344SOL    HW221286   7.260   9.199   5.614  0.9147 -2.9103 -1.0349
 6345SOL     OW21287   8.386   6.971  10.116 -0.0381  0.2492 -0.1835
 6345SOL    HW121288   8.413   7.051  10.162 -1.1075  0.6537 -0.2362
 6345SOL    HW221289   8.373   6.998  10.025  1.9923 -0.5367 -0.7531
 6346SOL     OW21290   2.667   2.718   5.127  0.1186 -0.2525  0.0531
 6346SOL    HW121291   2.645   2.689   5.038  0.1336  0.5386 -0.2109
 6346SOL    HW221292   2.734   2.656   5.156  0.8497  0.0794 -0.8725
 6347SOL     OW21293   3.440   9.321   3.601 -0.0048 -0.4996 -0.1157
 6347SOL    HW121294   3.346   9.301   3.603 -0.6488  1.9301 -1.7679
 6347SOL    HW221295   3.458   9.362   3.685 -1.3061  2.1705 -1.0462
 6348SOL     OW21296   4.471   0.695   4.723 -0.2747  0.2214  0.6479
 6348SOL    HW121297   4.503   0.609   4.696 -1.3419  0.2096 -0.7098
 6348SOL    HW221298   4.392   0.676   4.773 -0.3413  0.3998  0.6099
 6349SOL     OW21299   7.752   5.398  10.558  0.1153  0.2236  0.1615
 6349SOL    HW121300   7.682   5.359  10.505  0.9648 -0.5987 -0.3835
 6349SOL    HW221301   7.717   5.399  10.647 -0.6717  0.0205 -0.1390
 6350SOL     OW21302   7.562   9.745   0.024 -0.2417 -0.2594  0.2179
 6350SOL    HW121303   7.510   9.799   0.084 -2.4350 -0.6170 -1.2487
 6350SOL    HW221304   7.555   9.790  -0.060  1.1239 -0.8198 -0.2112
 6351SOL     OW21305   2.629   4.171   1.913  0.0766  0.1959  0.2344
 6351SOL    HW121306   2.653   4.198   1.824 -0.8447  1.4399  0.3501
 6351SOL    HW221307   2.703   4.198   1.967 -0.0297  0.8180  0.0710
 6352SOL     OW21308   0.256  10.304   2.191 -0.2645  0.2659  0.3499
 6352SOL    HW121309   0.312  10.326   2.266 -0.1043  0.1918  0.2518
 6352SOL    HW221310   0.224  10.216   2.210 -0.1985  0.2345  0.3151
 6353SOL     OW21311   5.510   5.244   4.201 -0.2112 -0.3289 -0.0058
 6353SOL    HW121312   5.521   5.231   4.106  0.0405 -1.0464  0.1102
 6353SOL    HW221313   5.427   5.200   4.220 -0.0556 -0.5476  0.1701
 6354SOL     OW21314   0.328   8.847   1.699 -0.3514 -0.1571 -0.1144
 6354SOL    HW121315   0.280   8.912   1.648 -1.7518  0.1146  1.4900
 6354SOL    HW221316   0.307   8.866   1.790  1.0118 -1.4731  0.5286
 6355SOL     OW21317   7.928   1.775   6.099  0.0864  0.0658  0.1121
 6355SOL    HW121318   7.968   1.860   6.079  1.6040 -0.5553  0.4017
 6355SOL    HW221319   7.983   1.738   6.168  0.4517 -1.8827 -1.1622
 6356SOL     OW21320   5.765   1.488   2.591  0.6428  0.1943 -0.0657
 6356SOL    HW121321   5.693   1.442   2.548 -0.7396  1.5377  0.7492
 6356SOL    HW221322   5.785   1.435   2.668  0.0194  0.2225  0.1151
 6357SOL     OW21323   3.791   5.584   9.629 -0.0378  0.4784  0.0165
 6357SOL    HW121324   3.787   5.650   9.699 -0.0535  1.1586 -0.6096
 6357SOL    HW221325   3.779   5.500   9.674  2.0331  0.7129  1.1085
 6358SOL     OW21326   4.814   6.201   6.767  0.9950  0.3932  0.4813
 6358SOL    HW121327   4.810   6.297   6.757 -0.6935  0.1697 -1.9331
 6358SOL    HW221328   4.887   6.174   6.711  0.5231  0.1815 -0.0432
 6359SOL     OW21329   0.874   6.140   6.983  0.3210  0.1618 -0.0762
 6359SOL    HW121330   0.797   6.144   6.926 -0.8583  0.2962  1.4773
 6359SOL    HW221331   0.917   6.058   6.959 -2.0923 -1.5775  1.1706
 6360SOL     OW21332   6.572   6.248   0.121 -0.6243 -0.1339 -0.4040
 6360SOL    HW121333   6.638   6.183   0.145 -0.8182 -0.0297  0.4599
 6360SOL    HW221334   6.618   6.332   0.123 -0.9009  0.0100  0.8027
 6361SOL     OW21335   0.952   4.898   4.987  0.2168  0.7606 -0.0029
 6361SOL    HW121336   0.914   4.815   5.012  1.0077 -0.3317 -2.1350
 6361SOL    HW221337   0.943   4.954   5.064 -0.4276 -1.2491  1.4433
 6362SOL     OW21338   0.195   1.111   3.954 -0.2801 -0.3806  0.2186
 6362SOL    HW121339   0.228   1.029   3.919 -0.5087 -1.1580  1.7526
 6362SOL    HW221340   0.273   1.163   3.973  0.1319 -1.7861  2.8181
 6363SOL     OW21341   0.580   2.649   7.199  0.2357 -0.0713  0.7681
 6363SOL    HW121342   0.514   2.601   7.148 -0.6298  0.5794  1.2429
 6363SOL    HW221343   0.609   2.587   7.266  0.3056 -0.4456  0.3998
 6364SOL     OW21344   8.134   9.938   5.140  0.1593  0.5758 -0.3692
 6364SOL    HW121345   8.126   9.943   5.235 -0.9589 -0.3293 -0.4026
 6364SOL    HW221346   8.069   9.873   5.113  2.4621 -1.4891 -1.4584
 6365SOL     OW21347   7.165   4.376   4.607  0.2345  0.1090 -0.2083
 6365SOL    HW121348   7.164   4.419   4.521  0.4111 -0.8561 -0.7047
 6365SOL    HW221349   7.216   4.296   4.593  2.7478  1.2721  1.4364
 6366SOL     OW21350   6.556   5.965   8.207 -0.0962  0.1818  0.3086
 6366SOL    HW121351   6.566   5.902   8.278 -0.8120 -0.2455  0.0369
 6366SOL    HW221352   6.471   5.945   8.168  0.9020 -0.6010 -1.6487
 6367SOL     OW21353   1.761   7.784   7.968  0.5855 -0.1434 -0.3827
 6367SOL    HW121354   1.756   7.839   7.890  1.2889 -1.0173 -1.0635
 6367SOL    HW221355   1.849   7.746   7.966  1.7240  2.0041  2.3637
 6368SOL     OW21356   8.499   5.234   0.476 -0.0596  0.4436  0.2557
 6368SOL    HW121357   8.430   5.177   0.442 -0.7811  1.7391 -0.5248
 6368SOL    HW221358   8.571   5.174   0.498 -1.0503 -0.8251  0.1357
 6369SOL     OW21359   7.372   1.265   4.623 -0.0662  0.0525 -0.4415
 6369SOL    HW121360   7.341   1.188   4.671  0.0002  0.1774 -0.1994
 6369SOL    HW221361   7.292   1.310   4.595 -0.1039  0.1295 -0.2086
 6370SOL     OW21362   0.255   5.556   0.250  0.3322 -0.5021  0.1022
 6370SOL    HW121363   0.242   5.639   0.204 -0.1088 -0.6678 -0.0871
 6370SOL    HW221364   0.210   5.568   0.334  0.8546 -0.3141  0.3573
 6371SOL     OW21365   5.606   6.884   7.756 -0.2377 -0.6018 -0.2144
 6371SOL    HW121366   5.577   6.967   7.796 -2.4830 -1.4472  0.0800
 6371SOL    HW221367   5.655   6.840   7.826  0.8809  0.3948 -0.3380
 6372SOL     OW21368   9.861   7.904   8.015 -0.1993 -0.0952 -0.1050
 6372SOL    HW121369   9.948   7.926   7.981 -0.7556  0.5976 -1.1522
 6372SOL    HW221370   9.876   7.878   8.106  0.8604  1.9314  0.3571
 6373SOL     OW21371   6.381   8.519  10.010 -0.3691 -0.1139  0.1032
 6373SOL    HW121372   6.313   8.466  10.052 -0.4974 -1.4301 -1.6351
 6373SOL    HW221373   6.332   8.584   9.960 -0.2694  0.3168  0.5598
 6374SOL     OW21374   7.684  10.255   9.550 -0.7187 -0.4033 -0.3937
 6374SOL    HW121375   7.685  10.160   9.543 -1.3147 -0.3685 -0.9786
 6374SOL    HW221376   7.711  10.286   9.463  0.7008 -0.0419  0.1472
 6375SOL     OW21377   5.977   6.727   8.245 -0.3386 -0.0347  0.0652
 6375SOL    HW121378   6.057   6.738   8.297  0.9069 -1.6769 -1.3942
 6375SOL    HW221379   5.942   6.642   8.270 -0.9063  0.0934 -0.2573
 6376SOL     OW21380   4.292   0.836   4.126 -0.2636 -0.3306  0.4906
 6376SOL    HW121381   4.241   0.853   4.047  1.7814  1.7843 -0.4922
 6376SOL    HW221382   4.332   0.750   4.111 -1.0544 -0.5979 -0.1131
 6377SOL     OW21383   9.523   0.624   9.840 -0.0531 -0.0161 -0.0919
 6377SOL    HW121384   9.495   0.560   9.776  0.3024  0.3724 -0.6407
 6377SOL    HW221385   9.515   0.708   9.795  1.1696  0.1819  0.0201
 6378SOL     OW21386   5.628   4.471   0.404  0.1520 -0.0555 -0.0876
 6378SOL    HW121387   5.681   4.415   0.460 -0.4939 -0.6330 -0.0440
 6378SOL    HW221388   5.689   4.504   0.339  0.4329 -1.2942 -0.4816
 6379SOL     OW21389   1.629   0.020   1.426 -0.0611  0.1942  0.0146
 6379SOL    HW121390   1.718  -0.010   1.445 -0.2995  0.5583  1.8548
 6379SOL    HW221391   1.641   0.093   1.366  0.8339 -0.1826 -0.2850
 6380SOL     OW21392   4.012   8.201  10.197 -0.0320 -0.3695 -0.1947
 6380SOL    HW121393   3.961   8.181  10.118  1.0864 -0.8261 -0.8324
 6380SOL    HW221394   4.055   8.119  10.218  0.7794  0.1175  0.0614
 6381SOL     OW21395   7.326  10.066   4.087 -0.0911 -0.2670  0.5121
 6381SOL    HW121396   7.236  10.090   4.106 -0.3286  0.6502 -1.4389
 6381SOL    HW221397   7.362  10.144   4.043  1.5311 -0.7532  0.9229
 6382SOL     OW21398   5.868   3.559   6.962  0.0220 -0.2380 -0.3501
 6382SOL    HW121399   5.824   3.539   6.879  0.0241 -1.5387 -0.0708
 6382SOL    HW221400   5.830   3.496   7.024  0.2155  0.5385  0.5704
 6383SOL     OW21401   6.790   3.087   0.758  0.3713  0.3472  0.5096
 6383SOL    HW121402   6.772   2.993   0.756  1.0462  0.2101  0.8100
 6383SOL    HW221403   6.834   3.102   0.842  2.0888  0.5849 -0.3945
 6384SOL     OW21404  10.016   5.168   3.063 -0.2572  0.1071 -0.1539
 6384SOL    HW121405  10.047   5.254   3.091 -0.0063  0.6678 -2.0484
 6384SOL    HW221406   9.922   5.169   3.081 -0.2588  0.7889 -0.1987
 6385SOL     OW21407   4.997   1.792   4.302 -0.8220 -0.0347  0.4324
 6385SOL    HW121408   5.037   1.877   4.317 -2.1081  1.0182 -1.5522
 6385SOL    HW221409   4.955   1.769   4.385 -1.8427  2.0966  0.5676
 6386SOL     OW21410   2.171   7.541   3.333 -0.3347 -0.2401  0.7495
 6386SOL    HW121411   2.101   7.606   3.330 -0.2498 -0.1689  0.3010
 6386SOL    HW221412   2.249   7.587   3.304 -0.0357 -0.2440  1.5356
 6387SOL     OW21413   6.994   7.166   1.397  0.7323  0.3539  0.1860
 6387SOL    HW121414   6.911   7.162   1.348  0.8553  0.5693 -0.0398
 6387SOL    HW221415   6.978   7.230   1.466  0.5602  0.0544  0.4286
 6388SOL     OW21416   8.892   6.946   5.475 -0.7492  0.0060  0.0909
 6388SOL    HW121417   8.800   6.963   5.494 -0.1160 -0.5508  4.6942
 6388SOL    HW221418   8.905   6.854   5.497  1.1976  0.4514  1.0411
 6389SOL     OW21419   1.818   3.686   2.157  0.3451  0.2137  0.0896
 6389SOL    HW121420   1.876   3.749   2.200  0.8189  0.6803 -1.2028
 6389SOL    HW221421   1.869   3.605   2.156  0.5639  0.3527 -0.1191
 6390SOL     OW21422   3.758   2.924   8.193  0.1392  0.5470 -0.3817
 6390SOL    HW121423   3.768   2.959   8.281 -1.3365 -1.9465  0.8942
 6390SOL    HW221424   3.737   2.831   8.206  2.3790 -0.5741 -3.4267
 6391SOL     OW21425   7.042   4.376   8.871 -0.0596 -0.2231 -0.1390
 6391SOL    HW121426   6.964   4.432   8.866 -0.4708 -0.6606  0.9308
 6391SOL    HW221427   7.009   4.288   8.855  0.0848 -0.4976  0.9977
 6392SOL     OW21428   8.283   5.996   7.018  0.0432  0.5667  0.4497
 6392SOL    HW121429   8.334   6.074   7.038  1.0041 -0.2007  1.0803
 6392SOL    HW221430   8.266   5.955   7.103 -1.6063  0.7649  0.2583
 6393SOL     OW21431   7.471   1.121   5.454  0.2819  0.7340 -0.1616
 6393SOL    HW121432   7.561   1.100   5.479 -0.4777 -0.6120  1.6767
 6393SOL    HW221433   7.445   1.190   5.515 -0.4180 -0.0216  0.4253
 6394SOL     OW21434   8.810   9.923   3.100  0.0531  0.2163  0.0439
 6394SOL    HW121435   8.752   9.948   3.172  0.0632 -0.1308  0.1787
 6394SOL    HW221436   8.868   9.998   3.087 -2.1000  1.6884 -1.8507
 6395SOL     OW21437   1.272   5.529   6.105  0.2352 -0.0175 -0.2459
 6395SOL    HW121438   1.351   5.533   6.159 -0.2706  1.0908  0.4380
 6395SOL    HW221439   1.206   5.577   6.154 -0.2704  0.9803 -1.8060
 6396SOL     OW21440   5.948  10.138   7.090 -0.0972  0.0662 -0.1916
 6396SOL    HW121441   5.936  10.211   7.029  0.4826 -0.4660 -0.9732
 6396SOL    HW221442   5.860  10.106   7.108 -0.2953  0.4352 -0.4968
 6397SOL     OW21443   0.561   9.928   7.485  0.6322 -0.3766  0.5453
 6397SOL    HW121444   0.502   9.866   7.530 -0.4279  1.7225  2.2397
 6397SOL    HW221445   0.510   9.959   7.410  0.8338 -0.8541  0.1991
 6398SOL     OW21446   4.000   7.603   0.895  0.0662 -0.0755 -0.1550
 6398SOL    HW121447   4.084   7.566   0.867  0.9068  1.3643  0.3582
 6398SOL    HW221448   4.000   7.595   0.990  0.7576  2.1120  0.0827
 6399SOL     OW21449   6.117   3.233   9.980 -0.3235  0.4735 -0.1422
 6399SOL    HW121450   6.212   3.243   9.972 -0.3444  0.3539 -0.5567
 6399SOL    HW221451   6.102   3.139   9.971 -0.4950  0.5112 -0.2615
 6400SOL     OW21452   8.454   8.339   6.572  0.1670  0.3555 -0.2563
 6400SOL    HW121453   8.541   8.376   6.585 -0.5015  1.4890  1.1462
 6400SOL    HW221454   8.395   8.414   6.566 -1.0114 -0.4067  1.0661
 6401SOL     OW21455   7.765  10.372   1.113  0.0878 -0.2519 -0.7459
 6401SOL    HW121456   7.730  10.292   1.153 -1.8087  0.6541 -0.4604
 6401SOL    HW221457   7.819  10.412   1.181 -0.6920 -0.2378 -0.1167
 6402SOL     OW21458   2.619   9.407   2.190 -0.4715 -0.1462 -0.4506
 6402SOL    HW121459   2.550   9.444   2.136 -0.1974 -0.8793 -1.3245
 6402SOL    HW221460   2.685   9.375   2.128 -0.1740 -1.0686  0.2978
 6403SOL     OW21461   5.127   5.183   7.367 -0.0705 -0.4926 -0.0586
 6403SOL    HW121462   5.075   5.237   7.307 -1.9310 -0.7015  1.3010
 6403SOL    HW221463   5.161   5.245   7.432 -2.6535 -0.9107  1.8178
 6404SOL     OW21464   2.882   5.847   9.976 -0.2021  0.5919  0.1906
 6404SOL    HW121465   2.867   5.754   9.961 -2.1085  1.1576 -2.0832
 6404SOL    HW221466   2.968   5.864   9.937 -0.5971  0.0598 -0.9641
 6405SOL     OW21467   8.335  10.277   2.603  0.1592 -0.7325  0.0464
 6405SOL    HW121468   8.248  10.308   2.629  0.7069  1.5533 -0.6317
 6405SOL    HW221469   8.323  10.249   2.512 -0.1197 -1.6082  0.3442
 6406SOL     OW21470   4.283   7.171   2.331  0.2108  0.2720  0.6353
 6406SOL    HW121471   4.200   7.178   2.284 -0.6433 -0.8101  1.8986
 6406SOL    HW221472   4.345   7.137   2.267 -0.5378  0.2601 -0.0941
 6407SOL     OW21473   0.060   9.123   7.727 -0.1640  0.2766  0.6966
 6407SOL    HW121474  -0.009   9.189   7.735 -2.2620 -1.3987 -1.8263
 6407SOL    HW221475   0.134   9.170   7.689 -0.8721  1.5506  0.8401
 6408SOL     OW21476   4.273   8.300   8.712 -0.5437 -0.4005 -0.2832
 6408SOL    HW121477   4.247   8.269   8.625 -0.6385 -2.9733  0.5507
 6408SOL    HW221478   4.345   8.361   8.696 -2.0491  0.9732 -2.2413
 6409SOL     OW21479   7.305   1.392   1.984 -0.0911 -1.0616  0.2316
 6409SOL    HW121480   7.233   1.329   1.975  2.1106 -3.6468 -0.6116
 6409SOL    HW221481   7.380   1.348   1.944  1.3083  2.7766 -1.8461
 6410SOL     OW21482  10.655   1.080  10.536 -0.0845 -0.2763 -0.2534
 6410SOL    HW121483  10.651   1.029  10.617  0.2170  1.3481  0.8375
 6410SOL    HW221484  10.574   1.059  10.490 -0.5262 -0.8053  0.7399
 6411SOL     OW21485   1.544   2.749   2.931  0.1757 -0.2042  0.5678
 6411SOL    HW121486   1.572   2.804   3.004 -0.0785  1.4743 -0.5176
 6411SOL    HW221487   1.611   2.763   2.864 -0.9677  0.4358 -0.4766
 6412SOL     OW21488   4.343   1.404   2.996 -0.6153  0.1865  0.0582
 6412SOL    HW121489   4.271   1.417   3.058 -1.5455 -1.3813 -0.6393
 6412SOL    HW221490   4.394   1.332   3.034 -1.3691 -1.0030 -1.0766
 6413SOL     OW21491   4.608   0.199   7.634 -0.2515 -0.1796 -0.1530
 6413SOL    HW121492   4.690   0.202   7.683  0.7504 -0.1138 -1.7695
 6413SOL    HW221493   4.634   0.208   7.542 -2.0800 -0.0282 -0.7014
 6414SOL     OW21494   5.048   0.395   8.863 -0.6641 -0.3128  1.0931
 6414SOL    HW121495   5.095   0.325   8.818 -2.0026 -0.9039  0.5640
 6414SOL    HW221496   5.011   0.448   8.792 -3.3266 -1.6059  1.4152
 6415SOL     OW21497   5.914   2.691   0.947  0.4575 -0.0709  0.0014
 6415SOL    HW121498   5.903   2.596   0.955  1.9096 -0.3599 -1.1219
 6415SOL    HW221499   5.994   2.710   0.995 -1.0532  0.9890  2.2784
 6416SOL     OW21500   4.779   9.608   5.527  0.0783  0.2408 -0.3042
 6416SOL    HW121501   4.860   9.658   5.519  0.3335 -0.1735 -0.3708
 6416SOL    HW221502   4.741   9.637   5.610  0.3865  0.3100 -0.1854
 6417SOL     OW21503  10.067   7.435  10.521 -0.1716  0.1106 -0.3427
 6417SOL    HW121504  10.141   7.382  10.491  0.8880  1.3017  0.0806
 6417SOL    HW221505  10.022   7.461  10.440  0.0572 -0.3506 -0.6207
 6418SOL     OW21506   2.146   3.428   7.377 -0.0468  0.6945 -0.5580
 6418SOL    HW121507   2.143   3.402   7.469 -1.1664  0.2221 -0.6989
 6418SOL    HW221508   2.222   3.485   7.370  0.5647  0.0372  0.4731
 6419SOL     OW21509   0.774   3.018   2.200  0.0050 -0.1199  0.0109
 6419SOL    HW121510   0.821   2.964   2.137 -2.4609 -2.8651  0.3273
 6419SOL    HW221511   0.720   3.076   2.147 -0.2291 -0.7062 -0.4032
 6420SOL     OW21512   3.734   0.561   5.560  0.0572 -0.2186 -0.0272
 6420SOL    HW121513   3.757   0.514   5.640  0.9977 -0.3236 -0.3531
 6420SOL    HW221514   3.639   0.570   5.564  0.0343 -0.7638  0.8013
 6421SOL     OW21515   9.201   0.449   5.207  0.2219  0.5691 -0.0079
 6421SOL    HW121516   9.220   0.536   5.243 -0.6736  1.1468 -0.8786
 6421SOL    HW221517   9.259   0.441   5.131  0.2589  0.4266  0.0346
 6422SOL     OW21518   4.712   8.356   3.279 -0.7427 -0.2875  0.2237
 6422SOL    HW121519   4.730   8.441   3.319 -0.6396  1.1710 -2.6412
 6422SOL    HW221520   4.618   8.342   3.294 -1.0752  1.0514 -0.4593
 6423SOL     OW21521   2.812  10.491   2.202  0.0254 -0.4187  0.1098
 6423SOL    HW121522   2.774  10.511   2.288  0.5013 -0.1495  0.2580
 6423SOL    HW221523   2.793  10.398   2.189 -2.1682  0.0746 -0.5697
 6424SOL     OW21524   5.352   6.467   3.467  0.0099 -0.2027 -0.1214
 6424SOL    HW121525   5.365   6.375   3.443 -1.4489  0.0425 -2.1291
 6424SOL    HW221526   5.433   6.491   3.512  0.6153 -2.3310  0.0597
 6425SOL     OW21527   4.666   8.115   0.160 -0.3234 -0.2604 -0.1356
 6425SOL    HW121528   4.711   8.033   0.138  0.3854 -0.4005  1.6699
 6425SOL    HW221529   4.725   8.184   0.130 -0.3546 -0.4198 -0.5656
 6426SOL     OW21530   6.741   4.186   5.063  0.0785  0.3688 -0.6225
 6426SOL    HW121531   6.707   4.261   5.015 -0.7682 -1.1571 -2.5171
 6426SOL    HW221532   6.835   4.188   5.046  0.4633  2.2172  1.2269
 6427SOL     OW21533   7.372   9.168   3.104 -0.5967 -0.6157  0.2922
 6427SOL    HW121534   7.413   9.127   3.180 -1.0507  1.1494  1.5519
 6427SOL    HW221535   7.397   9.260   3.110 -1.7186 -0.2028 -0.9723
 6428SOL     OW21536   5.272   8.274   1.055 -0.1282  0.2231 -0.3029
 6428SOL    HW121537   5.256   8.198   1.112  1.0524 -0.4384 -0.7960
 6428SOL    HW221538   5.325   8.333   1.108  0.3934 -0.0880 -0.4583
 6429SOL     OW21539   5.084  10.100  10.330  0.2500 -0.2619 -0.2718
 6429SOL    HW121540   5.066  10.193  10.321 -0.2411 -0.3838 -0.5880
 6429SOL    HW221541   5.166  10.096  10.379 -0.2840  0.3155  0.6927
 6430SOL     OW21542   6.214   2.788   2.829 -0.0697  0.4482 -0.3169
 6430SOL    HW121543   6.225   2.755   2.740 -0.9294 -0.4909 -0.0934
 6430SOL    HW221544   6.283   2.743   2.879  0.5072  1.0870 -0.5255
 6431SOL     OW21545   2.630  10.041   6.012  0.6302 -0.1323 -0.2959
 6431SOL    HW121546   2.667   9.963   5.971  1.9507  0.0523  0.4594
 6431SOL    HW221547   2.623  10.018   6.105 -1.9670 -0.4245 -0.4829
 6432SOL     OW21548   8.106   7.765   5.425  0.1716  0.2885  0.2266
 6432SOL    HW121549   8.013   7.783   5.441  0.2597  0.6886  0.3113
 6432SOL    HW221550   8.146   7.852   5.421 -0.0172  0.3449 -3.4387
 6433SOL     OW21551   9.379   8.673   3.265 -0.1059  0.1014 -0.3657
 6433SOL    HW121552   9.437   8.629   3.203  0.2094 -0.6203  0.4357
 6433SOL    HW221553   9.423   8.756   3.284  0.9112 -0.6403  0.5953
 6434SOL     OW21554   2.626   0.301  10.060 -0.8282  0.1386  0.4307
 6434SOL    HW121555   2.698   0.271  10.004 -1.6935  1.0990 -1.3106
 6434SOL    HW221556   2.594   0.222  10.102 -0.8790 -0.8705 -1.3961
 6435SOL     OW21557   9.420   3.037   8.323 -0.5850 -0.7160 -0.4600
 6435SOL    HW121558   9.468   3.110   8.283  0.9874  0.0904  2.5877
 6435SOL    HW221559   9.447   2.961   8.272  3.0673 -0.0841  0.2258
 6436SOL     OW21560   8.938   3.568   7.104 -0.3850  0.6293 -0.5270
 6436SOL    HW121561   8.985   3.567   7.021  0.2519  2.7939 -0.2660
 6436SOL    HW221562   9.007   3.580   7.170 -1.1143  2.0910  0.0081
 6437SOL     OW21563   8.730   2.282   9.310 -0.2982 -0.4152 -0.0556
 6437SOL    HW121564   8.668   2.291   9.237  0.2768  0.1446 -0.4774
 6437SOL    HW221565   8.816   2.282   9.269 -0.0217 -2.5196  0.3889
 6438SOL     OW21566   3.393   8.543   0.860 -0.5407 -0.1130 -0.2768
 6438SOL    HW121567   3.374   8.545   0.954 -0.4752  0.1510 -0.2669
 6438SOL    HW221568   3.435   8.628   0.843  0.2010 -0.4972 -0.3843
 6439SOL     OW21569   7.079   8.598   3.262 -0.1012 -0.6936 -0.2051
 6439SOL    HW121570   7.004   8.541   3.281 -0.1155 -0.7557 -0.4445
 6439SOL    HW221571   7.144   8.539   3.225  0.3695 -0.7840  0.7412
 6440SOL     OW21572   4.719   9.683   1.243  0.5699 -0.6726 -0.0725
 6440SOL    HW121573   4.660   9.615   1.210 -1.5713  0.2834  1.5175
 6440SOL    HW221574   4.734   9.740   1.168 -0.9056 -0.7298 -0.4526
 6441SOL     OW21575   8.150   8.044   5.472 -0.4353  0.5560  0.3620
 6441SOL    HW121576   8.134   8.055   5.565 -1.1125  1.4448  0.1621
 6441SOL    HW221577   8.201   8.121   5.447  0.1936  0.0599  0.0971
 6442SOL     OW21578  10.134   9.990   0.882  0.3930  0.4176 -0.0519
 6442SOL    HW121579  10.200   9.996   0.813 -0.5256  1.4871 -0.8943
 6442SOL    HW221580  10.183   9.967   0.961  1.6343  0.3284 -0.8231
 6443SOL     OW21581   4.128   5.398   3.486 -0.2006  0.1787  0.3416
 6443SOL    HW121582   4.190   5.444   3.543 -0.0253  1.0410 -0.5139
 6443SOL    HW221583   4.134   5.306   3.512  0.3237  0.4698  1.2857
 6444SOL     OW21584   9.683   3.502   9.656  0.1702 -1.1261  1.0228
 6444SOL    HW121585   9.682   3.409   9.678  0.4386 -0.9395  1.8729
 6444SOL    HW221586   9.757   3.537   9.706  0.5872 -0.6107  0.0586
 6445SOL     OW21587   3.229  10.608  10.364 -0.2851 -0.8408  0.6658
 6445SOL    HW121588   3.166  10.537  10.376 -0.7539 -0.7439 -0.9576
 6445SOL    HW221589   3.234  10.652  10.449 -2.5976 -0.7187  0.7802
 6446SOL     OW21590   1.570   3.686   4.801 -0.0641  0.1186 -0.0014
 6446SOL    HW121591   1.523   3.735   4.868  0.9260 -0.1498  0.9257
 6446SOL    HW221592   1.502   3.649   4.744 -0.9525 -0.1491  1.2104
 6447SOL     OW21593   2.002   6.389   8.457 -0.0624  0.5311  0.3327
 6447SOL    HW121594   1.916   6.372   8.494 -0.1824 -0.2740 -0.2953
 6447SOL    HW221595   2.045   6.446   8.521 -1.1223  1.0931  0.5584
 6448SOL     OW21596   6.621   5.334   8.542  0.2353  0.2596  0.0531
 6448SOL    HW121597   6.538   5.285   8.542  0.5117 -0.2204  0.0751
 6448SOL    HW221598   6.684   5.273   8.580  0.5990  0.6271  0.0428
 6449SOL     OW21599   7.302   7.616   9.848  0.5102 -0.2112 -0.3555
 6449SOL    HW121600   7.245   7.683   9.810 -0.6809 -0.7941  0.3141
 6449SOL    HW221601   7.257   7.533   9.830  1.6600 -0.7866 -0.6615
 6450SOL     OW21602  10.502   8.221   7.979  0.4274 -0.8772  0.0214
 6450SOL    HW121603  10.414   8.245   7.950  0.2966 -0.3273  0.8360
 6450SOL    HW221604  10.548   8.304   7.986  1.1713 -1.2044 -0.8784
 6451SOL     OW21605   8.494   2.424   2.436 -0.5066 -0.1605 -0.1993
 6451SOL    HW121606   8.441   2.361   2.387 -0.3943  0.8690 -1.7249
 6451SOL    HW221607   8.430   2.484   2.475 -0.5384  0.9273 -1.8237
 6452SOL     OW21608   7.434   8.205   8.787  0.3600 -0.1445 -0.1115
 6452SOL    HW121609   7.528   8.201   8.769  0.1978 -0.0674 -1.0045
 6452SOL    HW221610   7.401   8.119   8.762 -0.0690  0.3708 -1.3873
 6453SOL     OW21611   7.821   0.508   9.643 -0.5883  0.0329 -0.7445
 6453SOL    HW121612   7.896   0.448   9.643 -1.1114 -0.6791  1.0339
 6453SOL    HW221613   7.857   0.592   9.671 -0.1664  0.1266 -1.5417
 6454SOL     OW21614   3.081   1.543   2.381 -0.0886 -0.7454 -0.2193
 6454SOL    HW121615   3.001   1.516   2.426 -1.3908  0.2870 -1.7753
 6454SOL    HW221616   3.076   1.500   2.296  1.9617 -2.1074  0.2788
 6455SOL     OW21617   5.052   5.036   2.135  0.1497  0.0569 -0.4289
 6455SOL    HW121618   5.026   5.011   2.224 -1.5824 -0.1778 -0.9548
 6455SOL    HW221619   5.116   5.106   2.147 -0.8671  0.7906  1.0149
 6456SOL     OW21620   2.704   7.866   1.026  0.1740 -0.2539 -0.2573
 6456SOL    HW121621   2.721   7.904   0.940  1.4283 -0.8550 -0.3084
 6456SOL    HW221622   2.771   7.797   1.035 -0.0292 -0.3011  1.1289
 6457SOL     OW21623   7.961   6.055   2.248 -0.0933  0.2058  0.3130
 6457SOL    HW121624   7.914   6.058   2.164  0.3390 -0.4380  0.0467
 6457SOL    HW221625   8.002   6.142   2.255  0.0834  0.1717 -0.2653
 6458SOL     OW21626   9.755   3.397  10.584 -0.0543 -0.0706 -0.1208
 6458SOL    HW121627   9.835   3.442  10.610  0.7296 -0.7779 -1.2095
 6458SOL    HW221628   9.781   3.342  10.510 -1.4095 -0.7951 -0.1007
 6459SOL     OW21629  10.601   3.328   2.456  0.5224  0.3463 -0.0933
 6459SOL    HW121630  10.683   3.372   2.432  0.7723  0.2158  0.5101
 6459SOL    HW221631  10.624   3.235   2.457  0.1446  0.2389 -0.7767
 6460SOL     OW21632   2.233   5.723   2.678 -0.3335 -0.7531 -0.8990
 6460SOL    HW121633   2.225   5.809   2.719 -2.3526 -1.2258 -0.1845
 6460SOL    HW221634   2.296   5.737   2.607 -0.8327  1.3970 -1.0160
 6461SOL     OW21635   7.789   9.812  10.400 -0.2734 -0.1735 -0.1699
 6461SOL    HW121636   7.735   9.877  10.446 -1.1942 -0.9665 -0.1156
 6461SOL    HW221637   7.844   9.865  10.342  0.9140  0.8720  1.7752
 6462SOL     OW21638   1.395   3.649   3.782 -0.1119 -0.4493 -0.3310
 6462SOL    HW121639   1.392   3.689   3.695  0.4197 -0.0389 -0.1695
 6462SOL    HW221640   1.349   3.711   3.839 -0.7422 -0.8707 -0.3692
 6463SOL     OW21641   1.007   4.887   6.409 -0.5097 -0.3718 -0.1225
 6463SOL    HW121642   1.048   4.932   6.335 -0.5081 -0.1907 -0.0115
 6463SOL    HW221643   1.069   4.899   6.481 -0.9854  0.3386  0.1846
 6464SOL     OW21644   7.320   2.801   0.506  0.2686 -0.2205 -0.4503
 6464SOL    HW121645   7.367   2.752   0.573  0.4816  0.1336 -0.3394
 6464SOL    HW221646   7.264   2.736   0.463 -1.3192 -0.1010  1.3391
 6465SOL     OW21647   7.041   2.618   0.380  0.3180  0.2929  0.0107
 6465SOL    HW121648   6.976   2.605   0.311  0.2850  0.6748 -0.0327
 6465SOL    HW221649   7.123   2.585   0.342  0.3628  0.7743 -0.3286
 6466SOL     OW21650   4.011   2.383  10.287 -0.0363  0.1101 -0.3341
 6466SOL    HW121651   3.940   2.344  10.237  0.0432 -0.2043 -0.2028
 6466SOL    HW221652   4.019   2.472  10.253 -0.0938 -0.0482 -0.7626
 6467SOL     OW21653   5.879   0.877   2.070 -0.2435  0.4618 -0.8034
 6467SOL    HW121654   5.859   0.897   2.161  0.1790 -0.9721 -0.3693
 6467SOL    HW221655   5.968   0.909   2.056 -0.3449  0.7703 -0.7487
 6468SOL     OW21656   4.207   4.505   6.795  0.0939  0.3544 -0.5615
 6468SOL    HW121657   4.237   4.445   6.726  0.2972 -0.8421  0.5255
 6468SOL    HW221658   4.287   4.529   6.842 -0.3718 -2.0258  1.7007
 6469SOL     OW21659   4.407   3.456   8.516 -0.1214 -0.0525  0.1703
 6469SOL    HW121660   4.426   3.434   8.607 -0.9359 -1.8568 -0.0390
 6469SOL    HW221661   4.312   3.445   8.508 -0.0586  0.0296 -0.9118
 6470SOL     OW21662   2.950   5.223   1.574 -0.0605 -0.1311  0.0160
 6470SOL    HW121663   2.943   5.219   1.669  2.1387 -3.2999  0.2078
 6470SOL    HW221664   2.864   5.198   1.542 -0.2353 -1.1932  1.2359
 6471SOL     OW21665  10.053   3.531   6.809 -0.0166  0.4368 -0.2250
 6471SOL    HW121666  10.002   3.506   6.733 -2.7065  1.6979  1.0387
 6471SOL    HW221667  10.001   3.503   6.884  1.8173  0.5712  1.1811
 6472SOL     OW21668   6.132   2.896   6.453  0.5304  0.4080  0.0220
 6472SOL    HW121669   6.216   2.940   6.437  1.3239 -0.3365  1.8343
 6472SOL    HW221670   6.104   2.928   6.539 -0.4019 -0.3230  0.0098
 6473SOL     OW21671   6.114   3.910   6.660 -0.1448  0.1335 -0.8668
 6473SOL    HW121672   6.184   3.962   6.701 -0.3899 -0.2435  0.0560
 6473SOL    HW221673   6.157   3.829   6.633 -0.1797 -0.0120 -0.4882
 6474SOL     OW21674   3.171   8.076   3.414  0.4422 -0.7309 -0.6911
 6474SOL    HW121675   3.257   8.036   3.403  0.5623 -1.4405  2.2306
 6474SOL    HW221676   3.173   8.116   3.500 -1.7730  0.3114 -1.0511
 6475SOL     OW21677   5.374   1.348   4.694 -0.0389 -0.3290  0.2959
 6475SOL    HW121678   5.384   1.279   4.760  0.7250 -0.4521  0.0577
 6475SOL    HW221679   5.462   1.381   4.680  0.1626 -1.6393 -2.0924
 6476SOL     OW21680   2.509   7.579   8.894  0.1296  0.0402  0.5273
 6476SOL    HW121681   2.562   7.597   8.972  1.6690 -1.1585 -0.1930
 6476SOL    HW221682   2.426   7.625   8.911  1.8852  3.3460  1.0501
 6477SOL     OW21683   3.575   1.471   6.371  0.0116  0.8536  0.0697
 6477SOL    HW121684   3.517   1.502   6.301 -0.1976  1.6287  0.5749
 6477SOL    HW221685   3.581   1.377   6.357  0.7336  1.1077 -1.5616
 6478SOL     OW21686   2.752   9.396   5.269 -0.2057  0.3396 -0.4219
 6478SOL    HW121687   2.777   9.470   5.324  0.7432  0.9077 -1.5852
 6478SOL    HW221688   2.664   9.373   5.299  0.1142  0.9002  1.0334
 6479SOL     OW21689   0.024   3.270   7.654 -0.0856  0.1113 -0.5301
 6479SOL    HW121690   0.088   3.282   7.585 -2.7625 -1.0950 -3.4703
 6479SOL    HW221691  -0.055   3.313   7.622 -1.4256 -0.3276  1.8982
 6480SOL     OW21692   8.541   5.142   0.030  0.4469  0.5186  0.1704
 6480SOL    HW121693   8.454   5.105   0.046  0.2176  1.5576  1.4836
 6480SOL    HW221694   8.588   5.127   0.112  1.1674  0.8986 -0.1679
 6481SOL     OW21695   2.465   1.539   6.757  0.1659  0.8477 -0.2998
 6481SOL    HW121696   2.471   1.602   6.685 -2.5893  0.9908 -0.5290
 6481SOL    HW221697   2.528   1.570   6.822  0.9132  2.1730 -1.6003
 6482SOL     OW21698   6.480   3.610  10.567 -0.2240  0.8441  0.4236
 6482SOL    HW121699   6.460   3.699  10.596 -1.1152  1.0743 -0.7939
 6482SOL    HW221700   6.421   3.555  10.618 -0.2974  1.0355  0.5493
 6483SOL     OW21701   9.973   6.341   5.229  0.1837 -0.3991 -0.7291
 6483SOL    HW121702  10.020   6.422   5.250  0.8211 -1.0356  0.3971
 6483SOL    HW221703  10.041   6.275   5.217 -0.3557 -0.9891 -0.6324
 6484SOL     OW21704   5.966   5.981   4.663 -0.0857 -0.5877 -0.2331
 6484SOL    HW121705   6.023   5.905   4.677 -0.2317 -0.6660 -0.0629
 6484SOL    HW221706   6.010   6.053   4.710 -0.1097 -0.6402 -0.1305
 6485SOL     OW21707   0.082   7.689   8.480  0.1883 -0.1542 -0.3985
 6485SOL    HW121708   0.075   7.782   8.502  1.2899 -0.0119 -0.5715
 6485SOL    HW221709   0.002   7.650   8.514  0.9579  0.3560  2.3125
 6486SOL     OW21710   8.305   3.590   3.060 -0.6457  0.4994 -0.4691
 6486SOL    HW121711   8.340   3.659   3.004  0.1004 -0.9679 -1.8948
 6486SOL    HW221712   8.378   3.529   3.071 -1.3297 -0.1551  0.6305
 6487SOL     OW21713   2.953   1.752   1.258 -0.0571 -0.0464  0.9550
 6487SOL    HW121714   2.982   1.817   1.195 -1.7462 -0.2050 -0.0733
 6487SOL    HW221715   2.864   1.779   1.281 -0.9339 -2.0914  0.2580
 6488SOL     OW21716   6.628   6.677   3.169  0.1470  0.3612 -0.0093
 6488SOL    HW121717   6.687   6.748   3.192 -0.0655  0.1798  1.1970
 6488SOL    HW221718   6.550   6.720   3.136  0.8832  0.6041 -1.4930
 6489SOL     OW21719   5.422   6.097   6.194 -0.0273  1.1234 -0.6673
 6489SOL    HW121720   5.457   6.065   6.277 -2.3911 -1.6554 -0.5839
 6489SOL    HW221721   5.499   6.121   6.144  1.8931 -1.9497  0.5051
 6490SOL     OW21722   3.151   9.077   2.309 -0.9627 -0.3695 -0.2925
 6490SOL    HW121723   3.223   9.036   2.356 -0.2976 -0.0226 -0.9907
 6490SOL    HW221724   3.146   9.029   2.225 -0.2617  0.8603 -1.0596
 6491SOL     OW21725   4.146   2.073   9.444  0.4691 -0.0157  0.4121
 6491SOL    HW121726   4.099   2.092   9.363  1.8424  1.7918 -0.0496
 6491SOL    HW221727   4.079   2.073   9.512 -0.4853  0.0918 -0.5049
 6492SOL     OW21728   2.186   8.460   5.142 -0.3132 -0.5225 -0.4156
 6492SOL    HW121729   2.257   8.418   5.190  0.9200  1.3169 -0.5195
 6492SOL    HW221730   2.160   8.397   5.075  0.6564 -1.5522  0.1618
 6493SOL     OW21731   3.075   2.961   0.364  0.0592 -0.4974 -0.0879
 6493SOL    HW121732   3.119   2.906   0.429  0.0142  0.5287  0.8424
 6493SOL    HW221733   3.071   3.047   0.405 -0.1837  0.1217 -1.3723
 6494SOL     OW21734   0.486   6.069   6.313 -0.1465 -0.6487 -0.5912
 6494SOL    HW121735   0.510   6.107   6.398 -0.4574 -1.8821  0.0661
 6494SOL    HW221736   0.569   6.058   6.267  0.1651 -1.2236  0.0987
 6495SOL     OW21737   7.297   4.934   6.255 -0.1742  0.2694 -0.5106
 6495SOL    HW121738   7.307   5.022   6.292 -1.4700  0.1616  0.1532
 6495SOL    HW221739   7.384   4.911   6.223  0.2645  1.6404 -0.3397
 6496SOL     OW21740   2.525   5.656   9.060 -0.6851  0.2331  0.2183
 6496SOL    HW121741   2.448   5.613   9.097 -0.6262 -1.2584 -1.3007
 6496SOL    HW221742   2.575   5.685   9.136 -0.5493 -2.7387  1.3936
 6497SOL     OW21743   4.077   1.315   9.723  0.1377 -0.1282  0.2159
 6497SOL    HW121744   4.129   1.379   9.674 -0.1688 -0.8826 -1.1587
 6497SOL    HW221745   3.989   1.322   9.684 -0.0823 -0.8292  0.5807
 6498SOL     OW21746   7.273   5.223   4.107 -0.1372  0.0445 -0.0774
 6498SOL    HW121747   7.318   5.287   4.052 -0.3662  0.2453 -0.0352
 6498SOL    HW221748   7.313   5.233   4.193  0.2998 -0.3481 -0.2277
 6499SOL     OW21749   9.802   8.756   2.324  0.3420 -0.0698 -0.3169
 6499SOL    HW121750   9.852   8.811   2.264 -1.3297  0.5018 -1.2491
 6499SOL    HW221751   9.841   8.773   2.410  1.2692  0.8899 -0.8999
 6500SOL     OW21752   4.926   5.700   7.850  0.2225  0.2089  0.7278
 6500SOL    HW121753   4.949   5.750   7.928  0.5564  2.1164 -0.5498
 6500SOL    HW221754   5.005   5.700   7.796 -0.1003 -0.8183  0.2253
 6501SOL     OW21755   0.961   9.800   0.749  0.1115  0.5625 -0.5201
 6501SOL    HW121756   0.901   9.873   0.736  0.1457  0.8049  0.5723
 6501SOL    HW221757   0.967   9.758   0.664  0.6321  2.2517 -1.3679
 6502SOL     OW21758   1.520   7.164   3.132 -0.4273  0.1891 -0.1084
 6502SOL    HW121759   1.555   7.140   3.218 -2.3643  0.4971  0.8210
 6502SOL    HW221760   1.533   7.259   3.126  0.3977  0.0614 -0.5124
 6503SOL     OW21761   1.406   9.343   9.561 -0.3832  0.3152 -0.8158
 6503SOL    HW121762   1.465   9.336   9.636 -0.3852 -1.0368 -0.9262
 6503SOL    HW221763   1.462   9.327   9.485 -0.5904  0.6111 -1.0306
 6504SOL     OW21764   5.822   1.434   2.266  0.0323 -0.6280  0.1959
 6504SOL    HW121765   5.757   1.408   2.201 -0.0474  0.4888 -0.1848
 6504SOL    HW221766   5.773   1.438   2.349 -0.5517  0.7857 -0.1854
 6505SOL     OW21767   2.546   9.451   1.911 -0.1819  0.0022  0.0714
 6505SOL    HW121768   2.555   9.400   1.830  1.6947  0.8170 -0.2818
 6505SOL    HW221769   2.546   9.542   1.881  0.7729  0.3219  0.9922
 6506SOL     OW21770   2.926   3.388   4.429 -0.6672 -0.3188 -0.2346
 6506SOL    HW121771   2.955   3.435   4.350 -0.1018 -0.2810 -0.0083
 6506SOL    HW221772   2.854   3.333   4.398  2.0948 -3.4649 -1.7612
 6507SOL     OW21773  10.069   8.501   4.278 -0.0886 -0.2516  0.4739
 6507SOL    HW121774   9.987   8.469   4.317 -0.4736 -0.0893 -0.1970
 6507SOL    HW221775  10.042   8.544   4.197  0.7712 -1.1977 -0.3430
 6508SOL     OW21776   8.522   1.607   0.068 -0.1068 -0.3074  0.2287
 6508SOL    HW121777   8.510   1.525   0.019 -0.3158 -1.3627  1.9761
 6508SOL    HW221778   8.433   1.636   0.088 -0.0160  0.0424  0.1366
 6509SOL     OW21779   8.347   1.075   9.412  0.6475 -0.0861 -0.3520
 6509SOL    HW121780   8.439   1.070   9.385  0.7129 -1.1927  0.0161
 6509SOL    HW221781   8.322   1.166   9.395  1.5487  0.0091 -1.2928
 6510SOL     OW21782   0.533   2.103   0.717  0.0224 -0.1941 -0.4832
 6510SOL    HW121783   0.444   2.068   0.721  0.6204 -1.9833 -1.4626
 6510SOL    HW221784   0.582   2.050   0.779  0.0539  2.1486  1.6287
 6511SOL     OW21785   8.156   3.441   5.413 -0.0252 -0.2904  0.6743
 6511SOL    HW121786   8.086   3.503   5.434  1.2845  1.5809 -0.1613
 6511SOL    HW221787   8.138   3.414   5.323  0.1103 -0.0687  0.5776
 6512SOL     OW21788   1.872   5.279   0.300 -0.0145  0.0754 -0.1359
 6512SOL    HW121789   1.840   5.352   0.247 -2.2675 -0.1945  0.7229
 6512SOL    HW221790   1.957   5.257   0.262 -0.4059  1.5135 -1.9955
 6513SOL     OW21791   9.061   4.555   5.864 -0.2085 -0.5802  0.2652
 6513SOL    HW121792   9.146   4.600   5.866 -1.4083  2.0432 -1.3141
 6513SOL    HW221793   9.014   4.589   5.940 -0.3252 -0.9777  0.3742
 6514SOL     OW21794   6.557   3.552   3.412 -0.4614  0.2069  0.6150
 6514SOL    HW121795   6.558   3.646   3.428  0.0948 -0.0150  2.0054
 6514SOL    HW221796   6.482   3.538   3.354  0.2789  1.6610 -0.7674
 6515SOL     OW21797   8.933   8.574   9.898 -0.0920  0.2149  0.2626
 6515SOL    HW121798   8.925   8.546   9.807 -1.7525  0.3009  0.3642
 6515SOL    HW221799   8.969   8.662   9.893  0.3828 -0.0047 -0.2712
 6516SOL     OW21800   0.195   5.136   8.055  0.5322  0.3310 -0.6533
 6516SOL    HW121801   0.129   5.068   8.042 -1.3388  2.1157 -0.9309
 6516SOL    HW221802   0.272   5.104   8.008 -0.6045 -1.1292 -1.6204
 6517SOL     OW21803   0.540   5.004   4.276  0.2298  0.1025  0.4960
 6517SOL    HW121804   0.490   4.923   4.289  1.5067 -0.4812  2.0953
 6517SOL    HW221805   0.475   5.070   4.253 -0.9392 -1.1921  0.0059
 6518SOL     OW21806   4.148   8.315   7.477 -0.3238 -0.3278  0.1232
 6518SOL    HW121807   4.070   8.356   7.514  0.0475 -0.6892  1.3862
 6518SOL    HW221808   4.219   8.343   7.536  0.6845  0.7625 -1.5205
 6519SOL     OW21809   9.020   5.384   4.391  0.1277  0.1878 -0.3430
 6519SOL    HW121810   8.998   5.448   4.323  1.5338 -0.4050 -1.3915
 6519SOL    HW221811   9.069   5.434   4.456 -0.7256  0.6322 -0.0208
 6520SOL     OW21812   7.318   3.806   9.338 -0.3861  0.6636  0.7374
 6520SOL    HW121813   7.375   3.746   9.387  0.5393  2.4526  1.9919
 6520SOL    HW221814   7.378   3.872   9.302 -1.4904  1.7656  0.8414
 6521SOL     OW21815   2.700   0.025   3.427 -0.3476  0.6693  0.2736
 6521SOL    HW121816   2.698   0.120   3.419  0.6395  0.8469  1.7301
 6521SOL    HW221817   2.791   0.001   3.407 -0.0630  0.2756  1.9001
 6522SOL     OW21818   3.882   9.035  10.196  0.1918 -0.2310 -0.3370
 6522SOL    HW121819   3.894   8.947  10.232 -0.5323 -0.5998 -0.9718
 6522SOL    HW221820   3.929   9.092  10.256  3.4303 -1.3534 -1.5758
 6523SOL     OW21821   1.115   1.015   4.551 -0.2304 -0.1403 -0.0691
 6523SOL    HW121822   1.169   0.990   4.626  0.1537 -1.1338 -0.6528
 6523SOL    HW221823   1.144   0.957   4.480 -0.5734  0.7768 -0.9907
 6524SOL     OW21824   3.441   6.539   1.509 -0.2537  0.7630 -0.2346
 6524SOL    HW121825   3.443   6.446   1.487 -0.0660  0.7644 -0.2254
 6524SOL    HW221826   3.452   6.542   1.604 -1.4797  0.7365 -0.0824
 6525SOL     OW21827   2.128   0.334   9.162 -0.3347 -0.9395 -0.0118
 6525SOL    HW121828   2.125   0.304   9.253 -1.7008 -2.8003 -0.6082
 6525SOL    HW221829   2.089   0.263   9.112  0.4405  0.0137 -2.0903
 6526SOL     OW21830   3.194   3.677   7.065  0.4939  0.3284  0.9303
 6526SOL    HW121831   3.282   3.714   7.071  0.3214  0.6796  1.3278
 6526SOL    HW221832   3.185   3.653   6.973  0.8546  0.6649  0.8023
 6527SOL     OW21833   8.203   9.931   6.807  0.6868 -0.3290  0.5876
 6527SOL    HW121834   8.248  10.013   6.786  1.5308 -0.7614  0.6270
 6527SOL    HW221835   8.194   9.933   6.902  0.8824 -0.3619  0.6083
 6528SOL     OW21836   0.366   1.129   8.373  0.6533 -0.3915 -0.2499
 6528SOL    HW121837   0.366   1.113   8.279  1.6415  0.4276 -0.4129
 6528SOL    HW221838   0.456   1.109   8.400  0.9629  1.3264  0.1385
 6529SOL     OW21839   6.448   1.553   3.208 -0.9553  0.2955  0.1434
 6529SOL    HW121840   6.483   1.466   3.194 -0.1813  0.1202  2.6458
 6529SOL    HW221841   6.398   1.572   3.129 -0.8955 -2.2754 -0.6018
 6530SOL     OW21842   3.707   9.095   2.216  0.2147  0.5527  0.0962
 6530SOL    HW121843   3.629   9.045   2.192  0.7261 -1.9393  2.9113
 6530SOL    HW221844   3.700   9.105   2.311  4.1605 -1.6122  0.8350
 6531SOL     OW21845   4.121   3.821   3.336  0.4794  0.2542  0.4731
 6531SOL    HW121846   4.161   3.752   3.389 -0.5288 -1.0006 -0.3360
 6531SOL    HW221847   4.032   3.829   3.372  0.4969  0.9413  0.3740
 6532SOL     OW21848   1.872   0.500   6.982  0.7911  0.2109  0.0505
 6532SOL    HW121849   1.920   0.488   7.065  0.1187 -0.4145  0.3598
 6532SOL    HW221850   1.781   0.511   7.009  0.2831 -1.7688 -0.6596
 6533SOL     OW21851   4.238   4.868   6.856  0.1602 -0.4352 -0.0753
 6533SOL    HW121852   4.232   4.834   6.946  0.4289 -0.9347 -0.2433
 6533SOL    HW221853   4.147   4.880   6.829  0.0340 -1.4937 -0.1832
 6534SOL     OW21854   1.883   0.935   2.395 -0.2756  0.1121 -0.4607
 6534SOL    HW121855   1.971   0.971   2.395  0.1866 -0.9584 -0.7052
 6534SOL    HW221856   1.896   0.840   2.401 -1.4441  0.0084  1.1328
 6535SOL     OW21857   8.409   7.220  10.253  0.6520  0.3579  0.3837
 6535SOL    HW121858   8.320   7.254  10.242  1.8027  3.5744 -0.0727
 6535SOL    HW221859   8.452   7.282  10.312  2.9005 -0.4535 -0.2704
 6536SOL     OW21860   3.479   1.806   6.984 -0.3238  0.1540 -0.6958
 6536SOL    HW121861   3.510   1.716   6.985 -1.3200 -0.1937  0.2879
 6536SOL    HW221862   3.556   1.858   7.005 -0.2543 -0.6626  1.2388
 6537SOL     OW21863   1.971  10.332   4.065  0.4215  0.3219 -0.1593
 6537SOL    HW121864   1.968  10.337   4.161 -1.3984 -0.8166 -0.1197
 6537SOL    HW221865   1.893  10.379   4.036  1.3365  1.2804 -1.1485
 6538SOL     OW21866  10.591   4.565   5.138 -0.1841 -0.7404 -0.0017
 6538SOL    HW121867  10.598   4.591   5.046  1.8390 -0.8033  0.0874
 6538SOL    HW221868  10.551   4.640   5.182 -1.4598 -0.8248 -0.9507
 6539SOL     OW21869   2.607   4.091   6.993 -0.1867  0.0213  0.8312
 6539SOL    HW121870   2.665   4.140   6.935  1.3275 -1.2662  1.2097
 6539SOL    HW221871   2.664   4.031   7.040 -1.8967 -1.7404  0.7954
 6540SOL     OW21872   7.047   3.537   0.751 -0.7329  0.2193 -0.1353
 6540SOL    HW121873   7.112   3.553   0.683  0.8735  0.8790  1.4537
 6540SOL    HW221874   7.053   3.443   0.769 -2.0431 -0.2128 -1.6600
 6541SOL     OW21875   1.496   3.191   0.782 -0.8182 -0.2878 -0.0944
 6541SOL    HW121876   1.471   3.161   0.694 -0.1665  0.1145 -0.4287
 6541SOL    HW221877   1.464   3.281   0.786 -0.4751 -0.1664 -0.0813
 6542SOL     OW21878   1.776   5.430   4.485  0.0433 -0.0949  0.0114
 6542SOL    HW121879   1.830   5.508   4.493  0.4384 -0.3739  0.1231
 6542SOL    HW221880   1.695   5.451   4.532 -0.3643  0.6898 -1.0036
 6543SOL     OW21881   2.963   1.264   5.294  0.0194  0.5771  0.3758
 6543SOL    HW121882   2.935   1.287   5.206 -0.7263  0.9591  0.6987
 6543SOL    HW221883   3.018   1.338   5.322 -0.2613  0.7533  0.4629
 6544SOL     OW21884   2.335   0.468   6.860 -0.2231 -0.2057  0.3218
 6544SOL    HW121885   2.276   0.433   6.926 -0.1917 -1.1008 -0.1030
 6544SOL    HW221886   2.343   0.561   6.881 -1.3949 -0.1711  0.6704
 6545SOL     OW21887   5.463   4.932   6.569 -0.4016 -0.0122  0.5239
 6545SOL    HW121888   5.506   4.963   6.648  0.9703  0.2997 -0.3060
 6545SOL    HW221889   5.462   5.008   6.511 -0.2637 -0.5601 -0.2127
 6546SOL     OW21890   7.688   1.506   3.984 -0.2896  0.4893 -0.6695
 6546SOL    HW121891   7.685   1.511   4.080  1.4814 -0.1282 -0.5363
 6546SOL    HW221892   7.758   1.567   3.960 -0.2764  0.1359 -1.5278
 6547SOL     OW21893   5.644   8.398   0.367 -0.2679  0.6155 -0.2790
 6547SOL    HW121894   5.702   8.398   0.291 -0.3474  1.4835 -0.3418
 6547SOL    HW221895   5.556   8.409   0.329 -0.3606  0.5103 -0.0957
 6548SOL     OW21896   5.073  10.142   9.387 -0.4837 -0.0197 -0.4676
 6548SOL    HW121897   4.995  10.195   9.404 -0.4574  0.0297 -0.4987
 6548SOL    HW221898   5.085  10.091   9.466  0.3046  1.0468  0.1198
 6549SOL     OW21899   4.409   2.915   3.919 -0.0242  0.7397 -0.8805
 6549SOL    HW121900   4.346   2.849   3.893 -0.3668  0.5172  0.4172
 6549SOL    HW221901   4.490   2.891   3.874 -0.1168 -0.6205 -0.3707
 6550SOL     OW21902   5.600   8.158   7.510  0.1834  0.2525  0.2579
 6550SOL    HW121903   5.636   8.172   7.598  0.6552  0.3908  0.0499
 6550SOL    HW221904   5.631   8.071   7.486 -0.5495 -0.0844  0.5096
 6551SOL     OW21905  10.305  10.242   0.808  0.1866 -0.2383 -0.3715
 6551SOL    HW121906  10.268  10.240   0.720  0.9210 -1.3293 -0.6727
 6551SOL    HW221907  10.354  10.324   0.811  0.2066 -0.2181 -1.0059
 6552SOL     OW21908   4.705   7.635   8.450  0.3419 -0.1567  0.1598
 6552SOL    HW121909   4.660   7.713   8.484  2.6649  0.9868  0.8018
 6552SOL    HW221910   4.658   7.562   8.489 -1.9372  0.8618 -0.4791
 6553SOL     OW21911   4.991   3.269   3.188  0.2208  0.2282 -0.1878
 6553SOL    HW121912   5.056   3.239   3.251  0.7730  1.3944 -0.1893
 6553SOL    HW221913   5.032   3.343   3.144 -1.3002  1.3201  0.1635
 6554SOL     OW21914   9.391   0.058   4.021 -0.4653  0.4297 -0.4348
 6554SOL    HW121915   9.353  -0.030   4.016 -1.6318  0.8201  0.9892
 6554SOL    HW221916   9.346   0.107   3.952 -0.7653  0.2549 -0.3636
 6555SOL     OW21917   0.735   3.359   1.236 -0.1407  0.2621  0.7927
 6555SOL    HW121918   0.808   3.299   1.221  0.2664  0.9718 -0.1970
 6555SOL    HW221919   0.658   3.302   1.243  0.3691 -0.4304  0.8638
 6556SOL     OW21920  10.065   4.714   6.059  0.3940 -0.1570  0.0233
 6556SOL    HW121921  10.128   4.775   6.020  0.1005 -0.5265 -1.0675
 6556SOL    HW221922  10.035   4.758   6.138  1.0201  0.6191 -0.1588
 6557SOL     OW21923  10.480   2.160   1.985 -0.3108  0.5556  0.1874
 6557SOL    HW121924  10.436   2.228   2.037 -0.7011  0.7232 -0.3578
 6557SOL    HW221925  10.437   2.163   1.900  0.5998  0.5575 -0.2854
 6558SOL     OW21926   5.945   1.464   8.893 -0.0685 -0.4066 -0.0834
 6558SOL    HW121927   5.913   1.384   8.934  0.9090 -1.4218 -1.2538
 6558SOL    HW221928   5.930   1.452   8.800  0.4016  0.6334 -0.3067
 6559SOL     OW21929   6.967   8.930  10.451  0.4547 -0.2008 -0.4119
 6559SOL    HW121930   6.942   8.867  10.383  0.7083  1.3133 -1.9895
 6559SOL    HW221931   7.062   8.919  10.460  0.4504 -0.2747 -0.4574
 6560SOL     OW21932   5.396   9.101   1.595 -0.5047  0.2590  0.3542
 6560SOL    HW121933   5.393   9.036   1.664 -1.6109 -0.8826 -0.7073
 6560SOL    HW221934   5.314   9.088   1.546  0.3376  0.8664 -1.3010
 6561SOL     OW21935   0.091   6.440   6.791  0.4922  0.0641 -0.1837
 6561SOL    HW121936   0.012   6.437   6.737 -1.1520 -1.2307  2.1589
 6561SOL    HW221937   0.162   6.452   6.727 -1.6172  2.9919 -2.2802
 6562SOL     OW21938   5.852   1.706   6.175 -0.3364 -0.4160  0.1958
 6562SOL    HW121939   5.900   1.783   6.147 -2.8303  0.8823 -0.8089
 6562SOL    HW221940   5.799   1.736   6.249 -1.2745 -1.1433 -0.1520
 6563SOL     OW21941   1.321   0.571   0.784 -0.2511  0.3840 -0.4312
 6563SOL    HW121942   1.274   0.626   0.847 -0.1668 -0.9757  0.8783
 6563SOL    HW221943   1.254   0.516   0.745 -0.1072  0.2177 -0.4478
 6564SOL     OW21944   1.946   6.015   3.587  0.3652 -0.0130  0.4497
 6564SOL    HW121945   2.030   6.060   3.592  1.0444 -0.9714 -1.3463
 6564SOL    HW221946   1.881   6.082   3.609  1.3665  1.7279 -1.5299
 6565SOL     OW21947   5.657   5.628   4.681  0.6422  0.2002 -0.6967
 6565SOL    HW121948   5.648   5.658   4.772 -0.4132  0.0168 -0.7349
 6565SOL    HW221949   5.752   5.623   4.668  0.8137  0.2139  0.3996
 6566SOL     OW21950   2.005   9.880  10.605  0.1836 -0.6581  0.3253
 6566SOL    HW121951   1.985   9.967  10.570  1.2538 -0.3869  0.3470
 6566SOL    HW221952   1.944   9.869  10.678  0.5428  0.4028  0.8143
 6567SOL     OW21953   9.633   7.971   6.642  0.2402 -0.0839  0.1447
 6567SOL    HW121954   9.591   8.055   6.623 -1.4435 -0.6880  0.9897
 6567SOL    HW221955   9.703   7.993   6.703 -0.2238  0.7074  0.4132
 6568SOL     OW21956   6.499   1.387   8.247  0.4308 -0.6219  0.2504
 6568SOL    HW121957   6.441   1.364   8.174 -1.0628 -0.9281  1.4886
 6568SOL    HW221958   6.440   1.409   8.319  1.8281  1.4248  0.8828
 6569SOL     OW21959   9.057   2.125   0.449  0.1862 -0.5164 -0.0455
 6569SOL    HW121960   9.044   2.167   0.364 -0.7041  0.1732  0.4166
 6569SOL    HW221961   9.000   2.048   0.447 -1.1032  0.3902  0.5199
 6570SOL     OW21962   2.474   1.867   0.368 -0.5392  0.6308 -0.1111
 6570SOL    HW121963   2.393   1.851   0.319 -1.7038 -1.1833  2.2165
 6570SOL    HW221964   2.542   1.826   0.315 -1.8500 -1.9115  0.0171
 6571SOL     OW21965   4.042   8.715   1.608  0.5147  0.2308  0.4855
 6571SOL    HW121966   4.096   8.795   1.606 -0.6774  1.0810 -1.5418
 6571SOL    HW221967   3.952   8.747   1.611 -0.0238 -0.9701 -1.1916
 6572SOL     OW21968   7.345   9.520   5.963  0.1387 -0.6141  0.3792
 6572SOL    HW121969   7.273   9.464   5.994  0.7029 -1.5874 -0.0415
 6572SOL    HW221970   7.366   9.575   6.039 -1.2043 -0.1304  0.4377
 6573SOL     OW21971   6.659   3.233   8.635  0.4621 -0.1638  0.7443
 6573SOL    HW121972   6.613   3.150   8.623  1.3705 -0.6475  0.4724
 6573SOL    HW221973   6.677   3.237   8.729 -0.5007  0.2378  0.9176
 6574SOL     OW21974  10.385   3.769   5.306 -0.3408 -0.4532 -0.3644
 6574SOL    HW121975  10.467   3.796   5.264  0.4056 -1.8041  0.1563
 6574SOL    HW221976  10.318   3.823   5.264  0.9248  1.4869 -0.0365
 6575SOL     OW21977   6.481   2.883   9.132  0.1333 -0.4289  0.1574
 6575SOL    HW121978   6.474   2.960   9.076  0.0207 -0.3954  0.2173
 6575SOL    HW221979   6.391   2.866   9.161  0.3738  0.3398  1.4020
 6576SOL     OW21980   0.493   5.748   3.906  0.1083  0.2439 -0.4098
 6576SOL    HW121981   0.550   5.678   3.938  1.8802  1.0167 -1.7160
 6576SOL    HW221982   0.428   5.704   3.851  1.4449 -0.3788 -1.5480
 6577SOL     OW21983   1.980   3.209   8.511  0.3822 -0.1493  0.1576
 6577SOL    HW121984   2.064   3.176   8.544  0.3928 -0.0997  0.1798
 6577SOL    HW221985   1.988   3.204   8.416  0.7052  0.6020  0.1435
 6578SOL     OW21986   7.191   0.465   6.204 -0.4145 -0.1563  0.6927
 6578SOL    HW121987   7.139   0.486   6.127  1.4251 -1.3938 -1.0011
 6578SOL    HW221988   7.281   0.458   6.171  0.4857 -0.5173  3.0041
 6579SOL     OW21989   0.826   3.125   2.437 -0.2166  0.0844  0.6324
 6579SOL    HW121990   0.819   3.093   2.347  1.8271  1.8036 -0.2275
 6579SOL    HW221991   0.920   3.131   2.453 -0.3828  4.3175  1.0888
 6580SOL     OW21992   8.341   8.291   3.759 -0.5188 -0.1742 -0.1317
 6580SOL    HW121993   8.354   8.262   3.669  0.8565 -0.6093  0.1821
 6580SOL    HW221994   8.349   8.212   3.812  1.6678  0.4511  0.5915
 6581SOL     OW21995   2.094   0.038   4.255 -0.0096  0.3701  0.0698
 6581SOL    HW121996   2.012  -0.008   4.270 -0.9115  2.2249  1.1080
 6581SOL    HW221997   2.124   0.005   4.170 -1.7412 -0.4569 -0.2660
 6582SOL     OW21998   7.685   8.818   6.962  0.2773 -0.4551  0.4109
 6582SOL    HW121999   7.605   8.780   6.927 -0.7556  0.6220  1.5102
 6582SOL    HW222000   7.660   8.905   6.992  2.0712  0.2505 -0.0007
 6583SOL     OW22001   4.046   0.766   6.378 -0.1094  0.0899  0.2902
 6583SOL    HW122002   4.000   0.728   6.453  0.9490  0.4528  1.1389
 6583SOL    HW222003   4.138   0.758   6.399  0.1777  2.2442  0.0736
 6584SOL     OW22004   4.906  10.300  10.570 -0.0157 -0.8303  1.0008
 6584SOL    HW122005   4.936  10.389  10.552  1.6453 -1.8540 -2.2483
 6584SOL    HW222006   4.970  10.265  10.632  0.3856 -0.2997  0.8937
 6585SOL     OW22007   3.452   0.523   5.585  0.1013 -0.1028  0.3118
 6585SOL    HW122008   3.388   0.509   5.655  0.6150 -0.6321  0.6784
 6585SOL    HW222009   3.438   0.449   5.525  0.5149 -0.3417  0.5055
 6586SOL     OW22010   6.754   5.161   0.557 -0.5675 -0.5729  0.2639
 6586SOL    HW122011   6.811   5.233   0.584 -0.8918 -0.5138  0.8144
 6586SOL    HW222012   6.776   5.145   0.465 -2.8094  2.5380 -0.9995
 6587SOL     OW22013   0.249   2.324   7.908  0.0286 -0.3303 -0.0506
 6587SOL    HW122014   0.305   2.381   7.960 -1.5015  0.0245  1.2986
 6587SOL    HW222015   0.169   2.375   7.894 -0.4212 -1.2405 -0.8994
 6588SOL     OW22016   9.652   4.024   0.555  0.3414 -0.0095  0.2984
 6588SOL    HW122017   9.577   3.966   0.569  0.1688 -0.4333 -1.9611
 6588SOL    HW222018   9.717   3.995   0.619 -0.3452 -1.6421  0.3076
 6589SOL     OW22019  10.064   7.354   5.326 -0.8488  0.1479 -0.3194
 6589SOL    HW122020  10.026   7.364   5.414 -1.4601 -1.2748 -0.3909
 6589SOL    HW222021   9.993   7.319   5.273 -0.5543  1.2297 -1.4785
 6590SOL     OW22022   6.381   2.686   7.643  0.2123 -0.2875 -0.0461
 6590SOL    HW122023   6.410   2.775   7.624  0.6626 -0.8973 -2.6151
 6590SOL    HW222024   6.325   2.695   7.720 -0.6375  2.3811 -0.8519
 6591SOL     OW22025   5.628   4.248   5.068  0.6689 -0.1282 -0.1825
 6591SOL    HW122026   5.707   4.208   5.031  1.5699  1.6027 -0.1767
 6591SOL    HW222027   5.659   4.308   5.135 -0.7451 -0.3144  0.6912
 6592SOL     OW22028   3.705   9.337   6.837 -0.0954  0.2869  1.2025
 6592SOL    HW122029   3.765   9.314   6.765 -0.1668  0.5908  1.0464
 6592SOL    HW222030   3.733   9.280   6.909 -0.2798 -0.3035  0.8154
 6593SOL     OW22031   6.059   3.155   1.663 -0.1019  0.7549 -0.6844
 6593SOL    HW122032   6.090   3.085   1.605 -0.8709  1.7349 -2.3609
 6593SOL    HW222033   6.132   3.216   1.667  0.2391  0.3162  0.0549
 6594SOL     OW22034   5.275   1.470   1.123  0.5256 -0.0467 -0.1804
 6594SOL    HW122035   5.315   1.476   1.210 -1.3506  1.6139  0.6366
 6594SOL    HW222036   5.305   1.549   1.078 -0.1648  0.1597 -0.2873
 6595SOL     OW22037   4.352   7.476   8.888  0.0778  0.6799 -0.0248
 6595SOL    HW122038   4.404   7.473   8.969  1.1972 -0.5269 -0.7465
 6595SOL    HW222039   4.361   7.566   8.857  1.7615  0.5097 -0.1121
 6596SOL     OW22040   0.650   9.155   9.513 -0.2212 -0.4928 -0.0307
 6596SOL    HW122041   0.702   9.235   9.520  0.8842 -1.2043  0.1478
 6596SOL    HW222042   0.565   9.178   9.553 -0.6711  1.1823 -1.8075
 6597SOL     OW22043   0.097   3.068   5.077  0.8294 -0.2042 -0.1671
 6597SOL    HW122044   0.063   2.998   5.133  1.2619  0.1471  0.5441
 6597SOL    HW222045   0.155   3.118   5.134  1.9298 -0.3217 -1.1561
 6598SOL     OW22046   7.229   4.963   2.348 -0.1864 -0.1057  0.1742
 6598SOL    HW122047   7.227   5.011   2.431  1.0635 -0.4067  0.4012
 6598SOL    HW222048   7.196   4.876   2.370 -0.4221 -0.0055  0.2217
 6599SOL     OW22049   1.792   6.697   5.483  0.6223 -0.4093  0.1480
 6599SOL    HW122050   1.783   6.602   5.473  0.7022 -0.5108  0.9554
 6599SOL    HW222051   1.786   6.731   5.394 -1.1878 -1.0136 -0.0092
 6600SOL     OW22052   9.014   8.577   1.596 -0.3979  0.4373 -0.6541
 6600SOL    HW122053   9.055   8.653   1.556 -1.1645  0.2183 -1.9010
 6600SOL    HW222054   8.992   8.606   1.684  0.3596  1.2765 -0.7196
 6601SOL     OW22055  10.625   0.428   6.656 -0.2516  0.4908 -0.1223
 6601SOL    HW122056  10.623   0.357   6.591 -0.9094  1.3895 -1.1107
 6601SOL    HW222057  10.708   0.414   6.703 -0.4773 -1.0728 -0.1176
 6602SOL     OW22058   7.580   8.244   6.036  0.2473 -0.2137  0.2891
 6602SOL    HW122059   7.619   8.269   6.120  0.7584 -1.1112  0.3324
 6602SOL    HW222060   7.653   8.248   5.974  0.0362 -0.2842  0.0369
 6603SOL     OW22061   4.299   3.404   7.591 -0.5068  0.3579 -0.0354
 6603SOL    HW122062   4.329   3.487   7.556 -0.0057  0.1889 -0.0138
 6603SOL    HW222063   4.303   3.343   7.517 -0.8498  0.3431 -0.0459
 6604SOL     OW22064  10.398   4.374   6.812  0.4835 -0.4102  0.6293
 6604SOL    HW122065  10.307   4.345   6.806  0.5482 -0.3268 -1.8079
 6604SOL    HW222066  10.403   4.448   6.751  2.3299 -0.8385  0.2070
 6605SOL     OW22067   2.497   4.684   6.825  0.0996  0.1769  0.2970
 6605SOL    HW122068   2.462   4.773   6.813 -0.9622 -0.0767  1.2412
 6605SOL    HW222069   2.448   4.650   6.900  1.0056 -0.9536  0.3996
 6606SOL     OW22070   4.888   2.142   7.544  0.2158  0.3479 -0.1903
 6606SOL    HW122071   4.806   2.135   7.495 -0.3149 -0.0677  0.7236
 6606SOL    HW222072   4.865   2.193   7.622  0.9295  0.6103 -0.1450
 6607SOL     OW22073   1.854   7.357   0.246 -0.1926  0.6584  0.5445
 6607SOL    HW122074   1.770   7.381   0.207  0.6373  1.1732 -1.0338
 6607SOL    HW222075   1.883   7.436   0.292 -0.4903  0.5409  0.9312
 6608SOL     OW22076   8.119  10.429   9.573  0.1329 -0.0105  0.1784
 6608SOL    HW122077   8.096  10.338   9.595  1.0226 -0.1820  0.4247
 6608SOL    HW222078   8.035  10.475   9.572 -0.3444 -0.8640 -0.0927
 6609SOL     OW22079   0.317   5.165   2.696  0.1732 -0.1080 -0.0266
 6609SOL    HW122080   0.253   5.141   2.763 -0.7658 -0.0966 -0.8938
 6609SOL    HW222081   0.368   5.085   2.682 -0.5793 -0.5456 -0.3325
 6610SOL     OW22082   6.814   1.422   9.725 -0.4993 -0.0757  0.4256
 6610SOL    HW122083   6.776   1.469   9.799 -2.4730  0.1255 -0.6364
 6610SOL    HW222084   6.830   1.491   9.659 -1.2058 -0.5742 -0.2780
 6611SOL     OW22085   6.257   4.212  10.257  0.9705 -0.4591  0.8624
 6611SOL    HW122086   6.251   4.254  10.343  0.9827 -1.5153  1.3942
 6611SOL    HW222087   6.342   4.239  10.223  0.8689  0.1546  1.0754
 6612SOL     OW22088   9.971   5.102   9.961 -0.3941 -0.2439  0.2822
 6612SOL    HW122089  10.010   5.041   9.898  1.3813  1.5541 -0.4632
 6612SOL    HW222090   9.884   5.122   9.925  0.3747  0.3237 -1.3459
 6613SOL     OW22091   3.665  10.272   6.139  0.0007  0.3802  0.1451
 6613SOL    HW122092   3.582  10.241   6.176  0.5464  1.0325  2.0209
 6613SOL    HW222093   3.648  10.364   6.119  0.1239  0.3887  0.0808
 6614SOL     OW22094   0.159   7.100   4.723 -0.1179 -0.2250 -0.1894
 6614SOL    HW122095   0.082   7.158   4.724 -0.0424 -0.1095 -0.8037
 6614SOL    HW222096   0.222   7.144   4.780 -0.2501  0.0385 -0.2413
 6615SOL     OW22097   0.343   2.816   5.526  0.0903  0.6484  0.6640
 6615SOL    HW122098   0.385   2.730   5.532  0.5829  0.7852 -0.4647
 6615SOL    HW222099   0.294   2.826   5.607 -0.8314 -1.1500  0.3649
 6616SOL     OW22100   0.645   0.286   1.784  0.1682  0.0472  0.2179
 6616SOL    HW122101   0.566   0.336   1.804  0.0508 -0.5817  1.4309
 6616SOL    HW222102   0.711   0.322   1.845 -0.1072 -1.7147  1.6440
 6617SOL     OW22103   5.485   8.565   6.811  0.1992 -0.4523 -0.0920
 6617SOL    HW122104   5.409   8.575   6.752 -0.5127 -0.4570  0.8025
 6617SOL    HW222105   5.549   8.628   6.778 -0.3733 -0.1164 -0.5909
 6618SOL     OW22106   7.833   7.304   0.417  0.6192 -0.0094 -0.1377
 6618SOL    HW122107   7.892   7.365   0.462  1.1852 -0.6682  0.0206
 6618SOL    HW222108   7.842   7.327   0.325  2.2778 -1.0510 -0.2858
 6619SOL     OW22109   9.823   1.918   5.377  0.4658  0.1583  0.4831
 6619SOL    HW122110   9.827   2.011   5.397  0.5630  0.0961  0.7542
 6619SOL    HW222111   9.774   1.879   5.449  0.3601  0.0097  0.3320
 6620SOL     OW22112   0.957   1.280   8.439  0.7458  0.0511 -0.0929
 6620SOL    HW122113   0.902   1.320   8.372  0.7282  0.8409  0.3883
 6620SOL    HW222114   0.913   1.300   8.521 -0.4908 -2.8407  0.0778
 6621SOL     OW22115  10.049   5.849   5.757  0.0525 -0.0992 -0.0632
 6621SOL    HW122116   9.990   5.816   5.690  0.3563 -1.2763  0.2154
 6621SOL    HW222117  10.134   5.858   5.713 -0.0303  0.3152 -0.1388
 6622SOL     OW22118   7.179   0.977   1.817  0.2611  0.9753  0.1038
 6622SOL    HW122119   7.256   0.958   1.871  0.1847 -0.3138 -0.2011
 6622SOL    HW222120   7.124   0.900   1.826  0.5179  0.4503 -2.2616
 6623SOL     OW22121   0.590   7.803  10.216  0.2707 -0.2328 -0.4114
 6623SOL    HW122122   0.621   7.858  10.288  0.6826 -0.6789 -0.2376
 6623SOL    HW222123   0.523   7.747  10.256  2.3371 -2.3399  0.3227
 6624SOL     OW22124   0.228   6.081   0.548 -0.1081  0.2621  0.1845
 6624SOL    HW122125   0.238   5.998   0.593 -0.5291  0.4212  0.5718
 6624SOL    HW222126   0.241   6.147   0.616 -0.9312  0.5028  0.1096
 6625SOL     OW22127   7.912  10.116   5.679 -0.6090  0.5001  0.0352
 6625SOL    HW122128   7.899  10.033   5.724 -2.7993  1.5412  1.5189
 6625SOL    HW222129   8.006  10.132   5.685 -0.4932 -0.5886  2.1212
 6626SOL     OW22130  10.325   9.236   6.517  0.0790 -0.3475 -0.0465
 6626SOL    HW122131  10.296   9.319   6.480 -1.1636 -0.8538 -0.2647
 6626SOL    HW222132  10.317   9.174   6.445 -0.0723 -0.8680  0.4133
 6627SOL     OW22133   1.064   8.231   6.705 -0.2298  0.8321  0.7073
 6627SOL    HW122134   1.133   8.165   6.711 -1.3083 -0.6593 -1.8595
 6627SOL    HW222135   1.105   8.305   6.660 -0.0801  0.2968 -0.0407
 6628SOL     OW22136   2.322   1.963   3.428 -0.1145  0.7199  0.4060
 6628SOL    HW122137   2.254   1.980   3.493  1.1652 -0.0862  1.9963
 6628SOL    HW222138   2.382   2.037   3.437  1.0315 -0.3090  1.4602
 6629SOL     OW22139   1.719   8.233   3.794  0.0157  0.5317  0.1612
 6629SOL    HW122140   1.713   8.153   3.742  2.1319 -0.0180  0.6509
 6629SOL    HW222141   1.788   8.284   3.751 -0.4423  1.5400  0.5796
 6630SOL     OW22142   5.957   4.886   4.856  0.0700 -0.0323  1.2515
 6630SOL    HW122143   5.943   4.965   4.908  0.0525 -0.0330  1.2476
 6630SOL    HW222144   5.900   4.820   4.896 -1.6359  0.5395 -0.1272
 6631SOL     OW22145   1.034   0.596   4.657 -0.6794 -0.2695 -0.0807
 6631SOL    HW122146   0.998   0.511   4.632 -2.0746  0.1412  0.4404
 6631SOL    HW222147   1.008   0.608   4.748  0.6893  0.1314  0.2855
 6632SOL     OW22148   5.057   8.411   8.565 -0.1488 -0.5115 -0.5290
 6632SOL    HW122149   5.030   8.484   8.621  0.1602  0.7976 -2.0408
 6632SOL    HW222150   5.032   8.333   8.615 -0.7435  0.6030  1.0044
 6633SOL     OW22151   8.465  10.373   5.668  0.3889  0.1383  0.5496
 6633SOL    HW122152   8.434  10.409   5.752 -0.4192  0.3472  0.1676
 6633SOL    HW222153   8.425  10.429   5.602 -0.7326 -1.3326 -0.0576
 6634SOL     OW22154   1.131  10.387   4.563  0.1767 -0.0419  0.1435
 6634SOL    HW122155   1.194  10.362   4.495 -1.9678  0.3986 -2.1769
 6634SOL    HW222156   1.108  10.305   4.606  0.4032 -0.6070 -0.7875
 6635SOL     OW22157  10.584   7.425   1.022 -0.2244 -0.0175 -0.0922
 6635SOL    HW122158  10.574   7.383   0.936 -0.6299  0.3098 -0.2084
 6635SOL    HW222159  10.650   7.372   1.067 -1.5986 -1.5342  0.2338
 6636SOL     OW22160   0.313   3.024   4.933  0.6380  0.0507  0.1721
 6636SOL    HW122161   0.235   3.050   4.982  0.0005 -0.3663 -0.5965
 6636SOL    HW222162   0.385   3.068   4.978  0.0679 -0.2429  1.4210
 6637SOL     OW22163   4.553   9.179   4.991 -0.2297 -0.1626 -0.3639
 6637SOL    HW122164   4.468   9.197   5.031 -1.5029 -4.4418 -0.6366
 6637SOL    HW222165   4.615   9.229   5.043 -2.5374  0.1342  2.3576
 6638SOL     OW22166   5.265   3.027   0.744  0.6464 -0.6336 -0.1768
 6638SOL    HW122167   5.235   2.970   0.673 -1.8336  0.9265 -0.5125
 6638SOL    HW222168   5.185   3.048   0.793  1.9961 -0.0762  1.9097
 6639SOL     OW22169   9.338   7.911  10.429 -0.0664  0.5169  0.2532
 6639SOL    HW122170   9.308   7.843  10.489 -1.2853  0.9701  0.1817
 6639SOL    HW222171   9.354   7.987  10.485  4.0145 -0.4896  0.7968
 6640SOL     OW22172   4.834   0.610   3.619 -0.5761 -0.2230  0.0679
 6640SOL    HW122173   4.865   0.560   3.695  1.4293 -1.1367 -1.2466
 6640SOL    HW222174   4.830   0.546   3.548 -1.4612  0.7889 -0.8311
 6641SOL     OW22175   0.536   0.856   2.622 -0.2965 -0.3642 -0.7244
 6641SOL    HW122176   0.461   0.798   2.609  0.5660 -1.7857  0.3486
 6641SOL    HW222177   0.607   0.816   2.572  0.1783  0.0394 -0.3888
 6642SOL     OW22178   6.598   1.033   3.536 -0.6273 -0.0572  0.5115
 6642SOL    HW122179   6.598   0.985   3.619  0.1051 -0.7294  0.1391
 6642SOL    HW222180   6.565   1.120   3.559  0.8766  0.2283  1.7889
 6643SOL     OW22181   8.418   0.157   7.272 -0.1051 -0.2069 -0.3323
 6643SOL    HW122182   8.345   0.119   7.222 -0.8984 -0.5287  1.0056
 6643SOL    HW222183   8.465   0.081   7.306 -0.3400 -0.0094  0.4536
 6644SOL     OW22184   9.796   0.435  10.490 -0.0263  0.5034  0.0254
 6644SOL    HW122185   9.733   0.365  10.471 -1.4885  1.1234  2.2181
 6644SOL    HW222186   9.879   0.390  10.504 -0.7860 -0.7358  0.6991
 6645SOL     OW22187   1.525   2.100   1.163 -0.4763 -0.3095 -0.2379
 6645SOL    HW122188   1.549   2.136   1.077 -1.5622 -1.8676 -1.2376
 6645SOL    HW222189   1.445   2.146   1.187  0.7240  1.3740  0.8205
 6646SOL     OW22190  10.298   9.604   7.608 -0.4892 -0.1812 -0.4722
 6646SOL    HW122191  10.312   9.679   7.550  0.6902 -0.2454 -0.2792
 6646SOL    HW222192  10.221   9.629   7.659 -0.0406  0.9708 -0.3175
 6647SOL     OW22193   7.271   1.664   4.364  0.8235 -0.7896 -0.5938
 6647SOL    HW122194   7.276   1.756   4.391 -1.2666 -0.5667 -0.7824
 6647SOL    HW222195   7.237   1.668   4.274 -0.3969 -1.7629 -0.2006
 6648SOL     OW22196   0.224  10.544  10.213 -0.7383  0.2091 -0.3511
 6648SOL    HW122197   0.182  10.603  10.151  1.8075  0.5622 -1.8847
 6648SOL    HW222198   0.208  10.456  10.178  0.5739  0.4001 -1.5284
 6649SOL     OW22199   1.774   4.384   8.042  0.2671  0.2532  0.7788
 6649SOL    HW122200   1.799   4.386   7.949  1.0486  1.9206  0.9829
 6649SOL    HW222201   1.830   4.450   8.083 -1.0531  0.5531  2.1894
 6650SOL     OW22202  10.591   4.268   0.142 -0.3714 -0.1562 -0.2978
 6650SOL    HW122203  10.505   4.304   0.122 -1.3058 -0.2757  2.9430
 6650SOL    HW222204  10.574   4.176   0.164  0.7295 -0.4018 -0.4002
 6651SOL     OW22205   7.811   6.910   8.973  0.3451 -0.2345 -0.7300
 6651SOL    HW122206   7.746   6.955   9.027 -0.0251 -0.6738 -0.8078
 6651SOL    HW222207   7.895   6.936   9.012  0.0653 -1.3790  0.7401
 6652SOL     OW22208   4.707   6.895   2.141 -0.0206  0.0874 -0.1584
 6652SOL    HW122209   4.649   6.965   2.112  0.2937 -0.2030 -1.5758
 6652SOL    HW222210   4.775   6.940   2.192 -2.2696  0.2570  2.9240
 6653SOL     OW22211   4.164  10.595  10.075  0.0581 -0.3349 -0.3061
 6653SOL    HW122212   4.208  10.598   9.990  0.8170 -1.3975  0.0344
 6653SOL    HW222213   4.198  10.516  10.118 -0.9832 -0.3081  0.6268
 6654SOL     OW22214   1.962   9.398   0.419 -0.3623  0.5404  0.2122
 6654SOL    HW122215   1.955   9.355   0.504 -0.2673 -1.4511 -0.7357
 6654SOL    HW222216   2.056   9.406   0.404 -0.3125 -1.1964 -0.6516
 6655SOL     OW22217   0.210   1.524   1.255  0.5194 -0.5242 -0.4262
 6655SOL    HW122218   0.142   1.493   1.314  0.1691 -0.2585 -0.6884
 6655SOL    HW222219   0.238   1.607   1.292 -0.3412  0.0946 -1.1205
 6656SOL     OW22220  10.036  10.192   4.153  0.5282 -0.0620  0.4126
 6656SOL    HW122221  10.046  10.287   4.149 -1.2182  0.1892  1.0527
 6656SOL    HW222222  10.099  10.159   4.089  1.7236  1.4620  0.7158
 6657SOL     OW22223   9.015   7.504   2.407 -0.4766  0.4977  0.8769
 6657SOL    HW122224   8.974   7.590   2.415 -3.0700 -0.5399 -0.1764
 6657SOL    HW222225   9.057   7.506   2.321  0.6527  1.1176  1.4154
 6658SOL     OW22226   3.654   2.925   4.311 -0.2979 -0.0175  0.5081
 6658SOL    HW122227   3.685   3.013   4.288 -0.3155 -0.2185 -0.3087
 6658SOL    HW222228   3.639   2.929   4.405 -0.2895  0.8544  0.4805
 6659SOL     OW22229   5.953   1.936   3.943  0.1769 -0.5546 -0.1735
 6659SOL    HW122230   5.923   1.972   4.026  0.8397  0.6206 -0.4202
 6659SOL    HW222231   5.934   2.004   3.878  0.1805 -1.2191 -0.8948
 6660SOL     OW22232   5.332   9.539   1.163  0.0497  0.3641 -0.3081
 6660SOL    HW122233   5.400   9.551   1.229 -2.1701  0.0036  2.2141
 6660SOL    HW222234   5.278   9.618   1.169 -2.4734 -1.3173  1.2979
 6661SOL     OW22235   0.427   3.464   4.834 -0.2131 -0.3302  0.0955
 6661SOL    HW122236   0.449   3.389   4.888 -1.0301  0.1227  1.0931
 6661SOL    HW222237   0.378   3.428   4.760 -2.2782 -0.6179  1.5497
 6662SOL     OW22238  10.119   8.630   1.870  0.7994  0.8278 -0.1370
 6662SOL    HW122239  10.092   8.690   1.801  3.4086  2.7068  0.2990
 6662SOL    HW222240  10.127   8.545   1.827 -0.4741  1.3256 -1.4106
 6663SOL     OW22241   3.767   6.801   9.011  0.0254  0.4647  0.0946
 6663SOL    HW122242   3.838   6.806   8.947  0.1359  0.4846  0.2212
 6663SOL    HW222243   3.687   6.808   8.957  0.1235  0.7704 -0.0140
 6664SOL     OW22244   2.673   6.183   9.290  0.4742 -0.2028  0.7979
 6664SOL    HW122245   2.733   6.210   9.359 -0.6942  0.4550  1.5910
 6664SOL    HW222246   2.609   6.254   9.284 -1.7086 -1.9565  1.7500
 6665SOL     OW22247   3.657   8.773   2.614  0.0566  0.4833  0.1896
 6665SOL    HW122248   3.721   8.839   2.586  0.9718 -0.8134 -0.9002
 6665SOL    HW222249   3.603   8.758   2.536  1.3007 -1.6535 -0.3331
 6666SOL     OW22250   2.284   9.197   4.136  0.4683 -0.5762 -0.3076
 6666SOL    HW122251   2.243   9.138   4.072  1.1279 -0.9740 -0.3806
 6666SOL    HW222252   2.212   9.228   4.190  0.1225 -1.6329 -0.1335
 6667SOL     OW22253   3.865   6.050   4.230  0.7902  0.2394  0.3725
 6667SOL    HW122254   3.805   6.015   4.164 -0.3512  0.3578  1.3223
 6667SOL    HW222255   3.812   6.110   4.282  1.6603  0.1456  1.4069
 6668SOL     OW22256   4.674  10.230   6.468  0.3334  0.1577 -0.4635
 6668SOL    HW122257   4.604  10.167   6.454  3.5892 -3.9428 -0.2849
 6668SOL    HW222258   4.713  10.242   6.381  0.0262  1.6291 -0.4126
 6669SOL     OW22259   3.385   7.078   3.128  0.4558  0.5580 -0.0980
 6669SOL    HW122260   3.399   7.160   3.174 -0.0860 -0.0098  1.1301
 6669SOL    HW222261   3.338   7.103   3.048  0.4812  1.4581  0.1595
 6670SOL     OW22262   5.239   2.525  10.425  0.3624  0.5223 -0.2095
 6670SOL    HW122263   5.332   2.505  10.419  0.2531  0.2231 -1.1534
 6670SOL    HW222264   5.226   2.555  10.514  1.3549  0.5206 -0.0570
 6671SOL     OW22265   7.555   9.327   4.798  0.3693 -0.3742  0.6850
 6671SOL    HW122266   7.533   9.383   4.873 -0.1005 -2.1005  1.9067
 6671SOL    HW222267   7.558   9.238   4.835 -0.2705 -1.3353 -1.4188
 6672SOL     OW22268   1.597   1.791   6.802 -0.4494  0.0083  0.3598
 6672SOL    HW122269   1.545   1.730   6.854  0.7500 -0.4761  1.0230
 6672SOL    HW222270   1.550   1.874   6.808 -0.6834 -0.1986  1.6886
 6673SOL     OW22271   3.072   0.898   9.456 -0.5081 -0.0625 -0.0672
 6673SOL    HW122272   3.135   0.969   9.452  0.7291 -1.0782  0.5970
 6673SOL    HW222273   3.003   0.923   9.395 -0.3556  1.9202  0.5251
 6674SOL     OW22274   6.215   6.450   6.096 -0.0310 -0.0094 -0.0751
 6674SOL    HW122275   6.301   6.447   6.055 -0.0604 -1.8103 -0.0801
 6674SOL    HW222276   6.161   6.501   6.036  0.9339  0.8426 -0.2387
 6675SOL     OW22277   9.079   4.986   6.812 -0.4667 -0.3592  0.3068
 6675SOL    HW122278   9.163   4.974   6.856 -1.3140 -1.3736  1.7729
 6675SOL    HW222279   9.035   4.902   6.823 -2.9990  1.1073  2.6073
 6676SOL     OW22280   5.962   0.642   3.893  0.0634 -0.1352 -0.0199
 6676SOL    HW122281   6.055   0.650   3.911  0.1949  0.0346 -0.7239
 6676SOL    HW222282   5.953   0.667   3.801 -0.4682 -1.6421 -0.4089
 6677SOL     OW22283   7.478   1.803   9.124  0.3549 -0.6263  0.4839
 6677SOL    HW122284   7.423   1.812   9.046 -0.5324  0.5830  1.2151
 6677SOL    HW222285   7.451   1.875   9.180  4.1312  1.3584  0.0385
 6678SOL     OW22286   4.285   9.753   9.990  0.5041 -0.1348 -0.1639
 6678SOL    HW122287   4.223   9.747   9.918 -0.8607 -0.0305  0.9646
 6678SOL    HW222288   4.357   9.806   9.956 -0.4624  0.5283 -1.2114
 6679SOL     OW22289   3.851   2.566   7.522  0.1351  0.1069  0.5243
 6679SOL    HW122290   3.757   2.550   7.526  0.0620  0.5441  0.6875
 6679SOL    HW222291   3.859   2.661   7.533  0.5833  0.0947  0.3275
 6680SOL     OW22292   4.520   9.288   3.906 -0.2939 -0.2941  0.4236
 6680SOL    HW122293   4.576   9.218   3.939  1.7004  0.7384 -0.5203
 6680SOL    HW222294   4.533   9.360   3.968 -0.4539 -0.0003  0.1201
 6681SOL     OW22295   3.989   5.771   4.943  0.0499 -0.0762 -0.2004
 6681SOL    HW122296   3.997   5.676   4.941  2.1263  0.0169  0.8202
 6681SOL    HW222297   4.015   5.800   4.856  1.3188 -0.3751  0.0603
 6682SOL     OW22298   1.370   3.310   5.035  0.0412 -0.1958  0.0698
 6682SOL    HW122299   1.332   3.236   4.986  1.2730 -1.8847  1.5309
 6682SOL    HW222300   1.411   3.365   4.968  0.4419 -1.6720 -0.9531
 6683SOL     OW22301   6.318   5.719   6.628  0.1930  0.3900 -0.5658
 6683SOL    HW122302   6.263   5.779   6.679 -1.2926  0.0526 -1.6727
 6683SOL    HW222303   6.256   5.656   6.591  1.4240 -0.4082 -1.3575
 6684SOL     OW22304   2.092  10.194   5.035  0.5905 -0.0524 -0.0768
 6684SOL    HW122305   2.052  10.138   4.968 -0.9994  0.9361 -0.0049
 6684SOL    HW222306   2.132  10.133   5.097 -2.5617 -1.2789  0.9369
 6685SOL     OW22307   8.513   5.001   6.482  0.6875  0.2294  0.0073
 6685SOL    HW122308   8.539   5.062   6.551 -0.2283 -0.0625  0.6243
 6685SOL    HW222309   8.418   4.992   6.492  0.8593 -1.6682  0.2582
 6686SOL     OW22310   6.529   6.432   7.105  0.1717 -0.2552 -0.3471
 6686SOL    HW122311   6.501   6.438   7.197 -0.2075 -0.3178 -0.4586
 6686SOL    HW222312   6.599   6.497   7.098  1.0904 -1.1427  0.3066
 6687SOL     OW22313   7.867   1.777   7.854  0.0259 -0.3296  0.3726
 6687SOL    HW122314   7.942   1.780   7.795 -0.8122  0.9315 -0.7189
 6687SOL    HW222315   7.816   1.702   7.824 -1.2659  1.2760 -1.7440
 6688SOL     OW22316   7.292   8.771   3.087  0.1684  0.2871  0.1423
 6688SOL    HW122317   7.292   8.681   3.055 -2.4330  0.8557 -1.8205
 6688SOL    HW222318   7.211   8.778   3.138 -0.1272  1.6751 -0.4638
 6689SOL     OW22319   7.795   3.274   5.785  0.2980 -0.0836  0.1868
 6689SOL    HW122320   7.882   3.314   5.781  0.9410 -1.2853  1.5098
 6689SOL    HW222321   7.791   3.235   5.872 -0.6885 -2.0010 -0.6757
 6690SOL     OW22322   1.864   4.579  10.123 -0.6006  0.7674 -0.0280
 6690SOL    HW122323   1.948   4.535  10.118 -0.9744 -0.0093  0.3778
 6690SOL    HW222324   1.838   4.572  10.215 -0.8717  1.4523 -0.0411
 6691SOL     OW22325   2.897   9.392   7.905  0.0120 -0.0909 -0.4997
 6691SOL    HW122326   2.818   9.342   7.887 -0.4637  0.7016 -0.6666
 6691SOL    HW222327   2.916   9.374   7.998 -0.6952  0.1618 -0.3009
 6692SOL     OW22328   6.565   3.136  10.323 -0.1070 -0.1716  0.2421
 6692SOL    HW122329   6.471   3.123  10.327 -0.2232  0.4919 -0.2065
 6692SOL    HW222330   6.587   3.183  10.404 -0.0965 -0.6695  0.5341
 6693SOL     OW22331   3.921   8.746   2.285  1.2054  0.2112  0.4202
 6693SOL    HW122332   3.876   8.831   2.276  1.9386  0.7381  1.5358
 6693SOL    HW222333   3.955   8.728   2.197  0.3651  0.6771 -0.0176
 6694SOL     OW22334   1.633   5.180   6.998 -0.2064 -0.0907  0.0026
 6694SOL    HW122335   1.604   5.211   6.913  5.4357  0.6413 -2.0883
 6694SOL    HW222336   1.640   5.085   6.988  0.2180 -0.0295 -0.3454
 6695SOL     OW22337   0.653  10.518   7.622 -0.1837  0.0979  0.0507
 6695SOL    HW122338   0.634  10.577   7.695  0.7477 -0.8419  1.0806
 6695SOL    HW222339   0.712  10.452   7.659  2.3202  0.9385 -2.1039
 6696SOL     OW22340   1.945   8.003   0.706  0.0572  0.2514 -0.3064
 6696SOL    HW122341   1.960   8.035   0.617  0.0475  1.9274  0.2530
 6696SOL    HW222342   1.932   8.083   0.758 -0.7562 -0.7264  1.0511
 6697SOL     OW22343   0.661  10.227   2.397 -0.1580 -0.0018 -0.1781
 6697SOL    HW122344   0.663  10.198   2.488  1.5619  0.4225 -0.0410
 6697SOL    HW222345   0.595  10.296   2.395  0.5498  0.7418  1.0133
 6698SOL     OW22346   2.887   7.345   0.123  0.0374  0.4949 -0.0458
 6698SOL    HW122347   2.981   7.336   0.137 -0.0710 -0.0682  0.3239
 6698SOL    HW222348   2.847   7.297   0.195 -0.5414  1.3222  0.1969
 6699SOL     OW22349   8.850   5.098   0.048 -0.0892  0.0086  0.2265
 6699SOL    HW122350   8.833   5.192   0.051 -2.1797 -0.3103 -0.3571
 6699SOL    HW222351   8.785   5.061   0.108  0.9910 -1.0537  0.7770
 6700SOL     OW22352   5.753   4.817   5.515 -0.1031 -0.5616  0.1356
 6700SOL    HW122353   5.727   4.858   5.597 -1.4574  1.3256 -1.1425
 6700SOL    HW222354   5.687   4.749   5.499 -0.7300  0.0936 -0.1060
 6701SOL     OW22355   4.369   6.872   7.999 -0.4240 -0.6742 -0.3837
 6701SOL    HW122356   4.390   6.875   7.906  1.9074 -2.9201 -0.0513
 6701SOL    HW222357   4.435   6.927   8.041 -1.0629 -0.1995  0.0302
 6702SOL     OW22358   8.271   7.141   4.654 -0.0486 -0.2473  0.5208
 6702SOL    HW122359   8.290   7.053   4.687 -1.2353  0.1847  2.5522
 6702SOL    HW222360   8.176   7.151   4.663 -0.4993  0.0358 -3.0530
 6703SOL     OW22361   1.273   8.572   4.861 -0.2183 -0.0824 -0.1593
 6703SOL    HW122362   1.284   8.478   4.874  0.1309 -0.0679 -0.3237
 6703SOL    HW222363   1.276   8.609   4.949 -0.9975 -0.2845 -0.0451
 6704SOL     OW22364   0.715   4.462   3.380  0.2397 -0.3503  0.6513
 6704SOL    HW122365   0.721   4.367   3.368 -1.7010 -0.2022 -2.5421
 6704SOL    HW222366   0.695   4.497   3.293 -0.6375  2.8655  1.9867
 6705SOL     OW22367   1.921   1.909   8.334  0.3446  0.2581 -0.1354
 6705SOL    HW122368   1.890   1.819   8.344 -0.0212  0.3941 -0.0118
 6705SOL    HW222369   1.864   1.960   8.391  1.3307  0.4133  0.7356
 6706SOL     OW22370   2.750   7.327   6.854 -0.7627 -0.4932  0.4898
 6706SOL    HW122371   2.696   7.277   6.793 -1.9074 -1.3005  2.1062
 6706SOL    HW222372   2.840   7.298   6.834 -0.9553  0.0909 -1.5113
 6707SOL     OW22373   0.960   4.226   6.787  0.0973 -0.5258  0.2873
 6707SOL    HW122374   0.916   4.307   6.760  0.7977 -0.1016  0.3794
 6707SOL    HW222375   0.939   4.218   6.880 -1.2978 -1.3288 -0.0622
 6708SOL     OW22376   6.125   6.818   5.226  0.1085 -0.2133 -0.1716
 6708SOL    HW122377   6.109   6.724   5.224  1.1037 -0.3664 -1.4174
 6708SOL    HW222378   6.040   6.857   5.204  0.0911 -0.8728 -1.3199
 6709SOL     OW22379   6.841   8.297   2.697 -0.0581 -0.6257 -0.0529
 6709SOL    HW122380   6.910   8.360   2.716  1.0140 -1.2535 -1.6596
 6709SOL    HW222381   6.806   8.324   2.611  0.4039 -2.1555 -0.7588
 6710SOL     OW22382   4.658   4.059   3.834  0.4458  0.4813  0.1159
 6710SOL    HW122383   4.725   4.126   3.846  0.6366  0.1433  1.0180
 6710SOL    HW222384   4.618   4.050   3.921 -1.0377  0.9561 -0.4895
 6711SOL     OW22385   7.793   7.011   6.482 -0.1526  0.1419  0.2956
 6711SOL    HW122386   7.875   7.060   6.479 -0.1675  0.2275  0.9678
 6711SOL    HW222387   7.727   7.071   6.450  0.1001 -0.0551 -0.6142
 6712SOL     OW22388   4.170   1.912   0.360 -0.5654 -0.1151 -0.2130
 6712SOL    HW122389   4.208   1.936   0.445 -1.1432 -0.4531  0.1432
 6712SOL    HW222390   4.199   1.982   0.301 -1.3813  0.9292  0.5934
 6713SOL     OW22391   1.666   4.483   9.603 -1.2438 -0.2254 -0.2732
 6713SOL    HW122392   1.693   4.522   9.686  1.4370 -1.1943 -0.5860
 6713SOL    HW222393   1.632   4.397   9.627  0.7115 -1.0382 -0.1742
 6714SOL     OW22394   7.268   5.646   9.138  0.5492  0.5418  0.3059
 6714SOL    HW122395   7.249   5.586   9.211  0.8671  1.5716  1.2641
 6714SOL    HW222396   7.362   5.658   9.141  0.6478  0.1185 -0.6881
 6715SOL     OW22397   7.525   2.502   7.099 -0.1976  0.4151  0.8263
 6715SOL    HW122398   7.489   2.413   7.103  0.3389  0.1468 -0.0667
 6715SOL    HW222399   7.449   2.558   7.083 -0.8211  0.3536  3.1706
 6716SOL     OW22400   1.824   8.988   6.185 -0.1053 -0.3907 -0.2343
 6716SOL    HW122401   1.788   9.077   6.190  1.7664  0.4555 -1.0745
 6716SOL    HW222402   1.796   8.955   6.100  0.6793  0.0937 -0.6908
 6717SOL     OW22403   7.492   4.962   9.391  0.5112  0.1255  0.2934
 6717SOL    HW122404   7.511   4.883   9.340  0.2976 -0.2287  0.7510
 6717SOL    HW222405   7.549   5.029   9.353 -0.2338  0.0843 -0.9451
 6718SOL     OW22406   4.642   7.433   3.562  0.0430 -0.5355  0.4510
 6718SOL    HW122407   4.599   7.514   3.590  1.2697  0.0676  0.6259
 6718SOL    HW222408   4.674   7.453   3.474  0.6320 -0.7248  0.6241
 6719SOL     OW22409   7.714   5.389   4.909  0.2460  0.1475 -0.0823
 6719SOL    HW122410   7.754   5.313   4.951  0.7300  0.0254 -0.7602
 6719SOL    HW222411   7.684   5.443   4.982  1.1704 -0.0099  0.4227
 6720SOL     OW22412   1.576   2.130   7.433  0.2854 -0.2528 -0.6195
 6720SOL    HW122413   1.605   2.049   7.391 -0.0211 -0.6095 -0.1445
 6720SOL    HW222414   1.489   2.110   7.467  1.3307 -0.6549  2.0499
 6721SOL     OW22415   2.343   3.550  10.199 -1.0638  0.4222  0.0422
 6721SOL    HW122416   2.406   3.609  10.156 -0.3299 -0.5543 -0.2451
 6721SOL    HW222417   2.287   3.609  10.249  0.8465  1.2478  1.3273
 6722SOL     OW22418   5.552   8.897   7.117  0.1979 -0.3034 -0.3597
 6722SOL    HW122419   5.567   8.913   7.024 -0.7243 -0.0152 -0.4622
 6722SOL    HW222420   5.508   8.812   7.121 -1.3482  0.4633 -0.3310
 6723SOL     OW22421   6.266   5.179   2.204  0.5221 -0.5711  0.0431
 6723SOL    HW122422   6.222   5.264   2.202  0.2561 -0.6567  1.4227
 6723SOL    HW222423   6.356   5.199   2.229  0.2484 -0.7580  1.2182
 6724SOL     OW22424   3.311   4.324   3.929  0.3581  0.0136  0.0974
 6724SOL    HW122425   3.282   4.364   3.847  0.8927  1.0975  0.4328
 6724SOL    HW222426   3.286   4.232   3.919  0.1762  0.1718 -1.1727
 6725SOL     OW22427   4.220   8.770   5.498  0.0507 -1.0360  0.2212
 6725SOL    HW122428   4.250   8.683   5.470 -1.5522 -1.2532 -0.9881
 6725SOL    HW222429   4.257   8.830   5.434 -1.0855 -1.1850 -0.6230
 6726SOL     OW22430   3.414   8.709   1.553 -0.2917 -0.4035  0.4032
 6726SOL    HW122431   3.437   8.797   1.582  0.7045 -0.7229  0.5954
 6726SOL    HW222432   3.318   8.709   1.555 -0.4274  1.4376 -1.9073
 6727SOL     OW22433   2.885   9.795   2.856  0.5083 -0.1169  0.1576
 6727SOL    HW122434   2.964   9.850   2.861 -0.5027  1.3292  0.9818
 6727SOL    HW222435   2.894   9.749   2.773  1.6812  0.8760 -0.3068
 6728SOL     OW22436   3.261   9.385   4.609 -0.1828  0.4941 -0.1577
 6728SOL    HW122437   3.196   9.423   4.669 -0.8527  0.5303 -0.8896
 6728SOL    HW222438   3.240   9.292   4.607  0.7676  0.2367  0.7822
 6729SOL     OW22439   7.644   3.139   9.775 -0.0437 -0.7267  0.1716
 6729SOL    HW122440   7.701   3.215   9.767 -1.2646  0.4913  2.1550
 6729SOL    HW222441   7.606   3.127   9.688  0.5365  0.6443 -0.2892
 6730SOL     OW22442   2.393  10.250   1.759  0.2335  0.2127  0.3917
 6730SOL    HW122443   2.299  10.231   1.762  0.0416  0.7800 -1.1200
 6730SOL    HW222444   2.419  10.228   1.669  1.5393  0.1133  0.7767
 6731SOL     OW22445   1.594   6.521   5.195  0.5123 -0.0080 -0.0632
 6731SOL    HW122446   1.516   6.571   5.171 -0.1348 -1.0208 -0.1342
 6731SOL    HW222447   1.573   6.431   5.171  1.4578 -0.3954  0.5093
 6732SOL     OW22448   9.650   7.829   9.614  0.2686 -0.4471  0.0459
 6732SOL    HW122449   9.682   7.883   9.542 -0.2108 -2.1132 -1.5020
 6732SOL    HW222450   9.616   7.750   9.571 -2.3243 -0.4616  1.8815
 6733SOL     OW22451   5.990   3.087   5.498 -0.6587  0.1057 -0.3908
 6733SOL    HW122452   5.971   2.998   5.469  1.2354  0.2237 -2.2186
 6733SOL    HW222453   6.059   3.117   5.440  0.8928  1.7090  2.0901
 6734SOL     OW22454   6.223   1.415   3.136 -0.2267 -0.8223 -0.3224
 6734SOL    HW122455   6.272   1.413   3.218 -1.8809 -0.7495  0.7074
 6734SOL    HW222456   6.162   1.341   3.142  0.0352 -1.1909 -1.7714
 6735SOL     OW22457   1.292   1.667   8.534  0.3466  0.2198 -0.7348
 6735SOL    HW122458   1.268   1.722   8.460 -0.0452 -0.6780 -1.2935
 6735SOL    HW222459   1.322   1.585   8.495 -1.3992 -0.8825  0.0957
 6736SOL     OW22460   8.634   8.256   7.864 -0.0478  0.3864 -0.8968
 6736SOL    HW122461   8.724   8.279   7.888  1.1616 -1.6508 -3.1116
 6736SOL    HW222462   8.615   8.175   7.912 -0.2719  0.1803 -1.3262
 6737SOL     OW22463   1.098   5.262   1.247 -0.1805  0.5558  0.1552
 6737SOL    HW122464   1.145   5.187   1.210  0.0613  0.2690  1.0096
 6737SOL    HW222465   1.019   5.224   1.286 -0.1072  0.7548  0.5048
 6738SOL     OW22466   6.964  10.248   0.052  0.1415  0.4736 -0.5118
 6738SOL    HW122467   6.978  10.341   0.067  1.7108  0.3424 -0.9466
 6738SOL    HW222468   6.897  10.244  -0.017  0.0372  1.2801 -0.4578
 6739SOL     OW22469   7.683   2.946   8.351  0.3403 -0.6039  0.3113
 6739SOL    HW122470   7.766   2.951   8.302 -0.2501  0.8029 -0.6056
 6739SOL    HW222471   7.616   2.942   8.283 -0.3583 -1.5964  1.0526
 6740SOL     OW22472   0.571   8.500   8.629  0.3321  0.6221 -0.2138
 6740SOL    HW122473   0.565   8.462   8.717 -0.4777  0.8497 -0.1678
 6740SOL    HW222474   0.497   8.561   8.624  0.2324  0.4331 -1.1448
 6741SOL     OW22475   9.428   7.155   0.164 -0.1570  0.0576 -0.0900
 6741SOL    HW122476   9.445   7.064   0.141 -0.0776 -0.7088  2.6563
 6741SOL    HW222477   9.336   7.156   0.192 -0.4502  1.0521 -1.0450
 6742SOL     OW22478   7.130   7.841   5.888  0.4180  0.3885 -0.7136
 6742SOL    HW122479   7.065   7.896   5.844 -1.3814 -0.6145  0.5232
 6742SOL    HW222480   7.136   7.877   5.977 -1.6973 -1.8930  0.5202
 6743SOL     OW22481   7.053   8.388   0.285 -0.2693  0.2888  1.0081
 6743SOL    HW122482   7.119   8.323   0.260 -0.3567  1.0528 -1.4588
 6743SOL    HW222483   7.102   8.468   0.300 -0.4642  0.4341  0.8753
 6744SOL     OW22484   3.026   9.756   6.000  0.0496  0.0380 -0.2613
 6744SOL    HW122485   3.104   9.801   6.031 -0.6967  1.6246 -0.5834
 6744SOL    HW222486   2.962   9.768   6.070  0.1074 -1.4001  0.0795
 6745SOL     OW22487   8.222   4.849   8.388 -0.1117  1.0117  0.8331
 6745SOL    HW122488   8.212   4.754   8.400  1.8345  0.8145  1.3588
 6745SOL    HW222489   8.144   4.887   8.428 -1.4748 -0.4001 -0.3877
 6746SOL     OW22490   7.560   2.150   6.327  0.0393 -0.8220  0.4416
 6746SOL    HW122491   7.542   2.084   6.260 -2.7532 -0.4314  0.6948
 6746SOL    HW222492   7.607   2.219   6.280 -1.1101 -0.9450 -0.9559
 6747SOL     OW22493   8.383   4.592   4.110  0.4557 -0.0109  0.3826
 6747SOL    HW122494   8.303   4.644   4.099  0.8149  0.2776 -0.9870
 6747SOL    HW222495   8.413   4.615   4.198 -0.2643  0.8755  0.4230
 6748SOL     OW22496   1.188   8.908   2.402  0.4894 -0.2066 -0.5815
 6748SOL    HW122497   1.114   8.939   2.350 -0.0003  1.9959  1.2769
 6748SOL    HW222498   1.168   8.817   2.420 -1.4136  0.1296 -0.7698
 6749SOL     OW22499   1.782   8.531   6.297 -0.6448 -0.0229 -0.0310
 6749SOL    HW122500   1.790   8.438   6.276 -0.6365  0.2993 -1.5947
 6749SOL    HW222501   1.690   8.552   6.282 -1.3092 -0.3666  3.0917
 6750SOL     OW22502   7.985   0.210   6.378  0.1974 -0.3252  0.1400
 6750SOL    HW122503   7.890   0.200   6.382  0.1221  0.6740  1.6754
 6750SOL    HW222504   8.018   0.126   6.410 -0.2497  0.2457  2.2551
 6751SOL     OW22505   1.224   3.714   7.625  1.0234  0.6703 -0.1449
 6751SOL    HW122506   1.140   3.681   7.595  1.6971  0.0611 -1.4211
 6751SOL    HW222507   1.201   3.780   7.691 -0.4559  0.7962 -0.7402
 6752SOL     OW22508   4.788   5.423   3.983  0.4805  0.0602  0.2245
 6752SOL    HW122509   4.698   5.405   3.955 -0.1994 -1.3615  2.9932
 6752SOL    HW222510   4.839   5.350   3.947  0.2648  0.0777 -0.1246
 6753SOL     OW22511   1.492   5.892   5.441  0.1300  0.7601  0.2708
 6753SOL    HW122512   1.409   5.898   5.489 -0.0633  1.2812 -0.1271
 6753SOL    HW222513   1.557   5.873   5.509 -0.5435 -1.5591  0.3787
 6754SOL     OW22514   9.180   4.684   3.886  0.8159 -0.1403  0.1284
 6754SOL    HW122515   9.248   4.619   3.904  0.4157 -0.2516  1.3132
 6754SOL    HW222516   9.105   4.656   3.939  0.9111  1.7553  1.3621
 6755SOL     OW22517   9.429   6.454   3.980  0.1130  0.0507 -0.0851
 6755SOL    HW122518   9.411   6.437   4.072 -0.1091  2.0823  0.3034
 6755SOL    HW222519   9.363   6.403   3.933 -0.6071 -0.0030  0.9451
 6756SOL     OW22520  10.510   1.749   1.854  0.2036 -0.3161  0.1551
 6756SOL    HW122521  10.473   1.757   1.766 -0.5501 -0.9618  0.3962
 6756SOL    HW222522  10.524   1.655   1.866 -0.9286 -0.3814  1.1952
 6757SOL     OW22523   2.625   9.537   6.314  0.4337 -0.3038 -0.1673
 6757SOL    HW122524   2.626   9.631   6.296 -0.2562 -0.2531  0.0372
 6757SOL    HW222525   2.716   9.516   6.333  0.6517  0.2562 -0.5613
 6758SOL     OW22526   4.071   6.161   5.273  0.3103  0.3425 -0.6859
 6758SOL    HW122527   4.053   6.095   5.205 -1.0181  0.3809 -0.3990
 6758SOL    HW222528   4.110   6.234   5.225  1.4851 -0.4902 -1.0627
 6759SOL     OW22529   5.674  10.489  10.427 -0.6697  1.1828 -0.1658
 6759SOL    HW122530   5.754  10.451  10.463  0.0281  2.0834 -0.7309
 6759SOL    HW222531   5.612  10.489  10.501  0.0890  1.1525  0.4792
 6760SOL     OW22532   1.500   6.424   7.647 -0.6658  0.7178  0.6130
 6760SOL    HW122533   1.580   6.464   7.682 -0.7258  0.9077  0.5308
 6760SOL    HW222534   1.440   6.497   7.634 -0.2467  0.8039 -0.9707
 6761SOL     OW22535   7.687  10.275   2.580  0.1698 -0.2246 -0.3665
 6761SOL    HW122536   7.732  10.359   2.566 -0.5626  0.1559 -0.4915
 6761SOL    HW222537   7.727  10.240   2.660  1.0958 -0.1786 -0.7869
 6762SOL     OW22538   4.777   8.376   8.854 -1.0010 -0.0260 -0.0330
 6762SOL    HW122539   4.813   8.311   8.794 -0.2554  0.0668  0.3042
 6762SOL    HW222540   4.817   8.459   8.827  1.5779 -0.3818  2.2990
 6763SOL     OW22541   4.514   9.785   8.969 -0.2806  0.2540 -0.3470
 6763SOL    HW122542   4.457   9.712   8.944 -0.0346 -0.1025  0.1369
 6763SOL    HW222543   4.547   9.762   9.055  0.0639  0.7843 -0.3321
 6764SOL     OW22544   6.407   4.130   2.035 -0.4211 -0.0221  0.0882
 6764SOL    HW122545   6.436   4.105   2.123 -0.4445  3.5826  1.3137
 6764SOL    HW222546   6.313   4.148   2.045 -0.2743  1.1357 -0.4317
 6765SOL     OW22547   3.069   5.528   1.398 -0.4877  0.0280 -0.6356
 6765SOL    HW122548   2.976   5.506   1.401 -0.8298  1.4246  0.1399
 6765SOL    HW222549   3.086   5.569   1.483  0.3053  1.7157 -1.5604
 6766SOL     OW22550   1.153   2.087   1.942 -0.3366  0.4467 -0.1827
 6766SOL    HW122551   1.156   1.997   1.911  3.3611  0.0935  0.6718
 6766SOL    HW222552   1.102   2.134   1.876 -0.9738 -1.9597 -1.4935
 6767SOL     OW22553   4.638   9.739   0.490 -0.5166 -0.2796  0.3579
 6767SOL    HW122554   4.685   9.772   0.413 -2.7711  1.3018 -0.4306
 6767SOL    HW222555   4.552   9.780   0.485 -1.0691 -0.8899  3.2324
 6768SOL     OW22556   8.253   3.083  10.047 -0.0057 -0.5501 -0.3916
 6768SOL    HW122557   8.244   3.147  10.118 -1.7593 -0.5197 -0.5966
 6768SOL    HW222558   8.304   3.128   9.980 -2.3382  1.2267 -1.1110
 6769SOL     OW22559   8.620   0.261   5.378 -0.3161 -0.1583 -0.6290
 6769SOL    HW122560   8.651   0.267   5.288 -1.2876  2.0636 -0.8900
 6769SOL    HW222561   8.692   0.295   5.431  0.0517 -0.9573 -0.6084
 6770SOL     OW22562   0.609   7.325   2.500  0.7193  0.0826 -0.3589
 6770SOL    HW122563   0.514   7.321   2.485  0.4691  1.1588  0.7316
 6770SOL    HW222564   0.645   7.362   2.420  0.1420  0.2628 -0.5383
 6771SOL     OW22565   9.316   1.746   5.839  0.0853 -0.7221  0.2408
 6771SOL    HW122566   9.244   1.751   5.778 -1.0031 -0.0572  1.5182
 6771SOL    HW222567   9.380   1.810   5.806  0.3271 -1.6530 -1.1515
 6772SOL     OW22568   6.533   2.309   5.090 -0.2242  0.0901 -0.1092
 6772SOL    HW122569   6.554   2.232   5.037 -1.9274 -0.9111  0.5466
 6772SOL    HW222570   6.452   2.343   5.052  0.0497  1.0542  0.1400
 6773SOL     OW22571   9.827   2.626   0.221 -0.5539  0.1121 -0.3393
 6773SOL    HW122572   9.785   2.542   0.237 -0.0109  0.2964  2.8097
 6773SOL    HW222573   9.758   2.680   0.181 -1.1581 -1.5428 -1.6097
 6774SOL     OW22574   8.537   1.779   8.375 -0.4071 -0.0295 -0.8886
 6774SOL    HW122575   8.592   1.707   8.344 -0.1769 -1.0742  1.6680
 6774SOL    HW222576   8.599   1.849   8.396 -0.1730 -0.5788  0.3585
 6775SOL     OW22577   5.559   7.157   7.486  0.0520 -0.6539  0.9169
 6775SOL    HW122578   5.522   7.075   7.455  1.5162 -1.2392  0.6072
 6775SOL    HW222579   5.534   7.162   7.578  0.4114 -1.7387  1.0890
 6776SOL     OW22580   4.025   4.022  10.353 -0.3804  0.3309  0.5440
 6776SOL    HW122581   4.117   3.998  10.366  0.1892  2.1622  0.2158
 6776SOL    HW222582   3.989   4.028  10.442  0.6203  2.3258  0.8804
 6777SOL     OW22583   4.641   0.654   9.882  0.1793 -0.4372 -0.4423
 6777SOL    HW122584   4.579   0.671   9.953  0.6572 -0.2585 -0.0551
 6777SOL    HW222585   4.661   0.741   9.847  0.8391 -0.4044 -0.0118
 6778SOL     OW22586   0.805   3.981   8.717 -0.2538 -1.0473 -0.6654
 6778SOL    HW122587   0.895   4.013   8.725  0.2962 -2.7297  0.4827
 6778SOL    HW222588   0.807   3.922   8.642 -0.8162  0.0931 -1.6151
 6779SOL     OW22589   8.459   5.310   5.364  0.0590  0.1322  0.0639
 6779SOL    HW122590   8.540   5.337   5.408  0.4618 -0.7834 -0.0887
 6779SOL    HW222591   8.458   5.215   5.374 -0.6192  0.0658 -0.5960
 6780SOL     OW22592   7.034   7.631   0.223 -0.1647 -0.4400 -0.0292
 6780SOL    HW122593   6.981   7.565   0.180 -1.9961  0.2929  0.9802
 6780SOL    HW222594   7.037   7.704   0.161 -1.7201  0.1205  0.5085
 6781SOL     OW22595   4.266   9.665   0.700 -0.1820 -0.2957 -0.5821
 6781SOL    HW122596   4.212   9.727   0.749  0.0847 -1.2642  1.0111
 6781SOL    HW222597   4.329   9.632   0.765  1.1462 -0.5530 -1.9456
 6782SOL     OW22598   3.600   9.018   3.744 -0.2077 -0.1681  0.5663
 6782SOL    HW122599   3.668   9.083   3.762 -0.6656  0.2511  0.8072
 6782SOL    HW222600   3.636   8.964   3.674  1.3982 -1.4856  2.2925
 6783SOL     OW22601  10.252   4.326  10.166  0.1291 -0.3993 -0.4420
 6783SOL    HW122602  10.258   4.409  10.117  3.2866 -1.3089 -1.8437
 6783SOL    HW222603  10.306   4.340  10.244 -2.2366 -0.0524  1.2285
 6784SOL     OW22604   1.758   4.837  10.167  0.0809  0.1758  0.2127
 6784SOL    HW122605   1.765   4.898  10.094 -2.0502 -0.3511 -0.5060
 6784SOL    HW222606   1.790   4.754  10.132  1.4911  0.4820  0.7094
 6785SOL     OW22607   1.374   6.671   5.804  0.2822  0.3241 -0.2681
 6785SOL    HW122608   1.439   6.617   5.760 -1.2335 -0.6168 -1.4278
 6785SOL    HW222609   1.335   6.613   5.869  0.5183  0.8641  0.3706
 6786SOL     OW22610   1.814   8.466   2.164 -0.1251 -0.4403 -0.3268
 6786SOL    HW122611   1.737   8.463   2.107 -0.6366  0.3438  0.2902
 6786SOL    HW222612   1.860   8.546   2.136  0.2784 -0.7126 -0.4504
 6787SOL     OW22613   9.263   0.034   1.234  0.1377  0.2134  0.3817
 6787SOL    HW122614   9.312   0.002   1.159  1.4346 -1.4564  1.8393
 6787SOL    HW222615   9.265  -0.039   1.296  0.4178  2.0178  2.6223
 6788SOL     OW22616   3.893   8.597   2.778 -0.3516 -0.5004 -0.8026
 6788SOL    HW122617   3.799   8.578   2.776 -0.5739  0.5649 -1.8610
 6788SOL    HW222618   3.920   8.592   2.687 -0.3281  3.3252 -1.1944
 6789SOL     OW22619   6.662   4.378   6.747  0.1892  0.0810  0.1137
 6789SOL    HW122620   6.648   4.292   6.787  1.2988  0.3782  1.2011
 6789SOL    HW222621   6.739   4.367   6.692  0.2205  0.3318  0.1068
 6790SOL     OW22622   3.783   9.460  10.097 -0.1124 -0.0131  0.4153
 6790SOL    HW122623   3.722   9.492  10.164 -1.3876  0.5457 -0.9488
 6790SOL    HW222624   3.867   9.502  10.118 -1.0708  2.0674  0.3202
 6791SOL     OW22625   8.514  10.326   6.641  0.3263  0.0851  0.1754
 6791SOL    HW122626   8.443  10.388   6.659  0.9362  0.7913  0.2168
 6791SOL    HW222627   8.495  10.252   6.698 -0.8297 -0.1041 -0.4198
 6792SOL     OW22628   3.754   2.361   4.216  0.3268  0.6612 -0.1089
 6792SOL    HW122629   3.838   2.381   4.174  0.3017  0.6774 -0.1528
 6792SOL    HW222630   3.729   2.443   4.259 -0.2317  1.0314 -1.0761
 6793SOL     OW22631  10.211   4.554  10.576  0.1843  0.2658  0.4873
 6793SOL    HW122632  10.264   4.572  10.653 -1.2133  1.6196  1.1852
 6793SOL    HW222633  10.132   4.608  10.588 -0.2254  0.2364 -1.7021
 6794SOL     OW22634   7.387   2.661   9.252 -0.2096  0.3733  0.0133
 6794SOL    HW122635   7.298   2.675   9.285 -0.6045 -0.6464 -0.5538
 6794SOL    HW222636   7.403   2.736   9.194 -0.7481  0.5100  0.0372
 6795SOL     OW22637   7.136   9.082   2.280 -0.6344 -0.3298  0.0644
 6795SOL    HW122638   7.158   9.174   2.295 -1.3257 -0.1273 -0.1334
 6795SOL    HW222639   7.215   9.034   2.306 -0.1669  0.3355 -0.0949
 6796SOL     OW22640   5.447   1.750   2.423 -0.2041 -0.1262 -0.3279
 6796SOL    HW122641   5.485   1.704   2.347 -0.7327  0.1949 -0.7989
 6796SOL    HW222642   5.492   1.834   2.425 -2.1994  1.0655 -2.0873
 6797SOL     OW22643   4.053   8.579   9.349  0.1809 -0.2420 -0.2755
 6797SOL    HW122644   4.026   8.580   9.257  2.0192 -0.2780 -0.8552
 6797SOL    HW222645   4.146   8.557   9.346  0.0128 -1.3954  1.6798
 6798SOL     OW22646   4.227  10.155   7.838 -0.7231 -0.3174  0.2800
 6798SOL    HW122647   4.193  10.244   7.829 -0.9678 -0.5489 -1.3540
 6798SOL    HW222648   4.152  10.098   7.822  0.0242 -0.8160 -1.6339
 6799SOL     OW22649   5.087   2.465   3.258  0.6198  0.4380 -0.5576
 6799SOL    HW122650   5.037   2.465   3.176 -0.8359 -2.3790  0.2118
 6799SOL    HW222651   5.177   2.445   3.232 -0.2542 -3.0387 -1.4241
 6800SOL     OW22652   1.195   0.712   8.024  0.0541  0.2132  0.6430
 6800SOL    HW122653   1.130   0.646   8.004 -1.4302  1.8889 -0.3644
 6800SOL    HW222654   1.157   0.762   8.097 -0.0630  1.5039 -0.2614
 6801SOL     OW22655   7.099   0.269   2.581  0.0759  0.0439 -0.0621
 6801SOL    HW122656   7.174   0.223   2.618  0.4421  0.3796 -0.3813
 6801SOL    HW222657   7.081   0.224   2.499 -1.6970 -1.6889  1.1878
 6802SOL     OW22658   6.952   2.402   6.898 -0.3142 -0.0499  0.0638
 6802SOL    HW122659   7.008   2.372   6.969 -2.0660 -0.1863  1.4694
 6802SOL    HW222660   6.901   2.474   6.937 -1.0902  0.0805 -1.1393
 6803SOL     OW22661   8.450   1.665   3.068  0.0099  0.2368  0.3952
 6803SOL    HW122662   8.446   1.646   3.161  0.8173 -2.1684  0.0143
 6803SOL    HW222663   8.369   1.629   3.032  0.8778 -1.2592 -0.1486
 6804SOL     OW22664   0.298   0.617   3.074  0.4778 -0.7037 -0.4573
 6804SOL    HW122665   0.262   0.684   3.017  1.0649  0.9232  1.0170
 6804SOL    HW222666   0.221   0.571   3.109  0.0298 -0.1724 -0.7359
 6805SOL     OW22667  10.302   1.739   3.023  0.6247  0.2166  0.3772
 6805SOL    HW122668  10.375   1.752   2.962 -0.3443 -1.1015 -1.1595
 6805SOL    HW222669  10.259   1.825   3.027  1.4786  0.6596  0.2533
 6806SOL     OW22670   1.462   7.919   2.149 -0.0255 -0.3564  0.0615
 6806SOL    HW122671   1.419   7.835   2.133 -2.2384  0.3008  1.9538
 6806SOL    HW222672   1.427   7.977   2.082 -0.7503 -0.2774  0.4928
 6807SOL     OW22673   5.526   7.612   4.549 -0.4071  0.4424  0.7755
 6807SOL    HW122674   5.603   7.665   4.526  0.1707 -0.6118  0.1821
 6807SOL    HW222675   5.507   7.563   4.469  1.0034 -2.5767  2.1564
 6808SOL     OW22676   7.073  10.348   9.746 -0.2218 -0.5423 -0.2224
 6808SOL    HW122677   7.096  10.435   9.714  0.7540 -0.0472  1.6419
 6808SOL    HW222678   7.151  10.294   9.729  1.1309  0.2123  2.8036
 6809SOL     OW22679   7.927   6.755   5.559 -0.4483  0.2010  0.5377
 6809SOL    HW122680   7.960   6.686   5.501  1.6530  0.0685  1.8013
 6809SOL    HW222681   7.841   6.722   5.588 -0.4055 -0.8952 -0.5028
 6810SOL     OW22682   4.507   6.243   3.481  0.5211 -0.4680  0.1663
 6810SOL    HW122683   4.552   6.192   3.413 -0.1189 -1.1713  0.2536
 6810SOL    HW222684   4.456   6.308   3.432  0.8256 -0.3388  0.0194
 6811SOL     OW22685   3.109   8.768   1.535 -0.4923  0.3344 -0.2720
 6811SOL    HW122686   3.092   8.775   1.441 -0.2266  0.3400 -0.3208
 6811SOL    HW222687   3.053   8.696   1.565 -0.9315  0.6411 -0.3463
 6812SOL     OW22688   9.616   5.402   2.954 -0.8962  0.1625 -0.1160
 6812SOL    HW122689   9.530   5.361   2.965 -0.7249 -0.0050  0.6626
 6812SOL    HW222690   9.606   5.489   2.992 -0.1135 -0.6539  2.1285
 6813SOL     OW22691   5.804   5.987   8.192  0.0608  0.2866 -0.8027
 6813SOL    HW122692   5.868   6.001   8.122  1.0739  1.4401  0.2972
 6813SOL    HW222693   5.722   5.970   8.146  0.4508  2.1089 -2.3269
 6814SOL     OW22694   2.119   6.064   8.661 -0.3480 -0.3513 -0.5717
 6814SOL    HW122695   2.205   6.037   8.628 -0.4200 -0.9091 -0.3143
 6814SOL    HW222696   2.065   6.071   8.582 -0.0263  0.1784 -0.7548
 6815SOL     OW22697   9.168   3.631   9.364 -0.2126  0.1540  0.2569
 6815SOL    HW122698   9.082   3.589   9.360  0.1562 -0.5902 -0.2104
 6815SOL    HW222699   9.150   3.724   9.353 -0.8881 -0.0713 -0.6943
 6816SOL     OW22700   9.339   8.085   7.166 -0.0267 -0.4515  0.2669
 6816SOL    HW122701   9.349   8.007   7.110 -0.4326 -0.2590 -0.0833
 6816SOL    HW222702   9.300   8.151   7.108  2.5260  0.8132 -0.1159
 6817SOL     OW22703   0.046   0.260   8.615  0.3461  0.1728 -0.2783
 6817SOL    HW122704   0.114   0.194   8.628  0.2754  0.1543  0.0108
 6817SOL    HW222705  -0.011   0.222   8.547 -0.8060 -0.9766  1.2450
 6818SOL     OW22706   4.650  10.634   1.141 -0.3347 -0.5684 -0.1907
 6818SOL    HW122707   4.579  10.650   1.204 -0.3513 -2.1284  0.2341
 6818SOL    HW222708   4.673  10.720   1.108 -0.6747  0.2613  1.5960
 6819SOL     OW22709  10.345   2.971  10.303 -0.2741 -0.0470 -0.8923
 6819SOL    HW122710  10.369   2.879  10.314 -0.5770 -0.1588 -1.1561
 6819SOL    HW222711  10.258   2.969  10.263 -1.8609  0.3302  2.1971
 6820SOL     OW22712   2.014  10.305   0.516  0.5199 -0.0405 -0.1909
 6820SOL    HW122713   2.018  10.218   0.477  0.8215 -0.2052  0.1985
 6820SOL    HW222714   2.102  10.319   0.551  0.3496  0.2483  0.1197
 6821SOL     OW22715   1.434   3.938   7.607  0.4577 -0.3930 -0.3139
 6821SOL    HW122716   1.341   3.916   7.604  0.0984  0.7179  1.4502
 6821SOL    HW222717   1.460   3.945   7.515 -1.5432  0.6684 -0.8452
 6822SOL     OW22718   9.394  10.517   1.896 -0.0690  0.1721 -0.2699
 6822SOL    HW122719   9.420  10.532   1.987  1.3387 -0.6484 -0.5046
 6822SOL    HW222720   9.339  10.439   1.899 -1.8986  1.4219  0.1238
 6823SOL     OW22721   2.625  10.167   2.406  0.2561  0.6087  0.2338
 6823SOL    HW122722   2.615  10.239   2.469  1.0700 -0.1872  1.3156
 6823SOL    HW222723   2.669  10.098   2.455  0.1637 -0.3655 -0.9926
 6824SOL     OW22724   0.484   5.124   8.600  0.2107  0.4250  0.2098
 6824SOL    HW122725   0.514   5.040   8.636  1.5649  1.3346  1.3512
 6824SOL    HW222726   0.421   5.157   8.664 -0.1431  0.3908 -0.1176
 6825SOL     OW22727   4.066   0.020   6.516 -0.4565  0.1548 -0.0192
 6825SOL    HW122728   3.991   0.035   6.574  0.5535 -0.5860  1.5530
 6825SOL    HW222729   4.139   0.004   6.575  0.5124 -1.2590 -1.5150
 6826SOL     OW22730   0.216   0.689   4.444  0.5070 -0.3948 -0.2338
 6826SOL    HW122731   0.264   0.762   4.405 -1.8285  1.5110  0.2309
 6826SOL    HW222732   0.159   0.658   4.374 -0.8729  0.4528  0.4759
 6827SOL     OW22733  10.464   6.396   8.020  0.0418  0.0262 -0.1631
 6827SOL    HW122734  10.509   6.478   8.041  0.3931 -0.5637  1.6459
 6827SOL    HW222735  10.373   6.412   8.043 -0.4302  0.7044 -2.3023
 6828SOL     OW22736   7.645   9.092  10.401 -0.0764 -0.1538  0.6503
 6828SOL    HW122737   7.733   9.085  10.364  0.0457 -0.9248  1.0572
 6828SOL    HW222738   7.657   9.076  10.495 -0.8007 -1.5150  0.5327
 6829SOL     OW22739   8.921   4.639   4.045  0.1256  0.5140 -0.5257
 6829SOL    HW122740   8.869   4.617   4.121  1.1479  0.3852  0.1578
 6829SOL    HW222741   8.871   4.708   4.000 -0.8705  0.0218 -0.1958
 6830SOL     OW22742   6.782   2.458   4.817  0.3915 -0.1376 -0.7785
 6830SOL    HW122743   6.820   2.461   4.730  0.9681  0.7789 -0.4957
 6830SOL    HW222744   6.689   2.479   4.803  0.2129 -1.2055 -1.3103
 6831SOL     OW22745   4.129   6.325   6.192 -0.8165 -0.4084  0.0446
 6831SOL    HW122746   4.186   6.393   6.158 -0.5667 -0.4142  0.4419
 6831SOL    HW222747   4.163   6.244   6.154 -1.3623 -0.2759 -0.7507
 6832SOL     OW22748   1.299   6.039   8.163 -0.4455  0.4009 -0.4240
 6832SOL    HW122749   1.379   6.059   8.116  0.3362  1.1805  1.1697
 6832SOL    HW222750   1.284   5.946   8.147  0.9374  0.1752 -0.5096
 6833SOL     OW22751   7.267   2.686   8.070  0.5517 -0.0401  0.6642
 6833SOL    HW122752   7.269   2.718   8.161  0.3034  2.0529 -0.0034
 6833SOL    HW222753   7.348   2.638   8.060  0.3398 -0.7757  2.1418
 6834SOL     OW22754   9.070   7.120  10.559  0.5758  0.4170  0.1482
 6834SOL    HW122755   9.089   7.027  10.574 -1.3438  0.1507  1.2846
 6834SOL    HW222756   9.044   7.125  10.467 -1.4402 -0.6080  0.6219
 6835SOL     OW22757   7.566   6.947   9.139  0.0717  0.5069 -0.3909
 6835SOL    HW122758   7.586   6.875   9.199  1.0651  0.2907 -0.9668
 6835SOL    HW222759   7.549   7.022   9.196 -0.5434 -0.0687  0.2024
 6836SOL     OW22760   3.071   9.602   6.709 -0.6408 -0.2103  0.0545
 6836SOL    HW122761   3.151   9.608   6.760 -0.6232 -1.3114  0.1728
 6836SOL    HW222762   3.058   9.691   6.675 -1.1078  0.7756  2.6097
 6837SOL     OW22763   2.123   6.644   6.573  0.2630 -0.3525  0.6158
 6837SOL    HW122764   2.104   6.556   6.605 -0.4738  0.2225  1.8926
 6837SOL    HW222765   2.142   6.633   6.480  2.2915 -2.1171  1.1570
 6838SOL     OW22766   0.868   5.162   6.974  0.2721  0.5377 -0.2849
 6838SOL    HW122767   0.879   5.201   6.887  1.6141  1.5975  0.3331
 6838SOL    HW222768   0.898   5.072   6.963  1.1505  0.8764 -0.7453
 6839SOL     OW22769   0.663   8.037  10.382 -0.1286  0.1702  0.3579
 6839SOL    HW122770   0.739   7.993  10.420  0.2406 -1.0115 -1.6141
 6839SOL    HW222771   0.695   8.124  10.359 -0.4279  1.0169  2.8250
 6840SOL     OW22772   7.925  10.200   3.287  0.6896 -0.1230  0.1550
 6840SOL    HW122773   7.940  10.146   3.364  3.2603 -1.6714 -1.2995
 6840SOL    HW222774   7.830  10.213   3.285  0.4262 -1.0114  2.8683
 6841SOL     OW22775   2.184  10.095   2.837  0.2572  0.1638 -0.3918
 6841SOL    HW122776   2.190  10.190   2.837 -1.5530  0.3201 -0.8123
 6841SOL    HW222777   2.094  10.076   2.866  0.6162 -1.4179 -0.1843
 6842SOL     OW22778   3.251   7.118   9.956 -0.3686  0.5774  0.1857
 6842SOL    HW122779   3.167   7.149   9.989 -0.3486 -0.0338  0.8411
 6842SOL    HW222780   3.237   7.026   9.936 -1.0836  1.3956 -3.9344
 6843SOL     OW22781  10.107   2.792   8.064  0.5124  0.2191  0.0379
 6843SOL    HW122782  10.013   2.796   8.047  0.0226 -0.1505  2.2961
 6843SOL    HW222783  10.145   2.754   7.985 -1.3658 -0.5516 -0.5369
 6844SOL     OW22784   9.036   6.479   6.958  0.5346 -0.2296  0.1494
 6844SOL    HW122785   9.091   6.529   6.898  0.0466 -1.3253 -1.2603
 6844SOL    HW222786   9.098   6.441   7.021  1.1966  0.0337 -0.3273
 6845SOL     OW22787   8.099   8.722   8.134  0.0454 -1.0040 -0.1256
 6845SOL    HW122788   8.159   8.648   8.122  0.2321 -0.8042 -0.4529
 6845SOL    HW222789   8.136   8.792   8.080 -0.6406 -0.9740 -0.5716
 6846SOL     OW22790   5.584   0.100   5.642  0.0083 -0.4915  0.8328
 6846SOL    HW122791   5.644   0.139   5.706  0.8077 -1.9153  0.9896
 6846SOL    HW222792   5.549   0.023   5.686  2.2679 -2.8086 -1.1262
 6847SOL     OW22793   2.073   7.775   1.557  0.8903  0.1406  0.1271
 6847SOL    HW122794   2.100   7.866   1.542 -0.8927  0.6608 -0.1530
 6847SOL    HW222795   2.035   7.747   1.473  1.3604 -0.8415  0.2345
 6848SOL     OW22796   1.427   8.482   7.124 -0.4451 -0.3743 -0.3706
 6848SOL    HW122797   1.515   8.519   7.119 -0.4919 -0.2014  0.0752
 6848SOL    HW222798   1.441   8.387   7.122 -0.1880 -0.3628  0.6249
 6849SOL     OW22799   0.244   9.000   8.132  0.0999  0.1879  0.3194
 6849SOL    HW122800   0.334   8.969   8.138 -0.4073 -1.2172  1.0038
 6849SOL    HW222801   0.219   8.986   8.041  0.8551  1.4784 -0.1162
 6850SOL     OW22802   7.644   8.015  10.648 -0.0095 -0.3461  0.2663
 6850SOL    HW122803   7.694   8.074  10.591  1.4729 -1.2139  0.6171
 6850SOL    HW222804   7.653   7.929  10.607 -1.7429 -0.4466  0.0245
 6851SOL     OW22805   1.851   2.792   4.726  0.0275  0.5515  0.0472
 6851SOL    HW122806   1.851   2.881   4.690 -0.1789  0.3883 -0.3610
 6851SOL    HW222807   1.942   2.763   4.717 -0.2774  0.0088 -1.6205
 6852SOL     OW22808   6.649   1.677   0.074 -0.3895 -0.1366  0.1495
 6852SOL    HW122809   6.599   1.714   0.147  0.3857  1.0902  0.0700
 6852SOL    HW222810   6.586   1.618   0.031 -1.4830  0.6450  0.6123
 6853SOL     OW22811   1.242   9.132   4.175  0.1316 -0.3467 -0.7791
 6853SOL    HW122812   1.201   9.078   4.107 -0.5632 -0.5995 -0.1691
 6853SOL    HW222813   1.170   9.157   4.232  0.8759 -1.1265  0.5470
 6854SOL     OW22814   4.063   2.657  10.199 -0.3117  0.7104  0.2214
 6854SOL    HW122815   4.146   2.686  10.238  0.4426 -2.3792  1.2214
 6854SOL    HW222816   4.087   2.622  10.114 -0.1922 -1.6552  1.1417
 6855SOL     OW22817   4.288   5.472   6.476  0.2283 -0.2143  0.0599
 6855SOL    HW122818   4.226   5.400   6.477  0.9679 -0.9965  3.4907
 6855SOL    HW222819   4.366   5.437   6.433  0.3571 -1.3080  1.1334
 6856SOL     OW22820  10.349   5.455   4.146 -0.1126 -0.3946  0.3881
 6856SOL    HW122821  10.432   5.411   4.165 -0.7651 -1.2870  1.3170
 6856SOL    HW222822  10.308   5.465   4.232  0.3439  2.8192  0.3400
 6857SOL     OW22823   1.537   9.258   0.522  0.1866 -0.1587  0.1950
 6857SOL    HW122824   1.481   9.207   0.463  0.3563 -0.1271  0.0066
 6857SOL    HW222825   1.590   9.312   0.464 -0.7608  1.0522  0.4215
 6858SOL     OW22826   2.225   5.234   2.120  0.4883 -0.5984  0.5942
 6858SOL    HW122827   2.268   5.297   2.062  0.0282  0.0915  0.9895
 6858SOL    HW222828   2.238   5.150   2.078  0.3011 -0.1272 -0.4299
 6859SOL     OW22829   2.378  10.043   2.427  0.3082  0.0445  0.2271
 6859SOL    HW122830   2.442  10.092   2.374  1.2504 -2.0522 -0.7291
 6859SOL    HW222831   2.417  10.040   2.514  0.6543  0.2578  0.0832
 6860SOL     OW22832   7.669   7.807   1.906  0.0638  0.0509 -0.2275
 6860SOL    HW122833   7.604   7.857   1.857  0.5530  0.9144 -0.0093
 6860SOL    HW222834   7.722   7.873   1.950 -0.7982 -0.6896  2.0627
 6861SOL     OW22835   9.461   9.459   6.196  0.1250 -0.2477 -0.1127
 6861SOL    HW122836   9.409   9.500   6.127  0.5736 -1.3163 -1.1322
 6861SOL    HW222837   9.494   9.532   6.248  0.0485  0.6132 -1.2336
 6862SOL     OW22838   0.219   1.964   1.138 -0.1707  0.0275 -0.2944
 6862SOL    HW122839   0.126   1.959   1.117  0.0685  0.0574 -1.4061
 6862SOL    HW222840   0.228   2.045   1.189 -0.5638  0.6918 -1.2514
 6863SOL     OW22841   2.926   4.414   3.700 -0.2741  0.1664 -0.0623
 6863SOL    HW122842   2.958   4.432   3.788 -0.1671 -1.5092  0.2650
 6863SOL    HW222843   2.886   4.327   3.706 -1.5018  0.6039 -1.3497
 6864SOL     OW22844   9.309   3.488  10.217  0.3446  0.3333  0.2997
 6864SOL    HW122845   9.283   3.412  10.269  1.5446  0.1655  0.6979
 6864SOL    HW222846   9.241   3.497  10.150 -0.6528 -0.1066  1.2348
 6865SOL     OW22847  10.297   0.752   1.689 -0.4545 -0.0371  0.1964
 6865SOL    HW122848  10.303   0.754   1.785  1.1752 -0.6700  0.1521
 6865SOL    HW222849  10.231   0.686   1.670 -2.0421  1.3011  0.8711
 6866SOL     OW22850   6.086   7.590   9.355  0.7484 -0.2352  0.3666
 6866SOL    HW122851   6.134   7.558   9.431  0.9891  1.9280  1.1966
 6866SOL    HW222852   6.121   7.678   9.339 -1.0675  0.3679 -0.6474
 6867SOL     OW22853   3.404   4.224   4.773  0.4445  0.0375  0.1252
 6867SOL    HW122854   3.439   4.300   4.820  0.2699  2.0087 -2.6818
 6867SOL    HW222855   3.479   4.166   4.762  1.6271  1.7020 -1.1214
 6868SOL     OW22856   7.537   8.007   5.748  0.1728  0.3592 -0.4907
 6868SOL    HW122857   7.571   7.923   5.778  0.5627  0.1363 -1.5168
 6868SOL    HW222858   7.442   7.994   5.743  0.2468 -0.0665 -0.8010
 6869SOL     OW22859   3.731  10.376   1.093 -0.8420  0.1028  0.1250
 6869SOL    HW122860   3.636  10.375   1.079 -0.9048 -0.6467  0.5393
 6869SOL    HW222861   3.744  10.444   1.159 -1.0865  0.2910 -0.0203
 6870SOL     OW22862   9.835   6.503   0.517  0.9676  0.5378 -0.0311
 6870SOL    HW122863   9.783   6.435   0.475  2.4438  0.2743 -1.5433
 6870SOL    HW222864   9.845   6.570   0.450  3.0141  0.3178  0.0053
 6871SOL     OW22865   4.575   3.725   7.591  0.1316  0.4170 -0.4615
 6871SOL    HW122866   4.503   3.781   7.563  0.2863  1.2306  0.6936
 6871SOL    HW222867   4.652   3.782   7.593  0.1620  0.3694  1.3533
 6872SOL     OW22868   8.969   9.398   3.426 -0.5073  0.5052 -0.1204
 6872SOL    HW122869   9.015   9.348   3.359  0.0472  1.6857 -0.6448
 6872SOL    HW222870   8.886   9.351   3.438 -0.8202  0.5204 -1.9496
 6873SOL     OW22871   0.774   9.207   6.452  0.1507 -0.0555  0.5546
 6873SOL    HW122872   0.773   9.275   6.519  1.2183  1.2156 -0.6382
 6873SOL    HW222873   0.844   9.234   6.392 -0.5666 -1.2835 -0.9111
 6874SOL     OW22874   7.938   9.828   3.519 -0.5201  0.0123 -0.1409
 6874SOL    HW122875   7.851   9.792   3.540  0.3801 -1.2209  1.8880
 6874SOL    HW222876   7.975   9.767   3.455 -0.1192 -1.1020  1.1091
 6875SOL     OW22877   7.364   7.717   7.294 -0.0356  0.4522 -0.2374
 6875SOL    HW122878   7.399   7.783   7.354 -0.1510 -0.4389  0.8520
 6875SOL    HW222879   7.434   7.704   7.230  1.1001 -0.2831  1.0975
 6876SOL     OW22880   7.556   6.344   7.304  0.1652 -0.3786 -0.4486
 6876SOL    HW122881   7.612   6.322   7.230 -2.1781 -0.3410 -2.3880
 6876SOL    HW222882   7.488   6.276   7.303 -0.2808 -0.0118  1.3137
 6877SOL     OW22883   0.124   7.284   3.071  0.0269 -0.1633 -0.0766
 6877SOL    HW122884   0.145   7.211   3.012 -0.2628 -0.9065  0.7071
 6877SOL    HW222885   0.032   7.269   3.095 -0.4826  1.2875 -1.0325
 6878SOL     OW22886   1.881   8.233   2.798  0.3192 -0.4728  0.1259
 6878SOL    HW122887   1.849   8.143   2.809 -0.0949 -0.1783  1.3522
 6878SOL    HW222888   1.807   8.281   2.762  0.5277 -0.5862 -0.4873
 6879SOL     OW22889   4.490   1.252   3.447  0.2613 -0.1954 -0.5804
 6879SOL    HW122890   4.568   1.305   3.459 -0.1105  0.3436 -0.5453
 6879SOL    HW222891   4.492   1.228   3.354  1.4715 -1.7743 -0.1832
 6880SOL     OW22892   5.654   7.705   2.662  0.1296 -0.4447 -0.0545
 6880SOL    HW122893   5.678   7.617   2.635  1.1403 -0.8572  2.0248
 6880SOL    HW222894   5.666   7.706   2.757 -0.8531  1.6315  0.1144
 6881SOL     OW22895   1.605   4.985   2.890  0.4380  0.3742  0.0467
 6881SOL    HW122896   1.605   5.072   2.930  1.6964  1.8863 -2.8889
 6881SOL    HW222897   1.608   5.002   2.796 -1.1777 -2.9018 -0.7440
 6882SOL     OW22898   2.305   7.446   8.474 -0.1006 -0.2992 -0.4756
 6882SOL    HW122899   2.259   7.521   8.512  0.9629  0.1831 -0.1206
 6882SOL    HW222900   2.346   7.402   8.548  0.3797 -0.4676 -0.8347
 6883SOL     OW22901   0.991   1.644   8.348  0.3783 -0.1460 -0.1278
 6883SOL    HW122902   1.020   1.577   8.286  1.4431 -0.2007  0.4094
 6883SOL    HW222903   0.947   1.595   8.417 -1.2525 -0.0454 -1.0489
 6884SOL     OW22904   8.592   9.454   5.437  0.0148 -0.3365  0.5092
 6884SOL    HW122905   8.649   9.377   5.439  0.0247 -0.3309  2.0946
 6884SOL    HW222906   8.527   9.437   5.505  1.1269  1.8403  2.2408
 6885SOL     OW22907   0.578  10.002   2.211  0.1063 -0.3361  0.3327
 6885SOL    HW122908   0.508   9.966   2.264  1.2486 -1.4545  1.1410
 6885SOL    HW222909   0.574  10.097   2.226  0.1648 -0.5931  2.1379
 6886SOL     OW22910  10.379   8.301  10.149  0.6421 -0.2760  0.5145
 6886SOL    HW122911  10.456   8.352  10.124  0.7828 -0.5810  0.3078
 6886SOL    HW222912  10.305   8.358  10.130  0.8223  0.0694  0.8356
 6887SOL     OW22913   0.584   5.346  10.097  0.9080 -0.0319 -0.1575
 6887SOL    HW122914   0.547   5.424  10.054 -1.3816 -1.0396 -0.1511
 6887SOL    HW222915   0.679   5.357  10.088  0.6375  2.3418 -0.8744
 6888SOL     OW22916  10.233   7.649   8.461  0.2885  0.3186 -0.2593
 6888SOL    HW122917  10.255   7.725   8.408 -2.9108  1.1683 -0.5413
 6888SOL    HW222918  10.196   7.686   8.541 -0.9952 -0.8988 -0.2558
 6889SOL     OW22919   2.593   9.301   1.659  0.6130 -0.1518  0.3600
 6889SOL    HW122920   2.597   9.341   1.573  2.7447 -0.0491  0.4336
 6889SOL    HW222921   2.557   9.214   1.644 -2.2992  1.0125 -0.0653
 6890SOL     OW22922   2.919   5.571   7.111 -0.9628 -0.5604 -0.3054
 6890SOL    HW122923   2.925   5.620   7.193 -2.4527 -1.9136  0.6703
 6890SOL    HW222924   3.006   5.534   7.100  0.0099  1.7029 -0.7330
 6891SOL     OW22925   7.484   0.593   7.447 -0.3164 -0.0660 -0.4147
 6891SOL    HW122926   7.426   0.594   7.371 -0.6415 -1.3670 -0.2090
 6891SOL    HW222927   7.503   0.685   7.464 -0.3470  0.2533 -1.9780
 6892SOL     OW22928   5.272   1.221   9.285  0.6341  0.4002 -1.0463
 6892SOL    HW122929   5.358   1.253   9.257  0.0625  1.3219 -1.7995
 6892SOL    HW222930   5.229   1.194   9.204 -0.1995  0.9778 -0.8023
 6893SOL     OW22931   8.124   1.082   7.355  0.2505 -0.0329  0.1929
 6893SOL    HW122932   8.209   1.049   7.324 -0.7196 -2.7306  0.1011
 6893SOL    HW222933   8.073   1.094   7.275  0.2238  0.6935  0.3097
 6894SOL     OW22934   2.378   2.612   9.485 -0.3852 -0.0187 -0.6252
 6894SOL    HW122935   2.320   2.596   9.410 -0.7081  0.3048 -0.4469
 6894SOL    HW222936   2.444   2.672   9.451 -1.0875  0.9025 -0.3952
 6895SOL     OW22937   4.640   6.590   4.699  0.1756  0.5093 -0.0868
 6895SOL    HW122938   4.712   6.536   4.666 -0.6325  0.0372 -1.1229
 6895SOL    HW222939   4.563   6.534   4.694 -0.5635  1.5406 -0.5520
 6896SOL     OW22940   3.318   1.729   2.793  0.4164  0.7158  0.1027
 6896SOL    HW122941   3.282   1.783   2.864  0.0671  2.1276 -1.0987
 6896SOL    HW222942   3.349   1.793   2.728  1.4327 -0.5352 -0.6822
 6897SOL     OW22943   9.872   4.877   4.645  0.0264 -0.9002  0.4007
 6897SOL    HW122944   9.787   4.919   4.636 -0.0929 -1.3951 -0.9419
 6897SOL    HW222945   9.923   4.938   4.700 -0.6087  0.2873 -0.2791
 6898SOL     OW22946   1.899   5.939   8.801 -0.4285 -0.5195 -0.5372
 6898SOL    HW122947   1.975   5.995   8.788 -0.1127 -0.4002  1.5540
 6898SOL    HW222948   1.934   5.850   8.797 -0.1315 -0.4640  0.4844
 6899SOL     OW22949   1.892   7.151   5.410 -0.1274 -0.3536 -0.0498
 6899SOL    HW122950   1.825   7.201   5.363  3.2681  1.8060 -3.1903
 6899SOL    HW222951   1.925   7.089   5.345  1.8008 -0.3419  0.8515
 6900SOL     OW22952   2.429   5.654   7.215  0.1265  0.2605  0.0106
 6900SOL    HW122953   2.436   5.744   7.184 -0.8046  0.2828 -0.1775
 6900SOL    HW222954   2.506   5.610   7.179 -0.8290  0.3147 -2.3200
 6901SOL     OW22955   2.300   5.764   3.924  0.2821 -0.2480 -0.5025
 6901SOL    HW122956   2.252   5.741   3.845 -0.5019  0.5696 -0.2689
 6901SOL    HW222957   2.264   5.848   3.952  0.6582 -0.4401  0.6328
 6902SOL     OW22958   8.223  10.376   1.364 -0.0757 -0.2349 -0.3932
 6902SOL    HW122959   8.247  10.457   1.410  0.4917  0.0122 -1.1235
 6902SOL    HW222960   8.273  10.377   1.283  0.0995 -1.4288 -0.3248
 6903SOL     OW22961   5.479   0.626   4.874 -0.1869  0.4093  0.6183
 6903SOL    HW122962   5.385   0.617   4.889 -0.5295  1.8823 -0.4303
 6903SOL    HW222963   5.486   0.686   4.799  1.5864  0.3596  0.6986
 6904SOL     OW22964   1.092   3.874   3.749  0.6145  0.1379 -0.1799
 6904SOL    HW122965   1.040   3.794   3.751  0.2042  0.3736 -1.0752
 6904SOL    HW222966   1.070   3.919   3.831 -1.6716  0.9050 -1.1382
 6905SOL     OW22967   5.247   4.092   8.650 -0.7774  1.0831  0.3415
 6905SOL    HW122968   5.260   4.112   8.743  0.3469  0.6715  0.2880
 6905SOL    HW222969   5.335   4.094   8.613 -1.0165 -0.3811 -0.3823
 6906SOL     OW22970   7.840  10.444   5.230 -0.6502 -0.2223 -0.4384
 6906SOL    HW122971   7.868  10.535   5.239  0.4980 -0.5670 -0.2191
 6906SOL    HW222972   7.750  10.442   5.262 -1.1807  1.0891 -1.7955
 6907SOL     OW22973   8.469   9.575   4.177 -0.4643 -0.1792 -0.0810
 6907SOL    HW122974   8.484   9.666   4.203  1.3682  0.7139 -3.7441
 6907SOL    HW222975   8.374   9.563   4.188 -0.6193  1.8311  1.3490
 6908SOL     OW22976   4.794   1.086   3.602 -0.0404  0.3186 -0.2230
 6908SOL    HW122977   4.763   1.155   3.660 -1.1064 -0.5126  0.2574
 6908SOL    HW222978   4.888   1.098   3.596 -0.2838  2.2082 -0.7048
 6909SOL     OW22979   6.637   8.928   8.298  0.1859 -0.1497 -0.1689
 6909SOL    HW122980   6.606   8.850   8.345  1.7151 -0.9154 -0.3504
 6909SOL    HW222981   6.696   8.971   8.360  1.4241 -0.6155 -0.9824
 6910SOL     OW22982   7.184   5.411   2.098  0.5046  0.6007  0.2325
 6910SOL    HW122983   7.207   5.328   2.056 -1.0291  0.5134 -0.5156
 6910SOL    HW222984   7.175   5.389   2.191  0.9719  0.1328  0.1723
 6911SOL     OW22985   6.656   5.726   0.437 -0.6838  0.0257  0.3717
 6911SOL    HW122986   6.657   5.709   0.531 -1.2369 -1.6736  0.1159
 6911SOL    HW222987   6.615   5.647   0.399 -1.7644  1.2612 -1.1751
 6912SOL     OW22988   3.968   8.215   9.806 -0.0213 -0.4206 -0.4440
 6912SOL    HW122989   3.946   8.147   9.742 -0.6183  0.1015 -0.8051
 6912SOL    HW222990   3.917   8.291   9.778  1.3009  0.4540 -0.5734
 6913SOL     OW22991   8.397   2.778   8.585 -0.5889 -0.2052  0.2342
 6913SOL    HW122992   8.406   2.685   8.605  1.3547 -0.1097  0.0315
 6913SOL    HW222993   8.366   2.780   8.494 -1.0684 -0.6468  0.3831
 6914SOL     OW22994  10.413   0.626   4.021 -0.1361 -0.1607 -0.1989
 6914SOL    HW122995  10.336   0.666   4.060 -0.5246  0.4092 -1.4826
 6914SOL    HW222996  10.483   0.690   4.032  0.6715 -1.3661  2.5003
 6915SOL     OW22997   9.409   5.686   3.636 -0.0717 -0.1805  0.1979
 6915SOL    HW122998   9.396   5.613   3.576  1.2800 -0.9072  0.7397
 6915SOL    HW222999   9.458   5.750   3.586  0.9537 -0.7370  0.4596
 6916SOL     OW23000   3.571   5.556   5.153 -0.8599  0.1484  0.2908
 6916SOL    HW123001   3.552   5.642   5.114  4.3873  0.6913 -1.8327
 6916SOL    HW223002   3.597   5.577   5.243 -2.7616  0.2463  0.8627
 6917SOL     OW23003   9.716   6.720   4.994  0.2011  0.4186  0.6297
 6917SOL    HW123004   9.647   6.786   4.988  0.6100  0.8119  0.0858
 6917SOL    HW223005   9.794   6.769   5.022  0.9352  0.5294 -1.3882
 6918SOL     OW23006   6.339   0.971  10.388 -0.0620  0.4056  0.7394
 6918SOL    HW123007   6.256   0.946  10.347  0.3626 -1.4394  0.9350
 6918SOL    HW223008   6.342   1.066  10.379 -0.2495  0.1854 -3.0559
 6919SOL     OW23009   3.184   6.962   6.261 -0.4932  0.0852 -0.2517
 6919SOL    HW123010   3.180   7.056   6.248 -2.1942  0.0816 -0.0200
 6919SOL    HW223011   3.223   6.928   6.180 -1.3035  0.8730 -0.9981
 6920SOL     OW23012   7.637   0.208   9.229 -0.0852  0.2626  0.4833
 6920SOL    HW123013   7.708   0.197   9.293 -0.9714  0.4459  1.5426
 6920SOL    HW223014   7.568   0.150   9.262  0.7930 -2.7557 -2.4823
 6921SOL     OW23015   8.376   8.973   8.978 -0.6623  0.3045  0.2529
 6921SOL    HW123016   8.394   8.957   9.071  1.2985  0.4036 -0.0527
 6921SOL    HW223017   8.459   8.952   8.934 -1.4377  0.6117 -1.4340
 6922SOL     OW23018   5.492   5.057   2.573  0.2058  0.1381 -0.2717
 6922SOL    HW123019   5.424   5.123   2.587 -1.6718 -1.1442 -2.5548
 6922SOL    HW223020   5.463   4.981   2.623  0.7761  0.0792 -0.0255
 6923SOL     OW23021   3.382   5.155   9.820 -0.5887 -0.1788 -0.4363
 6923SOL    HW123022   3.307   5.104   9.791  0.7604 -0.8043 -3.1470
 6923SOL    HW223023   3.445   5.091   9.852  0.2186 -0.0459 -1.7005
 6924SOL     OW23024   9.023   2.986   2.421  0.5339 -0.2847 -0.1129
 6924SOL    HW123025   9.066   2.962   2.503 -0.2515 -0.4028  0.2675
 6924SOL    HW223026   8.960   2.917   2.405  0.1424  0.1351 -0.4134
 6925SOL     OW23027   0.687   9.585   7.235 -0.2928  0.1428 -0.4772
 6925SOL    HW123028   0.718   9.667   7.275 -1.4646  1.0204 -1.3002
 6925SOL    HW223029   0.607   9.610   7.188  0.8792 -0.8490 -3.2099
 6926SOL     OW23030   8.666   6.102   1.251  0.1427 -0.1599  0.0374
 6926SOL    HW123031   8.610   6.102   1.173  1.0374  1.3250 -0.6537
 6926SOL    HW223032   8.729   6.172   1.235  1.4633 -0.9999  1.3286
 6927SOL     OW23033   8.445   0.153   5.151 -0.0625 -0.1954  0.2430
 6927SOL    HW123034   8.379   0.195   5.095 -0.0778 -3.3109 -2.3728
 6927SOL    HW223035   8.401   0.143   5.236 -2.1830 -0.1847 -0.7695
 6928SOL     OW23036   0.126   9.343   6.792 -0.1236 -0.5965  0.0261
 6928SOL    HW123037   0.048   9.296   6.763  1.1959 -1.6241 -2.1020
 6928SOL    HW223038   0.141   9.409   6.724 -0.0296  0.7279  1.2698
 6929SOL     OW23039   9.951   4.690   3.788  0.1637  0.1092  0.6636
 6929SOL    HW123040   9.859   4.704   3.767 -0.1981 -2.0005  0.5957
 6929SOL    HW223041   9.997   4.761   3.743 -1.4746  1.6831  1.3826
 6930SOL     OW23042   7.395   4.203   8.430  0.2441 -0.0898  0.0872
 6930SOL    HW123043   7.462   4.157   8.380  1.0984  1.4016 -0.2089
 6930SOL    HW223044   7.432   4.209   8.519 -0.3533 -0.9198  0.4043
 6931SOL     OW23045   1.461   1.545   5.225 -0.0140 -0.5909 -0.5371
 6931SOL    HW123046   1.487   1.612   5.162 -0.5563 -2.1219 -2.4588
 6931SOL    HW223047   1.456   1.464   5.175  0.5140 -2.1043  1.6849
 6932SOL     OW23048  10.506   0.165   8.429 -0.1528  0.3657  0.0723
 6932SOL    HW123049  10.472   0.076   8.424  1.1075 -0.0993 -3.7776
 6932SOL    HW223050  10.437   0.220   8.393  0.2074  0.4743 -0.4757
 6933SOL     OW23051   8.864   1.344   2.675  0.1513 -0.1353  0.2091
 6933SOL    HW123052   8.844   1.270   2.618  0.8230 -0.7269  0.7253
 6933SOL    HW223053   8.831   1.421   2.628  0.9124 -0.5784 -1.0759
 6934SOL     OW23054   7.566   5.318   7.609  1.0674  0.3490 -0.0197
 6934SOL    HW123055   7.624   5.306   7.534 -1.9448 -2.1751 -2.1933
 6934SOL    HW223056   7.611   5.275   7.682  1.7406 -2.0555 -1.7471
 6935SOL     OW23057   3.437   6.359   1.080  0.3961  0.5358 -0.0609
 6935SOL    HW123058   3.386   6.279   1.098 -1.0203  1.2294 -0.8528
 6935SOL    HW223059   3.416   6.417   1.153  0.8734  0.4663  0.1396
 6936SOL     OW23060   9.399   2.843   3.150 -0.1196 -0.0349  0.4210
 6936SOL    HW123061   9.319   2.790   3.151  0.6682 -1.2384  1.7979
 6936SOL    HW223062   9.403   2.883   3.237  0.3652  0.6842  0.0819
 6937SOL     OW23063   2.795   8.700   3.312 -0.0330 -0.8878  0.1552
 6937SOL    HW123064   2.855   8.748   3.368  0.2461 -0.5841 -0.3890
 6937SOL    HW223065   2.841   8.618   3.293  0.0093 -0.8575  0.1240
 6938SOL     OW23066   9.371   7.449   1.369 -0.4268  0.4317 -0.0222
 6938SOL    HW123067   9.324   7.526   1.337 -1.3996 -0.5732 -1.1526
 6938SOL    HW223068   9.317   7.415   1.440  1.4881  2.3816  2.5993
 6939SOL     OW23069   6.163   8.820   4.346  0.3014  0.3335  0.1015
 6939SOL    HW123070   6.109   8.810   4.424 -0.4394  0.4827 -0.3851
 6939SOL    HW223071   6.248   8.783   4.371  0.2300  0.8287  1.1347
 6940SOL     OW23072   1.364   4.968   7.645  0.1202  0.4314  0.2778
 6940SOL    HW123073   1.320   5.053   7.646 -1.3720 -0.3030  0.9927
 6940SOL    HW223074   1.368   4.943   7.738 -1.8782 -1.4275 -0.0544
 6941SOL     OW23075   3.576   2.992   7.959 -0.1906 -0.2327  0.0217
 6941SOL    HW123076   3.540   2.903   7.968 -1.9524  0.4423  0.0281
 6941SOL    HW223077   3.646   2.996   8.024  0.1877 -1.7357 -0.2437
 6942SOL     OW23078   5.117   2.072   7.322  0.1080  0.7641 -0.4215
 6942SOL    HW123079   5.070   2.128   7.384  1.7484  1.5240  0.2022
 6942SOL    HW223080   5.049   2.027   7.273 -1.2456  0.9657  1.2019
 6943SOL     OW23081   9.524   7.125   3.022 -0.3301 -0.0958 -0.6540
 6943SOL    HW123082   9.611   7.114   3.061  0.7213  0.5534 -2.6552
 6943SOL    HW223083   9.491   7.207   3.058  0.7321  0.6398 -1.3068
 6944SOL     OW23084   0.450   7.551   0.558  0.3075  0.1676 -0.8343
 6944SOL    HW123085   0.498   7.614   0.504  1.7144 -0.5703 -0.4704
 6944SOL    HW223086   0.435   7.598   0.640 -0.3955  0.7073 -1.2522
 6945SOL     OW23087  10.180   6.042  10.520 -0.1214  0.0656 -0.4159
 6945SOL    HW123088  10.146   6.086  10.598  0.7232  1.4382 -0.7881
 6945SOL    HW223089  10.119   6.067  10.451 -0.2565 -0.2713 -0.4222
 6946SOL     OW23090   2.918   2.847   3.176  0.4481  0.4878 -0.0438
 6946SOL    HW123091   2.847   2.825   3.116  1.3547  0.7189 -1.2196
 6946SOL    HW223092   2.875   2.857   3.261 -0.6005 -1.6402 -0.2720
 6947SOL     OW23093   7.104   2.363   7.668 -0.3588  0.0735  0.2069
 6947SOL    HW123094   7.055   2.365   7.586  0.2868 -1.4865 -0.2485
 6947SOL    HW223095   7.046   2.405   7.732 -0.8098  1.4539 -1.0507
 6948SOL     OW23096   6.919   5.307   4.791  0.0211 -0.2890  0.1969
 6948SOL    HW123097   6.851   5.293   4.726 -0.4690 -0.0237  0.6454
 6948SOL    HW223098   6.877   5.285   4.875  0.5090 -0.2025  0.4690
 6949SOL     OW23099   1.226  10.148   1.191  0.1423 -0.0352 -0.5414
 6949SOL    HW123100   1.239  10.053   1.187  0.5287 -0.0073 -0.0587
 6949SOL    HW223101   1.132  10.159   1.204  0.4166 -0.4699  2.4094
 6950SOL     OW23102   9.988   1.553   1.083  0.0240  0.2559 -0.4445
 6950SOL    HW123103  10.028   1.467   1.094  0.5790  0.6107  0.3969
 6950SOL    HW223104   9.934   1.544   1.004 -1.0744 -1.2943  0.4262
 6951SOL     OW23105   4.795   4.065   5.490  0.2248  0.7599  0.3133
 6951SOL    HW123106   4.874   4.037   5.445 -0.4523  0.7582 -0.9265
 6951SOL    HW223107   4.821   4.143   5.538  1.0377  0.6057  0.1353
 6952SOL     OW23108   9.605  10.087   7.506  0.0876  0.0829 -0.3437
 6952SOL    HW123109   9.611  10.007   7.559 -0.2863  0.6650  0.6072
 6952SOL    HW223110   9.563  10.151   7.564  1.1546  1.2280 -0.7830
 6953SOL     OW23111   3.557   5.927   8.460  0.9022  0.5241 -0.3668
 6953SOL    HW123112   3.508   5.886   8.389  1.3218  0.7906 -0.8198
 6953SOL    HW223113   3.635   5.872   8.469  1.0919  0.7755 -0.4559
 6954SOL     OW23114   4.023   1.535   1.981 -0.1448  0.2036 -0.2301
 6954SOL    HW123115   4.003   1.615   1.933 -1.5799 -0.3502 -0.5846
 6954SOL    HW223116   4.048   1.565   2.068  0.2280  1.0743 -0.6227
 6955SOL     OW23117   7.791   0.920   9.177  0.0854  0.1530 -0.1524
 6955SOL    HW123118   7.826   0.975   9.107 -0.2869  1.1156  0.3948
 6955SOL    HW223119   7.726   0.864   9.134 -1.2656  1.8107 -0.3395
 6956SOL     OW23120   6.771   7.785   1.824 -0.0634  0.2038  0.0500
 6956SOL    HW123121   6.684   7.817   1.848  0.5250  1.0983  1.0993
 6956SOL    HW223122   6.825   7.864   1.819  0.3555 -0.1776 -2.2000
 6957SOL     OW23123   5.117   8.290   0.031 -0.0832 -0.1095 -0.4652
 6957SOL    HW123124   5.147   8.313   0.119 -0.5462  0.8653 -0.5547
 6957SOL    HW223125   5.131   8.369  -0.021 -0.1656 -0.5574 -1.1805
 6958SOL     OW23126  10.146   8.373   1.726  0.0475  0.0684 -0.2035
 6958SOL    HW123127  10.223   8.350   1.779 -0.4345 -0.1947  0.3990
 6958SOL    HW223128  10.182   8.403   1.643  0.8060  0.0251  0.1012
 6959SOL     OW23129   1.671   6.635   2.018  0.2640 -0.5164  0.8890
 6959SOL    HW123130   1.758   6.610   2.051  0.9111  0.9171  0.3179
 6959SOL    HW223131   1.666   6.597   1.931  1.3116  1.3864 -0.0426
 6960SOL     OW23132   3.390   0.362   3.101 -0.3185  0.0645 -0.3049
 6960SOL    HW123133   3.312   0.416   3.114 -1.0601 -0.9995 -0.2210
 6960SOL    HW223134   3.358   0.283   3.057  0.1523 -1.7462  2.3581
 6961SOL     OW23135   6.195   4.525   0.105  0.4313  0.1865  0.5422
 6961SOL    HW123136   6.251   4.453   0.135  0.2142 -0.0206  0.4543
 6961SOL    HW223137   6.228   4.602   0.152  0.8908  0.0997  0.3689
 6962SOL     OW23138   8.042   5.898   2.872 -0.1041  0.1996 -0.3759
 6962SOL    HW123139   8.135   5.916   2.855 -0.1996  0.9108 -0.1801
 6962SOL    HW223140   8.042   5.851   2.955 -0.0519  2.3024  0.8902
 6963SOL     OW23141   1.312   2.800  10.487 -0.6487 -0.5580  0.6976
 6963SOL    HW123142   1.381   2.808  10.554 -1.8269 -0.8998  2.0096
 6963SOL    HW223143   1.233   2.830  10.532 -1.1981  0.8476 -1.1084
 6964SOL     OW23144   3.855   7.887   8.108  0.4050  0.0889 -0.5709
 6964SOL    HW123145   3.820   7.918   8.191 -0.8563  0.6043 -1.2714
 6964SOL    HW223146   3.859   7.792   8.118  0.6625  0.1797  0.2210
 6965SOL     OW23147   8.632   3.248   7.340  1.2720  0.3988  0.1161
 6965SOL    HW123148   8.666   3.207   7.260  0.8626  1.4747 -0.6392
 6965SOL    HW223149   8.639   3.342   7.322 -0.4003  0.6533  0.6735
 6966SOL     OW23150   2.498   8.948   4.246  0.2406  0.4666 -0.5792
 6966SOL    HW123151   2.536   8.886   4.308 -0.4589  0.7115  0.1030
 6966SOL    HW223152   2.519   9.034   4.282 -2.2160  0.6282  0.6404
 6967SOL     OW23153  10.620   7.980   3.058 -0.0992  0.3767  0.0088
 6967SOL    HW123154  10.683   7.992   3.129  0.5826 -0.4594 -0.4342
 6967SOL    HW223155  10.571   8.062   3.055 -1.3678 -0.1463  2.6210
 6968SOL     OW23156   6.763  10.532   1.966 -0.7123 -0.0943  0.3877
 6968SOL    HW123157   6.782  10.547   1.874 -1.1893  1.7709  0.5603
 6968SOL    HW223158   6.742  10.439   1.971  0.6457 -0.5391 -1.1247
 6969SOL     OW23159   7.040   5.796   9.519  0.0292  0.1051  0.2325
 6969SOL    HW123160   6.984   5.720   9.509  0.3583 -0.3876  1.8468
 6969SOL    HW223161   7.103   5.790   9.447  0.5024 -1.5776  0.7380
 6970SOL     OW23162   5.254   2.247   2.908 -0.7971  0.2465 -0.0697
 6970SOL    HW123163   5.301   2.176   2.863  1.6278  0.6141  1.7049
 6970SOL    HW223164   5.202   2.288   2.839  1.1434 -0.4997 -2.1048
 6971SOL     OW23165   5.831   7.806   9.660 -0.4381  0.3546 -0.8784
 6971SOL    HW123166   5.773   7.795   9.735  0.1179  2.0882 -0.1415
 6971SOL    HW223167   5.778   7.783   9.584 -1.4317 -0.0986 -0.0666
 6972SOL     OW23168   6.597   2.594   0.345  0.2800  0.2978 -0.4557
 6972SOL    HW123169   6.637   2.582   0.432 -2.6996 -0.6574  0.9199
 6972SOL    HW223170   6.582   2.688   0.339 -1.8112  0.1492  1.2963
 6973SOL     OW23171   5.452   0.221   2.984 -0.2549 -0.4519 -0.1044
 6973SOL    HW123172   5.465   0.313   3.007 -0.4965 -0.4864  0.1857
 6973SOL    HW223173   5.375   0.195   3.035  0.0553 -0.9257  0.1298
 6974SOL     OW23174   5.833   1.089   5.190  0.4025 -0.1554  0.0080
 6974SOL    HW123175   5.803   0.998   5.193  0.0194 -0.0290  0.0411
 6974SOL    HW223176   5.765   1.138   5.235  0.0908  0.2922 -0.9371
 6975SOL     OW23177   1.829   3.328   8.240  0.0124  0.5605 -0.1011
 6975SOL    HW123178   1.883   3.337   8.162 -0.3892  3.1356 -0.1645
 6975SOL    HW223179   1.814   3.234   8.248 -0.2986  0.2261 -3.3460
 6976SOL     OW23180   8.737   1.590   2.568  0.0884  0.5038 -0.1778
 6976SOL    HW123181   8.781   1.660   2.521 -0.0690  0.4797 -0.3636
 6976SOL    HW223182   8.668   1.634   2.617  0.2561  0.5295  0.0357
 6977SOL     OW23183   3.285   2.387   2.981 -0.3213 -0.0552 -0.2672
 6977SOL    HW123184   3.209   2.330   2.993  0.2046 -1.0720 -1.5514
 6977SOL    HW223185   3.258   2.470   3.021 -0.8751 -1.3232  2.2704
 6978SOL     OW23186   3.994   6.764   8.544 -0.3856  0.1255 -0.0994
 6978SOL    HW123187   4.080   6.753   8.503  0.7795  0.4926  2.0789
 6978SOL    HW223188   3.961   6.846   8.507 -0.1531 -0.3873 -1.5032
 6979SOL     OW23189   2.532   1.210   0.434  0.2707  0.8698  0.0138
 6979SOL    HW123190   2.602   1.273   0.454  1.7560 -0.4810 -0.7620
 6979SOL    HW223191   2.520   1.162   0.516 -0.1640  1.4705  0.3119
 6980SOL     OW23192   1.417   9.057   9.778 -0.0028  0.4611 -0.0060
 6980SOL    HW123193   1.454   9.132   9.825 -2.0819  1.6557 -0.1447
 6980SOL    HW223194   1.357   9.016   9.841  0.6703 -0.7534 -0.1277
 6981SOL     OW23195   0.169   9.599   8.311  0.0261  0.2125 -0.1707
 6981SOL    HW123196   0.195   9.657   8.239 -1.3962  0.5476 -0.4510
 6981SOL    HW223197   0.074   9.587   8.299 -0.4597  1.1205  2.2167
 6982SOL     OW23198   0.880   4.050   3.492 -0.1792  0.0137  0.0141
 6982SOL    HW123199   0.860   4.115   3.424 -1.0521  0.0184  0.2584
 6982SOL    HW223200   0.939   4.095   3.552  0.6108  0.0038 -0.7437
 6983SOL     OW23201   4.165   5.228   2.400  0.2914  0.2446  0.1384
 6983SOL    HW123202   4.140   5.145   2.359 -1.4037 -0.0452  1.6290
 6983SOL    HW223203   4.114   5.295   2.353  2.0559  0.5728 -1.4191
 6984SOL     OW23204   6.006   9.092   7.935 -0.1551 -0.1532  0.3264
 6984SOL    HW123205   6.022   9.027   7.866 -2.1326  0.0124 -0.3374
 6984SOL    HW223206   5.997   9.040   8.015 -3.0488 -0.9319 -0.3951
 6985SOL     OW23207   9.752   2.279   6.171 -0.1023 -0.8810  0.0419
 6985SOL    HW123208   9.823   2.293   6.109  0.6833 -1.8107  0.6977
 6985SOL    HW223209   9.796   2.248   6.250 -0.9011  1.6450  1.6027
 6986SOL     OW23210   7.565   8.170  10.205 -0.0166 -0.5007  0.3396
 6986SOL    HW123211   7.600   8.166  10.294  0.6484 -1.3664  0.0527
 6986SOL    HW223212   7.624   8.230  10.159 -1.9084  2.1354  1.1161
 6987SOL     OW23213   1.020   0.550   7.086 -0.3318 -0.1183  0.2134
 6987SOL    HW123214   1.101   0.581   7.128 -0.7608 -1.4906  2.1682
 6987SOL    HW223215   0.958   0.541   7.158 -2.0557  0.2780 -1.1746
 6988SOL     OW23216   8.390   3.865   3.881  0.0090 -0.0282  0.2750
 6988SOL    HW123217   8.314   3.845   3.936  0.0016 -1.5258 -0.2273
 6988SOL    HW223218   8.357   3.925   3.814 -0.6369 -0.3659  0.2905
 6989SOL     OW23219   6.181   2.785   3.237 -0.0808 -0.3997 -0.2617
 6989SOL    HW123220   6.148   2.700   3.266  1.2075 -0.8747 -0.0952
 6989SOL    HW223221   6.238   2.764   3.163  0.6192  0.2532  0.0731
 6990SOL     OW23222   9.408   3.154   3.736  0.5596 -0.0928  0.1957
 6990SOL    HW123223   9.436   3.063   3.747 -0.4972 -0.6905 -1.6084
 6990SOL    HW223224   9.316   3.155   3.762  0.0827  0.0305 -1.3435
 6991SOL     OW23225   7.690   2.820   5.021 -0.1318 -0.1194  0.7003
 6991SOL    HW123226   7.767   2.806   4.966 -1.1047  1.2809 -1.1335
 6991SOL    HW223227   7.726   2.847   5.106  1.4550  1.5196 -0.3944
 6992SOL     OW23228   6.676   6.598   4.375  0.4204 -0.4451 -0.3829
 6992SOL    HW123229   6.710   6.626   4.290 -1.0271  0.8287 -0.5965
 6992SOL    HW223230   6.610   6.532   4.355  0.2180 -0.2864 -0.2541
 6993SOL     OW23231   2.632   2.113   9.922 -0.2087 -0.6202 -0.4499
 6993SOL    HW123232   2.660   2.185   9.865  2.3835 -0.4516  0.8569
 6993SOL    HW223233   2.624   2.153  10.008 -0.7199 -1.5203 -0.0711
 6994SOL     OW23234   0.058   4.569   4.262 -0.0036 -0.1918  0.0752
 6994SOL    HW123235   0.044   4.572   4.356  1.9704 -0.9034  0.4399
 6994SOL    HW223236   0.147   4.534   4.252  0.7247  1.9624 -1.9637
 6995SOL     OW23237   9.222   9.493   7.230 -0.0290 -0.2745  0.3953
 6995SOL    HW123238   9.185   9.534   7.309 -0.0093  0.1158  0.2023
 6995SOL    HW223239   9.158   9.426   7.207 -0.5441  0.2843  0.1603
 6996SOL     OW23240   9.961   7.879   8.260 -0.4130 -0.1819  0.0371
 6996SOL    HW123241   9.977   7.786   8.274 -0.0375 -0.4493 -1.8987
 6996SOL    HW223242  10.039   7.922   8.294  1.4937 -0.9612 -2.9950
 6997SOL     OW23243   7.387   6.740   2.002  0.3279  0.0551  0.1365
 6997SOL    HW123244   7.334   6.668   1.971  0.8482  0.5651 -2.0787
 6997SOL    HW223245   7.473   6.702   2.018  0.3314 -0.0149 -0.0510
 6998SOL     OW23246  10.321   4.281   9.738 -0.1628  0.3571  0.1656
 6998SOL    HW123247  10.395   4.307   9.683 -0.1433 -0.8078 -0.3813
 6998SOL    HW223248  10.362   4.242   9.816 -0.1742 -1.2528 -0.6053
 6999SOL     OW23249   3.805   9.443   1.129  0.8212 -0.0537 -0.0431
 6999SOL    HW123250   3.753   9.367   1.103  0.6564 -0.3473  1.1210
 6999SOL    HW223251   3.893   9.408   1.142  1.1619  0.2963 -1.2209
 7000SOL     OW23252   1.380   7.297   8.843 -0.3890 -0.2335  0.2445
 7000SOL    HW123253   1.296   7.321   8.881 -0.6829 -2.4953  1.1227
 7000SOL    HW223254   1.443   7.310   8.914  0.2554  2.4197 -0.6922
 7001SOL     OW23255   2.002   2.311   1.618  0.2879  0.1663 -0.6497
 7001SOL    HW123256   1.911   2.299   1.591 -0.1069  0.8882  0.3022
 7001SOL    HW223257   2.026   2.229   1.660 -0.7313  0.7912  1.2579
 7002SOL     OW23258   3.090   2.873   8.358 -0.4628  0.2080 -0.3989
 7002SOL    HW123259   3.103   2.886   8.452 -0.8211  0.7394 -0.4203
 7002SOL    HW223260   3.153   2.805   8.334  0.5756  1.0314 -0.0391
 7003SOL     OW23261   0.474   7.998   9.990  0.5163  0.2053 -0.2618
 7003SOL    HW123262   0.427   8.017  10.071  2.9400  2.2813  0.7809
 7003SOL    HW223263   0.559   7.966  10.019 -0.0318 -3.3798 -2.0770
 7004SOL     OW23264   9.173   2.007   5.980  0.3682 -0.7748 -0.5044
 7004SOL    HW123265   9.151   1.975   5.892 -0.8469 -1.7792  0.1393
 7004SOL    HW223266   9.124   1.950   6.039  3.0188 -1.7346  0.9522
 7005SOL     OW23267   7.291   9.124   5.882  0.1338  0.0866  0.4748
 7005SOL    HW123268   7.365   9.080   5.924  2.8857  0.8559 -3.0952
 7005SOL    HW223269   7.255   9.060   5.821 -0.0508  0.7197 -0.0986
 7006SOL     OW23270   9.814   9.757   7.009 -0.3126  0.2124  0.5390
 7006SOL    HW123271   9.810   9.702   7.087 -0.6902 -0.1268  0.2825
 7006SOL    HW223272   9.751   9.827   7.026 -0.3575  0.1674  0.5566
 7007SOL     OW23273   4.612   1.099   7.531 -0.4029  0.1711 -0.2235
 7007SOL    HW123274   4.588   1.140   7.614 -2.0347  0.3751 -0.7642
 7007SOL    HW223275   4.545   1.033   7.517  0.2026 -0.2736 -1.0952
 7008SOL     OW23276   9.510   1.456   3.593 -0.3604 -0.3341 -0.3846
 7008SOL    HW123277   9.441   1.408   3.639 -0.4306  1.0297  1.0123
 7008SOL    HW223278   9.505   1.545   3.628  0.5645  0.4017 -2.0101
 7009SOL     OW23279   0.505   5.923   6.739 -0.2251  0.3270 -0.0757
 7009SOL    HW123280   0.513   5.860   6.811 -0.0318  1.9528  1.3828
 7009SOL    HW223281   0.433   5.889   6.686 -0.2937 -0.9814  0.7988
 7010SOL     OW23282   2.780   3.002   7.506 -0.1368 -0.0358  0.0681
 7010SOL    HW123283   2.802   2.956   7.425  0.7121 -0.3681  0.4742
 7010SOL    HW223284   2.684   2.997   7.511 -0.2301  0.2686 -1.0653
 7011SOL     OW23285   6.066   5.662   5.728 -0.5551  0.3222 -0.3609
 7011SOL    HW123286   6.091   5.652   5.636  0.8795  1.2156 -0.0956
 7011SOL    HW223287   6.107   5.744   5.755 -2.0593  0.7525  0.7311
 7012SOL     OW23288   8.904   4.342   2.112  0.1271 -0.2336  0.1139
 7012SOL    HW123289   8.885   4.291   2.034  0.3039 -0.5475  0.2740
 7012SOL    HW223290   8.894   4.281   2.185  1.3346 -0.3196  0.2339
 7013SOL     OW23291   0.049   7.709   2.472  0.1707  0.6195  0.1937
 7013SOL    HW123292   0.089   7.736   2.389  2.6243 -0.5600  0.9134
 7013SOL    HW223293   0.120   7.715   2.536 -1.8273  2.1662  2.4231
 7014SOL     OW23294   9.194   0.530   2.366  0.6371  0.1652 -0.3563
 7014SOL    HW123295   9.235   0.545   2.451  1.3573  0.4826 -0.7505
 7014SOL    HW223296   9.128   0.600   2.359 -0.9566 -1.1443  0.8549
 7015SOL     OW23297   4.506   7.737   8.809 -0.6813  0.2775 -0.0456
 7015SOL    HW123298   4.477   7.797   8.877 -0.8346 -0.4261  0.5282
 7015SOL    HW223299   4.587   7.699   8.844 -0.5824  0.1542 -0.4020
 7016SOL     OW23300   2.368   0.427   8.430 -0.1391 -0.5687 -0.2249
 7016SOL    HW123301   2.304   0.360   8.404 -0.5402 -0.2892  0.0281
 7016SOL    HW223302   2.343   0.505   8.380 -0.6258 -0.1654  0.6412
 7017SOL     OW23303   9.467   0.513   9.042 -0.6124  0.0775 -0.3002
 7017SOL    HW123304   9.468   0.532   8.948 -1.3644  0.2432 -0.2787
 7017SOL    HW223305   9.500   0.423   9.049  0.9443  0.5984 -0.5844
 7018SOL     OW23306   2.893   8.702   4.516  0.3102 -0.1688  0.0497
 7018SOL    HW123307   2.806   8.738   4.500 -0.6825 -1.0561  2.8641
 7018SOL    HW223308   2.879   8.608   4.524  1.2496 -0.1857  1.9827
 7019SOL     OW23309   8.238   5.458   4.842  0.2451 -0.3275  0.2890
 7019SOL    HW123310   8.176   5.520   4.881  0.1807 -0.6300  0.6616
 7019SOL    HW223311   8.263   5.400   4.913 -0.6471 -1.5101 -0.3249
 7020SOL     OW23312   3.429   0.321   6.676  0.1840  1.2272  0.2875
 7020SOL    HW123313   3.525   0.326   6.678  0.2779 -0.1704  0.3920
 7020SOL    HW223314   3.410   0.256   6.608 -0.5933 -0.0147  1.6322
 7021SOL     OW23315   0.608   4.586   9.221 -0.2297 -0.1807 -0.8305
 7021SOL    HW123316   0.679   4.525   9.237 -0.4619 -0.0790  0.7049
 7021SOL    HW223317   0.535   4.531   9.193 -0.5110 -0.6583  0.7799
 7022SOL     OW23318   5.612   4.271  10.302 -0.0960 -0.1804 -0.1896
 7022SOL    HW123319   5.694   4.309  10.334 -0.2663 -1.2939  1.6602
 7022SOL    HW223320   5.628   4.177  10.300 -1.1549 -0.3667 -0.3851
 7023SOL     OW23321   7.989   4.995   8.451 -0.3203 -0.1172 -0.2828
 7023SOL    HW123322   7.975   4.979   8.358  0.6378 -0.7679 -0.3284
 7023SOL    HW223323   8.015   5.087   8.455  0.3256 -0.2741 -0.7440
 7024SOL     OW23324   9.441   6.340  10.635 -0.3321 -0.3384  0.8117
 7024SOL    HW123325   9.517   6.399  10.633  1.0782 -2.0173  2.2432
 7024SOL    HW223326   9.400   6.357  10.720 -1.3853  0.2786  0.2062
 7025SOL     OW23327   1.116   4.558  10.581 -0.1697  0.6039 -0.4781
 7025SOL    HW123328   1.103   4.547  10.675  1.4922  0.7547 -0.1881
 7025SOL    HW223329   1.035   4.528  10.541  0.1700 -2.3731  0.8420
 7026SOL     OW23330   6.038   2.071   1.709 -0.1846 -0.0455 -0.5892
 7026SOL    HW123331   5.997   2.133   1.649  0.2144  2.0663  1.2235
 7026SOL    HW223332   5.965   2.028   1.754 -0.4483 -0.6565 -1.5614
 7027SOL     OW23333   6.736   2.563   6.644  0.0535 -0.1985 -0.0837
 7027SOL    HW123334   6.703   2.477   6.617 -0.4364  0.5285 -1.9556
 7027SOL    HW223335   6.662   2.604   6.687 -0.6626  0.3589 -1.7802
 7028SOL     OW23336   5.067   5.734   5.225 -0.2244  0.4738  0.2787
 7028SOL    HW123337   5.111   5.815   5.248 -1.5662  1.0970  0.7412
 7028SOL    HW223338   5.124   5.665   5.258  0.1347  1.2647  1.3521
 7029SOL     OW23339   4.239   4.112   1.826 -0.0298 -0.2700  0.4411
 7029SOL    HW123340   4.198   4.090   1.742  0.1375  0.4061  0.1700
 7029SOL    HW223341   4.316   4.163   1.802  0.1248 -0.2361  1.0008
 7030SOL     OW23342   9.216   2.477   4.585 -0.3231  0.4018 -0.0418
 7030SOL    HW123343   9.189   2.395   4.545 -2.2758  1.3219 -0.7539
 7030SOL    HW223344   9.180   2.474   4.674 -0.8437  0.6686 -0.2357
 7031SOL     OW23345   9.043   5.035   2.189 -0.1123 -0.0353  0.5939
 7031SOL    HW123346   8.967   5.080   2.152 -0.5252 -0.2331  1.1823
 7031SOL    HW223347   9.023   5.027   2.282 -0.0352 -1.3836  0.5187
 7032SOL     OW23348   7.686   2.565  10.556  0.2706  0.3772 -0.5355
 7032SOL    HW123349   7.623   2.538  10.623  1.1844  0.8440  0.5294
 7032SOL    HW223350   7.749   2.620  10.602  1.1758  0.3458 -1.6884
 7033SOL     OW23351   3.640  10.030  10.556 -0.4309 -0.1271  0.6210
 7033SOL    HW123352   3.588  10.110  10.551 -0.7231 -0.3901 -1.2035
 7033SOL    HW223353   3.672  10.028  10.646  0.5212  2.6188  0.4248
 7034SOL     OW23354   5.098   9.790   7.558  0.0834  0.4278 -0.4965
 7034SOL    HW123355   5.142   9.849   7.620  0.0884 -0.8708  0.8013
 7034SOL    HW223356   5.169   9.739   7.520 -0.1735 -1.5169  1.4365
 7035SOL     OW23357   7.083   2.435   4.107  0.5023 -0.4856 -0.2596
 7035SOL    HW123358   7.002   2.476   4.139  0.5880 -0.6479  0.1728
 7035SOL    HW223359   7.116   2.386   4.182 -0.1011 -2.1565 -1.0270
 7036SOL     OW23360   0.889  10.622   0.849  0.0385  0.1192 -0.0476
 7036SOL    HW123361   0.983  10.613   0.864 -0.0214 -1.9917 -0.6515
 7036SOL    HW223362   0.858  10.533   0.837 -1.8480  0.8629 -1.1037
 7037SOL     OW23363   2.287   7.539   5.838  0.2988  0.1374 -0.8525
 7037SOL    HW123364   2.361   7.519   5.896  0.4329 -0.9486 -1.3656
 7037SOL    HW223365   2.319   7.517   5.750 -0.8588 -1.0614 -1.0028
 7038SOL     OW23366   0.248   1.481   2.381 -0.1228  0.1757 -0.2811
 7038SOL    HW123367   0.299   1.480   2.462  0.1797 -0.1798 -0.4734
 7038SOL    HW223368   0.188   1.407   2.390  1.2923 -1.1640 -1.2413
 7039SOL     OW23369   1.463   3.912   5.583  0.2029  0.3220 -0.4792
 7039SOL    HW123370   1.505   3.829   5.604 -0.7359  0.0194  0.3159
 7039SOL    HW223371   1.519   3.978   5.624 -0.0459 -0.0684  0.5280
 7040SOL     OW23372  10.130   8.101   7.185  0.4859  0.3301  0.1825
 7040SOL    HW123373  10.179   8.133   7.110  0.8795  3.3115  1.5843
 7040SOL    HW223374  10.180   8.026   7.216  2.3611  1.2914 -0.3664
 7041SOL     OW23375   9.136   9.299   9.809 -0.3556 -0.2670  0.0094
 7041SOL    HW123376   9.073   9.281   9.878 -0.5629  0.0012 -0.1084
 7041SOL    HW223377   9.088   9.354   9.746  0.2636  0.7247  0.3764
 7042SOL     OW23378   9.217   2.269   4.417 -0.2283 -0.2122  0.1374
 7042SOL    HW123379   9.153   2.199   4.407 -0.3222 -0.1865  0.5403
 7042SOL    HW223380   9.301   2.230   4.393 -0.2439 -0.5306  0.5973
 7043SOL     OW23381   9.332   0.248   8.372  0.4444 -0.0082 -0.3084
 7043SOL    HW123382   9.363   0.271   8.284 -0.2173 -0.0308 -0.5539
 7043SOL    HW223383   9.244   0.214   8.358  0.2681  0.1520  0.3861
 7044SOL     OW23384   7.948   8.749   2.689  0.0052  0.4429  0.2976
 7044SOL    HW123385   8.028   8.788   2.723 -0.1262  0.8720  0.1221
 7044SOL    HW223386   7.926   8.680   2.752  0.6730  0.1234  0.1875
 7045SOL     OW23387   3.276   3.794   6.190 -0.5475 -0.0272  0.2047
 7045SOL    HW123388   3.183   3.802   6.210 -0.8150 -0.5604 -0.7184
 7045SOL    HW223389   3.289   3.700   6.177  0.3198 -0.0568  1.2023
 7046SOL     OW23390   4.674   9.926   1.107  0.6169 -0.6055 -0.0475
 7046SOL    HW123391   4.739   9.995   1.095 -0.7579  0.8832  0.7424
 7046SOL    HW223392   4.615   9.959   1.175  0.0505 -2.6820  0.5549
 7047SOL     OW23393   4.455   2.174   1.277 -0.1032 -0.5215  0.1447
 7047SOL    HW123394   4.417   2.260   1.259 -0.4542 -0.5194  0.8481
 7047SOL    HW223395   4.389   2.130   1.330  0.6430 -0.7258  0.9222
 7048SOL     OW23396   3.105   2.391   8.947 -0.1936  0.6185 -0.1719
 7048SOL    HW123397   3.122   2.427   8.860  0.1123  0.2890 -0.2511
 7048SOL    HW223398   3.047   2.455   8.988 -0.2197  0.8520 -0.5624
 7049SOL     OW23399   4.554   7.667   3.404  0.1473 -0.2241 -0.2109
 7049SOL    HW123400   4.538   7.760   3.391 -3.0529 -0.2918  2.0618
 7049SOL    HW223401   4.502   7.624   3.335  0.3693 -0.3214 -0.3165
 7050SOL     OW23402   1.816   2.419   8.467  0.0541 -0.0157 -0.2395
 7050SOL    HW123403   1.855   2.352   8.410 -0.4703  0.2868 -0.9733
 7050SOL    HW223404   1.742   2.376   8.509  0.1495 -0.1020 -0.1602
 7051SOL     OW23405   0.614   1.651   2.901  0.0804 -0.9019  0.0421
 7051SOL    HW123406   0.535   1.624   2.947 -1.8428 -0.8822 -2.9271
 7051SOL    HW223407   0.645   1.571   2.858 -0.7512 -0.1707 -2.0475
 7052SOL     OW23408   2.867   2.824   7.008 -0.1664  0.4554  0.1804
 7052SOL    HW123409   2.861   2.797   6.917 -0.4431  1.6281 -0.1670
 7052SOL    HW223410   2.960   2.815   7.030 -0.2805 -0.9531  0.1637
 7053SOL     OW23411   7.706   0.121   4.781 -0.0632 -0.0485 -0.4018
 7053SOL    HW123412   7.796   0.103   4.754  0.3927 -1.8146  1.9814
 7053SOL    HW223413   7.656   0.047   4.748  0.0190 -0.8169  1.1055
 7054SOL     OW23414   6.502   3.724   2.946 -0.1129 -0.1705 -0.4466
 7054SOL    HW123415   6.424   3.758   2.990 -0.3281 -0.4100 -0.6340
 7054SOL    HW223416   6.547   3.801   2.912 -0.5569 -0.0676 -0.8049
 7055SOL     OW23417   3.516   2.257   1.316  0.0660  0.4298  0.4797
 7055SOL    HW123418   3.496   2.345   1.350  0.0489 -0.1037  1.9241
 7055SOL    HW223419   3.432   2.224   1.286 -0.0389  0.6895  0.4790
 7056SOL     OW23420   0.627   9.234   4.346 -0.0115  0.2361  0.3649
 7056SOL    HW123421   0.637   9.146   4.310  1.8316  0.9244 -0.9748
 7056SOL    HW223422   0.624   9.292   4.269  1.6728  1.5519  1.1938
 7057SOL     OW23423   5.310   5.201   2.160 -0.3809  0.1307 -0.1050
 7057SOL    HW123424   5.305   5.163   2.072  3.9705  1.4124 -1.1661
 7057SOL    HW223425   5.292   5.294   2.147  0.4734  0.3625  0.2432
 7058SOL     OW23426  10.152   9.132   1.274 -0.1270  0.0661  0.6827
 7058SOL    HW123427  10.207   9.062   1.240 -0.0443 -0.0083  0.9680
 7058SOL    HW223428  10.208   9.178   1.337  0.0362  0.7818  0.0270
 7059SOL     OW23429  10.403   8.594   5.617  0.8898 -0.4500 -0.1498
 7059SOL    HW123430  10.461   8.621   5.688  0.9582 -2.1601  0.4779
 7059SOL    HW223431  10.460   8.587   5.540  1.0266  0.2892 -0.1232
 7060SOL     OW23432   6.010   5.351   7.527  0.1454 -0.3260 -0.1549
 7060SOL    HW123433   5.938   5.413   7.513 -0.4988 -0.8844  0.6131
 7060SOL    HW223434   6.066   5.393   7.593 -1.0476 -1.1386  1.4453
 7061SOL     OW23435   3.746   6.627   7.667 -0.9012  0.4534 -0.3702
 7061SOL    HW123436   3.830   6.582   7.667 -2.8098 -3.5540 -0.5015
 7061SOL    HW223437   3.742   6.669   7.581  1.7352  2.6745  0.4569
 7062SOL     OW23438   7.872   8.375   9.010  0.1083 -0.2654  0.2305
 7062SOL    HW123439   7.815   8.303   9.038 -0.2509  0.9982  3.1741
 7062SOL    HW223440   7.817   8.453   9.018  0.9232  0.5229 -1.4417
 7063SOL     OW23441   8.926   9.103   3.875  0.2429  0.2640 -0.0629
 7063SOL    HW123442   8.938   9.016   3.913  0.9181 -0.1171 -1.1047
 7063SOL    HW223443   8.937   9.090   3.781  0.6648  1.5249 -0.2098
 7064SOL     OW23444   0.745   8.039   4.701 -0.2724  0.2217 -0.7716
 7064SOL    HW123445   0.654   8.010   4.704 -0.3441  0.2769 -1.8121
 7064SOL    HW223446   0.776   8.008   4.616  0.6200  0.3813 -0.5089
 7065SOL     OW23447   3.549   3.164   1.253  0.6717  0.2355  0.1928
 7065SOL    HW123448   3.569   3.223   1.326  1.4099  0.0960  0.1172
 7065SOL    HW223449   3.457   3.141   1.264  1.2953 -1.6010  2.4446
 7066SOL     OW23450   7.531   6.538   5.833 -0.2741  0.7441 -0.1081
 7066SOL    HW123451   7.599   6.599   5.863  0.1127  0.6786 -0.8285
 7066SOL    HW223452   7.449   6.578   5.861  0.0560  0.7465  0.9155
 7067SOL     OW23453   1.269   4.566   4.999 -0.3463 -0.3078  0.1758
 7067SOL    HW123454   1.180   4.568   4.965  0.0824  1.0979 -0.9494
 7067SOL    HW223455   1.296   4.658   5.004  1.2217 -0.7157 -0.0332
 7068SOL     OW23456   5.465  10.292   6.140 -0.3186 -0.2666 -0.1284
 7068SOL    HW123457   5.492  10.201   6.135  0.2074 -0.0480 -1.7838
 7068SOL    HW223458   5.371  10.291   6.123 -0.3170 -0.5033 -0.1188
 7069SOL     OW23459   1.291   8.062   1.965 -0.4395 -0.7421  0.2190
 7069SOL    HW123460   1.216   8.052   2.023 -0.8498 -1.5353 -0.4191
 7069SOL    HW223461   1.270   8.139   1.912 -0.4330 -0.4872  0.5905
 7070SOL     OW23462   0.610   4.637   4.042  0.0386  0.1223 -0.0802
 7070SOL    HW123463   0.615   4.665   3.950  3.1332 -0.5570 -0.2105
 7070SOL    HW223464   0.605   4.542   4.037 -0.1163  0.1005  0.4670
 7071SOL     OW23465   4.791   2.615  10.342 -0.0253  0.8604 -0.3494
 7071SOL    HW123466   4.793   2.676  10.269 -3.3579 -0.9186 -2.2042
 7071SOL    HW223467   4.793   2.528  10.300  0.5343 -0.2669  1.8736
 7072SOL     OW23468   5.108   3.316   3.563  0.3533  0.3789  0.1151
 7072SOL    HW123469   5.036   3.257   3.585  0.1080  0.5154 -0.3101
 7072SOL    HW223470   5.070   3.403   3.567  1.0669  0.6564  2.1874
 7073SOL     OW23471   6.014   7.053   8.541  0.1881 -0.8409  0.2584
 7073SOL    HW123472   5.924   7.067   8.512  0.3503  4.1575  1.3543
 7073SOL    HW223473   6.065   7.048   8.460 -0.7245 -0.2407 -0.3739
 7074SOL     OW23474   0.438   5.991   5.416  0.3472 -0.1818  0.0649
 7074SOL    HW123475   0.435   5.956   5.327 -0.8700 -0.7016  0.2889
 7074SOL    HW223476   0.515   5.949   5.455  0.8633  0.0127 -0.7077
 7075SOL     OW23477   7.849   1.165   1.378 -0.0537  0.2263 -0.2895
 7075SOL    HW123478   7.760   1.168   1.414 -0.1033  2.6863 -0.4451
 7075SOL    HW223479   7.854   1.080   1.334 -2.6938  0.4278 -1.1647
 7076SOL     OW23480   4.674   0.344   3.725  0.4217  0.5579 -0.0549
 7076SOL    HW123481   4.638   0.327   3.638  2.4137  2.5508 -1.3848
 7076SOL    HW223482   4.730   0.268   3.742 -1.9333 -1.1093  0.7312
 7077SOL     OW23483   6.607   8.940   6.340 -0.2581  0.0475  0.3733
 7077SOL    HW123484   6.607   9.034   6.319 -0.6385  0.2515  1.2140
 7077SOL    HW223485   6.664   8.933   6.416 -1.8110 -0.0714  1.5835
 7078SOL     OW23486  10.393   5.609   9.085 -0.2774 -0.5974  0.2523
 7078SOL    HW123487  10.477   5.632   9.123 -0.8098  0.6366  0.7152
 7078SOL    HW223488  10.411   5.530   9.034  0.6943 -1.6793  2.1568
 7079SOL     OW23489   1.642   4.942   4.069 -0.3804  0.4381 -0.1835
 7079SOL    HW123490   1.548   4.936   4.049  0.1830 -1.2843 -2.7296
 7079SOL    HW223491   1.676   5.006   4.007  0.1385  1.2156  0.8783
 7080SOL     OW23492   8.747   3.843   7.899 -0.7177 -0.0558 -0.9355
 7080SOL    HW123493   8.788   3.900   7.833 -1.7786  2.3142  0.3476
 7080SOL    HW223494   8.672   3.892   7.930 -0.9751 -1.6536  1.1721
 7081SOL     OW23495   5.396   0.104   0.369  0.0538 -0.2409  0.4636
 7081SOL    HW123496   5.470   0.164   0.367 -0.2383  0.1614  1.2897
 7081SOL    HW223497   5.357   0.111   0.282 -0.6878  1.6910  0.9108
 7082SOL     OW23498   7.391   2.981   0.909  0.2359  0.3211 -0.5043
 7082SOL    HW123499   7.312   2.939   0.875  0.1979 -1.2537  1.3329
 7082SOL    HW223500   7.463   2.937   0.864  0.1332 -0.4500  0.0680
 7083SOL     OW23501   5.439  10.554   6.209 -0.0582  0.4961  0.3880
 7083SOL    HW123502   5.451  10.469   6.167  0.2352  1.2750 -1.1571
 7083SOL    HW223503   5.515  10.563   6.267  0.0003 -0.2037  0.4324
 7084SOL     OW23504   6.626   3.273   0.069 -0.0678  0.2620 -0.4019
 7084SOL    HW123505   6.598   3.254   0.159 -0.2116  1.0484 -0.2706
 7084SOL    HW223506   6.552   3.245   0.015 -0.3345  0.5734 -0.2047
 7085SOL     OW23507   7.968   0.661   5.579 -0.1765 -0.0067 -0.2008
 7085SOL    HW123508   7.909   0.725   5.540 -0.0820 -0.0346 -0.3915
 7085SOL    HW223509   7.910   0.603   5.630 -0.5636 -1.1396 -1.8516
 7086SOL     OW23510   6.183   9.033  10.302  0.0037  0.1493 -0.3517
 7086SOL    HW123511   6.166   8.940  10.318  0.8124  0.0226 -0.2110
 7086SOL    HW223512   6.097   9.075  10.310 -0.0844 -0.3013  1.5264
 7087SOL     OW23513  10.164   8.013  10.239 -0.0537  0.2674 -0.8506
 7087SOL    HW123514  10.243   7.966  10.212  0.4630  0.8204 -0.3550
 7087SOL    HW223515  10.121   8.037  10.157  0.1696 -0.2470 -1.1201
 7088SOL     OW23516   5.330   9.586   7.008 -0.7332 -0.0539 -0.0726
 7088SOL    HW123517   5.422   9.591   6.980 -0.7530 -0.8844 -0.3104
 7088SOL    HW223518   5.289   9.662   6.968  0.0023  0.7435  0.6348
 7089SOL     OW23519   5.584  10.487   2.831 -0.3706  0.1645 -0.1142
 7089SOL    HW123520   5.557  10.575   2.805  0.8060  0.6873  0.3507
 7089SOL    HW223521   5.529  10.428   2.779  0.3638  1.1686 -2.1564
 7090SOL     OW23522   5.790  10.067   3.066  0.5395  0.5325  0.2929
 7090SOL    HW123523   5.858  10.008   3.033  0.2529  1.1175 -1.4648
 7090SOL    HW223524   5.838  10.145   3.094  0.5833  1.3154 -1.7984
 7091SOL     OW23525   5.086   7.575   1.319 -0.2652  0.3165  0.2838
 7091SOL    HW123526   5.007   7.550   1.271 -0.8223  0.0354  1.3122
 7091SOL    HW223527   5.063   7.659   1.360 -0.1656  0.0710  0.8554
 7092SOL     OW23528   8.806   9.114   2.534  0.8413  0.2005  0.2702
 7092SOL    HW123529   8.791   9.026   2.498 -1.3825  0.3425  0.7134
 7092SOL    HW223530   8.819   9.169   2.457 -0.5295 -0.0669 -0.1739
 7093SOL     OW23531   9.726   3.529   2.843  0.5714 -0.2745  0.1884
 7093SOL    HW123532   9.699   3.464   2.908 -0.0481  0.4754  0.7187
 7093SOL    HW223533   9.778   3.592   2.893 -1.1062  1.0977  0.3301
 7094SOL     OW23534   0.594   8.966  10.122 -0.0520  0.6285 -0.6334
 7094SOL    HW123535   0.510   9.010  10.110 -0.3741 -0.2198 -1.6676
 7094SOL    HW223536   0.641   8.980  10.039  0.4149  0.2320 -0.4431
 7095SOL     OW23537   5.718   2.329   7.098 -0.2278 -0.0015  0.2482
 7095SOL    HW123538   5.739   2.248   7.145 -0.6644  0.2997  0.9945
 7095SOL    HW223539   5.720   2.305   7.006 -0.4727 -0.8961  0.4613
 7096SOL     OW23540   5.600   1.449   5.136 -0.1322  0.1237  0.0693
 7096SOL    HW123541   5.614   1.360   5.168  1.9465 -0.1287 -1.2774
 7096SOL    HW223542   5.622   1.505   5.210 -2.9534 -0.4204  1.4209
 7097SOL     OW23543   6.102   1.594   9.736  0.4398  0.2400  0.2236
 7097SOL    HW123544   6.058   1.660   9.683  0.4006  0.5222  0.6008
 7097SOL    HW223545   6.107   1.516   9.680  2.2054  1.1297 -0.9386
 7098SOL     OW23546   7.189   0.769   2.946  0.3336 -0.0623  0.0694
 7098SOL    HW123547   7.262   0.728   2.900  0.8932  0.2401  0.6726
 7098SOL    HW223548   7.178   0.854   2.902 -0.2044 -0.4443 -0.5573
 7099SOL     OW23549   6.616   2.341   6.581 -0.2637 -0.6562 -0.2080
 7099SOL    HW123550   6.556   2.270   6.602  0.5587 -1.5324 -0.7268
 7099SOL    HW223551   6.627   2.336   6.486 -0.5865  0.5045 -0.3333
 7100SOL     OW23552   8.582   1.698   7.785  0.1864 -0.1859 -0.1209
 7100SOL    HW123553   8.590   1.603   7.788  0.9854 -0.2159 -1.9575
 7100SOL    HW223554   8.494   1.714   7.750 -0.2883 -0.2131  1.0262
 7101SOL     OW23555   7.144   6.005   8.939  0.4994  0.6343 -0.6227
 7101SOL    HW123556   7.112   5.990   9.029 -3.0379  0.1015 -1.7848
 7101SOL    HW223557   7.152   5.917   8.902  0.3283  0.8920 -1.2815
 7102SOL     OW23558   3.312   7.789   2.707 -0.2690  0.0541 -0.1953
 7102SOL    HW123559   3.373   7.825   2.643 -1.8539  1.3515 -1.0576
 7102SOL    HW223560   3.231   7.838   2.693 -0.8264  0.0680  2.4968
 7103SOL     OW23561   5.738   0.846   1.114 -0.4309  0.6500  0.1753
 7103SOL    HW123562   5.808   0.807   1.062 -1.0967  0.8433 -0.9011
 7103SOL    HW223563   5.701   0.772   1.163 -3.1038 -0.7358 -3.4463
 7104SOL     OW23564   9.511   3.691   5.638 -0.2833  0.2213  0.4187
 7104SOL    HW123565   9.495   3.713   5.546  0.3139  1.5069  0.6058
 7104SOL    HW223566   9.423   3.679   5.675 -0.5249 -0.5241 -0.3512
 7105SOL     OW23567   6.504   2.852  10.329 -0.0723  0.5559 -0.1737
 7105SOL    HW123568   6.590   2.883  10.300  0.4802 -2.2089 -1.8203
 7105SOL    HW223569   6.515   2.832  10.421  0.9860  0.4294 -0.3161
 7106SOL     OW23570   3.324   7.422   9.428 -1.1731  0.5147 -0.9046
 7106SOL    HW123571   3.241   7.459   9.459 -1.3324  0.2445 -1.0011
 7106SOL    HW223572   3.351   7.480   9.357 -1.4802  0.3833 -1.1333
 7107SOL     OW23573   8.149   1.226   8.651 -0.3175 -0.6476 -0.1161
 7107SOL    HW123574   8.130   1.133   8.665  1.2533 -0.9876 -0.0149
 7107SOL    HW223575   8.063   1.267   8.645 -1.0535 -2.1378 -0.3916
 7108SOL     OW23576   5.584   0.805   3.177  0.5362  0.8734  0.1785
 7108SOL    HW123577   5.679   0.811   3.173  0.5251  0.3178 -1.6680
 7108SOL    HW223578   5.560   0.751   3.102 -1.2067  0.5762  0.9078
 7109SOL     OW23579   4.087   3.506   1.122  0.0830 -0.2500 -0.2729
 7109SOL    HW123580   4.033   3.565   1.070 -0.7409  0.2708  1.1051
 7109SOL    HW223581   4.175   3.544   1.119  0.1802 -0.5426 -1.7024
 7110SOL     OW23582   6.577   4.626   0.128  0.0030 -0.1045  0.4082
 7110SOL    HW123583   6.535   4.711   0.140 -0.9002 -0.6480  1.2558
 7110SOL    HW223584   6.508   4.570   0.093  0.0710 -0.9420  1.5427
 7111SOL     OW23585   1.810   1.119   2.178 -0.8741 -0.3300  0.4566
 7111SOL    HW123586   1.865   1.054   2.222  0.1683 -0.1383 -0.5067
 7111SOL    HW223587   1.758   1.158   2.248  1.5983  0.8390  1.7925
 7112SOL     OW23588   2.970   5.497   0.154  0.2775 -0.5917 -0.4898
 7112SOL    HW123589   2.887   5.461   0.188  0.2557 -0.7015 -0.6624
 7112SOL    HW223590   2.961   5.591   0.167  0.8998 -0.7386  1.2596
 7113SOL     OW23591   9.068   0.562   6.841 -0.6154 -0.2827  0.1386
 7113SOL    HW123592   9.081   0.476   6.800 -0.0012  0.5072 -1.4163
 7113SOL    HW223593   9.155   0.603   6.838 -0.9178  0.4247  0.7842
 7114SOL     OW23594   7.416   4.750   4.455 -0.0477 -0.1131 -0.1842
 7114SOL    HW123595   7.476   4.763   4.528  0.6540 -0.4666 -0.6888
 7114SOL    HW223596   7.446   4.671   4.412  0.1585  0.6135 -1.4323
 7115SOL     OW23597   5.963   7.797   1.716  0.2110  0.4965 -0.3749
 7115SOL    HW123598   5.987   7.887   1.693  0.5584  0.4639 -0.1442
 7115SOL    HW223599   5.995   7.785   1.805  0.5886 -0.0081 -0.5727
 7116SOL     OW23600   1.657   3.359   2.292  0.5885 -0.3683 -0.0478
 7116SOL    HW123601   1.609   3.442   2.286  0.6322 -0.2290  1.2627
 7116SOL    HW223602   1.722   3.364   2.222 -0.2464  0.1329 -0.8236
 7117SOL     OW23603   2.338   0.925   6.826  0.2785 -0.2186 -0.3584
 7117SOL    HW123604   2.330   0.954   6.917  2.6987  1.3693 -0.5523
 7117SOL    HW223605   2.408   0.860   6.827 -1.7547 -2.5972 -0.7216
 7118SOL     OW23606   4.770   2.482   8.491  0.3133 -0.2622 -0.3451
 7118SOL    HW123607   4.724   2.408   8.530 -0.4380 -0.0678 -0.8339
 7118SOL    HW223608   4.805   2.530   8.565  0.1329 -0.6784  0.0175
 7119SOL     OW23609   2.507   9.013   1.651  0.5355 -0.0265  0.3035
 7119SOL    HW123610   2.500   8.920   1.673 -0.0687  0.1756  1.0065
 7119SOL    HW223611   2.416   9.043   1.645  0.7046  0.3207 -0.8403
 7120SOL     OW23612   6.977   5.896   3.784  0.0449 -0.3240 -0.4886
 7120SOL    HW123613   7.061   5.864   3.751  1.3904  1.5366  0.9103
 7120SOL    HW223614   6.978   5.989   3.763 -1.6208 -0.2394 -0.2963
 7121SOL     OW23615   7.246   6.998   9.562  0.4828 -0.8914 -0.7066
 7121SOL    HW123616   7.233   7.058   9.488  0.6107 -1.4037 -1.1502
 7121SOL    HW223617   7.162   6.997   9.607  0.9055  0.8129  0.2162
 7122SOL     OW23618   5.754   5.525   7.481  0.1407  0.3237 -0.1735
 7122SOL    HW123619   5.662   5.521   7.455 -0.2902  0.9206  1.1720
 7122SOL    HW223620   5.772   5.619   7.491  1.2003  0.2769 -1.3943
 7123SOL     OW23621   6.562   7.492   8.265 -0.5514  0.4813  0.1131
 7123SOL    HW123622   6.580   7.576   8.224 -0.6546  0.6318  0.3723
 7123SOL    HW223623   6.563   7.510   8.359  2.5111 -0.3609  0.3601
 7124SOL     OW23624   3.965   1.716   1.777 -0.3039  0.3584 -0.2143
 7124SOL    HW123625   3.880   1.741   1.740 -0.3522 -0.4941 -0.7135
 7124SOL    HW223626   4.027   1.781   1.744 -0.4511 -0.0528 -1.3277
 7125SOL     OW23627   9.264   9.458   4.748 -0.1991  0.2523 -0.9981
 7125SOL    HW123628   9.267   9.391   4.680 -0.4112 -0.6267 -0.1694
 7125SOL    HW223629   9.258   9.408   4.830  1.0999  1.2455 -0.2505
 7126SOL     OW23630   7.856   3.270   9.584 -0.0355 -0.3798 -0.0754
 7126SOL    HW123631   7.948   3.284   9.605 -0.1813 -0.2473  0.4843
 7126SOL    HW223632   7.846   3.174   9.584  0.7657 -0.5641 -3.0802
 7127SOL     OW23633   2.005   8.853   9.614  0.7354  0.4113  0.5547
 7127SOL    HW123634   1.913   8.834   9.629  1.0013 -0.9459  0.5385
 7127SOL    HW223635   2.008   8.887   9.524  0.4561 -1.1536 -0.0667
 7128SOL     OW23636   2.661   7.769   1.753 -0.1368  0.3864  0.2386
 7128SOL    HW123637   2.628   7.859   1.753  1.7740  1.1580 -0.5201
 7128SOL    HW223638   2.609   7.724   1.819 -1.2120  2.0304  0.5696
 7129SOL     OW23639   0.544   6.578   0.513 -0.0664 -0.3916 -0.0077
 7129SOL    HW123640   0.540   6.492   0.473  1.2463 -0.6697  0.3909
 7129SOL    HW223641   0.631   6.581   0.554 -0.5806  0.6288  1.0767
 7130SOL     OW23642   6.598   0.501   3.690  0.0293  0.5044  0.1343
 7130SOL    HW123643   6.515   0.460   3.716  0.4000 -0.4989 -0.1989
 7130SOL    HW223644   6.605   0.483   3.596  0.2269  1.3160 -0.0160
 7131SOL     OW23645   2.805   0.465  10.201 -0.4733 -0.5258  0.3790
 7131SOL    HW123646   2.843   0.429  10.121 -0.7144 -0.5276  0.2649
 7131SOL    HW223647   2.711   0.469  10.183 -0.4030  0.6757  0.1847
 7132SOL     OW23648   8.955   3.679   4.999  0.1925  0.2416  0.2645
 7132SOL    HW123649   8.878   3.719   5.040 -0.2328  0.4336 -0.6906
 7132SOL    HW223650   9.030   3.715   5.046 -0.2624  0.8054  0.5654
 7133SOL     OW23651   0.016   2.100   3.391 -0.0828  0.2883  0.9206
 7133SOL    HW123652  -0.057   2.140   3.438 -0.5835 -1.8620  2.1043
 7133SOL    HW223653   0.094   2.137   3.432 -0.5121  0.5133  1.5536
 7134SOL     OW23654   5.239   8.055  10.591  0.0686  0.1065  0.0237
 7134SOL    HW123655   5.190   8.132  10.621 -0.0953  0.4368 -1.0506
 7134SOL    HW223656   5.323   8.061  10.637 -0.3062  0.3894  0.6919
 7135SOL     OW23657   5.934   9.158  10.293  0.3982  0.2231 -0.4120
 7135SOL    HW123658   5.909   9.146  10.384  0.5412 -0.6567 -0.4763
 7135SOL    HW223659   5.865   9.211  10.255 -0.7819 -1.1972 -0.3127
 7136SOL     OW23660   7.738   4.070   2.239  0.0834 -0.3881  0.1411
 7136SOL    HW123661   7.745   4.031   2.326  0.2187  0.1195  0.3639
 7136SOL    HW223662   7.816   4.039   2.192 -1.0425 -2.3723 -0.5146
 7137SOL     OW23663   1.952   0.183   2.928  0.6906  0.1265 -0.6126
 7137SOL    HW123664   2.002   0.110   2.965  0.7291  1.0553  1.2704
 7137SOL    HW223665   1.894   0.210   2.999  1.0567  2.2713 -1.0781
 7138SOL     OW23666   1.492   9.099  10.429 -0.2328 -0.1659  0.1819
 7138SOL    HW123667   1.572   9.118  10.381  1.2269  1.7137  3.0760
 7138SOL    HW223668   1.422   9.136  10.375  1.0825  0.2617 -1.2874
 7139SOL     OW23669   4.905   4.814   7.661 -0.0445 -0.9500  0.3563
 7139SOL    HW123670   4.853   4.746   7.619  1.2262 -0.4439 -2.2367
 7139SOL    HW223671   4.901   4.888   7.601  1.2665  0.1106  1.5058
 7140SOL     OW23672   9.083   1.991   1.461 -0.3222  0.6124 -0.2609
 7140SOL    HW123673   9.059   2.071   1.508 -0.2693 -0.1160  1.0523
 7140SOL    HW223674   9.011   1.977   1.399  0.3383  2.4043 -1.4971
 7141SOL     OW23675   9.970   6.792   4.473 -0.2506 -0.0554  0.3064
 7141SOL    HW123676  10.041   6.840   4.516 -0.6166  1.1000 -0.3469
 7141SOL    HW223677   9.974   6.820   4.381 -0.6673 -1.0563 -0.0336
 7142SOL     OW23678   7.173   2.341   9.307  0.3676  0.4540  0.2864
 7142SOL    HW123679   7.241   2.343   9.239 -0.9099  0.3852 -1.0231
 7142SOL    HW223680   7.218   2.305   9.384  2.0932  1.4257 -0.2065
 7143SOL     OW23681   8.864   3.056   8.519  0.2670 -0.3647  0.2291
 7143SOL    HW123682   8.788   2.997   8.518  0.3749 -0.4899 -0.7131
 7143SOL    HW223683   8.831   3.138   8.485 -0.3409  0.7452  3.1548
 7144SOL     OW23684   2.343   6.718   2.292 -0.0479  0.2419  0.3018
 7144SOL    HW123685   2.389   6.701   2.210 -1.3409 -1.2846 -0.1472
 7144SOL    HW223686   2.412   6.723   2.358  0.8618 -0.5902 -0.5636
 7145SOL     OW23687  10.289   6.480  10.518 -0.2533 -0.3836  0.2392
 7145SOL    HW123688  10.319   6.389  10.508  3.0305  0.5744  0.3427
 7145SOL    HW223689  10.293   6.516  10.429  2.5804  0.7199  0.7195
 7146SOL     OW23690   5.420   7.957   9.675 -0.0149 -0.3128  0.4499
 7146SOL    HW123691   5.333   7.965   9.636 -0.5413 -2.5366  0.9988
 7146SOL    HW223692   5.419   7.871   9.717  2.3919 -0.3177  0.6265
 7147SOL     OW23693   0.704   7.163   8.516  0.4427 -0.5289 -0.6788
 7147SOL    HW123694   0.614   7.159   8.546  0.2091  3.9548 -0.0879
 7147SOL    HW223695   0.700   7.137   8.424 -1.4400 -0.5174 -0.6266
 7148SOL     OW23696  10.594   6.140   1.822 -0.2102 -0.6145 -0.0452
 7148SOL    HW123697  10.579   6.079   1.750  0.5132  0.2590 -0.9637
 7148SOL    HW223698  10.586   6.226   1.782 -0.0325 -0.1097  0.9798
 7149SOL     OW23699   2.309   0.393   9.566 -0.1302 -0.5947 -0.0134
 7149SOL    HW123700   2.314   0.485   9.593  0.1303 -0.7163  0.3545
 7149SOL    HW223701   2.378   0.349   9.616 -1.1105 -1.2357  0.8454
 7150SOL     OW23702   7.012   6.039   5.815 -0.2997  0.9111 -0.2205
 7150SOL    HW123703   6.935   6.002   5.858  1.0110 -1.6997  0.0540
 7150SOL    HW223704   7.012   6.131   5.841 -1.1417  0.1109  3.0523
 7151SOL     OW23705   2.876   5.309   2.351  0.3669 -0.6690 -0.7126
 7151SOL    HW123706   2.831   5.378   2.303  0.4538 -0.1148 -0.0053
 7151SOL    HW223707   2.906   5.249   2.283  0.5561  0.1433 -1.3643
 7152SOL     OW23708   2.828   5.420   5.255 -0.0168  0.2957  0.7589
 7152SOL    HW123709   2.866   5.430   5.343 -0.4534  1.5799  0.8134
 7152SOL    HW223710   2.738   5.450   5.264 -0.4508 -0.7405  0.1356
 7153SOL     OW23711   1.894   5.240   2.747  0.3030  0.3316  0.0822
 7153SOL    HW123712   1.940   5.181   2.688 -0.8113 -1.4048  0.8422
 7153SOL    HW223713   1.943   5.235   2.829  0.2669  0.5426  0.1168
 7154SOL     OW23714   1.917   2.790   5.417 -0.0635  0.2515  0.2228
 7154SOL    HW123715   1.834   2.798   5.370  0.7267  2.3906 -0.9732
 7154SOL    HW223716   1.984   2.786   5.349  0.8811 -0.7045  1.1628
 7155SOL     OW23717   8.963  10.392   4.736  0.1094 -0.2466  0.0603
 7155SOL    HW123718   8.912  10.329   4.787  1.8993 -2.0382 -0.2266
 7155SOL    HW223719   8.961  10.358   4.647  2.7454 -1.1081  0.2454
 7156SOL     OW23720   1.196   0.310   9.691  0.0479  0.3427 -0.1240
 7156SOL    HW123721   1.236   0.229   9.722 -1.5569  0.1419  1.6450
 7156SOL    HW223722   1.116   0.319   9.744 -0.6529  2.2545 -1.3806
 7157SOL     OW23723   8.505   7.774   6.828  0.5760  0.5593  0.1049
 7157SOL    HW123724   8.443   7.831   6.873  1.9068  1.9833  0.2209
 7157SOL    HW223725   8.522   7.703   6.889  0.6664  1.2916  0.9470
 7158SOL     OW23726   4.614   7.672   0.110 -0.1525  0.1755  0.1949
 7158SOL    HW123727   4.652   7.759   0.094  0.3415 -0.1664 -0.5744
 7158SOL    HW223728   4.617   7.629   0.024  0.6838 -1.0144  0.7916
 7159SOL     OW23729   1.941   1.379   3.198  0.0460 -0.0430  0.3532
 7159SOL    HW123730   1.894   1.452   3.157 -1.7489 -1.6624 -0.6146
 7159SOL    HW223731   1.932   1.394   3.292  0.4317  1.4048  0.1806
 7160SOL     OW23732   0.313   9.570  10.445 -0.2618 -0.1827  0.4208
 7160SOL    HW123733   0.308   9.643  10.507  0.8985  0.6432 -0.4226
 7160SOL    HW223734   0.363   9.604  10.372 -2.9305 -0.6001 -1.7548
 7161SOL     OW23735   8.790   3.061   3.343  0.0960 -0.7512  0.9622
 7161SOL    HW123736   8.696   3.048   3.355  0.1432 -0.5642  1.6140
 7161SOL    HW223737   8.810   3.018   3.260 -1.0033  1.3842 -0.4871
 7162SOL     OW23738  10.625  10.320  10.108  0.0296  0.0021  0.0437
 7162SOL    HW123739  10.596  10.381  10.041 -1.3278  0.5440  1.0654
 7162SOL    HW223740  10.701  10.277  10.071  0.2454  1.3985 -1.2114
 7163SOL     OW23741   0.534   4.979   5.398  0.9952  0.0043  0.1580
 7163SOL    HW123742   0.594   4.939   5.461  1.4440 -0.5643 -0.6040
 7163SOL    HW223743   0.491   4.904   5.357 -0.6552  0.4156  1.0686
 7164SOL     OW23744   4.105   2.237   2.123  0.0596  0.5559  0.2293
 7164SOL    HW123745   4.023   2.273   2.157  0.4779  1.2385  0.5438
 7164SOL    HW223746   4.150   2.312   2.084 -0.6400 -0.2869 -2.3669
 7165SOL     OW23747   4.056   8.221   0.086 -0.2390  1.0106  0.2797
 7165SOL    HW123748   4.005   8.243   0.007 -0.2028 -1.5487 -0.5638
 7165SOL    HW223749   4.129   8.283   0.085 -0.7435  1.6425 -1.1721
 7166SOL     OW23750   5.289   0.321   2.001  0.0253 -0.3470  0.1597
 7166SOL    HW123751   5.368   0.285   2.042  0.0184 -0.5630 -0.0164
 7166SOL    HW223752   5.289   0.413   2.026  0.8870 -0.1044 -0.6815
 7167SOL     OW23753   8.602   8.317   4.951 -0.1544 -0.1156  0.2045
 7167SOL    HW123754   8.524   8.366   4.977  0.8965  0.7071  1.9671
 7167SOL    HW223755   8.659   8.383   4.912 -0.3102 -0.7242 -1.1189
 7168SOL     OW23756   7.372   0.298   1.876  0.1209 -0.4683 -0.5491
 7168SOL    HW123757   7.451   0.302   1.822  0.7546 -1.1930  0.2950
 7168SOL    HW223758   7.336   0.211   1.860 -0.1356 -0.3870 -0.4185
 7169SOL     OW23759   1.528   9.661   0.098 -0.2235  0.3653  0.4990
 7169SOL    HW123760   1.541   9.572   0.067 -0.3204  0.1091  1.1914
 7169SOL    HW223761   1.559   9.716   0.026 -1.2922 -0.2135 -0.4272
 7170SOL     OW23762   6.433   0.631   9.119  0.6498  0.6701  0.4934
 7170SOL    HW123763   6.446   0.682   9.039  0.3616 -2.2298 -1.5506
 7170SOL    HW223764   6.520   0.601   9.143  0.6906  1.2599  1.1080
 7171SOL     OW23765   3.191   4.721   8.540  0.0982  0.1221 -0.3409
 7171SOL    HW123766   3.135   4.754   8.470  0.0181 -0.1095 -0.3883
 7171SOL    HW223767   3.178   4.782   8.613 -0.1418  0.1247 -0.3855
 7172SOL     OW23768   9.087   5.678   8.758 -0.2592 -0.8128  0.0958
 7172SOL    HW123769   9.063   5.764   8.792  0.4731  0.1320 -1.6880
 7172SOL    HW223770   9.020   5.658   8.693 -1.1431 -2.2071  1.3530
 7173SOL     OW23771  10.600   2.310   0.865 -0.3510  0.7076  0.0798
 7173SOL    HW123772  10.649   2.356   0.797  0.0488 -0.1138 -0.2102
 7173SOL    HW223773  10.546   2.377   0.906  2.0885  1.9872  1.4194
 7174SOL     OW23774  10.069   8.430   1.224  0.4557 -0.5632 -0.3730
 7174SOL    HW123775  10.030   8.426   1.137  0.2903 -1.2545 -0.2738
 7174SOL    HW223776  10.016   8.496   1.270  1.3930  0.8055 -1.1907
 7175SOL     OW23777   3.237   5.182   7.017 -0.4007 -0.7094 -0.9322
 7175SOL    HW123778   3.237   5.101   7.069  0.9218  0.3662  0.8223
 7175SOL    HW223779   3.276   5.156   6.934 -0.7975 -2.0568 -0.7392
 7176SOL     OW23780   8.095   3.196   3.221 -0.0230  0.0135  0.0385
 7176SOL    HW123781   8.096   3.291   3.211 -1.3851  0.1506  0.8514
 7176SOL    HW223782   8.002   3.173   3.222  0.1946 -1.0457  2.0612
 7177SOL     OW23783   8.174   4.992   5.045 -0.0059 -0.1866 -0.0149
 7177SOL    HW123784   8.228   4.999   4.966  1.8319 -0.3587  1.1629
 7177SOL    HW223785   8.120   5.070   5.044  1.9146  1.2141 -0.1149
 7178SOL     OW23786   4.240   5.730   4.444  0.2970  0.5225 -0.6776
 7178SOL    HW123787   4.190   5.689   4.514 -0.3931 -0.9559 -1.9863
 7178SOL    HW223788   4.180   5.794   4.406  1.0767  2.2164  0.7907
 7179SOL     OW23789   1.469   3.521  10.632 -0.3558  0.1677 -0.2091
 7179SOL    HW123790   1.513   3.515  10.547  2.1055  1.0649  0.8813
 7179SOL    HW223791   1.380   3.548  10.611  0.6400  2.1181 -2.4681
 7180SOL     OW23792   4.645   2.156   3.413  0.1020  0.2539  1.0161
 7180SOL    HW123793   4.726   2.161   3.363 -1.1771  0.7101 -1.1044
 7180SOL    HW223794   4.615   2.066   3.402 -0.0343  0.2718  1.2310
 7181SOL     OW23795   7.630   6.752   5.646  0.2704  0.2976  0.3561
 7181SOL    HW123796   7.623   6.834   5.597 -0.0872 -1.1136 -2.1414
 7181SOL    HW223797   7.709   6.761   5.699  1.5033  1.4532 -1.5665
 7182SOL     OW23798   7.295   4.942   0.983  0.1222 -0.1958 -0.2043
 7182SOL    HW123799   7.207   4.976   0.994  0.1424 -0.2708  0.1921
 7182SOL    HW223800   7.287   4.876   0.913  0.0753  0.5649 -0.9320
 7183SOL     OW23801   1.423   4.305   8.990  0.1187 -0.2581 -0.3886
 7183SOL    HW123802   1.357   4.306   9.060  0.3915 -1.1789 -0.0985
 7183SOL    HW223803   1.441   4.397   8.973 -0.0401 -0.0115  0.6889
 7184SOL     OW23804  10.501   2.540   0.443 -0.3827 -0.5904  0.7181
 7184SOL    HW123805  10.459   2.454   0.447  0.0881 -0.9539 -1.2152
 7184SOL    HW223806  10.585   2.524   0.400 -0.2890  0.8340  0.3116
 7185SOL     OW23807   9.179   3.115   0.381  0.3557  0.6127 -0.1629
 7185SOL    HW123808   9.196   3.203   0.414 -0.6040  1.4464 -1.7569
 7185SOL    HW223809   9.120   3.128   0.307 -0.8830 -1.4850  0.3516
 7186SOL     OW23810   1.172   8.432   9.483  0.0415  0.2665  0.0558
 7186SOL    HW123811   1.205   8.516   9.451  1.3847 -0.2585 -0.0230
 7186SOL    HW223812   1.193   8.370   9.413  0.9794 -0.4981  0.9844
 7187SOL     OW23813   6.149   7.254   1.697 -0.4246 -0.1365  0.1600
 7187SOL    HW123814   6.074   7.231   1.643 -0.5858 -0.7866  0.6466
 7187SOL    HW223815   6.164   7.347   1.679 -1.7532  0.1734  0.5476
 7188SOL     OW23816  10.383   4.800   8.405 -1.0085  0.4229  0.5627
 7188SOL    HW123817  10.319   4.854   8.358 -2.3430 -2.2485 -0.8909
 7188SOL    HW223818  10.458   4.794   8.345 -0.9958  0.4011  0.5806
 7189SOL     OW23819   1.352   4.519   7.012  0.5041  0.1507  0.4370
 7189SOL    HW123820   1.342   4.604   7.055 -2.2651 -0.0701  0.4076
 7189SOL    HW223821   1.437   4.487   7.040  1.5036  2.8030  0.6497
 7190SOL     OW23822   6.083   7.158   3.941 -0.3548 -0.8143  0.0918
 7190SOL    HW123823   6.076   7.144   3.846 -0.2823 -1.0236  0.1194
 7190SOL    HW223824   6.154   7.101   3.969  1.4863  1.2106 -0.1594
 7191SOL     OW23825   2.572   5.281   6.335 -0.0840 -0.4595 -0.1131
 7191SOL    HW123826   2.650   5.306   6.286  0.3356 -0.1512  0.6961
 7191SOL    HW223827   2.582   5.324   6.420 -1.5533  0.3141 -0.2942
 7192SOL     OW23828   2.886   5.167   8.951  0.5550 -0.1568  0.3948
 7192SOL    HW123829   2.841   5.093   8.911  1.5033 -0.5859  0.1017
 7192SOL    HW223830   2.842   5.244   8.915  2.9634 -0.4107 -3.5846
 7193SOL     OW23831   9.433   3.820   2.715  0.0785 -0.1324  0.1846
 7193SOL    HW123832   9.519   3.859   2.697 -0.3558  1.1890  0.8576
 7193SOL    HW223833   9.373   3.867   2.657 -0.2204 -0.9648 -0.1932
 7194SOL     OW23834   8.785   4.401   1.638 -0.3501  0.4480 -0.4792
 7194SOL    HW123835   8.868   4.442   1.613  1.1685 -1.6636  0.7640
 7194SOL    HW223836   8.798   4.308   1.618 -1.4826 -0.3134  1.9657
 7195SOL     OW23837   0.759   1.025   0.953  0.0376  0.1373 -0.4353
 7195SOL    HW123838   0.791   1.111   0.926  0.3638 -0.1787 -1.0811
 7195SOL    HW223839   0.741   0.980   0.870  2.3032 -1.3428 -0.2081
 7196SOL     OW23840   8.461   6.296   0.945  0.7548  0.0690  0.1552
 7196SOL    HW123841   8.489   6.205   0.946 -1.8494 -0.9230 -2.6197
 7196SOL    HW223842   8.402   6.304   1.021 -1.4286 -1.5670 -1.2489
 7197SOL     OW23843   3.303   0.295   6.985 -0.1207  0.6615  0.3246
 7197SOL    HW123844   3.257   0.353   7.046 -0.6204 -0.6512  1.2510
 7197SOL    HW223845   3.240   0.277   6.916 -0.3850  0.2940  0.6559
 7198SOL     OW23846   4.197   8.745   9.093 -0.5264  0.3367  0.1398
 7198SOL    HW123847   4.207   8.653   9.072 -0.0031  0.4563 -0.1370
 7198SOL    HW223848   4.283   8.773   9.123 -0.1296  1.1983 -1.6444
 7199SOL     OW23849  10.474   1.195   1.381  0.4115  0.1635  0.2375
 7199SOL    HW123850  10.429   1.123   1.337 -0.1224  1.3211 -1.1595
 7199SOL    HW223851  10.533   1.231   1.315 -0.6239  2.1323  0.3185
 7200SOL     OW23852   3.496   1.249  10.350  0.5372  0.4214 -0.7600
 7200SOL    HW123853   3.457   1.177  10.399 -0.5233  1.6871  0.3653
 7200SOL    HW223854   3.549   1.296  10.415 -0.0000  1.4980 -1.0708
 7201SOL     OW23855   6.937   6.177   4.762  0.1386 -0.1133 -0.3598
 7201SOL    HW123856   7.016   6.128   4.740 -0.2269 -0.6774 -0.4291
 7201SOL    HW223857   6.937   6.250   4.701  0.6209 -0.0911 -0.3422
 7202SOL     OW23858   7.265   4.507   0.034  1.0114 -0.3655  0.0811
 7202SOL    HW123859   7.199   4.438   0.035  1.3593 -0.7630 -1.8006
 7202SOL    HW223860   7.236   4.569   0.102 -0.2548 -1.4651  0.5749
 7203SOL     OW23861   7.038   8.347   5.504 -0.6402 -0.1093  0.4289
 7203SOL    HW123862   7.008   8.433   5.534 -0.3948  0.2255 -0.2567
 7203SOL    HW223863   7.076   8.307   5.581  0.7314  1.0627  0.4022
 7204SOL     OW23864   0.644   6.702   4.750 -0.0242  0.1483  0.6374
 7204SOL    HW123865   0.732   6.735   4.735  0.3531 -0.6105  1.0715
 7204SOL    HW223866   0.650   6.608   4.732 -1.1313  0.3356 -0.8720
 7205SOL     OW23867   0.234   2.193   7.020 -0.0388  0.0624  0.0455
 7205SOL    HW123868   0.307   2.253   7.035 -0.7599  0.4235  2.6146
 7205SOL    HW223869   0.162   2.230   7.070 -0.8018 -2.3961  0.8995
 7206SOL     OW23870   7.218   1.294  10.348 -0.3659  0.2650 -0.3762
 7206SOL    HW123871   7.285   1.274  10.282 -0.4489  1.2626 -0.7800
 7206SOL    HW223872   7.147   1.336  10.298 -0.0434  1.8769  0.4459
 7207SOL     OW23873   3.767  10.222   7.229  0.8297  0.3424 -0.3359
 7207SOL    HW123874   3.819  10.143   7.215 -0.8034 -0.8304 -0.1087
 7207SOL    HW223875   3.799  10.259   7.311 -0.4514 -1.8824  1.2752
 7208SOL     OW23876   4.699   5.518   6.803  0.6324  0.3318  0.1150
 7208SOL    HW123877   4.640   5.589   6.826  0.5140  0.1217  0.4703
 7208SOL    HW223878   4.767   5.559   6.748 -0.7557  0.2764 -1.7280
 7209SOL     OW23879   5.752   5.516   5.198  0.0672  0.0902 -0.1974
 7209SOL    HW123880   5.660   5.499   5.218 -0.2445  0.1376 -1.5173
 7209SOL    HW223881   5.799   5.492   5.278 -1.0482 -0.3865  0.3272
 7210SOL     OW23882   2.274   8.292   2.272 -0.1325  0.1697  0.3068
 7210SOL    HW123883   2.290   8.208   2.316  2.0928  0.9670  1.1216
 7210SOL    HW223884   2.270   8.270   2.179 -0.2020 -0.9061  0.5485
 7211SOL     OW23885   6.937   0.895   9.748 -0.3508  0.3820 -0.0641
 7211SOL    HW123886   6.879   0.821   9.734 -1.1431  1.3928 -2.7609
 7211SOL    HW223887   6.974   0.881   9.835 -1.0226 -2.7549 -0.1869
 7212SOL     OW23888   5.257   8.944   8.652 -0.6484 -0.2067  0.1272
 7212SOL    HW123889   5.292   9.024   8.692 -0.5220 -0.4419  0.4953
 7212SOL    HW223890   5.325   8.916   8.590 -0.7060 -0.0117 -0.0230
 7213SOL     OW23891   9.442   6.691   1.613  0.4586  0.0262 -0.1861
 7213SOL    HW123892   9.480   6.731   1.535  0.7384  1.8658  0.8413
 7213SOL    HW223893   9.350   6.719   1.612  0.6431  0.6986  0.5096
 7214SOL     OW23894   6.343   1.206   0.630 -0.0746  0.3337  0.7281
 7214SOL    HW123895   6.370   1.278   0.573 -0.6352 -0.5669 -0.7322
 7214SOL    HW223896   6.327   1.247   0.715 -0.1961  1.8911 -0.0084
 7215SOL     OW23897   5.407   3.683   2.975 -0.2225 -0.2778  0.0889
 7215SOL    HW123898   5.483   3.631   3.003 -1.1357 -1.1782  0.9626
 7215SOL    HW223899   5.428   3.709   2.885  1.4578  0.1526  0.5644
 7216SOL     OW23900   8.759   8.849   2.376  0.4572  0.3440  0.0134
 7216SOL    HW123901   8.696   8.823   2.308 -0.8330  2.6700  0.2060
 7216SOL    HW223902   8.831   8.787   2.367 -1.2797 -1.6559 -1.0792
 7217SOL     OW23903   9.925   0.839   7.304 -0.4628 -0.8006  0.5956
 7217SOL    HW123904   9.831   0.851   7.289 -0.3861 -0.2902  0.5125
 7217SOL    HW223905   9.935   0.846   7.399 -0.6320 -1.7841  0.6977
 7218SOL     OW23906   8.214   9.471   8.245  0.0439 -0.5085  0.3429
 7218SOL    HW123907   8.125   9.472   8.210 -0.1615  0.4945  0.8532
 7218SOL    HW223908   8.264   9.421   8.181 -1.1012 -2.0792  0.6097
 7219SOL     OW23909   2.654   2.024   3.689  0.6572  0.0282 -0.3178
 7219SOL    HW123910   2.723   1.967   3.724  0.3630 -0.4176 -0.4604
 7219SOL    HW223911   2.609   1.971   3.624  0.2400  0.3525 -0.3002
 7220SOL     OW23912   2.535   1.713   0.645 -0.0565  0.1979  0.1850
 7220SOL    HW123913   2.509   1.765   0.569 -0.4585 -1.9080 -1.2124
 7220SOL    HW223914   2.630   1.706   0.637 -0.0511  0.3426  0.1119
 7221SOL     OW23915   3.995   2.712   8.051  0.4426 -0.0792 -0.2982
 7221SOL    HW123916   3.903   2.739   8.050 -0.0074 -1.5122 -1.9849
 7221SOL    HW223917   3.995   2.630   8.101  1.0376  0.5811  0.8132
 7222SOL     OW23918   1.022   6.680   6.221 -0.8186  0.5706  0.0899
 7222SOL    HW123919   1.057   6.730   6.147  2.4273 -0.1528  1.0050
 7222SOL    HW223920   1.074   6.599   6.222 -2.9078 -0.8599  1.3442
 7223SOL     OW23921   2.836   3.725  10.490  0.1880 -0.0320  0.4342
 7223SOL    HW123922   2.848   3.658  10.422 -0.4333 -1.2360  1.4652
 7223SOL    HW223923   2.766   3.691  10.545 -0.4429  1.6964  0.7679
 7224SOL     OW23924   4.381   9.459   0.297  0.3068 -0.2252 -0.1496
 7224SOL    HW123925   4.408   9.420   0.214  0.1496 -0.1666 -0.2289
 7224SOL    HW223926   4.293   9.494   0.280  0.4300  0.1288 -0.0695
 7225SOL     OW23927   8.893   6.793   1.675  0.3325 -0.0520  0.8910
 7225SOL    HW123928   8.881   6.700   1.690 -1.1197 -0.4360 -1.9327
 7225SOL    HW223929   8.809   6.822   1.639  0.8455  2.3136  1.4162
 7226SOL     OW23930   4.586   5.834   4.667 -0.2536 -0.2593 -0.3371
 7226SOL    HW123931   4.562   5.766   4.604  0.6976 -0.1994 -0.7906
 7226SOL    HW223932   4.616   5.907   4.612 -0.0616  0.0478  0.1745
 7227SOL     OW23933   0.762   7.727   8.535  0.0295 -0.1055  0.1824
 7227SOL    HW123934   0.838   7.692   8.581  0.6300  0.8726 -0.0330
 7227SOL    HW223935   0.687   7.683   8.576  0.7251 -1.5273 -0.0102
 7228SOL     OW23936   1.123   8.516   1.453 -0.3771 -0.0517  0.1203
 7228SOL    HW123937   1.052   8.573   1.483 -0.0748  1.1461 -1.3491
 7228SOL    HW223938   1.191   8.525   1.520 -1.8077 -1.7923  1.9539
 7229SOL     OW23939   9.282   6.759   9.914 -0.0360  0.6538  0.0403
 7229SOL    HW123940   9.331   6.828   9.958 -0.4007  1.0871 -0.2099
 7229SOL    HW223941   9.340   6.729   9.844  0.0530  0.8337  0.0366
 7230SOL     OW23942   0.228   7.714   2.655  0.7271 -0.1375  0.1923
 7230SOL    HW123943   0.232   7.631   2.704  0.7524  0.0309  0.4798
 7230SOL    HW223944   0.276   7.776   2.710 -1.5393  0.7251  1.3025
 7231SOL     OW23945   6.980   5.992   5.488  0.2232  0.2186  0.2823
 7231SOL    HW123946   6.996   6.050   5.414 -0.2680 -0.2745 -0.2187
 7231SOL    HW223947   7.064   5.989   5.535  0.6585  0.2135 -0.4828
 7232SOL     OW23948   3.023   8.036   7.527  0.0846  0.5778  0.2502
 7232SOL    HW123949   2.935   8.006   7.548 -0.0511 -0.5403 -1.6750
 7232SOL    HW223950   3.081   7.971   7.568 -0.0711  0.1025 -0.2719
 7233SOL     OW23951   5.249  10.334  10.140 -0.4775  0.3370  0.2848
 7233SOL    HW123952   5.246  10.345  10.045  0.7127 -0.7531  0.0871
 7233SOL    HW223953   5.158  10.335  10.167 -1.0092 -1.5196 -1.1677
 7234SOL     OW23954   8.899   4.808   3.689 -0.1949 -0.3667  0.2782
 7234SOL    HW123955   8.849   4.780   3.766 -0.0970 -0.6912  0.2271
 7234SOL    HW223956   8.943   4.888   3.718 -1.1883  0.2498  0.1387
 7235SOL     OW23957   2.402   5.303   7.374  0.4297  0.3404  0.0966
 7235SOL    HW123958   2.373   5.316   7.465 -2.0013 -0.6296 -0.4644
 7235SOL    HW223959   2.497   5.308   7.378  0.4045 -0.1091  2.7646
 7236SOL     OW23960   6.995  10.393   5.091  0.7455 -0.4305 -0.2161
 7236SOL    HW123961   7.047  10.473   5.085 -1.8473  1.3350 -0.8612
 7236SOL    HW223962   6.980  10.368   5.000 -2.8033  1.5159 -0.3452
 7237SOL     OW23963   9.052   8.075   0.984  0.0395  0.4938 -0.3302
 7237SOL    HW123964   9.032   8.015   0.912 -1.6470 -0.4259  0.8245
 7237SOL    HW223965   8.972   8.126   0.995  0.6068  1.2624  0.2853
 7238SOL     OW23966   8.999   2.373   2.512  0.2931 -0.3456  0.2650
 7238SOL    HW123967   8.996   2.336   2.424 -0.1919  1.8216 -0.6951
 7238SOL    HW223968   9.084   2.345   2.547  1.0193 -0.2710 -1.3591
 7239SOL     OW23969   0.152   7.247   9.736 -0.5504 -0.3402  0.3231
 7239SOL    HW123970   0.179   7.156   9.750 -0.0482 -0.1474  0.6416
 7239SOL    HW223971   0.102   7.270   9.814 -0.5458 -0.2957  0.3128
 7240SOL     OW23972   6.898   5.310   9.373 -0.2324  0.0573  0.0935
 7240SOL    HW123973   6.882   5.220   9.401 -0.7089 -0.1834 -0.9202
 7240SOL    HW223974   6.988   5.310   9.341  0.1252  0.2014  1.0633
 7241SOL     OW23975   2.509   1.493   7.374  0.4645 -0.1437  0.0562
 7241SOL    HW123976   2.586   1.436   7.376 -0.3078 -1.1967  0.4657
 7241SOL    HW223977   2.524   1.555   7.446 -0.3282 -2.0972  2.0481
 7242SOL     OW23978   4.971   1.462   3.220 -0.0681  0.0265  0.5134
 7242SOL    HW123979   4.981   1.512   3.302 -1.5920  0.0059  0.7384
 7242SOL    HW223980   4.934   1.525   3.158 -0.6415 -0.4324  0.3785
 7243SOL     OW23981   7.090   2.835   6.750  0.0405  0.3952  0.5139
 7243SOL    HW123982   7.040   2.803   6.675  0.3914  2.7999 -0.8257
 7243SOL    HW223983   7.179   2.804   6.734  0.4459  2.1418 -0.9385
 7244SOL     OW23984   3.135   4.926   0.377  0.4789 -0.1014  0.7839
 7244SOL    HW123985   3.108   4.988   0.446 -0.0863  0.4416  0.0859
 7244SOL    HW223986   3.056   4.911   0.326  1.0110 -0.1150 -0.0486
 7245SOL     OW23987   9.202   1.395   0.347 -0.2157  0.1315  0.4851
 7245SOL    HW123988   9.201   1.490   0.346  0.2104  0.1375 -1.3581
 7245SOL    HW223989   9.290   1.371   0.320 -1.2358 -0.7467 -2.3686
 7246SOL     OW23990   5.944   3.804   2.591  0.1828  0.1478 -0.0576
 7246SOL    HW123991   5.960   3.857   2.512 -0.8360  0.0669 -0.3327
 7246SOL    HW223992   5.858   3.832   2.622 -0.2415 -1.1202 -0.0267
 7247SOL     OW23993   6.955   2.271  10.352 -0.0263 -0.5755 -0.3905
 7247SOL    HW123994   6.922   2.261  10.263  0.8318 -5.5835 -0.4734
 7247SOL    HW223995   7.051   2.271  10.343  0.1373  1.9953  0.4825
 7248SOL     OW23996   5.475   9.596   2.215  0.8011  0.1153  0.5207
 7248SOL    HW123997   5.570   9.611   2.219  0.7712  1.0852 -1.4472
 7248SOL    HW223998   5.466   9.515   2.164  0.5622  0.7529 -0.4788
 7249SOL     OW23999   0.851   2.710  10.505  0.1404 -0.3322  0.1224
 7249SOL    HW124000   0.890   2.650  10.569 -0.1368 -0.2595  0.3615
 7249SOL    HW224001   0.817   2.653  10.437  0.0523 -0.4391  0.2539
 7250SOL     OW24002   6.837   8.876   0.455  0.3908 -0.0625  0.3209
 7250SOL    HW124003   6.923   8.886   0.496  0.4843 -0.1329  0.1450
 7250SOL    HW224004   6.778   8.855   0.527  0.6394 -0.6647  0.3527
 7251SOL     OW24005  10.303   1.852   7.038 -0.1674  0.1917  0.1201
 7251SOL    HW124006  10.341   1.896   7.114  0.7752 -0.1754 -0.1256
 7251SOL    HW224007  10.222   1.814   7.070  0.4137 -0.2989  1.0554
 7252SOL     OW24008   2.815   4.703   2.235 -0.7655 -0.2186  0.7333
 7252SOL    HW124009   2.884   4.637   2.234 -0.6578 -0.1388 -1.1693
 7252SOL    HW224010   2.857   4.781   2.270 -0.6423 -0.8763  2.1140
 7253SOL     OW24011   5.233   4.256  10.136  0.0638  0.1331 -0.0166
 7253SOL    HW124012   5.187   4.221  10.213 -0.8503  1.1435 -0.0813
 7253SOL    HW224013   5.301   4.313  10.172  0.0623  0.0900  0.0553
 7254SOL     OW24014   7.218   8.520   9.949  0.5611  0.0933  0.2537
 7254SOL    HW124015   7.273   8.447   9.921 -1.9253 -1.8399  0.0555
 7254SOL    HW224016   7.247   8.539  10.038  0.2686 -2.2692  0.9209
 7255SOL     OW24017   6.567   1.183   7.389  0.0893 -0.1948 -0.3777
 7255SOL    HW124018   6.658   1.173   7.359  0.1704 -1.9337  0.3055
 7255SOL    HW224019   6.527   1.241   7.324  1.3847 -0.3468 -1.3633
 7256SOL     OW24020   7.001   5.171   4.082  0.0839 -0.2612  0.1492
 7256SOL    HW124021   6.968   5.258   4.106  0.6688  1.0172 -3.0978
 7256SOL    HW224022   7.092   5.170   4.112 -0.0139  0.1436  0.4646
 7257SOL     OW24023   2.891   0.025  10.486  0.1314  0.1395 -0.3778
 7257SOL    HW124024   2.912   0.044  10.395  0.9946  1.7140  0.0980
 7257SOL    HW224025   2.909   0.107  10.532  1.0005 -0.9783  1.4073
 7258SOL     OW24026   0.373   4.408   6.986 -0.3662 -0.3085 -0.2882
 7258SOL    HW124027   0.425   4.454   6.921  0.6007 -1.3350 -0.2801
 7258SOL    HW224028   0.295   4.462   6.997 -0.4525  0.0157 -2.1243
 7259SOL     OW24029   6.867   1.960   0.786 -0.6167 -0.0287 -0.0400
 7259SOL    HW124030   6.840   1.905   0.859 -3.2966  2.3461  0.9518
 7259SOL    HW224031   6.962   1.953   0.784 -0.5623 -1.2748  2.7775
 7260SOL     OW24032  10.604   8.968   0.069 -0.4109 -0.0299 -0.0568
 7260SOL    HW124033  10.643   9.028   0.006  0.3713 -1.2344 -0.7544
 7260SOL    HW224034  10.668   8.898   0.078 -0.6187 -0.0295  1.8911
 7261SOL     OW24035   5.846   3.445   6.074  0.1822  0.2918 -0.1053
 7261SOL    HW124036   5.933   3.417   6.104 -0.1001  0.9289  1.4164
 7261SOL    HW224037   5.789   3.370   6.092  0.1942  0.3261  0.0825
 7262SOL     OW24038   0.309   5.758   9.209  0.1881  0.0690  0.0974
 7262SOL    HW124039   0.298   5.769   9.304 -0.3820 -0.6620  0.1185
 7262SOL    HW224040   0.367   5.682   9.201 -0.3632 -0.3271 -0.1531
 7263SOL     OW24041   3.659   4.347   1.343  0.6233  0.8515  0.1011
 7263SOL    HW124042   3.666   4.441   1.331 -0.1852  0.8748 -0.2343
 7263SOL    HW224043   3.572   4.333   1.380  0.9723  0.2866  0.7450
 7264SOL     OW24044  10.233   1.447   6.797  0.4779 -0.4179 -0.7763
 7264SOL    HW124045  10.313   1.398   6.779  0.1334 -1.3696  0.1946
 7264SOL    HW224046  10.168   1.408   6.738  0.8051  0.6535 -1.8893
 7265SOL     OW24047   4.290   3.379   3.038  0.3785  0.1575  0.5000
 7265SOL    HW124048   4.231   3.382   3.113  0.0194 -0.8413  0.2814
 7265SOL    HW224049   4.288   3.467   3.001 -0.8396  0.1891  0.6036
 7266SOL     OW24050   3.573   6.202   9.406  0.7091  0.3470 -0.4664
 7266SOL    HW124051   3.507   6.134   9.409 -0.9114  1.5674 -3.5241
 7266SOL    HW224052   3.568   6.246   9.491 -0.4562 -1.2861  0.3408
 7267SOL     OW24053   4.151   4.624   8.210 -0.6461 -0.6442  0.1546
 7267SOL    HW124054   4.236   4.653   8.175  0.0654 -0.6684  1.7727
 7267SOL    HW224055   4.125   4.694   8.270 -1.3991 -0.9866  0.2359
 7268SOL     OW24056   0.827   9.502  10.054 -1.0293  0.1633 -0.1739
 7268SOL    HW124057   0.832   9.427   9.995 -1.8783 -0.3254  0.3466
 7268SOL    HW224058   0.869   9.472  10.134 -1.3819  0.2261  0.0402
 7269SOL     OW24059   3.229   8.959   4.311 -0.3768 -0.4059 -0.1066
 7269SOL    HW124060   3.275   8.930   4.232  0.7296  2.0312 -0.4590
 7269SOL    HW224061   3.189   8.880   4.346 -0.4491 -1.6741 -2.8016
 7270SOL     OW24062   9.938   4.982   0.722 -0.0846 -0.1172 -0.1137
 7270SOL    HW124063   9.912   4.894   0.749 -1.1105  0.1676 -0.1426
 7270SOL    HW224064  10.028   4.972   0.692 -0.1937 -1.1582 -0.1324
 7271SOL     OW24065   4.629   3.115   4.812  0.6500 -0.3075 -0.1763
 7271SOL    HW124066   4.543   3.092   4.775 -0.0509 -0.9431  1.6945
 7271SOL    HW224067   4.634   3.210   4.805 -0.7672 -0.1361  0.7539
 7272SOL     OW24068   1.375   9.129   1.600 -0.4137  0.3340 -0.1754
 7272SOL    HW124069   1.369   9.156   1.509 -1.5033  0.4086 -0.0945
 7272SOL    HW224070   1.305   9.065   1.611 -1.6500  1.8020  1.0878
 7273SOL     OW24071   4.206   6.219   3.306  0.1252 -0.4131 -0.1545
 7273SOL    HW124072   4.115   6.196   3.324  0.1839 -0.3870  0.1824
 7273SOL    HW224073   4.248   6.136   3.285  0.2448 -0.5684  0.6617
 7274SOL     OW24074   3.125   0.458   5.044  0.3398  0.2452 -0.0174
 7274SOL    HW124075   3.043   0.505   5.028  1.1651  1.2724 -1.5641
 7274SOL    HW224076   3.191   0.528   5.050  1.2129 -0.5953  0.3763
 7275SOL     OW24077   4.443   8.258   7.600  0.0370  0.4461 -0.0588
 7275SOL    HW124078   4.477   8.171   7.622 -0.4220  0.4902  0.8849
 7275SOL    HW224079   4.511   8.297   7.545  2.3916  1.1491  3.0554
 7276SOL     OW24080   0.459   0.095   1.603  0.0379 -0.0250  0.3293
 7276SOL    HW124081   0.371   0.108   1.640  0.4532  1.1850  0.9302
 7276SOL    HW224082   0.518   0.136   1.666  0.8386  1.3213 -1.2281
 7277SOL     OW24083   5.218   0.295   8.505  0.7416 -0.2888  0.9663
 7277SOL    HW124084   5.224   0.257   8.593  0.9867 -0.6514  0.7960
 7277SOL    HW224085   5.130   0.333   8.501  0.8716  0.0647  1.5014
 7278SOL     OW24086   0.516   6.921   9.052  0.5392  0.6040  0.1517
 7278SOL    HW124087   0.539   6.871   8.974  0.4265  2.3862 -1.1050
 7278SOL    HW224088   0.522   7.013   9.024  0.0843  1.2917  2.1317
 7279SOL     OW24089   8.971   0.895   1.979  0.0175 -0.0704 -0.6036
 7279SOL    HW124090   9.051   0.844   1.965 -0.0257 -0.5003  0.5920
 7279SOL    HW224091   8.905   0.829   2.003 -0.2781  0.4401  0.0162
 7280SOL     OW24092   8.012   0.291   4.152  0.2142 -0.1813  0.2686
 7280SOL    HW124093   7.984   0.380   4.132 -0.3367 -0.5641 -0.7816
 7280SOL    HW224094   8.060   0.263   4.074  1.0318 -0.5523  0.8913
 7281SOL     OW24095   9.713   7.547   8.127 -0.5303  0.7837 -0.0108
 7281SOL    HW124096   9.638   7.600   8.100 -0.7586  0.2884 -0.3689
 7281SOL    HW224097   9.685   7.457   8.111 -0.1732  0.5489  0.6539
 7282SOL     OW24098   5.838   5.614   7.024  0.7385 -0.7946  0.0148
 7282SOL    HW124099   5.875   5.564   7.097 -1.0639 -0.3170  1.3353
 7282SOL    HW224100   5.816   5.548   6.958 -0.4321 -1.6435  1.2062
 7283SOL     OW24101   4.556   7.014   3.416 -0.4578  0.6298  0.1672
 7283SOL    HW124102   4.534   6.941   3.358  0.9101 -0.2481  0.6973
 7283SOL    HW224103   4.496   7.004   3.490 -0.6628  0.3810 -0.0292
 7284SOL     OW24104   0.066   4.124   1.800 -0.4474  0.6503 -0.2075
 7284SOL    HW124105   0.070   4.045   1.746  0.3386  0.4729  0.1054
 7284SOL    HW224106   0.000   4.179   1.757 -0.2999  0.2369 -0.9732
 7285SOL     OW24107   2.506   0.232   9.654  0.7020  0.0987  0.4161
 7285SOL    HW124108   2.498   0.140   9.629  0.6317  0.0165  0.7347
 7285SOL    HW224109   2.601   0.249   9.654  0.7595 -0.1875  1.1052
 7286SOL     OW24110   9.179   6.213   8.535 -0.4057 -0.5630  0.1390
 7286SOL    HW124111   9.199   6.287   8.477  0.4677 -0.0440  1.0852
 7286SOL    HW224112   9.117   6.160   8.484 -1.6759  1.2073 -0.2571
 7287SOL     OW24113   4.665   0.074   8.379 -0.2471  0.5411  0.5698
 7287SOL    HW124114   4.580   0.112   8.356 -0.2804 -0.4186 -0.9999
 7287SOL    HW224115   4.650   0.031   8.463 -0.5798  2.6986  1.6831
 7288SOL     OW24116   6.519   9.301   9.035 -0.3209  0.1283 -0.1997
 7288SOL    HW124117   6.461   9.371   9.067 -1.3799 -0.6851 -0.2925
 7288SOL    HW224118   6.521   9.238   9.106 -0.1686 -0.2114 -0.5042
 7289SOL     OW24119   3.005   1.664   7.689 -0.0086  0.4264 -0.5590
 7289SOL    HW124120   3.025   1.609   7.613 -0.1915  1.0469 -1.0619
 7289SOL    HW224121   3.084   1.717   7.701  0.1271  0.1366 -0.1379
 7290SOL     OW24122   0.803   5.197   7.298 -0.0348  0.0232  0.2201
 7290SOL    HW124123   0.899   5.199   7.291 -0.0776  1.0022 -0.3933
 7290SOL    HW224124   0.775   5.277   7.254 -1.2619 -1.3072 -1.5558
 7291SOL     OW24125   5.126   9.745   0.796  0.3860  0.3580 -0.0795
 7291SOL    HW124126   5.220   9.757   0.811  0.4997 -0.2924 -0.2199
 7291SOL    HW224127   5.084   9.781   0.874  0.8769 -1.3044  1.0197
 7292SOL     OW24128   2.118   2.942   8.787 -0.1025  0.2502  0.0296
 7292SOL    HW124129   2.081   3.021   8.828  0.5936  0.5683  0.0578
 7292SOL    HW224130   2.074   2.869   8.832 -1.3432  0.6169 -0.5567
 7293SOL     OW24131   1.155   4.884   6.627  0.0804  0.4257 -0.2748
 7293SOL    HW124132   1.207   4.809   6.600 -0.1884 -0.5055  1.6808
 7293SOL    HW224133   1.200   4.919   6.703 -0.0214  2.0435 -0.9142
 7294SOL     OW24134   0.166   9.675   5.291 -0.0316 -0.1205 -0.2035
 7294SOL    HW124135   0.217   9.668   5.372 -0.0392  1.7175  0.0029
 7294SOL    HW224136   0.231   9.678   5.222 -0.0389 -2.4474 -0.3966
 7295SOL     OW24137   0.550   8.823   8.754  0.0053  0.6369 -0.2901
 7295SOL    HW124138   0.606   8.835   8.831  0.2493  1.6472 -0.6122
 7295SOL    HW224139   0.538   8.911   8.719 -1.4953  0.3926 -0.4427
 7296SOL     OW24140   9.448   2.034   1.634 -0.2342 -0.4119 -0.9563
 7296SOL    HW124141   9.431   1.941   1.646  1.1796 -0.7943 -1.6552
 7296SOL    HW224142   9.364   2.077   1.649 -0.1409 -1.3692  3.4787
 7297SOL     OW24143   7.317   2.784   3.655  0.0852 -0.3867 -0.2292
 7297SOL    HW124144   7.390   2.748   3.705 -0.1301 -0.0809  0.3180
 7297SOL    HW224145   7.296   2.717   3.590 -1.1322 -1.8477  1.5852
 7298SOL     OW24146   7.920  10.122   8.357 -1.0180  0.4724  0.2581
 7298SOL    HW124147   7.890  10.033   8.377  1.7146 -0.5016  0.5851
 7298SOL    HW224148   7.885  10.176   8.428  0.4781 -1.1444  2.3433
 7299SOL     OW24149   3.936   5.526   0.707  0.7617  0.0576  0.4279
 7299SOL    HW124150   4.013   5.583   0.698  1.1398 -0.5310 -0.1752
 7299SOL    HW224151   3.954   5.453   0.648  0.1599 -0.5562  0.9958
 7300SOL     OW24152   9.119   9.918   2.560  0.2840 -0.4254 -0.1981
 7300SOL    HW124153   9.161   9.987   2.509 -1.1290 -0.1876 -1.0876
 7300SOL    HW224154   9.087   9.962   2.638  0.0979 -0.2296 -0.3825
 7301SOL     OW24155   4.766   4.165   4.177  0.1823  0.1615 -0.3128
 7301SOL    HW124156   4.694   4.225   4.194  0.2035 -0.3707  1.9678
 7301SOL    HW224157   4.823   4.211   4.116 -0.7299  1.6952 -0.0463
 7302SOL     OW24158   8.193   6.479   9.702  0.3149 -0.4023 -0.0080
 7302SOL    HW124159   8.245   6.402   9.679  0.3561 -0.7282  1.1436
 7302SOL    HW224160   8.259   6.547   9.720  0.2790 -0.0888 -1.0028
 7303SOL     OW24161   8.719   6.450  10.192 -0.3406 -0.0972  0.0404
 7303SOL    HW124162   8.807   6.476  10.220  0.4300 -1.4313 -1.0369
 7303SOL    HW224163   8.734   6.380  10.128 -2.1430  0.5457 -1.1424
 7304SOL     OW24164  10.432   1.411   2.579 -0.1430  0.4063  0.5175
 7304SOL    HW124165  10.359   1.408   2.518  0.5607  1.1456 -0.3909
 7304SOL    HW224166  10.448   1.320   2.603  0.2793 -0.0162 -1.2764
 7305SOL     OW24167   2.290   0.440   4.502  0.7465  0.0377 -0.3932
 7305SOL    HW124168   2.361   0.450   4.565 -0.2533 -2.3298  1.2444
 7305SOL    HW224169   2.311   0.360   4.454 -0.5469 -0.4525 -0.1879
 7306SOL     OW24170   6.972   5.095  10.371  0.1980  0.1030  0.3309
 7306SOL    HW124171   6.975   5.191  10.367 -0.6839  0.1039 -0.8413
 7306SOL    HW224172   7.022   5.067  10.294 -0.5110 -0.3589  0.0402
 7307SOL     OW24173   8.041   9.713   9.143 -0.0867  0.1863 -0.4272
 7307SOL    HW124174   8.113   9.735   9.202 -0.4276 -0.4968  0.2473
 7307SOL    HW224175   8.085   9.675   9.066  0.3000  0.2312 -0.2318
 7308SOL     OW24176   3.262   2.814   5.137 -0.4929 -0.0160 -0.4350
 7308SOL    HW124177   3.233   2.742   5.082 -1.7854 -0.2595  0.5298
 7308SOL    HW224178   3.183   2.848   5.178  0.4861 -0.7558  2.3569
 7309SOL     OW24179   3.781   4.231   7.172 -0.5653  0.1629 -0.1959
 7309SOL    HW124180   3.840   4.306   7.170  0.4730 -0.6285 -1.6125
 7309SOL    HW224181   3.798   4.189   7.257 -0.7811  1.2092  0.3790
 7310SOL     OW24182   2.722   9.681   5.331 -0.0730 -0.5153  0.1622
 7310SOL    HW124183   2.696   9.768   5.300 -1.8853 -1.2575 -0.4875
 7310SOL    HW224184   2.818   9.684   5.331 -0.0807  1.0745 -0.9979
 7311SOL     OW24185   9.801   3.591   1.538 -0.5565  0.6719 -0.0952
 7311SOL    HW124186   9.733   3.524   1.526 -0.3955  0.6596 -1.0523
 7311SOL    HW224187   9.764   3.669   1.497 -0.0067  0.6681 -0.6099
 7312SOL     OW24188   7.826   1.042   7.929  0.0314 -0.5990 -0.0270
 7312SOL    HW124189   7.908   1.090   7.917 -1.2083  2.1514  1.5443
 7312SOL    HW224190   7.768   1.075   7.861 -1.1305  1.0066  1.6360
 7313SOL     OW24191   3.771   1.848   9.743 -0.4727  0.6439  0.3251
 7313SOL    HW124192   3.680   1.875   9.735 -0.5179  0.7014  0.9706
 7313SOL    HW224193   3.785   1.839   9.837  0.0860  0.2807  0.2120
 7314SOL     OW24194   9.208   3.508   1.631  0.0580  0.0113 -0.3097
 7314SOL    HW124195   9.187   3.526   1.539  1.7532  2.1551 -0.3843
 7314SOL    HW224196   9.126   3.520   1.677 -0.3426  1.3558 -1.2999
 7315SOL     OW24197   6.706  10.569   0.755 -0.2371  0.0254 -0.0565
 7315SOL    HW124198   6.767  10.534   0.690 -0.8653  0.0168 -0.6516
 7315SOL    HW224199   6.633  10.507   0.756 -0.7334  0.5977 -0.1307
 7316SOL     OW24200   0.186   3.024   6.667 -0.2266 -0.3822 -0.3049
 7316SOL    HW124201   0.275   3.057   6.681  0.1610 -0.8122 -1.6393
 7316SOL    HW224202   0.199   2.937   6.629 -1.1836  0.3485 -2.4189
 7317SOL     OW24203   9.796   1.459   1.291  0.4278  0.5024  0.0408
 7317SOL    HW124204   9.836   1.447   1.205 -1.4164 -1.4093 -0.6139
 7317SOL    HW224205   9.712   1.414   1.286  0.4238 -0.0406  2.9810
 7318SOL     OW24206   2.095   6.922   2.937 -0.3033 -0.5419 -0.4678
 7318SOL    HW124207   2.083   6.998   2.994 -0.8632 -0.4388 -0.7168
 7318SOL    HW224208   2.049   6.851   2.981 -0.1167 -0.6393 -0.4303
 7319SOL     OW24209   2.637   5.943   2.874 -0.2239  0.1598  0.2647
 7319SOL    HW124210   2.681   5.877   2.820  0.3075 -0.1367  1.0456
 7319SOL    HW224211   2.680   6.025   2.852  0.1473  0.0024  0.3934
 7320SOL     OW24212   3.593   6.080   3.758  0.0537  0.6557 -0.8024
 7320SOL    HW124213   3.578   6.023   3.834 -0.0070  1.8952  0.1360
 7320SOL    HW224214   3.620   6.020   3.688 -1.2417 -0.6814 -0.2065
 7321SOL     OW24215   7.730   8.508   1.945  0.1243  0.0151  0.7508
 7321SOL    HW124216   7.718   8.414   1.951 -0.2318  0.1207  1.8089
 7321SOL    HW224217   7.803   8.519   1.883  0.5505 -0.9692  1.0684
 7322SOL     OW24218   8.987   6.899   1.948 -0.0043 -0.0218 -0.3064
 7322SOL    HW124219   8.938   6.840   1.889 -3.5074  3.3253 -1.1251
 7322SOL    HW224220   8.940   6.894   2.031 -0.8444  2.0660 -0.6137
 7323SOL     OW24221   3.980   8.867   4.442 -0.5215  0.3199 -0.0262
 7323SOL    HW124222   3.950   8.906   4.361 -1.1351 -0.5337 -0.2171
 7323SOL    HW224223   3.912   8.888   4.506  0.4374  1.8833  0.5599
 7324SOL     OW24224   6.870   1.726   4.795 -0.0917  0.2722 -0.6008
 7324SOL    HW124225   6.914   1.773   4.724 -1.7609  1.0461 -1.1760
 7324SOL    HW224226   6.855   1.792   4.862 -1.4397  0.3113 -0.9257
 7325SOL     OW24227   9.214   9.762   4.577  0.1248  1.0518 -0.2297
 7325SOL    HW124228   9.241   9.671   4.589  0.0836  0.8320 -1.6626
 7325SOL    HW224229   9.292   9.813   4.598  0.3553  0.6553 -0.0944
 7326SOL     OW24230   7.986   1.729   2.666 -0.2224 -1.1050  0.2433
 7326SOL    HW124231   8.072   1.690   2.648  0.6525  1.0706 -0.6044
 7326SOL    HW224232   7.935   1.713   2.586 -0.2257 -1.3975  0.3021
 7327SOL     OW24233   6.168   0.728   5.369 -0.2210 -0.2681 -0.2570
 7327SOL    HW124234   6.250   0.776   5.373  0.0140 -0.6035 -0.8217
 7327SOL    HW224235   6.102   0.790   5.401  0.1598  0.2263 -0.4080
 7328SOL     OW24236   0.055   2.241  10.548 -0.3787  0.2670 -0.5209
 7328SOL    HW124237   0.074   2.238  10.455  0.6434  0.6429 -0.3283
 7328SOL    HW224238   0.139   2.227  10.591 -0.8505  0.0146  0.3510
 7329SOL     OW24239   2.177   8.612   1.817 -0.6166  0.7175  0.0582
 7329SOL    HW124240   2.149   8.692   1.862  1.2956  1.4107  0.1047
 7329SOL    HW224241   2.125   8.610   1.737 -0.7989  1.9170  0.1333
 7330SOL     OW24242   2.054   1.189   7.942  0.2242  0.7403 -0.2257
 7330SOL    HW124243   2.014   1.217   7.860 -1.2424 -2.4495 -0.7500
 7330SOL    HW224244   2.145   1.219   7.937  0.5969 -0.5711 -3.7121
 7331SOL     OW24245   2.827   2.978   8.578  0.1356  0.6180 -0.3522
 7331SOL    HW124246   2.755   2.968   8.516 -1.1582 -0.3640  1.2226
 7331SOL    HW224247   2.784   2.986   8.663  1.8616  1.3561  0.4888
 7332SOL     OW24248   8.059   7.800   8.890 -0.1581  0.0844 -0.1005
 7332SOL    HW124249   8.125   7.738   8.860  0.4063  0.6492 -0.0467
 7332SOL    HW224250   8.084   7.822   8.979 -0.6422  0.0079  0.0572
 7333SOL     OW24251   8.403   0.427  10.176 -0.0176 -0.0746  0.5069
 7333SOL    HW124252   8.434   0.512  10.142 -0.4882  0.0597  0.4098
 7333SOL    HW224253   8.385   0.444  10.268 -0.7119  0.1008  0.3462
 7334SOL     OW24254   6.098   8.011   0.993  0.2307 -0.3595  0.1391
 7334SOL    HW124255   6.081   7.971   1.078  1.8083 -1.8747 -0.2225
 7334SOL    HW224256   6.165   7.956   0.953 -1.7028 -0.7678 -2.8526
 7335SOL     OW24257   0.887   7.125   7.309 -0.3956  0.0404  0.2428
 7335SOL    HW124258   0.852   7.198   7.257  1.1592  0.6256 -0.0170
 7335SOL    HW224259   0.981   7.127   7.294 -0.3354 -2.4015 -0.2570
 7336SOL     OW24260  10.325   4.313   4.358 -0.2236  0.1206 -0.7643
 7336SOL    HW124261  10.344   4.347   4.271  1.0024  3.4434  0.6316
 7336SOL    HW224262  10.410   4.314   4.403 -0.7833 -1.7018  0.4551
 7337SOL     OW24263   1.334   1.866   4.193 -0.5438 -0.5214  0.2053
 7337SOL    HW124264   1.245   1.854   4.225 -0.0936  2.4770  3.2329
 7337SOL    HW224265   1.331   1.948   4.143  0.9801  1.9471  3.7252
 7338SOL     OW24266   7.732   4.711   2.841 -0.0238  0.1434  0.0730
 7338SOL    HW124267   7.774   4.787   2.883  0.7282  0.4479 -1.1675
 7338SOL    HW224268   7.704   4.744   2.755 -0.0941 -0.8638 -0.3064
 7339SOL     OW24269   8.657   8.014   8.622 -0.3184  0.2454 -0.5455
 7339SOL    HW124270   8.626   8.096   8.583  0.0963 -0.2653 -2.0230
 7339SOL    HW224271   8.722   8.041   8.686  0.6746  1.0473 -1.8433
 7340SOL     OW24272   8.059   8.004   7.468 -0.2293 -0.3626 -0.1463
 7340SOL    HW124273   8.084   7.951   7.392  0.3601 -0.0791 -0.1532
 7340SOL    HW224274   7.984   8.056   7.437  1.2458  1.2327 -1.1889
 7341SOL     OW24275   5.725   6.327   6.673  0.2776  0.4122  0.1833
 7341SOL    HW124276   5.788   6.393   6.702  0.0977  0.7570 -0.2092
 7341SOL    HW224277   5.655   6.377   6.631 -0.0125 -0.0050  0.1623
 7342SOL     OW24278   9.010   9.333   0.761  0.6650  0.8017 -0.1561
 7342SOL    HW124279   9.023   9.264   0.696  0.0842  0.5387 -0.0035
 7342SOL    HW224280   9.060   9.305   0.837  1.3664  1.1218 -0.4866
 7343SOL     OW24281   2.589   5.553   4.808  0.2787  0.2169 -0.0898
 7343SOL    HW124282   2.622   5.496   4.739 -0.0764 -2.1190  1.5347
 7343SOL    HW224283   2.496   5.532   4.815 -0.0851  1.6966 -0.0279
 7344SOL     OW24284   2.430   0.877   4.706  0.2266  0.4538  0.2838
 7344SOL    HW124285   2.480   0.948   4.667 -0.4938  0.8223  0.0084
 7344SOL    HW224286   2.496   0.813   4.733  0.8109  0.6848 -0.5515
 7345SOL     OW24287   4.062   4.044   8.476 -0.5435  0.2051 -0.2872
 7345SOL    HW124288   4.128   3.990   8.432  0.1449  0.5249  0.3425
 7345SOL    HW224289   4.068   4.019   8.568  0.3820  1.9263  0.1639
 7346SOL     OW24290   5.940   1.260   7.249 -0.2221  0.1961 -0.8469
 7346SOL    HW124291   6.022   1.287   7.208 -0.6737  0.7574 -1.3789
 7346SOL    HW224292   5.943   1.299   7.337  0.2823 -0.1635 -0.7008
 7347SOL     OW24293   1.819   3.202   7.836  0.2030  0.2903  0.0202
 7347SOL    HW124294   1.735   3.226   7.798  0.3138 -0.5056 -0.7760
 7347SOL    HW224295   1.876   3.187   7.761  0.4322 -1.3034  0.4610
 7348SOL     OW24296   8.349   8.922   1.886  0.4424  0.0846  0.6555
 7348SOL    HW124297   8.316   9.008   1.912  0.8090  0.3318  0.3168
 7348SOL    HW224298   8.439   8.938   1.859  0.1440 -0.1718 -0.5799
 7349SOL     OW24299   6.846   1.108   3.472 -0.0054  1.0892  0.8560
 7349SOL    HW124300   6.889   1.051   3.535 -2.1476 -1.1355  0.4575
 7349SOL    HW224301   6.752   1.091   3.483 -0.5810  2.3618 -1.3228
 7350SOL     OW24302   3.084   6.042   7.742 -0.2504  0.0023  0.5295
 7350SOL    HW124303   3.163   6.093   7.759 -0.2721  0.3384 -0.3198
 7350SOL    HW224304   3.026   6.063   7.816  0.5177 -0.4089  1.2669
 7351SOL     OW24305   6.406   8.594   1.875  0.2863 -0.1126 -0.1682
 7351SOL    HW124306   6.426   8.517   1.823 -1.0493 -1.3647  1.0711
 7351SOL    HW224307   6.316   8.580   1.906 -0.5055  2.5545 -0.9366
 7352SOL     OW24308   3.232   1.895   1.256  0.7006  0.1546  0.0515
 7352SOL    HW124309   3.284   1.851   1.323  0.2738 -0.2469  0.1282
 7352SOL    HW224310   3.236   1.836   1.181  0.1417 -0.0152  0.1476
 7353SOL     OW24311   0.719   3.100   6.772  0.0056  0.6309  0.3439
 7353SOL    HW124312   0.731   3.111   6.678 -0.2121 -0.8453  0.1244
 7353SOL    HW224313   0.808   3.090   6.807  0.0086 -2.9173 -0.3051
 7354SOL     OW24314   5.138   4.917   3.829 -0.2552 -0.0466  0.0218
 7354SOL    HW124315   5.193   4.888   3.755  1.5975  0.4465  1.1412
 7354SOL    HW224316   5.145   4.846   3.893 -1.6076 -0.3267 -0.1073
 7355SOL     OW24317   2.978   2.082   7.027  0.4251  0.4017  0.5137
 7355SOL    HW124318   3.005   2.131   7.105  0.1658 -0.0896  0.9166
 7355SOL    HW224319   2.895   2.042   7.051  1.2684 -1.3342  0.6741
 7356SOL     OW24320   4.702   4.491  10.055 -0.1207  0.2290  0.3244
 7356SOL    HW124321   4.649   4.548  10.111 -0.4096  1.0490 -0.7487
 7356SOL    HW224322   4.673   4.402  10.077  0.4881  0.4458  2.1697
 7357SOL     OW24323   9.910   1.695   2.740 -0.4192  0.0750 -0.1674
 7357SOL    HW124324   9.821   1.672   2.766 -0.6643  2.1804  1.0477
 7357SOL    HW224325   9.965   1.663   2.812 -0.5126  1.0634  0.3674
 7358SOL     OW24326   1.177   1.563   6.600 -0.1701 -0.4863  0.1837
 7358SOL    HW124327   1.240   1.544   6.530 -0.0084  1.0394 -0.1279
 7358SOL    HW224328   1.197   1.653   6.627 -1.6747 -0.2506  0.6408
 7359SOL     OW24329  10.640   5.754   5.626 -0.4780 -0.0879  0.4603
 7359SOL    HW124330  10.571   5.704   5.582 -0.2658  1.1924 -1.4195
 7359SOL    HW224331  10.684   5.802   5.556  1.5247  0.1250  1.7743
 7360SOL     OW24332   4.110   7.977   2.106  0.5031  0.0532 -0.2364
 7360SOL    HW124333   4.059   7.898   2.086  0.4041  0.4585 -1.7074
 7360SOL    HW224334   4.201   7.950   2.096  0.4630  0.1685 -0.9543
 7361SOL     OW24335   9.779  10.325   1.410  0.3143  0.3742 -0.2207
 7361SOL    HW124336   9.753  10.318   1.502 -0.6354 -2.3225 -0.6114
 7361SOL    HW224337   9.868  10.360   1.413  1.9286 -3.3898  2.0575
 7362SOL     OW24338   5.495   8.016   4.632  0.3462  0.2237  0.5557
 7362SOL    HW124339   5.520   8.015   4.539 -1.6134  2.8940 -0.1306
 7362SOL    HW224340   5.566   8.062   4.676 -0.6685  3.0810 -0.5111
 7363SOL     OW24341   9.330   3.349   5.906  0.0291 -0.0578 -0.1528
 7363SOL    HW124342   9.368   3.396   5.832  0.9466 -0.0416  0.3116
 7363SOL    HW224343   9.246   3.317   5.874  0.2238  0.3138 -1.0589
 7364SOL     OW24344   7.143   6.396   4.907  0.6724 -0.0167  0.6525
 7364SOL    HW124345   7.057   6.358   4.926 -0.3409  1.8088  0.0003
 7364SOL    HW224346   7.135   6.487   4.935  2.2781  0.2984  0.1689
 7365SOL     OW24347  10.472   6.748   9.870  0.5621  0.3298 -0.0893
 7365SOL    HW124348  10.412   6.784   9.806  0.1299 -0.6383 -0.2471
 7365SOL    HW224349  10.548   6.806   9.868  0.8548 -0.0421 -1.9728
 7366SOL     OW24350   8.452   2.614   1.405  0.2497 -0.4443  0.5205
 7366SOL    HW124351   8.387   2.598   1.337  2.6036  0.6560 -2.1864
 7366SOL    HW224352   8.498   2.531   1.415 -0.0575 -0.5897  0.7322
 7367SOL     OW24353   3.008   1.744   1.511 -0.2427  0.1828  0.0345
 7367SOL    HW124354   2.984   1.739   1.419 -1.0721  0.1621  0.2449
 7367SOL    HW224355   3.078   1.809   1.514  0.8865 -0.9517 -0.8098
 7368SOL     OW24356   2.252   0.602   9.791  0.3361 -0.3541 -0.4078
 7368SOL    HW124357   2.337   0.646   9.798  0.3383 -0.0602 -2.0209
 7368SOL    HW224358   2.188   0.673   9.800  0.1135 -0.8101  2.9281
 7369SOL     OW24359   8.676   6.502   8.781  0.0001  1.0512  0.3330
 7369SOL    HW124360   8.762   6.483   8.742 -1.3502 -0.8376 -2.0742
 7369SOL    HW224361   8.672   6.597   8.787  2.0607  1.1928 -0.0100
 7370SOL     OW24362   2.075   4.596   5.006  0.5237  0.0739  0.4714
 7370SOL    HW124363   2.151   4.565   4.956  0.0155  0.8408 -0.8221
 7370SOL    HW224364   2.079   4.691   5.001 -0.7834  0.1290 -0.0608
 7371SOL     OW24365   3.210   3.976   8.531  0.2767 -0.4675 -0.1318
 7371SOL    HW124366   3.159   4.014   8.602 -0.2603 -1.0315 -0.2066
 7371SOL    HW224367   3.218   4.047   8.467 -1.7860 -0.8103 -0.8285
 7372SOL     OW24368   6.574   7.057   5.728  0.4379  0.2131 -0.6100
 7372SOL    HW124369   6.657   7.087   5.765 -0.9087  1.6563  1.5039
 7372SOL    HW224370   6.513   7.060   5.802 -1.3810 -1.4022 -1.9334
 7373SOL     OW24371   9.381   4.426   9.453 -0.9805  0.4690  0.1236
 7373SOL    HW124372   9.440   4.488   9.411 -0.3316 -0.0341  0.2751
 7373SOL    HW224373   9.304   4.477   9.475 -0.7833  1.0329 -0.4853
 7374SOL     OW24374   3.710   7.449   6.820  0.4395  0.1082 -0.1332
 7374SOL    HW124375   3.635   7.443   6.761 -0.1151 -0.0749  0.5766
 7374SOL    HW224376   3.734   7.542   6.819 -0.0880  0.2495 -0.0208
 7375SOL     OW24377   7.649   9.852   9.005  0.0569  0.4799 -0.7448
 7375SOL    HW124378   7.627   9.814   9.090  1.3196 -2.1510 -1.4904
 7375SOL    HW224379   7.573   9.834   8.950  0.9973 -2.0560 -1.3536
 7376SOL     OW24380   3.323  10.384   0.213 -0.2456  0.0530  0.0331
 7376SOL    HW124381   3.352  10.440   0.285 -1.1612 -0.9672  1.2423
 7376SOL    HW224382   3.351  10.430   0.134 -0.1934  1.7728  0.9982
 7377SOL     OW24383   4.122  10.224   9.429 -0.5282 -0.0498 -0.7950
 7377SOL    HW124384   4.074  10.242   9.348 -1.4890 -0.3376 -0.3042
 7377SOL    HW224385   4.063  10.168   9.480 -0.2558  0.7221  0.4215
 7378SOL     OW24386   5.202   3.699   4.244 -0.1418  0.3046 -0.3303
 7378SOL    HW124387   5.184   3.606   4.251 -1.4683  0.5770  0.2340
 7378SOL    HW224388   5.150   3.739   4.315  0.6332  1.4345 -0.3686
 7379SOL     OW24389   6.047   1.877   0.239  0.2197 -0.6800  0.0277
 7379SOL    HW124390   5.993   1.822   0.296 -0.3813 -2.5712 -2.2388
 7379SOL    HW224391   6.128   1.828   0.227  1.3402  0.8137  1.0874
 7380SOL     OW24392   8.852   1.522   1.365  0.1008 -0.3005 -0.8559
 7380SOL    HW124393   8.811   1.437   1.384 -1.1636  0.1862 -1.3452
 7380SOL    HW224394   8.926   1.526   1.426 -1.2924 -0.6704  0.9479
 7381SOL     OW24395   3.389   8.038   9.575 -0.2646  0.2726 -0.2421
 7381SOL    HW124396   3.302   8.027   9.614  0.4401 -2.2414  0.8047
 7381SOL    HW224397   3.450   8.024   9.648  1.0418  0.6142 -1.2296
 7382SOL     OW24398   7.709   8.546   3.614  0.4381  0.1288  0.5953
 7382SOL    HW124399   7.716   8.634   3.576 -2.9883 -0.5744 -2.1398
 7382SOL    HW224400   7.746   8.488   3.547 -1.2593 -0.7648  0.3703
 7383SOL     OW24401   6.670   4.559   1.390 -0.3108  0.1477  0.1428
 7383SOL    HW124402   6.642   4.562   1.481  0.0543  1.5781  0.2208
 7383SOL    HW224403   6.643   4.643   1.353  2.2613  0.8758 -0.2505
 7384SOL     OW24404  10.550   0.532   4.377  0.1533 -0.0416  0.0424
 7384SOL    HW124405  10.464   0.575   4.370 -0.3601 -0.9008  0.7675
 7384SOL    HW224406  10.557   0.509   4.470  2.6890  3.0144  0.7774
 7385SOL     OW24407   6.037   4.655   9.044 -0.6143  0.3701 -0.3450
 7385SOL    HW124408   6.081   4.628   9.125 -0.3904  0.6182 -0.3844
 7385SOL    HW224409   5.980   4.581   9.022  0.7660 -0.5422 -1.0255
 7386SOL     OW24410   8.985   6.484  10.285 -0.1426 -0.5847  0.3309
 7386SOL    HW124411   9.000   6.515  10.374  0.8675 -0.7350  0.2278
 7386SOL    HW224412   9.028   6.549  10.229 -1.8045  0.1620 -0.1298
 7387SOL     OW24413   9.772   5.196   3.169  0.3338 -0.1267  0.1198
 7387SOL    HW124414   9.713   5.126   3.141  1.4438 -0.0472 -2.7819
 7387SOL    HW224415   9.713   5.267   3.195 -0.8017 -1.4159  1.2683
 7388SOL     OW24416   3.323   8.673   2.180 -0.2389 -0.8807 -0.0670
 7388SOL    HW124417   3.327   8.589   2.226 -0.7052 -0.5725  0.5491
 7388SOL    HW224418   3.323   8.650   2.088  0.8595 -1.5055  0.0703
 7389SOL     OW24419   2.680   3.381   7.677 -0.4239  0.1823 -0.2189
 7389SOL    HW124420   2.711   3.401   7.589  0.3742 -1.3293 -0.3121
 7389SOL    HW224421   2.741   3.316   7.710 -1.4676 -0.2417  0.9627
 7390SOL     OW24422   0.815   7.944   5.544  0.8255 -0.1672 -0.4369
 7390SOL    HW124423   0.853   7.927   5.630  0.5029  0.7550 -0.1041
 7390SOL    HW224424   0.738   7.888   5.539  0.8688 -0.2503 -0.1541
 7391SOL     OW24425   4.520   3.056   4.475  0.0642  0.7522  0.0821
 7391SOL    HW124426   4.519   3.031   4.383  2.0152  2.3710 -0.4732
 7391SOL    HW224427   4.463   3.133   4.480  1.4435  1.8460 -0.2409
 7392SOL     OW24428   7.990   0.711  10.497 -0.1864 -0.1855 -0.4312
 7392SOL    HW124429   7.978   0.625  10.538  1.8282 -1.3705 -2.1367
 7392SOL    HW224430   7.910   0.723  10.446 -0.6002 -0.9387  0.0116
 7393SOL     OW24431  10.597   8.768   3.790 -0.0262  0.3222 -0.3328
 7393SOL    HW124432  10.661   8.823   3.745  1.0646 -0.9973 -0.4367
 7393SOL    HW224433  10.648   8.696   3.826 -1.2648 -0.0408  0.7766
 7394SOL     OW24434   3.013   8.910   1.776  0.1674 -0.2229 -0.1705
 7394SOL    HW124435   3.075   8.869   1.716  0.9553 -1.8505  1.6422
 7394SOL    HW224436   3.066   8.970   1.828 -0.3442  0.5474 -0.5241
 7395SOL     OW24437   0.374  10.559   0.638  0.4615 -0.4462  0.3353
 7395SOL    HW124438   0.355  10.646   0.603  0.7115  0.1075  1.5310
 7395SOL    HW224439   0.383  10.573   0.733  0.7299 -1.7360  0.5118
 7396SOL     OW24440   8.532  10.536   0.458 -0.5316  0.0122  0.3024
 7396SOL    HW124441   8.535  10.626   0.490 -0.4064 -0.0373  0.4308
 7396SOL    HW224442   8.459  10.535   0.396  0.7246  0.7155 -1.2761
 7397SOL     OW24443   5.309   2.822   4.484 -0.2833  0.3891  0.0852
 7397SOL    HW124444   5.326   2.914   4.503 -0.3547  0.4544 -0.1640
 7397SOL    HW224445   5.233   2.823   4.426 -1.4561  0.0783  1.5628
 7398SOL     OW24446   3.962   7.432   4.436 -0.1045  0.2020 -0.0870
 7398SOL    HW124447   3.962   7.446   4.341  0.2098  0.1233 -0.0998
 7398SOL    HW224448   4.020   7.501   4.470 -1.3358  1.1337  0.1885
 7399SOL     OW24449   1.502   3.077   9.642  0.1571  0.3016  0.1872
 7399SOL    HW124450   1.437   3.016   9.607 -0.2917  1.7053 -1.5367
 7399SOL    HW224451   1.569   3.020   9.681 -1.7852 -1.1967  1.5601
 7400SOL     OW24452   1.013   7.906   3.689  0.1687  0.2001 -0.3085
 7400SOL    HW124453   1.018   7.824   3.738  0.8450 -0.4762 -1.4291
 7400SOL    HW224454   1.019   7.975   3.755  0.2548 -0.6621  0.6079
 7401SOL     OW24455   0.336   8.872   5.699  0.3232  0.1760 -0.0908
 7401SOL    HW124456   0.272   8.860   5.629 -1.7412 -0.4933  1.7711
 7401SOL    HW224457   0.290   8.926   5.764  1.9153  0.2380  1.0512
 7402SOL     OW24458   9.967   7.788   7.069  0.1058  0.1205 -0.4369
 7402SOL    HW124459   9.983   7.698   7.097  3.0622  0.6877  0.0674
 7402SOL    HW224460   9.877   7.788   7.038 -0.1109 -2.9135 -0.1166
 7403SOL     OW24461   7.643   3.867   3.696  0.0162 -0.2980 -0.6667
 7403SOL    HW124462   7.578   3.840   3.761  0.5109 -1.0708 -0.4843
 7403SOL    HW224463   7.612   3.828   3.614 -0.1307 -0.0606 -0.7267
 7404SOL     OW24464  10.481   0.187   7.968  0.1862  0.7067  0.6412
 7404SOL    HW124465  10.423   0.242   7.915 -0.0563  0.0747  0.2391
 7404SOL    HW224466  10.422   0.139   8.025  0.4271  1.1506  1.2724
 7405SOL     OW24467   9.876   0.032   6.253 -0.1067  0.0509 -0.0839
 7405SOL    HW124468   9.824   0.094   6.303  0.4854  0.0315  0.5739
 7405SOL    HW224469   9.843  -0.054   6.279  0.9529 -0.0102  1.1737
 7406SOL     OW24470   0.160   5.718   3.547  0.0192  0.0591  0.0471
 7406SOL    HW124471   0.115   5.792   3.505 -1.1758 -1.9037 -2.3794
 7406SOL    HW224472   0.241   5.708   3.496  2.3034  2.1221  2.9469
 7407SOL     OW24473   2.553   6.702   1.059 -0.1517  0.5076  0.2601
 7407SOL    HW124474   2.647   6.685   1.055  0.2628  2.6726 -0.8531
 7407SOL    HW224475   2.514   6.636   1.002  0.9674  0.9812 -1.1141
 7408SOL     OW24476   3.530   1.899   1.394 -0.2698 -0.0899 -0.2717
 7408SOL    HW124477   3.528   1.959   1.469  1.0985  0.3277 -0.5406
 7408SOL    HW224478   3.550   1.955   1.319  2.0519 -0.9718 -0.3852
 7409SOL     OW24479   4.877   2.755   1.720  0.1742 -0.0483  0.5578
 7409SOL    HW124480   4.901   2.845   1.698  0.1798 -0.0535  0.5426
 7409SOL    HW224481   4.795   2.763   1.768 -0.0750 -0.0700  0.1396
 7410SOL     OW24482   1.737   5.741   8.631 -0.3105  0.5338  0.3343
 7410SOL    HW124483   1.725   5.800   8.706  0.8376 -0.6978  1.5243
 7410SOL    HW224484   1.809   5.684   8.656  0.6883  0.6362 -2.0884
 7411SOL     OW24485   0.616   9.876   0.336 -0.0368  0.3515  0.6731
 7411SOL    HW124486   0.549   9.847   0.397  0.1291  0.7373  1.0412
 7411SOL    HW224487   0.686   9.911   0.391 -0.7814  2.7037  0.2260
 7412SOL     OW24488   3.889   1.676   5.608  0.0540  0.1785 -0.1453
 7412SOL    HW124489   3.926   1.748   5.557 -1.4077  0.9806 -0.1457
 7412SOL    HW224490   3.837   1.720   5.675 -0.4808 -0.8832  0.1475
 7413SOL     OW24491   7.712   6.551   0.946  0.1467  0.2485  0.1114
 7413SOL    HW124492   7.741   6.553   0.855  2.3225  2.6180  0.7112
 7413SOL    HW224493   7.730   6.462   0.975  0.2028 -0.3151 -1.5532
 7414SOL     OW24494   0.269   2.770  10.414  0.5920  0.4536 -0.3233
 7414SOL    HW124495   0.354   2.793  10.375  0.8249 -0.6420 -0.5056
 7414SOL    HW224496   0.278   2.677  10.436 -0.6929  0.2260 -0.6760
 7415SOL     OW24497   7.221   0.733   8.873 -0.0215  0.4068  0.3796
 7415SOL    HW124498   7.266   0.725   8.789  1.2862  0.7831  1.0123
 7415SOL    HW224499   7.237   0.824   8.900  0.0080  0.1511  1.2562
 7416SOL     OW24500   3.418   1.179   8.731  0.2132  0.0484  0.1153
 7416SOL    HW124501   3.490   1.174   8.794 -0.8960  0.4767  1.4625
 7416SOL    HW224502   3.445   1.121   8.659  2.1976  0.7409  0.2532
 7417SOL     OW24503   8.514   5.983   4.573 -0.3279  0.3308 -0.7466
 7417SOL    HW124504   8.578   6.054   4.580 -1.7289  1.5016  1.6193
 7417SOL    HW224505   8.476   5.992   4.486  0.7779  1.3630 -1.1352
 7418SOL     OW24506   5.937   4.520   3.966 -0.1145  0.1150 -0.2640
 7418SOL    HW124507   5.885   4.509   3.887 -1.0634  1.4116  0.1402
 7418SOL    HW224508   5.928   4.437   4.013 -1.6693  0.2296 -0.3153
 7419SOL     OW24509   3.721   5.294   1.327  0.3255 -0.3414 -0.0910
 7419SOL    HW124510   3.667   5.351   1.273 -0.1150 -0.2860  0.4017
 7419SOL    HW224511   3.665   5.271   1.401  0.8102 -0.6801  0.1754
 7420SOL     OW24512  10.521   2.041   5.415 -0.3486  0.0469 -0.5053
 7420SOL    HW124513  10.469   2.107   5.461 -0.1714 -0.3707  0.3288
 7420SOL    HW224514  10.595   2.089   5.379 -0.4368  0.3726 -0.2598
 7421SOL     OW24515   1.470   0.459  10.004 -0.4330 -0.3502 -0.3957
 7421SOL    HW124516   1.448   0.371   9.973  0.4015 -0.4673 -0.6863
 7421SOL    HW224517   1.542   0.446  10.065 -1.0857  0.0297  0.4888
 7422SOL     OW24518   8.170   4.553  10.433  0.4633 -0.4424 -0.3294
 7422SOL    HW124519   8.170   4.532  10.527 -0.1074 -2.0409 -0.6590
 7422SOL    HW224520   8.169   4.468  10.390  0.1053  0.2820 -1.7946
 7423SOL     OW24521  10.317   6.058   8.914 -0.7683 -1.1331 -0.6839
 7423SOL    HW124522  10.389   6.103   8.870  1.4145 -1.0897  2.5673
 7423SOL    HW224523  10.317   5.970   8.875  0.2459 -0.7571 -1.5915
 7424SOL     OW24524   1.018   0.071   8.928  0.7039  0.2226  0.5453
 7424SOL    HW124525   1.061   0.142   8.976 -0.6955 -0.0507  2.2938
 7424SOL    HW224526   0.942   0.048   8.981  1.0419 -2.5488 -0.0017
 7425SOL     OW24527   2.961   0.049   0.773  0.2162 -0.0980 -0.1714
 7425SOL    HW124528   3.016   0.003   0.836  0.3497  1.9647  1.3381
 7425SOL    HW224529   3.011   0.047   0.691  0.2669 -2.4117 -0.1552
 7426SOL     OW24530  10.284   3.430   3.764 -0.7510  0.6270 -0.7553
 7426SOL    HW124531  10.261   3.408   3.854  0.2344 -0.0707 -0.6527
 7426SOL    HW224532  10.234   3.509   3.745 -2.2879 -0.1665 -0.1900
 7427SOL     OW24533   3.526   9.561   0.212 -0.0484 -0.3039 -0.1638
 7427SOL    HW124534   3.550   9.653   0.204  0.7926 -0.4388  0.6083
 7427SOL    HW224535   3.567   9.532   0.293  0.3401 -1.5471 -0.7667
 7428SOL     OW24536   5.511   7.292   6.782 -0.1266  0.0203 -0.1576
 7428SOL    HW124537   5.472   7.310   6.868 -0.0059  0.0284 -0.1043
 7428SOL    HW224538   5.587   7.237   6.802  0.5346  0.9084 -0.1600
 7429SOL     OW24539   3.923   0.416   7.957  0.1850  0.0559 -0.4742
 7429SOL    HW124540   3.858   0.408   8.027  0.4432  2.2676  0.0920
 7429SOL    HW224541   4.001   0.372   7.990  0.3468  1.1908  0.7561
 7430SOL     OW24542   2.860   7.440   8.724 -0.5748 -0.2630 -0.5707
 7430SOL    HW124543   2.805   7.387   8.666  0.8086 -1.7535 -0.5751
 7430SOL    HW224544   2.949   7.410   8.708  0.0190  0.4429  1.1341
 7431SOL     OW24545  10.371   2.874   4.121 -0.3269  0.2115 -0.1354
 7431SOL    HW124546  10.448   2.878   4.064 -0.1835  1.7786  0.1320
 7431SOL    HW224547  10.297   2.875   4.060 -0.1665  1.4118 -0.3456
 7432SOL     OW24548   2.734   7.831   3.982 -0.0485 -0.7487  0.2548
 7432SOL    HW124549   2.710   7.762   3.921 -1.5890 -0.5056  0.5569
 7432SOL    HW224550   2.699   7.802   4.067 -0.6686  0.3551  0.3933
 7433SOL     OW24551   1.888   4.178  10.163  0.1448 -0.0392 -0.7701
 7433SOL    HW124552   1.942   4.161  10.240 -0.9140  2.1894  0.5433
 7433SOL    HW224553   1.802   4.143  10.185 -0.1426  0.5233 -0.9776
 7434SOL     OW24554   4.944   7.515   2.660 -0.0072  0.3249  0.6478
 7434SOL    HW124555   4.895   7.495   2.580 -0.0106  1.9409  0.1973
 7434SOL    HW224556   4.880   7.505   2.730 -0.7388  1.4188  0.1666
 7435SOL     OW24557   4.075   2.135   5.154  0.8139  0.4463  0.0762
 7435SOL    HW124558   3.998   2.079   5.149  0.9832  0.3121 -1.4229
 7435SOL    HW224559   4.131   2.105   5.082  1.4660  1.7192  0.0315
 7436SOL     OW24560  10.491   6.516  10.039  0.1115 -0.4074 -0.0091
 7436SOL    HW124561  10.486   6.592   9.981  0.9905  0.1970  0.6768
 7436SOL    HW224562  10.469   6.442   9.983 -0.1644  0.2837 -0.8400
 7437SOL     OW24563   0.962   7.147   7.976  0.7980 -0.1226 -0.1337
 7437SOL    HW124564   0.948   7.242   7.980  2.1292  0.0706  0.5636
 7437SOL    HW224565   0.921   7.114   8.056 -0.8539 -0.3404 -1.0219
 7438SOL     OW24566  10.164   0.368   9.273 -0.0214  0.0356  0.0035
 7438SOL    HW124567  10.073   0.389   9.254  0.1130 -0.7302 -1.7892
 7438SOL    HW224568  10.209   0.382   9.189  1.1434 -1.3974  0.3400
 7439SOL     OW24569  10.622   1.551   6.550  0.6663  0.1222 -0.1277
 7439SOL    HW124570  10.716   1.537   6.546  0.5683 -0.3667 -2.9019
 7439SOL    HW224571  10.584   1.464   6.535 -0.2812  0.1580  1.7535
 7440SOL     OW24572   3.046   5.792   5.943 -0.1063 -0.3785 -0.2424
 7440SOL    HW124573   3.022   5.865   5.887 -0.3723 -0.3597 -0.1029
 7440SOL    HW224574   3.132   5.815   5.978  0.2753 -0.6019 -1.0103
 7441SOL     OW24575   5.023   8.022   6.026  0.1269 -0.4437  0.7505
 7441SOL    HW124576   4.959   8.061   5.966  0.5563 -1.4530 -0.4144
 7441SOL    HW224577   5.100   8.007   5.971  0.7748 -0.7836  1.7356
 7442SOL     OW24578   9.451   4.072   9.317  0.2220 -0.4953 -0.0073
 7442SOL    HW124579   9.502   4.013   9.260 -0.1509 -0.5669 -0.2737
 7442SOL    HW224580   9.371   4.089   9.267 -0.6635 -1.5153  0.9947
 7443SOL     OW24581   3.803   3.221   7.233  0.0225  0.0060  0.3238
 7443SOL    HW124582   3.826   3.130   7.250 -0.0997 -0.4414 -1.5907
 7443SOL    HW224583   3.860   3.272   7.290  0.8326 -1.2490  0.6742
 7444SOL     OW24584   5.796   8.286   1.476 -0.0890  0.3079 -0.3039
 7444SOL    HW124585   5.724   8.281   1.413  0.8325  1.3850 -1.4724
 7444SOL    HW224586   5.753   8.313   1.558 -1.1601 -0.1566 -0.6941
 7445SOL     OW24587   4.282   7.705   2.965 -0.2047  0.2268 -0.0763
 7445SOL    HW124588   4.326   7.780   3.005 -0.1415  0.4277 -0.5115
 7445SOL    HW224589   4.215   7.680   3.028  0.6140 -0.1727  0.6612
 7446SOL     OW24590   1.283   2.945   3.751  0.1932 -0.4660  0.0746
 7446SOL    HW124591   1.342   3.007   3.707 -2.0396  0.9878 -1.0913
 7446SOL    HW224592   1.237   2.902   3.679 -3.2874  1.6854  0.8056
 7447SOL     OW24593   5.632   5.650   7.966 -0.2439 -0.0582  0.3315
 7447SOL    HW124594   5.686   5.728   7.949 -2.0950  1.1099 -0.5464
 7447SOL    HW224595   5.663   5.585   7.903  0.2718  0.5201 -0.0239
 7448SOL     OW24596   6.690   7.568   2.218  0.0291  0.4450 -0.3591
 7448SOL    HW124597   6.630   7.543   2.289 -1.1542 -0.5783 -1.6595
 7448SOL    HW224598   6.683   7.664   2.213 -0.8416  0.4133  0.0732
 7449SOL     OW24599   6.050  10.199   2.311 -0.2606  0.5374 -0.5777
 7449SOL    HW124600   6.038  10.237   2.398 -1.1662 -1.9512  0.4817
 7449SOL    HW224601   6.135  10.233   2.282  0.8567  0.2075  1.9896
 7450SOL     OW24602   4.474   7.560   3.913  0.2754 -0.3201 -0.5069
 7450SOL    HW124603   4.418   7.619   3.963  0.6161  0.6463 -1.2340
 7450SOL    HW224604   4.452   7.577   3.822  2.0424  0.4291 -0.8423
 7451SOL     OW24605   7.576   9.305   5.475 -0.1047 -0.3379  0.3577
 7451SOL    HW124606   7.567   9.399   5.459 -0.3735 -0.6735 -1.8185
 7451SOL    HW224607   7.514   9.286   5.545 -2.6023  0.5829 -1.4640
 7452SOL     OW24608   7.975   9.781   4.958 -0.3684  0.2129 -0.2472
 7452SOL    HW124609   7.881   9.766   4.947 -0.8777  1.5661  1.6948
 7452SOL    HW224610   8.015   9.694   4.952 -1.7708 -0.4191 -0.7105
 7453SOL     OW24611  10.101   0.626   0.797  0.1702  0.1024  0.3710
 7453SOL    HW124612  10.082   0.677   0.718 -0.4163 -0.4059  0.1733
 7453SOL    HW224613  10.022   0.632   0.850  1.1386  1.8198  1.7166
 7454SOL     OW24614   8.383   4.576   0.736  0.1756  0.4344 -0.2789
 7454SOL    HW124615   8.333   4.650   0.771 -4.3669 -1.2904 -2.3264
 7454SOL    HW224616   8.376   4.509   0.805  0.4247  0.4509 -0.2365
 7455SOL     OW24617   3.673   7.018  10.089 -0.5977  0.2378 -0.4745
 7455SOL    HW124618   3.602   6.971  10.132 -1.3929 -0.0791 -2.0677
 7455SOL    HW224619   3.632   7.056  10.011  1.1196 -0.5034 -1.7827
 7456SOL     OW24620   6.398   0.562   2.396 -0.0674 -0.0686 -0.1432
 7456SOL    HW124621   6.400   0.484   2.451  1.2398  0.8077  1.1082
 7456SOL    HW224622   6.467   0.547   2.331  0.8571  0.4245  0.6921
 7457SOL     OW24623   4.733  10.385   3.611 -0.2624 -0.2888 -0.0641
 7457SOL    HW124624   4.713  10.435   3.532  0.2070  2.6519  1.5449
 7457SOL    HW224625   4.657  10.328   3.623 -1.4651  0.9764 -1.3022
 7458SOL     OW24626   9.393   8.750   7.871  0.0642  0.5235 -0.0369
 7458SOL    HW124627   9.343   8.739   7.790 -0.7973 -0.8016  0.6439
 7458SOL    HW224628   9.443   8.669   7.879  0.8688  1.0420  0.2928
 7459SOL     OW24629   5.760   6.997   7.062  0.4643 -0.4303  0.3197
 7459SOL    HW124630   5.713   6.937   7.120  1.0858  0.4177  1.7723
 7459SOL    HW224631   5.851   6.968   7.065  0.5071 -0.3754 -0.2535
 7460SOL     OW24632   1.934   3.898   1.922  0.5874  0.1151  0.2701
 7460SOL    HW124633   1.942   3.892   2.017 -0.4548 -1.6640  0.2983
 7460SOL    HW224634   1.927   3.992   1.904  0.2244  0.4507  2.0092
 7461SOL     OW24635   1.647   9.619   5.764  0.0482  0.3936  0.5342
 7461SOL    HW124636   1.580   9.588   5.825  0.1567 -1.8944 -0.4311
 7461SOL    HW224637   1.602   9.623   5.680  1.2098 -1.6951 -0.2303
 7462SOL     OW24638   7.154   4.751   4.907 -0.0704 -0.5862 -0.0647
 7462SOL    HW124639   7.231   4.806   4.923 -1.0077  0.7208  0.1710
 7462SOL    HW224640   7.087   4.813   4.877 -1.3078 -1.5238  0.6728
 7463SOL     OW24641  10.303   1.094   9.240  0.7622  0.4334 -0.5545
 7463SOL    HW124642  10.339   1.024   9.296  0.3787 -0.1880 -1.0760
 7463SOL    HW224643  10.359   1.093   9.163  0.4560  0.3760 -0.7756
 7464SOL     OW24644   4.043   4.713   6.359 -0.1912  0.3520  0.3491
 7464SOL    HW124645   4.021   4.629   6.318  0.4469 -0.6007  1.8799
 7464SOL    HW224646   4.135   4.728   6.337 -0.1930  0.4530  0.4073
 7465SOL     OW24647   6.540   4.894   7.409  0.6734  0.5448 -0.2309
 7465SOL    HW124648   6.591   4.964   7.368  0.0831  1.2670  0.2338
 7465SOL    HW224649   6.449   4.925   7.405  0.2967 -0.5549 -0.7265
 7466SOL     OW24650   6.837   3.927   8.490  0.6580  0.5247  0.2385
 7466SOL    HW124651   6.863   3.930   8.582 -1.1351  0.7603  0.7596
 7466SOL    HW224652   6.742   3.935   8.491  0.4870 -0.7102 -1.5764
 7467SOL     OW24653   6.755   0.194   0.515  0.1606  0.1802 -0.0248
 7467SOL    HW124654   6.776   0.286   0.505 -2.5496  1.0154  0.9165
 7467SOL    HW224655   6.744   0.182   0.610 -1.9576 -0.4062 -0.2786
 7468SOL     OW24656   2.715   4.276   8.027 -0.0679  0.0249 -0.9833
 7468SOL    HW124657   2.746   4.338   8.093 -1.1739 -0.1186 -0.3102
 7468SOL    HW224658   2.654   4.326   7.973 -0.8220 -0.4016 -0.5498
 7469SOL     OW24659   7.501   9.128   9.318 -0.4118  0.1195 -0.1384
 7469SOL    HW124660   7.538   9.046   9.349  0.0452 -0.3893 -1.9266
 7469SOL    HW224661   7.462   9.107   9.233 -0.4840  1.6930 -0.5335
 7470SOL     OW24662   6.914   0.382   6.978  0.4427  0.3229  0.2665
 7470SOL    HW124663   6.924   0.462   7.029  1.0621 -0.5376  1.5682
 7470SOL    HW224664   6.995   0.375   6.928  0.3633  0.5411  0.1085
 7471SOL     OW24665   4.248   7.635   3.301  0.4239 -0.5916  0.1837
 7471SOL    HW124666   4.221   7.699   3.367  1.7183 -0.8828  1.0451
 7471SOL    HW224667   4.170   7.621   3.248 -1.2766 -1.7223  2.7528
 7472SOL     OW24668  10.139   0.417   0.496  0.5562 -0.1075  0.1840
 7472SOL    HW124669  10.086   0.354   0.544 -0.7851 -0.8320 -2.1099
 7472SOL    HW224670  10.225   0.375   0.487  0.9404  0.1672  2.0705
 7473SOL     OW24671   1.635   7.582   6.952  0.1540 -0.2488  0.2530
 7473SOL    HW124672   1.560   7.622   6.996 -1.9493 -2.0301 -1.5071
 7473SOL    HW224673   1.682   7.656   6.913  0.2167  1.0416  2.5772
 7474SOL     OW24674   1.559   4.127   3.932  0.6168  0.4637 -0.2320
 7474SOL    HW124675   1.531   4.190   3.999  0.8564  0.7191 -0.3723
 7474SOL    HW224676   1.487   4.065   3.926  0.0220  1.1838 -0.6767
 7475SOL     OW24677  10.461   2.319   9.500 -0.3391 -0.0087 -0.0586
 7475SOL    HW124678  10.378   2.282   9.531 -0.5749  1.0926  0.6837
 7475SOL    HW224679  10.449   2.413   9.505  0.1831  0.2039 -2.1010
 7476SOL     OW24680   0.188   8.673   9.693  0.3205 -0.0209 -0.1294
 7476SOL    HW124681   0.207   8.665   9.599 -0.9572  0.6830 -0.4670
 7476SOL    HW224682   0.271   8.703   9.731  1.3200 -1.7703 -0.7718
 7477SOL     OW24683   5.919   3.203   8.532 -0.0679  0.6676  0.1909
 7477SOL    HW124684   5.942   3.181   8.623  0.0064  1.0024  0.2559
 7477SOL    HW224685   5.895   3.120   8.492  1.3800  0.2561  0.0900
 7478SOL     OW24686   6.748   7.119   5.159 -0.0246  0.0880  0.5616
 7478SOL    HW124687   6.826   7.168   5.186 -1.1383  1.0518  2.2579
 7478SOL    HW224688   6.762   7.031   5.195  0.1189  0.3763  1.2386
 7479SOL     OW24689   2.998   9.909   4.344 -0.1993  0.1160  0.1586
 7479SOL    HW124690   3.059   9.978   4.319 -0.6753  1.0158  1.3984
 7479SOL    HW224691   2.935   9.952   4.402 -2.2178 -0.7067 -1.3076
 7480SOL     OW24692   6.826   8.889   2.681 -0.7003 -0.1171 -0.3666
 7480SOL    HW124693   6.837   8.984   2.675  1.8640 -0.1951  1.4397
 7480SOL    HW224694   6.835   8.858   2.591 -0.0222  1.2572 -0.7990
 7481SOL     OW24695   0.596   1.751   7.585  0.9364  0.4006  0.3479
 7481SOL    HW124696   0.571   1.761   7.493 -1.5014 -3.5865  0.3704
 7481SOL    HW224697   0.607   1.841   7.616  0.0653  1.9796 -3.3651
 7482SOL     OW24698   3.613   6.932   1.505  0.2894  0.2958 -0.2722
 7482SOL    HW124699   3.521   6.941   1.482  0.4072  0.8569 -0.5319
 7482SOL    HW224700   3.659   6.936   1.421  0.5845  0.4732 -0.1036
 7483SOL     OW24701   7.608   5.881   7.627 -0.6006 -0.3764  0.0055
 7483SOL    HW124702   7.590   5.943   7.697 -0.2122 -0.8900  0.5687
 7483SOL    HW224703   7.610   5.795   7.670 -0.4875 -0.7114 -0.6504
 7484SOL     OW24704   4.455   6.613   3.647 -0.7676  0.3624 -0.3493
 7484SOL    HW124705   4.424   6.522   3.637 -0.3616  0.1867 -0.0162
 7484SOL    HW224706   4.377   6.662   3.672 -0.8632 -0.0112  0.1027
 7485SOL     OW24707   0.922   2.108   7.361 -0.9587  0.9182  0.1279
 7485SOL    HW124708   1.008   2.077   7.390 -0.7379  0.0379 -1.3623
 7485SOL    HW224709   0.933   2.203   7.355  0.7797  0.6619 -2.4649
 7486SOL     OW24710   1.444  10.489   0.037 -0.1603  0.1960 -0.3031
 7486SOL    HW124711   1.494  10.454   0.111  0.5243  0.4885 -0.6142
 7486SOL    HW224712   1.488  10.572   0.016 -0.7256  0.4126 -0.6473
 7487SOL     OW24713   5.730   9.557   0.122 -0.1659  0.1934 -0.2418
 7487SOL    HW124714   5.692   9.524   0.041 -0.7204  2.1397 -0.8125
 7487SOL    HW224715   5.655   9.579   0.177  0.1733  0.7658  0.0047
 7488SOL     OW24716   0.248   6.179   7.217  0.3270 -0.3005 -0.4810
 7488SOL    HW124717   0.252   6.173   7.122  1.0233 -1.1357 -0.4099
 7488SOL    HW224718   0.333   6.147   7.247 -1.4501 -4.6537  0.6146
 7489SOL     OW24719   4.472   6.108   2.829 -0.3201  1.0422 -0.5364
 7489SOL    HW124720   4.563   6.088   2.852 -0.5366  0.2468 -0.3510
 7489SOL    HW224721   4.477   6.141   2.739  0.0286 -0.1442 -0.9682
 7490SOL     OW24722   8.957   3.558   6.828  0.2277  0.2740 -0.0405
 7490SOL    HW124723   8.934   3.466   6.831  0.1308  0.3329  1.3588
 7490SOL    HW224724   9.045   3.560   6.791  0.6206 -0.4505  0.8527
 7491SOL     OW24725   0.686   5.129   2.893 -0.3742  0.3958 -0.2304
 7491SOL    HW124726   0.606   5.172   2.922 -0.7655 -0.3096 -0.2519
 7491SOL    HW224727   0.659   5.040   2.871  0.5295 -0.0292  0.3400
 7492SOL     OW24728   7.477  10.651   9.377 -0.0246  0.0236 -0.4603
 7492SOL    HW124729   7.494  10.670   9.469 -1.9330  1.3141 -0.3242
 7492SOL    HW224730   7.485  10.556   9.370  0.4688 -0.0590  0.9519
 7493SOL     OW24731   2.625   2.428  10.260  0.5040 -0.3882 -0.1211
 7493SOL    HW124732   2.656   2.337  10.263  2.3438  0.1208 -1.7293
 7493SOL    HW224733   2.530   2.420  10.249  0.6975 -2.1374 -0.9187
 7494SOL     OW24734   6.177   1.579   5.597 -0.3017  0.4369 -0.3014
 7494SOL    HW124735   6.252   1.554   5.650 -0.4563  3.7191  1.7709
 7494SOL    HW224736   6.214   1.618   5.518 -0.0550 -3.0693 -2.0962
 7495SOL     OW24737   8.857   3.835   5.908  0.0723 -0.6090  0.0312
 7495SOL    HW124738   8.844   3.740   5.901 -0.9530 -0.3906 -1.3721
 7495SOL    HW224739   8.901   3.859   5.827  0.4754  0.1116  0.4500
 7496SOL     OW24740   3.153   5.089   5.450  0.7262  0.8387 -0.5253
 7496SOL    HW124741   3.217   5.098   5.379  0.9890  1.8600 -0.1695
 7496SOL    HW224742   3.100   5.013   5.425  1.4404  0.5902 -1.3217
 7497SOL     OW24743   5.558   8.082   5.134  0.0428 -0.5019 -0.9623
 7497SOL    HW124744   5.609   8.091   5.214  0.3530 -0.7001 -1.1389
 7497SOL    HW224745   5.467   8.091   5.163  0.0350 -2.2325 -0.3151
 7498SOL     OW24746   1.973   8.181   6.620 -0.7397  0.1450 -0.1482
 7498SOL    HW124747   2.026   8.101   6.624  0.5972  0.8954 -1.9745
 7498SOL    HW224748   2.013   8.239   6.684 -0.7051 -0.0609  0.0198
 7499SOL     OW24749   0.992   8.362   8.388  0.4580  0.1573 -0.0919
 7499SOL    HW124750   1.051   8.383   8.316 -0.2387 -0.3850 -0.8348
 7499SOL    HW224751   0.905   8.356   8.347 -0.2622  1.6672  1.0735
 7500SOL     OW24752   5.212   8.148   2.513 -0.6397 -0.1928 -0.4881
 7500SOL    HW124753   5.143   8.161   2.577  0.9219  0.6114  1.1023
 7500SOL    HW224754   5.169   8.158   2.428 -3.1105 -2.9555  0.3012
 7501SOL     OW24755   4.562   3.076   2.165  0.3292 -0.3154  0.1121
 7501SOL    HW124756   4.594   2.998   2.211  1.1670 -0.9273 -1.4522
 7501SOL    HW224757   4.531   3.043   2.081  2.7647  1.2475 -1.5306
 7502SOL     OW24758  10.485  10.509  10.451  0.5703  0.2335 -0.1230
 7502SOL    HW124759  10.552  10.515  10.519 -0.1433  0.0138  0.6165
 7502SOL    HW224760  10.480  10.416  10.431  0.1878  0.1946  0.1396
 7503SOL     OW24761   1.221   4.098   5.512 -0.0094 -0.5991 -0.5179
 7503SOL    HW124762   1.259   4.011   5.502 -0.3106 -0.8093  0.1284
 7503SOL    HW224763   1.296   4.155   5.530  0.3031 -0.5509 -1.8152
 7504SOL     OW24764   8.247   8.300   6.971  0.1194 -0.3396  0.9326
 7504SOL    HW124765   8.229   8.219   7.019 -0.1908 -0.3597  0.7858
 7504SOL    HW224766   8.196   8.292   6.890  1.1351 -0.5915  0.3034
 7505SOL     OW24767   7.591   5.596   0.463 -0.3971  0.5300 -0.4607
 7505SOL    HW124768   7.544   5.526   0.418 -0.5612  0.3865 -0.0657
 7505SOL    HW224769   7.683   5.572   0.455 -0.4145  0.5772 -0.8381
 7506SOL     OW24770   5.522   1.478   3.154  0.0416  0.3661  0.1351
 7506SOL    HW124771   5.450   1.460   3.213 -0.2969 -0.1295 -0.4223
 7506SOL    HW224772   5.480   1.499   3.070  0.5379  0.1011 -0.1847
 7507SOL     OW24773   9.474   8.556   7.538 -0.0791  0.0930  0.4387
 7507SOL    HW124774   9.493   8.500   7.463  0.6205  0.4960  0.3143
 7507SOL    HW224775   9.558   8.566   7.583 -0.5699 -0.4789  1.5119
 7508SOL     OW24776   7.802   3.765   5.655  0.4701 -0.4039  0.1132
 7508SOL    HW124777   7.714   3.800   5.670  0.2532 -1.4572  1.4492
 7508SOL    HW224778   7.834   3.742   5.742  1.1167 -2.2748 -0.5770
 7509SOL     OW24779   3.764   7.788   6.495 -0.0246 -0.4717 -0.2637
 7509SOL    HW124780   3.738   7.838   6.571 -3.2764 -1.4131 -0.6007
 7509SOL    HW224781   3.857   7.768   6.510 -0.1804  0.5309  2.7227
 7510SOL     OW24782   3.498   5.787   6.753 -0.5451  0.1972 -0.3515
 7510SOL    HW124783   3.483   5.860   6.694  2.3652  0.1603 -1.3113
 7510SOL    HW224784   3.590   5.794   6.776 -0.7664 -1.8286  1.4237
 7511SOL     OW24785   8.177   4.619   4.430  0.4743  0.2595  0.7107
 7511SOL    HW124786   8.139   4.669   4.357  0.6177 -0.1273  0.3681
 7511SOL    HW224787   8.239   4.680   4.470 -1.3302  1.3277  2.0244
 7512SOL     OW24788   8.754   0.041   8.332 -0.1841 -0.2567  0.2175
 7512SOL    HW124789   8.808   0.112   8.367 -0.9495  1.3921 -1.7723
 7512SOL    HW224790   8.675   0.044   8.385 -0.7435  1.2743 -0.6460
 7513SOL     OW24791   8.944   5.447   2.441 -0.6045  0.3100  0.1119
 7513SOL    HW124792   9.024   5.480   2.399 -0.6742 -0.4858 -0.6904
 7513SOL    HW224793   8.893   5.413   2.368 -1.1064 -0.3626  0.7760
 7514SOL     OW24794   5.313   6.882   2.853  0.2241 -0.1641  0.0927
 7514SOL    HW124795   5.287   6.816   2.789 -1.1486 -0.3068  0.7569
 7514SOL    HW224796   5.245   6.877   2.921  0.6140  1.2832  0.6161
 7515SOL     OW24797   5.909   0.461   0.094 -0.1111  0.4733 -0.1220
 7515SOL    HW124798   5.956   0.542   0.075 -1.1140  1.0639 -0.1495
 7515SOL    HW224799   5.971   0.409   0.145 -0.1970  2.1830  1.8646
 7516SOL     OW24800   5.297   8.889   6.604  0.0848  0.3454 -0.1537
 7516SOL    HW124801   5.340   8.835   6.537  0.5237  0.7748 -0.2272
 7516SOL    HW224802   5.210   8.907   6.568  0.4250  0.8273 -0.7562
 7517SOL     OW24803   8.261   5.372  10.559 -0.3292 -0.4923  0.1359
 7517SOL    HW124804   8.313   5.304  10.518  0.5600 -1.2270  2.3492
 7517SOL    HW224805   8.171   5.338  10.558 -0.2437 -0.7160 -0.6677
 7518SOL     OW24806  10.052   8.552   2.175 -0.0854 -0.0779 -0.2711
 7518SOL    HW124807  10.122   8.504   2.129  0.5471  0.1022  0.4941
 7518SOL    HW224808   9.978   8.491   2.176 -0.0842 -0.1215 -1.4457
 7519SOL     OW24809   5.204   4.384   8.965  0.0412  0.5098 -0.4856
 7519SOL    HW124810   5.136   4.452   8.970  0.0151  0.6980 -2.6483
 7519SOL    HW224811   5.155   4.302   8.964  0.0763  0.3352  2.2702
 7520SOL     OW24812   8.845   2.734   5.046  0.4628  0.1507 -0.4580
 7520SOL    HW124813   8.923   2.724   5.101  1.0436  0.2993 -1.2507
 7520SOL    HW224814   8.804   2.815   5.078  1.2020  0.6455 -0.7280
 7521SOL     OW24815   8.373   5.478   3.705  0.1702  0.0584  0.2215
 7521SOL    HW124816   8.323   5.405   3.742 -0.9081  1.0352  0.7471
 7521SOL    HW224817   8.401   5.446   3.619  0.7446 -1.3963  0.9186
 7522SOL     OW24818   3.464   3.611   1.489  0.3545  0.0216 -0.0763
 7522SOL    HW124819   3.482   3.683   1.549 -0.9739  1.6503 -1.5342
 7522SOL    HW224820   3.369   3.603   1.488  0.4231 -0.9511 -0.8553
 7523SOL     OW24821   4.727   7.591   7.100  0.3021 -0.1123  0.2660
 7523SOL    HW124822   4.645   7.592   7.051  0.6114  0.8259 -0.2627
 7523SOL    HW224823   4.795   7.611   7.035  0.8402  0.1081  0.8760
 7524SOL     OW24824   7.585   7.648   5.243 -0.3847  0.3102 -0.3851
 7524SOL    HW124825   7.575   7.642   5.148  0.0454 -0.0232 -0.4123
 7524SOL    HW224826   7.657   7.710   5.256  0.0884 -0.2564 -0.2990
 7525SOL     OW24827   9.331   2.006   4.616 -0.8659 -0.3346  0.2181
 7525SOL    HW124828   9.289   1.974   4.696 -0.1197  0.0268  0.7685
 7525SOL    HW224829   9.262   2.003   4.550 -1.7808  0.2855  1.1025
 7526SOL     OW24830   0.880   0.942   4.113 -0.2675 -0.1117  0.2231
 7526SOL    HW124831   0.818   1.014   4.124 -0.9666 -0.4019 -1.5774
 7526SOL    HW224832   0.826   0.865   4.095  0.5774 -0.5093 -0.6841
 7527SOL     OW24833   5.492   1.728   6.764 -0.2192 -0.3608  0.7718
 7527SOL    HW124834   5.538   1.810   6.745 -1.1356  0.0894  0.4204
 7527SOL    HW224835   5.560   1.661   6.763  0.4806  0.3405  0.6409
 7528SOL     OW24836   6.481  10.198  10.258 -0.1670 -0.2788  0.4099
 7528SOL    HW124837   6.418  10.139  10.300 -0.9282  0.9017  0.9772
 7528SOL    HW224838   6.557  10.142  10.238 -0.8503 -1.4321  0.9505
 7529SOL     OW24839   8.322   1.695   5.674  0.7522 -0.4582 -0.1508
 7529SOL    HW124840   8.361   1.611   5.698  0.8565 -0.2761  0.3090
 7529SOL    HW224841   8.350   1.709   5.583  0.6240 -0.9818 -0.2788
 7530SOL     OW24842   6.425   3.566   1.357  0.1897 -0.1877 -0.0878
 7530SOL    HW124843   6.440   3.473   1.342  1.6451  0.0819 -0.4726
 7530SOL    HW224844   6.457   3.582   1.445 -1.7216 -0.3686  0.6881
 7531SOL     OW24845   2.897   3.265   9.383  0.4490  0.1912  0.2455
 7531SOL    HW124846   2.896   3.357   9.356 -0.8159  0.2102  0.2629
 7531SOL    HW224847   2.913   3.216   9.302  0.6546  0.4173  0.1504
 7532SOL     OW24848   6.722   2.097   5.282  0.1362 -0.1833  0.3139
 7532SOL    HW124849   6.651   2.048   5.241  0.8715 -1.8992  1.0310
 7532SOL    HW224850   6.757   2.038   5.348  3.1567  0.0334 -0.9429
 7533SOL     OW24851   3.509   4.070   4.068 -0.6723  0.0582  0.2061
 7533SOL    HW124852   3.422   4.074   4.027 -0.9672  0.1725  0.8325
 7533SOL    HW224853   3.529   3.976   4.071 -0.0698  0.1008 -1.3681
 7534SOL     OW24854  10.465   3.295   4.226  0.0065  0.0420  0.5339
 7534SOL    HW124855  10.390   3.355   4.220 -0.4744 -0.5842  0.1582
 7534SOL    HW224856  10.460   3.261   4.316 -1.4941 -1.6598 -0.1269
 7535SOL     OW24857   8.564  10.286   2.996 -0.1561 -0.2708 -0.0796
 7535SOL    HW124858   8.547  10.204   2.950 -1.1292  0.8628 -1.8735
 7535SOL    HW224859   8.496  10.346   2.964  1.1458  1.5265  0.3534
 7536SOL     OW24860   0.666   9.310   6.054 -0.3178 -0.3155  0.2205
 7536SOL    HW124861   0.685   9.302   5.961  1.7861  1.3313  0.4399
 7536SOL    HW224862   0.597   9.245   6.070 -1.2812 -0.1306 -2.6032
 7537SOL     OW24863   3.388   9.319   1.580 -0.0462  0.5313 -0.5119
 7537SOL    HW124864   3.313   9.323   1.640  1.0395  0.1716  0.9325
 7537SOL    HW224865   3.427   9.406   1.586  1.3926 -0.1589  1.1649
 7538SOL     OW24866  10.234   2.172   3.659  0.0240 -0.2225 -0.1724
 7538SOL    HW124867  10.165   2.216   3.610  0.7852  0.5616 -0.5763
 7538SOL    HW224868  10.202   2.083   3.672 -1.5008  0.4076  0.5576
 7539SOL     OW24869   7.716   4.889   1.113 -0.0445  0.1592 -0.1421
 7539SOL    HW124870   7.784   4.906   1.178  0.1962 -0.7563 -0.1285
 7539SOL    HW224871   7.634   4.907   1.159 -0.0010 -2.2310  1.0979
 7540SOL     OW24872   7.716   1.097   4.531 -0.5318  0.4140  0.0937
 7540SOL    HW124873   7.758   1.056   4.455 -1.3597 -2.1008  0.9065
 7540SOL    HW224874   7.631   1.054   4.538 -0.9327  1.3940  1.8046
 7541SOL     OW24875   4.370   7.723   0.268  0.7605 -0.3128 -0.5648
 7541SOL    HW124876   4.449   7.698   0.221  0.4280  0.2421 -1.4566
 7541SOL    HW224877   4.400   7.780   0.338  1.0764  0.7449 -1.5360
 7542SOL     OW24878   1.504   0.673   6.666  0.5306  0.4906  0.0776
 7542SOL    HW124879   1.540   0.741   6.608 -1.6214  1.5681 -0.0878
 7542SOL    HW224880   1.414   0.661   6.636  0.5078 -1.6343  0.8740
 7543SOL     OW24881   8.079  10.105   6.527 -0.0036 -0.2737  0.2948
 7543SOL    HW124882   7.990  10.136   6.511  0.5479  1.1359 -0.1923
 7543SOL    HW224883   8.102  10.141   6.613  0.3644 -0.0202  0.0893
 7544SOL     OW24884   9.138   6.963   9.530  0.1413  0.3862  0.2675
 7544SOL    HW124885   9.125   6.880   9.484  0.9424  0.6281 -0.4225
 7544SOL    HW224886   9.225   6.956   9.568  0.4989  1.1538 -0.3604
 7545SOL     OW24887   1.661   5.751  10.251  0.8217  0.3378 -0.9282
 7545SOL    HW124888   1.686   5.701  10.329 -0.1213  1.3641  0.0639
 7545SOL    HW224889   1.626   5.685  10.191 -1.4809 -0.1338  0.8083
 7546SOL     OW24890   8.341   7.896   7.345  0.3949  0.0167 -0.1459
 7546SOL    HW124891   8.398   7.893   7.422 -0.2529  1.1410  0.3986
 7546SOL    HW224892   8.298   7.810   7.344 -0.6330  0.4589  1.5961
 7547SOL     OW24893   7.578   5.338   5.418  0.5453 -0.0112  0.4009
 7547SOL    HW124894   7.609   5.401   5.483 -0.4311 -0.6529  1.5292
 7547SOL    HW224895   7.490   5.314   5.448  1.3418 -2.8247  0.7022
 7548SOL     OW24896   4.124   7.723   4.191  0.7870 -0.2337 -0.3786
 7548SOL    HW124897   4.066   7.647   4.182 -0.2012  0.3513  0.7895
 7548SOL    HW224898   4.192   7.708   4.126  0.5691 -2.0772 -0.2476
 7549SOL     OW24899   3.065   9.166   8.965  0.9881 -0.5503 -0.1312
 7549SOL    HW124900   3.065   9.261   8.972  1.5139 -0.5749  0.2481
 7549SOL    HW224901   3.157   9.142   8.963  0.8971 -1.1636  1.4105
 7550SOL     OW24902   6.749   2.002   6.024  0.0940  0.4333 -0.0298
 7550SOL    HW124903   6.726   2.036   6.111 -2.3309  1.9931 -1.1927
 7550SOL    HW224904   6.788   2.077   5.979 -0.5742  0.2331 -0.9529
 7551SOL     OW24905   1.108  10.632   3.645 -0.3204 -0.3303  0.0816
 7551SOL    HW124906   1.021  10.659   3.614 -0.9485 -1.3277  0.9046
 7551SOL    HW224907   1.098  10.623   3.740  0.6457 -0.6132  0.1697
 7552SOL     OW24908   5.546   2.261   4.550 -0.1887  0.5597 -0.3496
 7552SOL    HW124909   5.509   2.221   4.629  1.0374 -0.5621 -0.3038
 7552SOL    HW224910   5.562   2.187   4.492  0.9135  1.1267 -0.7901
 7553SOL     OW24911   6.832   8.227   7.998 -0.0096 -0.1034 -0.6757
 7553SOL    HW124912   6.926   8.238   7.981  0.2989 -0.2679  0.7488
 7553SOL    HW224913   6.826   8.226   8.094 -1.6053  1.0419 -0.7242
 7554SOL     OW24914  10.404   9.273   3.676  0.1416 -0.7065  0.4753
 7554SOL    HW124915  10.382   9.180   3.682 -0.6258 -0.6203 -0.6218
 7554SOL    HW224916  10.356   9.304   3.599  1.1234  0.3888  0.2739
 7555SOL     OW24917   1.078   2.574   0.863  0.0395 -0.0338  0.4927
 7555SOL    HW124918   1.120   2.659   0.847  0.0256  0.0599  0.9492
 7555SOL    HW224919   1.144   2.510   0.837 -0.0906  0.1132 -0.2188
 7556SOL     OW24920   3.837   7.853   2.594 -0.6093 -0.0198 -0.5452
 7556SOL    HW124921   3.895   7.903   2.537 -1.7437  1.8436 -0.1412
 7556SOL    HW224922   3.824   7.770   2.547 -1.1598  1.2544 -2.8353
 7557SOL     OW24923   6.577   3.940   6.269 -0.3133 -0.0968 -0.1269
 7557SOL    HW124924   6.658   3.981   6.238 -0.3478  0.5066  0.5630
 7557SOL    HW224925   6.552   3.881   6.198 -1.0795  2.1583 -1.8791
 7558SOL     OW24926   5.011   6.207   5.981  0.0785 -0.7192  0.7567
 7558SOL    HW124927   4.994   6.278   6.043 -1.6953 -1.4684  1.1832
 7558SOL    HW224928   5.104   6.188   5.993  0.4113  0.9843  1.1979
 7559SOL     OW24929   8.830   3.153   1.234  0.1725  0.1330 -0.0378
 7559SOL    HW124930   8.870   3.150   1.321  0.7530 -0.3307 -0.3133
 7559SOL    HW224931   8.801   3.244   1.223  2.1681  0.7792 -0.2771
 7560SOL     OW24932   4.848   3.889   7.037  0.1475  0.3612  0.0509
 7560SOL    HW124933   4.845   3.842   6.953 -1.1905  1.2356 -0.4458
 7560SOL    HW224934   4.796   3.835   7.096 -0.0150  0.3948 -0.0595
 7561SOL     OW24935   9.054  10.399   9.739 -0.5083  0.3068 -0.1521
 7561SOL    HW124936   9.087  10.489   9.732 -1.8972  0.8574 -0.0504
 7561SOL    HW224937   9.115  10.347   9.686  0.7940  1.1581  0.4513
 7562SOL     OW24938   7.394   5.081  10.365 -0.2190  0.0574  0.2864
 7562SOL    HW124939   7.380   5.009  10.303 -0.9820  0.4852 -0.0487
 7562SOL    HW224940   7.369   5.160  10.317  1.6421  0.6828  0.2912
 7563SOL     OW24941   8.438   3.726   0.048 -0.1166  0.0314  0.6233
 7563SOL    HW124942   8.437   3.771   0.132  0.9749 -1.5173  1.5191
 7563SOL    HW224943   8.510   3.766  -0.001  0.0441  0.0973  0.9151
 7564SOL     OW24944   0.923   4.933   4.457  0.5073 -0.5716  0.1361
 7564SOL    HW124945   0.894   4.954   4.546 -0.6712  0.1620 -0.4066
 7564SOL    HW224946   0.942   4.839   4.460 -2.3532 -1.2238  0.4573
 7565SOL     OW24947   4.700   9.032   5.315 -0.6784 -0.3914 -0.4097
 7565SOL    HW124948   4.711   9.039   5.410 -0.7365 -0.1451 -0.4215
 7565SOL    HW224949   4.685   8.938   5.300 -0.2897 -0.4892 -0.2163
 7566SOL     OW24950   5.600   2.542   0.172  0.2946  0.1314  0.5547
 7566SOL    HW124951   5.673   2.515   0.226  0.8157 -0.8636 -0.5890
 7566SOL    HW224952   5.527   2.554   0.234  0.8735 -0.9110  1.4812
 7567SOL     OW24953   6.140   4.621   8.457  0.0128 -0.2283 -0.1503
 7567SOL    HW124954   6.049   4.646   8.473  0.5865  0.6059  2.2064
 7567SOL    HW224955   6.177   4.695   8.409 -0.1446  0.1611  0.3232
 7568SOL     OW24956   8.579   5.679   2.869  0.7577 -0.1198  0.2288
 7568SOL    HW124957   8.660   5.726   2.886  1.2876 -0.8794 -0.1603
 7568SOL    HW224958   8.598   5.588   2.892  1.0687 -0.9462 -2.8376
 7569SOL     OW24959   6.858   4.462   5.117  0.3090  0.2864  0.1982
 7569SOL    HW124960   6.824   4.487   5.031 -0.8230  0.6112  0.7167
 7569SOL    HW224961   6.908   4.538   5.146 -0.4074  0.7002  0.3757
 7570SOL     OW24962   7.922   1.642   0.733  0.4171  0.1989 -0.2164
 7570SOL    HW124963   7.854   1.587   0.772 -0.1403  0.8185 -0.2946
 7570SOL    HW224964   7.968   1.680   0.808  0.7928 -0.3443 -0.1620
 7571SOL     OW24965   4.107   2.177   2.571  0.2478  0.0230  0.1556
 7571SOL    HW124966   4.026   2.136   2.542  0.4786 -0.1611 -0.2323
 7571SOL    HW224967   4.173   2.107   2.568  1.0555  0.7907 -2.2340
 7572SOL     OW24968   4.853  10.189   5.106  0.4854  0.3108 -0.3519
 7572SOL    HW124969   4.813  10.245   5.172 -1.5364 -1.5953  0.1760
 7572SOL    HW224970   4.795  10.197   5.030 -0.1541 -1.3884 -0.0809
 7573SOL     OW24971   6.615   8.281   5.150 -0.5685 -0.0132  0.0002
 7573SOL    HW124972   6.531   8.238   5.133  0.2734 -2.1557  0.8766
 7573SOL    HW224973   6.661   8.221   5.209  2.0336  0.5278 -1.3263
 7574SOL     OW24974  10.203   2.230  10.400 -0.2839 -0.3859 -0.1397
 7574SOL    HW124975  10.256   2.158  10.367  0.5262  0.1847 -0.1104
 7574SOL    HW224976  10.266   2.296  10.429 -0.8956  1.8034 -3.2465
 7575SOL     OW24977   6.087   9.022   5.063 -0.2669 -0.2857  0.0722
 7575SOL    HW124978   6.076   8.982   5.149  0.0270  1.6749  1.0799
 7575SOL    HW224979   6.182   9.037   5.056 -0.4203  0.7474  0.0062
 7576SOL     OW24980   9.498   8.816   1.052 -0.4601  0.0827  0.2247
 7576SOL    HW124981   9.584   8.784   1.026 -0.1117  1.1629  0.0021
 7576SOL    HW224982   9.508   8.836   1.145  0.4085  2.8741 -0.3935
 7577SOL     OW24983   7.240   5.178   6.376 -0.3160 -0.1769 -0.3048
 7577SOL    HW124984   7.159   5.128   6.366 -0.5851  0.0218  0.8002
 7577SOL    HW224985   7.211   5.266   6.399  0.2087 -0.5533  2.0633
 7578SOL     OW24986   5.189   9.226   3.824  0.1995  0.5332  0.2192
 7578SOL    HW124987   5.190   9.241   3.729  0.6038  0.4897  0.2149
 7578SOL    HW224988   5.128   9.154   3.836  3.1722 -2.3435 -0.4469
 7579SOL     OW24989   3.526   8.238   2.557  0.5830 -0.3049 -0.0384
 7579SOL    HW124990   3.500   8.200   2.473 -3.3418  0.3427  0.7189
 7579SOL    HW224991   3.577   8.315   2.533  2.5737 -1.9982 -1.6711
 7580SOL     OW24992   8.251  10.418   3.555 -0.7197  0.1506 -0.0995
 7580SOL    HW124993   8.259  10.505   3.596 -1.9461  1.1408 -1.8272
 7580SOL    HW224994   8.278  10.433   3.464 -0.8873 -1.3205 -0.4075
 7581SOL     OW24995   4.462   3.160   7.395 -0.4000  0.4766  0.0620
 7581SOL    HW124996   4.421   3.073   7.396 -1.4047  0.9360  0.2275
 7581SOL    HW224997   4.555   3.143   7.409 -0.6206 -0.5502  0.3695
 7582SOL     OW24998  10.226   5.383   9.418  0.6460  0.4436  0.4237
 7582SOL    HW124999  10.253   5.454   9.476  1.1313  0.1302  0.5829
 7582SOL    HW225000  10.155   5.339   9.466 -1.4752  2.3622 -0.7559
 7583SOL     OW25001   9.748   0.973   4.111  0.4182  0.3848 -0.6303
 7583SOL    HW125002   9.676   1.020   4.154  0.1297  0.3617 -1.0894
 7583SOL    HW225003   9.712   0.887   4.090 -0.0358  0.9813 -2.5267
 7584SOL     OW25004   2.516   4.130  10.545 -1.1667 -0.2703  0.4087
 7584SOL    HW125005   2.502   4.118  10.639 -1.8594 -0.5839  0.2762
 7584SOL    HW225006   2.542   4.043  10.514 -1.5631 -0.3253  0.2145
 7585SOL     OW25007   5.527   0.668   6.686 -0.3127 -0.9677 -0.3531
 7585SOL    HW125008   5.447   0.617   6.674 -0.2998 -0.7712 -1.3533
 7585SOL    HW225009   5.558   0.686   6.598 -0.6747  1.3365 -0.0804
 7586SOL     OW25010   8.860   4.066   9.870 -0.1071  0.3250  0.1064
 7586SOL    HW125011   8.879   3.998   9.806 -0.4852 -0.0068  0.3383
 7586SOL    HW225012   8.767   4.086   9.856  0.5323  2.5162 -1.5961
 7587SOL     OW25013   7.203   8.583   5.589 -0.1809 -0.1382  0.0523
 7587SOL    HW125014   7.192   8.619   5.501 -1.4021  2.9939  1.3561
 7587SOL    HW225015   7.298   8.586   5.603  0.0442 -0.7634 -1.1551
 7588SOL     OW25016   9.834   8.885   5.826  0.3145  0.4341 -0.2935
 7588SOL    HW125017   9.792   8.907   5.909 -0.4994 -1.4237 -0.1626
 7588SOL    HW225018   9.923   8.859   5.850  0.2774  0.5079 -0.0773
 7589SOL     OW25019   5.600   9.707   4.643  0.0056 -0.1941 -0.0461
 7589SOL    HW125020   5.522   9.667   4.681 -1.1897 -1.1007 -3.1448
 7589SOL    HW225021   5.607   9.667   4.556  2.8275  1.2997 -0.6112
 7590SOL     OW25022   4.422   4.622   6.956 -0.0104 -0.0296 -0.0340
 7590SOL    HW125023   4.512   4.652   6.943 -0.2723  0.9202  0.2438
 7590SOL    HW225024   4.376   4.699   6.990 -0.7928 -0.6727  0.3877
 7591SOL     OW25025   2.411   8.572   7.528  0.2925 -0.2905  0.0456
 7591SOL    HW125026   2.462   8.567   7.448 -0.0465 -0.6544 -0.1540
 7591SOL    HW225027   2.436   8.493   7.577  1.7952  0.7963  1.0972
 7592SOL     OW25028  10.254   1.096   1.208 -0.4415  0.3011  0.1837
 7592SOL    HW125029  10.286   1.031   1.145  0.5247  1.4635 -0.5687
 7592SOL    HW225030  10.282   1.180   1.172 -1.1254  1.1005  1.4506
 7593SOL     OW25031   5.323   7.761   7.121 -0.3972 -0.5357  0.0599
 7593SOL    HW125032   5.331   7.732   7.212  0.9810  1.5046  0.6762
 7593SOL    HW225033   5.228   7.770   7.107 -0.6137  0.4006  1.7777
 7594SOL     OW25034   6.684   8.019   0.095  0.2010 -0.0267 -0.5209
 7594SOL    HW125035   6.675   8.102   0.141  0.7896  0.2677 -0.9269
 7594SOL    HW225036   6.767   8.027   0.047  1.8884 -2.0469  1.8484
 7595SOL     OW25037   9.051   9.632   9.742  0.1976 -0.3213  0.1605
 7595SOL    HW125038   9.008   9.714   9.767 -0.0979 -1.0700  2.3296
 7595SOL    HW225039   9.092   9.602   9.823 -0.5675 -2.8273 -0.3212
 7596SOL     OW25040   2.242   6.415   5.971 -0.3444  0.5292  0.4300
 7596SOL    HW125041   2.197   6.442   5.891 -2.0473  0.3141  1.2811
 7596SOL    HW225042   2.238   6.319   5.970  4.2210  0.1209 -1.7502
 7597SOL     OW25043   8.747   1.531   6.747  0.3138  0.1117  0.1423
 7597SOL    HW125044   8.810   1.526   6.674  0.0024  0.1086 -0.1278
 7597SOL    HW225045   8.672   1.480   6.717  0.1465  0.1891  0.4304
 7598SOL     OW25046   0.672   0.159   8.839  0.1627  0.3551  0.0743
 7598SOL    HW125047   0.726   0.114   8.775 -0.1382 -0.1340  0.1580
 7598SOL    HW225048   0.669   0.099   8.914 -0.0291  0.6290  0.2863
 7599SOL     OW25049   7.660   2.288   7.591 -0.4992 -0.2002 -0.1524
 7599SOL    HW125050   7.633   2.379   7.577  0.1744  0.4991  2.4306
 7599SOL    HW225051   7.579   2.241   7.608 -0.9922 -0.4402 -2.8030
 7600SOL     OW25052   3.796  10.472   6.983 -0.3397 -0.5624 -0.2838
 7600SOL    HW125053   3.767  10.381   6.979 -2.1549 -0.0128 -0.2976
 7600SOL    HW225054   3.761  10.504   7.066  2.0300 -0.4065  0.7384
 7601SOL     OW25055   6.725   1.060   5.937  0.7074  0.0508 -0.2595
 7601SOL    HW125056   6.723   1.089   6.029 -1.9667  0.0705 -0.2434
 7601SOL    HW225057   6.802   1.103   5.900  0.3919  2.1773  1.3365
 7602SOL     OW25058  10.236  10.454   1.912  0.3564  0.0196  0.0444
 7602SOL    HW125059  10.280  10.525   1.865  0.9658 -0.1265  0.3812
 7602SOL    HW225060  10.307  10.407   1.957  0.2729 -2.1479 -1.8971
 7603SOL     OW25061   4.992   4.771  10.115  0.1929 -0.2954 -0.2465
 7603SOL    HW125062   4.939   4.767  10.194 -0.0671 -1.0982 -0.4500
 7603SOL    HW225063   5.077   4.802  10.144 -0.3899  1.0395  0.0807
 7604SOL     OW25064   4.083   1.637   5.321  0.0651 -0.1738  0.0866
 7604SOL    HW125065   4.081   1.573   5.392 -0.8913 -1.1235 -0.7654
 7604SOL    HW225066   4.113   1.588   5.245  0.8968  0.7902 -0.2338
 7605SOL     OW25067   4.880   8.746   4.020 -0.7722  0.4646 -0.2402
 7605SOL    HW125068   4.793   8.721   3.986 -0.9351 -0.3667  0.7604
 7605SOL    HW225069   4.866   8.759   4.114  0.3984 -0.6861  0.1142
 7606SOL     OW25070   3.923   7.194   3.724 -0.0673 -0.7002  0.4079
 7606SOL    HW125071   3.869   7.140   3.666 -1.5234  1.5092 -0.3950
 7606SOL    HW225072   3.932   7.277   3.678  3.6733 -0.7651  0.7490
 7607SOL     OW25073  10.569   1.092   1.011  0.8248 -0.2006  0.3691
 7607SOL    HW125074  10.628   1.154   1.053 -1.7046  1.0386  2.3658
 7607SOL    HW225075  10.512   1.145   0.955  0.0417 -0.9876  0.3803
 7608SOL     OW25076   7.664   3.946   0.996 -0.5352 -0.6754 -0.2196
 7608SOL    HW125077   7.637   4.018   0.939 -0.7872 -0.6516 -0.0732
 7608SOL    HW225078   7.728   3.897   0.944 -0.8005 -0.6847 -0.5454
 7609SOL     OW25079   2.440   5.132   7.830 -0.1593  0.0077  0.1809
 7609SOL    HW125080   2.449   5.059   7.769  0.5869  0.0124  0.2738
 7609SOL    HW225081   2.353   5.121   7.868  0.6501 -2.0470  1.6807
 7610SOL     OW25082   4.443   8.329   3.338  0.3443  0.2658 -0.1068
 7610SOL    HW125083   4.394   8.298   3.414  1.2908 -2.3721 -0.4812
 7610SOL    HW225084   4.439   8.425   3.345 -1.1888  0.1203  2.1901
 7611SOL     OW25085   8.032   2.355   7.261  0.0302 -0.2764 -0.0777
 7611SOL    HW125086   8.032   2.284   7.325 -0.7051 -1.2060 -1.0717
 7611SOL    HW225087   7.958   2.411   7.286  0.2469 -0.1883  0.3618
 7612SOL     OW25088   0.619   5.796   9.430  0.3594 -0.1497 -0.3812
 7612SOL    HW125089   0.586   5.881   9.403  0.2792 -0.9692 -3.1237
 7612SOL    HW225090   0.661   5.760   9.352  1.9370 -1.9270  1.1614
 7613SOL     OW25091   9.720   4.448   1.137  0.6073 -0.3014 -0.4888
 7613SOL    HW125092   9.649   4.445   1.073  0.0544 -0.2903  0.1115
 7613SOL    HW225093   9.702   4.375   1.197 -2.0474  2.7362  2.8819
 7614SOL     OW25094   6.902   9.512   2.624 -0.1423  0.6005  0.1229
 7614SOL    HW125095   6.859   9.575   2.681 -1.3082 -0.4342  0.4187
 7614SOL    HW225096   6.992   9.544   2.617  0.5948 -0.1689  3.9919
 7615SOL     OW25097   1.258   8.775   5.986  0.9167  0.6998 -0.0144
 7615SOL    HW125098   1.180   8.722   6.001  0.8844  0.7081 -0.1462
 7615SOL    HW225099   1.247   8.851   6.043  1.2027  0.3253  0.5452
 7616SOL     OW25100   1.449   7.707   9.307  0.3803 -0.4560 -0.2533
 7616SOL    HW125101   1.518   7.670   9.362 -0.8249 -1.5770  0.5590
 7616SOL    HW225102   1.494   7.733   9.226  2.1432  0.9503  1.0877
 7617SOL     OW25103  10.592   0.268   9.007 -0.4492  0.0790  0.3635
 7617SOL    HW125104  10.508   0.236   9.039 -1.6265  0.0687 -2.4969
 7617SOL    HW225105  10.572   0.309   8.923  2.4020  0.0816 -0.4150
 7618SOL     OW25106   0.856   4.890   6.005  0.0578 -0.2328 -0.0734
 7618SOL    HW125107   0.769   4.850   5.996 -1.8771  3.0496  1.8683
 7618SOL    HW225108   0.869   4.938   5.924 -1.3219  1.4407  0.6176
 7619SOL     OW25109   3.225   9.377   7.103  0.0082 -0.2161 -0.5140
 7619SOL    HW125110   3.197   9.376   7.012 -0.8857  0.8861 -0.2664
 7619SOL    HW225111   3.200   9.464   7.136  2.3343  0.2817  0.1540
 7620SOL     OW25112   9.930  10.118   6.611 -0.3144 -0.2218 -0.5475
 7620SOL    HW125113   9.861  10.180   6.632  1.1045  1.0938  0.5461
 7620SOL    HW225114   9.922  10.102   6.517 -2.9784 -1.3005 -0.2180
 7621SOL     OW25115   3.344   9.228   0.241 -0.3301  0.5352 -0.3916
 7621SOL    HW125116   3.392   9.236   0.323 -2.4184  0.7024  0.8751
 7621SOL    HW225117   3.395   9.166   0.189  0.9629  0.3177  1.0770
 7622SOL     OW25118  10.345   4.634   9.271  0.2673 -0.2006  0.3204
 7622SOL    HW125119  10.412   4.596   9.214  0.3113  0.3678 -0.0096
 7622SOL    HW225120  10.387   4.710   9.312 -0.0966  0.0174  0.2985
 7623SOL     OW25121   8.557   2.032   7.205 -0.1641  0.3054 -0.2726
 7623SOL    HW125122   8.648   2.005   7.211 -0.2604  0.1408  0.6018
 7623SOL    HW225123   8.527   2.035   7.296 -0.7375  1.3752 -0.4815
 7624SOL     OW25124  10.518   5.997   4.772  0.1294 -0.2608  0.0314
 7624SOL    HW125125  10.583   5.955   4.828  1.4848  1.4676 -0.1448
 7624SOL    HW225126  10.501   6.081   4.815  0.3227  0.6030 -1.4911
 7625SOL     OW25127   1.336   0.003   8.353 -0.1630 -0.0879 -0.1404
 7625SOL    HW125128   1.344   0.067   8.424 -0.9474  0.1668 -0.2643
 7625SOL    HW225129   1.323   0.057   8.275 -0.0374 -0.3823 -0.3615
 7626SOL     OW25130   0.543   1.990   9.494  0.1970 -0.5530  0.0777
 7626SOL    HW125131   0.501   2.057   9.548 -0.7808 -0.2501 -1.0162
 7626SOL    HW225132   0.486   1.914   9.501 -0.3423 -0.2805 -1.0743
 7627SOL     OW25133   6.190   0.611  10.517 -0.0501 -0.4094  0.7705
 7627SOL    HW125134   6.188   0.516  10.521 -0.5906 -0.4685 -0.4073
 7627SOL    HW225135   6.242   0.631  10.439 -1.0264  0.2199  0.2590
 7628SOL     OW25136   3.200   5.411   8.078 -0.3593 -0.1999 -0.2969
 7628SOL    HW125137   3.122   5.436   8.128  1.2388  1.1115  1.7083
 7628SOL    HW225138   3.231   5.331   8.121 -0.6020 -0.7710 -1.1478
 7629SOL     OW25139   7.133   8.962   0.957  0.5466 -1.1537 -0.0714
 7629SOL    HW125140   7.121   8.963   1.052  2.5070  2.1553  0.3262
 7629SOL    HW225141   7.053   9.002   0.922  0.2004 -1.5422  0.2681
 7630SOL     OW25142   3.837   4.686   3.345 -0.0705  0.3941  0.0002
 7630SOL    HW125143   3.932   4.699   3.345 -0.2733  2.0564 -0.2217
 7630SOL    HW225144   3.826   4.595   3.316  1.5147 -0.7727  2.6055
 7631SOL     OW25145   0.587  10.636   1.386  0.0010  0.2492  0.3850
 7631SOL    HW125146   0.584  10.557   1.440 -1.0842  0.6814  0.9903
 7631SOL    HW225147   0.535  10.700   1.435  0.2472  1.1063 -0.4571
 7632SOL     OW25148   2.975   1.861   4.266  0.5507 -0.5874  1.2088
 7632SOL    HW125149   2.996   1.935   4.323 -0.7879  0.1960  0.7232
 7632SOL    HW225150   2.907   1.812   4.314 -2.1198  1.2075 -0.4738
 7633SOL     OW25151   2.210   2.118   1.050  0.1380  0.3465 -0.0828
 7633SOL    HW125152   2.212   2.136   1.144 -2.1564  1.1035 -0.1083
 7633SOL    HW225153   2.185   2.026   1.043  3.5998 -0.7472 -0.0208
 7634SOL     OW25154   9.668   1.390   1.671  0.3004 -0.7173  0.0767
 7634SOL    HW125155   9.731   1.454   1.636 -0.1394 -0.4913 -0.3136
 7634SOL    HW225156   9.669   1.318   1.608 -1.8557  0.4901 -1.4840
 7635SOL     OW25157   7.425   6.018   9.045  0.4774  0.0089 -0.3889
 7635SOL    HW125158   7.428   5.948   8.979  1.3780 -0.8073  0.4956
 7635SOL    HW225159   7.337   6.013   9.081  0.3249 -0.2365 -0.7887
 7636SOL     OW25160  10.142   7.733   4.056  0.3774  0.2818  0.8383
 7636SOL    HW125161  10.212   7.706   3.997 -0.3915  1.4488 -0.6921
 7636SOL    HW225162  10.070   7.757   3.998 -0.2631  1.9395  2.2192
 7637SOL     OW25163   9.968   8.041   9.014 -0.2328  0.3132  0.7951
 7637SOL    HW125164   9.953   7.976   9.082  0.3258 -0.0698  0.5659
 7637SOL    HW225165  10.007   8.116   9.059  0.4752 -0.0807  0.8475
 7638SOL     OW25166   7.560   1.880   5.130  0.2710  0.2310  0.1664
 7638SOL    HW125167   7.574   1.959   5.183 -0.7081  0.9373 -0.5864
 7638SOL    HW225168   7.475   1.894   5.088 -0.0831 -1.3828  0.2635
 7639SOL     OW25169   5.795   0.988  10.589  0.5180 -0.4036  0.2164
 7639SOL    HW125170   5.704   0.965  10.610  0.0931 -0.0581 -1.1481
 7639SOL    HW225171   5.844   0.907  10.603 -0.0035 -0.6210  0.8572
 7640SOL     OW25172  10.019   9.967   5.305  0.1284 -0.4110  0.1080
 7640SOL    HW125173   9.992   9.881   5.336  0.7841 -1.0231 -0.9817
 7640SOL    HW225174   9.950   9.993   5.244 -1.1183  0.7578  1.9006
 7641SOL     OW25175   8.203   5.315   7.206 -0.1158  0.2024  0.8039
 7641SOL    HW125176   8.251   5.328   7.124  1.4794  2.3519  1.9867
 7641SOL    HW225177   8.112   5.335   7.183  0.1991  0.1553 -0.5728
 7642SOL     OW25178   3.548   2.045   2.774  0.9550 -0.0861  0.0919
 7642SOL    HW125179   3.572   2.137   2.784 -1.1931  0.5351  0.0279
 7642SOL    HW225180   3.507   2.022   2.857 -1.6613  0.1170 -1.0309
 7643SOL     OW25181   4.507   4.771   6.090 -0.1376  0.0736 -0.1511
 7643SOL    HW125182   4.580   4.767   6.152  0.9411 -0.9979 -1.4262
 7643SOL    HW225183   4.504   4.863   6.063  1.8326 -0.1309 -1.2713
 7644SOL     OW25184   4.296   0.381  10.346  0.6213  0.0242  0.3821
 7644SOL    HW125185   4.379   0.344  10.374  0.7957  0.4833  0.4959
 7644SOL    HW225186   4.283   0.349  10.257  1.0557  0.1639  0.2647
 7645SOL     OW25187   7.026   7.148   8.744  0.8263  0.0099  0.8789
 7645SOL    HW125188   7.088   7.091   8.699  0.4136 -0.1066  0.4574
 7645SOL    HW225189   7.037   7.233   8.701 -2.1089 -0.8639 -2.0391
 7646SOL     OW25190   1.079   8.593   3.398  0.1540 -0.2355  0.0443
 7646SOL    HW125191   1.057   8.657   3.331  0.7601 -0.1796 -0.1092
 7646SOL    HW225192   1.129   8.526   3.352 -0.3536 -0.7499  0.2319
 7647SOL     OW25193   4.026   0.366   3.044  0.5724  0.0034  0.7358
 7647SOL    HW125194   3.962   0.308   3.086 -0.6853  0.3224 -0.6550
 7647SOL    HW225195   3.985   0.452   3.044  1.3658  0.3915  0.5593
 7648SOL     OW25196   3.605   7.378   4.023  0.1697  0.1357 -0.0495
 7648SOL    HW125197   3.541   7.445   4.049 -0.6036  0.0178 -1.5369
 7648SOL    HW225198   3.589   7.305   4.083  2.2645  1.8320  2.8605
 7649SOL     OW25199  10.414   8.931   2.952  0.2972  0.6344  0.1986
 7649SOL    HW125200  10.421   8.837   2.939 -0.8755  0.1917  2.2357
 7649SOL    HW225201  10.329   8.943   2.994  0.1234  2.6885 -0.6299
 7650SOL     OW25202   2.918   4.901   7.795  0.7024  0.2583 -0.1624
 7650SOL    HW125203   2.973   4.971   7.829 -0.2830  0.8954  0.1641
 7650SOL    HW225204   2.977   4.825   7.788  1.0956  0.2616  2.3486
 7651SOL     OW25205   9.428  10.430  10.604 -0.2616 -0.1792 -0.3566
 7651SOL    HW125206   9.395  10.465  10.688 -0.5150 -0.9713 -0.1124
 7651SOL    HW225207   9.484  10.499  10.570  0.2314 -0.0252  0.7030
 7652SOL     OW25208   4.239   8.254   6.900 -0.0807 -0.0177  0.2244
 7652SOL    HW125209   4.303   8.225   6.965 -1.0211 -0.9779  0.7493
 7652SOL    HW225210   4.281   8.328   6.856  1.6115 -0.9403  0.1961
 7653SOL     OW25211   1.684   9.652   8.786  0.5769 -0.4845  0.4128
 7653SOL    HW125212   1.660   9.560   8.801 -0.8789 -0.1804  0.1488
 7653SOL    HW225213   1.744   9.648   8.712 -0.4557 -1.1580 -0.4331
 7654SOL     OW25214   1.375   2.060   6.566 -0.2011 -0.8126  0.3101
 7654SOL    HW125215   1.338   1.977   6.596 -1.4294 -1.1992 -2.0290
 7654SOL    HW225216   1.303   2.104   6.521  0.5799  1.3055  1.0004
 7655SOL     OW25217   0.642   1.036   4.746  0.0785 -0.0553  0.7041
 7655SOL    HW125218   0.704   1.051   4.674 -0.5678  1.5959  0.4517
 7655SOL    HW225219   0.563   1.005   4.703 -0.1648  0.5151  0.7313
 7656SOL     OW25220   3.199   1.872   2.340  0.4157  0.1823 -0.1886
 7656SOL    HW125221   3.256   1.798   2.361  1.3292  0.3459 -1.8596
 7656SOL    HW225222   3.117   1.832   2.311  0.8099 -0.1695 -0.8299
 7657SOL     OW25223   0.827   0.061   2.084  0.2316  0.0775  0.0320
 7657SOL    HW125224   0.743   0.021   2.108  0.0749  0.3142 -0.1132
 7657SOL    HW225225   0.817   0.081   1.991  0.6767 -0.4502 -0.1356
 7658SOL     OW25226   0.335   5.971   4.785  0.0893 -0.4710  0.1822
 7658SOL    HW125227   0.377   6.051   4.817 -0.4724 -0.7500  1.7308
 7658SOL    HW225228   0.403   5.924   4.738  0.9494  0.0288  0.9034
 7659SOL     OW25229   1.149   5.856   5.755 -0.4844 -0.4284 -0.0813
 7659SOL    HW125230   1.057   5.830   5.751 -0.4053 -0.8427  0.7250
 7659SOL    HW225231   1.174   5.844   5.846  0.1955  0.3021 -0.1576
 7660SOL     OW25232   5.408   9.700   9.337  0.2009  0.5525 -0.7837
 7660SOL    HW125233   5.408   9.611   9.372 -0.6964 -0.4540 -3.1415
 7660SOL    HW225234   5.416   9.756   9.415 -1.1775 -1.5073  0.9676
 7661SOL     OW25235   2.461   4.106   6.268 -0.1354 -0.2755  0.4381
 7661SOL    HW125236   2.547   4.133   6.235  1.2082 -3.4023  1.0336
 7661SOL    HW225237   2.399   4.147   6.208  1.8374  0.9348 -0.8926
 7662SOL     OW25238   3.676   7.011   0.215 -0.0594 -0.3331 -0.2121
 7662SOL    HW125239   3.582   6.990   0.218  0.3421 -2.2498  0.0659
 7662SOL    HW225240   3.681   7.102   0.243 -1.8628 -0.1035 -0.5079
 7663SOL     OW25241  10.187   1.596   6.098 -0.0739 -0.6295  0.2503
 7663SOL    HW125242  10.163   1.685   6.123 -0.7272 -0.2879 -1.4351
 7663SOL    HW225243  10.231   1.606   6.014  0.3877 -1.8536  0.3321
 7664SOL     OW25244   6.152   2.053   0.027  0.1460  0.0630 -0.2700
 7664SOL    HW125245   6.139   1.976   0.083 -0.3624 -0.1331 -0.6488
 7664SOL    HW225246   6.092   2.119   0.063  2.0955  1.0447  1.3934
 7665SOL     OW25247   7.483   7.117   8.494 -0.1122  0.1043  0.1766
 7665SOL    HW125248   7.527   7.034   8.512 -0.9368 -0.1146  1.3260
 7665SOL    HW225249   7.550   7.183   8.509 -0.0967 -0.2279  1.7652
 7666SOL     OW25250   6.029   8.447   9.910  0.1996 -0.2140 -0.1681
 7666SOL    HW125251   6.067   8.514   9.967  2.8357 -1.1621 -0.6887
 7666SOL    HW225252   5.992   8.382   9.970  0.9790 -0.1079  0.4461
 7667SOL     OW25253   0.488   6.926   4.917 -0.2091 -0.3203 -0.0411
 7667SOL    HW125254   0.512   6.869   4.989 -1.6804 -1.6487 -0.5596
 7667SOL    HW225255   0.483   7.014   4.956 -2.9448 -1.2560  1.9852
 7668SOL     OW25256   0.559   4.136   9.779 -0.3619 -0.2466  0.7305
 7668SOL    HW125257   0.497   4.067   9.759  0.2948 -0.2852 -1.3398
 7668SOL    HW225258   0.512   4.217   9.758 -0.4813 -0.1428  1.3687
 7669SOL     OW25259   8.141   4.894   0.488  0.0011 -0.1340  0.2710
 7669SOL    HW125260   8.122   4.848   0.406 -0.4510  0.2701  0.1466
 7669SOL    HW225261   8.060   4.888   0.539 -0.0947  0.6093  0.2133
 7670SOL     OW25262   6.153   8.866   3.632  0.1802  0.0041 -0.0860
 7670SOL    HW125263   6.072   8.891   3.677 -1.1765 -1.0159 -1.8371
 7670SOL    HW225264   6.168   8.775   3.657  0.5924  0.0837 -0.0380
 7671SOL     OW25265  10.112   6.584   9.352 -0.1803  0.1036  0.5402
 7671SOL    HW125266  10.107   6.541   9.437 -0.6207 -0.3364  0.3022
 7671SOL    HW225267  10.057   6.661   9.360 -0.4668 -0.1030  0.5616
 7672SOL     OW25268   4.977   0.660   7.075 -0.2690  0.1619 -0.2784
 7672SOL    HW125269   4.952   0.590   7.016  1.0164  0.1048 -0.7897
 7672SOL    HW225270   4.897   0.712   7.087 -0.5341  0.2462 -2.1601
 7673SOL     OW25271   8.372   0.604   8.483 -0.2492  0.1282 -0.4811
 7673SOL    HW125272   8.334   0.538   8.541  2.0154  0.4403  1.5485
 7673SOL    HW225273   8.321   0.683   8.501  2.3307  1.1204  3.8280
 7674SOL     OW25274   7.495   5.689   3.432 -0.1692 -0.0753 -0.3301
 7674SOL    HW125275   7.442   5.666   3.508  0.2734 -0.8390 -0.2457
 7674SOL    HW225276   7.444   5.757   3.387 -1.0536 -0.5543 -0.0718
 7675SOL     OW25277   0.073  10.216   5.444  0.0403  0.0698  0.1908
 7675SOL    HW125278   0.057  10.206   5.350 -0.4187  1.3342  0.1115
 7675SOL    HW225279   0.075  10.126   5.478  0.9591 -0.4362 -1.1279
 7676SOL     OW25280   3.979   9.946  10.249 -0.6719  0.1509 -0.2251
 7676SOL    HW125281   4.066   9.975  10.223 -0.4053  1.1475  1.6139
 7676SOL    HW225282   3.969   9.860  10.207  0.9738  0.2409 -0.8852
 7677SOL     OW25283   7.932   4.486   4.155  0.0998 -0.6324 -0.2792
 7677SOL    HW125284   7.968   4.397   4.160  0.6311 -0.3963  0.2236
 7677SOL    HW225285   7.840   4.473   4.136 -0.1459 -1.3564  1.2348
 7678SOL     OW25286   7.214   1.469   5.519 -0.2360  0.4208 -0.3982
 7678SOL    HW125287   7.309   1.479   5.528 -0.3566  3.4880 -1.1762
 7678SOL    HW225288   7.179   1.556   5.540 -3.1143 -1.1457  1.9087
 7679SOL     OW25289   6.540   2.570   8.965 -0.3701 -0.4389 -0.3976
 7679SOL    HW125290   6.616   2.574   8.908 -0.3946 -0.8178 -0.4613
 7679SOL    HW225291   6.466   2.588   8.907 -0.3612 -0.4437 -0.4103
 7680SOL     OW25292   3.032   5.749   1.129 -0.3309 -0.3018 -0.8135
 7680SOL    HW125293   3.052   5.801   1.207  0.6791 -1.1250 -0.5003
 7680SOL    HW225294   2.949   5.706   1.149 -0.7207  0.4802 -0.7155
 7681SOL     OW25295   7.666   8.081   0.294  0.4737 -0.4116 -0.0572
 7681SOL    HW125296   7.743   8.052   0.344  1.5076  0.9116 -0.8108
 7681SOL    HW225297   7.693   8.073   0.202 -0.5326 -0.5258 -0.3516
 7682SOL     OW25298   8.095   8.198   2.452 -0.0992  0.6948  0.2210
 7682SOL    HW125299   8.042   8.177   2.529 -1.3214  0.9137 -0.5384
 7682SOL    HW225300   8.093   8.294   2.446 -0.2486  0.6655 -0.2462
 7683SOL     OW25301   6.470   7.003   6.191  0.3615  0.3223 -0.0133
 7683SOL    HW125302   6.449   7.026   6.281 -0.8778 -0.1375 -0.1680
 7683SOL    HW225303   6.558   7.037   6.177  1.4415 -1.4035  2.0152
 7684SOL     OW25304   8.553   0.919   9.105  0.0657 -0.0955 -0.2939
 7684SOL    HW125305   8.607   0.988   9.066 -1.1725  0.2593 -1.4392
 7684SOL    HW225306   8.477   0.965   9.141 -1.7123 -0.9537 -2.6971
 7685SOL     OW25307  10.017   7.110  10.029  0.2095 -0.6428  0.1898
 7685SOL    HW125308   9.934   7.149   9.999  0.6663  0.3227  0.1443
 7685SOL    HW225309  10.052   7.065   9.952 -0.7513 -1.9301  0.4713
 7686SOL     OW25310   4.814   6.681   5.962  0.4153  0.1397 -0.3351
 7686SOL    HW125311   4.777   6.598   5.993  0.8416 -0.8893 -2.3991
 7686SOL    HW225312   4.889   6.655   5.910  1.8217  1.9893  0.6601
 7687SOL     OW25313   7.286   6.503   4.362 -0.3032 -0.2065 -0.0222
 7687SOL    HW125314   7.206   6.550   4.337 -0.6949 -1.3851 -1.0728
 7687SOL    HW225315   7.353   6.539   4.303  0.2438  1.5398  1.5525
 7688SOL     OW25316   2.899   5.647   1.855  0.6703  0.6166  0.1494
 7688SOL    HW125317   2.822   5.600   1.885  0.1052  1.7691  0.5458
 7688SOL    HW225318   2.968   5.620   1.916  1.2809 -2.2915 -1.5993
 7689SOL     OW25319   2.867   7.727   8.880 -0.5183 -0.4034  0.3730
 7689SOL    HW125320   2.868   7.637   8.846 -1.0296  0.3137 -1.7263
 7689SOL    HW225321   2.935   7.772   8.829 -0.5534  0.5074  1.1054
 7690SOL     OW25322   1.412   9.854   6.796  0.4641  0.4708  0.3706
 7690SOL    HW125323   1.494   9.810   6.771  0.2757  0.7513 -0.8200
 7690SOL    HW225324   1.431   9.947   6.787  0.4438  0.6017  1.5414
 7691SOL     OW25325  10.224   4.517   3.416  0.4351  0.1650 -0.4886
 7691SOL    HW125326  10.168   4.580   3.372 -1.1594 -1.0311 -0.2465
 7691SOL    HW225327  10.297   4.503   3.355 -0.1268  0.8612 -1.3384
 7692SOL     OW25328   5.554   0.167   1.864 -0.6084  0.3880  0.0362
 7692SOL    HW125329   5.551   0.256   1.830  0.5260  0.7238  0.7637
 7692SOL    HW225330   5.526   0.175   1.955  3.2558  0.7428  1.3966
 7693SOL     OW25331   1.515   7.544   1.571 -0.7735 -0.5000 -0.6075
 7693SOL    HW125332   1.512   7.634   1.539 -1.7571  0.7068  2.4284
 7693SOL    HW225333   1.458   7.495   1.512 -1.5910  1.2564 -1.3418
 7694SOL     OW25334   9.599   0.217   7.029  0.4810  0.1750 -0.1205
 7694SOL    HW125335   9.671   0.163   6.997 -0.2582 -0.6455 -0.4310
 7694SOL    HW225336   9.622   0.236   7.120  0.4767 -1.1678  0.1853
 7695SOL     OW25337   5.277   3.760   4.677  0.1785 -0.1729 -0.4446
 7695SOL    HW125338   5.205   3.823   4.669  0.7218  0.5992  0.4750
 7695SOL    HW225339   5.356   3.813   4.668  0.7348 -0.1391  3.1912
 7696SOL     OW25340   1.005   8.993   1.636 -0.0846 -0.1064 -0.0458
 7696SOL    HW125341   1.077   8.940   1.603  0.7042  0.2072  1.1180
 7696SOL    HW225342   1.026   9.082   1.610 -0.0840 -0.0238  0.2286
 7697SOL     OW25343   7.099  10.261   8.725  0.3065 -0.2907  0.1748
 7697SOL    HW125344   7.121  10.305   8.807 -0.5170 -0.0963  0.3005
 7697SOL    HW225345   7.138  10.174   8.733  1.6565  0.2798  0.0654
 7698SOL     OW25346   5.149   7.406   1.516  0.4095 -0.7953  0.3065
 7698SOL    HW125347   5.176   7.319   1.485 -1.1380 -0.8098 -1.1792
 7698SOL    HW225348   5.146   7.459   1.436  0.2872  0.3292  1.0466
 7699SOL     OW25349   7.034   0.759   1.870 -0.0886 -0.3770 -0.1368
 7699SOL    HW125350   6.941   0.775   1.850  0.2541 -0.1222 -1.6531
 7699SOL    HW225351   7.052   0.673   1.834  0.3180 -0.3466 -0.0070
 7700SOL     OW25352   7.091   9.718   6.224  0.3267  0.1473  0.5744
 7700SOL    HW125353   7.035   9.650   6.186 -1.6159  1.3297  1.1605
 7700SOL    HW225354   7.066   9.719   6.317  1.6859  0.4083  0.9479
 7701SOL     OW25355   6.836   9.418  10.511 -0.3706 -0.9005 -0.1733
 7701SOL    HW125356   6.879   9.384  10.433  0.9580 -1.8408  0.9169
 7701SOL    HW225357   6.812   9.508  10.488  3.7259  0.3258 -0.3747
 7702SOL     OW25358   9.882   4.050   3.929  0.0064  0.0563 -0.0079
 7702SOL    HW125359   9.914   4.140   3.941  0.3011 -0.0065 -0.2977
 7702SOL    HW225360   9.787   4.059   3.923  0.0874  0.4605 -0.9439
 7703SOL     OW25361   9.805   3.843   7.993  0.0307  0.0330 -0.0889
 7703SOL    HW125362   9.821   3.837   7.899  0.0798  0.5206 -0.1131
 7703SOL    HW225363   9.888   3.872   8.030 -0.0793  0.1517  0.0670
 7704SOL     OW25364   0.852   6.747   8.737 -0.0512  0.2258 -0.4931
 7704SOL    HW125365   0.799   6.774   8.662 -2.0064  0.2006  0.8067
 7704SOL    HW225366   0.788   6.733   8.808  1.4450 -2.1817  0.5019
 7705SOL     OW25367   5.254   2.363   3.646 -0.0237  0.0181  0.0501
 7705SOL    HW125368   5.310   2.440   3.639 -0.4586  0.3522  0.1661
 7705SOL    HW225369   5.227   2.345   3.556  2.5629 -1.9086 -0.4353
 7706SOL     OW25370   5.625   1.721   0.675  0.1257 -0.3544 -0.0438
 7706SOL    HW125371   5.630   1.776   0.597 -0.8631 -0.4780 -0.2097
 7706SOL    HW225372   5.557   1.656   0.655 -0.3882 -0.1773  1.0425
 7707SOL     OW25373   3.452   8.818   7.199 -0.5570  0.4751 -0.2895
 7707SOL    HW125374   3.515   8.747   7.214 -0.0586  1.3294  2.0630
 7707SOL    HW225375   3.399   8.788   7.124  1.1534 -1.2780 -0.8706
 7708SOL     OW25376   4.093   8.281   2.139  0.4198  0.0238 -0.2569
 7708SOL    HW125377   4.173   8.272   2.191  1.3243 -0.7517 -1.6984
 7708SOL    HW225378   4.087   8.199   2.090 -1.5793 -0.1524  0.2008
 7709SOL     OW25379   4.620   3.864   6.726  0.3623 -0.4377 -0.3872
 7709SOL    HW125380   4.598   3.905   6.810 -1.4261 -1.9255 -0.0851
 7709SOL    HW225381   4.626   3.938   6.665 -1.0854  0.4510  0.4773
 7710SOL     OW25382   3.171   0.414   9.599  0.3715 -0.5172 -0.8067
 7710SOL    HW125383   3.116   0.337   9.586 -1.2053  0.7977 -2.6490
 7710SOL    HW225384   3.259   0.387   9.571 -0.3629 -1.4192 -2.3774
 7711SOL     OW25385   5.670   9.388   1.256  0.0701  0.6159 -0.8405
 7711SOL    HW125386   5.678   9.480   1.279  2.3853 -0.0002  1.3245
 7711SOL    HW225387   5.638   9.346   1.336 -0.7085 -0.5200 -1.7116
 7712SOL     OW25388   9.665   9.651   2.232  0.1046  0.3608 -0.0775
 7712SOL    HW125389   9.743   9.601   2.207 -2.1605 -3.1831 -0.7728
 7712SOL    HW225390   9.668   9.655   2.327  0.8241 -0.2695 -0.0668
 7713SOL     OW25391   4.158   4.520   1.553 -0.4509  0.4563 -0.1109
 7713SOL    HW125392   4.151   4.425   1.545  0.8930  0.2800  0.5751
 7713SOL    HW225393   4.183   4.535   1.644 -3.0424  1.6283  0.4960
 7714SOL     OW25394   3.809   6.569   8.515 -0.1372  0.5249  0.3400
 7714SOL    HW125395   3.847   6.652   8.543 -0.5969  0.7213  0.3967
 7714SOL    HW225396   3.855   6.548   8.434 -0.0148  0.8365  0.3240
 7715SOL     OW25397   0.156   5.242   9.920  0.0959 -0.6820 -0.0528
 7715SOL    HW125398   0.225   5.252   9.985 -1.6867  0.9052  1.7190
 7715SOL    HW225399   0.080   5.215   9.971 -1.6396  1.6342 -1.2497
 7716SOL     OW25400   2.464   0.420   3.671  0.1663  0.2405  0.5114
 7716SOL    HW125401   2.457   0.325   3.681 -1.9573  0.3936  0.8826
 7716SOL    HW225402   2.473   0.453   3.760 -2.4478  0.5517  0.7266
 7717SOL     OW25403  10.333   8.066   0.673 -0.0927 -0.1837 -0.1302
 7717SOL    HW125404  10.275   7.992   0.655  1.4629 -1.1482 -1.5458
 7717SOL    HW225405  10.399   8.062   0.603  0.6962  1.8764  0.4126
 7718SOL     OW25406   4.823   5.281   5.712  0.5140 -0.5179  0.0521
 7718SOL    HW125407   4.810   5.187   5.699 -0.0039 -0.5038  0.4329
 7718SOL    HW225408   4.864   5.288   5.798 -0.1193 -0.3600  0.3492
 7719SOL     OW25409   5.445   1.132   7.404  0.3588 -0.0392  0.3195
 7719SOL    HW125410   5.420   1.058   7.349  0.2153  0.1901  0.0788
 7719SOL    HW225411   5.540   1.137   7.396  0.2432  0.6746 -0.7760
 7720SOL     OW25412   2.655   9.780   1.732 -0.1542  0.1654 -0.3693
 7720SOL    HW125413   2.716   9.746   1.797 -0.2470 -1.3549 -1.0539
 7720SOL    HW225414   2.689   9.750   1.648 -1.3817  0.0101 -0.8332
 7721SOL     OW25415   9.473   4.203   4.649  0.1574  0.3807 -0.3283
 7721SOL    HW125416   9.567   4.185   4.658  0.3888  0.8439 -1.6119
 7721SOL    HW225417   9.440   4.203   4.739  0.8608 -2.4572  0.0331
 7722SOL     OW25418   6.564   6.056   6.719  0.3346 -0.5534  0.0455
 7722SOL    HW125419   6.640   6.042   6.663  0.1953 -2.1661  0.2162
 7722SOL    HW225420   6.599   6.058   6.808  0.4031  0.7917  0.0149
 7723SOL     OW25421   6.881   0.674   0.246 -0.7637  0.5004 -0.1452
 7723SOL    HW125422   6.912   0.689   0.157 -0.1772  1.1950  0.1616
 7723SOL    HW225423   6.873   0.579   0.253  2.7638  0.0765  0.1880
 7724SOL     OW25424   5.206   7.540   9.646  0.3853 -0.2146  0.6636
 7724SOL    HW125425   5.111   7.533   9.645  0.1324  0.2705  4.6519
 7724SOL    HW225426   5.224   7.619   9.595 -1.2183 -0.7537 -0.8445
 7725SOL     OW25427   6.589   5.701   0.729  0.6508  0.2334  0.7227
 7725SOL    HW125428   6.500   5.707   0.765  0.6501 -0.6487  0.8956
 7725SOL    HW225429   6.628   5.626   0.775  0.4173 -1.3996 -1.5897
 7726SOL     OW25430   1.979   4.627   7.752  0.1382 -0.0383 -0.4837
 7726SOL    HW125431   1.885   4.642   7.755  0.1345 -0.1641  0.3130
 7726SOL    HW225432   2.015   4.705   7.710 -0.4929 -0.9083 -2.8449
 7727SOL     OW25433   7.881   3.090   0.022 -0.2652 -0.0888 -0.6378
 7727SOL    HW125434   7.869   3.011  -0.031  1.5391 -1.1717  0.4515
 7727SOL    HW225435   7.972   3.116   0.005 -0.5883  1.2957 -0.3497
 7728SOL     OW25436  10.470  10.008   2.224  0.8502 -0.3730  0.4566
 7728SOL    HW125437  10.520  10.046   2.296  3.1099 -0.2048 -1.0819
 7728SOL    HW225438  10.412  10.079   2.195  2.5161  0.7843 -0.1515
 7729SOL     OW25439   3.130   9.525  10.075 -0.6298 -0.5367  0.0151
 7729SOL    HW125440   3.047   9.480  10.063 -1.5149  1.5747 -2.8754
 7729SOL    HW225441   3.197   9.461  10.050 -1.5076 -1.6035  0.3422
 7730SOL     OW25442   7.150   4.223   0.644 -0.4319 -0.2366  0.5896
 7730SOL    HW125443   7.177   4.298   0.698 -0.6482 -0.8426  1.5782
 7730SOL    HW225444   7.058   4.210   0.667 -0.1191 -1.4589  1.2587
 7731SOL     OW25445   7.283   8.530   2.180 -0.0698  0.1579 -0.3612
 7731SOL    HW125446   7.207   8.487   2.141  0.7530 -1.9185  0.1687
 7731SOL    HW225447   7.309   8.596   2.116 -0.7515 -0.8931 -1.7758
 7732SOL     OW25448   1.088   4.215   6.551 -0.0312 -0.0046 -0.1809
 7732SOL    HW125449   1.034   4.201   6.629  0.0591 -0.6606 -0.2311
 7732SOL    HW225450   1.070   4.306   6.526  1.2242  0.7708  1.5736
 7733SOL     OW25451  10.365   2.319   3.987  0.2947  0.0307  0.1088
 7733SOL    HW125452  10.313   2.274   4.053  1.0436 -0.7649  0.1733
 7733SOL    HW225453  10.393   2.400   4.030 -0.5947  0.3125  0.1841
 7734SOL     OW25454   1.527   3.144   4.170 -0.0616  0.1756  0.4990
 7734SOL    HW125455   1.589   3.162   4.099  0.9273  1.7186  1.6693
 7734SOL    HW225456   1.580   3.151   4.249 -1.7774  1.8321  1.5723
 7735SOL     OW25457   7.080   6.500   8.171 -0.2128  0.0331 -0.4399
 7735SOL    HW125458   7.041   6.568   8.226  3.1217  0.7109  1.3274
 7735SOL    HW225459   7.069   6.419   8.221  1.0686  0.3197  0.3368
 7736SOL     OW25460   1.277   1.571   8.180 -0.4155  0.4982  0.0912
 7736SOL    HW125461   1.264   1.520   8.101 -1.7329  2.8139 -1.2959
 7736SOL    HW225462   1.295   1.506   8.248 -1.6344 -1.7445 -1.5956
 7737SOL     OW25463   7.077   2.476   9.923 -0.1509  0.1121 -0.1730
 7737SOL    HW125464   7.098   2.459  10.015 -2.2825  0.3801  0.4098
 7737SOL    HW225465   7.128   2.554   9.900 -0.6781  0.8946  1.2304
 7738SOL     OW25466   7.221   2.241   5.320 -0.1395  0.2795 -0.3700
 7738SOL    HW125467   7.316   2.229   5.309  0.0682  1.5350 -0.1358
 7738SOL    HW225468   7.195   2.293   5.244 -0.3251  1.3466  0.4070
 7739SOL     OW25469   7.076  10.337   2.910  0.4204  0.0802  0.0179
 7739SOL    HW125470   7.038  10.266   2.960  0.4256 -0.6637 -0.9999
 7739SOL    HW225471   7.003  10.396   2.892 -0.2998 -1.2778 -1.8149
 7740SOL     OW25472   4.816   5.725   5.769  0.2731  0.7856  0.0026
 7740SOL    HW125473   4.751   5.692   5.832  2.0284 -0.7729  1.1106
 7740SOL    HW225474   4.857   5.799   5.814 -0.0086  1.0951 -0.2500
 7741SOL     OW25475   0.747   4.064   2.822  0.3998 -0.0013  0.0755
 7741SOL    HW125476   0.827   4.037   2.777  0.8422  1.1294  0.1273
 7741SOL    HW225477   0.752   4.160   2.823 -1.0554  0.0925 -0.0766
 7742SOL     OW25478   4.061   7.653   3.110 -0.5752  0.3974  0.1094
 7742SOL    HW125479   4.013   7.595   3.051 -1.4583 -0.1514  1.3251
 7742SOL    HW225480   3.993   7.703   3.155 -0.0093 -0.1178  1.5875
 7743SOL     OW25481   7.085   7.748   9.757 -0.2297 -0.0098 -0.0839
 7743SOL    HW125482   7.115   7.831   9.722  0.7470 -0.9982 -1.6962
 7743SOL    HW225483   7.008   7.725   9.704  0.6064 -0.9947 -0.9023
 7744SOL     OW25484   9.057   9.739   7.686  0.1606 -0.6185  0.2938
 7744SOL    HW125485   9.015   9.688   7.755  1.0602 -1.3545  0.3162
 7744SOL    HW225486   9.010   9.822   7.686 -0.3698 -0.8982  1.2566
 7745SOL     OW25487   3.439   3.359   2.442 -0.3362  0.0054  0.5884
 7745SOL    HW125488   3.425   3.446   2.402 -1.6138 -1.1344 -1.6665
 7745SOL    HW225489   3.529   3.337   2.418 -0.4872  0.1128 -0.1037
 7746SOL     OW25490   0.643   4.303   7.710  0.5493 -0.4823  0.4464
 7746SOL    HW125491   0.699   4.278   7.637  0.9046  1.6488 -0.0816
 7746SOL    HW225492   0.688   4.268   7.787  1.5819 -0.5106 -0.1443
 7747SOL     OW25493   8.973   0.059   9.237 -0.6120  0.1788 -0.4399
 7747SOL    HW125494   8.930   0.127   9.289 -1.5831  1.0320 -2.2587
 7747SOL    HW225495   9.067   0.079   9.245 -0.6456 -0.3011  1.6904
 7748SOL     OW25496   4.631  10.414   3.354  0.2442 -0.3714  0.4692
 7748SOL    HW125497   4.630  10.334   3.302  2.0881 -0.6580  0.7768
 7748SOL    HW225498   4.714  10.456   3.331 -0.9123  1.7568 -0.0955
 7749SOL     OW25499   4.670   3.395   9.504 -0.2467 -0.0349 -0.2011
 7749SOL    HW125500   4.600   3.444   9.460 -0.8137 -1.2609 -0.6926
 7749SOL    HW225501   4.693   3.325   9.443 -0.7866 -1.5609  1.2651
 7750SOL     OW25502   5.560   8.115   3.898 -0.2170 -0.0441  0.5039
 7750SOL    HW125503   5.536   8.175   3.828 -0.8836  0.3946  1.0910
 7750SOL    HW225504   5.630   8.061   3.861 -1.4267 -0.6968 -0.9607
 7751SOL     OW25505   6.952   0.293   4.356 -0.0806  0.0163 -0.3547
 7751SOL    HW125506   6.967   0.223   4.419  1.5804 -0.3682 -1.1241
 7751SOL    HW225507   6.991   0.370   4.397  0.4412 -0.0977 -0.6285
 7752SOL     OW25508   2.153   5.433   8.529 -0.0593  0.5669  0.0498
 7752SOL    HW125509   2.240   5.403   8.501  0.0211 -0.1400  1.0031
 7752SOL    HW225510   2.157   5.529   8.521  0.4323  0.4730 -0.9460
 7753SOL     OW25511   8.173   3.422   7.979 -0.1550  0.4138  0.1301
 7753SOL    HW125512   8.097   3.467   8.017 -1.1800 -1.8197  0.8993
 7753SOL    HW225513   8.139   3.384   7.897 -0.1041 -1.1624  0.8097
 7754SOL     OW25514  10.309   3.751   8.654 -0.4220 -0.2538 -0.0513
 7754SOL    HW125515  10.331   3.808   8.728  1.5344  0.4539 -1.0858
 7754SOL    HW225516  10.393   3.712   8.629 -0.9159 -0.0688 -2.1868
 7755SOL     OW25517   3.280   6.957   3.657  0.0307  0.4305  0.2806
 7755SOL    HW125518   3.207   6.943   3.717 -0.2589 -0.4702 -0.2586
 7755SOL    HW225519   3.246   6.930   3.572  1.4550 -1.4788  0.2690
 7756SOL     OW25520   2.337   1.181   9.934  0.5628  0.2178  0.2805
 7756SOL    HW125521   2.304   1.199  10.022  1.9903 -0.1439  0.9186
 7756SOL    HW225522   2.367   1.266   9.901  2.2231 -0.0108  1.1131
 7757SOL     OW25523   1.999   9.467   8.450 -0.6125  0.1642 -0.0334
 7757SOL    HW125524   1.944   9.544   8.461  1.3053  1.4430  1.3058
 7757SOL    HW225525   2.082   9.501   8.415 -0.0861 -1.4570 -0.4823
 7758SOL     OW25526   5.737   6.379   5.697 -0.1898 -0.4510 -0.0621
 7758SOL    HW125527   5.762   6.338   5.780 -1.3922 -0.1766  0.4408
 7758SOL    HW225528   5.642   6.382   5.699 -0.1697  2.0570 -0.2423
 7759SOL     OW25529   2.035   4.383   7.614  0.0095  0.1451  0.3652
 7759SOL    HW125530   2.044   4.478   7.624  4.2434 -0.2196  1.8823
 7759SOL    HW225531   1.970   4.359   7.681 -1.9221  1.9672 -0.7334
 7760SOL     OW25532   9.800   6.707   1.228  0.2730  0.8090  0.5445
 7760SOL    HW125533   9.833   6.769   1.293  2.6917  0.2696 -0.0804
 7760SOL    HW225534   9.840   6.623   1.251 -0.8576  0.0425 -0.1629
 7761SOL     OW25535   7.960   1.988   0.822 -0.7856  0.1566 -0.2699
 7761SOL    HW125536   7.869   2.013   0.840 -1.1273 -0.3513 -1.2055
 7761SOL    HW225537   8.001   1.981   0.908 -1.8235 -0.2962  0.2009
 7762SOL     OW25538   4.585   6.863   2.411 -0.0874 -0.6042  0.4889
 7762SOL    HW125539   4.576   6.820   2.496 -0.0867  0.3090  0.9595
 7762SOL    HW225540   4.566   6.955   2.428 -1.5595 -0.6332 -0.7710
 7763SOL     OW25541   4.705   1.774   1.586  0.4000  0.6058  0.4488
 7763SOL    HW125542   4.690   1.792   1.679  0.8587 -0.7900  0.8098
 7763SOL    HW225543   4.686   1.681   1.576  1.5516  0.4597 -0.6084
 7764SOL     OW25544   2.809   7.707   8.124  0.0595  0.5317  0.2822
 7764SOL    HW125545   2.894   7.668   8.146  0.2256  1.9123  2.4470
 7764SOL    HW225546   2.755   7.633   8.096  1.5469 -0.5865  0.2313
 7765SOL     OW25547   0.515   3.276   8.805 -0.0721  0.6041  0.2458
 7765SOL    HW125548   0.557   3.339   8.746  2.5314 -0.5224  0.7777
 7765SOL    HW225549   0.566   3.281   8.886 -0.7326 -1.1225  0.8096
 7766SOL     OW25550   7.148   7.153   0.687  0.1051 -0.1557 -0.1551
 7766SOL    HW125551   7.175   7.245   0.681  1.2137 -0.5677 -2.9210
 7766SOL    HW225552   7.064   7.156   0.734 -0.6376  2.4452 -1.4474
 7767SOL     OW25553   1.594   8.739   8.053 -0.3082  0.2986 -0.2116
 7767SOL    HW125554   1.644   8.746   8.134  0.5845 -1.1099 -0.6031
 7767SOL    HW225555   1.601   8.826   8.013 -1.0995  1.1440  1.3684
 7768SOL     OW25556   8.393   9.501   5.615  0.1680 -0.6002  0.0969
 7768SOL    HW125557   8.407   9.534   5.704 -1.7388 -1.7644  0.8853
 7768SOL    HW225558   8.337   9.567   5.574 -0.9173 -1.2087  0.5734
 7769SOL     OW25559   3.797   7.532   8.124  0.4479 -0.3342 -0.2826
 7769SOL    HW125560   3.713   7.515   8.167  0.3714  1.2252  0.2599
 7769SOL    HW225561   3.856   7.465   8.160 -0.4221 -1.1262 -0.2764
 7770SOL     OW25562   9.256   5.259   8.993  0.3267  0.5052 -0.8563
 7770SOL    HW125563   9.211   5.189   8.945  2.3197 -1.1287 -0.4748
 7770SOL    HW225564   9.240   5.337   8.940 -0.8461 -0.4610 -2.0292
 7771SOL     OW25565   7.956   6.241   7.874 -1.0253  0.6441 -0.7574
 7771SOL    HW125566   7.867   6.250   7.839 -1.6733 -0.4485  0.5380
 7771SOL    HW225567   7.955   6.288   7.957 -1.0722 -1.2011  0.3434
 7772SOL     OW25568   4.668   3.470   7.520  0.4087  0.0775 -0.4742
 7772SOL    HW125569   4.622   3.551   7.540  1.5112  0.2658  1.5491
 7772SOL    HW225570   4.750   3.498   7.481  2.1728  0.2362  2.9659
 7773SOL     OW25571   1.245   7.223   4.723 -0.3290 -0.5970 -0.3828
 7773SOL    HW125572   1.189   7.291   4.684 -0.1553 -0.9592 -1.2911
 7773SOL    HW225573   1.184   7.167   4.771 -0.5966 -0.3276 -0.4061
 7774SOL     OW25574   7.808   3.408   2.465 -0.4464 -0.0851 -0.4070
 7774SOL    HW125575   7.862   3.476   2.426 -1.2861  0.5206 -0.5410
 7774SOL    HW225576   7.820   3.332   2.409  0.5138 -0.0584 -0.2465
 7775SOL     OW25577   4.977   9.643   1.621  0.4201 -0.3365  0.1969
 7775SOL    HW125578   5.000   9.571   1.679  0.8139  0.1134  0.6057
 7775SOL    HW225579   4.911   9.606   1.562  1.8670 -1.5412 -0.7235
 7776SOL     OW25580   7.743   6.162   3.007  0.4460 -0.1847  0.2035
 7776SOL    HW125581   7.742   6.257   2.993  2.6998 -0.1580 -0.1661
 7776SOL    HW225582   7.769   6.126   2.922 -1.5896 -1.2684 -0.0158
 7777SOL     OW25583   8.962   0.547   4.783 -0.3753  0.4713  0.0603
 7777SOL    HW125584   8.920   0.506   4.708 -0.8712  1.1275 -0.0324
 7777SOL    HW225585   8.894   0.549   4.851 -0.0290  0.1726  0.4184
 7778SOL     OW25586   8.304   2.968   2.859  0.3653  0.1352  0.4488
 7778SOL    HW125587   8.296   3.007   2.772  0.8334  0.1682  0.4181
 7778SOL    HW225588   8.394   2.936   2.863 -0.2116 -1.6546  0.1789
 7779SOL     OW25589   3.363   4.737  10.114 -0.2800  0.2601 -0.6886
 7779SOL    HW125590   3.295   4.779  10.167 -0.2133  1.3289 -1.4132
 7779SOL    HW225591   3.410   4.680  10.176 -0.0098  1.7048  0.4995
 7780SOL     OW25592   0.680   1.261   5.704 -0.1116  0.2456 -0.3653
 7780SOL    HW125593   0.764   1.225   5.676 -0.7260 -0.0695 -1.9263
 7780SOL    HW225594   0.626   1.183   5.722 -0.7762  0.3703 -1.6683
 7781SOL     OW25595   3.373   4.756   9.036  0.2224  0.1756  0.4199
 7781SOL    HW125596   3.307   4.813   9.075 -0.5326 -0.2377 -0.2280
 7781SOL    HW225597   3.438   4.742   9.106  1.0332  2.7169  0.2585
 7782SOL     OW25598   5.696   1.085   1.777 -0.7252  0.1362 -0.1400
 7782SOL    HW125599   5.788   1.063   1.767 -0.4642 -0.7702  3.1142
 7782SOL    HW225600   5.696   1.180   1.792 -0.2791  0.1017  0.0912
 7783SOL     OW25601   1.839   1.847   5.024  0.2966  0.1288 -0.1574
 7783SOL    HW125602   1.794   1.764   5.010 -1.4111  1.0197 -0.1373
 7783SOL    HW225603   1.926   1.822   5.056  0.4030 -1.6713 -1.6700
 7784SOL     OW25604   2.027   0.350   8.741 -0.0167 -0.0427  0.6340
 7784SOL    HW125605   2.067   0.265   8.761  0.1365 -0.3878 -0.9737
 7784SOL    HW225606   2.102   0.410   8.735 -0.1196  0.2200  1.7010
 7785SOL     OW25607   0.179   3.009   9.542  0.1301 -0.2776  0.0166
 7785SOL    HW125608   0.115   3.002   9.614  0.3342 -0.1397  0.2114
 7785SOL    HW225609   0.136   2.966   9.468 -1.0519  1.6203 -0.4594
 7786SOL     OW25610   9.201   3.599   2.383 -0.0429 -0.2026 -0.0930
 7786SOL    HW125611   9.125   3.619   2.437  0.1141 -1.7592  0.7732
 7786SOL    HW225612   9.174   3.523   2.331  0.8415 -0.6856  0.1242
 7787SOL     OW25613   6.116   1.139   0.284  0.3281  0.0379 -0.1530
 7787SOL    HW125614   6.090   1.175   0.369  0.9915  1.6225 -0.5875
 7787SOL    HW225615   6.036   1.100   0.249 -0.1469  0.0886  0.8505
 7788SOL     OW25616   8.844   7.829   1.716 -0.5796 -0.9221 -0.2428
 7788SOL    HW125617   8.849   7.917   1.754 -1.9412 -1.3069  0.9119
 7788SOL    HW225618   8.800   7.842   1.632 -0.7405 -0.4997 -0.0983
 7789SOL     OW25619   6.647   9.940   3.335  0.5738  0.5350  0.3030
 7789SOL    HW125620   6.725   9.890   3.359 -0.1128 -1.1239 -0.7865
 7789SOL    HW225621   6.670  10.031   3.355  1.8036 -0.1963  2.4662
 7790SOL     OW25622   4.959   3.100   2.417 -0.3329  0.2770  0.2170
 7790SOL    HW125623   4.910   3.049   2.482 -0.2237  0.2728  0.2974
 7790SOL    HW225624   4.983   3.181   2.463 -3.0715  1.7880 -0.7873
 7791SOL     OW25625   9.864   1.770   6.912  0.4091  0.0980 -0.2521
 7791SOL    HW125626   9.843   1.842   6.971  0.3367 -0.0163 -0.1358
 7791SOL    HW225627   9.939   1.727   6.953  1.9626  1.5046 -1.5253
 7792SOL     OW25628   9.179   5.441   5.828 -0.1378 -0.0410 -0.0968
 7792SOL    HW125629   9.249   5.498   5.861  0.0128 -0.3317  0.0930
 7792SOL    HW225630   9.176   5.460   5.734  0.8308 -0.6820 -0.2762
 7793SOL     OW25631   6.510   9.121   5.292 -0.0438  0.6578 -0.0617
 7793SOL    HW125632   6.551   9.184   5.351  0.5498  0.2075  0.0236
 7793SOL    HW225633   6.582   9.063   5.267  0.2232  1.9888 -2.8003
 7794SOL     OW25634   8.870   9.570   4.557 -0.3246  0.0006 -0.1018
 7794SOL    HW125635   8.848   9.629   4.629 -2.1527  0.6382 -1.1186
 7794SOL    HW225636   8.928   9.622   4.501 -0.0622  0.0089  0.1737
 7795SOL     OW25637   7.249   7.604   8.113  0.1486  0.1069  0.1034
 7795SOL    HW125638   7.324   7.613   8.172 -0.1619  0.4588  0.4468
 7795SOL    HW225639   7.262   7.519   8.070 -0.2557 -0.7395  1.5898
 7796SOL     OW25640   7.395   4.442   9.796 -0.0034  0.2056 -0.0949
 7796SOL    HW125641   7.344   4.524   9.791  1.7472  1.3896  0.6451
 7796SOL    HW225642   7.329   4.375   9.816 -1.2205  1.7853  1.5852
 7797SOL     OW25643   1.341   5.033   2.237  0.1491  0.3510  0.0686
 7797SOL    HW125644   1.369   5.082   2.159  0.8097 -0.9347 -0.5245
 7797SOL    HW225645   1.403   5.060   2.305  0.4279  0.4487 -0.2194
 7798SOL     OW25646   9.491   1.433   8.273 -0.1404 -0.1639 -0.4065
 7798SOL    HW125647   9.554   1.428   8.344 -0.1648 -2.4951 -0.4890
 7798SOL    HW225648   9.537   1.479   8.203  0.2440  1.2149  0.7001
 7799SOL     OW25649   0.089   4.338   6.363 -0.6439  0.6972 -0.1218
 7799SOL    HW125650   0.178   4.358   6.389  0.0208 -0.0386 -1.6947
 7799SOL    HW225651   0.036   4.359   6.439  1.0054 -0.0553  1.2931
 7800SOL     OW25652   4.145   0.633   2.929  0.2325  0.0823  0.3394
 7800SOL    HW125653   4.056   0.640   2.963 -0.8180  1.3760 -2.3586
 7800SOL    HW225654   4.134   0.597   2.841  2.4977 -0.6004  0.2630
 7801SOL     OW25655   2.162   2.900   7.735 -0.2266  0.7332  0.0174
 7801SOL    HW125656   2.109   2.942   7.803  1.2250  1.6841  0.6143
 7801SOL    HW225657   2.121   2.926   7.653 -2.3790 -0.9273  0.4657
 7802SOL     OW25658   4.931   2.220  10.323 -0.0773  0.0734  0.4683
 7802SOL    HW125659   4.898   2.304  10.291 -0.8905 -0.0158  1.0346
 7802SOL    HW225660   4.883   2.205  10.405  0.9897 -0.3314  1.0437
 7803SOL     OW25661   4.109   7.153   2.047  0.2202  0.6484 -0.1637
 7803SOL    HW125662   4.129   7.084   1.985 -0.8459  1.4305 -1.4350
 7803SOL    HW225663   4.090   7.230   1.993 -1.6039  1.1311  1.0622
 7804SOL     OW25664   9.890   1.854  10.163 -0.2133  0.1885 -0.3252
 7804SOL    HW125665   9.823   1.883  10.225  0.4221 -0.0125  0.4729
 7804SOL    HW225666   9.846   1.854  10.078 -0.5404  2.4577 -0.2176
 7805SOL     OW25667   6.218   7.219   2.818  0.1114  0.3995  0.1127
 7805SOL    HW125668   6.269   7.291   2.856 -1.7974  0.4605  2.8719
 7805SOL    HW225669   6.273   7.141   2.831  0.7393  0.8734  0.3155
 7806SOL     OW25670   0.416   5.629   2.121  0.5291  0.3152  0.2598
 7806SOL    HW125671   0.415   5.725   2.115 -0.2045  0.2566 -0.8396
 7806SOL    HW225672   0.508   5.606   2.103  0.1779  0.6942 -2.5187
 7807SOL     OW25673   7.117   4.360   5.007 -0.3896  0.2471 -0.7477
 7807SOL    HW125674   7.098   4.384   5.097  0.2273  0.7087 -0.7306
 7807SOL    HW225675   7.053   4.408   4.955 -0.2935  0.5359 -0.5993
 7808SOL     OW25676   0.577   3.248  10.199 -0.1301 -0.2002  0.1558
 7808SOL    HW125677   0.585   3.230  10.105 -1.0385  0.6488 -0.1028
 7808SOL    HW225678   0.548   3.339  10.204 -0.1312 -0.2468  1.2598
 7809SOL     OW25679  10.392   7.684   6.171 -0.3112 -0.0987 -0.1139
 7809SOL    HW125680  10.352   7.597   6.173  0.9351 -0.7229 -1.0234
 7809SOL    HW225681  10.460   7.678   6.104  0.5963  1.2398  0.6352
 7810SOL     OW25682   2.490   5.524   0.888 -0.8263  0.3848  0.6168
 7810SOL    HW125683   2.565   5.528   0.947 -1.6589  0.1740  1.7251
 7810SOL    HW225684   2.528   5.535   0.801  0.5907 -0.5845  1.0642
 7811SOL     OW25685   6.907   1.703   0.350  0.3365  0.1400 -0.4194
 7811SOL    HW125686   6.930   1.675   0.262  1.0973 -0.0989 -0.1458
 7811SOL    HW225687   6.940   1.634   0.407  1.3801  1.1199  0.1891
 7812SOL     OW25688   8.124   2.650   9.881 -0.2843 -0.2009  0.2034
 7812SOL    HW125689   8.159   2.730   9.842 -0.4775 -1.3385 -2.4886
 7812SOL    HW225690   8.029   2.661   9.878 -0.3401  0.5435  2.4035
 7813SOL     OW25691   5.136   2.344   2.460 -0.2947 -0.2093  0.0864
 7813SOL    HW125692   5.077   2.307   2.394  0.7140 -2.0081  0.1228
 7813SOL    HW225693   5.158   2.431   2.426 -1.0986 -0.4348 -1.0893
 7814SOL     OW25694   2.902   0.530   6.084  0.0589 -0.1477 -0.7565
 7814SOL    HW125695   2.895   0.606   6.142  1.3681 -1.7574  1.7343
 7814SOL    HW225696   2.813   0.515   6.052 -0.1298  2.7321 -1.8624
 7815SOL     OW25697   7.822   6.517   7.707 -0.3274  0.3582  0.5477
 7815SOL    HW125698   7.831   6.602   7.750 -0.3428  0.5046  0.2631
 7815SOL    HW225699   7.763   6.533   7.633  1.8232  0.7419 -1.1912
 7816SOL     OW25700   3.063   8.228   2.753 -0.1783 -0.0895  0.3281
 7816SOL    HW125701   3.107   8.283   2.689  0.5975  0.5748  1.4012
 7816SOL    HW225702   3.070   8.276   2.836 -1.3578 -0.8097  0.8779
 7817SOL     OW25703   8.343   7.175   7.272 -0.0433 -0.6943 -0.9227
 7817SOL    HW125704   8.336   7.102   7.210 -0.1760 -1.2837 -0.2362
 7817SOL    HW225705   8.391   7.243   7.224 -0.5311 -0.9627 -1.8127
 7818SOL     OW25706   2.822   8.114   0.913 -0.1270 -0.3628  0.3177
 7818SOL    HW125707   2.753   8.173   0.944  0.0084 -0.6386  1.1599
 7818SOL    HW225708   2.788   8.079   0.830 -0.4514  0.4580  0.0960
 7819SOL     OW25709   2.809   2.299   4.157  0.3734 -0.4602 -0.1412
 7819SOL    HW125710   2.862   2.225   4.128  1.0872 -0.4503  1.0478
 7819SOL    HW225711   2.857   2.377   4.128  0.7654 -0.4576  0.4871
 7820SOL     OW25712   3.371  10.015   2.538 -0.2906 -0.2121  0.1674
 7820SOL    HW125713   3.315  10.029   2.462  0.0314 -0.2577 -0.0766
 7820SOL    HW225714   3.441  10.080   2.530 -0.4391  0.0102  0.6032
 7821SOL     OW25715   5.557   9.782   8.048  0.7085  0.3460 -0.1896
 7821SOL    HW125716   5.561   9.785   8.143 -0.6413  1.0121 -0.1195
 7821SOL    HW225717   5.469   9.748   8.029  0.6564  0.9943 -1.1788
 7822SOL     OW25718  10.269   8.979   2.285  0.2920  0.5149 -0.8887
 7822SOL    HW125719  10.349   8.941   2.320 -0.7225  1.1276  2.5113
 7822SOL    HW225720  10.235   8.914   2.224  3.6991  0.6115 -3.1280
 7823SOL     OW25721   9.642   3.882   7.447  0.2634  0.4460  0.3974
 7823SOL    HW125722   9.716   3.942   7.457  0.5018  0.4566 -1.2144
 7823SOL    HW225723   9.566   3.932   7.475  0.7940  0.5912  1.6263
 7824SOL     OW25724  10.209   4.991   9.189 -0.3440  0.5390 -0.0235
 7824SOL    HW125725  10.145   5.047   9.146 -0.3794 -0.3380 -1.1417
 7824SOL    HW225726  10.265   4.959   9.119  0.3690  0.0567  0.7378
 7825SOL     OW25727   3.544   5.219   2.437 -0.1337  0.3064  0.2632
 7825SOL    HW125728   3.584   5.287   2.382  0.1340  0.0592  0.1484
 7825SOL    HW225729   3.615   5.189   2.493  0.6344 -2.1024 -1.8426
 7826SOL     OW25730   0.823   4.719   5.349 -0.5534 -0.3441 -0.5365
 7826SOL    HW125731   0.829   4.704   5.255 -0.7578  0.0616 -0.6158
 7826SOL    HW225732   0.753   4.661   5.378  0.6983 -1.8126 -0.3291
 7827SOL     OW25733   0.228   4.419   5.976  0.3882 -0.2664 -0.2710
 7827SOL    HW125734   0.258   4.509   5.968 -0.4179 -0.1307 -2.1375
 7827SOL    HW225735   0.196   4.396   5.889  0.0220 -2.1625  0.3173
 7828SOL     OW25736   6.947   8.156   8.875 -0.5268 -0.3990  0.1754
 7828SOL    HW125737   6.942   8.061   8.888  1.2981 -0.4642  0.7553
 7828SOL    HW225738   7.010   8.185   8.941  2.7246  0.4813 -2.9970
 7829SOL     OW25739   5.107   8.681   8.428  0.4665  0.3364  0.1837
 7829SOL    HW125740   5.084   8.773   8.444  0.1572  0.3692 -0.4078
 7829SOL    HW225741   5.028   8.632   8.449  0.4118  0.2754 -0.1598
 7830SOL     OW25742   7.368   2.380   1.273  0.0583  0.0038  0.3403
 7830SOL    HW125743   7.367   2.290   1.241 -0.4078  0.0044  0.3448
 7830SOL    HW225744   7.433   2.424   1.218  0.1919 -0.3022  0.2501
 7831SOL     OW25745   4.708   8.698  10.293  0.1167 -0.1822 -0.6675
 7831SOL    HW125746   4.747   8.761  10.233 -0.7177 -0.4016 -1.4678
 7831SOL    HW225747   4.684   8.624  10.237  0.1257 -0.7644  0.0882
 7832SOL     OW25748   0.710   7.117   7.770  0.7571  0.0526  1.0481
 7832SOL    HW125749   0.761   7.189   7.807  2.0958  0.1092 -0.7274
 7832SOL    HW225750   0.773   7.045   7.762  0.8114  0.3052 -1.7628
 7833SOL     OW25751   1.485   7.444   3.084  0.2082 -0.0446 -0.1940
 7833SOL    HW125752   1.555   7.474   3.142 -0.7246  1.3627  0.2701
 7833SOL    HW225753   1.510   7.474   2.997 -0.5162  1.8234  0.2051
 7834SOL     OW25754   2.968  10.242   2.440  0.0244 -0.2782  0.0186
 7834SOL    HW125755   2.961  10.331   2.474  0.4144 -0.3348  0.2509
 7834SOL    HW225756   2.941  10.250   2.348 -1.0734 -0.1320  0.3391
 7835SOL     OW25757   1.394   9.574   7.055  0.2117 -0.2266 -0.5226
 7835SOL    HW125758   1.357   9.496   7.094 -1.1245  0.5354 -0.2206
 7835SOL    HW225759   1.341   9.646   7.089  1.7261  0.8794 -0.3868
 7836SOL     OW25760   7.396   9.947   5.054  0.0892  0.4480  0.3473
 7836SOL    HW125761   7.449   9.883   5.007 -1.3299  0.0955 -0.8525
 7836SOL    HW225762   7.396   9.916   5.145  1.0026 -0.1556  0.1481
 7837SOL     OW25763   4.485   5.743   4.053  0.0303  0.6002  0.3195
 7837SOL    HW125764   4.581   5.744   4.050  0.0384 -0.3823 -0.1031
 7837SOL    HW225765   4.462   5.812   4.115  1.0706 -0.2676  1.7437
 7838SOL     OW25766   0.893   6.783   1.981  0.2790  0.2261  0.2450
 7838SOL    HW125767   0.874   6.746   1.895  1.7997  0.3466 -0.1704
 7838SOL    HW225768   0.851   6.869   1.980 -0.4974 -0.1494 -0.0161
 7839SOL     OW25769   7.573   9.545   4.437 -0.5378 -0.1042 -0.2926
 7839SOL    HW125770   7.576   9.615   4.372  2.5705 -3.6126 -4.4765
 7839SOL    HW225771   7.512   9.481   4.401  1.3427 -2.2125  0.0772
 7840SOL     OW25772  10.004   3.652   5.252 -0.1462  0.6833 -0.2377
 7840SOL    HW125773  10.089   3.616   5.277 -0.1305 -1.3016 -2.6977
 7840SOL    HW225774   9.940   3.597   5.297 -0.0950 -1.2121 -2.3273
 7841SOL     OW25775   5.728   5.212   2.481  0.0537  0.2237  0.2799
 7841SOL    HW125776   5.648   5.169   2.509  0.3002 -1.5409 -1.5506
 7841SOL    HW225777   5.706   5.254   2.398  0.2942  2.2826  1.1710
 7842SOL     OW25778   7.431   1.416   3.170 -0.1383  0.2261  0.1013
 7842SOL    HW125779   7.375   1.341   3.151 -0.1702  0.2058  0.2746
 7842SOL    HW225780   7.376   1.493   3.152 -0.4068  0.2053  0.8179
 7843SOL     OW25781   7.367   1.531   6.912 -0.2772  0.3740  1.0345
 7843SOL    HW125782   7.290   1.572   6.871  0.9290  1.9751  0.2861
 7843SOL    HW225783   7.441   1.582   6.881  0.9831 -0.2059  2.9152
 7844SOL     OW25784   9.407   8.124   6.706  0.1557 -0.0054 -0.1734
 7844SOL    HW125785   9.466   8.140   6.779  1.4097  0.0067 -1.1502
 7844SOL    HW225786   9.405   8.206   6.657  0.1712 -0.3242 -0.7262
 7845SOL     OW25787   8.689   9.991   8.950  0.0002 -0.6174 -1.0678
 7845SOL    HW125788   8.664  10.079   8.980 -0.8402 -0.3024 -2.5852
 7845SOL    HW225789   8.644   9.932   9.010  0.6814 -0.0358  0.0546
 7846SOL     OW25790   7.729  10.422   2.261  0.5528 -0.2378 -0.3583
 7846SOL    HW125791   7.684  10.501   2.229  0.2717 -0.2944 -0.1145
 7846SOL    HW225792   7.722  10.429   2.357  0.3014 -0.6871 -0.3425
 7847SOL     OW25793   7.699   9.433   8.630  0.4037  0.0739  0.3517
 7847SOL    HW125794   7.650   9.364   8.674  0.5284  1.5310  2.9211
 7847SOL    HW225795   7.789   9.423   8.662  0.3762  1.5526  0.9449
 7848SOL     OW25796   7.517   5.133   4.824 -0.1972 -0.7401 -0.3506
 7848SOL    HW125797   7.581   5.065   4.848  0.5186 -0.6509 -1.9253
 7848SOL    HW225798   7.568   5.199   4.779 -1.1297  0.2191 -0.0338
 7849SOL     OW25799   7.324  10.463   5.076  0.2318  0.3640  0.1509
 7849SOL    HW125800   7.254  10.509   5.028 -0.4154 -0.8088 -0.0715
 7849SOL    HW225801   7.305  10.370   5.062  0.0324 -0.0401  2.6638
 7850SOL     OW25802   2.775   5.244   4.489  0.6063  0.1465  0.0248
 7850SOL    HW125803   2.746   5.311   4.550  1.2426  0.1689  0.3205
 7850SOL    HW225804   2.734   5.266   4.406  0.5655  0.7247  0.1955
 7851SOL     OW25805   7.344   5.719   6.179  0.2217  0.3637  0.0377
 7851SOL    HW125806   7.368   5.633   6.214  0.4495  0.3858 -0.0644
 7851SOL    HW225807   7.294   5.699   6.099 -0.0621  0.3194  0.2263
 7852SOL     OW25808   2.537   4.317  10.261  0.0406  0.0867 -0.2006
 7852SOL    HW125809   2.623   4.280  10.279  0.3817  0.0687 -1.7402
 7852SOL    HW225810   2.535   4.328  10.166 -0.6821  2.5201  0.0451
 7853SOL     OW25811   0.619  10.377   0.056  0.2241 -0.1034  0.3256
 7853SOL    HW125812   0.546  10.316   0.051  0.8873 -1.0049  1.2925
 7853SOL    HW225813   0.641  10.381   0.149 -0.9095  2.9735  0.5882
 7854SOL     OW25814   6.816   8.737   6.645 -0.4981  0.0160  0.1030
 7854SOL    HW125815   6.832   8.813   6.589 -0.2223 -0.8994 -1.1046
 7854SOL    HW225816   6.733   8.756   6.688  1.0331  2.3985  2.2657
 7855SOL     OW25817   6.690   8.634   5.598  0.0476  0.2624  0.2005
 7855SOL    HW125818   6.782   8.660   5.600 -0.3135  1.6325  0.3680
 7855SOL    HW225819   6.668   8.613   5.688  0.0451  0.5424  0.2664
 7856SOL     OW25820   3.635   6.231   6.733  0.5306  0.1871  0.0417
 7856SOL    HW125821   3.596   6.288   6.800 -0.6353 -0.8701  0.3006
 7856SOL    HW225822   3.582   6.246   6.655  1.0239  0.3847 -0.2634
 7857SOL     OW25823   5.364   0.073   7.393 -0.2603  0.0473  0.0574
 7857SOL    HW125824   5.386  -0.020   7.395  0.7364  0.2281 -1.2849
 7857SOL    HW225825   5.307   0.086   7.469 -1.6055 -1.9348 -0.5695
 7858SOL     OW25826  10.250   0.046   7.819 -0.2313 -0.2734 -0.5158
 7858SOL    HW125827  10.288   0.111   7.760 -0.8052  0.3297 -0.2391
 7858SOL    HW225828  10.170   0.017   7.775 -0.4601 -0.1060 -0.2179
 7859SOL     OW25829   8.310  10.510   7.166  0.1052 -0.5278  0.5100
 7859SOL    HW125830   8.365  10.558   7.105 -0.8838 -0.6651 -0.5202
 7859SOL    HW225831   8.350  10.525   7.252 -0.0041  1.8874  0.1900
 7860SOL     OW25832   7.276   6.729   7.541 -0.7498  0.4616  0.8380
 7860SOL    HW125833   7.246   6.706   7.629  0.4048  0.9180  1.3730
 7860SOL    HW225834   7.270   6.648   7.491 -1.1945  0.1427  1.3986
 7861SOL     OW25835  10.469  10.369   2.381 -0.3950 -1.3193  0.5191
 7861SOL    HW125836  10.378  10.395   2.365  0.1190 -0.2842 -0.9541
 7861SOL    HW225837  10.483  10.387   2.474 -1.5319 -0.9495  0.6339
 7862SOL     OW25838   3.941   6.760   0.923 -0.0525 -0.5269  0.3298
 7862SOL    HW125839   3.974   6.710   0.998  0.5430  0.2884  0.6260
 7862SOL    HW225840   3.846   6.762   0.936 -0.0632 -1.4036  0.4213
 7863SOL     OW25841   7.164   5.623   3.333  0.1440 -0.1331  0.6258
 7863SOL    HW125842   7.170   5.624   3.238  0.5282 -1.3348  0.6163
 7863SOL    HW225843   7.250   5.591   3.362  0.3643  1.1068  1.4267
 7864SOL     OW25844   2.585   6.481   7.451 -0.1572 -0.5560  0.1828
 7864SOL    HW125845   2.609   6.394   7.418 -0.1662 -0.7545  0.6984
 7864SOL    HW225846   2.642   6.495   7.526  2.3390  1.3453 -1.8706
 7865SOL     OW25847   6.757   4.546   5.633  0.5921  0.6385  0.5875
 7865SOL    HW125848   6.704   4.495   5.693  1.0665 -0.1877  0.3299
 7865SOL    HW225849   6.807   4.480   5.584 -0.8581  1.1680 -1.7624
 7866SOL     OW25850   7.533   4.477   1.382 -0.1155 -0.2800  0.2734
 7866SOL    HW125851   7.555   4.463   1.290 -0.6413  1.1213 -0.0984
 7866SOL    HW225852   7.490   4.563   1.384 -0.4787 -0.4556  1.7707
 7867SOL     OW25853   2.607   1.588   2.932  0.3848 -0.1340 -0.0817
 7867SOL    HW125854   2.595   1.496   2.908  2.0230 -0.7085  1.1525
 7867SOL    HW225855   2.527   1.611   2.980  0.7062 -1.4705  1.1623
 7868SOL     OW25856  10.339   7.241   5.856  0.4433 -0.6660  0.5959
 7868SOL    HW125857  10.383   7.322   5.828 -1.1517  0.2373  0.6226
 7868SOL    HW225858  10.357   7.179   5.785  1.7424 -0.3400  0.6022
 7869SOL     OW25859   7.074   6.578   6.258  0.4066 -0.5116 -0.4955
 7869SOL    HW125860   7.148   6.637   6.276 -0.4090  0.1385  0.9631
 7869SOL    HW225861   7.048   6.545   6.345  0.2580 -2.3297 -1.1898
 7870SOL     OW25862   4.686  10.015   4.041 -0.1855 -0.0224  0.2845
 7870SOL    HW125863   4.728  10.009   4.127  0.4621 -1.1381 -0.0822
 7870SOL    HW225864   4.676   9.924   4.014 -1.9570  0.2500 -0.0911
 7871SOL     OW25865   2.554   2.344   2.625 -0.4186 -0.3593  0.0941
 7871SOL    HW125866   2.621   2.341   2.694 -1.2061 -0.2895  0.8722
 7871SOL    HW225867   2.510   2.259   2.630 -0.0200 -0.6317 -0.8031
 7872SOL     OW25868   7.696   6.916   8.068  0.1813 -0.2314 -0.1916
 7872SOL    HW125869   7.696   6.949   8.158 -0.3845 -1.8233  0.4284
 7872SOL    HW225870   7.672   6.992   8.015 -0.4660  0.5116  1.1071
 7873SOL     OW25871   3.414   5.034   0.213  0.4974 -0.5747 -0.6539
 7873SOL    HW125872   3.493   5.002   0.258  0.6783 -0.7460 -1.0852
 7873SOL    HW225873   3.341   4.995   0.261  0.6727 -0.4606 -0.2857
 7874SOL     OW25874  10.536   8.010   7.813  0.6142 -0.0678 -0.2404
 7874SOL    HW125875  10.534   8.073   7.885  1.5122  0.0712 -0.3312
 7874SOL    HW225876  10.456   8.029   7.763  0.8808  1.0191 -0.2785
 7875SOL     OW25877   4.953   9.184   9.473  0.4869 -0.4591  0.4334
 7875SOL    HW125878   4.914   9.145   9.551  1.9180 -0.3855  1.2149
 7875SOL    HW225879   4.940   9.278   9.484  1.5902 -0.3676  1.1234
 7876SOL     OW25880   5.499  10.176   0.494 -0.0150  0.1835  0.8053
 7876SOL    HW125881   5.572  10.218   0.449  0.6933 -0.1249  1.6392
 7876SOL    HW225882   5.448  10.135   0.424 -0.1428  1.5204  0.0786
 7877SOL     OW25883   1.859  10.183   0.989 -0.5904 -0.3936 -0.1911
 7877SOL    HW125884   1.944  10.193   1.032 -0.4993 -2.0994  0.0733
 7877SOL    HW225885   1.865  10.100   0.942 -2.2682 -0.7670  0.1940
 7878SOL     OW25886   6.481   0.867  10.578 -0.1865 -0.1702 -0.0757
 7878SOL    HW125887   6.566   0.889  10.539 -0.2384  0.7500  0.3055
 7878SOL    HW225888   6.417   0.899  10.515 -0.2672 -1.1656 -0.5228
 7879SOL     OW25889   4.475   2.549   6.766 -0.2722 -0.1628  0.0509
 7879SOL    HW125890   4.405   2.524   6.827  0.0920 -0.5197  0.3300
 7879SOL    HW225891   4.554   2.549   6.820  0.1381 -0.9917 -0.5249
 7880SOL     OW25892   3.493   5.627   3.234  0.3143  0.4077 -0.3823
 7880SOL    HW125893   3.472   5.700   3.292 -2.5307 -0.4554 -0.1344
 7880SOL    HW225894   3.526   5.559   3.293  0.2551  0.5424 -0.1911
 7881SOL     OW25895   3.838   8.880   1.729  0.3844  0.3406  0.0263
 7881SOL    HW125896   3.891   8.958   1.710  1.0682 -0.1880 -0.2840
 7881SOL    HW225897   3.807   8.893   1.818  0.0491  1.2217 -0.2107
 7882SOL     OW25898   2.142   2.595   9.947  0.0986  0.4107  0.2618
 7882SOL    HW125899   2.068   2.653   9.964 -0.9004 -0.9643  0.7970
 7882SOL    HW225900   2.205   2.615  10.016 -0.5868  0.3084  0.9236
 7883SOL     OW25901   0.421   8.248   3.436 -0.0536  0.0132 -0.0736
 7883SOL    HW125902   0.470   8.227   3.357 -2.3144  0.3799 -1.6621
 7883SOL    HW225903   0.366   8.170   3.451 -0.5388  0.4368  0.3954
 7884SOL     OW25904  10.487   3.798   4.949  0.4388  0.2779 -0.3257
 7884SOL    HW125905  10.395   3.796   4.922  0.8553 -0.4003 -1.7745
 7884SOL    HW225906  10.508   3.892   4.952  0.1903  0.4093 -1.8067
 7885SOL     OW25907   1.408   0.276   3.642  0.6614  0.0214 -0.0135
 7885SOL    HW125908   1.434   0.365   3.618  0.4045 -0.5863 -2.8771
 7885SOL    HW225909   1.477   0.246   3.702  1.9706  1.3830 -0.7758
 7886SOL     OW25910   6.324   3.066   6.405  0.1786 -0.2083 -0.0645
 7886SOL    HW125911   6.334   3.110   6.489 -1.5770 -0.2112  0.1914
 7886SOL    HW225912   6.289   3.134   6.347  1.7510 -0.0958 -0.9364
 7887SOL     OW25913   1.284   7.713   2.848 -0.0683 -0.3068  0.0757
 7887SOL    HW125914   1.290   7.652   2.775 -1.1703 -1.7209  1.1070
 7887SOL    HW225915   1.299   7.799   2.809  5.2154 -1.3128 -0.9571
 7888SOL     OW25916   5.456   7.340   6.333  0.0595 -0.0600 -0.0764
 7888SOL    HW125917   5.475   7.299   6.249  0.1929  0.1211 -0.1357
 7888SOL    HW225918   5.542   7.356   6.371 -0.0031 -0.3620  0.2034
 7889SOL     OW25919   1.335   1.751   2.878 -1.0056 -0.4654 -0.4458
 7889SOL    HW125920   1.360   1.727   2.789 -2.3682 -0.3912 -0.8596
 7889SOL    HW225921   1.320   1.668   2.922  2.1588 -0.6680  0.5412
 7890SOL     OW25922   6.501  10.301   5.820  0.4906  0.5872 -0.1186
 7890SOL    HW125923   6.539  10.376   5.773  1.3948  0.2151 -0.0008
 7890SOL    HW225924   6.560  10.229   5.801  0.5828  0.3030  1.1580
 7891SOL     OW25925   9.387   5.285   9.784  0.4232  0.5060 -0.0267
 7891SOL    HW125926   9.314   5.341   9.811  1.5185  1.3072  1.4193
 7891SOL    HW225927   9.441   5.277   9.863  1.2594 -1.0861 -0.7198
 7892SOL     OW25928   8.882   2.096   4.438 -0.3084  0.1311  0.0489
 7892SOL    HW125929   8.854   2.180   4.475  1.6899  0.4100  1.0637
 7892SOL    HW225930   8.882   2.110   4.343  1.9459  2.0213  0.2438
 7893SOL     OW25931   1.907   6.490   6.739  0.2509 -0.0458 -0.0223
 7893SOL    HW125932   1.851   6.550   6.788  0.3273 -0.8273  1.0446
 7893SOL    HW225933   1.939   6.428   6.804  1.5382 -0.2318 -0.8104
 7894SOL     OW25934  10.531   7.392   5.250  0.6448  0.3574  0.2207
 7894SOL    HW125935  10.535   7.472   5.301 -0.3023 -0.2444  1.2949
 7894SOL    HW225936  10.514   7.323   5.314  2.2285 -0.8456 -0.5577
 7895SOL     OW25937   1.287   6.482   1.663  0.1786 -0.3830 -0.0835
 7895SOL    HW125938   1.196   6.453   1.653  0.0414  0.8532 -4.1671
 7895SOL    HW225939   1.336   6.402   1.684 -1.6010 -1.3528  0.5397
 7896SOL     OW25940   0.071   0.731   5.651  0.4845 -0.0395 -0.0947
 7896SOL    HW125941  -0.006   0.762   5.605  0.5532 -0.5064 -0.5405
 7896SOL    HW225942   0.041   0.713   5.740  0.4953  1.4653  0.2242
 7897SOL     OW25943   7.231   5.975   0.256  0.0996 -0.2022 -0.2712
 7897SOL    HW125944   7.269   5.993   0.342  1.4479 -0.7598 -0.7103
 7897SOL    HW225945   7.277   6.035   0.197 -1.9473  1.3223 -0.4124
 7898SOL     OW25946   1.541   7.209   6.833  0.5586  0.3088 -0.6811
 7898SOL    HW125947   1.457   7.238   6.796  0.4669  0.8658 -0.0537
 7898SOL    HW225948   1.519   7.130   6.881  0.2248  0.9133  0.1850
 7899SOL     OW25949   9.938   7.688   6.066  0.5385 -0.6575  0.0606
 7899SOL    HW125950   9.848   7.704   6.036  0.4442 -0.0067  0.6523
 7899SOL    HW225951   9.941   7.594   6.082 -0.3616 -0.5490  1.0021
 7900SOL     OW25952   7.918   1.967   7.598 -0.3249  0.4555  0.6087
 7900SOL    HW125953   7.992   1.939   7.652  0.3543 -2.6659 -1.7111
 7900SOL    HW225954   7.848   1.984   7.661  1.1489 -0.4676  2.6150
 7901SOL     OW25955   0.625   7.660   2.417  0.1740 -0.0396  0.2090
 7901SOL    HW125956   0.721   7.658   2.412  0.1898  0.5895  0.1509
 7901SOL    HW225957   0.605   7.627   2.504  0.3814 -1.3297 -0.2076
 7902SOL     OW25958   2.836   7.020   3.558 -0.1224 -0.1493 -0.6607
 7902SOL    HW125959   2.766   6.956   3.569 -1.5401  1.4618  0.1584
 7902SOL    HW225960   2.899   6.999   3.628 -0.3166 -0.9313 -0.7127
 7903SOL     OW25961   5.710   1.333   0.529  0.1330  0.4693  0.3834
 7903SOL    HW125962   5.647   1.386   0.481  0.0167  0.4049  0.4650
 7903SOL    HW225963   5.684   1.341   0.621 -0.1246 -0.0449  0.3582
 7904SOL     OW25964   7.189   2.187   0.963 -0.3707  0.1877 -0.2787
 7904SOL    HW125965   7.260   2.128   0.936  0.3461  1.3796 -1.0805
 7904SOL    HW225966   7.218   2.220   1.048  1.1271  2.2895 -1.5257
 7905SOL     OW25967   0.796   1.817   4.406  0.2798 -1.0150 -0.3889
 7905SOL    HW125968   0.704   1.814   4.432  0.6657 -1.8296  0.9678
 7905SOL    HW225969   0.841   1.860   4.479  1.0325 -0.9592 -0.8703
 7906SOL     OW25970   0.294   5.611   6.890  0.7985 -0.0269 -0.3679
 7906SOL    HW125971   0.384   5.639   6.873  0.6456  0.0959 -1.0280
 7906SOL    HW225972   0.291   5.520   6.860  0.3674  0.3762 -1.6281
 7907SOL     OW25973  10.643   8.307   6.371 -0.5020 -0.4807 -0.5985
 7907SOL    HW125974  10.553   8.308   6.405 -0.8616  1.2631 -1.4995
 7907SOL    HW225975  10.687   8.239   6.422 -1.5577  0.5915  1.9407
 7908SOL     OW25976   6.539   1.042   9.206  0.4340 -0.8531  0.3006
 7908SOL    HW125977   6.558   1.116   9.263 -3.0725  0.0289  0.5799
 7908SOL    HW225978   6.486   1.079   9.135  1.2974 -2.6044 -1.3552
 7909SOL     OW25979   4.503   8.033   7.340  0.2090 -0.3395  0.1615
 7909SOL    HW125980   4.519   8.037   7.434  1.6291  1.8921 -0.0961
 7909SOL    HW225981   4.571   7.975   7.306  0.0370 -0.7062  0.4419
 7910SOL     OW25982   8.143   3.503   6.660  0.4685 -0.0146 -0.6368
 7910SOL    HW125983   8.162   3.409   6.668 -0.2875 -0.0895  0.4328
 7910SOL    HW225984   8.118   3.515   6.568  0.7895 -0.8191 -0.8345
 7911SOL     OW25985   8.020   2.215   3.644 -0.2643 -0.2154  0.9036
 7911SOL    HW125986   7.960   2.150   3.607 -0.8829  0.2244  1.1205
 7911SOL    HW225987   7.972   2.253   3.717 -0.1037  0.8513  0.4725
 7912SOL     OW25988  10.260   1.343   2.360  0.1693  0.1512  0.0407
 7912SOL    HW125989  10.176   1.335   2.317  0.1224 -0.9814  0.3117
 7912SOL    HW225990  10.296   1.254   2.361  0.9036  0.4322  0.8473
 7913SOL     OW25991   5.411   8.605   3.595  0.3817 -0.0116  0.1461
 7913SOL    HW125992   5.431   8.595   3.688  1.4152 -2.9082 -0.2996
 7913SOL    HW225993   5.494   8.591   3.550 -0.6926 -2.2074 -1.3300
 7914SOL     OW25994   5.056   1.418   6.571 -0.3062  0.4633 -0.2802
 7914SOL    HW125995   5.039   1.324   6.581  2.7940 -0.2663 -1.0817
 7914SOL    HW225996   5.074   1.449   6.660 -0.0317  0.0002 -0.1723
 7915SOL     OW25997   2.870   4.274   3.235  0.7163 -0.0061 -0.0522
 7915SOL    HW125998   2.846   4.196   3.185  0.4777  1.2242 -1.9734
 7915SOL    HW225999   2.848   4.252   3.326 -0.7640 -1.6307 -0.7349
 7916SOL     OW26000   2.843   3.081   1.252 -0.1963 -0.4708  0.4183
 7916SOL    HW126001   2.863   2.988   1.262 -2.4910 -1.0414  0.2664
 7916SOL    HW226002   2.802   3.106   1.335  0.7455  0.5356  0.6055
 7917SOL     OW26003   5.575   1.834   1.106  0.4020  0.2849 -0.3025
 7917SOL    HW126004   5.622   1.817   1.188  1.0623 -0.2690 -0.7815
 7917SOL    HW226005   5.550   1.926   1.111 -0.2856  0.0565  0.8773
 7918SOL     OW26006   3.441   5.110   1.064 -0.3002 -0.0331  0.3707
 7918SOL    HW126007   3.426   5.135   1.155 -1.2636 -0.1978  0.2744
 7918SOL    HW226008   3.412   5.186   1.013  4.0310  1.7700  0.2544
 7919SOL     OW26009   7.086   0.875   9.986 -0.0141 -0.3279 -0.3535
 7919SOL    HW126010   7.138   0.795   9.978  1.0616 -0.0117  2.3460
 7919SOL    HW226011   7.046   0.869  10.072 -1.6296  1.1070 -0.9433
 7920SOL     OW26012   5.211   2.001   8.957  0.3533 -0.6268  0.1250
 7920SOL    HW126013   5.253   1.928   8.912  3.2711  0.6630  0.4899
 7920SOL    HW226014   5.216   2.073   8.894 -1.3847 -0.3946  0.2094
 7921SOL     OW26015   1.190   1.955   6.267 -0.2622 -0.4793  0.0797
 7921SOL    HW126016   1.225   1.909   6.191 -3.1135 -0.5556 -1.3402
 7921SOL    HW226017   1.168   2.043   6.234  0.9298  0.4267  1.5653
 7922SOL     OW26018   6.751   6.398   2.243 -0.0886 -0.5775 -0.2149
 7922SOL    HW126019   6.814   6.346   2.193 -0.1442 -0.8740  0.0193
 7922SOL    HW226020   6.763   6.369   2.333  1.5914  1.5356  0.3185
 7923SOL     OW26021   5.433   0.538   0.843 -0.1216  0.8456  0.8979
 7923SOL    HW126022   5.468   0.623   0.868 -2.4907  1.2219  3.5253
 7923SOL    HW226023   5.346   0.557   0.808 -0.3059 -0.4268  0.6093
 7924SOL     OW26024   5.318   8.573   8.566 -0.6483  0.0436  0.1735
 7924SOL    HW126025   5.273   8.632   8.505 -1.5794 -1.0403 -0.2427
 7924SOL    HW226026   5.280   8.487   8.547  2.2802 -1.1513 -0.8497
 7925SOL     OW26027   1.908   4.901  10.391  0.6529  0.3098 -0.3478
 7925SOL    HW126028   1.997   4.901  10.356  0.0788 -0.2312 -1.8774
 7925SOL    HW226029   1.852   4.879  10.317 -0.9856  2.6537  0.0476
 7926SOL     OW26030   4.524   9.432   6.346 -0.2020  0.1065  0.4232
 7926SOL    HW126031   4.460   9.437   6.418  1.6290 -2.0018  2.3862
 7926SOL    HW226032   4.554   9.342   6.348  0.7705  0.2840 -2.3601
 7927SOL     OW26033   7.897   3.666   7.678 -0.2187 -0.0968  0.3052
 7927SOL    HW126034   7.991   3.676   7.694  0.1690 -3.3601  0.6345
 7927SOL    HW226035   7.883   3.709   7.594  2.1962 -1.9240 -1.1551
 7928SOL     OW26036   8.449   3.444   1.036  0.1070 -0.3756  0.0840
 7928SOL    HW126037   8.475   3.437   1.128  1.3174 -2.3419 -0.3492
 7928SOL    HW226038   8.512   3.507   0.999 -0.7322  0.8529  0.6751
 7929SOL     OW26039   5.282  10.081   6.891 -0.0919 -0.1825  0.3257
 7929SOL    HW126040   5.282   9.993   6.854  2.1982  0.1241 -0.5436
 7929SOL    HW226041   5.349  10.128   6.842 -1.9324  2.3936  0.0400
 7930SOL     OW26042   6.025  10.651   0.344  0.4381 -0.0781 -0.2107
 7930SOL    HW126043   6.029  10.744   0.362  0.9465  0.3276 -2.1594
 7930SOL    HW226044   6.026  10.645   0.248  0.3017 -2.0716 -0.1314
 7931SOL     OW26045   7.037   6.614   4.294  0.2674  0.5963 -0.1392
 7931SOL    HW126046   6.944   6.591   4.285  0.7429 -1.3911 -0.3520
 7931SOL    HW226047   7.036   6.696   4.345 -1.5768  0.3619  0.2834
 7932SOL     OW26048   4.704   0.077   9.443 -0.0995  0.6522  0.0259
 7932SOL    HW126049   4.655  -0.006   9.448 -1.0235  1.0455 -1.5933
 7932SOL    HW226050   4.731   0.094   9.533 -0.2119 -1.2079  0.4649
 7933SOL     OW26051   0.766   5.332   8.936  0.2981  0.7626 -0.4492
 7933SOL    HW126052   0.779   5.401   8.872  2.7231  0.9752  0.1793
 7933SOL    HW226053   0.694   5.364   8.991  0.0559  1.8412 -1.3556
 7934SOL     OW26054   8.323   6.735   1.197 -0.3354  0.4247  0.2325
 7934SOL    HW126055   8.234   6.709   1.223  0.1417  0.7147  2.3761
 7934SOL    HW226056   8.318   6.830   1.187 -0.4241  0.3608 -0.3149
 7935SOL     OW26057   6.694   6.058   8.790 -0.3050  0.2279 -0.1686
 7935SOL    HW126058   6.604   6.032   8.812 -0.3152  0.1045 -0.3590
 7935SOL    HW226059   6.746   5.980   8.805 -0.4439 -0.1377 -1.4490
 7936SOL     OW26060   4.090   4.345   5.320 -0.5079 -0.0532 -0.2350
 7936SOL    HW126061   4.045   4.305   5.246  1.1131 -1.9468 -0.3061
 7936SOL    HW226062   4.171   4.294   5.328  1.0341  2.3772  0.6358
 7937SOL     OW26063   7.183   6.663   5.002  0.1921  0.1598 -0.3815
 7937SOL    HW126064   7.248   6.715   5.049  0.8810 -0.9254 -0.1001
 7937SOL    HW226065   7.100   6.706   5.020  0.7686  1.2894 -0.3446
 7938SOL     OW26066   4.057   9.562   5.587 -0.2413 -0.6088 -0.0955
 7938SOL    HW126067   4.065   9.484   5.532 -2.4571 -0.2372 -1.0551
 7938SOL    HW226068   3.970   9.554   5.627  0.1676  0.5611  1.0894
 7939SOL     OW26069   8.748   6.303   0.728  0.3518  0.0354  0.8891
 7939SOL    HW126070   8.788   6.354   0.658  1.0742 -1.6004  0.0892
 7939SOL    HW226071   8.765   6.355   0.807  1.0880  1.0146  0.1155
 7940SOL     OW26072   9.302   0.792   2.847  0.3340 -0.5929 -0.0105
 7940SOL    HW126073   9.321   0.860   2.911 -1.6772  0.5733 -0.5460
 7940SOL    HW226074   9.372   0.728   2.858  1.2437  0.6277  1.8255
 7941SOL     OW26075   2.191   5.181   9.678  0.0072  0.6924  0.3960
 7941SOL    HW126076   2.168   5.185   9.771  0.5384 -0.4271  0.5867
 7941SOL    HW226077   2.213   5.089   9.662  1.9344  1.2238 -0.3254
 7942SOL     OW26078   3.297   1.646  10.299 -0.3400  0.0397  0.1594
 7942SOL    HW126079   3.278   1.607  10.385  1.6220 -1.3120  0.0648
 7942SOL    HW226080   3.237   1.602  10.239 -1.1035  0.3339  0.6947
 7943SOL     OW26081   3.885   5.388   7.544  0.4589  0.4777 -0.5270
 7943SOL    HW126082   3.791   5.387   7.562  0.1217 -0.5293 -2.0593
 7943SOL    HW226083   3.890   5.393   7.448  1.9658  0.3037 -0.4758
 7944SOL     OW26084   5.108   2.026   6.912  0.1955 -0.0521 -0.8249
 7944SOL    HW126085   5.160   1.991   6.840  0.0347 -1.7337 -0.1687
 7944SOL    HW226086   5.036   2.073   6.870  1.5373  1.2840 -1.7395
 7945SOL     OW26087   7.921   0.187   0.442 -0.2347 -0.4089  0.1155
 7945SOL    HW126088   7.966   0.158   0.362  0.0835 -0.6910  0.3957
 7945SOL    HW226089   7.863   0.257   0.412  0.9310  0.4786 -0.1288
 7946SOL     OW26090   7.735   4.076   4.088 -0.0674 -0.1349  0.1508
 7946SOL    HW126091   7.806   4.139   4.073 -0.5004  0.1050 -1.0266
 7946SOL    HW226092   7.775   3.990   4.070 -0.3685  0.0921 -1.8150
 7947SOL     OW26093   2.827   4.494   7.110  0.0956  0.0420 -0.0709
 7947SOL    HW126094   2.751   4.541   7.142  0.2665 -0.5551  1.2745
 7947SOL    HW226095   2.859   4.546   7.036 -1.1506  0.6999 -0.1619
 7948SOL     OW26096   3.010   3.957   5.675  0.1278 -0.2161 -0.8115
 7948SOL    HW126097   3.077   4.024   5.673 -0.1088  0.0107 -2.2056
 7948SOL    HW226098   3.034   3.901   5.749  0.7507  0.9465 -0.1063
 7949SOL     OW26099   9.185   3.784   5.785  0.1140  0.2496 -0.0421
 7949SOL    HW126100   9.110   3.739   5.745 -1.6288  1.0512  2.1458
 7949SOL    HW226101   9.183   3.755   5.876  0.6085  2.6233  0.7642
 7950SOL     OW26102   1.396   5.288   5.413 -0.2434 -0.0544 -0.5210
 7950SOL    HW126103   1.491   5.297   5.422  0.0229 -2.0607 -0.8826
 7950SOL    HW226104   1.360   5.326   5.494  0.7930  1.3809 -0.6985
 7951SOL     OW26105   7.438   0.413   9.708 -0.3961  0.3676 -0.2295
 7951SOL    HW126106   7.390   0.349   9.760  0.6045 -0.5321 -0.3888
 7951SOL    HW226107   7.378   0.434   9.636 -0.9143 -0.0462  0.0718
 7952SOL     OW26108   5.901   2.539   0.181 -0.0364 -0.1685 -0.1471
 7952SOL    HW126109   5.970   2.508   0.239  2.1715  1.3047 -1.7902
 7952SOL    HW226110   5.859   2.610   0.229 -0.2753 -0.9260  0.7908
 7953SOL     OW26111   1.457   0.368   2.757 -0.4880 -0.1886 -0.2662
 7953SOL    HW126112   1.541   0.324   2.769 -0.2469  0.6901  1.5986
 7953SOL    HW226113   1.392   0.301   2.778 -0.2153 -0.4007 -0.1006
 7954SOL     OW26114   1.261   9.541   9.430  0.2736 -0.0763  0.1739
 7954SOL    HW126115   1.288   9.469   9.486 -1.7252 -0.9289  0.1282
 7954SOL    HW226116   1.241   9.500   9.346 -2.3957  0.2045  0.5948
 7955SOL     OW26117   0.298   7.472   9.574 -0.2471 -0.3384 -0.9466
 7955SOL    HW126118   0.264   7.422   9.648 -1.4038 -0.3479 -1.4654
 7955SOL    HW226119   0.221   7.514   9.536  0.8226  3.5635  0.6825
 7956SOL     OW26120   0.618   7.465   1.942 -0.4822  0.6902  0.3955
 7956SOL    HW126121   0.538   7.445   1.892  0.3775 -1.2966 -0.3112
 7956SOL    HW226122   0.627   7.560   1.936 -1.6693  0.7497 -1.2876
 7957SOL     OW26123   6.453  10.326   6.776  0.3246 -0.1238 -0.8536
 7957SOL    HW126124   6.379  10.274   6.808  0.9096 -1.2925 -1.3612
 7957SOL    HW226125   6.506  10.342   6.854  0.7219 -1.2669 -0.8777
 7958SOL     OW26126   7.766   7.693   3.877  0.8234  0.6104 -0.2889
 7958SOL    HW126127   7.714   7.658   3.949 -0.5003  3.1116  0.0703
 7958SOL    HW226128   7.845   7.638   3.875 -0.7901 -1.9020  0.5755
 7959SOL     OW26129   6.288   2.033   1.030  0.5036 -0.2475  0.3469
 7959SOL    HW126130   6.323   1.945   1.018  0.9619  0.0329 -0.4698
 7959SOL    HW226131   6.215   2.022   1.090  1.3669 -0.9959  1.2935
 7960SOL     OW26132   2.926   4.621  10.608 -0.2994 -0.1810 -0.0877
 7960SOL    HW126133   3.006   4.612  10.659  0.2576 -0.0157 -0.9172
 7960SOL    HW226134   2.871   4.680  10.660 -0.2309 -0.9543  0.8871
 7961SOL     OW26135   8.493   8.715   8.464 -0.2599 -0.7276 -0.2278
 7961SOL    HW126136   8.517   8.648   8.399  2.1699 -0.4430  0.2701
 7961SOL    HW226137   8.461   8.665   8.539  0.9979 -1.3389 -0.0754
 7962SOL     OW26138   3.576   2.293   6.359 -0.0580  0.0654 -0.1543
 7962SOL    HW126139   3.657   2.243   6.362  0.8016  1.4084  0.0134
 7962SOL    HW226140   3.604   2.385   6.364 -1.6623  0.5288  1.8409
 7963SOL     OW26141   1.173   4.899   3.794 -0.5039 -0.6270  0.1815
 7963SOL    HW126142   1.127   4.843   3.731 -1.1728  0.0570  0.0538
 7963SOL    HW226143   1.103   4.939   3.845 -0.0622  0.5118 -0.0871
 7964SOL     OW26144   0.917   5.631  10.466 -0.1531  0.8804  0.1371
 7964SOL    HW126145   0.895   5.715  10.507  0.3784  1.2460 -0.2995
 7964SOL    HW226146   1.013   5.630  10.463 -0.1328 -0.0960  0.8339
 7965SOL     OW26147   0.791   0.047   1.816 -0.4601 -0.4394 -0.1464
 7965SOL    HW126148   0.851   0.034   1.743  0.1514  0.9033  0.0922
 7965SOL    HW226149   0.738   0.122   1.791  0.2347  0.4828  1.0735
 7966SOL     OW26150   0.717   3.387   9.414 -0.2320 -0.0090  0.3614
 7966SOL    HW126151   0.740   3.378   9.321  0.7033 -2.0977  0.7376
 7966SOL    HW226152   0.696   3.480   9.425 -1.7145  0.0490 -2.2327
 7967SOL     OW26153   7.712   9.667   6.483  0.3639  0.1731  0.0727
 7967SOL    HW126154   7.748   9.620   6.559 -0.9416  1.3587  1.5001
 7967SOL    HW226155   7.666   9.600   6.433 -1.0134 -0.2337  1.7878
 7968SOL     OW26156   9.919   9.669   3.711 -0.3662 -0.2292 -0.6248
 7968SOL    HW126157   9.849   9.666   3.777 -1.2532  1.6578 -1.4025
 7968SOL    HW226158   9.934   9.578   3.688 -1.6350 -0.7695  0.5511
 7969SOL     OW26159   4.379   8.857   5.292 -0.0084  0.6209 -0.2002
 7969SOL    HW126160   4.377   8.783   5.231  0.4143  0.0140  0.4900
 7969SOL    HW226161   4.470   8.859   5.323 -0.4986  0.0835  1.3751
 7970SOL     OW26162   2.642   3.703  10.157  0.3791 -0.0331  0.1671
 7970SOL    HW126163   2.603   3.768  10.216 -0.6600 -0.8968  0.4541
 7970SOL    HW226164   2.588   3.707  10.078  1.2379  0.5011 -0.4107
 7971SOL     OW26165   2.553   5.204   3.111  0.1462  0.4305 -0.5290
 7971SOL    HW126166   2.472   5.224   3.159  0.2106 -2.0580  0.8296
 7971SOL    HW226167   2.523   5.178   3.024 -0.6234 -0.8905  0.0913
 7972SOL     OW26168   3.202   6.256   4.381 -0.3913  0.3691 -0.1411
 7972SOL    HW126169   3.203   6.256   4.477 -1.3211 -0.3006 -0.1079
 7972SOL    HW226170   3.111   6.278   4.358 -0.5089 -0.7387 -0.8279
 7973SOL     OW26171   9.205   9.875   2.203 -0.2486 -0.0410  0.4768
 7973SOL    HW126172   9.176   9.955   2.247  1.2150 -0.9898  3.3935
 7973SOL    HW226173   9.281   9.846   2.253 -0.2199 -2.8253 -0.9895
 7974SOL     OW26174   4.945   5.720   2.197 -0.2932  0.1139 -0.6080
 7974SOL    HW126175   4.853   5.704   2.218 -0.5749 -0.5801 -2.2171
 7974SOL    HW226176   4.950   5.713   2.102  1.3143  0.7922 -0.6129
 7975SOL     OW26177   9.728   0.582   9.098 -0.7994  0.2333  0.5907
 7975SOL    HW126178   9.718   0.655   9.160 -1.1092  1.9022 -1.3127
 7975SOL    HW226179   9.640   0.548   9.085 -1.1613  1.6008 -0.8335
 7976SOL     OW26180   6.252   1.768   2.445 -0.3038  0.0416  0.2631
 7976SOL    HW126181   6.284   1.770   2.354  0.7262 -0.8220  0.5779
 7976SOL    HW226182   6.176   1.710   2.441 -0.6659  0.5345 -0.1575
 7977SOL     OW26183   9.273   1.525   7.654 -0.0056 -0.4230  0.0041
 7977SOL    HW126184   9.227   1.594   7.702  0.6770 -0.0314  0.0949
 7977SOL    HW226185   9.210   1.452   7.652  0.2447 -0.7658  2.2425
 7978SOL     OW26186   6.510   8.220   6.281  0.1985  0.4075  0.3014
 7978SOL    HW126187   6.508   8.160   6.206 -2.8564 -0.9341  1.2971
 7978SOL    HW226188   6.565   8.176   6.346  0.0194 -0.1162  0.0999
 7979SOL     OW26189   3.873   2.072   9.396 -0.0822 -0.1457 -0.3145
 7979SOL    HW126190   3.780   2.095   9.385  0.1137  1.6961  1.4054
 7979SOL    HW226191   3.872   1.978   9.412 -1.6364 -0.2151 -0.6115
 7980SOL     OW26192   3.777   8.467   9.404 -0.0370  0.1286  0.4806
 7980SOL    HW126193   3.854   8.500   9.449  1.1326 -2.2406  0.4196
 7980SOL    HW226194   3.776   8.514   9.321  2.4359 -0.9122 -0.2662
 7981SOL     OW26195   2.978   8.197   9.494 -0.3018  0.5357  0.0517
 7981SOL    HW126196   2.918   8.218   9.422 -0.0237  0.4987 -0.1913
 7981SOL    HW226197   3.065   8.217   9.459 -0.2303  1.4259  0.6985
 7982SOL     OW26198   6.098   8.602   3.887  0.3741 -0.6683  0.1247
 7982SOL    HW126199   6.070   8.664   3.954 -0.3646 -0.1155 -0.6682
 7982SOL    HW226200   6.176   8.562   3.923 -0.1901 -0.6305  1.4603
 7983SOL     OW26201   4.303   0.129   5.279 -0.3246 -0.7600 -0.7275
 7983SOL    HW126202   4.220   0.102   5.242 -1.1087  0.7848 -0.2107
 7983SOL    HW226203   4.279   0.180   5.357  1.2032 -3.8772  2.0714
 7984SOL     OW26204   0.923   3.956   1.060  0.0609 -0.2636  0.2230
 7984SOL    HW126205   0.848   3.961   1.120  0.7675 -0.6383  1.1582
 7984SOL    HW226206   0.902   3.883   1.002 -0.2638 -0.4242  0.5353
 7985SOL     OW26207   8.622   8.925   1.799  0.1645  0.3685  0.3618
 7985SOL    HW126208   8.622   8.934   1.894 -2.1625 -2.1536  0.7466
 7985SOL    HW226209   8.701   8.971   1.770  1.2590  0.7399  3.5399
 7986SOL     OW26210   4.816   9.378   0.982 -0.1897 -0.1541  0.3264
 7986SOL    HW126211   4.871   9.394   0.905  0.9717 -3.9586  0.1785
 7986SOL    HW226212   4.870   9.406   1.056  0.7596 -1.0270 -0.0069
 7987SOL     OW26213   0.672   8.691  10.189 -0.8600  0.1981  0.3126
 7987SOL    HW126214   0.755   8.691  10.140 -1.9966 -1.2898 -1.7555
 7987SOL    HW226215   0.639   8.780  10.180 -0.8921  0.0312 -1.4392
 7988SOL     OW26216   5.526   5.450   2.125 -0.1520  0.1899  0.3728
 7988SOL    HW126217   5.502   5.495   2.044  0.1371 -2.0554 -1.0557
 7988SOL    HW226218   5.577   5.374   2.096 -1.1792 -1.4428  2.5559
 7989SOL     OW26219   0.123   4.339   3.293 -0.3199 -0.1520 -0.0723
 7989SOL    HW126220   0.109   4.354   3.199 -3.6763 -1.7774 -0.0162
 7989SOL    HW226221   0.102   4.246   3.305 -2.4531  0.5264  2.5678
 7990SOL     OW26222   2.000   9.983   0.867  0.0675 -0.4353  0.2995
 7990SOL    HW126223   1.952   9.933   0.802 -0.6103 -0.8896  1.1304
 7990SOL    HW226224   2.078  10.014   0.821 -0.1024 -1.2459 -0.5558
 7991SOL     OW26225   3.622   3.884   8.741 -0.3065  0.3613 -0.3213
 7991SOL    HW126226   3.570   3.914   8.816  1.8588 -0.1974  1.5267
 7991SOL    HW226227   3.681   3.957   8.722  0.3866 -0.1674 -0.2521
 7992SOL     OW26228   4.713   5.064   4.616  0.1914  0.1223 -0.4546
 7992SOL    HW126229   4.649   5.001   4.650 -0.4470  1.0728  0.1360
 7992SOL    HW226230   4.734   5.120   4.690  0.3635  0.9287 -1.0982
 7993SOL     OW26231   9.728   8.515   6.508  0.0588  0.3305 -0.0494
 7993SOL    HW126232   9.662   8.574   6.471 -1.2765 -0.8301  0.3929
 7993SOL    HW226233   9.747   8.552   6.594  1.2236  1.5585 -0.7822
 7994SOL     OW26234   2.825  10.070   5.412  0.3161 -0.7342 -0.7552
 7994SOL    HW126235   2.876  10.011   5.467 -1.4788 -1.0097  0.7309
 7994SOL    HW226236   2.734  10.045   5.429 -0.6437  3.3054  1.0488
 7995SOL     OW26237   3.013  10.631   0.107 -0.9276  0.7906  0.3224
 7995SOL    HW126238   2.946  10.588   0.160 -1.5464  0.8337 -0.4204
 7995SOL    HW226239   2.978  10.631   0.018  0.5585 -0.2442 -0.2986
 7996SOL     OW26240  10.440   6.094   0.629 -0.1552  0.2044 -0.7403
 7996SOL    HW126241  10.448   6.127   0.718 -1.4304 -0.5385 -0.3261
 7996SOL    HW226242  10.502   6.021   0.625 -0.9779 -0.5617 -0.0396
 7997SOL     OW26243   6.781   9.404   6.623  0.1285 -1.0070  0.0151
 7997SOL    HW126244   6.825   9.475   6.670  0.3515  0.2377 -1.9686
 7997SOL    HW226245   6.723   9.365   6.689 -0.6211  1.5334  1.0052
 7998SOL     OW26246  10.249  10.296   1.695 -0.1524  0.1833  0.4829
 7998SOL    HW126247  10.183  10.227   1.709  0.1128 -0.1743 -0.0168
 7998SOL    HW226248  10.257  10.338   1.781  0.5370 -1.1721  1.1202
 7999SOL     OW26249   7.550   6.269   9.666  0.2994 -0.1332  0.2349
 7999SOL    HW126250   7.558   6.356   9.628  0.2922 -0.9900 -1.8793
 7999SOL    HW226251   7.619   6.265   9.731  1.1435  1.0161 -0.5455
 8000SOL     OW26252   3.375   3.634   2.440 -0.2993  0.2713 -0.4384
 8000SOL    HW126253   3.410   3.708   2.490 -0.4115  0.2555 -0.3364
 8000SOL    HW226254   3.286   3.622   2.474 -0.0987 -0.2460 -0.0739
 8001SOL     OW26255   8.724   8.504   0.697 -0.2649  0.2452  0.0532
 8001SOL    HW126256   8.668   8.516   0.773 -1.0706 -1.3597 -0.2298
 8001SOL    HW226257   8.790   8.440   0.725 -1.3996 -1.4589 -0.9276
 8002SOL     OW26258  10.053   1.305   4.904 -0.6033 -0.0743  0.4184
 8002SOL    HW126259  10.080   1.255   4.981  0.0553  1.5499  1.2842
 8002SOL    HW226260  10.103   1.386   4.909  1.6773 -0.9878 -3.2414
 8003SOL     OW26261   8.924   7.583   6.153  0.2208 -0.3992 -0.3291
 8003SOL    HW126262   9.017   7.599   6.168  0.1002  0.9311 -0.8964
 8003SOL    HW226263   8.910   7.495   6.188  1.3025  0.0584  1.4133
 8004SOL     OW26264   4.091   0.045   3.667  0.3272  0.0113 -0.1207
 8004SOL    HW126265   4.063   0.105   3.598 -0.0909 -1.3962 -1.2135
 8004SOL    HW226266   4.027  -0.026   3.664  0.0046  0.1450  2.0706
 8005SOL     OW26267   1.032   3.820  10.433 -0.1881 -0.0327  0.0368
 8005SOL    HW126268   0.986   3.904  10.429 -1.1352 -0.5471 -0.2992
 8005SOL    HW226269   0.990   3.774  10.505 -0.4299 -0.6432 -0.4875
 8006SOL     OW26270   6.098   0.195   4.118  0.0756  0.5524 -0.4390
 8006SOL    HW126271   6.019   0.227   4.074  0.1787  1.9135  0.3172
 8006SOL    HW226272   6.121   0.115   4.071 -1.4531  0.4106 -1.0058
 8007SOL     OW26273   6.316  10.085   1.324  0.2414  0.6825 -0.5905
 8007SOL    HW126274   6.287  10.162   1.274 -1.5590  0.5422  0.1629
 8007SOL    HW226275   6.380  10.120   1.386 -1.6614  1.9238  0.7887
 8008SOL     OW26276   5.672   0.063   2.648  0.0363  0.0516  0.1647
 8008SOL    HW126277   5.678  -0.026   2.613 -0.9715 -0.4698  1.2726
 8008SOL    HW226278   5.644   0.115   2.573  1.9071 -0.2881 -0.8428
 8009SOL     OW26279   8.505   9.936   1.458 -0.5970 -0.4687 -0.0521
 8009SOL    HW126280   8.509   9.912   1.550  1.0448 -0.7770 -0.1812
 8009SOL    HW226281   8.550   9.865   1.412 -0.8264 -0.0050 -1.0269
 8010SOL     OW26282   9.747   7.779   3.405 -0.1693  0.2745  0.1198
 8010SOL    HW126283   9.683   7.798   3.473 -0.8970  0.2718 -0.5512
 8010SOL    HW226284   9.753   7.860   3.354 -1.9655 -0.6444 -1.6820
 8011SOL     OW26285   4.486   1.487   7.111 -0.3213  0.2543  1.1586
 8011SOL    HW126286   4.394   1.503   7.088 -0.3688 -0.5793  0.7149
 8011SOL    HW226287   4.485   1.402   7.154  0.4273 -0.5051 -0.2244
 8012SOL     OW26288   6.796   6.953   8.861 -0.0004 -0.2563 -0.2986
 8012SOL    HW126289   6.888   6.977   8.851 -0.4295  0.7977 -2.0368
 8012SOL    HW226290   6.799   6.860   8.885  1.5233  0.0777  1.0002
 8013SOL     OW26291   0.315   0.121   5.136  1.1290  0.3568  0.0256
 8013SOL    HW126292   0.273   0.173   5.068 -0.7537 -0.5281  0.4268
 8013SOL    HW226293   0.260   0.134   5.214  1.9590 -0.3673  0.7604
 8014SOL     OW26294   5.030   2.755   7.442  0.8066 -0.1558  0.1684
 8014SOL    HW126295   5.009   2.740   7.350  0.8520 -0.1584  0.1586
 8014SOL    HW226296   5.125   2.751   7.446  0.7663 -1.0987  0.3748
 8015SOL     OW26297   6.774   3.277   7.442 -0.0393  0.0452 -0.2908
 8015SOL    HW126298   6.819   3.225   7.509  0.2637  1.5139  0.6932
 8015SOL    HW226299   6.729   3.212   7.387 -0.4055 -1.1931  1.4005
 8016SOL     OW26300   2.560   5.461   1.248  0.5212 -0.4673  0.3679
 8016SOL    HW126301   2.500   5.386   1.247  1.5135 -1.2815  0.0311
 8016SOL    HW226302   2.503   5.538   1.247 -0.5141 -1.2220  0.4198
 8017SOL     OW26303   6.006   4.106   9.380  0.4752 -0.3567 -0.6285
 8017SOL    HW126304   5.966   4.023   9.354 -0.7981 -0.0024  0.0897
 8017SOL    HW226305   5.968   4.171   9.321 -0.6736  0.0987  0.5385
 8018SOL     OW26306   5.663   9.853   3.959 -0.1366 -0.5347 -0.3184
 8018SOL    HW126307   5.699   9.845   3.871 -1.0815 -0.3369 -0.7418
 8018SOL    HW226308   5.736   9.882   4.014  0.2746  0.0716 -1.1799
 8019SOL     OW26309   7.185   3.492   3.413 -0.0632 -0.1643 -0.3126
 8019SOL    HW126310   7.188   3.512   3.319 -1.0686 -0.3640 -0.4021
 8019SOL    HW226311   7.173   3.397   3.416  0.5802 -0.2424  0.0402
 8020SOL     OW26312   2.361   3.745   5.487  0.1110 -0.0995  0.3933
 8020SOL    HW126313   2.361   3.652   5.464 -2.3922 -0.3284  1.0693
 8020SOL    HW226314   2.328   3.790   5.409 -1.0823 -0.0765  0.8897
 8021SOL     OW26315   8.089   5.807  10.231 -0.7059  0.8447 -0.5147
 8021SOL    HW126316   8.013   5.805  10.290 -2.3798  1.7678 -2.4893
 8021SOL    HW226317   8.127   5.720  10.239 -2.2372  0.1953  0.2392
 8022SOL     OW26318  10.155   0.285   6.238  0.1876 -0.1692 -0.2162
 8022SOL    HW126319  10.111   0.285   6.323 -1.2454 -1.9788 -0.8840
 8022SOL    HW226320  10.248   0.278   6.259 -0.2021 -1.7805  1.2438
 8023SOL     OW26321   7.610  10.211   1.301  0.2730  0.4701  0.1051
 8023SOL    HW126322   7.555  10.185   1.227 -0.2177  0.8662  0.3189
 8023SOL    HW226323   7.676  10.143   1.307  0.2725  0.3927 -0.6490
 8024SOL     OW26324   7.755   8.659  10.004  0.0449 -0.2659 -0.1050
 8024SOL    HW126325   7.806   8.708  10.068 -0.0435  1.5757 -1.3813
 8024SOL    HW226326   7.664   8.676  10.027 -0.0033 -1.2096  0.4406
 8025SOL     OW26327   6.965   7.438   5.599  0.1002 -0.2843 -0.5706
 8025SOL    HW126328   6.929   7.467   5.515 -0.2576 -1.9209 -1.0130
 8025SOL    HW226329   6.974   7.518   5.650 -0.2075  0.6754 -1.9677
 8026SOL     OW26330   7.370   1.664   5.937 -0.2063 -0.4301 -0.2453
 8026SOL    HW126331   7.441   1.640   5.997 -1.6849 -0.6939  1.4835
 8026SOL    HW226332   7.382   1.758   5.922  1.1361 -0.6840 -0.8708
 8027SOL     OW26333   9.500   6.735   6.663  0.2951  0.1889  0.0051
 8027SOL    HW126334   9.595   6.720   6.668 -0.0781 -2.7002  0.1097
 8027SOL    HW226335   9.484   6.754   6.570  1.0465  1.6716  0.1504
 8028SOL     OW26336   5.048   9.466   6.051  0.1240  0.2603 -0.6577
 8028SOL    HW126337   5.050   9.507   6.138  1.5033 -0.8017 -0.1473
 8028SOL    HW226338   4.968   9.500   6.010 -0.2311  1.2589  0.7853
 8029SOL     OW26339   3.906   6.040   6.817 -0.4909  0.1699 -0.0146
 8029SOL    HW126340   3.851   6.071   6.745  0.6435  1.4197 -0.3702
 8029SOL    HW226341   3.864   6.074   6.896 -1.2017 -0.4007 -0.1307
 8030SOL     OW26342   8.788   5.081  10.180  0.0337 -0.0877  1.0261
 8030SOL    HW126343   8.736   5.100  10.258 -1.6636  2.0338 -0.5202
 8030SOL    HW226344   8.750   5.135  10.111  1.4144 -1.9130 -1.3415
 8031SOL     OW26345   7.302   2.186   9.485  0.0723 -0.5209 -0.0028
 8031SOL    HW126346   7.397   2.181   9.496  0.2779  2.4641  0.3559
 8031SOL    HW226347   7.266   2.157   9.569  0.6511 -1.3538 -0.0301
 8032SOL     OW26348   4.601  10.229   2.344  0.0495  0.0347  0.4235
 8032SOL    HW126349   4.527  10.216   2.404 -0.5848 -0.4910 -0.4476
 8032SOL    HW226350   4.561  10.261   2.263  1.0231  1.9990  0.6583
 8033SOL     OW26351  10.175   9.133   9.249 -0.3814  0.1857 -0.0267
 8033SOL    HW126352  10.142   9.092   9.329  2.3485 -1.2102  0.4890
 8033SOL    HW226353  10.203   9.220   9.276 -0.0002 -0.0701  0.4052
 8034SOL     OW26354  10.633   6.299   2.658  0.4445 -0.1255 -0.4158
 8034SOL    HW126355  10.644   6.262   2.746  0.4136 -0.1608 -0.4264
 8034SOL    HW226356  10.593   6.228   2.608  1.6253 -0.5532 -0.7911
 8035SOL     OW26357   7.823   6.345   1.071  0.2333  0.3537  0.2768
 8035SOL    HW126358   7.824   6.254   1.102 -1.3642  0.0817 -0.3822
 8035SOL    HW226359   7.871   6.342   0.988 -1.6962 -0.3914 -0.8932
 8036SOL     OW26360   5.669   5.704   6.393 -0.7362  0.1837  0.2722
 8036SOL    HW126361   5.661   5.788   6.347 -0.2927  0.3754  0.5349
 8036SOL    HW226362   5.583   5.689   6.431 -0.8414  0.4858  0.1615
 8037SOL     OW26363   5.758   5.804   4.297  0.4751 -0.9237 -0.2601
 8037SOL    HW126364   5.691   5.810   4.365 -0.5878 -1.7984 -1.2042
 8037SOL    HW226365   5.822   5.872   4.321 -0.5129 -0.3578  0.8935
 8038SOL     OW26366   2.747   8.755   1.289 -0.2446 -0.5444  0.9184
 8038SOL    HW126367   2.722   8.702   1.213 -1.3189 -1.5133  1.9074
 8038SOL    HW226368   2.842   8.756   1.288 -0.2200 -1.8341  0.4146
 8039SOL     OW26369   1.607  10.123   8.096  0.0631  0.4332 -0.3126
 8039SOL    HW126370   1.544  10.150   8.163  1.6016 -0.9734  1.8141
 8039SOL    HW226371   1.634  10.205   8.054  0.2320  1.5826  1.9157
 8040SOL     OW26372   7.349   6.436   0.886  0.2617 -0.4813 -0.5073
 8040SOL    HW126373   7.408   6.417   0.813  0.1967  1.3520 -1.0673
 8040SOL    HW226374   7.273   6.478   0.846  0.1054  0.3139  0.5898
 8041SOL     OW26375   3.681   1.105   1.151  0.1712  0.1376  0.5501
 8041SOL    HW126376   3.728   1.048   1.213  1.1307  1.2641  0.8970
 8041SOL    HW226377   3.674   1.052   1.071  0.8050 -0.5750  0.9441
 8042SOL     OW26378   8.470   9.887   0.439  0.2516  0.0116  0.7550
 8042SOL    HW126379   8.425   9.856   0.517 -0.3359 -2.5191 -0.4841
 8042SOL    HW226380   8.417   9.854   0.366  0.7574  2.2874 -0.7716
 8043SOL     OW26381   5.816   9.785  10.628  1.0172  0.1932  0.1616
 8043SOL    HW126382   5.753   9.856  10.638  1.6942  0.7200  0.8375
 8043SOL    HW226383   5.770   9.708  10.660 -0.4230 -0.1231 -2.3728
 8044SOL     OW26384   6.342   5.197   7.484 -0.0634 -0.2919  0.3415
 8044SOL    HW126385   6.298   5.182   7.401  3.0255 -0.4269 -1.4124
 8044SOL    HW226386   6.311   5.284   7.512 -0.5706  0.1174 -1.3676
 8045SOL     OW26387   0.935   8.013   9.704  0.0984  0.5674  0.0224
 8045SOL    HW126388   0.882   7.942   9.668  1.2955  0.0397 -0.7588
 8045SOL    HW226389   0.948   7.991   9.796  2.1639 -1.3651 -0.6371
 8046SOL     OW26390   0.664   2.330   1.293  0.3148 -0.5328 -0.3046
 8046SOL    HW126391   0.759   2.325   1.300  0.3343 -1.2424 -0.9748
 8046SOL    HW226392   0.644   2.291   1.208 -0.6119 -0.8686  0.0545
 8047SOL     OW26393   6.536   7.100   2.780 -0.3814 -0.5348  0.0265
 8047SOL    HW126394   6.600   7.135   2.843  0.9962 -0.9994 -1.0809
 8047SOL    HW226395   6.553   7.006   2.778 -1.5239 -0.7640  0.1380
 8048SOL     OW26396   6.908   8.353   0.563 -0.0282 -0.2760 -0.2750
 8048SOL    HW126397   6.966   8.356   0.487  1.3189  0.8806  0.7311
 8048SOL    HW226398   6.950   8.290   0.622  0.3005  0.6769  0.5230
 8049SOL     OW26399   8.847   5.660   0.476  0.0918  0.3053 -0.1815
 8049SOL    HW126400   8.902   5.685   0.550  0.5160 -0.9950 -0.0313
 8049SOL    HW226401   8.765   5.630   0.515  0.7574 -1.5447 -0.1212
 8050SOL     OW26402   1.420   8.834   0.843  0.2768  0.7067  0.4124
 8050SOL    HW126403   1.507   8.804   0.869  0.4452  1.2536  0.4947
 8050SOL    HW226404   1.400   8.907   0.902  0.2276  1.2945 -0.3074
 8051SOL     OW26405   4.526   4.811   2.098  0.2121  0.0150  0.0404
 8051SOL    HW126406   4.609   4.817   2.144  0.7964  0.1963 -0.9963
 8051SOL    HW226407   4.470   4.759   2.155  0.8294  0.4250  1.0383
 8052SOL     OW26408   6.290   3.078   4.170  0.0243 -0.2306  0.5307
 8052SOL    HW126409   6.276   3.051   4.079 -2.3364  0.9871  0.4401
 8052SOL    HW226410   6.384   3.090   4.178  0.1630  1.6156 -2.3880
 8053SOL     OW26411   0.411   5.501   9.175  0.1215  0.7985  0.0353
 8053SOL    HW126412   0.388   5.410   9.192 -0.9911  1.2438  1.0679
 8053SOL    HW226413   0.507   5.501   9.170  0.2792 -0.1151  2.1242
 8054SOL     OW26414   2.490   4.512   4.505 -0.1072  0.0223 -0.4769
 8054SOL    HW126415   2.451   4.599   4.515 -0.3614 -0.2298  1.1609
 8054SOL    HW226416   2.583   4.529   4.489  0.0010  0.6218  0.6461
 8055SOL     OW26417   2.805   3.842   5.921  0.1180  0.0293 -0.2478
 8055SOL    HW126418   2.778   3.846   5.829 -0.7003 -0.0616 -0.0150
 8055SOL    HW226419   2.900   3.830   5.917  0.3560  1.8189 -1.0716
 8056SOL     OW26420   1.606   0.420   6.046  0.0678  0.1798 -0.3817
 8056SOL    HW126421   1.618   0.446   6.137 -2.0293  0.8666 -0.2537
 8056SOL    HW226422   1.690   0.381   6.021  1.3282  1.6658  1.2522
 8057SOL     OW26423   1.723   0.716   7.860  0.4297 -0.3959  0.7625
 8057SOL    HW126424   1.754   0.807   7.858 -0.0124 -0.2634 -0.4679
 8057SOL    HW226425   1.767   0.679   7.937  0.2675  0.9686  1.5602
 8058SOL     OW26426   6.028   2.086   2.492  0.1326  0.6626 -0.5083
 8058SOL    HW126427   5.948   2.131   2.464 -0.7031  0.0678  0.8310
 8058SOL    HW226428   6.037   2.013   2.430 -1.1964 -0.1219  0.1746
 8059SOL     OW26429   1.811   3.773   3.041  0.2798 -0.3956  0.7291
 8059SOL    HW126430   1.735   3.717   3.028 -0.4256  0.5222  0.8355
 8059SOL    HW226431   1.868   3.722   3.099  0.0158 -1.3260  0.1886
 8060SOL     OW26432   5.626   8.654   9.160 -0.1124 -0.1012 -0.2685
 8060SOL    HW126433   5.659   8.742   9.178 -0.7958 -0.0086  0.6262
 8060SOL    HW226434   5.667   8.599   9.227 -1.2504 -0.0848  0.4816
 8061SOL     OW26435   7.713   8.963   4.653  0.7759 -0.1262 -0.3729
 8061SOL    HW126436   7.707   9.041   4.598  1.2236  0.8442  0.8980
 8061SOL    HW226437   7.786   8.913   4.616  0.3765 -0.0506 -1.3009
 8062SOL     OW26438   1.207   8.438   9.051  0.2410  0.2082  0.3514
 8062SOL    HW126439   1.173   8.395   8.972  0.6199 -0.7456  0.6920
 8062SOL    HW226440   1.245   8.520   9.019  0.2663 -0.0997 -0.4318
 8063SOL     OW26441   0.387   2.894   7.252 -0.7223  0.2948  0.5808
 8063SOL    HW126442   0.330   2.843   7.194 -1.4501  2.5371 -0.7886
 8063SOL    HW226443   0.454   2.931   7.194  1.6664 -1.4861  2.0127
 8064SOL     OW26444   6.981   5.037   6.442 -0.2903  0.8237  0.0309
 8064SOL    HW126445   6.920   5.040   6.369  0.1277  0.6497 -0.3237
 8064SOL    HW226446   6.928   5.061   6.518 -0.6395  1.3823 -0.3838
 8065SOL     OW26447   1.214   5.675   9.737  0.0138  0.2868  0.4326
 8065SOL    HW126448   1.239   5.600   9.683  1.4992 -0.0037  1.4700
 8065SOL    HW226449   1.241   5.751   9.686  3.1201 -0.0114  1.4332
 8066SOL     OW26450   6.456   5.404   3.583  0.3799  0.2213  0.2054
 8066SOL    HW126451   6.366   5.408   3.551  0.4103  0.7044  0.1782
 8066SOL    HW226452   6.478   5.311   3.581  0.0932  0.1615 -0.3764
 8067SOL     OW26453   2.131   9.973   9.862 -0.2118 -0.5040  0.1131
 8067SOL    HW126454   2.214  10.006   9.896 -0.2861  1.8785 -1.6986
 8067SOL    HW226455   2.154   9.897   9.809  0.4170 -1.4959  1.7312
 8068SOL     OW26456   7.638   7.960   8.990 -0.3444 -0.1117 -0.4848
 8068SOL    HW126457   7.636   8.025   8.919  1.7973 -0.8398 -1.3119
 8068SOL    HW226458   7.677   7.883   8.950 -1.2461 -1.3418  0.9326
 8069SOL     OW26459   8.946   3.736  10.426  0.2893  0.7165  0.3661
 8069SOL    HW126460   8.918   3.741  10.517 -0.5237  0.4342  0.1435
 8069SOL    HW226461   9.025   3.790  10.422 -0.6184  2.1583  0.8876
 8070SOL     OW26462   0.286   8.095   1.440  0.8682  0.2297  0.5522
 8070SOL    HW126463   0.220   8.041   1.483  1.0735 -0.2054  0.3218
 8070SOL    HW226464   0.292   8.061   1.351  1.2198  0.4318  0.4928
 8071SOL     OW26465   8.781   1.960   3.708 -0.0853  0.1677 -0.3922
 8071SOL    HW126466   8.756   1.870   3.687 -1.4736  0.7981 -1.6163
 8071SOL    HW226467   8.709   1.993   3.762  0.7262  0.3648  0.5956
 8072SOL     OW26468   8.229   1.656   7.766 -0.3925 -0.2663  0.7908
 8072SOL    HW126469   8.231   1.635   7.673 -1.1384  0.7495  0.5380
 8072SOL    HW226470   8.147   1.619   7.798  0.8925 -2.7062  1.6047
 8073SOL     OW26471  10.496   4.318   9.262 -0.0149  0.5875 -0.1593
 8073SOL    HW126472  10.536   4.233   9.240 -0.1672  0.6754 -0.8037
 8073SOL    HW226473  10.413   4.318   9.214 -0.5066  0.6635  0.6858
 8074SOL     OW26474   0.918   0.851   4.704 -0.2290  0.1707 -0.3000
 8074SOL    HW126475   0.964   0.928   4.671  0.1914 -0.1705 -0.5289
 8074SOL    HW226476   0.948   0.779   4.648 -0.4616 -0.1922  0.0310
 8075SOL     OW26477   5.111   3.698   1.340 -0.5739 -0.1308 -0.4010
 8075SOL    HW126478   5.179   3.631   1.345  1.0592  1.4399 -0.6849
 8075SOL    HW226479   5.050   3.665   1.273  0.0022 -1.4676 -0.3017
 8076SOL     OW26480   6.096   4.442   8.220 -0.6005  0.0945 -0.9382
 8076SOL    HW126481   6.108   4.510   8.153  0.7723  0.6051 -0.2044
 8076SOL    HW226482   6.087   4.491   8.302 -0.1240 -0.5855 -0.4691
 8077SOL     OW26483   3.625   5.867   7.701 -0.0831 -0.0242 -0.3654
 8077SOL    HW126484   3.714   5.851   7.730  0.5325 -0.9680 -2.5920
 8077SOL    HW226485   3.632   5.886   7.608 -2.2985 -1.5367 -0.9382
 8078SOL     OW26486   8.715   8.225   7.598  0.0733  0.3742  0.3139
 8078SOL    HW126487   8.675   8.227   7.685  1.1933  0.9615  0.8380
 8078SOL    HW226488   8.730   8.317   7.576  1.6272  0.1848  0.4059
 8079SOL     OW26489   7.748   4.086   7.139  0.5183  0.1213  0.1319
 8079SOL    HW126490   7.755   3.997   7.105  0.3644 -0.5234  1.7030
 8079SOL    HW226491   7.785   4.081   7.227 -0.2891  1.4064  0.5685
 8080SOL     OW26492   3.152   7.252   4.801 -0.4173 -0.1932 -0.3210
 8080SOL    HW126493   3.147   7.332   4.749 -0.8779  0.2162  0.3326
 8080SOL    HW226494   3.079   7.260   4.863 -1.5696 -1.9206 -1.3690
 8081SOL     OW26495   0.436  10.347   3.762  0.1630  0.4003 -0.5666
 8081SOL    HW126496   0.478  10.417   3.811 -0.8159 -0.6847  1.9941
 8081SOL    HW226497   0.385  10.299   3.827 -0.5361 -1.7023 -2.5222
 8082SOL     OW26498   5.117   7.773   6.682  0.2951 -0.4676  0.0959
 8082SOL    HW126499   5.044   7.743   6.629 -0.2715  0.5279  0.2891
 8082SOL    HW226500   5.186   7.795   6.619  0.4392 -1.3806 -0.0857
 8083SOL     OW26501   9.090   2.539   1.169  0.5046  0.4304 -0.2360
 8083SOL    HW126502   9.065   2.597   1.098 -0.4051 -1.0582 -1.1679
 8083SOL    HW226503   9.049   2.577   1.247 -0.7144  0.6117 -0.9609
 8084SOL     OW26504   6.507   9.690   8.462 -0.6772  0.3236 -0.0213
 8084SOL    HW126505   6.491   9.695   8.368  0.2649  2.3613 -0.1142
 8084SOL    HW226506   6.429   9.730   8.502  0.1721  2.1711 -0.1082
 8085SOL     OW26507   5.858   1.753   8.680 -0.1370  0.2628 -0.1246
 8085SOL    HW126508   5.886   1.662   8.684 -0.2770  0.1115 -1.9926
 8085SOL    HW226509   5.909   1.791   8.609 -1.0215  1.2970 -0.2337
 8086SOL     OW26510   1.432   3.666   2.608 -0.0536 -0.2837  0.3793
 8086SOL    HW126511   1.336   3.666   2.609 -0.1110  0.1690 -1.1787
 8086SOL    HW226512   1.456   3.575   2.621 -0.8210 -0.8737 -1.8195
 8087SOL     OW26513   1.660   7.450   8.426  0.2715 -0.8718 -0.5625
 8087SOL    HW126514   1.670   7.450   8.522 -1.7076  0.3850 -0.2918
 8087SOL    HW226515   1.615   7.368   8.406  1.5420 -1.5856 -0.5479
 8088SOL     OW26516   0.701  10.029   1.890  0.0937 -0.4368 -0.1047
 8088SOL    HW126517   0.608  10.051   1.880  0.5509  2.2942  0.7201
 8088SOL    HW226518   0.707   9.993   1.979  0.0513  1.1249  0.5608
 8089SOL     OW26519   3.151   6.832   9.872  0.0248  0.0499  0.4288
 8089SOL    HW126520   3.183   6.748   9.842  2.1491  0.7005  0.7026
 8089SOL    HW226521   3.113   6.814   9.958  0.1638 -0.6757  0.3430
 8090SOL     OW26522   1.495  10.563   5.234  0.0575  0.2639  0.3427
 8090SOL    HW126523   1.406  10.586   5.263  0.0494  0.0152  0.5192
 8090SOL    HW226524   1.482  10.514   5.153  0.0885  1.1153 -0.1947
 8091SOL     OW26525   7.509   9.191   0.211 -0.3532  0.5609  0.1224
 8091SOL    HW126526   7.566   9.215   0.138 -0.2067 -0.2850 -0.0427
 8091SOL    HW226527   7.423   9.227   0.187  0.3580  3.1524  1.0386
 8092SOL     OW26528   5.149   2.473   6.252 -0.2676 -0.1756  0.3069
 8092SOL    HW126529   5.125   2.381   6.266  1.2279 -0.3897  1.8108
 8092SOL    HW226530   5.203   2.471   6.173  0.2974 -0.7072  0.6959
 8093SOL     OW26531   8.431  10.079   7.580  0.2184 -0.2482 -0.5301
 8093SOL    HW126532   8.378  10.095   7.658  0.2771  1.3718 -0.8000
 8093SOL    HW226533   8.376  10.023   7.525 -1.2162  1.3338 -0.7691
 8094SOL     OW26534   1.145   2.955   7.862 -0.0688 -0.6250  0.0954
 8094SOL    HW126535   1.089   3.024   7.896 -0.6699 -1.2051  0.3119
 8094SOL    HW226536   1.108   2.935   7.776  1.2353  0.5998 -0.7878
 8095SOL     OW26537   2.187   4.286   2.253 -0.2960  0.1048 -0.2020
 8095SOL    HW126538   2.096   4.298   2.228 -1.3167  1.2010  3.3303
 8095SOL    HW226539   2.183   4.247   2.340  2.6018  0.3147  0.1371
 8096SOL     OW26540  10.417   3.832   9.641 -0.3436  0.5427 -0.0498
 8096SOL    HW126541  10.466   3.911   9.618  0.0421  0.1755 -0.5031
 8096SOL    HW226542  10.329   3.864   9.662  0.3966  1.3888  2.1400
 8097SOL     OW26543   9.103   3.273   9.377 -0.1588  0.2168  0.1246
 8097SOL    HW126544   9.158   3.352   9.370 -0.1949  0.1854 -0.6016
 8097SOL    HW226545   9.069   3.275   9.467  2.7652 -0.9333  1.3559
 8098SOL     OW26546   1.563   8.220   9.954  0.2962 -0.3643  0.3722
 8098SOL    HW126547   1.503   8.236   9.881 -2.2058 -2.5026  1.7475
 8098SOL    HW226548   1.637   8.174   9.915 -0.7090 -0.9327 -0.9514
 8099SOL     OW26549   8.335   2.634   9.147  0.4532  0.2378  0.0595
 8099SOL    HW126550   8.250   2.614   9.108  1.0985  0.6416 -1.6583
 8099SOL    HW226551   8.327   2.604   9.237 -1.7007  0.8094  0.1239
 8100SOL     OW26552   9.976   6.238   7.944 -0.0748  0.1648  0.2453
 8100SOL    HW126553   9.949   6.181   8.015  0.7670  0.9972  1.2761
 8100SOL    HW226554   9.911   6.225   7.875 -1.6289  0.2533  1.6486
 8101SOL     OW26555   1.331  10.272   5.707  0.2900  0.4867  0.0395
 8101SOL    HW126556   1.239  10.246   5.703 -0.1382  1.9941 -1.7824
 8101SOL    HW226557   1.328  10.368   5.701  2.0014  0.5057 -1.0334
 8102SOL     OW26558   8.683  10.553   2.507 -0.1443 -0.0457  0.4023
 8102SOL    HW126559   8.752  10.616   2.527  1.0826 -1.1521 -0.1423
 8102SOL    HW226560   8.714  10.509   2.428 -1.6025 -0.4305  0.0102
 8103SOL     OW26561   0.092   7.018   3.676 -0.3283 -0.5191 -0.1467
 8103SOL    HW126562   0.143   7.085   3.631  0.8188 -2.0737 -1.2776
 8103SOL    HW226563   0.131   7.012   3.763  1.7426 -1.9103 -1.1003
 8104SOL     OW26564   7.467   5.727   6.543  0.1900 -0.5295 -0.0205
 8104SOL    HW126565   7.406   5.771   6.484  1.7226 -0.7802 -1.8819
 8104SOL    HW226566   7.411   5.669   6.595 -1.2835  0.0874 -0.8441
 8105SOL     OW26567  10.465  10.240   7.477 -0.0912  0.3162  0.0218
 8105SOL    HW126568  10.448  10.317   7.531 -0.8812  0.2293 -0.0936
 8105SOL    HW226569  10.386  10.187   7.485  0.4414 -0.4865  0.0982
 8106SOL     OW26570   7.971   7.297   3.251  0.1964 -0.4440 -0.2813
 8106SOL    HW126571   7.972   7.283   3.346 -0.6482 -1.9025 -0.4602
 8106SOL    HW226572   7.880   7.317   3.231  0.4927  0.5505 -0.7223
 8107SOL     OW26573   0.013   2.010   2.464 -0.2917 -0.2190 -0.5453
 8107SOL    HW126574  -0.037   1.931   2.444  0.7161 -0.5833 -1.7662
 8107SOL    HW226575   0.103   1.988   2.441  0.0024  1.3018 -0.9840
 8108SOL     OW26576   8.336   7.253   4.355 -0.2312 -0.4005 -0.5869
 8108SOL    HW126577   8.327   7.226   4.446  1.7538  1.8530  0.4058
 8108SOL    HW226578   8.428   7.238   4.334  0.3546  2.7938 -0.7969
 8109SOL     OW26579   2.385   1.687   9.622 -0.6827  0.2562 -0.0704
 8109SOL    HW126580   2.329   1.760   9.595 -0.5260 -0.0463 -1.2694
 8109SOL    HW226581   2.445   1.674   9.549 -0.4941 -0.8571  0.2578
 8110SOL     OW26582   3.674   3.321  10.583  0.9009 -0.4869 -0.0793
 8110SOL    HW126583   3.623   3.402  10.589 -0.3184 -1.1698 -0.9295
 8110SOL    HW226584   3.738   3.328  10.655  1.1949  1.4603 -0.4750
 8111SOL     OW26585   1.326   8.623   2.177  0.2126  0.3987  0.1758
 8111SOL    HW126586   1.335   8.716   2.200  0.8511  0.2242  0.6763
 8111SOL    HW226587   1.270   8.622   2.100 -1.3556  1.0832  1.2548
 8112SOL     OW26588   7.539   0.143  10.004  0.3066 -0.1526  0.4255
 8112SOL    HW126589   7.476   0.083   9.964 -0.4631  0.1171  1.2173
 8112SOL    HW226590   7.603   0.086  10.047  2.3213 -0.5506 -2.7589
 8113SOL     OW26591   3.442   0.582   9.311 -0.5161 -0.2271  0.1628
 8113SOL    HW126592   3.459   0.503   9.258 -1.6907 -0.8003  0.6213
 8113SOL    HW226593   3.350   0.601   9.297 -0.7287 -0.0973  1.6171
 8114SOL     OW26594   6.837  10.132   0.606 -0.3225  0.2169 -0.1644
 8114SOL    HW126595   6.848  10.058   0.665  1.3184  0.7803  0.2950
 8114SOL    HW226596   6.792  10.199   0.658  0.7572  0.5634  0.3607
 8115SOL     OW26597   1.561   9.069   2.191  0.2243 -0.0867  0.2914
 8115SOL    HW126598   1.496   9.120   2.143  0.3187 -0.8463 -0.6691
 8115SOL    HW226599   1.591   9.128   2.260 -1.2636  0.3863  0.5790
 8116SOL     OW26600   8.182   1.977   0.686 -0.6988  0.0436  0.1257
 8116SOL    HW126601   8.167   2.042   0.617 -2.7182 -0.7808 -0.2592
 8116SOL    HW226602   8.097   1.965   0.727  0.2323 -0.2860  2.0943
 8117SOL     OW26603   7.799   0.886   7.429 -0.2100 -0.6320 -0.8752
 8117SOL    HW126604   7.815   0.972   7.389 -0.2757 -0.6260 -0.8883
 8117SOL    HW226605   7.867   0.879   7.497  0.0242 -0.7296 -1.1196
 8118SOL     OW26606  10.528   8.036   2.064 -0.0740 -0.2933  0.2558
 8118SOL    HW126607  10.601   8.002   2.013 -0.8626 -1.3094 -0.2368
 8118SOL    HW226608  10.480   7.958   2.091 -2.4960  0.4020 -1.6813
 8119SOL     OW26609   5.868   8.592   9.740 -0.5558  0.3425  0.4999
 8119SOL    HW126610   5.877   8.559   9.651  1.6155  1.7465  0.1357
 8119SOL    HW226611   5.923   8.535   9.793  1.6426  2.0446  0.1772
 8120SOL     OW26612   4.253   9.824   6.104 -0.0520 -0.1492  0.4952
 8120SOL    HW126613   4.300   9.905   6.126  0.0123 -0.6327  2.3856
 8120SOL    HW226614   4.167   9.836   6.144 -0.1395 -0.8877  0.5304
 8121SOL     OW26615   2.961   4.499   9.581  0.1140 -0.3795 -0.1060
 8121SOL    HW126616   2.892   4.489   9.515  0.1440  1.9546 -0.5617
 8121SOL    HW226617   2.982   4.592   9.581  1.1673 -0.5362  2.1731
 8122SOL     OW26618   7.000   9.720   2.125  0.0073 -0.6801 -0.2423
 8122SOL    HW126619   6.924   9.744   2.073 -0.7266 -1.9112  0.2349
 8122SOL    HW226620   6.980   9.752   2.213  0.7001  0.2916 -0.4229
 8123SOL     OW26621   6.116   1.925   7.477  0.1608 -0.1314  0.0241
 8123SOL    HW126622   6.065   1.885   7.407 -1.5698 -0.5517  1.4509
 8123SOL    HW226623   6.103   2.019   7.466 -1.7164 -0.2501  0.8639
 8124SOL     OW26624   4.750   8.196   1.865  0.6427 -0.6973  0.4561
 8124SOL    HW126625   4.843   8.213   1.854  1.0662 -2.0141  1.6009
 8124SOL    HW226626   4.731   8.125   1.803  0.1949  0.0639 -0.3129
 8125SOL     OW26627   9.599   8.148   3.989 -1.1959  0.5701 -0.4643
 8125SOL    HW126628   9.611   8.228   4.039  2.5553 -0.1039 -0.0341
 8125SOL    HW226629   9.573   8.083   4.054 -1.5168  0.7946 -0.3593
 8126SOL     OW26630   7.147  10.095   0.888 -0.3741 -0.6684  0.2854
 8126SOL    HW126631   7.081  10.120   0.953 -0.6933 -1.6946  0.3771
 8126SOL    HW226632   7.192  10.020   0.927 -0.5733 -1.3068 -0.6666
 8127SOL     OW26633   6.122   6.304   4.999 -0.4847 -0.1729 -0.2029
 8127SOL    HW126634   6.161   6.255   5.072 -0.7464  0.0818  0.1080
 8127SOL    HW226635   6.126   6.243   4.925  0.0174 -0.3392 -0.0438
 8128SOL     OW26636   4.580   4.301   5.607 -0.2204  0.4790 -0.2547
 8128SOL    HW126637   4.542   4.218   5.634  0.9929  0.2161  0.7131
 8128SOL    HW226638   4.608   4.287   5.517  0.5611 -0.3807  0.1096
 8129SOL     OW26639   8.870   1.355   6.318  0.0287 -0.1176  0.5573
 8129SOL    HW126640   8.777   1.376   6.325  0.0371 -0.3027  1.2671
 8129SOL    HW226641   8.872   1.264   6.289 -0.0163  1.0256 -3.6316
 8130SOL     OW26642   5.732   8.094   9.957  0.3469 -0.2433  0.0162
 8130SOL    HW126643   5.640   8.098   9.984  0.3738 -1.3078  0.2985
 8130SOL    HW226644   5.733   8.132   9.869 -0.0307  1.6426  0.7754
 8131SOL     OW26645   4.762   4.986   2.508  0.1432  0.3046 -0.0452
 8131SOL    HW126646   4.723   4.962   2.592  0.3668 -2.1233 -0.5658
 8131SOL    HW226647   4.724   5.072   2.487 -1.0357  0.2824  1.8185
 8132SOL     OW26648   1.771  10.017   9.635  0.2663  0.7514 -0.6468
 8132SOL    HW126649   1.728   9.931   9.635  0.0849  0.8139 -2.0406
 8132SOL    HW226650   1.855  10.001   9.592  0.1592  1.2992 -1.0614
 8133SOL     OW26651   0.325   4.475   4.223 -0.2999  0.0100 -0.0003
 8133SOL    HW126652   0.361   4.431   4.300 -0.5520 -0.1574  0.0230
 8133SOL    HW226653   0.382   4.449   4.151 -1.0434 -1.1782 -0.1761
 8134SOL     OW26654   0.421   8.754   2.301  0.2762 -0.2487  0.1768
 8134SOL    HW126655   0.327   8.733   2.299  0.2446 -0.7345  2.7380
 8134SOL    HW226656   0.452   8.734   2.213 -2.0572  0.1524 -0.8154
 8135SOL     OW26657   9.637   4.388   0.117 -0.3020  0.5282 -0.5502
 8135SOL    HW126658   9.675   4.400   0.030  0.0739 -2.3061 -0.8723
 8135SOL    HW226659   9.543   4.401   0.104 -0.2950 -0.2355 -1.5069
 8136SOL     OW26660   5.460  10.572  10.135 -1.1698 -1.1250  0.2519
 8136SOL    HW126661   5.470  10.500  10.072  0.4882 -1.4818  0.9010
 8136SOL    HW226662   5.548  10.607  10.147 -1.6281 -0.3434  1.5609
 8137SOL     OW26663   7.182   1.757   7.647  0.0082  0.2890 -0.4455
 8137SOL    HW126664   7.123   1.830   7.665 -0.6666 -0.5026  0.6941
 8137SOL    HW226665   7.200   1.763   7.554  1.5174  3.0396 -0.0630
 8138SOL     OW26666   2.446   1.446   0.711  0.4445  0.0046 -0.6168
 8138SOL    HW126667   2.461   1.523   0.656  0.2694  0.6890  0.2687
 8138SOL    HW226668   2.534   1.418   0.737  0.6297 -1.1588 -2.3102
 8139SOL     OW26669   7.979   1.245   6.520 -0.2141 -0.2797 -0.0828
 8139SOL    HW126670   7.989   1.295   6.439 -2.4857  0.4461  0.0101
 8139SOL    HW226671   7.884   1.239   6.532  0.0138 -3.0413  0.9116
 8140SOL     OW26672   1.315   8.674   6.956 -0.0558 -0.5333 -0.4485
 8140SOL    HW126673   1.253   8.729   7.003  1.3812 -0.0001  0.9210
 8140SOL    HW226674   1.336   8.604   7.018 -0.1280 -1.3493 -1.3195
 8141SOL     OW26675   0.829   2.164   5.854 -0.4647  1.3589 -0.2373
 8141SOL    HW126676   0.753   2.220   5.842  0.0468  2.1407  0.1421
 8141SOL    HW226677   0.887   2.186   5.781 -0.7247  0.5292 -0.7150
 8142SOL     OW26678   6.727   4.281   2.978 -0.1501  0.5934 -0.1290
 8142SOL    HW126679   6.766   4.204   2.938  0.1896  0.9504 -0.4935
 8142SOL    HW226680   6.794   4.313   3.039 -0.6507  0.0713  0.7090
 8143SOL     OW26681   9.575   5.709   8.716  0.4283 -0.5805  0.2594
 8143SOL    HW126682   9.548   5.698   8.625  0.9171 -0.7477  0.1313
 8143SOL    HW226683   9.536   5.636   8.762  1.7400 -1.5834 -0.1644
 8144SOL     OW26684   4.922   2.838   8.421 -0.0394 -0.0217 -0.4015
 8144SOL    HW126685   4.966   2.848   8.337 -0.2115 -0.1708 -0.5080
 8144SOL    HW226686   4.856   2.906   8.423  1.3777  1.4114  0.5200
 8145SOL     OW26687   4.861   7.788  10.461  0.5038  0.2736  0.3148
 8145SOL    HW126688   4.820   7.792  10.375  1.9116 -0.2892 -0.4126
 8145SOL    HW226689   4.951   7.818  10.447  1.1281 -1.0138  1.3199
 8146SOL     OW26690   6.545   9.750   3.537 -0.0205  0.3163  0.0648
 8146SOL    HW126691   6.589   9.774   3.455  0.9749  0.2284  0.5657
 8146SOL    HW226692   6.506   9.664   3.519 -0.0661  0.4313 -0.4081
 8147SOL     OW26693   0.193   5.045   1.812 -0.1959  0.4053  0.0926
 8147SOL    HW126694   0.133   5.083   1.876 -1.5898  2.8323 -2.4422
 8147SOL    HW226695   0.276   5.089   1.827 -0.5663  1.1110  0.1022
 8148SOL     OW26696   8.452   9.985   3.902 -0.5751  0.0724 -0.6877
 8148SOL    HW126697   8.422   9.897   3.879  2.0566 -0.7933 -1.1062
 8148SOL    HW226698   8.525  10.002   3.843  1.4632  0.9276  1.8670
 8149SOL     OW26699   7.459   9.145   3.427 -0.2473 -0.5859 -0.0157
 8149SOL    HW126700   7.507   9.228   3.431 -0.6325 -0.3770  0.5854
 8149SOL    HW226701   7.503   9.088   3.490  0.6388 -1.1957 -1.1575
 8150SOL     OW26702   5.429   2.552   5.299  0.1869  0.7062  0.0437
 8150SOL    HW126703   5.438   2.597   5.215  0.5343  0.8833  0.1758
 8150SOL    HW226704   5.432   2.459   5.277 -0.1057  0.7503 -0.1828
 8151SOL     OW26705  10.106   1.992  10.173 -0.2099 -0.4466 -0.0803
 8151SOL    HW126706  10.075   2.074  10.134 -0.4600 -0.3001  0.4281
 8151SOL    HW226707  10.029   1.936  10.175 -0.2954 -0.3069  0.5915
 8152SOL     OW26708   9.417   4.589   3.686 -0.6265  0.0177 -0.2554
 8152SOL    HW126709   9.413   4.560   3.777  0.0578  0.4233 -0.0888
 8152SOL    HW226710   9.364   4.669   3.683 -2.5814 -1.2269 -0.7326
 8153SOL     OW26711   7.204   4.631   0.669 -0.0844 -0.0147 -1.0159
 8153SOL    HW126712   7.211   4.583   0.586  0.5191 -0.2611 -0.8277
 8153SOL    HW226713   7.232   4.568   0.736 -0.9292  0.0577 -0.5723
 8154SOL     OW26714   2.180   7.665   8.555  0.4891 -0.3954  0.4639
 8154SOL    HW126715   2.261   7.715   8.543  1.1140 -1.1605  1.3821
 8154SOL    HW226716   2.117   7.708   8.496  1.2861  0.8017  0.4422
 8155SOL     OW26717   9.896   1.306   3.221  0.3713 -0.2267 -0.0575
 8155SOL    HW126718   9.848   1.299   3.304  1.1949  0.0498  0.4649
 8155SOL    HW226719   9.900   1.217   3.188 -1.5541 -0.0864 -0.7492
 8156SOL     OW26720   5.766   1.669   9.738  0.2868 -0.3742 -0.5283
 8156SOL    HW126721   5.818   1.730   9.685 -2.1064  1.2259 -1.1636
 8156SOL    HW226722   5.690   1.648   9.684 -1.1012 -0.4895  1.3665
 8157SOL     OW26723   1.687   7.125   6.592  0.0879 -0.2639 -0.0596
 8157SOL    HW126724   1.644   7.043   6.616 -0.4317  0.4971  1.8470
 8157SOL    HW226725   1.700   7.170   6.676 -1.6754  2.6188 -1.1911
 8158SOL     OW26726   7.660   5.836   7.100 -0.5495  0.4192  0.1644
 8158SOL    HW126727   7.572   5.862   7.128 -0.5289 -0.0813  0.7234
 8158SOL    HW226728   7.683   5.898   7.031  1.2037  4.8054  4.1544
 8159SOL     OW26729   7.783   7.243   0.807  0.3428  0.1557 -0.2678
 8159SOL    HW126730   7.876   7.246   0.831  0.6598 -1.9128 -0.9890
 8159SOL    HW226731   7.737   7.275   0.884  1.6484  1.3365  0.0611
 8160SOL     OW26732   8.178   9.531  10.281  0.2129  0.0661 -0.0629
 8160SOL    HW126733   8.179   9.557  10.189  0.8057  2.3501  0.5194
 8160SOL    HW226734   8.263   9.560  10.315 -1.1579  2.1625  1.8803
 8161SOL     OW26735   7.324   0.510   3.438 -0.2811 -0.1500 -0.2143
 8161SOL    HW126736   7.309   0.417   3.452 -1.4610  0.2058  1.0712
 8161SOL    HW226737   7.297   0.552   3.520  1.8731  1.1902 -0.0968
 8162SOL     OW26738   4.002   0.575   6.205 -0.5164  0.2182  0.7073
 8162SOL    HW126739   4.045   0.503   6.251  0.8390  1.3768  1.3327
 8162SOL    HW226740   4.009   0.650   6.264 -1.5740  0.9721 -0.0673
 8163SOL     OW26741   8.656   5.578   7.597 -0.1834  0.5030 -0.2597
 8163SOL    HW126742   8.667   5.587   7.502  1.4868  1.7966  0.0035
 8163SOL    HW226743   8.620   5.662   7.625  0.7700  0.7057  0.4156
 8164SOL     OW26744   6.444   1.966   4.086  0.2727 -0.1180  0.0618
 8164SOL    HW126745   6.404   2.038   4.037 -2.2009  0.3256  2.4700
 8164SOL    HW226746   6.530   1.953   4.045  0.3511  3.4211 -1.2156
 8165SOL     OW26747   1.109   7.877   5.037  0.5799 -0.4306  0.3280
 8165SOL    HW126748   1.185   7.839   4.992 -0.5762  0.4252 -2.5926
 8165SOL    HW226749   1.050   7.904   4.966 -1.6678  0.5907  2.4304
 8166SOL     OW26750   7.978  10.133   0.364 -0.2524 -0.5899  0.3268
 8166SOL    HW126751   7.931  10.180   0.432  0.8464  1.1356 -0.0345
 8166SOL    HW226752   8.062  10.110   0.404  0.2052  0.0001 -0.2708
 8167SOL     OW26753   3.245   4.608   2.158 -0.2385 -0.7190 -0.0952
 8167SOL    HW126754   3.192   4.578   2.232 -0.6877  0.2852 -0.0039
 8167SOL    HW226755   3.335   4.594   2.186 -0.4231 -2.2724 -0.1816
 8168SOL     OW26756   0.148   4.845   6.044  0.5156  0.3690  0.1509
 8168SOL    HW126757   0.067   4.870   6.000 -0.1127  1.5897  1.8895
 8168SOL    HW226758   0.173   4.922   6.095  2.2382 -0.3258  0.4383
 8169SOL     OW26759   4.798   7.047   6.984  0.4804 -0.4948 -0.1936
 8169SOL    HW126760   4.800   7.140   7.006 -1.9781 -0.1909 -0.9217
 8169SOL    HW226761   4.890   7.023   6.971  1.1138  2.0607 -0.9624
 8170SOL     OW26762   6.788   7.701   1.088 -0.1118 -0.3832  0.1147
 8170SOL    HW126763   6.831   7.721   1.005  2.1294  0.5770  1.4119
 8170SOL    HW226764   6.738   7.780   1.108 -0.8600 -0.7129 -0.4183
 8171SOL     OW26765   6.355   9.514   8.070  0.2102  0.4013  0.0048
 8171SOL    HW126766   6.286   9.467   8.022  0.0448 -1.6640  2.1079
 8171SOL    HW226767   6.431   9.512   8.011 -0.8601  0.7960 -1.4457
 8172SOL     OW26768   1.588   5.635   9.095  0.2544  0.2577 -0.3354
 8172SOL    HW126769   1.541   5.718   9.091 -1.2357 -0.6085 -1.7493
 8172SOL    HW226770   1.651   5.647   9.167 -0.3711  2.3455 -0.0646
 8173SOL     OW26771   0.972   1.414   5.699  0.3428 -0.2846 -0.0193
 8173SOL    HW126772   0.938   1.500   5.725  1.8446  0.5677 -0.6895
 8173SOL    HW226773   1.013   1.430   5.614  0.9694 -1.5889  0.0192
 8174SOL     OW26774   8.610   7.832   3.879 -0.1486  0.1870  0.1432
 8174SOL    HW126775   8.522   7.801   3.900  0.3883 -0.5291  1.4033
 8174SOL    HW226776   8.636   7.780   3.803 -0.1146 -0.9298  0.8953
 8175SOL     OW26777   6.260   4.189   6.402  0.4891  0.1983 -0.1821
 8175SOL    HW126778   6.218   4.274   6.395 -0.1366 -0.1508 -0.7342
 8175SOL    HW226779   6.313   4.195   6.482  2.8307  2.1292 -1.7121
 8176SOL     OW26780   4.690   2.865   1.864  0.3612  0.0725 -0.0180
 8176SOL    HW126781   4.648   2.950   1.848  0.2699 -0.2609 -1.7384
 8176SOL    HW226782   4.651   2.835   1.946 -1.7784  0.4024 -0.8446
 8177SOL     OW26783   2.189   4.713   1.736 -0.0299 -0.0932  0.6082
 8177SOL    HW126784   2.144   4.682   1.815 -0.3830 -1.4245 -0.0932
 8177SOL    HW226785   2.271   4.665   1.734  0.3406  0.5343  0.5854
 8178SOL     OW26786   7.540   7.392   1.876  0.6752 -0.2148 -0.0893
 8178SOL    HW126787   7.491   7.418   1.954  0.7695  2.0962 -0.7463
 8178SOL    HW226788   7.629   7.376   1.907  0.4468 -0.4742  0.4447
 8179SOL     OW26789   2.585   4.572   7.251  0.3382  0.0382  0.3033
 8179SOL    HW126790   2.581   4.667   7.254 -0.2934 -0.0046  2.2655
 8179SOL    HW226791   2.495   4.545   7.232  0.2061 -0.1691  1.1747
 8180SOL     OW26792  10.109   8.083   4.017 -0.0247 -0.0183 -0.1465
 8180SOL    HW126793  10.139   8.033   4.094 -0.5486  2.6652  1.9576
 8180SOL    HW226794  10.017   8.056   4.006  0.1010 -0.5452  0.0593
 8181SOL     OW26795   2.310   2.638  10.155  0.2988 -0.0721  0.3998
 8181SOL    HW126796   2.367   2.637  10.231  2.3900 -0.7209 -1.0850
 8181SOL    HW226797   2.269   2.725  10.156 -0.8913 -0.5809  3.0014
 8182SOL     OW26798   8.544   7.914   1.700 -0.3483  0.0707  0.0678
 8182SOL    HW126799   8.513   7.824   1.687 -0.0679 -0.2250  1.2915
 8182SOL    HW226800   8.464   7.967   1.703 -0.6366 -0.3807  0.9846
 8183SOL     OW26801   8.840   4.540   0.777 -0.0864 -0.3168 -0.0510
 8183SOL    HW126802   8.864   4.453   0.745 -2.2362 -0.3367 -1.9082
 8183SOL    HW226803   8.922   4.589   0.777  1.1020 -2.2094  0.6783
 8184SOL     OW26804   7.143   7.102   8.331 -0.0411 -0.6181 -0.1020
 8184SOL    HW126805   7.168   7.076   8.242 -2.4818  1.8274 -1.6753
 8184SOL    HW226806   7.097   7.026   8.366 -2.1935 -0.5167 -2.4153
 8185SOL     OW26807   0.618   4.377   0.868 -0.4158  0.0690  0.0260
 8185SOL    HW126808   0.540   4.402   0.818 -0.1585 -1.0867 -1.0049
 8185SOL    HW226809   0.615   4.282   0.871  1.1754 -0.0144 -0.3753
 8186SOL     OW26810   4.785   8.393   6.098  0.5088  0.2031 -0.6203
 8186SOL    HW126811   4.805   8.465   6.158 -0.8520 -0.1842  0.3537
 8186SOL    HW226812   4.709   8.349   6.138  0.6446 -1.1195 -1.7444
 8187SOL     OW26813   4.941   8.588   8.709 -0.1527  0.5616 -0.2599
 8187SOL    HW126814   4.970   8.671   8.746  0.5985  0.2800 -0.1886
 8187SOL    HW226815   4.882   8.613   8.637  0.2255  1.1569 -0.3717
 8188SOL     OW26816   3.955   4.766   7.632  0.0733  0.8116  0.1229
 8188SOL    HW126817   3.884   4.825   7.659  1.5281  2.3629  0.7428
 8188SOL    HW226818   3.946   4.690   7.690 -1.4070  0.7057 -0.2002
 8189SOL     OW26819   5.632   6.414   6.382  0.1883  0.1836 -0.3455
 8189SOL    HW126820   5.621   6.494   6.331 -0.0152 -0.4841 -1.3791
 8189SOL    HW226821   5.546   6.371   6.380  0.7009 -0.8626 -1.2248
 8190SOL     OW26822   2.428   5.094   3.755 -0.0319 -0.4821  1.0990
 8190SOL    HW126823   2.503   5.039   3.732 -0.1483 -0.4472  0.6284
 8190SOL    HW226824   2.455   5.182   3.730 -0.9609 -0.7129 -0.9496
 8191SOL     OW26825   8.707   9.080  10.428  0.3329  0.1858  0.1568
 8191SOL    HW126826   8.797   9.055  10.452  0.8462  1.5881 -0.2054
 8191SOL    HW226827   8.658   9.072  10.510  0.5991 -1.3377  0.1896
 8192SOL     OW26828   0.453   7.288   9.450 -0.1990 -0.0756 -0.0992
 8192SOL    HW126829   0.537   7.323   9.480  0.0734 -1.9488  1.5060
 8192SOL    HW226830   0.388   7.350   9.484  0.3841  0.0270  0.8623
 8193SOL     OW26831   8.966   8.785   4.656 -0.2257  0.2765  0.5924
 8193SOL    HW126832   8.978   8.879   4.661 -0.6694  0.4544 -0.9467
 8193SOL    HW226833   8.955   8.757   4.747  1.7579  1.4163  1.2463
 8194SOL     OW26834   7.267   8.072   8.453  0.2697 -0.0024 -0.0028
 8194SOL    HW126835   7.175   8.066   8.479  0.9453 -2.3044  2.2976
 8194SOL    HW226836   7.309   8.121   8.523  1.3087 -1.9852  0.8535
 8195SOL     OW26837   4.237   3.385   4.783  0.2159 -0.2148  0.4386
 8195SOL    HW126838   4.234   3.290   4.778 -0.6997 -0.3035  2.2087
 8195SOL    HW226839   4.318   3.404   4.831 -0.2954 -0.1791  1.3040
 8196SOL     OW26840   0.081   0.478   8.420  0.1927 -0.8657 -0.0706
 8196SOL    HW126841  -0.003   0.516   8.398 -0.5072 -1.2298  1.7425
 8196SOL    HW226842   0.062   0.385   8.434  1.3308 -1.3858 -1.6914
 8197SOL     OW26843  10.419   1.075   2.932 -0.0814  0.3052  0.1745
 8197SOL    HW126844  10.406   1.044   3.021 -0.4559 -0.5670 -0.1748
 8197SOL    HW226845  10.513   1.092   2.926 -0.2921  2.1390  1.2754
 8198SOL     OW26846   9.880   3.013   9.819  0.3374  0.2918  0.2198
 8198SOL    HW126847   9.956   2.962   9.790  0.3048  0.6878 -0.5890
 8198SOL    HW226848   9.910   3.057   9.898  1.3459  1.3572 -0.7200
 8199SOL     OW26849   8.537   9.565   0.350 -0.7182 -0.0658 -0.2296
 8199SOL    HW126850   8.488   9.484   0.335  0.2742 -1.1299  1.7789
 8199SOL    HW226851   8.488   9.632   0.303 -0.4194 -2.1171 -3.8112
 8200SOL     OW26852   9.093   9.806   0.008 -0.2282  0.2593  0.1965
 8200SOL    HW126853   9.026   9.781   0.071  1.0174  0.9153  1.8325
 8200SOL    HW226854   9.173   9.763   0.039  0.4842  0.8235 -0.7864
 8201SOL     OW26855   4.415   4.700   9.464  0.4265 -0.1897  0.1081
 8201SOL    HW126856   4.331   4.658   9.483 -0.1704  0.4959 -0.9334
 8201SOL    HW226857   4.430   4.757   9.539  0.8678 -1.6182  1.1707
 8202SOL     OW26858   2.849   9.788   6.500 -0.7821  0.5808  0.3109
 8202SOL    HW126859   2.816   9.739   6.575  0.9751  0.8079  1.2833
 8202SOL    HW226860   2.852   9.879   6.531 -0.5028  0.7446 -0.1951
 8203SOL     OW26861   9.443  10.331   6.322  0.0599 -0.1736  0.6775
 8203SOL    HW126862   9.411  10.419   6.305  0.3851 -0.0677  0.5922
 8203SOL    HW226863   9.379  10.273   6.281 -0.7721 -0.0245  1.7150
 8204SOL     OW26864   2.754   0.516   9.261  0.3958 -0.1503 -0.6660
 8204SOL    HW126865   2.669   0.470   9.263  0.1186  0.3704 -0.3001
 8204SOL    HW226866   2.801   0.475   9.188 -0.8503  0.7327 -2.0122
 8205SOL     OW26867   0.767   0.366   5.371  0.6258  0.1713 -0.5894
 8205SOL    HW126868   0.782   0.295   5.308 -0.4050  2.0007 -3.0838
 8205SOL    HW226869   0.845   0.422   5.361  0.5404  0.3789 -0.0851
 8206SOL     OW26870   1.367   1.004   9.991 -0.2672 -0.3687 -0.2052
 8206SOL    HW126871   1.454   0.977  10.020 -0.0348  0.6168  0.0361
 8206SOL    HW226872   1.316   0.923   9.990  0.4611 -0.8426  0.3172
 8207SOL     OW26873   8.015   9.698   5.659  0.0218  0.0009  0.0884
 8207SOL    HW126874   8.004   9.787   5.694  0.9028 -0.5784  1.9600
 8207SOL    HW226875   7.951   9.645   5.707 -0.3591 -0.4390 -0.8731
 8208SOL     OW26876   7.775   7.770   8.026  0.2270 -0.7351 -0.2966
 8208SOL    HW126877   7.864   7.791   8.054 -0.1861 -0.1700  0.6344
 8208SOL    HW226878   7.719   7.815   8.089 -0.7188 -1.6622 -0.4489
 8209SOL     OW26879   3.955  10.603  10.435  0.2002  0.3774  0.3476
 8209SOL    HW126880   3.983  10.515  10.461 -2.1329 -0.2114  1.0399
 8209SOL    HW226881   3.942  10.597  10.341  2.7296  0.8267 -0.1128
 8210SOL     OW26882   3.623   2.506   5.042  0.4306  0.4602  0.4833
 8210SOL    HW126883   3.563   2.539   5.108 -0.3877 -0.7652  0.3746
 8210SOL    HW226884   3.702   2.481   5.091  0.5029  1.1823  0.7466
 8211SOL     OW26885   1.286   0.156   1.576 -0.2061 -0.6674  0.2071
 8211SOL    HW126886   1.261   0.201   1.495  1.3468  0.9955  0.5711
 8211SOL    HW226887   1.313   0.069   1.548 -0.1092 -0.2582 -1.0224
 8212SOL     OW26888   8.947   2.178   5.666 -0.2749  0.6652 -0.1826
 8212SOL    HW126889   9.007   2.253   5.672 -0.1091  0.7020 -1.8263
 8212SOL    HW226890   8.985   2.112   5.725  0.9973  0.9600 -0.6383
 8213SOL     OW26891   5.458   7.404   9.671  0.3247  0.2396 -0.5836
 8213SOL    HW126892   5.459   7.312   9.644  1.9396 -0.8282  2.5657
 8213SOL    HW226893   5.365   7.426   9.677 -0.3277 -2.4950  2.1396
 8214SOL     OW26894   7.729   7.791   7.684 -0.2992  0.3013 -0.0855
 8214SOL    HW126895   7.650   7.816   7.732 -1.4569 -0.7952 -1.3109
 8214SOL    HW226896   7.710   7.816   7.593  1.3683  1.3085 -0.1883
 8215SOL     OW26897   6.577   9.909  10.202  0.0334  0.1917  0.0402
 8215SOL    HW126898   6.561   9.935  10.111 -0.2650 -1.8016 -0.5319
 8215SOL    HW226899   6.577   9.813  10.199  0.2312  0.0966  2.1199
 8216SOL     OW26900   2.498   9.368   5.354  0.4235 -0.2553  0.0511
 8216SOL    HW126901   2.485   9.280   5.318 -0.2751  0.1874 -0.7983
 8216SOL    HW226902   2.522   9.353   5.446  2.8472 -1.4424 -0.6775
 8217SOL     OW26903   0.729   1.748  10.353 -0.6592  0.2253  0.0759
 8217SOL    HW126904   0.708   1.792  10.270 -0.2075 -0.9205 -0.6841
 8217SOL    HW226905   0.809   1.698  10.333 -0.1783  0.4476  1.4014
 8218SOL     OW26906   8.944   2.641   1.398 -0.7765 -0.1898 -0.3223
 8218SOL    HW126907   8.943   2.566   1.456  3.1851  0.2254  0.5553
 8218SOL    HW226908   8.934   2.717   1.456 -1.0749  0.0759 -0.7182
 8219SOL     OW26909   0.681   7.196  10.365  0.7649 -0.1726 -0.1088
 8219SOL    HW126910   0.592   7.190  10.402  1.0294 -0.2178  0.5325
 8219SOL    HW226911   0.681   7.280  10.319  0.6464  0.2371  0.6127
 8220SOL     OW26912   7.089   1.041   5.629 -0.4268 -0.0561 -0.3043
 8220SOL    HW126913   7.157   1.108   5.623  0.2153 -0.7709 -1.3870
 8220SOL    HW226914   7.136   0.960   5.651 -1.3647  0.0740  2.6228
 8221SOL     OW26915   0.335   5.906   2.547 -0.0307 -0.0992 -0.2569
 8221SOL    HW126916   0.272   5.944   2.486  0.7062  0.7070 -0.5249
 8221SOL    HW226917   0.418   5.946   2.524  0.7157 -1.6286 -0.3097
 8222SOL     OW26918   6.751   0.740   1.092 -0.2127  0.3219 -0.1389
 8222SOL    HW126919   6.704   0.824   1.095  1.5038  1.3398  0.0389
 8222SOL    HW226920   6.837   0.763   1.056  1.4814 -0.7382  2.9096
 8223SOL     OW26921   7.548   2.141   9.515 -0.4579 -0.9351  0.8615
 8223SOL    HW126922   7.598   2.134   9.597  0.3656 -0.1915  0.4514
 8223SOL    HW226923   7.600   2.093   9.451  0.7353  1.3253  0.0211
 8224SOL     OW26924   7.169   6.125   4.029 -0.4051  0.0375  0.5317
 8224SOL    HW126925   7.208   6.103   4.114 -2.5165 -1.1185  1.2892
 8224SOL    HW226926   7.127   6.043   4.001 -0.2257  0.5615 -1.3777
 8225SOL     OW26927   8.574   3.019   5.563 -0.3125 -0.2969 -0.0020
 8225SOL    HW126928   8.593   2.951   5.627 -3.1784 -1.6023 -0.3562
 8225SOL    HW226929   8.544   3.094   5.615  1.8107  0.3662  0.3357
 8226SOL     OW26930   1.578   2.137   2.824 -0.1804  0.3901  0.3890
 8226SOL    HW126931   1.524   2.086   2.763  0.9079 -0.9745  0.5309
 8226SOL    HW226932   1.570   2.091   2.908  1.4327 -0.0317  0.3407
 8227SOL     OW26933  10.335   2.924   6.654  0.1675 -0.2006 -0.3130
 8227SOL    HW126934  10.270   2.901   6.720 -0.6896  0.8991 -0.7437
 8227SOL    HW226935  10.418   2.895   6.691 -0.3593 -0.0743  1.0169
 8228SOL     OW26936   8.977   3.993   6.602  0.1011  0.4252 -0.2977
 8228SOL    HW126937   9.065   3.959   6.585 -0.1653 -0.0972 -0.6611
 8228SOL    HW226938   8.952   4.037   6.521  0.1943  0.9633 -0.0432
 8229SOL     OW26939   1.124   5.484   2.583  0.4083 -0.0206  0.5143
 8229SOL    HW126940   1.165   5.541   2.649  0.3469 -0.2386  0.7419
 8229SOL    HW226941   1.168   5.507   2.501  1.7027 -0.9372  0.9193
 8230SOL     OW26942   4.372   8.182   4.026 -0.2994  0.4054 -0.0890
 8230SOL    HW126943   4.366   8.136   4.110 -0.3413 -0.8227 -0.7403
 8230SOL    HW226944   4.459   8.221   4.026 -1.3187  2.9965  1.7699
 8231SOL     OW26945   9.193   5.118   1.681  0.1564  0.8796  0.4626
 8231SOL    HW126946   9.148   5.158   1.755  0.1389  0.5775  0.6209
 8231SOL    HW226947   9.172   5.024   1.688  2.3537  0.4083  1.6677
 8232SOL     OW26948   5.985   7.863   5.475  0.3255 -0.5861  0.2810
 8232SOL    HW126949   6.064   7.817   5.504  0.8653 -0.0353 -0.2666
 8232SOL    HW226950   5.966   7.827   5.388  0.8965  0.3492 -0.2612
 8233SOL     OW26951   1.572   6.715   9.182 -0.6310  0.5172 -0.8454
 8233SOL    HW126952   1.482   6.728   9.211 -0.6514 -1.7699  0.4338
 8233SOL    HW226953   1.565   6.673   9.096 -0.6673  2.9574 -2.1023
 8234SOL     OW26954   9.998  10.633   4.775  0.2295 -0.0133 -0.3808
 8234SOL    HW126955   9.980  10.638   4.681  1.3563 -2.3924 -0.7984
 8234SOL    HW226956   9.912  10.619   4.815 -0.0136 -1.7131 -1.3793
 8235SOL     OW26957   4.276   4.488   5.640 -0.1378 -0.5662 -0.2073
 8235SOL    HW126958   4.294   4.397   5.617  0.0483 -0.5628 -0.0744
 8235SOL    HW226959   4.195   4.509   5.592 -0.7742 -1.1224  0.5912
 8236SOL     OW26960   8.848   7.999   9.392 -0.4402  0.0094  0.0279
 8236SOL    HW126961   8.846   7.912   9.433  1.6250  0.0686  0.3893
 8236SOL    HW226962   8.877   7.982   9.302 -0.7114  0.2592 -0.1061
 8237SOL     OW26963  10.619   6.728   1.574 -0.5300  0.5418 -0.3229
 8237SOL    HW126964  10.618   6.692   1.663  1.7655 -0.2858 -0.5548
 8237SOL    HW226965  10.541   6.691   1.532 -0.5723 -0.6769  0.7624
 8238SOL     OW26966   2.239   2.313   9.034 -0.0185 -0.3626 -0.4313
 8238SOL    HW126967   2.232   2.401   8.998  3.1983 -1.0124 -3.1926
 8238SOL    HW226968   2.168   2.264   8.992 -0.3224  0.3621 -0.7744
 8239SOL     OW26969   7.301   0.620   8.613  0.3140  0.1989  0.6048
 8239SOL    HW126970   7.304   0.525   8.605  0.3438  0.2758 -0.4744
 8239SOL    HW226971   7.230   0.647   8.554  0.6060  0.8748  0.5458
 8240SOL     OW26972   4.371   0.541   7.294 -0.4408 -0.0170 -0.4492
 8240SOL    HW126973   4.462   0.530   7.267  0.1022  0.2691  1.1368
 8240SOL    HW226974   4.377   0.572   7.385 -2.1174  0.2805 -0.4139
 8241SOL     OW26975   7.128   8.498   8.763 -0.3201  0.1773 -0.4689
 8241SOL    HW126976   7.042   8.491   8.804 -0.8150 -1.1497 -1.6250
 8241SOL    HW226977   7.190   8.465   8.828 -0.8796 -0.3208 -0.1859
 8242SOL     OW26978   1.336   6.248   7.486 -0.1370 -0.3532  0.1238
 8242SOL    HW126979   1.342   6.272   7.393 -0.3955  1.8134  0.6087
 8242SOL    HW226980   1.389   6.314   7.531 -0.8607 -0.7554  1.6148
 8243SOL     OW26981   9.999   9.345   4.968 -0.2790  0.2963 -0.7736
 8243SOL    HW126982   9.940   9.363   4.894 -0.6072 -0.3554 -0.6782
 8243SOL    HW226983   9.940   9.336   5.043  0.0998  1.5999 -0.2975
 8244SOL     OW26984   3.777   9.692   2.176 -0.2504  0.3816  0.2175
 8244SOL    HW126985   3.843   9.673   2.109  1.8541 -0.7141  2.4437
 8244SOL    HW226986   3.700   9.720   2.127  1.4397  0.4496 -2.5858
 8245SOL     OW26987   0.266   4.815   6.856 -0.5184 -0.0139  0.3372
 8245SOL    HW126988   0.198   4.879   6.877  1.7344  2.9844 -0.7585
 8245SOL    HW226989   0.311   4.800   6.940 -0.3789  0.7671  0.4120
 8246SOL     OW26990   5.443   4.177   6.376 -0.2894 -0.1517  0.1292
 8246SOL    HW126991   5.497   4.141   6.306  0.1135  0.6740  0.0052
 8246SOL    HW226992   5.375   4.227   6.332  0.0449  0.4839  0.3233
 8247SOL     OW26993   0.614   5.672   6.501  0.5038 -0.3162 -0.1320
 8247SOL    HW126994   0.576   5.633   6.580 -0.3674 -0.9180 -0.8242
 8247SOL    HW226995   0.561   5.637   6.429 -0.6339  2.4722 -0.7950
 8248SOL     OW26996   0.540   7.962   0.286 -0.5012  0.0766  0.7555
 8248SOL    HW126997   0.518   7.970   0.379  0.3650  2.2744  0.8207
 8248SOL    HW226998   0.628   7.923   0.286 -0.4079  0.2846  0.8728
 8249SOL     OW26999   6.106   2.666   9.690 -0.4769  0.2396  0.1260
 8249SOL    HW127000   6.049   2.626   9.625  0.0869  1.2505 -1.0231
 8249SOL    HW227001   6.163   2.595   9.719 -1.0650 -0.3380 -0.1170
 8250SOL     OW27002   0.216   7.797   5.603 -0.4365  0.1553 -0.0298
 8250SOL    HW127003   0.189   7.816   5.693 -0.6443  1.6779 -0.3925
 8250SOL    HW227004   0.311   7.794   5.606 -0.3151  2.2212 -0.0773
 8251SOL     OW27005   2.752  10.595   1.565  0.0406  0.2737 -0.6803
 8251SOL    HW127006   2.685  10.631   1.623  0.2660  2.1976 -1.5391
 8251SOL    HW227007   2.775  10.510   1.604 -4.2449 -1.4531 -1.3758
 8252SOL     OW27008   5.236   1.228   1.026  0.0816  0.3513 -0.3612
 8252SOL    HW127009   5.269   1.167   1.092  0.9731 -0.2366 -1.3231
 8252SOL    HW227010   5.256   1.314   1.062  0.2070  0.0545  0.3124
 8253SOL     OW27011   1.786   0.831   9.767 -0.3117 -0.1245 -0.2274
 8253SOL    HW127012   1.748   0.747   9.741 -0.5832  0.1459 -0.7160
 8253SOL    HW227013   1.711   0.888   9.782 -0.1213  0.8470 -2.6242
 8254SOL     OW27014   8.655  10.328   8.634  0.7032  0.4440  0.0582
 8254SOL    HW127015   8.647  10.250   8.578  0.7400  1.2754 -1.1500
 8254SOL    HW227016   8.577  10.325   8.690 -0.8138  0.9814 -1.8966
 8255SOL     OW27017   4.146   7.738   2.296 -0.7498  0.6439 -0.2092
 8255SOL    HW127018   4.196   7.819   2.307  2.0186 -0.8722 -0.5834
 8255SOL    HW227019   4.114   7.717   2.384  1.8023  0.2619  0.7260
 8256SOL     OW27020   2.264   8.476   6.403  0.0313  0.3113  0.5113
 8256SOL    HW127021   2.237   8.541   6.338  2.8478  0.1186 -1.0070
 8256SOL    HW227022   2.204   8.403   6.390  0.1671  0.5053 -1.5192
 8257SOL     OW27023   2.975   8.761   2.104 -0.2285  0.3433 -0.0214
 8257SOL    HW127024   2.990   8.667   2.112 -0.8991  0.3040  0.8642
 8257SOL    HW227025   2.918   8.770   2.027  0.8027  0.1444 -0.8393
 8258SOL     OW27026   4.362   2.720   2.605 -0.1128 -0.4366 -0.3919
 8258SOL    HW127027   4.276   2.699   2.568 -0.0250  0.5709 -1.2365
 8258SOL    HW227028   4.419   2.650   2.574 -0.2988 -0.2410 -1.2136
 8259SOL     OW27029   2.925   1.589   0.093 -0.3145 -0.1464  0.1041
 8259SOL    HW127030   3.000   1.535   0.118  0.0972  0.2954 -0.1498
 8259SOL    HW227031   2.849   1.532   0.106  0.2645 -1.9336 -3.0572
 8260SOL     OW27032   7.457   9.283   2.768 -0.1353  0.1491 -0.0729
 8260SOL    HW127033   7.479   9.202   2.723 -1.9978 -1.4912  1.7883
 8260SOL    HW227034   7.362   9.290   2.761 -0.1880  1.2565  1.2317
 8261SOL     OW27035   6.764   5.830   7.237 -0.1361  0.2688 -0.5762
 8261SOL    HW127036   6.725   5.764   7.180 -0.6515 -0.9823  1.1474
 8261SOL    HW227037   6.842   5.789   7.273  1.0278  1.5892 -1.4814
 8262SOL     OW27038   6.578   4.005   8.033 -0.2223  0.3320 -0.6668
 8262SOL    HW127039   6.648   3.953   7.994 -0.1280  0.3049 -0.4608
 8262SOL    HW227040   6.617   4.041   8.113 -0.0145  1.3790 -1.2138
 8263SOL     OW27041   1.714   1.877   4.593  0.3891 -0.1722  0.3569
 8263SOL    HW127042   1.696   1.807   4.655 -0.3229 -0.8740 -0.6026
 8263SOL    HW227043   1.649   1.865   4.524 -0.0679  1.7563  0.4099
 8264SOL     OW27044   7.123   4.500   4.358 -0.3364  0.3497 -0.1879
 8264SOL    HW127045   7.124   4.593   4.334  1.8719  0.3951 -0.1569
 8264SOL    HW227046   7.148   4.455   4.277  0.1735 -0.0646  0.1938
 8265SOL     OW27047   6.563   7.712   1.292  0.6847  0.1073 -0.1552
 8265SOL    HW127048   6.594   7.657   1.219 -1.0204 -0.0047 -0.8492
 8265SOL    HW227049   6.610   7.680   1.368  0.2000 -1.9299 -0.6607
 8266SOL     OW27050   6.393   6.516   5.732  0.7450  0.1547 -0.4169
 8266SOL    HW127051   6.300   6.525   5.712  0.2331 -0.3527  1.4637
 8266SOL    HW227052   6.409   6.582   5.799  1.3902 -0.6237  0.2285
 8267SOL     OW27053   6.003   3.977   8.190  0.4289  0.1038 -0.0499
 8267SOL    HW127054   6.096   3.972   8.213  1.4101  2.0365 -3.0060
 8267SOL    HW227055   5.982   3.892   8.152  1.9743  0.6068 -2.2263
 8268SOL     OW27056   6.302  10.017   6.627  0.1916 -0.7656 -0.5050
 8268SOL    HW127057   6.270  10.100   6.592  0.8977  0.1824  1.0012
 8268SOL    HW227058   6.228   9.982   6.677  0.4830 -0.1122  0.3984
 8269SOL     OW27059   0.350   2.727   0.278 -0.3246 -0.3082  0.1386
 8269SOL    HW127060   0.377   2.636   0.263  0.8186  0.1334 -0.6712
 8269SOL    HW227061   0.284   2.743   0.211 -0.6274 -0.5666  0.3669
 8270SOL     OW27062   6.263   3.053   0.488 -0.4262  0.2042 -0.1637
 8270SOL    HW127063   6.293   3.133   0.444 -0.1041  0.3975  0.3904
 8270SOL    HW227064   6.297   3.061   0.577 -0.6077 -0.4367 -0.0331
 8271SOL     OW27065  10.298   3.485   7.313  0.3273 -0.2228 -0.2985
 8271SOL    HW127066  10.269   3.397   7.337  0.0465  0.4398  2.0203
 8271SOL    HW227067  10.218   3.538   7.312  0.8080  0.6058  1.3527
 8272SOL     OW27068   2.117   1.816  10.115  0.2519  0.0349  0.1328
 8272SOL    HW127069   2.045   1.874  10.139 -0.3599 -1.4635  2.1659
 8272SOL    HW227070   2.192   1.850  10.164  0.4131  0.3620 -0.3414
 8273SOL     OW27071   4.675   6.579   6.334 -0.3805  0.2608 -0.0435
 8273SOL    HW127072   4.617   6.557   6.261 -2.5264  2.0134  1.0370
 8273SOL    HW227073   4.620   6.572   6.412  1.7424 -1.1833  1.4454
 8274SOL     OW27074   0.873   4.735   9.198 -0.4851  0.1144  0.0945
 8274SOL    HW127075   0.942   4.755   9.134 -0.4956  0.4214  0.1784
 8274SOL    HW227076   0.792   4.737   9.148 -0.2340 -2.9326 -0.6108
 8275SOL     OW27077   0.388   7.270   9.180  0.1716  0.0325 -0.2780
 8275SOL    HW127078   0.407   7.308   9.266 -0.6188 -1.8426  0.7636
 8275SOL    HW227079   0.312   7.215   9.194 -0.1772 -0.0590 -2.2821
 8276SOL     OW27080   2.577  10.133   4.202 -0.1936  0.6862  0.2906
 8276SOL    HW127081   2.526  10.061   4.163  1.1561  0.9517 -2.2026
 8276SOL    HW227082   2.547  10.211   4.155  0.5208  1.2584  0.7695
 8277SOL     OW27083   5.511   7.333   7.976  0.2736  0.3383 -0.2464
 8277SOL    HW127084   5.468   7.389   8.041 -1.7804  0.7114 -1.8235
 8277SOL    HW227085   5.550   7.394   7.913 -1.2946  0.0575 -1.5427
 8278SOL     OW27086   3.475   6.731   3.654 -0.0545 -0.1802 -0.3624
 8278SOL    HW127087   3.423   6.812   3.659  0.3522  0.0454  0.4631
 8278SOL    HW227088   3.525   6.740   3.573 -1.0344 -0.2431 -0.9925
 8279SOL     OW27089   8.452   3.984   5.255  0.0941  0.4247  0.1118
 8279SOL    HW127090   8.429   4.074   5.279 -1.8466 -0.3379  1.4048
 8279SOL    HW227091   8.535   3.968   5.300 -0.6009  0.9102  1.6258
 8280SOL     OW27092   5.748  10.492   2.481 -0.2978  0.4369  0.2585
 8280SOL    HW127093   5.771  10.433   2.553 -1.3232 -0.7896 -0.3792
 8280SOL    HW227094   5.700  10.437   2.419 -2.5614  2.2390  0.2778
 8281SOL     OW27095   1.342   9.050   8.970  0.3175  0.0028 -0.0514
 8281SOL    HW127096   1.271   8.987   8.962  0.7693 -0.8313  1.9267
 8281SOL    HW227097   1.361   9.053   9.063  2.2561  0.9238 -0.4279
 8282SOL     OW27098  10.058   4.430   0.229 -0.4620 -0.5259  0.6742
 8282SOL    HW127099  10.022   4.388   0.152 -0.8155 -1.1789  1.1863
 8282SOL    HW227100   9.990   4.492   0.256  0.1259  0.5214 -0.1743
 8283SOL     OW27101   2.863   2.529   8.969 -0.0264  0.3318  0.3807
 8283SOL    HW127102   2.803   2.580   8.915  0.7507 -0.6912 -1.5167
 8283SOL    HW227103   2.835   2.439   8.958  1.5631 -0.1201 -0.1756
 8284SOL     OW27104  10.491   6.977  10.546  0.6589  0.0138 -0.2865
 8284SOL    HW127105  10.481   6.931  10.629 -0.4350 -0.5414 -0.7061
 8284SOL    HW227106  10.482   7.070  10.569  0.7797 -0.1105  0.2724
 8285SOL     OW27107   7.709   3.891   2.451  0.1054 -0.3140 -0.1850
 8285SOL    HW127108   7.683   3.928   2.535  1.7097  0.0167  0.2044
 8285SOL    HW227109   7.630   3.850   2.417 -1.1460  1.4278  0.4646
 8286SOL     OW27110   2.491   3.384   0.403  0.2651  0.0995  0.5685
 8286SOL    HW127111   2.441   3.395   0.484 -0.1995  0.8880  0.1874
 8286SOL    HW227112   2.574   3.347   0.432  0.1619  0.5012  1.4252
 8287SOL     OW27113   2.292   8.682   3.746  0.0326  0.1843  0.2426
 8287SOL    HW127114   2.337   8.734   3.813  1.1870  2.2653 -1.9749
 8287SOL    HW227115   2.348   8.605   3.734  2.2287  1.8913 -1.2435
 8288SOL     OW27116   7.957   4.855   7.893  0.2454 -0.4199  0.0852
 8288SOL    HW127117   7.967   4.791   7.963  0.3289  1.0639  1.4847
 8288SOL    HW227118   7.864   4.853   7.872  0.1725 -0.6947  0.4263
 8289SOL     OW27119   6.774   4.186   5.439  0.3051  0.0838  0.4506
 8289SOL    HW127120   6.791   4.118   5.373 -0.8315 -1.5508  1.7522
 8289SOL    HW227121   6.683   4.173   5.463  0.8898  0.0427  2.9336
 8290SOL     OW27122   1.149   1.276   1.526  0.4704  0.3477 -0.2327
 8290SOL    HW127123   1.168   1.303   1.616  0.0471  3.2277 -0.8976
 8290SOL    HW227124   1.094   1.346   1.491  0.6394 -0.6540 -2.7627
 8291SOL     OW27125   8.575   4.798   7.084 -0.5718  0.3083 -0.2383
 8291SOL    HW127126   8.597   4.706   7.070 -1.9752 -0.0058 -0.5306
 8291SOL    HW227127   8.511   4.797   7.155 -1.4305  0.9319 -0.9706
 8292SOL     OW27128   2.303   3.576   9.109 -0.5213  0.0505 -0.0178
 8292SOL    HW127129   2.300   3.541   9.198  0.4218 -0.8478 -0.3233
 8292SOL    HW227130   2.246   3.518   9.058 -1.7427  1.0578  0.1290
 8293SOL     OW27131  10.272   9.909   7.685  0.2926  0.2126  0.0354
 8293SOL    HW127132  10.218   9.843   7.729 -0.8985  1.7508  1.0277
 8293SOL    HW227133  10.340   9.930   7.749  0.1754  0.5080  0.0668
 8294SOL     OW27134  10.564   3.248   0.900  0.2097  0.1393  0.3585
 8294SOL    HW127135  10.608   3.188   0.959  0.9822  0.4019  0.0573
 8294SOL    HW227136  10.620   3.251   0.822 -0.1042  0.8185  0.1494
 8295SOL     OW27137   6.584   2.772   4.837  0.0486 -0.2620 -0.3115
 8295SOL    HW127138   6.574   2.812   4.750 -1.2689  0.8336  0.3171
 8295SOL    HW227139   6.545   2.685   4.828 -2.1736  0.6610 -0.2791
 8296SOL     OW27140   3.193   2.162   9.465 -0.0561  0.0020  0.4353
 8296SOL    HW127141   3.183   2.096   9.397  0.4525 -1.1861  1.4595
 8296SOL    HW227142   3.197   2.245   9.418 -1.0171 -0.6542 -0.8749
 8297SOL     OW27143   8.293   6.093   0.770  0.2951  0.3009 -0.2052
 8297SOL    HW127144   8.374   6.051   0.741  0.2494 -0.1543  0.3058
 8297SOL    HW227145   8.318   6.184   0.786  1.0900 -0.1563  1.3947
 8298SOL     OW27146  10.054   6.164   8.961  0.2809 -0.6189  0.0205
 8298SOL    HW127147  10.026   6.156   9.052  1.8530  0.5366  0.6344
 8298SOL    HW227148  10.125   6.100   8.952 -0.7305 -1.6715 -0.7949
 8299SOL     OW27149   8.119   5.841   2.282 -0.5877  0.5258  0.3185
 8299SOL    HW127150   8.066   5.921   2.274 -1.3575 -0.1000 -1.0993
 8299SOL    HW227151   8.153   5.825   2.194 -0.6269 -0.8265  0.5276
 8300SOL     OW27152  10.326  10.589   1.040 -0.4281 -0.3993 -0.8006
 8300SOL    HW127153  10.419  10.605   1.025 -0.2588  0.6787  1.0336
 8300SOL    HW227154  10.316  10.494   1.033  1.1202 -0.6841  0.3813
 8301SOL     OW27155   7.884   0.504   1.335  0.4665  0.5897  0.3562
 8301SOL    HW127156   7.834   0.541   1.263 -0.3440  1.2053  1.2043
 8301SOL    HW227157   7.973   0.497   1.302 -0.1507 -0.4896 -1.1766
 8302SOL     OW27158   0.985   4.483   8.240 -0.7428 -0.1874  0.0755
 8302SOL    HW127159   1.015   4.511   8.153 -0.3898 -1.1610 -0.1350
 8302SOL    HW227160   1.015   4.552   8.299 -0.2653  0.0822 -0.4710
 8303SOL     OW27161   8.569   5.206   2.795 -0.5332  0.0806  0.1471
 8303SOL    HW127162   8.477   5.225   2.776 -0.2744  1.3810  0.0725
 8303SOL    HW227163   8.602   5.164   2.716 -1.0702 -0.4448  0.1922
 8304SOL     OW27164   3.382   1.338   2.829 -0.3571 -0.5521 -0.1684
 8304SOL    HW127165   3.390   1.253   2.873  0.0807 -0.8204 -0.7439
 8304SOL    HW227166   3.349   1.397   2.896  0.1814 -0.9776  0.4817
 8305SOL     OW27167  10.380   9.932   0.643 -0.3650 -0.0905  0.3644
 8305SOL    HW127168  10.346   9.982   0.568  0.4534 -0.2370 -0.1223
 8305SOL    HW227169  10.431   9.862   0.603 -0.4208 -0.5380  1.0625
 8306SOL     OW27170   9.658  10.382   1.171  0.3807  0.1799 -0.3527
 8306SOL    HW127171   9.657  10.297   1.127 -0.2450 -0.0471  0.0919
 8306SOL    HW227172   9.704  10.365   1.254  1.3508  0.5550 -0.7959
 8307SOL     OW27173   0.977   1.706   9.899  0.0133 -0.1371  0.1814
 8307SOL    HW127174   1.002   1.650   9.972  0.2905  0.9776  0.9685
 8307SOL    HW227175   1.038   1.780   9.904 -0.2621  0.1843 -0.9003
 8308SOL     OW27176   5.419   8.401   7.617  0.3201 -0.6001  0.3177
 8308SOL    HW127177   5.488   8.467   7.632  1.2905 -1.0308 -1.8287
 8308SOL    HW227178   5.455   8.320   7.654  0.4383 -0.5600  0.2926
 8309SOL     OW27179   8.550   5.388   6.463  0.7588  0.1408  0.0810
 8309SOL    HW127180   8.558   5.469   6.513 -1.0770 -1.0442  2.5413
 8309SOL    HW227181   8.636   5.346   6.469  0.9495  0.6612  1.1791
 8310SOL     OW27182   3.800   2.831   7.486  0.1352  0.3960 -0.0033
 8310SOL    HW127183   3.715   2.862   7.518 -0.7877 -2.7915  1.0554
 8310SOL    HW227184   3.784   2.811   7.394 -0.5096 -0.7658  0.3352
 8311SOL     OW27185   7.599   9.743   0.448 -0.4372 -0.1600 -0.0949
 8311SOL    HW127186   7.636   9.663   0.410 -0.1814 -0.2685  0.3856
 8311SOL    HW227187   7.554   9.713   0.527  1.2128  0.4147  1.1006
 8312SOL     OW27188   6.403   5.561   0.317  0.0933 -0.5454  0.2736
 8312SOL    HW127189   6.411   5.511   0.236 -1.5034 -1.0409  0.3843
 8312SOL    HW227190   6.433   5.502   0.386 -0.4154 -0.8404  0.2461
 8313SOL     OW27191   8.105   6.531   7.469 -0.1755 -0.5129 -0.5866
 8313SOL    HW127192   8.186   6.520   7.420 -0.4875 -1.2518 -0.9464
 8313SOL    HW227193   8.097   6.451   7.521 -0.8144 -0.5622 -0.7573
 8314SOL     OW27194   0.554   4.792   6.013 -0.3244 -0.1249 -0.2160
 8314SOL    HW127195   0.570   4.796   6.107  3.6406  0.8810 -0.7465
 8314SOL    HW227196   0.551   4.698   5.993 -1.0548 -0.3480  0.8805
 8315SOL     OW27197   8.687  10.494   9.005 -0.4435 -0.0643 -0.4516
 8315SOL    HW127198   8.618  10.448   8.957  0.0672 -1.7196  0.3249
 8315SOL    HW227199   8.768  10.469   8.961 -0.2470  1.1601 -0.8115
 8316SOL     OW27200   6.246   9.866   0.524  0.3942  0.0433 -0.3725
 8316SOL    HW127201   6.231   9.839   0.615  1.1565 -0.6516 -0.4377
 8316SOL    HW227202   6.204   9.952   0.517  2.2041  1.1427  1.2865
 8317SOL     OW27203   3.975   9.049   3.306  0.2456  0.3344 -0.1401
 8317SOL    HW127204   4.020   8.978   3.260  0.2070 -0.1234  0.5193
 8317SOL    HW227205   3.996   9.035   3.398 -1.1448  0.1848  0.1720
 8318SOL     OW27206   0.302   5.223   4.346 -0.1937  0.0356  0.8921
 8318SOL    HW127207   0.322   5.316   4.353 -0.7864  0.1276  1.5690
 8318SOL    HW227208   0.349   5.183   4.419 -0.0970 -0.1715  0.7183
 8319SOL     OW27209  10.283  10.647   6.098  0.1561  0.3693  0.2587
 8319SOL    HW127210  10.194  10.620   6.078  0.7779 -0.6743 -1.3268
 8319SOL    HW227211  10.294  10.730   6.051  0.1070  0.3651  0.2405
 8320SOL     OW27212   8.110   2.879   3.196 -0.1873 -0.4262  0.3555
 8320SOL    HW127213   8.167   2.956   3.185  1.2768 -1.5015  0.0999
 8320SOL    HW227214   8.149   2.813   3.138 -0.1842 -2.0203  2.0995
 8321SOL     OW27215   4.525   0.510   2.966  0.2838  0.2837  0.0532
 8321SOL    HW127216   4.595   0.450   2.988 -1.0135 -0.9527  1.0216
 8321SOL    HW227217   4.551   0.594   3.004  1.6241  0.0782 -0.3881
 8322SOL     OW27218   2.281   8.058   2.414 -0.8233 -0.2312  0.2382
 8322SOL    HW127219   2.227   8.007   2.353 -0.1521 -1.3058  0.5322
 8322SOL    HW227220   2.225   8.072   2.490 -0.1867 -2.8045  1.2636
 8323SOL     OW27221  10.217   3.825   9.870 -0.3255 -0.2825  0.0345
 8323SOL    HW127222  10.203   3.747   9.923 -1.8246  0.4452  0.7767
 8323SOL    HW227223  10.147   3.885   9.896  0.4271  1.0872 -0.9403
 8324SOL     OW27224   9.748   2.003   2.441 -0.4988  0.5895 -0.0049
 8324SOL    HW127225   9.739   1.972   2.531 -1.1661 -0.5967 -0.4495
 8324SOL    HW227226   9.806   2.079   2.447  0.1755  0.0096  1.3132
 8325SOL     OW27227   7.278   5.802   8.395 -0.5200 -0.6289 -0.1415
 8325SOL    HW127228   7.373   5.803   8.397 -0.4331 -2.9078  2.7094
 8325SOL    HW227229   7.256   5.737   8.328 -0.0510 -0.5835 -0.3386
 8326SOL     OW27230   1.069   9.650   5.448  0.2605 -0.7165 -0.2361
 8326SOL    HW127231   1.132   9.586   5.415  0.6830 -0.2224 -0.3898
 8326SOL    HW227232   0.986   9.603   5.449  0.5333 -1.2117 -0.5233
 8327SOL     OW27233   1.488   3.709   3.293 -0.0074  0.0737 -0.8324
 8327SOL    HW127234   1.478   3.618   3.265 -1.6781  0.7498 -2.7174
 8327SOL    HW227235   1.437   3.759   3.229 -0.3069  2.2199  0.9513
 8328SOL     OW27236   8.797  10.440   9.660 -0.1305  0.1976  0.8010
 8328SOL    HW127237   8.775  10.383   9.734  1.0346 -0.9606  0.2916
 8328SOL    HW227238   8.892  10.437   9.655 -0.1521  0.8974 -0.2644
 8329SOL     OW27239  10.622   4.619   8.615 -0.4046 -0.3250  0.3454
 8329SOL    HW127240  10.635   4.696   8.671  0.0036 -0.3731  0.3186
 8329SOL    HW227241  10.558   4.566   8.663  1.2355 -1.2180  1.6633
 8330SOL     OW27242   2.063   4.118   3.486 -0.8268  0.1669  0.4387
 8330SOL    HW127243   1.973   4.151   3.498 -0.9830  0.3509 -1.0927
 8330SOL    HW227244   2.119   4.188   3.520 -1.2384  0.0858  1.3324
 8331SOL     OW27245   1.534   2.862   8.429 -0.5043  0.2952 -0.6046
 8331SOL    HW127246   1.590   2.801   8.381  0.2684  0.2645  0.3287
 8331SOL    HW227247   1.446   2.824   8.422  0.0901 -1.3753  0.6677
 8332SOL     OW27248   7.505   1.634   0.381  0.7663  0.1103  0.3706
 8332SOL    HW127249   7.493   1.668   0.469  1.3418 -0.0524  0.5161
 8332SOL    HW227250   7.418   1.605   0.354  0.5382  0.4068  0.7796
 8333SOL     OW27251   5.744   7.788   4.515  0.0838 -0.4978  0.4747
 8333SOL    HW127252   5.746   7.875   4.476 -0.2531 -0.5044  0.4392
 8333SOL    HW227253   5.830   7.777   4.556  0.0411 -0.0549  0.6850
 8334SOL     OW27254   9.560   6.556   9.947 -0.3664 -0.0373  0.0493
 8334SOL    HW127255   9.574   6.648   9.965  0.7324 -0.3274  0.7791
 8334SOL    HW227256   9.494   6.554   9.877 -2.6120  1.2008  2.0115
 8335SOL     OW27257   2.285  10.325   8.844 -0.5710 -0.0708 -0.0663
 8335SOL    HW127258   2.317  10.251   8.896 -0.5458  0.9201  1.4046
 8335SOL    HW227259   2.363  10.363   8.805 -0.2772  0.4898  1.0097
 8336SOL     OW27260   8.306  10.447   9.364  0.1349  0.1248 -0.1543
 8336SOL    HW127261   8.260  10.439   9.447  2.1903 -0.0943  1.0420
 8336SOL    HW227262   8.251  10.401   9.301 -0.1693 -2.1850  1.6594
 8337SOL     OW27263   5.856   5.202   4.582 -0.0664 -0.3863  0.3589
 8337SOL    HW127264   5.939   5.240   4.611 -0.7401  1.4785 -0.0595
 8337SOL    HW227265   5.856   5.212   4.487  0.0373 -2.1626  0.1255
 8338SOL     OW27266   3.598   4.220   6.858  0.1913 -0.1172 -0.3027
 8338SOL    HW127267   3.594   4.191   6.767 -0.4826  0.1185 -0.3571
 8338SOL    HW227268   3.649   4.153   6.903 -0.4684 -0.8482 -0.6242
 8339SOL     OW27269   1.750   3.619   7.510 -0.0397  0.0303  0.3895
 8339SOL    HW127270   1.657   3.640   7.497  0.6901  2.8551 -0.9271
 8339SOL    HW227271   1.753   3.523   7.507 -2.6608 -0.1004 -1.4382
 8340SOL     OW27272   7.439   7.019   8.893 -0.9684 -0.1167 -0.0275
 8340SOL    HW127273   7.491   6.984   8.965 -1.2410 -1.2288 -0.3512
 8340SOL    HW227274   7.408   7.103   8.925 -0.0464 -0.0157  0.6639
 8341SOL     OW27275   7.771   7.589  10.380 -0.1798  0.0421  0.4403
 8341SOL    HW127276   7.837   7.588  10.311  0.6449  1.6261  1.1813
 8341SOL    HW227277   7.688   7.591  10.333  0.3715  1.0636 -0.5242
 8342SOL     OW27278   0.720   3.825   5.817 -0.3652  1.1352  0.3955
 8342SOL    HW127279   0.628   3.804   5.800 -0.2064 -0.4092  1.2032
 8342SOL    HW227280   0.766   3.785   5.743 -0.2775  1.0629  0.4896
 8343SOL     OW27281  10.117   5.421   0.436 -0.5267  0.8532  0.0946
 8343SOL    HW127282  10.051   5.414   0.505  1.6831 -0.6249  2.2213
 8343SOL    HW227283  10.097   5.349   0.377 -1.1528  0.7744  0.3912
 8344SOL     OW27284   2.877   1.036   9.015  0.0398  0.4841 -0.5117
 8344SOL    HW127285   2.936   0.982   9.067 -1.1288 -0.2270  0.1227
 8344SOL    HW227286   2.869   1.118   9.064 -0.3044  0.1856 -0.0624
 8345SOL     OW27287  10.576   1.486   7.419  0.3554  0.3735  0.1668
 8345SOL    HW127288  10.647   1.544   7.447 -0.3247  1.2144  0.2279
 8345SOL    HW227289  10.561   1.509   7.327  1.3324 -1.0570 -0.3760
 8346SOL     OW27290   3.845   7.853   3.149 -0.2457 -0.0874 -0.6913
 8346SOL    HW127291   3.851   7.872   3.055 -0.2904  0.2471 -0.6278
 8346SOL    HW227292   3.926   7.889   3.186 -0.1312 -0.4033 -0.6319
 8347SOL     OW27293   2.206   8.643   5.797  0.5292  0.5170  0.0179
 8347SOL    HW127294   2.134   8.688   5.842  0.1980  0.0693 -0.0545
 8347SOL    HW227295   2.283   8.662   5.850  0.3422  0.9200  0.1542
 8348SOL     OW27296   6.930   0.892   7.416 -0.5624 -0.2376  0.4381
 8348SOL    HW127297   6.883   0.865   7.495 -2.3676  1.1867 -0.0632
 8348SOL    HW227298   6.928   0.988   7.419  0.5788 -0.1541 -0.6472
 8349SOL     OW27299   3.599   6.807   2.009  0.1574 -0.2352 -0.3519
 8349SOL    HW127300   3.682   6.774   1.975 -0.8756 -0.8866 -2.3732
 8349SOL    HW227301   3.534   6.742   1.981 -1.4050  1.5476 -1.0446
 8350SOL     OW27302   7.786   1.119   4.823  0.3237 -0.1049 -0.0658
 8350SOL    HW127303   7.734   1.121   4.743  0.0753 -0.2099  0.0905
 8350SOL    HW227304   7.781   1.028   4.852  0.9465 -0.2089 -0.2779
 8351SOL     OW27305   0.124   2.583   0.904 -0.3484 -0.1074  0.6939
 8351SOL    HW127306   0.099   2.591   0.996 -1.8263  2.4256  0.1608
 8351SOL    HW227307   0.179   2.504   0.901 -1.1142 -0.8661  3.5277
 8352SOL     OW27308   0.907   2.344   5.540  0.2381  0.2713 -0.2907
 8352SOL    HW127309   0.975   2.289   5.502 -1.1203 -1.8806  0.1911
 8352SOL    HW227310   0.954   2.414   5.584  2.1081 -0.7768 -0.5140
 8353SOL     OW27311   9.090   0.210   3.343  0.0817  0.2548 -0.3138
 8353SOL    HW127312   9.098   0.149   3.270  0.0300 -0.6578  0.4273
 8353SOL    HW227313   9.174   0.256   3.345  0.8278 -1.0635  0.2056
 8354SOL     OW27314   4.329   5.578   5.431  0.0411  0.1716  0.0888
 8354SOL    HW127315   4.341   5.487   5.458  0.9598 -0.2148 -1.4860
 8354SOL    HW227316   4.352   5.630   5.508 -1.6510 -0.9162  1.3982
 8355SOL     OW27317   5.512   1.628   5.365 -0.1435  0.3586 -0.2976
 8355SOL    HW127318   5.487   1.718   5.384  1.3168  1.1135 -1.7250
 8355SOL    HW227319   5.532   1.589   5.450  1.2527  2.0319  0.1811
 8356SOL     OW27320   8.230   8.008   1.842  0.0850  0.1064  0.1571
 8356SOL    HW127321   8.190   7.946   1.903 -0.1764 -0.8556 -0.9392
 8356SOL    HW227322   8.278   8.069   1.898  1.1274 -1.6205  1.2888
 8357SOL     OW27323  10.374   0.565   2.722 -0.4088 -0.3475 -0.2957
 8357SOL    HW127324  10.432   0.629   2.763 -0.1467 -0.5712 -0.3147
 8357SOL    HW227325  10.390   0.484   2.769 -0.6356 -0.4339 -0.3656
 8358SOL     OW27326   6.322   9.660   6.892  0.0469  0.4594 -0.0479
 8358SOL    HW127327   6.340   9.702   6.808  0.4932 -0.5975 -0.5008
 8358SOL    HW227328   6.245   9.605   6.876  0.5957 -0.3489  0.0033
 8359SOL     OW27329   0.023   8.173   7.323  0.0464 -1.1134  0.1693
 8359SOL    HW127330  -0.063   8.177   7.365  0.6158  0.8196  1.2853
 8359SOL    HW227331   0.081   8.138   7.389  0.6685  0.5515  0.5626
 8360SOL     OW27332   5.473   8.249   2.617  0.3656 -0.3329 -1.0797
 8360SOL    HW127333   5.506   8.205   2.696  0.7769  1.5467 -0.1456
 8360SOL    HW227334   5.409   8.188   2.580  0.8003 -1.6270  0.2226
 8361SOL     OW27335   1.305   5.123  10.324  0.2742  0.2551  0.1258
 8361SOL    HW127336   1.331   5.124  10.416 -0.4057  0.9858  0.3190
 8361SOL    HW227337   1.268   5.036  10.310  0.0665  0.2620  0.6311
 8362SOL     OW27338   2.580   1.730   2.001 -0.3472 -0.9917 -0.3135
 8362SOL    HW127339   2.647   1.662   2.010 -0.0877 -0.5696  1.3172
 8362SOL    HW227340   2.500   1.682   1.981 -0.0171 -1.7163  0.0629
 8363SOL     OW27341   2.395   2.118   1.585  0.5368  0.1187 -0.2969
 8363SOL    HW127342   2.440   2.093   1.504  0.4823  0.6741 -0.5005
 8363SOL    HW227343   2.311   2.073   1.579 -0.2835  1.6928 -1.5070
 8364SOL     OW27344   8.815   4.702   9.058 -0.3617 -0.5173 -0.0471
 8364SOL    HW127345   8.897   4.737   9.025 -0.4819 -1.8308 -1.8938
 8364SOL    HW227346   8.793   4.757   9.133  0.4191  2.0435 -1.6095
 8365SOL     OW27347   6.358   6.667   8.028  0.6125  0.2617  0.6193
 8365SOL    HW127348   6.441   6.707   8.055  1.2022 -0.5281  0.0368
 8365SOL    HW227349   6.318   6.637   8.110  1.2330  0.0398  0.8465
 8366SOL     OW27350   3.750   1.914   7.033  0.6511  0.5892  0.5748
 8366SOL    HW127351   3.771   1.887   7.122  1.8435  3.0691  1.1427
 8366SOL    HW227352   3.728   2.007   7.041  0.3294  0.7709 -1.6677
 8367SOL     OW27353   3.719   5.141   6.242  0.6265  0.3769 -0.0836
 8367SOL    HW127354   3.759   5.224   6.269  0.0669  0.0286  1.9893
 8367SOL    HW227355   3.683   5.105   6.323  2.6712 -2.9172 -0.4735
 8368SOL     OW27356   7.403   5.377   7.204  0.1621  0.0979 -0.4612
 8368SOL    HW127357   7.334   5.362   7.139 -1.5465  0.4610  1.1708
 8368SOL    HW227358   7.455   5.448   7.168  0.0672 -0.6086 -2.0357
 8369SOL     OW27359   6.260   8.717   9.044 -0.5601 -0.4256 -0.2852
 8369SOL    HW127360   6.282   8.682   9.131 -0.0938  0.7176  0.0717
 8369SOL    HW227361   6.302   8.802   9.041 -1.1643 -0.1472 -1.3779
 8370SOL     OW27362   7.335   5.630   0.193 -0.7466 -0.2267 -0.6597
 8370SOL    HW127363   7.340   5.689   0.268  0.3749  0.4744 -1.2681
 8370SOL    HW227364   7.258   5.660   0.144 -1.1161 -0.2944 -0.1310
 8371SOL     OW27365   1.292   2.774   7.510  0.0459  0.2580 -0.2033
 8371SOL    HW127366   1.206   2.736   7.490  0.5579  0.1457 -2.5082
 8371SOL    HW227367   1.291   2.859   7.467  1.1219  0.2159 -0.3330
 8372SOL     OW27368   7.011   7.084   4.849 -0.5964  0.0777  0.0247
 8372SOL    HW127369   6.952   7.038   4.790 -1.3462  0.5808  0.3680
 8372SOL    HW227370   6.983   7.176   4.845  1.4934  0.7447 -1.4214
 8373SOL     OW27371   0.886   5.724   4.778 -0.2691 -0.1020  0.1106
 8373SOL    HW127372   0.809   5.715   4.834 -0.0726 -0.2183  0.3655
 8373SOL    HW227373   0.919   5.812   4.796  0.5379 -0.5907  1.1512
 8374SOL     OW27374   2.663   1.788   5.904 -0.1798 -0.1802  1.0642
 8374SOL    HW127375   2.646   1.801   5.811 -2.4837 -2.6720  0.9930
 8374SOL    HW227376   2.591   1.834   5.948 -0.0879 -0.4626  1.5121
 8375SOL     OW27377   3.349   4.990   9.418 -0.2804 -0.6302 -0.0871
 8375SOL    HW127378   3.355   4.939   9.498 -1.6522  0.4117  0.7271
 8375SOL    HW227379   3.408   5.064   9.432 -0.6717 -0.3425  0.0470
 8376SOL     OW27380   7.518   9.166   6.091  0.1962  0.0136  0.1501
 8376SOL    HW127381   7.570   9.174   6.012  0.3206 -0.5441  0.1682
 8376SOL    HW227382   7.509   9.072   6.104 -2.3751  0.0412 -0.8698
 8377SOL     OW27383   7.080   9.540  10.101 -0.1854  0.0584  0.1850
 8377SOL    HW127384   7.093   9.602  10.029  1.6447  1.3864  1.5682
 8377SOL    HW227385   7.029   9.589  10.165  0.2715 -0.2569  0.7998
 8378SOL     OW27386   8.024   1.749   9.218 -0.4702  0.8650  0.1815
 8378SOL    HW127387   8.069   1.782   9.297  0.5962  1.1859 -0.5371
 8378SOL    HW227388   7.988   1.828   9.177  2.7740  1.4123 -1.9750
 8379SOL     OW27389   8.440   9.058   3.915  0.5645 -0.5590 -0.6145
 8379SOL    HW127390   8.420   8.964   3.906 -0.5305 -0.3177 -0.8552
 8379SOL    HW227391   8.532   9.060   3.943  0.1356 -1.7623  1.0843
 8380SOL     OW27392   9.190  10.111   9.220 -0.4837 -0.0394  0.2001
 8380SOL    HW127393   9.230  10.054   9.154 -2.2139 -1.0253 -0.0450
 8380SOL    HW227394   9.176  10.194   9.175  0.8021  0.1715  0.1523
 8381SOL     OW27395   6.688   0.360   4.321  0.5799  0.2168 -0.3922
 8381SOL    HW127396   6.624   0.289   4.315 -1.0727  1.7636 -2.5673
 8381SOL    HW227397   6.773   0.316   4.318 -0.3816 -1.6999 -1.2965
 8382SOL     OW27398   1.580   5.091   9.701  0.3689 -0.0409 -0.1836
 8382SOL    HW127399   1.651   5.091   9.638  0.6888  4.3512 -0.1264
 8382SOL    HW227400   1.617   5.132   9.779 -1.6634  0.5215  0.5527
 8383SOL     OW27401   2.861   6.593   9.103 -0.6967  0.0592  0.2006
 8383SOL    HW127402   2.782   6.562   9.148 -0.5694 -0.1269  0.3018
 8383SOL    HW227403   2.925   6.524   9.119 -0.1370  0.7792  1.1696
 8384SOL     OW27404   0.660   2.447   7.348  0.0307 -0.3006 -0.5191
 8384SOL    HW127405   0.750   2.427   7.325  0.6885 -0.8316  2.1596
 8384SOL    HW227406   0.636   2.381   7.414 -1.9206  0.5063 -0.3369
 8385SOL     OW27407   3.755   0.112   2.672  0.1026  0.6831  0.5271
 8385SOL    HW127408   3.816   0.139   2.604 -1.7853  1.8878 -0.7727
 8385SOL    HW227409   3.689   0.181   2.674 -1.7705 -1.0316  1.1737
 8386SOL     OW27410   8.396   2.298   8.039  0.2180  0.0250 -0.3723
 8386SOL    HW127411   8.424   2.315   7.949  1.7894  0.6416  0.1975
 8386SOL    HW227412   8.467   2.332   8.093  0.6880 -2.8635  1.0388
 8387SOL     OW27413   1.348   3.550   7.817  0.5328 -0.1581 -0.1570
 8387SOL    HW127414   1.310   3.485   7.758 -0.4996 -0.7401  1.1235
 8387SOL    HW227415   1.374   3.622   7.759 -0.8321 -0.5402 -1.2872
 8388SOL     OW27416   7.000   0.261  10.330 -0.4782 -0.1866  0.1877
 8388SOL    HW127417   6.908   0.277  10.310 -0.0955  0.9556 -0.7556
 8388SOL    HW227418   7.044   0.343  10.308  0.7642 -0.7106  0.6378
 8389SOL     OW27419   0.837   3.669   1.191 -0.1374  0.3219 -0.4014
 8389SOL    HW127420   0.902   3.678   1.122  1.2137 -2.2324  0.4161
 8389SOL    HW227421   0.849   3.746   1.246  2.4546 -0.2347 -0.0962
 8390SOL     OW27422   4.561   0.114   9.744  0.5347  0.1690 -0.4371
 8390SOL    HW127423   4.637   0.124   9.801  0.2420 -0.6221  0.1132
 8390SOL    HW227424   4.524   0.202   9.738 -0.4918  0.0157  2.1406
 8391SOL     OW27425   3.313   0.316   4.076 -0.2786  0.5349  0.4826
 8391SOL    HW127426   3.380   0.376   4.109  1.6808 -0.9914 -0.5636
 8391SOL    HW227427   3.261   0.293   4.154 -0.6494  2.9558  1.0254
 8392SOL     OW27428   0.268   0.735   7.165 -0.3975  0.6207  0.1684
 8392SOL    HW127429   0.289   0.673   7.235 -0.5453  0.4361  0.0510
 8392SOL    HW227430   0.316   0.703   7.089 -0.6852  0.4954  0.0370
 8393SOL     OW27431   6.704   5.532   5.608 -0.3568 -0.0730 -0.2466
 8393SOL    HW127432   6.669   5.619   5.624  0.3045  0.4249 -1.4259
 8393SOL    HW227433   6.627   5.478   5.591 -1.2809 -0.8249  4.7399
 8394SOL     OW27434   8.677   5.223   5.852  0.2885 -0.2314 -0.1683
 8394SOL    HW127435   8.604   5.206   5.792  0.0224  0.3801 -0.0180
 8394SOL    HW227436   8.712   5.136   5.871 -0.7573 -0.5950  0.1929
 8395SOL     OW27437   0.581   0.478   6.037 -0.4216  0.4602  0.2498
 8395SOL    HW127438   0.495   0.520   6.033 -0.7265 -0.0807  0.9381
 8395SOL    HW227439   0.567   0.400   6.089  1.0669  1.7675  2.8103
 8396SOL     OW27440   2.857   0.314   1.340 -0.0183 -0.6941  0.1515
 8396SOL    HW127441   2.895   0.304   1.428 -0.0838 -1.8752  0.0532
 8396SOL    HW227442   2.774   0.359   1.356  0.8171  0.8336  0.4847
 8397SOL     OW27443  10.177   5.263   8.572 -0.0468 -0.0957  0.3606
 8397SOL    HW127444  10.131   5.347   8.565 -1.9750 -1.0516  1.0661
 8397SOL    HW227445  10.254   5.283   8.625  0.5105  1.5701 -0.9471
 8398SOL     OW27446   4.871   4.163   7.059 -0.3239 -0.6655  0.7406
 8398SOL    HW127447   4.851   4.185   6.968  0.0366 -0.1976  0.7651
 8398SOL    HW227448   4.857   4.069   7.065 -1.0661 -0.5852  0.3941
 8399SOL     OW27449  10.094  10.353   5.774 -0.4479 -0.0815  0.4177
 8399SOL    HW127450  10.043  10.325   5.850 -0.1095 -0.3079  0.5661
 8399SOL    HW227451  10.033  10.406   5.722 -0.9909 -0.7855  0.3194
 8400SOL     OW27452   3.141   2.708   9.263 -0.3739 -0.2686  0.6946
 8400SOL    HW127453   3.145   2.787   9.317 -2.2545  1.2815 -1.2511
 8400SOL    HW227454   3.048   2.690   9.254 -0.1919 -0.3800 -1.9853
 8401SOL     OW27455   6.892   8.133   6.578  0.6144 -0.0267  0.1535
 8401SOL    HW127456   6.917   8.049   6.541 -0.3140  0.2005 -1.0494
 8401SOL    HW227457   6.944   8.140   6.659  1.9529 -0.9792 -0.5810
 8402SOL     OW27458  10.321   7.742   2.686  0.3585 -0.1953  0.5944
 8402SOL    HW127459  10.389   7.679   2.709 -0.2206 -1.0977 -0.0856
 8402SOL    HW227460  10.241   7.690   2.679  0.2110  0.2197 -1.8942
 8403SOL     OW27461   4.200   7.481   0.743  0.1721  0.0595 -0.0050
 8403SOL    HW127462   4.199   7.487   0.647 -3.2880  0.5074 -0.0418
 8403SOL    HW227463   4.140   7.409   0.764 -0.4879  1.0831  1.8521
 8404SOL     OW27464   0.313   7.119   3.919 -0.3470  0.3060 -0.4174
 8404SOL    HW127465   0.316   7.111   4.014 -0.2902  3.5294 -0.0361
 8404SOL    HW227466   0.372   7.051   3.887 -0.1400 -0.6571  1.8311
 8405SOL     OW27467   9.926   9.333   1.037 -0.4575  0.1755  0.0377
 8405SOL    HW127468  10.002   9.355   1.090 -0.3313  0.6508 -0.3377
 8405SOL    HW227469   9.962   9.301   0.954 -0.6614 -0.0108  0.0179
 8406SOL     OW27470   2.756   3.239   9.036  0.0563  0.4593  0.2961
 8406SOL    HW127471   2.767   3.169   9.101  1.0367 -0.1102 -0.4596
 8406SOL    HW227472   2.844   3.274   9.024 -0.6257  2.9952  1.8792
 8407SOL     OW27473   8.245   3.946   0.748  0.3921  0.2796  0.0805
 8407SOL    HW127474   8.261   3.956   0.842 -0.2066  1.1909  0.1030
 8407SOL    HW227475   8.282   4.025   0.709 -1.2648  0.9741 -0.1919
 8408SOL     OW27476   9.670   5.817   9.798 -0.1320 -0.3348 -0.1288
 8408SOL    HW127477   9.651   5.792   9.707  1.4454 -1.9018 -0.0852
 8408SOL    HW227478   9.629   5.749   9.851  1.0338 -0.8188  0.1872
 8409SOL     OW27479   3.328   8.419   8.004 -0.2324  0.4580 -0.0301
 8409SOL    HW127480   3.397   8.465   8.052  1.4450 -1.9002 -0.0424
 8409SOL    HW227481   3.252   8.478   8.010  1.0581  2.0702  2.0373
 8410SOL     OW27482   2.914   3.181   6.178 -0.0262 -0.3128 -0.2734
 8410SOL    HW127483   2.840   3.214   6.228  0.2131  1.2709 -0.9042
 8410SOL    HW227484   2.934   3.251   6.116  1.5852 -0.9813 -0.5555
 8411SOL     OW27485   7.429   0.615   1.434 -0.1576 -0.3714 -0.4965
 8411SOL    HW127486   7.406   0.612   1.341  0.1888 -0.8985 -0.5728
 8411SOL    HW227487   7.484   0.537   1.447  1.1126  0.5393 -0.2095
 8412SOL     OW27488   1.708   0.016   5.764  0.5771 -0.2021 -0.2545
 8412SOL    HW127489   1.792  -0.024   5.741  2.1541  2.5681  0.2077
 8412SOL    HW227490   1.716   0.036   5.857 -1.0817 -0.8910  0.0689
 8413SOL     OW27491   7.257   6.486   7.099  0.0424  0.1563  0.3456
 8413SOL    HW127492   7.212   6.471   7.182 -1.0319  0.7700 -0.1049
 8413SOL    HW227493   7.188   6.511   7.038  0.9432  0.6932 -0.4935
 8414SOL     OW27494   3.681   6.596   1.388  0.2732 -0.2873  0.3828
 8414SOL    HW127495   3.608   6.577   1.447  1.2332  0.3704  1.8420
 8414SOL    HW227496   3.728   6.668   1.431 -1.3984  3.4143 -3.2181
 8415SOL     OW27497   0.810   7.720   9.650 -0.1404 -0.6442  0.0949
 8415SOL    HW127498   0.751   7.683   9.715  1.9016  0.0520  2.4909
 8415SOL    HW227499   0.872   7.650   9.631  0.5773 -0.1551  0.5996
 8416SOL     OW27500   7.664   1.458   8.534 -0.1700  0.1764 -0.1309
 8416SOL    HW127501   7.616   1.467   8.452 -1.5749 -0.4156  0.5926
 8416SOL    HW227502   7.598   1.434   8.599  1.0623 -0.4201  0.9707
 8417SOL     OW27503   4.849   2.308   2.590 -0.2167 -0.2262 -0.5296
 8417SOL    HW127504   4.871   2.325   2.681 -1.4452  0.9889 -0.4238
 8417SOL    HW227505   4.869   2.216   2.577 -2.9233 -1.3332  1.8902
 8418SOL     OW27506   0.711   2.124   3.117 -0.6413  0.4131 -0.5385
 8418SOL    HW127507   0.797   2.111   3.158 -0.4735  0.0033 -1.0106
 8418SOL    HW227508   0.725   2.196   3.055 -0.6950  0.5023 -0.4462
 8419SOL     OW27509   8.284   1.015   7.027  0.6503 -0.2815 -0.5163
 8419SOL    HW127510   8.350   1.064   7.076  0.4602 -0.5604  0.0281
 8419SOL    HW227511   8.248   0.953   7.091  0.5490 -0.7996 -1.0631
 8420SOL     OW27512   3.459   0.720   0.118  0.1007  0.1752 -0.4712
 8420SOL    HW127513   3.487   0.635   0.085 -0.0108  1.3985 -4.2020
 8420SOL    HW227514   3.541   0.765   0.139  0.5950  0.6644 -3.0104
 8421SOL     OW27515   6.740   2.826   5.422  0.5009 -0.3298  0.7701
 8421SOL    HW127516   6.680   2.899   5.408 -0.5562 -1.3071  0.0623
 8421SOL    HW227517   6.684   2.751   5.439  1.5155 -1.2358  0.2661
 8422SOL     OW27518   3.491   4.372   0.614  0.0754  0.2512  0.1317
 8422SOL    HW127519   3.407   4.410   0.640  0.2393  0.0187  1.0195
 8422SOL    HW227520   3.548   4.448   0.598 -0.0141  0.3946  0.4993
 8423SOL     OW27521   2.534   3.953   9.406  0.6239 -0.2815  0.7319
 8423SOL    HW127522   2.506   3.894   9.336  0.2738 -0.2223  0.8183
 8423SOL    HW227523   2.629   3.948   9.405  0.6330 -0.0340  0.0470
 8424SOL     OW27524   8.043   2.730   7.629 -0.0509 -0.7558  0.0561
 8424SOL    HW127525   8.025   2.775   7.712 -1.3305  0.3881 -0.7933
 8424SOL    HW227526   8.092   2.652   7.654  0.5970  0.1445  1.7764
 8425SOL     OW27527   8.398   6.801   4.360 -0.6427 -0.0425 -0.0296
 8425SOL    HW127528   8.429   6.736   4.423  1.2575 -1.1229 -1.9349
 8425SOL    HW227529   8.425   6.885   4.397 -1.8454 -0.4117  1.7723
 8426SOL     OW27530   7.129   5.630   8.244  0.2183  0.3540  0.0596
 8426SOL    HW127531   7.140   5.630   8.148 -0.8802  1.0317 -0.0841
 8426SOL    HW227532   7.042   5.592   8.257  0.3983  0.1970  0.8037
 8427SOL     OW27533   3.819   1.100   4.121 -0.3128 -0.3883  0.1624
 8427SOL    HW127534   3.798   1.134   4.034  0.7086 -0.8715 -0.2834
 8427SOL    HW227535   3.735   1.104   4.168 -1.0404 -0.7521 -1.0405
 8428SOL     OW27536   9.312   3.783   9.809  0.6486  0.1071 -0.4966
 8428SOL    HW127537   9.325   3.863   9.860  1.6025  0.1570 -0.7900
 8428SOL    HW227538   9.224   3.752   9.833 -0.2666  1.9325 -1.3499
 8429SOL     OW27539   8.464   6.675   4.116 -0.1513  0.1730  0.0398
 8429SOL    HW127540   8.380   6.675   4.070 -0.8332  0.4723  1.2435
 8429SOL    HW227541   8.444   6.708   4.204  0.6795 -2.3712  1.2990
 8430SOL     OW27542   1.128   0.176   0.788 -0.4246  0.1552 -0.6190
 8430SOL    HW127543   1.079   0.242   0.740 -0.3802  1.0005  0.4521
 8430SOL    HW227544   1.199   0.225   0.830 -0.8897 -0.4088  0.8869
 8431SOL     OW27545   1.354   1.633   0.988  0.2635  0.2248 -0.3404
 8431SOL    HW127546   1.440   1.671   1.002 -0.4215  0.9622  2.3278
 8431SOL    HW227547   1.326   1.603   1.074 -2.2153  0.1239 -1.0969
 8432SOL     OW27548   3.013   5.320   3.677  0.0944 -0.0262  0.3418
 8432SOL    HW127549   2.966   5.398   3.705  4.0063  2.4451  0.7475
 8432SOL    HW227550   3.000   5.317   3.582 -3.1681 -1.2740  0.7024
 8433SOL     OW27551   3.410   9.493   7.436 -0.2682 -0.0834  0.3092
 8433SOL    HW127552   3.381   9.582   7.417  0.7653 -0.2493 -2.5424
 8433SOL    HW227553   3.459   9.500   7.518 -1.6052  1.6122  1.0315
 8434SOL     OW27554   1.380   1.716   7.517  0.7458 -0.8233  0.0086
 8434SOL    HW127555   1.410   1.715   7.608  2.0733  2.7475 -0.2453
 8434SOL    HW227556   1.303   1.772   7.517  1.7864  0.7081 -1.2249
 8435SOL     OW27557   1.837   2.721   8.061 -0.6646 -0.1609 -0.2277
 8435SOL    HW127558   1.900   2.745   8.129 -0.0340 -1.0703 -0.4686
 8435SOL    HW227559   1.833   2.797   8.003  1.2063 -0.5693 -0.9298
 8436SOL     OW27560   8.915   0.690   5.146  0.4569 -0.3742 -0.6352
 8436SOL    HW127561   8.844   0.630   5.171  0.2918 -0.5454 -1.5059
 8436SOL    HW227562   8.989   0.665   5.201  0.3411 -1.2758 -0.8846
 8437SOL     OW27563   2.705   6.510   7.101  0.3919  0.4659  0.0431
 8437SOL    HW127564   2.652   6.455   7.159  1.4243  1.4515  2.0172
 8437SOL    HW227565   2.644   6.575   7.067 -0.1809  0.0361  0.2433
 8438SOL     OW27566   2.825   7.280   6.442 -0.2687 -0.5166 -0.2895
 8438SOL    HW127567   2.853   7.242   6.359  0.5149 -0.2098 -0.1717
 8438SOL    HW227568   2.873   7.231   6.509 -1.1040 -0.9492  0.0082
 8439SOL     OW27569  10.637   1.797   1.536  0.3211 -0.1377 -0.3679
 8439SOL    HW127570  10.692   1.873   1.516 -1.1645  1.3737  0.9511
 8439SOL    HW227571  10.695   1.735   1.580  1.4496  0.4341 -1.0094
 8440SOL     OW27572   3.338   4.804   5.132  0.1996  0.0342 -0.8903
 8440SOL    HW127573   3.385   4.750   5.195  0.7157  1.8998  0.3891
 8440SOL    HW227574   3.372   4.776   5.047 -0.9331 -2.9345 -0.5087
 8441SOL     OW27575   9.145   5.034   5.121  0.0496 -0.2827 -0.5245
 8441SOL    HW127576   9.140   4.975   5.196 -1.9234  1.4206  0.7982
 8441SOL    HW227577   9.175   5.117   5.159 -0.7129  0.5319 -1.6749
 8442SOL     OW27578   6.228   5.727   7.840 -0.2276  0.2680 -0.2680
 8442SOL    HW127579   6.180   5.778   7.775  0.6034  1.4730  0.0238
 8442SOL    HW227580   6.308   5.778   7.855  1.3522 -1.8415 -1.0341
 8443SOL     OW27581   0.007   6.045   2.065 -0.2137 -0.5657  0.0469
 8443SOL    HW127582   0.065   5.973   2.038  1.5326  1.2058 -1.1474
 8443SOL    HW227583  -0.025   6.082   1.983  1.3476  1.8864  0.4639
 8444SOL     OW27584   7.918   7.647   0.365  0.1167  0.5173 -0.2575
 8444SOL    HW127585   7.858   7.665   0.437  1.3586 -0.2073  1.0090
 8444SOL    HW227586   7.978   7.722   0.364  1.1198 -0.2359  0.5926
 8445SOL     OW27587   3.203   0.711   8.272 -0.1025 -0.0561 -0.3527
 8445SOL    HW127588   3.111   0.689   8.285 -0.2278 -1.0283 -2.3684
 8445SOL    HW227589   3.209   0.804   8.293 -1.3421 -0.1774  0.6569
 8446SOL     OW27590   4.083   0.922   2.874  0.0901  0.3951  0.2121
 8446SOL    HW127591   4.138   0.976   2.930  0.8418 -0.6458  0.5144
 8446SOL    HW227592   4.144   0.883   2.811 -0.4230 -0.1324  0.0347
 8447SOL     OW27593   8.043   5.776   0.977 -0.7281  0.1295 -0.1354
 8447SOL    HW127594   8.134   5.753   0.957 -0.3306  0.5386  1.1334
 8447SOL    HW227595   8.043   5.871   0.988 -1.3361  0.1462 -0.2131
 8448SOL     OW27596   3.162   3.703   7.591  0.3770 -0.2857  0.5725
 8448SOL    HW127597   3.197   3.706   7.680  0.4510  0.1589  0.5308
 8448SOL    HW227598   3.224   3.647   7.543 -0.1451 -1.2511  1.0019
 8449SOL     OW27599   6.789   7.446   5.141  0.4657 -0.5408 -0.0491
 8449SOL    HW127600   6.735   7.505   5.193  2.1410  0.6589  0.4038
 8449SOL    HW227601   6.831   7.389   5.205  0.6060 -0.7352 -0.3100
 8450SOL     OW27602   9.115   0.857  10.603  0.2140 -0.1437  0.1028
 8450SOL    HW127603   9.025   0.836  10.578  0.1675 -1.0387  1.0042
 8450SOL    HW227604   9.110   0.880  10.695  0.7190  1.0879 -0.1559
 8451SOL     OW27605   0.477   2.079   7.571  0.4082  0.2432 -0.1499
 8451SOL    HW127606   0.530   2.070   7.492  0.1343  1.3348 -0.4810
 8451SOL    HW227607   0.388   2.059   7.543  0.7837 -3.8591  0.8694
 8452SOL     OW27608   4.459   7.275   3.065 -0.2202 -0.2132 -0.4211
 8452SOL    HW127609   4.483   7.357   3.108  0.9724 -0.3373 -0.8130
 8452SOL    HW227610   4.364   7.282   3.051 -0.3091  0.6265  0.5102
 8453SOL     OW27611   2.874   5.503   4.969  0.6023  0.0667  0.2494
 8453SOL    HW127612   2.790   5.545   4.991 -0.0477 -0.7985 -0.4938
 8453SOL    HW227613   2.917   5.490   5.053  0.3023  1.1560  0.5866
 8454SOL     OW27614   8.095   1.285   8.975 -0.0819  0.0818  0.2124
 8454SOL    HW127615   8.105   1.325   8.889  3.3695  0.1540  0.4947
 8454SOL    HW227616   8.078   1.358   9.034 -0.2871  0.3141 -0.1348
 8455SOL     OW27617   1.951   4.583   6.173  0.9597  0.5857  0.3368
 8455SOL    HW127618   1.959   4.518   6.243 -1.8942 -1.1867 -0.8088
 8455SOL    HW227619   1.877   4.637   6.200  2.0084  2.0983  0.2682
 8456SOL     OW27620   0.922   8.951   0.319  0.0002 -0.1474 -0.3217
 8456SOL    HW127621   0.830   8.977   0.323 -0.0374 -0.1380 -1.0450
 8456SOL    HW227622   0.955   8.961   0.408 -0.8514 -0.7045  0.0648
 8457SOL     OW27623   2.491   2.296   4.327 -0.4834  0.2002 -0.0126
 8457SOL    HW127624   2.514   2.328   4.239  2.6243  1.1123  1.0021
 8457SOL    HW227625   2.515   2.204   4.326  1.1069  0.5906  0.3204
 8458SOL     OW27626   2.222   9.048   1.672  0.0718  0.3756  0.6825
 8458SOL    HW127627   2.169   8.996   1.612  1.5787  0.5190 -0.8641
 8458SOL    HW227628   2.159   9.105   1.716 -1.3768 -1.3766  1.0105
 8459SOL     OW27629   0.290   4.110   1.947 -0.2487  0.0567 -0.9082
 8459SOL    HW127630   0.204   4.118   1.905 -0.8801  0.6753  0.4536
 8459SOL    HW227631   0.279   4.040   2.011  0.4361 -0.2664 -1.1431
 8460SOL     OW27632   0.392   8.487   0.900 -0.3892  0.2249  0.2869
 8460SOL    HW127633   0.414   8.572   0.940  0.0667 -0.0358  0.5983
 8460SOL    HW227634   0.367   8.432   0.974  1.2604 -0.5132  0.3402
 8461SOL     OW27635   7.699   1.822   3.141 -0.2549  0.3015  0.1469
 8461SOL    HW127636   7.753   1.894   3.175  0.1546 -0.3210  0.8348
 8461SOL    HW227637   7.714   1.824   3.046 -2.4700  2.9452 -0.2745
 8462SOL     OW27638   0.466   8.934   3.609 -0.0451 -0.3513 -0.1839
 8462SOL    HW127639   0.490   8.882   3.532  0.9785 -1.3471  0.7806
 8462SOL    HW227640   0.432   8.870   3.671  2.1254 -0.0833  1.3900
 8463SOL     OW27641   6.329   3.977   8.925  0.2187 -0.1419  0.2772
 8463SOL    HW127642   6.285   4.043   8.979  2.5211  0.7175  1.2333
 8463SOL    HW227643   6.390   3.933   8.985  0.8245 -1.1341 -1.0081
 8464SOL     OW27644   1.429  10.600   2.468  0.2076  0.2533  0.1390
 8464SOL    HW127645   1.346  10.557   2.449  0.0988 -0.9079  2.8639
 8464SOL    HW227646   1.404  10.688   2.496  0.1546  0.8573 -1.6790
 8465SOL     OW27647   8.899   8.077   8.423 -0.7427 -0.6717 -0.0086
 8465SOL    HW127648   8.965   8.094   8.357  0.5340  0.6592  1.5117
 8465SOL    HW227649   8.817   8.104   8.382  0.2649  2.1045 -0.4337
 8466SOL     OW27650   0.533   3.801   3.654  0.3418 -0.9105 -0.3199
 8466SOL    HW127651   0.612   3.793   3.600  1.0034 -0.7670  0.6071
 8466SOL    HW227652   0.471   3.740   3.614  0.4698 -0.1130 -1.8277
 8467SOL     OW27653   4.024   9.403   7.818 -0.5342  0.7481 -0.1996
 8467SOL    HW127654   3.980   9.319   7.806  0.6102  0.4042 -2.9267
 8467SOL    HW227655   3.972   9.464   7.767 -1.4299  1.7971  1.8729
 8468SOL     OW27656   0.497   9.453   7.594 -0.3803  0.2526  0.0948
 8468SOL    HW127657   0.539   9.409   7.668  0.8712  1.8008  0.3611
 8468SOL    HW227658   0.563   9.450   7.524 -0.1310  1.8826  0.2089
 8469SOL     OW27659   1.633   7.927   9.573  0.4180  0.6054  0.0410
 8469SOL    HW127660   1.659   8.008   9.530  3.0647  0.4035  1.0961
 8469SOL    HW227661   1.538   7.922   9.558  0.4538  2.9411 -1.5720
 8470SOL     OW27662   4.236   4.021   1.542 -0.6211  0.0409  0.1259
 8470SOL    HW127663   4.323   3.981   1.547 -0.7326 -0.0945  2.0257
 8470SOL    HW227664   4.185   3.961   1.488  0.1390 -0.5606  0.0598
 8471SOL     OW27665   8.163   1.601  10.249  0.2153 -0.1316  0.7376
 8471SOL    HW127666   8.194   1.582  10.337 -1.0115 -0.3874  1.1442
 8471SOL    HW227667   8.071   1.626  10.262 -0.3105 -1.2745 -0.5721
 8472SOL     OW27668   8.906   2.002   4.704 -0.5600 -0.1093  0.6368
 8472SOL    HW127669   8.974   1.935   4.698 -0.5566 -0.1638  1.2089
 8472SOL    HW227670   8.906   2.045   4.619 -1.5202 -1.7519 -0.2447
 8473SOL     OW27671   4.328  10.094   6.145 -0.7085  0.1531 -0.1215
 8473SOL    HW127672   4.247  10.137   6.173 -0.7568 -0.4611  0.7389
 8473SOL    HW227673   4.384  10.096   6.223 -0.1101  0.0754 -0.5422
 8474SOL     OW27674   9.820   1.438   0.884  0.5177  0.4332  0.3972
 8474SOL    HW127675   9.815   1.442   0.788 -2.0687 -3.3018  0.1535
 8474SOL    HW227676   9.737   1.476   0.913  0.1032 -0.8557  0.9403
 8475SOL     OW27677   9.599   9.922   7.040 -0.3368  0.2963  0.1345
 8475SOL    HW127678   9.537   9.857   7.006 -0.0703 -0.3160  0.7786
 8475SOL    HW227679   9.545   9.981   7.093 -0.6158  0.7396 -0.6386
 8476SOL     OW27680   3.973   6.368   8.626  0.4231  0.0731 -0.7021
 8476SOL    HW127681   4.041   6.377   8.559 -1.6246  0.5742 -2.8464
 8476SOL    HW227682   3.913   6.441   8.609 -1.7692 -1.5356 -0.3050
 8477SOL     OW27683   3.428   1.656   9.761  0.0575  0.2857 -0.0237
 8477SOL    HW127684   3.514   1.673   9.799  0.5631 -0.1617 -0.9358
 8477SOL    HW227685   3.385   1.741   9.759  1.1797  0.8515 -1.2245
 8478SOL     OW27686   7.231   8.893  10.403 -0.2392 -0.3419 -0.4562
 8478SOL    HW127687   7.309   8.865  10.354 -0.6488 -1.0600 -0.7018
 8478SOL    HW227688   7.190   8.957  10.345  0.9510  1.1911  0.3093
 8479SOL     OW27689   6.779   0.831   8.883 -0.4303 -0.1183  0.4250
 8479SOL    HW127690   6.796   0.920   8.852 -1.1741 -0.4113 -0.8803
 8479SOL    HW227691   6.858   0.781   8.860  0.2610  0.3170  1.7396
 8480SOL     OW27692   9.481   2.990   2.906 -0.1459 -0.2857  0.5212
 8480SOL    HW127693   9.456   2.912   2.955 -0.0016 -0.7839 -0.1873
 8480SOL    HW227694   9.567   3.014   2.939 -0.2769 -0.3054  0.8785
 8481SOL     OW27695   5.094   9.296   7.363  0.6103  0.3070  0.7827
 8481SOL    HW127696   5.054   9.383   7.358 -0.4239 -0.1157  1.5991
 8481SOL    HW227697   5.030   9.237   7.323  0.4753 -0.3560  1.9520
 8482SOL     OW27698   8.922   2.475   5.924 -0.3436  0.1322 -0.0910
 8482SOL    HW127699   9.014   2.483   5.896 -0.9595  0.8105 -2.1047
 8482SOL    HW227700   8.917   2.527   6.004  0.8540  0.7774 -0.4088
 8483SOL     OW27701   7.586   6.385   1.234 -0.2797  0.3251  0.4183
 8483SOL    HW127702   7.661   6.421   1.188  0.4758  0.1108  1.4445
 8483SOL    HW227703   7.514   6.444   1.214  0.2685  0.7836 -0.2162
 8484SOL     OW27704   5.589   1.952   0.018 -0.4806 -0.1129  0.4534
 8484SOL    HW127705   5.580   1.860   0.042 -0.0795 -0.6059 -1.1721
 8484SOL    HW227706   5.522   1.966  -0.049 -0.1458  0.6149  0.2572
 8485SOL     OW27707   8.686   7.703   6.116 -0.0880 -0.1535 -0.2634
 8485SOL    HW127708   8.767   7.653   6.105  0.3154  0.2324  0.7966
 8485SOL    HW227709   8.693   7.775   6.054 -0.2446 -0.8690 -1.1327
 8486SOL     OW27710   9.371   1.997   2.479 -0.5644  0.5861 -0.7719
 8486SOL    HW127711   9.360   1.939   2.555  1.1270  0.2578 -0.7407
 8486SOL    HW227712   9.434   1.952   2.423  1.6464  2.8022 -0.2447
 8487SOL     OW27713   8.410   3.607   3.751  0.4697  0.2564 -0.4476
 8487SOL    HW127714   8.419   3.554   3.831  2.2577 -0.4862 -1.0973
 8487SOL    HW227715   8.419   3.697   3.781 -1.8801  0.2264  0.5747
 8488SOL     OW27716   2.824   4.078   4.392  0.2874  0.1313  0.2989
 8488SOL    HW127717   2.912   4.049   4.365 -0.1897 -0.3998 -0.7464
 8488SOL    HW227718   2.800   4.143   4.326 -0.0397  0.3872  0.6726
 8489SOL     OW27719   5.405  10.215  10.604 -0.0822  0.3248 -0.9690
 8489SOL    HW127720   5.445  10.275  10.667  1.0856 -0.7392 -0.6423
 8489SOL    HW227721   5.404  10.264  10.522 -0.2061  1.1854 -0.4637
 8490SOL     OW27722   2.208   6.654   0.998  0.1854  0.2051 -0.5742
 8490SOL    HW127723   2.208   6.609   0.914 -1.6101  0.8247 -0.9352
 8490SOL    HW227724   2.247   6.591   1.059 -1.0652 -1.3436 -1.3107
 8491SOL     OW27725   1.561   1.440   6.497  0.0745  0.8184  1.0445
 8491SOL    HW127726   1.520   1.396   6.421  1.1441 -0.6123  1.2553
 8491SOL    HW227727   1.547   1.533   6.481  1.0195  0.6203 -1.3790
 8492SOL     OW27728   5.728   9.639   0.600  0.2206 -0.0066  0.5219
 8492SOL    HW127729   5.744   9.583   0.677 -0.7092  1.4267  1.8267
 8492SOL    HW227730   5.658   9.594   0.553  1.3268 -1.3020  0.0525
 8493SOL     OW27731   7.788   9.870   8.395 -0.0508 -0.3517 -0.5556
 8493SOL    HW127732   7.818   9.779   8.397 -0.1790 -0.4204 -1.5778
 8493SOL    HW227733   7.699   9.866   8.430  0.8934 -0.1999  2.1180
 8494SOL     OW27734   6.862   9.115   2.908  0.0336 -0.4467  0.0558
 8494SOL    HW127735   6.919   9.140   2.980  0.9394  0.3100 -0.8947
 8494SOL    HW227736   6.854   9.020   2.915  0.4421 -0.4267  0.8927
 8495SOL     OW27737   4.746   3.919   4.518 -0.2125 -0.2354  0.1603
 8495SOL    HW127738   4.745   3.876   4.432 -2.9204 -0.4334  0.2162
 8495SOL    HW227739   4.774   4.009   4.499 -0.2100 -0.4316 -0.8408
 8496SOL     OW27740   7.474   3.571   5.837  0.3810  0.5038 -0.4412
 8496SOL    HW127741   7.527   3.530   5.906  1.1909 -1.7120 -2.2513
 8496SOL    HW227742   7.515   3.657   5.824  0.9632  0.4697  0.9736
 8497SOL     OW27743   7.060   3.076   4.841  0.3259 -0.1102 -0.7274
 8497SOL    HW127744   7.137   3.035   4.882 -0.2557 -0.4971 -0.0044
 8497SOL    HW227745   6.990   3.012   4.852 -0.1791  0.3632 -1.1306
 8498SOL     OW27746   9.829   5.016   1.412 -0.4242  0.3211  0.3538
 8498SOL    HW127747   9.827   5.022   1.316 -1.1340 -0.6315  0.2953
 8498SOL    HW227748   9.774   5.088   1.442  1.6290  2.0992  0.1653
 8499SOL     OW27749   7.993   3.974   9.779  0.5436  0.4150  0.0167
 8499SOL    HW127750   7.907   3.997   9.744  0.5745 -0.8418 -0.9704
 8499SOL    HW227751   7.975   3.907   9.844  0.7077  0.9100  0.5816
 8500SOL     OW27752   5.625  10.568   3.964 -0.0171 -0.5033  0.2261
 8500SOL    HW127753   5.587  10.589   3.879  1.5796  0.7857 -0.2247
 8500SOL    HW227754   5.660  10.480   3.953  0.6362 -0.1496 -0.6439
 8501SOL     OW27755   7.505   4.207   6.989 -0.4206 -0.1372  0.2010
 8501SOL    HW127756   7.560   4.140   7.030  1.2570  1.0362 -0.0332
 8501SOL    HW227757   7.473   4.260   7.062  0.6910  0.5810  0.1726
 8502SOL     OW27758   6.020   7.616   5.880 -0.1280  0.0863  0.4400
 8502SOL    HW127759   5.984   7.545   5.933  0.3663 -0.9983 -0.6107
 8502SOL    HW227760   6.046   7.573   5.798 -1.2129  1.7645 -0.8488
 8503SOL     OW27761   7.165   4.531   7.461 -0.2041 -0.0483 -0.6038
 8503SOL    HW127762   7.107   4.496   7.393 -2.1685  0.3657  0.7838
 8503SOL    HW227763   7.237   4.468   7.465 -0.7355 -0.8050 -2.1168
 8504SOL     OW27764   3.237   8.017   1.186  0.8847 -0.1279  0.2080
 8504SOL    HW127765   3.225   7.984   1.275 -0.6676  0.2231  0.1539
 8504SOL    HW227766   3.154   8.060   1.164  1.9267  1.5702 -0.6697
 8505SOL     OW27767   8.120   7.236   5.552 -0.2652  0.1709  0.4723
 8505SOL    HW127768   8.125   7.141   5.544  0.4273  0.2261  0.1618
 8505SOL    HW227769   8.032   7.258   5.522  0.2663 -0.1886 -1.5369
 8506SOL     OW27770   8.478   7.370   8.206 -0.0473  0.0907 -0.3281
 8506SOL    HW127771   8.480   7.443   8.144 -0.2827  1.8695  1.6215
 8506SOL    HW227772   8.385   7.359   8.227 -0.0514 -1.0487 -0.8596
 8507SOL     OW27773   4.572   5.177   2.026  0.2212 -0.0808 -0.8438
 8507SOL    HW127774   4.666   5.162   2.014  0.2323  0.9835 -2.2805
 8507SOL    HW227775   4.562   5.191   2.121  1.6377  0.6317 -0.7766
 8508SOL     OW27776   1.250   2.183   7.159  0.3123  0.1399 -0.0853
 8508SOL    HW127777   1.237   2.146   7.247  0.5054  1.0376  0.3372
 8508SOL    HW227778   1.188   2.135   7.104 -0.6695  0.3550  0.7764
 8509SOL     OW27779   4.719   3.841   1.860 -0.5097 -0.3255 -0.2420
 8509SOL    HW127780   4.801   3.846   1.910 -0.6795 -0.8571  0.0913
 8509SOL    HW227781   4.652   3.869   1.922 -0.8185 -1.6995  0.0760
 8510SOL     OW27782  10.450   7.076   0.655  0.0954 -0.2567 -0.2677
 8510SOL    HW127783  10.545   7.072   0.646  0.1446  0.7454 -0.2608
 8510SOL    HW227784  10.417   7.090   0.566  0.2000  2.9837  0.0790
 8511SOL     OW27785   3.954   3.092  10.568  0.7035  0.2040 -0.7059
 8511SOL    HW127786   4.010   3.043  10.507  0.8345 -0.6812  0.0905
 8511SOL    HW227787   3.894   3.026  10.603  2.6493 -0.1129  2.4791
 8512SOL     OW27788   8.071   6.729   9.688  0.7219  0.0754  0.0246
 8512SOL    HW127789   8.102   6.756   9.775  0.8365  1.2509 -0.3661
 8512SOL    HW227790   8.043   6.638   9.700 -0.0764  0.4798  1.5031
 8513SOL     OW27791   1.068   6.138   2.908 -0.4418 -0.7184 -0.1095
 8513SOL    HW127792   1.097   6.055   2.869  1.1669 -0.2549  0.0446
 8513SOL    HW227793   1.069   6.201   2.836  0.1934 -0.4129  0.1579
 8514SOL     OW27794   6.254   7.437   8.104  0.1108 -0.0258 -0.0997
 8514SOL    HW127795   6.311   7.453   8.029  0.9265 -2.3832 -0.0408
 8514SOL    HW227796   6.295   7.486   8.176 -0.5484  2.0534 -1.0394
 8515SOL     OW27797   8.005   0.278   6.976  0.2510  0.5445 -0.0391
 8515SOL    HW127798   8.050   0.351   7.019  2.8949 -0.1404 -1.4421
 8515SOL    HW227799   8.045   0.200   7.013 -0.4159 -0.1475 -0.7436
 8516SOL     OW27800   5.863   9.467   2.954  0.0808 -0.2990  0.1258
 8516SOL    HW127801   5.902   9.405   3.015  0.8169 -0.2180 -0.2522
 8516SOL    HW227802   5.806   9.413   2.898  0.8985 -0.6740 -0.3546
 8517SOL     OW27803   1.465   6.474   4.037 -0.1884  0.1590  0.5452
 8517SOL    HW127804   1.442   6.497   3.947 -1.6894 -1.6706  0.3812
 8517SOL    HW227805   1.505   6.387   4.030 -0.0793  0.1043  1.6108
 8518SOL     OW27806   9.126   7.043   4.133  0.0918  0.3677 -0.3853
 8518SOL    HW127807   9.137   7.114   4.196 -0.4950  0.7635 -0.7215
 8518SOL    HW227808   9.033   7.045   4.110  0.2334  0.0096 -1.0045
 8519SOL     OW27809   6.391   4.854  10.316 -0.3311 -0.2203 -0.0202
 8519SOL    HW127810   6.448   4.901  10.255 -1.1211  0.9520  0.1148
 8519SOL    HW227811   6.322   4.917  10.338 -0.4120 -0.8228  1.5868
 8520SOL     OW27812   6.317   9.201   5.039 -0.1961 -0.4810 -0.4113
 8520SOL    HW127813   6.302   9.187   4.946 -1.4895  0.9994 -0.4648
 8520SOL    HW227814   6.401   9.247   5.043 -0.6540  0.4396 -0.9560
 8521SOL     OW27815   4.793   3.391  10.593  0.3376  0.5480  0.7161
 8521SOL    HW127816   4.748   3.462  10.547  0.5277 -0.5774 -1.3149
 8521SOL    HW227817   4.873   3.432  10.627  2.0738  0.7727 -3.1181
 8522SOL     OW27818   0.840   4.305   2.114 -0.1840 -0.3094 -0.1713
 8522SOL    HW127819   0.820   4.360   2.189  0.0627  0.0784 -0.3879
 8522SOL    HW227820   0.839   4.364   2.039  2.2111 -0.1375 -0.1535
 8523SOL     OW27821   2.208   2.632   7.108  0.1466  0.2309 -0.1328
 8523SOL    HW127822   2.295   2.667   7.093  0.5811 -0.2057  1.1841
 8523SOL    HW227823   2.187   2.658   7.198 -0.6911 -0.4611 -0.1121
 8524SOL     OW27824   8.208   3.950   3.039  0.4166  0.2058 -0.5927
 8524SOL    HW127825   8.237   3.938   3.129  1.1863  0.8824 -0.7370
 8524SOL    HW227826   8.128   3.898   3.032  1.0308 -0.8903  0.1225
 8525SOL     OW27827   9.525   6.439   3.509  0.0953 -0.3190  0.1888
 8525SOL    HW127828   9.576   6.363   3.539 -0.8881 -0.7861  0.7222
 8525SOL    HW227829   9.510   6.490   3.589 -1.5966 -1.0009  0.3523
 8526SOL     OW27830   6.769   6.809  10.025  0.4003  0.1995 -0.0932
 8526SOL    HW127831   6.711   6.863   9.971  2.6938  0.2026 -2.7660
 8526SOL    HW227832   6.856   6.844  10.009  1.4898 -1.5523  1.5784
 8527SOL     OW27833   3.899   2.325   2.303 -0.1116 -0.4517 -0.4794
 8527SOL    HW127834   3.915   2.260   2.371 -0.0940  1.0084  0.9490
 8527SOL    HW227835   3.827   2.288   2.251 -1.0260 -0.9981  1.1229
 8528SOL     OW27836   4.466   7.963   0.429 -0.3034 -0.2710  0.3291
 8528SOL    HW127837   4.512   8.044   0.451  0.2480 -0.2080 -0.9790
 8528SOL    HW227838   4.532   7.894   0.437 -0.2240 -0.3140 -0.5327
 8529SOL     OW27839  10.431   3.847   4.088  0.0385 -0.1098  0.3714
 8529SOL    HW127840  10.462   3.925   4.135 -0.2252  0.4592 -0.3827
 8529SOL    HW227841  10.348   3.825   4.131 -0.7236  1.0236 -0.4629
 8530SOL     OW27842   7.043   8.941   7.843  0.1350 -0.6966 -0.1259
 8530SOL    HW127843   7.010   9.026   7.813 -0.8909 -0.7717  0.7397
 8530SOL    HW227844   7.010   8.878   7.778  2.5415 -0.2746 -1.9044
 8531SOL     OW27845   3.631   9.690   3.104 -0.2917  0.2188  0.5898
 8531SOL    HW127846   3.675   9.661   3.184 -2.6474 -0.8414  1.5797
 8531SOL    HW227847   3.687   9.657   3.033  0.3075 -1.4466  1.7712
 8532SOL     OW27848   6.041   9.987  10.452  0.0291  0.0020  0.4852
 8532SOL    HW127849   6.090   9.906  10.441  0.8186  0.5406 -0.1516
 8532SOL    HW227850   5.950   9.962  10.438  0.3167 -0.6852 -0.2672
 8533SOL     OW27851   0.848   5.146   9.408  0.6320 -0.5540 -0.7100
 8533SOL    HW127852   0.847   5.143   9.313  3.6218 -0.5217 -0.8534
 8533SOL    HW227853   0.937   5.176   9.430 -0.5953  1.5187  2.0600
 8534SOL     OW27854   1.483   7.959   1.802  0.1086 -0.2864 -0.2086
 8534SOL    HW127855   1.422   8.001   1.863 -0.9109  0.5302 -1.7145
 8534SOL    HW227856   1.553   8.023   1.791  0.0795 -0.2534 -0.2041
 8535SOL     OW27857  10.509   5.645   0.669 -0.0587 -0.7718 -0.1667
 8535SOL    HW127858  10.465   5.564   0.697  0.0556 -0.8909 -0.3261
 8535SOL    HW227859  10.481   5.711   0.732  0.7447 -1.1908  0.6600
 8536SOL     OW27860   8.465   9.059   2.213 -0.1032  0.3240  0.4330
 8536SOL    HW127861   8.438   9.146   2.184 -0.0069  0.4473  0.7092
 8536SOL    HW227862   8.540   9.038   2.156  1.3324  1.3832  1.8215
 8537SOL     OW27863   7.068   6.853   4.430  0.7510  0.1917 -0.0819
 8537SOL    HW127864   7.089   6.823   4.518 -2.2597  0.0756  0.7162
 8537SOL    HW227865   7.138   6.913   4.407  2.1035 -0.4956  1.9959
 8538SOL     OW27866   6.477   2.271  10.390 -0.7767  0.4083  0.3277
 8538SOL    HW127867   6.436   2.250  10.474 -1.4271 -0.1887 -0.1328
 8538SOL    HW227868   6.414   2.327  10.345  0.3164  2.2273  0.9288
 8539SOL     OW27869   2.109   9.374   5.729  0.3852  0.0568  0.0262
 8539SOL    HW127870   2.022   9.412   5.741 -0.0658 -0.2731 -1.8983
 8539SOL    HW227871   2.162   9.446   5.693  2.0376  1.3982  4.4594
 8540SOL     OW27872   0.381   3.554   3.520  0.7206 -0.4800  0.0674
 8540SOL    HW127873   0.345   3.468   3.542 -2.5224  0.8710  0.4947
 8540SOL    HW227874   0.413   3.544   3.430 -0.1412 -1.9872 -0.1075
 8541SOL     OW27875   5.323   0.781   2.256 -0.0316  0.1977 -0.5765
 8541SOL    HW127876   5.413   0.806   2.234 -0.1110  1.3640  0.3397
 8541SOL    HW227877   5.321   0.779   2.352 -0.6768 -1.0397 -0.5972
 8542SOL     OW27878   3.148  10.296   8.697 -0.4020  0.2901 -0.1218
 8542SOL    HW127879   3.065  10.314   8.654 -0.9245  1.1443  1.1787
 8542SOL    HW227880   3.169  10.376   8.745  0.7623 -0.1978  0.2373
 8543SOL     OW27881   2.532   7.637   9.398  0.4272  0.2036  0.4492
 8543SOL    HW127882   2.592   7.659   9.469  2.4758 -0.0814 -1.0973
 8543SOL    HW227883   2.499   7.722   9.367 -0.7872  0.3112  1.9237
 8544SOL     OW27884   0.466   7.068   7.346 -0.1413 -0.1350  0.1640
 8544SOL    HW127885   0.371   7.052   7.350 -0.5016  0.9765 -2.2305
 8544SOL    HW227886   0.487   7.063   7.253  2.1676 -0.2270  0.6332
 8545SOL     OW27887   9.945   7.007   5.335  0.6329 -0.1296 -0.2270
 8545SOL    HW127888   9.930   7.085   5.281  0.1846 -0.1164 -0.0866
 8545SOL    HW227889   9.857   6.975   5.357  0.7347 -2.0794 -2.2933
 8546SOL     OW27890   1.316   6.015   3.437  0.2159  0.3000  0.2588
 8546SOL    HW127891   1.222   6.010   3.420  0.1916  1.2724  0.0897
 8546SOL    HW227892   1.341   6.103   3.411  1.1805  0.0484  0.3054
 8547SOL     OW27893   8.377   5.865  10.267  0.9658 -0.1068  0.1914
 8547SOL    HW127894   8.396   5.901  10.180  0.2103 -0.3585 -0.0773
 8547SOL    HW227895   8.282   5.865  10.273  1.0152  0.5303  1.2809
 8548SOL     OW27896   7.584   7.204   5.141  0.1319 -0.0226 -0.2011
 8548SOL    HW127897   7.506   7.231   5.094  0.1891 -0.2089 -0.4010
 8548SOL    HW227898   7.579   7.251   5.225 -0.3344 -0.2479 -0.1006
 8549SOL     OW27899   1.537   3.119   5.755  0.1067 -0.1973 -0.3637
 8549SOL    HW127900   1.513   3.210   5.735  1.1682  0.7415  2.1852
 8549SOL    HW227901   1.619   3.105   5.708 -0.4923 -0.1473 -1.4440
 8550SOL     OW27902  10.031   5.339   7.553  0.0529  0.4635  0.2400
 8550SOL    HW127903   9.995   5.296   7.476 -2.0213  0.2953  1.2170
 8550SOL    HW227904  10.090   5.406   7.518 -2.2580  1.6949 -1.6364
 8551SOL     OW27905   0.129   6.839   0.466  0.8627  0.4416 -0.0529
 8551SOL    HW127906   0.197   6.781   0.432  1.3460  1.2250 -0.4416
 8551SOL    HW227907   0.172   6.891   0.533  0.5984  0.8054 -0.1607
 8552SOL     OW27908   1.247   8.587   3.643 -0.2495 -0.5763  0.3173
 8552SOL    HW127909   1.224   8.600   3.551  0.7412  1.4279  0.3044
 8552SOL    HW227910   1.330   8.539   3.641 -0.1349 -0.3721  0.1543
 8553SOL     OW27911   8.991   7.029  10.026 -0.4089 -0.2189  0.4276
 8553SOL    HW127912   8.901   7.053  10.006 -1.2085 -1.2500  2.4586
 8553SOL    HW227913   8.994   6.934  10.014 -0.0486 -0.4124  1.8394
 8554SOL     OW27914   2.661   5.475   0.245 -0.6078  0.3001 -0.1247
 8554SOL    HW127915   2.572   5.503   0.267 -0.4881 -0.0320  0.8252
 8554SOL    HW227916   2.652   5.428   0.162 -1.6165 -1.3012  0.8383
 8555SOL     OW27917  10.364   2.288   2.196  0.5931 -0.1291  0.2300
 8555SOL    HW127918  10.396   2.257   2.281 -0.6565  0.1743  0.8443
 8555SOL    HW227919  10.273   2.314   2.213 -0.0776 -1.1790 -1.4636
 8556SOL     OW27920   5.611   9.722   7.574 -0.0499  0.7240 -0.0522
 8556SOL    HW127921   5.649   9.712   7.487 -0.6440  0.8012 -0.3274
 8556SOL    HW227922   5.599   9.633   7.605  3.1715  0.6155  1.3388
 8557SOL     OW27923   5.846   9.189   5.172  0.4119  0.3675 -0.4281
 8557SOL    HW127924   5.815   9.199   5.081 -0.0226  1.3794 -0.1807
 8557SOL    HW227925   5.932   9.231   5.173  1.1253 -1.0239 -0.7260
 8558SOL     OW27926   3.393   5.505   9.303 -0.3473 -0.1657 -0.5822
 8558SOL    HW127927   3.371   5.416   9.274  2.1458 -1.4409  1.0762
 8558SOL    HW227928   3.439   5.492   9.385  3.2274  2.3754 -1.9705
 8559SOL     OW27929   1.026   9.398   8.557 -0.3181 -0.5266  0.1767
 8559SOL    HW127930   1.093   9.332   8.579  1.7836  0.7163 -2.0672
 8559SOL    HW227931   1.044   9.470   8.618 -0.9193 -0.9388  0.8646
 8560SOL     OW27932   7.341   6.207   4.994  0.3012 -0.0122  0.2388
 8560SOL    HW127933   7.279   6.276   4.971 -0.7611 -1.2243 -0.7344
 8560SOL    HW227934   7.352   6.215   5.089 -0.6522  0.7933  0.3037
 8561SOL     OW27935   7.797   9.705   9.358 -0.4573 -0.1859 -0.6081
 8561SOL    HW127936   7.874   9.691   9.303 -0.6392 -2.2728 -0.4177
 8561SOL    HW227937   7.830   9.694   9.448 -0.6428  0.7641 -0.4105
 8562SOL     OW27938   0.266   9.327   8.087 -0.5463 -0.4263 -0.4674
 8562SOL    HW127939   0.313   9.392   8.140  1.4194 -0.0947 -2.4889
 8562SOL    HW227940   0.300   9.243   8.116 -0.3593 -0.3215 -0.3838
 8563SOL     OW27941   4.819   4.538   6.377  0.3136 -0.4763  0.2632
 8563SOL    HW127942   4.833   4.580   6.461  0.6104 -1.1301  0.5436
 8563SOL    HW227943   4.811   4.611   6.315  0.0012  0.0096  0.8614
 8564SOL     OW27944   8.787   8.422   5.163  0.4386 -0.3942  1.1982
 8564SOL    HW127945   8.767   8.368   5.086 -0.5356  0.9029  0.5010
 8564SOL    HW227946   8.717   8.402   5.225  1.2253 -1.4419  1.7870
 8565SOL     OW27947   9.829   2.427  10.573  0.0601 -0.3390 -0.1274
 8565SOL    HW127948   9.764   2.496  10.586  0.0409 -0.1355 -1.1687
 8565SOL    HW227949   9.784   2.362  10.519  0.2675 -0.8817  0.3512
 8566SOL     OW27950   4.746   1.342   1.344 -0.2754 -0.3709 -0.3822
 8566SOL    HW127951   4.678   1.395   1.302  0.8459 -0.1907 -2.0954
 8566SOL    HW227952   4.702   1.297   1.416 -1.4980  2.0560  0.4690
 8567SOL     OW27953   0.665   6.976   3.031  0.4352 -0.1537  0.3174
 8567SOL    HW127954   0.694   7.023   2.953  0.1753  1.2935  1.0697
 8567SOL    HW227955   0.714   7.014   3.103 -0.6367 -0.2055  1.1053
 8568SOL     OW27956   4.925   1.186   8.617  0.4179  0.8430 -0.2534
 8568SOL    HW127957   4.838   1.152   8.596 -0.5470  2.1456  1.3238
 8568SOL    HW227958   4.942   1.252   8.549 -0.1007  0.9759 -0.2625
 8569SOL     OW27959   2.064   8.840   3.808 -0.2725  0.6437 -0.0091
 8569SOL    HW127960   2.021   8.802   3.885 -0.0540  0.4825  0.0337
 8569SOL    HW227961   2.129   8.775   3.783 -1.0977  0.1752 -1.0112
 8570SOL     OW27962   0.262  10.206   8.308  0.5749 -0.4864  0.3563
 8570SOL    HW127963   0.278  10.287   8.259  1.0159 -0.4931  0.4808
 8570SOL    HW227964   0.248  10.234   8.398 -1.1132 -0.4019  0.0866
 8571SOL     OW27965   8.907   2.806   0.003 -0.0346 -0.2811 -0.1576
 8571SOL    HW127966   8.939   2.814   0.093  2.4623 -0.9772 -0.9155
 8571SOL    HW227967   8.897   2.712  -0.011  1.3595 -0.3114 -1.1428
 8572SOL     OW27968   4.776   8.541  10.041 -0.0221  0.3353  0.5696
 8572SOL    HW127969   4.837   8.520   9.970  1.2964  1.3181  1.3722
 8572SOL    HW227970   4.717   8.607  10.005 -0.9056 -0.9011 -0.3336
 8573SOL     OW27971   5.331   0.415   0.325  0.4790 -0.1811 -0.1479
 8573SOL    HW127972   5.371   0.369   0.251 -0.8459 -0.4759 -0.7095
 8573SOL    HW227973   5.405   0.441   0.379  1.4565 -0.2856 -1.3828
 8574SOL     OW27974   5.739   8.840   9.760 -0.1500  0.2336  0.0092
 8574SOL    HW127975   5.706   8.830   9.849 -0.0157 -0.8074 -0.0463
 8574SOL    HW227976   5.806   8.771   9.751 -0.1644  0.3193 -0.8938
 8575SOL     OW27977   9.260   2.080   0.163 -0.2976  0.0270  0.0870
 8575SOL    HW127978   9.342   2.123   0.189 -0.3077 -0.2167  0.5307
 8575SOL    HW227979   9.230   2.130   0.087 -0.4417  0.9465  0.7429
 8576SOL     OW27980   6.410   0.138   2.774  0.3297 -0.0679 -0.5438
 8576SOL    HW127981   6.325   0.108   2.807  0.1450  0.1309 -0.8266
 8576SOL    HW227982   6.417   0.100   2.686 -0.3766  1.4894 -1.3336
 8577SOL     OW27983   2.458   2.740   3.486 -0.4722  0.0603 -0.2576
 8577SOL    HW127984   2.430   2.787   3.408  0.3757 -0.8903 -1.1744
 8577SOL    HW227985   2.515   2.801   3.532  0.0840  0.1836 -1.0805
 8578SOL     OW27986   5.042   9.479   2.549  0.3856  0.1375 -0.0513
 8578SOL    HW127987   5.101   9.523   2.610  1.9426 -1.1843 -0.5053
 8578SOL    HW227988   5.061   9.518   2.464 -0.9411  1.1624  0.0963
 8579SOL     OW27989   8.988   3.572   4.426 -0.5761  0.2603  0.4243
 8579SOL    HW127990   8.927   3.576   4.499 -1.3885 -0.9697 -0.1558
 8579SOL    HW227991   9.018   3.481   4.425  2.0227  0.9990  1.2683
 8580SOL     OW27992   5.874   7.452   8.856  0.5511  0.8627  0.2861
 8580SOL    HW127993   5.898   7.371   8.901 -0.4756  0.0422 -0.6022
 8580SOL    HW227994   5.837   7.508   8.925 -0.6470 -0.2201  0.5628
 8581SOL     OW27995   0.365   0.561   7.360 -0.8208  0.4079  0.1380
 8581SOL    HW127996   0.366   0.598   7.449  0.1366 -0.2792  0.4350
 8581SOL    HW227997   0.456   0.567   7.331 -1.0251  0.1058 -0.5801
 8582SOL     OW27998   8.340  10.234   2.345  0.2695  0.3680  0.2409
 8582SOL    HW127999   8.378  10.308   2.297  1.3345  0.9665  1.9040
 8582SOL    HW228000   8.246  10.246   2.337  0.4177  1.8720  0.3787
 8583SOL     OW28001   2.170   1.143   0.478 -0.1684 -0.0269 -0.3683
 8583SOL    HW128002   2.107   1.187   0.421 -0.6145 -0.3947 -0.1659
 8583SOL    HW228003   2.120   1.072   0.519  0.1486  0.2423  0.4968
 8584SOL     OW28004   4.852  10.079   8.555 -0.4746  0.3044 -0.0205
 8584SOL    HW128005   4.758  10.097   8.548 -0.5120 -0.3340 -1.3950
 8584SOL    HW228006   4.890  10.164   8.578 -1.6265  0.0224  3.5185
 8585SOL     OW28007  10.452   3.582   1.446  0.5221  0.1195 -0.5788
 8585SOL    HW128008  10.539   3.543   1.455 -0.6927 -2.7665 -0.3464
 8585SOL    HW228009  10.393   3.520   1.489 -1.6835  1.9946 -0.6910
 8586SOL     OW28010   6.981   6.790   2.562 -0.3551 -0.3697 -0.4947
 8586SOL    HW128011   6.944   6.705   2.536 -0.7715 -0.5009  0.4911
 8586SOL    HW228012   7.071   6.769   2.588 -0.6350 -0.6132  0.2969
 8587SOL     OW28013   1.186   8.864   4.315 -0.1244 -0.3426 -0.1102
 8587SOL    HW128014   1.181   8.959   4.319  0.1557 -0.3428  0.4130
 8587SOL    HW228015   1.158   8.835   4.402  1.3499 -0.6490  0.2990
 8588SOL     OW28016   9.493   8.458   0.130  0.3631  0.7072 -0.4339
 8588SOL    HW128017   9.558   8.389   0.141  0.2434  0.6279 -0.2216
 8588SOL    HW228018   9.412   8.411   0.110  0.6877  0.8523 -2.2745
 8589SOL     OW28019   4.919   9.842   6.173 -0.1014 -0.3816 -0.1376
 8589SOL    HW128020   4.972   9.908   6.129  1.4080 -1.5485 -0.1601
 8589SOL    HW228021   4.852   9.818   6.109 -0.6871  1.1054 -0.1179
 8590SOL     OW28022   4.403   5.264   2.287 -0.2978 -0.4716 -0.2407
 8590SOL    HW128023   4.332   5.253   2.350 -1.3555  1.4771 -0.9986
 8590SOL    HW228024   4.364   5.313   2.214  2.2283  2.4714  0.1647
 8591SOL     OW28025   3.418   5.990   7.817  0.7062  0.4619  0.4405
 8591SOL    HW128026   3.493   5.945   7.779  0.2380  0.6842 -0.8114
 8591SOL    HW228027   3.405   5.949   7.902  0.0883 -2.0597 -0.7703
 8592SOL     OW28028   9.389   6.709   9.508 -0.0805  0.0584 -0.1599
 8592SOL    HW128029   9.311   6.737   9.459 -0.2253 -0.0583  0.0013
 8592SOL    HW228030   9.383   6.614   9.510  0.4367  0.0050 -0.7488
 8593SOL     OW28031   5.209   2.206   7.116 -0.0993 -0.5429  0.3082
 8593SOL    HW128032   5.185   2.149   7.189 -0.4927 -0.5294  0.1896
 8593SOL    HW228033   5.144   2.187   7.048  0.3624 -0.6759 -0.0995
 8594SOL     OW28034   7.478   2.596   9.844  0.0855  0.1759 -0.0736
 8594SOL    HW128035   7.519   2.537   9.907  2.2076  0.0761 -1.4459
 8594SOL    HW228036   7.482   2.550   9.760  2.3328  2.3633 -1.3074
 8595SOL     OW28037   2.847   4.024   5.479 -0.2650 -0.4945  0.5433
 8595SOL    HW128038   2.861   4.118   5.477  1.4914 -0.7443 -0.3606
 8595SOL    HW228039   2.911   3.991   5.541 -0.9432 -1.1052  0.9402
 8596SOL     OW28040  10.511   4.502   3.749  0.3918 -0.1256  0.6204
 8596SOL    HW128041  10.533   4.593   3.766 -0.3544 -0.0870  1.4850
 8596SOL    HW228042  10.548   4.483   3.663 -0.4015  1.3330 -0.0758
 8597SOL     OW28043   6.768   5.147   5.756  0.4551 -0.3372  0.2065
 8597SOL    HW128044   6.773   5.230   5.803  0.1295  0.6045 -1.3560
 8597SOL    HW228045   6.846   5.099   5.784  0.0666 -0.0057  1.9881
 8598SOL     OW28046   1.176   2.985   8.615 -0.8222  0.5811 -0.0185
 8598SOL    HW128047   1.220   3.003   8.532  0.7724 -0.3864  0.5742
 8598SOL    HW228048   1.089   2.954   8.589  0.2662 -1.5431 -1.4838
 8599SOL     OW28049   4.433   8.818   9.194  0.3060  0.2001  0.2352
 8599SOL    HW128050   4.443   8.809   9.289  0.3026  0.1765  0.2334
 8599SOL    HW228051   4.509   8.773   9.158  0.1117 -0.1190  0.2174
 8600SOL     OW28052   5.832  10.208   4.459  0.0206 -0.0858 -0.1814
 8600SOL    HW128053   5.921  10.197   4.426  0.2211  1.4027 -0.2120
 8600SOL    HW228054   5.828  10.151   4.536  1.7134  1.3827  1.0710
 8601SOL     OW28055   8.746   4.115   0.855 -0.7672  0.4869  0.0730
 8601SOL    HW128056   8.770   4.195   0.901 -2.8797  0.0180  2.1892
 8601SOL    HW228057   8.823   4.059   0.861 -0.0470  1.5051  0.5879
 8602SOL     OW28058   2.032   2.977   3.033 -0.2090  0.7610  0.0449
 8602SOL    HW128059   2.124   2.974   3.060 -0.5278  0.6691  1.1987
 8602SOL    HW228060   2.034   3.011   2.944  0.8944  1.5685  0.3546
 8603SOL     OW28061   9.955   5.559   4.300  0.0824  0.5287 -0.6193
 8603SOL    HW128062   9.907   5.618   4.359  1.6078  1.3149 -0.1002
 8603SOL    HW228063   9.951   5.602   4.215 -0.9555  0.0938 -0.7958
 8604SOL     OW28064   8.571   9.461   6.484 -0.3212  0.3481 -0.8252
 8604SOL    HW128065   8.511   9.535   6.487 -1.7427 -0.6551 -2.2376
 8604SOL    HW228066   8.514   9.385   6.472  0.9851 -1.1439  1.6128
 8605SOL     OW28067   8.685   2.652   0.360 -0.6612 -0.1629 -0.3738
 8605SOL    HW128068   8.646   2.613   0.438 -0.8162  0.1072 -0.3167
 8605SOL    HW228069   8.610   2.686   0.310 -0.4324  1.3824  0.2772
 8606SOL     OW28070   6.150   1.484   4.553 -0.1829 -0.5706 -0.6424
 8606SOL    HW128071   6.114   1.562   4.596 -4.2379 -2.2208 -0.5838
 8606SOL    HW228072   6.233   1.468   4.598  0.5058  3.2722 -0.2320
 8607SOL     OW28073   0.226   3.594   9.730 -0.5127 -0.3830  0.1940
 8607SOL    HW128074   0.319   3.579   9.716 -0.3578  2.2853 -2.6435
 8607SOL    HW228075   0.222   3.657   9.802 -0.0418  0.2548 -0.3284
 8608SOL     OW28076   4.099   3.492   5.478 -0.0014  0.2257  0.0319
 8608SOL    HW128077   4.099   3.440   5.397 -1.6573 -1.5462  1.0864
 8608SOL    HW228078   4.171   3.455   5.529 -0.0037  0.2328  0.0402
 8609SOL     OW28079   9.735   5.240   8.849  0.0252  0.2767  0.0527
 8609SOL    HW128080   9.740   5.145   8.833  1.5467  0.4380 -0.6271
 8609SOL    HW228081   9.717   5.248   8.943  0.3665 -0.6875  0.2120
 8610SOL     OW28082   1.509   4.842   4.718 -0.0368  0.4409 -0.3837
 8610SOL    HW128083   1.592   4.853   4.764 -0.9696  1.3163  1.1620
 8610SOL    HW228084   1.490   4.929   4.683 -0.2564  0.2165 -0.8226
 8611SOL     OW28085   6.621   8.277   4.544  0.1684 -0.1146  0.3208
 8611SOL    HW128086   6.598   8.215   4.475 -0.5711  0.4215  0.0728
 8611SOL    HW228087   6.707   8.310   4.520  0.8021 -1.3938  0.7157
 8612SOL     OW28088   0.925   2.685   8.990 -0.0878  0.8778  0.2311
 8612SOL    HW128089   0.969   2.764   8.958 -1.6189  1.6492 -0.0467
 8612SOL    HW228090   0.915   2.630   8.911 -0.5283  1.1518  0.0929
 8613SOL     OW28091  10.214   6.278   2.846 -0.4414 -0.8640  0.2295
 8613SOL    HW128092  10.255   6.310   2.927  1.0731 -2.1660  0.0391
 8613SOL    HW228093  10.266   6.317   2.776 -0.3583 -1.4716 -0.0546
 8614SOL     OW28094   1.907   1.694   2.047  0.2689  0.0635 -0.3090
 8614SOL    HW128095   1.879   1.784   2.032 -0.1999 -0.1555 -0.7618
 8614SOL    HW228096   1.838   1.657   2.103  0.4423 -0.0288 -0.1539
 8615SOL     OW28097   8.684   6.545   1.172  0.0070  0.1978 -0.1426
 8615SOL    HW128098   8.762   6.493   1.187  0.7192  1.2107 -0.2630
 8615SOL    HW228099   8.643   6.553   1.258  0.9701  1.1048  0.2535
 8616SOL     OW28100  10.486   2.752  10.017  0.0475  0.8076  0.6903
 8616SOL    HW128101  10.399   2.749  10.057 -1.5208 -1.8148 -2.3529
 8616SOL    HW228102  10.501   2.844   9.998 -2.2669  1.3070  0.9867
 8617SOL     OW28103  10.367   7.881   3.149 -0.2023 -0.1540  0.0979
 8617SOL    HW128104  10.450   7.834   3.148  0.9875  1.8534 -0.9559
 8617SOL    HW228105  10.336   7.878   3.058 -1.4734 -1.1099  0.5203
 8618SOL     OW28106   5.356   7.921   3.980  0.3540 -0.8541  0.4094
 8618SOL    HW128107   5.400   7.918   3.895  0.1936 -2.4884  0.3509
 8618SOL    HW228108   5.281   7.980   3.966  0.6748 -0.6206 -0.4027
 8619SOL     OW28109   2.334   9.262   5.848  0.2850  0.0780  0.0116
 8619SOL    HW128110   2.373   9.298   5.768 -0.6045 -1.4101 -1.1466
 8619SOL    HW228111   2.252   9.310   5.859 -0.6514 -1.1640 -1.2417
 8620SOL     OW28112   1.488   9.895   1.194  0.1753  0.3099  0.6819
 8620SOL    HW128113   1.522   9.975   1.234  0.3538  0.7413 -0.2936
 8620SOL    HW228114   1.560   9.832   1.201 -0.4126 -0.1933  2.6100
 8621SOL     OW28115   7.381   5.623   1.798  0.0326 -0.2089  0.2121
 8621SOL    HW128116   7.331   5.652   1.874  1.8224 -1.1893  1.8657
 8621SOL    HW228117   7.373   5.527   1.799  0.8783 -0.2952 -0.2486
 8622SOL     OW28118   7.103   5.585   3.024 -0.6829 -0.0101 -0.4595
 8622SOL    HW128119   7.196   5.568   3.036 -0.8475 -0.4155  0.2225
 8622SOL    HW228120   7.101   5.671   2.981 -0.0253  0.4222  0.3443
 8623SOL     OW28121   5.663   6.276   8.707  0.3566  0.3044  0.5427
 8623SOL    HW128122   5.724   6.297   8.778  0.7470  1.8265 -0.1939
 8623SOL    HW228123   5.626   6.360   8.682 -0.0555 -0.2533 -0.8078
 8624SOL     OW28124   6.977   3.794   7.159  0.0357 -0.3512 -0.5454
 8624SOL    HW128125   6.980   3.872   7.214 -1.3653  1.8250 -3.3210
 8624SOL    HW228126   6.885   3.784   7.137  0.3708 -2.0541 -1.2867
 8625SOL     OW28127   5.462   7.781   5.824 -0.1831  0.0309  0.2764
 8625SOL    HW128128   5.553   7.785   5.854  0.2435  1.7734 -1.0546
 8625SOL    HW228129   5.468   7.749   5.734 -0.7236  1.3346 -0.2565
 8626SOL     OW28130   6.498   9.032   3.321  0.0522 -0.4816  0.4564
 8626SOL    HW128131   6.403   9.039   3.336  0.0671  0.9261  0.0817
 8626SOL    HW228132   6.525   8.956   3.373 -0.9041  0.4953  2.5217
 8627SOL     OW28133   3.943   3.153   2.764 -0.1023  0.1679  0.0325
 8627SOL    HW128134   3.914   3.063   2.749  2.9833 -0.7289 -1.3907
 8627SOL    HW228135   3.912   3.174   2.852 -1.2150 -2.1247  0.2710
 8628SOL     OW28136   6.643   6.873   6.417  0.3808  0.3086  0.0039
 8628SOL    HW128137   6.555   6.894   6.449 -0.1973 -0.0063 -1.3168
 8628SOL    HW228138   6.694   6.857   6.497 -1.1088 -0.9517  0.7586
 8629SOL     OW28139   7.589   6.157   8.100  0.6132 -0.3349 -0.2091
 8629SOL    HW128140   7.622   6.235   8.056 -2.8414  1.0648 -0.6541
 8629SOL    HW228141   7.606   6.173   8.193 -0.4052  1.2254 -0.2495
 8630SOL     OW28142   5.329   9.656   7.483 -0.1234  0.4013 -0.3833
 8630SOL    HW128143   5.416   9.678   7.514 -0.4169  1.3690 -0.1947
 8630SOL    HW228144   5.327   9.561   7.481  0.3732  0.3333  1.2079
 8631SOL     OW28145   1.550   1.386   7.095 -0.3786  0.0241 -0.7906
 8631SOL    HW128146   1.530   1.470   7.136 -0.6500 -0.8614  1.0290
 8631SOL    HW228147   1.578   1.408   7.006  1.8382  2.2445  0.3211
 8632SOL     OW28148   8.490   2.572   5.632 -0.5119  0.7374  0.5935
 8632SOL    HW128149   8.410   2.528   5.603  0.4968 -0.4510 -0.5166
 8632SOL    HW228150   8.536   2.595   5.551  0.8600  0.2271  1.1890
 8633SOL     OW28151   8.740   5.523   4.526 -0.0269 -0.4217 -0.4316
 8633SOL    HW128152   8.755   5.581   4.601 -0.3328 -0.5397 -0.2768
 8633SOL    HW228153   8.803   5.452   4.537 -1.5995 -1.6618  0.9840
 8634SOL     OW28154   5.655   7.898   6.719 -0.8090  0.7873  0.2827
 8634SOL    HW128155   5.616   7.912   6.633  0.5546 -1.1742 -0.7319
 8634SOL    HW228156   5.582   7.900   6.780 -2.1855 -0.3817 -1.2436
 8635SOL     OW28157   9.973   9.160   3.537  0.2013  0.6757  0.2789
 8635SOL    HW128158  10.006   9.108   3.610 -1.8623 -0.9744  0.1324
 8635SOL    HW228159  10.050   9.178   3.483  1.5887  1.1072  2.3172
 8636SOL     OW28160   3.533   3.461   1.179  0.0114  0.9736  0.0881
 8636SOL    HW128161   3.568   3.454   1.268 -0.3182  0.4828  0.1819
 8636SOL    HW228162   3.502   3.373   1.158 -2.4129  1.6483  0.5172
 8637SOL     OW28163   7.757   6.718   6.939  0.0008 -0.0610  0.0692
 8637SOL    HW128164   7.783   6.746   6.851  1.5896  0.2155  0.5944
 8637SOL    HW228165   7.742   6.624   6.930 -0.2112  0.0269 -0.5740
 8638SOL     OW28166   9.003  10.424   5.605  0.0671 -0.1805 -0.1046
 8638SOL    HW128167   9.044  10.431   5.519  1.6681  2.9702  0.7593
 8638SOL    HW228168   8.916  10.464   5.593 -1.1629 -2.8313 -0.9024
 8639SOL     OW28169   8.112   8.302   6.296 -0.1050  0.2186  0.7335
 8639SOL    HW128170   8.093   8.314   6.204 -1.2552  1.4878  1.1122
 8639SOL    HW228171   8.153   8.384   6.324 -2.2798  0.9804  1.9358
 8640SOL     OW28172   5.310   6.782   7.857  0.0929  0.1048 -0.3060
 8640SOL    HW128173   5.359   6.718   7.908  1.8468  2.7059  1.5329
 8640SOL    HW228174   5.219   6.751   7.861  0.8248 -2.1218  0.6486
 8641SOL     OW28175   7.764   9.961   1.250 -0.5766  0.3723 -0.9506
 8641SOL    HW128176   7.835   9.979   1.311 -1.1322 -1.1229  0.1681
 8641SOL    HW228177   7.803   9.904   1.184 -0.6618 -0.2526 -0.4686
 8642SOL     OW28178   1.991   1.658   8.925  0.0518  0.2575 -0.0298
 8642SOL    HW128179   2.062   1.651   8.989  0.0687  0.6964  0.0073
 8642SOL    HW228180   1.927   1.592   8.951  0.1961  0.2331  0.2625
 8643SOL     OW28181   7.115  10.039   8.499  0.0645  0.0000 -0.0053
 8643SOL    HW128182   7.155  10.056   8.414  1.8580  0.3928  0.8763
 8643SOL    HW228183   7.044  10.103   8.505  0.5186  0.5998 -0.8184
 8644SOL     OW28184   0.144   0.432   9.615 -0.5068  0.2793  0.3785
 8644SOL    HW128185   0.084   0.390   9.554  0.3369 -0.0230 -0.2613
 8644SOL    HW228186   0.094   0.506   9.652 -0.7286  1.0184 -1.3369
 8645SOL     OW28187   7.502   6.694   9.243  0.3757  0.0904  0.3620
 8645SOL    HW128188   7.505   6.622   9.179 -1.0576  0.7805 -0.5268
 8645SOL    HW228189   7.485   6.650   9.327  0.1773 -0.6749 -0.0636
 8646SOL     OW28190   8.435   0.385   3.736  0.2381  0.2647 -0.2915
 8646SOL    HW128191   8.398   0.326   3.802  1.6463 -0.7753 -0.3742
 8646SOL    HW228192   8.484   0.450   3.786  0.4465  0.0859 -0.2581
 8647SOL     OW28193   4.617   8.113   6.774  0.2052 -0.2043 -0.0358
 8647SOL    HW128194   4.643   8.176   6.841  0.8991 -1.6599  1.1286
 8647SOL    HW228195   4.700   8.077   6.741 -0.1279  0.3512 -1.5913
 8648SOL     OW28196   6.484   5.761   4.022 -0.1197  0.3716  0.0051
 8648SOL    HW128197   6.435   5.684   3.993  0.5135 -0.1934  0.4102
 8648SOL    HW228198   6.474   5.824   3.951 -1.6250  0.3679  0.1750
 8649SOL     OW28199   2.910   0.655   6.604  0.1123  0.3257  0.6272
 8649SOL    HW128200   2.936   0.564   6.593 -2.7931 -0.3909 -1.5126
 8649SOL    HW228201   2.962   0.703   6.540  0.4568 -0.0991  0.5900
 8650SOL     OW28202  10.522   1.788   2.382  0.3161 -0.4227  0.3220
 8650SOL    HW128203  10.593   1.743   2.337  0.8654 -0.4633  1.2008
 8650SOL    HW228204  10.443   1.748   2.348  0.7182 -0.5017 -0.5443
 8651SOL     OW28205   7.460   3.437   2.873 -0.8337  0.1207 -0.6491
 8651SOL    HW128206   7.370   3.419   2.899 -1.0018  2.0464  0.2667
 8651SOL    HW228207   7.459   3.528   2.843  0.5397 -0.2576 -1.9748
 8652SOL     OW28208   7.106   2.467   8.167  0.0841  0.2179 -0.1747
 8652SOL    HW128209   7.042   2.511   8.223  0.7796 -0.1220  0.9096
 8652SOL    HW228210   7.152   2.539   8.122  0.2505  0.5494  0.5134
 8653SOL     OW28211   7.894   4.424   3.179  0.5093 -0.4865  0.3143
 8653SOL    HW128212   7.966   4.467   3.225  1.9103 -0.8475 -1.4667
 8653SOL    HW228213   7.820   4.431   3.240  1.9388  0.1499  2.0720
 8654SOL     OW28214  10.644   8.029   3.397 -0.2565  0.5112 -0.0881
 8654SOL    HW128215  10.557   8.064   3.415 -0.7659 -0.2554 -0.9551
 8654SOL    HW228216  10.681   8.088   3.331 -0.6685  0.0912 -0.7128
 8655SOL     OW28217   5.826   2.901   5.362  0.0580 -0.0844  0.3355
 8655SOL    HW128218   5.895   2.890   5.297 -1.4917 -0.6980 -1.2945
 8655SOL    HW228219   5.745   2.906   5.311 -1.1805  0.0303  2.1893
 8656SOL     OW28220   5.284   4.393   2.021 -0.4445 -0.0616  0.1588
 8656SOL    HW128221   5.243   4.456   2.081 -0.6483 -0.8060  0.8245
 8656SOL    HW228222   5.376   4.418   2.019 -0.5679  0.3986  0.2363
 8657SOL     OW28223   2.359   2.238   8.587  0.1358  0.0877  0.7035
 8657SOL    HW128224   2.308   2.181   8.645 -1.5961  0.8188 -0.0449
 8657SOL    HW228225   2.342   2.327   8.619  0.7364  0.3634  0.2750
 8658SOL     OW28226   9.353   5.748   0.114  0.2105 -0.1100  0.0140
 8658SOL    HW128227   9.324   5.660   0.136 -0.2665  0.1162  0.3064
 8658SOL    HW228228   9.343   5.798   0.195 -0.0719  0.3500 -0.2999
 8659SOL     OW28229   7.259   9.460   9.493 -0.0873  0.0923  0.4772
 8659SOL    HW128230   7.355   9.452   9.490 -0.1690 -0.6738 -0.6040
 8659SOL    HW228231   7.236   9.437   9.583  0.6364 -1.0571  0.3819
 8660SOL     OW28232   5.539   4.873   9.904  0.5205 -0.2833 -0.1332
 8660SOL    HW128233   5.610   4.920   9.860  0.6169 -0.1975  0.1161
 8660SOL    HW228234   5.508   4.811   9.837  1.4393 -0.9647  0.0347
 8661SOL     OW28235   1.561   8.933   4.715 -0.0063 -0.3916  0.1508
 8661SOL    HW128236   1.598   9.020   4.732  0.7305 -0.7137  0.2362
 8661SOL    HW228237   1.581   8.883   4.794 -1.2549 -0.3845  0.4926
 8662SOL     OW28238   9.362   8.803   8.198 -0.3210  0.1354 -0.4192
 8662SOL    HW128239   9.358   8.832   8.107  0.9535 -1.1356 -0.9150
 8662SOL    HW228240   9.287   8.744   8.207 -0.9080  0.8602 -0.3889
 8663SOL     OW28241  10.019   2.305   7.224 -0.9167 -0.3992 -0.1630
 8663SOL    HW128242  10.000   2.273   7.312  0.1681  0.7857  0.5516
 8663SOL    HW228243  10.076   2.238   7.185  0.0689 -0.1172  0.7335
 8664SOL     OW28244   0.174   1.303   3.280  0.3970  0.0798 -0.3171
 8664SOL    HW128245   0.123   1.296   3.361  2.2503 -1.2444  0.8274
 8664SOL    HW228246   0.235   1.376   3.297  0.1368  0.4489 -0.9364
 8665SOL     OW28247   4.663   2.011   4.170 -0.7108 -0.6563 -0.1667
 8665SOL    HW128248   4.636   2.085   4.225  0.2417 -0.9093  0.6587
 8665SOL    HW228249   4.638   1.933   4.220 -1.6223 -0.9212 -0.9906
 8666SOL     OW28250   2.501   4.546   5.431  0.3235 -0.0591  0.0122
 8666SOL    HW128251   2.535   4.581   5.349 -0.2215  0.1284 -0.1422
 8666SOL    HW228252   2.536   4.458   5.437 -1.3292 -0.8767 -1.4972
 8667SOL     OW28253   5.282   5.954   7.840 -0.2204  0.2447  0.3970
 8667SOL    HW128254   5.331   5.883   7.881 -0.5818 -0.2930 -0.0779
 8667SOL    HW228255   5.197   5.954   7.886 -0.8882 -0.8159 -0.7714
 8668SOL     OW28256   4.177   5.557   3.204 -0.2842  0.9177  0.1588
 8668SOL    HW128257   4.133   5.627   3.252  1.6285  2.3531 -0.0739
 8668SOL    HW228258   4.255   5.598   3.168  0.1782 -1.0150 -1.1865
 8669SOL     OW28259   0.211   8.466   7.886  0.2095 -0.3581  0.2525
 8669SOL    HW128260   0.281   8.433   7.942  0.4877  0.7033  0.5593
 8669SOL    HW228261   0.257   8.499   7.809  0.3837  2.6267  1.5001
 8670SOL     OW28262   5.968   8.511   9.131 -0.0352 -0.2898  0.3877
 8670SOL    HW128263   6.052   8.469   9.109 -1.8980 -3.7352 -0.9478
 8670SOL    HW228264   5.939   8.550   9.048 -0.1255  0.2267  0.6597
 8671SOL     OW28265  10.097  10.433   3.668  0.2484  0.0343  0.3309
 8671SOL    HW128266  10.069  10.342   3.665 -0.8795  0.3901 -0.8742
 8671SOL    HW228267  10.113  10.457   3.577 -1.1066  1.5107  0.4443
 8672SOL     OW28268   1.779   9.994   6.644  0.1675 -0.2439 -0.1085
 8672SOL    HW128269   1.798   9.913   6.597  2.9889  1.0932 -1.4658
 8672SOL    HW228270   1.778   9.967   6.736  1.8551 -1.7038 -0.4625
 8673SOL     OW28271   6.126   4.616   0.729  0.3054  0.3606 -0.0505
 8673SOL    HW128272   6.090   4.558   0.796 -1.5020  0.2987 -0.9974
 8673SOL    HW228273   6.051   4.668   0.699  1.6921  2.6690  0.2088
 8674SOL     OW28274  10.594   1.581   4.479 -0.1193  0.0794 -0.5809
 8674SOL    HW128275  10.552   1.621   4.556  1.4899  1.5511 -0.3921
 8674SOL    HW228276  10.524   1.573   4.415 -1.1351  0.4387  0.4540
 8675SOL     OW28277   3.994   8.523   2.047  0.4982  0.3960 -0.3018
 8675SOL    HW128278   4.051   8.448   2.063 -0.2199  0.2528  1.9113
 8675SOL    HW228279   4.053   8.598   2.042  1.0885 -0.1024 -1.0186
 8676SOL     OW28280   9.014   9.381   9.033  0.1929 -0.1827  0.9701
 8676SOL    HW128281   8.932   9.370   8.983  0.7434 -0.3353  0.0708
 8676SOL    HW228282   9.021   9.302   9.085  1.1525 -1.5150 -1.0528
 8677SOL     OW28283   4.246   0.358   4.470 -0.2676  0.2208 -0.0296
 8677SOL    HW128284   4.187   0.424   4.507  0.6316 -0.1062  2.1403
 8677SOL    HW228285   4.294   0.404   4.401 -1.5266  1.0746 -0.3655
 8678SOL     OW28286   2.234   8.061   5.947 -0.4091  0.4113 -0.0455
 8678SOL    HW128287   2.219   8.018   6.031 -0.7519 -0.2342 -0.4297
 8678SOL    HW228288   2.244   8.153   5.969 -1.2421  0.3548  0.6356
 8679SOL     OW28289   4.451   5.249   7.552 -0.0911 -0.0538 -0.2474
 8679SOL    HW128290   4.380   5.186   7.536  0.8607 -1.0822 -0.5498
 8679SOL    HW228291   4.523   5.217   7.498 -0.3018  2.6597 -2.3616
 8680SOL     OW28292   1.396   9.779   4.035  0.7269 -0.3243 -0.3945
 8680SOL    HW128293   1.363   9.848   4.093  1.9106 -0.6486  0.7181
 8680SOL    HW228294   1.333   9.708   4.044 -1.4705  1.1388 -2.8722
 8681SOL     OW28295   8.691   3.551   7.538 -0.4942  0.0919 -0.7659
 8681SOL    HW128296   8.666   3.518   7.624  0.6829  0.6283 -0.2019
 8681SOL    HW228297   8.738   3.478   7.497  0.8967  0.5788 -0.0650
 8682SOL     OW28298   2.676   9.392  10.071  0.0064 -0.2278  0.0045
 8682SOL    HW128299   2.712   9.409  10.158  2.8098 -0.4154 -1.0049
 8682SOL    HW228300   2.589   9.431  10.073  0.7134  1.4675  2.2944
 8683SOL     OW28301   0.686   5.453   6.687  0.4010 -0.0304  0.3355
 8683SOL    HW128302   0.675   5.516   6.758  1.2572  1.7469 -1.0200
 8683SOL    HW228303   0.598   5.419   6.671  0.2197 -0.6867  2.3576
 8684SOL     OW28304   0.707   9.091   0.370  0.4549 -0.0104  0.4570
 8684SOL    HW128305   0.747   9.081   0.457 -0.6237  0.9130  1.0752
 8684SOL    HW228306   0.741   9.174   0.338  2.7210 -1.4106 -1.0686
 8685SOL     OW28307   8.274   8.608   2.645  0.5694  0.0049  0.3386
 8685SOL    HW128308   8.367   8.588   2.657  0.7381  0.4196 -0.2666
 8685SOL    HW228309   8.272   8.699   2.617  0.1015 -0.4669 -1.2917
 8686SOL     OW28310   2.963   7.452   7.394 -0.0661 -0.7513  0.0199
 8686SOL    HW128311   3.012   7.410   7.464 -1.2966  0.4399  1.6933
 8686SOL    HW228312   3.015   7.530   7.372 -0.2364 -0.5117  0.4462
 8687SOL     OW28313   8.107   7.608   6.150  0.2300 -0.4497 -0.2329
 8687SOL    HW128314   8.184   7.554   6.130 -0.4081 -1.5103  0.0817
 8687SOL    HW228315   8.125   7.646   6.236  1.5585  1.5032 -1.2950
 8688SOL     OW28316   4.777   0.903   0.140  0.9702 -0.6031  0.2482
 8688SOL    HW128317   4.741   0.818   0.111 -1.0910  0.5300 -0.7836
 8688SOL    HW228318   4.798   0.948   0.059  1.3939  0.1472  0.7711
 8689SOL     OW28319   0.217   1.930   7.778 -0.3028  0.2213 -0.1098
 8689SOL    HW128320   0.194   1.994   7.711  2.1325  1.1553 -0.1513
 8689SOL    HW228321   0.254   1.856   7.729 -2.9474 -1.2537 -0.0529
 8690SOL     OW28322   7.341   7.156   6.183  0.1212  0.0871  0.4330
 8690SOL    HW128323   7.370   7.244   6.161  2.3080 -0.6211  0.2604
 8690SOL    HW228324   7.256   7.147   6.139  0.4296  1.6721 -0.5690
 8691SOL     OW28325   7.369   2.398   0.830  0.0889  0.0465  0.0178
 8691SOL    HW128326   7.457   2.369   0.807  0.9567  1.9837  0.6318
 8691SOL    HW228327   7.310   2.346   0.775  1.6274 -1.0651 -0.6275
 8692SOL     OW28328   3.579  10.207   6.474 -0.5767  0.6863 -0.2157
 8692SOL    HW128329   3.597  10.264   6.549  2.0741 -0.0096 -0.2114
 8692SOL    HW228330   3.576  10.119   6.511  0.0460  0.4064 -0.8097
 8693SOL     OW28331   6.462   5.238  10.417  0.3127  0.8038  0.5529
 8693SOL    HW128332   6.381   5.199  10.384  1.4707 -1.8830  0.6026
 8693SOL    HW228333   6.510   5.263  10.339  1.0546 -1.2548  0.2871
 8694SOL     OW28334   6.451   0.524   8.755  0.4527  0.0148 -0.1820
 8694SOL    HW128335   6.393   0.506   8.828 -1.8519  2.6375 -1.1918
 8694SOL    HW228336   6.490   0.608   8.775 -0.0129  0.6599 -1.7744
 8695SOL     OW28337   8.487   2.548   6.365  0.4086  0.2093 -0.4796
 8695SOL    HW128338   8.456   2.632   6.331  0.2078 -0.4244 -1.9412
 8695SOL    HW228339   8.499   2.493   6.287 -0.5619 -1.4972  0.5099
 8696SOL     OW28340   1.682   9.728   9.331  0.1409  0.4623  0.2822
 8696SOL    HW128341   1.709   9.676   9.407 -0.3092 -0.1605  0.0219
 8696SOL    HW228342   1.592   9.753   9.350 -0.6224 -1.2272 -0.8279
 8697SOL     OW28343   5.936   1.637   7.005  0.2339 -0.6031 -0.6845
 8697SOL    HW128344   6.020   1.599   6.983  0.2466 -1.0915  0.1589
 8697SOL    HW228345   5.884   1.564   7.037  0.3671  0.0854  1.2764
 8698SOL     OW28346   7.924   2.870   3.422  0.4187 -0.1253  0.6904
 8698SOL    HW128347   7.913   2.965   3.432  0.0859 -0.0974  0.1364
 8698SOL    HW228348   7.949   2.859   3.330 -1.2081 -0.6792  0.2727
 8699SOL     OW28349   8.358   5.900   1.167  0.0683 -0.3520 -0.1266
 8699SOL    HW128350   8.265   5.886   1.187  0.0179 -0.6970 -0.5885
 8699SOL    HW228351   8.404   5.853   1.237 -0.1111 -1.3798 -0.6745
 8700SOL     OW28352   9.709   0.611   4.952 -0.5474  0.2871 -0.0460
 8700SOL    HW128353   9.617   0.615   4.924 -0.7407  0.9022  0.6559
 8700SOL    HW228354   9.731   0.702   4.974 -0.1111 -0.0295  0.8579
 8701SOL     OW28355   0.575   6.998   1.292 -0.1930  0.7345 -0.0117
 8701SOL    HW128356   0.546   7.085   1.322  1.4848  1.2194  0.3194
 8701SOL    HW228357   0.636   6.969   1.359  1.9768  0.8664 -1.8100
 8702SOL     OW28358   8.852   0.810   8.562 -0.1988 -0.7762  0.0555
 8702SOL    HW128359   8.939   0.833   8.530 -0.7568  1.6940  0.1133
 8702SOL    HW228360   8.862   0.802   8.657  0.0880 -1.1816 -0.0067
 8703SOL     OW28361   4.636   3.801   5.071 -0.0856  0.5281  0.1375
 8703SOL    HW128362   4.548   3.770   5.053 -0.8714  1.9984  1.2039
 8703SOL    HW228363   4.647   3.789   5.165 -0.0914  2.5342  0.4394
 8704SOL     OW28364   7.991   9.670   2.146 -0.2093  0.5950 -0.0521
 8704SOL    HW128365   7.987   9.753   2.194 -0.2697  0.0193  0.9745
 8704SOL    HW228366   7.942   9.609   2.201 -0.1105 -0.1340 -0.7644
 8705SOL     OW28367   8.791   7.602   0.130  0.1335 -0.1002  0.5588
 8705SOL    HW128368   8.731   7.612   0.204  0.4542 -1.6757  1.0592
 8705SOL    HW228369   8.802   7.691   0.096  0.9782  0.8953  3.1926
 8706SOL     OW28370   5.739   5.308   5.697 -0.3711  0.0726  0.9126
 8706SOL    HW128371   5.676   5.380   5.694  1.1588  1.4573  0.3920
 8706SOL    HW228372   5.812   5.342   5.750  0.2549 -1.2137  0.9198
 8707SOL     OW28373   7.449   7.186   9.257 -0.2234  0.0518 -0.1244
 8707SOL    HW128374   7.359   7.183   9.288 -0.1274  2.4698  0.5499
 8707SOL    HW228375   7.496   7.236   9.323  1.0300  1.1949 -1.7968
 8708SOL     OW28376   0.174   1.838   0.059 -0.2552 -0.4890  0.4448
 8708SOL    HW128377   0.252   1.800   0.019 -1.0725 -1.7399 -0.0111
 8708SOL    HW228378   0.103   1.819  -0.002 -1.0835 -0.2033  1.2854
 8709SOL     OW28379   9.509   0.149   5.353  0.0399  0.0313 -0.1630
 8709SOL    HW128380   9.525   0.143   5.258  2.0303 -0.3650  0.1458
 8709SOL    HW228381   9.597   0.156   5.391 -0.6173 -1.5705  1.7903
 8710SOL     OW28382   7.137   9.505   6.961  0.3363 -0.4948  0.2800
 8710SOL    HW128383   7.107   9.555   7.037  1.7582  0.1013  0.4709
 8710SOL    HW228384   7.231   9.495   6.974  0.2136 -2.6436 -0.1045
 8711SOL     OW28385   8.199   0.468   0.484 -0.0085 -0.3941 -0.5279
 8711SOL    HW128386   8.133   0.534   0.504 -0.8311 -1.4924  0.4962
 8711SOL    HW228387   8.275   0.494   0.535 -0.2621 -0.1393 -0.2736
 8712SOL     OW28388   4.160   7.784   8.180  0.1660 -0.8456  0.2933
 8712SOL    HW128389   4.232   7.822   8.129 -0.0332  0.2408  0.8037
 8712SOL    HW228390   4.107   7.738   8.114 -0.9502  1.8287 -0.8154
 8713SOL     OW28391   1.897   7.075   7.574  0.0646  0.2207 -0.0293
 8713SOL    HW128392   1.859   7.142   7.517  0.3183  2.2000  1.9818
 8713SOL    HW228393   1.822   7.040   7.623  0.2789  1.2298  1.0567
 8714SOL     OW28394   5.555   2.066   3.235 -0.0060  0.1666 -0.3949
 8714SOL    HW128395   5.593   2.093   3.319 -0.6655  0.4686 -0.1873
 8714SOL    HW228396   5.466   2.099   3.237 -0.3172 -0.6153 -0.8391
 8715SOL     OW28397   2.551   2.038   4.249  0.1504 -0.5485 -0.6105
 8715SOL    HW128398   2.490   1.966   4.237 -1.2600  0.6176 -0.7488
 8715SOL    HW228399   2.566   2.073   4.161  0.1147 -0.1325 -0.4569
 8716SOL     OW28400   8.904   4.560   8.241 -0.2774  0.0476  0.0944
 8716SOL    HW128401   8.935   4.650   8.240 -2.2420  0.7812 -0.7386
 8716SOL    HW228402   8.974   4.510   8.283  0.9178  1.9233  0.4256
 8717SOL     OW28403  10.019   9.071   0.102 -0.5286 -0.0940 -0.5549
 8717SOL    HW128404   9.947   9.082   0.164  1.3320  0.3299  1.6585
 8717SOL    HW228405  10.037   8.977   0.105 -1.6510 -0.3960 -1.9899
 8718SOL     OW28406   1.644  10.573   2.289 -0.1379  0.1008  0.8686
 8718SOL    HW128407   1.651  10.479   2.273 -1.8193  0.0927 -0.0998
 8718SOL    HW228408   1.566  10.582   2.344  0.0111  0.9244  0.9584
 8719SOL     OW28409  10.376   0.859   8.886 -0.1358  0.2887  0.7053
 8719SOL    HW128410  10.459   0.822   8.917  1.1114  1.3456 -1.2020
 8719SOL    HW228411  10.366   0.942   8.933 -0.2039  0.1026  1.0251
 8720SOL     OW28412   6.789   4.938   1.445  0.3247 -0.2258 -0.2365
 8720SOL    HW128413   6.816   4.849   1.468 -3.5040 -1.1646  1.3898
 8720SOL    HW228414   6.763   4.978   1.528  1.2779  2.2145 -1.0370
 8721SOL     OW28415   8.763   5.313   6.740  0.2801 -0.3078 -0.1182
 8721SOL    HW128416   8.670   5.289   6.733  0.2016  0.1376 -0.6495
 8721SOL    HW228417   8.809   5.229   6.741 -0.1244 -0.5350  0.1905
 8722SOL     OW28418   1.997  10.639   5.354  0.4941 -0.3025 -0.7814
 8722SOL    HW128419   2.025  10.700   5.286 -1.1209 -0.5369 -1.7131
 8722SOL    HW228420   1.951  10.570   5.307 -0.5407 -0.5507  0.5360
 8723SOL     OW28421   4.074   4.367   8.126 -0.0310  0.3880 -0.1256
 8723SOL    HW128422   4.145   4.310   8.096  0.3024 -0.8147  2.6570
 8723SOL    HW228423   4.118   4.443   8.164 -0.2187 -0.1442  1.1916
 8724SOL     OW28424   3.156   2.580   8.750 -0.0777 -0.0787  0.1752
 8724SOL    HW128425   3.084   2.644   8.748 -1.6636 -1.7747 -0.2040
 8724SOL    HW228426   3.232   2.631   8.776 -1.2838  1.9348  0.0439
 8725SOL     OW28427   4.137   5.179   5.205  0.8228 -0.1161 -0.2442
 8725SOL    HW128428   4.124   5.128   5.285 -0.6091  0.7961  0.1582
 8725SOL    HW228429   4.221   5.150   5.171  0.9947 -1.2516  1.0565
 8726SOL     OW28430   0.675   5.677  10.645  0.5994 -0.1869 -0.0395
 8726SOL    HW128431   0.647   5.587  10.627  1.2917 -0.4809  0.2931
 8726SOL    HW228432   0.635   5.698  10.729 -0.6815  0.3188 -0.7633
 8727SOL     OW28433   9.800   4.396   6.020 -0.4311 -0.0740 -0.0421
 8727SOL    HW128434   9.775   4.423   5.932 -0.2475  0.2678  0.0097
 8727SOL    HW228435   9.729   4.338   6.048 -1.5034  1.3501  0.3248
 8728SOL     OW28436   2.108   8.439   0.756  0.1288  0.2084 -0.3931
 8728SOL    HW128437   2.152   8.465   0.675  0.9714 -0.3352 -0.1229
 8728SOL    HW228438   2.175   8.392   0.805 -0.6231 -0.2089  0.2493
 8729SOL     OW28439   7.191   8.242   6.080 -0.3223 -0.2538  0.6707
 8729SOL    HW128440   7.241   8.228   6.160 -1.6806  0.6558  1.7465
 8729SOL    HW228441   7.257   8.252   6.012  0.8639 -3.6389  1.1313
 8730SOL     OW28442   9.610   9.405   8.149  0.5639  0.0271 -0.1692
 8730SOL    HW128443   9.561   9.417   8.068  0.5948 -0.7921 -0.3104
 8730SOL    HW228444   9.573   9.326   8.189  0.4274  0.5120  0.7021
 8731SOL     OW28445   6.701   5.035   5.138 -0.1448 -0.2291  0.0695
 8731SOL    HW128446   6.634   4.988   5.088 -0.3674  0.4921 -0.3333
 8731SOL    HW228447   6.661   5.120   5.157  0.2831 -0.1628  0.6970
 8732SOL     OW28448   2.597   0.027   1.800 -0.0400 -0.4048  0.2099
 8732SOL    HW128449   2.519  -0.008   1.757 -2.4846  1.1997  2.9573
 8732SOL    HW228450   2.593  -0.009   1.889  0.2012  2.6029  1.5593
 8733SOL     OW28451   5.386   4.927   2.230  0.2565  0.1692  0.1707
 8733SOL    HW128452   5.384   5.022   2.241  2.2774  0.4366 -1.3547
 8733SOL    HW228453   5.317   4.896   2.288  0.1468  2.4864  1.4200
 8734SOL     OW28454   4.288   8.447   4.921  0.2663 -0.7541  0.1964
 8734SOL    HW128455   4.286   8.527   4.869  3.2022 -1.0766 -0.5596
 8734SOL    HW228456   4.267   8.377   4.859  1.2579 -0.8916  0.0027
 8735SOL     OW28457   8.298   0.218   3.166 -0.1987  0.3321  0.4255
 8735SOL    HW128458   8.273   0.303   3.128  0.8432 -0.0942 -1.3008
 8735SOL    HW228459   8.215   0.175   3.184 -0.7503  1.6614  1.2720
 8736SOL     OW28460   0.426   0.964   4.607  0.2224 -0.0736 -0.3141
 8736SOL    HW128461   0.384   0.881   4.628  1.4199 -0.6177  0.0393
 8736SOL    HW228462   0.440   0.961   4.513 -0.3435  0.0332 -0.4057
 8737SOL     OW28463   6.385   4.452   6.661 -0.5255  0.3778  0.3085
 8737SOL    HW128464   6.335   4.379   6.698 -0.3238  1.3302  2.6075
 8737SOL    HW228465   6.476   4.432   6.682 -0.3581  0.7314 -0.0710
 8738SOL     OW28466  10.169   5.727   2.182 -0.1265 -0.1199 -0.2486
 8738SOL    HW128467  10.263   5.744   2.175  0.1411 -1.3686  0.0588
 8738SOL    HW228468  10.150   5.733   2.276 -0.0369 -1.3369 -0.1345
 8739SOL     OW28469   7.552   9.736   7.674  0.2883  0.3101 -0.0579
 8739SOL    HW128470   7.611   9.715   7.602  0.8802  3.3757 -0.6067
 8739SOL    HW228471   7.465   9.712   7.642  0.7737 -0.3948 -0.8967
 8740SOL     OW28472   9.815   3.645   3.672  0.0739 -1.2330 -0.0661
 8740SOL    HW128473   9.850   3.724   3.632  0.0676 -0.6450  1.0718
 8740SOL    HW228474   9.721   3.662   3.681  0.1304 -1.2269  0.5139
 8741SOL     OW28475   6.922   8.103   3.342 -0.4866  0.0983  0.4477
 8741SOL    HW128476   6.885   8.182   3.383  0.6711  1.4875 -1.0637
 8741SOL    HW228477   7.017   8.114   3.350 -0.3018 -1.6108  0.9845
 8742SOL     OW28478   8.120   8.305   5.803 -0.6534  0.2395 -0.0433
 8742SOL    HW128479   8.067   8.315   5.882  1.3000  0.8906  1.2788
 8742SOL    HW228480   8.143   8.394   5.778 -0.2926 -0.0152 -0.6520
 8743SOL     OW28481  10.297   9.907   4.479 -0.0997  0.4640 -0.2577
 8743SOL    HW128482  10.387   9.909   4.510 -0.1277 -1.2798  0.0489
 8743SOL    HW228483  10.303   9.929   4.386  0.7860 -0.5783 -0.4742
 8744SOL     OW28484  10.352   1.763   8.583 -0.1086  0.4229  0.0343
 8744SOL    HW128485  10.296   1.761   8.661 -0.6821  1.5518 -0.3247
 8744SOL    HW228486  10.395   1.848   8.587  0.0170  0.4010 -0.7736
 8745SOL     OW28487   1.444   2.822   4.506 -0.3440 -0.5001 -0.2082
 8745SOL    HW128488   1.401   2.847   4.425 -0.7359 -0.4782  0.0049
 8745SOL    HW228489   1.455   2.727   4.499  0.6193 -0.3600 -0.7624
 8746SOL     OW28490   8.825   5.939   0.568  0.0771 -0.0104 -0.5573
 8746SOL    HW128491   8.759   5.891   0.519  0.7744 -0.7972 -0.7388
 8746SOL    HW228492   8.825   6.027   0.530 -0.0835 -0.3294 -1.3026
 8747SOL     OW28493   2.312  10.001   6.887 -0.0936  1.0353  0.0792
 8747SOL    HW128494   2.265   9.963   6.961 -1.2177  1.7927 -0.2357
 8747SOL    HW228495   2.384  10.049   6.927 -0.9638  1.8277  0.7295
 8748SOL     OW28496   6.890   1.957   9.524 -0.2571 -0.0207  0.3248
 8748SOL    HW128497   6.882   1.922   9.613 -1.2736  0.8595  0.6110
 8748SOL    HW228498   6.812   1.925   9.478  0.1291 -0.2569 -0.1710
 8749SOL     OW28499   4.501   1.265   6.548 -0.1811  0.0720 -0.2140
 8749SOL    HW128500   4.590   1.298   6.560  0.6200 -2.2148  0.6374
 8749SOL    HW228501   4.502   1.221   6.463 -0.6541  0.4989 -0.4439
 8750SOL     OW28502   3.383   6.032   8.674  0.4333  0.3369  0.1776
 8750SOL    HW128503   3.433   6.016   8.594 -0.1872 -1.7043  0.1327
 8750SOL    HW228504   3.302   6.074   8.643  0.4674  0.1351 -0.1878
 8751SOL     OW28505   0.167   7.156   9.233  0.0219  0.0641 -0.2033
 8751SOL    HW128506   0.174   7.137   9.327  0.0500  0.5966 -0.0962
 8751SOL    HW228507   0.122   7.079   9.197  2.0697 -1.2306 -0.1330
 8752SOL     OW28508   3.648   3.726   1.203 -0.2624 -0.4261  0.1486
 8752SOL    HW128509   3.631   3.653   1.143  0.3727 -0.1243 -0.4097
 8752SOL    HW228510   3.576   3.787   1.188 -1.2285 -1.2763  1.1781
 8753SOL     OW28511   2.513  10.087   6.557 -0.0120  0.0614  0.1476
 8753SOL    HW128512   2.466  10.033   6.494 -0.6701 -0.6235  1.2105
 8753SOL    HW228513   2.550  10.025   6.620  0.1575  0.7668  0.7632
 8754SOL     OW28514   8.217   0.302   7.716  0.1158 -0.3298  0.0962
 8754SOL    HW128515   8.256   0.274   7.633  0.0813  1.5289 -0.5956
 8754SOL    HW228516   8.201   0.221   7.764 -2.3919 -1.7316 -2.7879
 8755SOL     OW28517   8.756   2.193   3.969 -0.8343 -0.1509  0.2219
 8755SOL    HW128518   8.811   2.115   3.984 -1.2080 -0.4772 -0.0903
 8755SOL    HW228519   8.683   2.161   3.917 -1.2498  0.3146  0.5083
 8756SOL     OW28520   9.269   0.705   9.513  0.3424 -0.6217  0.1304
 8756SOL    HW128521   9.237   0.722   9.424  1.8891  1.3076 -0.1090
 8756SOL    HW228522   9.258   0.610   9.524 -3.1538 -0.4580 -0.7563
 8757SOL     OW28523   3.420  10.169   9.455 -0.5862  0.3969  0.6089
 8757SOL    HW128524   3.514  10.173   9.472 -0.4326 -1.2034  0.3027
 8757SOL    HW228525   3.392  10.088   9.497 -0.6777 -2.3867 -4.0609
 8758SOL     OW28526   3.344   1.501   7.643  0.2937  0.0864  0.2302
 8758SOL    HW128527   3.384   1.421   7.610  0.2352 -0.0842  0.5704
 8758SOL    HW228528   3.251   1.493   7.621  0.0875 -0.4446  1.2247
 8759SOL     OW28529   6.089   3.259   3.996  0.1763  0.3666 -0.4355
 8759SOL    HW128530   6.147   3.242   3.921  0.0225 -3.2830  0.0949
 8759SOL    HW228531   6.002   3.270   3.957  0.5671  2.0767 -0.9443
 8760SOL     OW28532   9.025   7.842   3.155  0.0884  0.0428 -0.7585
 8760SOL    HW128533   9.062   7.757   3.179 -2.0011 -0.4467  1.1051
 8760SOL    HW228534   8.937   7.821   3.123  0.1595  1.4089 -1.9474
 8761SOL     OW28535   3.244   8.530   6.160  0.0271  0.1605  0.2639
 8761SOL    HW128536   3.236   8.620   6.127 -2.3412 -0.1093 -0.0602
 8761SOL    HW228537   3.170   8.519   6.219  0.2645 -1.6002  0.2993
 8762SOL     OW28538   9.970   8.174   1.640 -0.1876 -0.1918  0.3325
 8762SOL    HW128539  10.006   8.092   1.608  2.7283  0.6962  1.0271
 8762SOL    HW228540  10.013   8.242   1.588  0.9093  1.0348  2.6483
 8763SOL     OW28541  10.190   0.461   4.281 -0.7488  0.0263 -0.1609
 8763SOL    HW128542  10.095   0.456   4.294 -0.5586 -0.8551  1.1843
 8763SOL    HW228543  10.214   0.548   4.312 -1.0315 -0.0283  0.2172
 8764SOL     OW28544   6.010   0.515   6.657 -0.0182 -0.5142  0.1457
 8764SOL    HW128545   5.964   0.464   6.591  0.8366 -2.1847  0.7670
 8764SOL    HW228546   6.027   0.599   6.616  0.1820 -1.3849 -1.6309
 8765SOL     OW28547   8.622   1.308   4.677 -0.3619 -0.0594 -0.8111
 8765SOL    HW128548   8.682   1.335   4.607 -0.0705 -0.7216 -0.8261
 8765SOL    HW228549   8.646   1.363   4.751  0.0328 -0.0738 -0.9236
 8766SOL     OW28550   3.198   7.858   5.391  0.1538  0.6289 -0.1474
 8766SOL    HW128551   3.256   7.846   5.467  0.9685 -2.9152 -1.1289
 8766SOL    HW228552   3.257   7.863   5.316 -0.7274  0.8385 -0.8423
 8767SOL     OW28553   4.347   7.921   4.233  0.4507  0.0283 -0.1342
 8767SOL    HW128554   4.387   7.870   4.303  1.1453 -2.1296 -1.9892
 8767SOL    HW228555   4.405   7.996   4.221  1.5195 -0.7354  0.1437
 8768SOL     OW28556   7.835   9.116   0.121 -0.5733 -0.0074 -0.0165
 8768SOL    HW128557   7.818   9.165   0.201 -1.0680  0.0891 -0.1814
 8768SOL    HW228558   7.892   9.173   0.069  0.5043 -0.4391  0.6408
 8769SOL     OW28559   2.731   1.815   7.385  0.0088 -0.3662  0.3628
 8769SOL    HW128560   2.815   1.832   7.426 -0.8262 -0.3361  2.1709
 8769SOL    HW228561   2.698   1.737   7.430 -0.6782 -0.7392 -0.7373
 8770SOL     OW28562   6.374   7.411   8.633  0.0629  0.4504  0.3542
 8770SOL    HW128563   6.379   7.371   8.546  0.1596  0.2234  0.4612
 8770SOL    HW228564   6.311   7.357   8.681  0.8253 -0.1112  0.7689
 8771SOL     OW28565   9.425   3.753   2.295  0.0076 -0.5231  0.0851
 8771SOL    HW128566   9.432   3.713   2.208 -3.3762  0.4767 -0.7887
 8771SOL    HW228567   9.361   3.698   2.341 -1.3162  1.2561  0.4476
 8772SOL     OW28568   9.950   3.095   5.173  0.1601  0.2640 -0.1566
 8772SOL    HW128569   9.948   3.129   5.262 -1.2317 -0.5903  0.1659
 8772SOL    HW228570  10.001   3.160   5.124  2.0512  0.1222  1.4786
 8773SOL     OW28571   2.618   8.367   7.995  0.2075 -0.5403  0.2394
 8773SOL    HW128572   2.692   8.416   7.958  1.6983 -2.6534  0.2482
 8773SOL    HW228573   2.541   8.415   7.966  1.5050  0.7569 -1.2802
 8774SOL     OW28574   7.266   1.441   9.579  0.2496 -0.1637  0.0687
 8774SOL    HW128575   7.205   1.437   9.653 -0.3480  0.2943 -0.3912
 8774SOL    HW228576   7.281   1.350   9.556  2.0785 -0.4537  2.0619
 8775SOL     OW28577   6.468   0.922   6.018 -0.7279  0.4154 -0.0186
 8775SOL    HW128578   6.425   1.003   6.047 -0.2625  0.8362 -0.4771
 8775SOL    HW228579   6.560   0.946   6.010 -0.5470 -0.2335  0.0754
 8776SOL     OW28580   0.882   7.185   4.595 -0.2429 -0.0464  0.3374
 8776SOL    HW128581   0.958   7.240   4.617 -0.7904  0.4183  1.1173
 8776SOL    HW228582   0.858   7.212   4.506 -0.0808  0.4839  0.4519
 8777SOL     OW28583   9.437   3.108   6.586 -0.4815  0.2951  0.6037
 8777SOL    HW128584   9.491   3.098   6.508  0.4121 -0.8351  1.3376
 8777SOL    HW228585   9.430   3.203   6.598  0.6354  0.4745 -0.0033
 8778SOL     OW28586   5.559   1.789   3.827  0.0098 -0.3936 -0.0224
 8778SOL    HW128587   5.602   1.704   3.820  0.2548 -0.4962  2.0604
 8778SOL    HW228588   5.479   1.780   3.777  1.5428 -0.7519 -2.5612
 8779SOL     OW28589   8.120   1.239  10.283 -0.0455  0.2543  0.2332
 8779SOL    HW128590   8.083   1.226  10.371 -0.4982  0.2136  0.0349
 8779SOL    HW228591   8.045   1.235  10.224  0.0321  1.9101 -0.0180
 8780SOL     OW28592   0.644   4.668   6.254 -0.2066 -0.0562  0.0227
 8780SOL    HW128593   0.663   4.631   6.341  2.6298  0.0454 -0.4530
 8780SOL    HW228594   0.671   4.599   6.193  0.8196  1.0199 -0.7894
 8781SOL     OW28595   4.487   1.971   8.233 -0.2975 -0.3259 -0.4358
 8781SOL    HW128596   4.519   1.962   8.322  0.7818 -0.2102 -0.7936
 8781SOL    HW228597   4.551   1.924   8.179  0.6461  1.9169 -1.4153
 8782SOL     OW28598   7.715   8.103   0.942  0.6946  0.1943  0.1258
 8782SOL    HW128599   7.775   8.177   0.950  0.5648  0.3315 -0.1610
 8782SOL    HW228600   7.645   8.134   0.885  0.8856 -0.2982 -0.3936
 8783SOL     OW28601   0.124   0.069  10.043  0.2263 -0.1105  0.1379
 8783SOL    HW128602   0.061   0.122   9.994 -1.6702 -1.6126  0.8160
 8783SOL    HW228603   0.153   0.126  10.115 -1.1052  0.3302  0.3590
 8784SOL     OW28604   5.474   6.084   8.075  0.5450 -0.5240  0.5402
 8784SOL    HW128605   5.485   6.090   8.170  2.5775  0.5788  0.2963
 8784SOL    HW228606   5.423   6.162   8.052 -0.7842 -1.2927  0.7982
 8785SOL     OW28607   9.186   0.538   1.181 -0.6222  0.2118 -0.2507
 8785SOL    HW128608   9.277   0.548   1.209 -1.1983  2.0041  1.2215
 8785SOL    HW228609   9.190   0.477   1.108  1.6318 -0.6112  0.4575
 8786SOL     OW28610   7.987   9.469   5.981 -0.0457 -0.0552 -0.2652
 8786SOL    HW128611   8.040   9.547   5.996  1.8829 -0.7425 -2.6418
 8786SOL    HW228612   7.907   9.483   6.031 -0.2126  3.8590 -1.3097
 8787SOL     OW28613   3.928   6.331   7.233  0.6012  0.0197  0.4578
 8787SOL    HW128614   4.006   6.358   7.280  0.7616  0.3353  0.0169
 8787SOL    HW228615   3.855   6.368   7.283  0.8494  2.4553 -0.8302
 8788SOL     OW28616   3.359   5.692   7.754 -0.6909  0.0223  0.2796
 8788SOL    HW128617   3.406   5.608   7.759  0.1364  0.4884  0.5404
 8788SOL    HW228618   3.428   5.758   7.764 -1.1835  0.7620 -1.0469
 8789SOL     OW28619   2.713   4.879   8.377  0.0331  0.1783 -0.0594
 8789SOL    HW128620   2.660   4.887   8.456  0.6126 -1.3246  0.5107
 8789SOL    HW228621   2.712   4.967   8.339 -2.8957  0.2430 -0.1063
 8790SOL     OW28622   4.103   8.408   7.123 -0.0769  0.2578 -0.6089
 8790SOL    HW128623   4.157   8.425   7.200  0.2715  0.5373 -0.9147
 8790SOL    HW228624   4.143   8.331   7.082 -0.1431  0.2305 -0.6233
 8791SOL     OW28625   9.103   5.135   7.881  0.0122  0.0166 -0.4247
 8791SOL    HW128626   9.104   5.059   7.939  0.3479  1.5759  1.7578
 8791SOL    HW228627   9.047   5.198   7.925  0.8310  1.5408 -1.4718
 8792SOL     OW28628  10.474   5.721   9.761  0.0002  0.1253 -0.6147
 8792SOL    HW128629  10.418   5.799   9.761 -0.7437 -0.3839 -1.1744
 8792SOL    HW228630  10.490   5.703   9.854  0.0570  0.8497 -0.4743
 8793SOL     OW28631   6.990   1.822  10.282 -0.1112  0.0871  0.4357
 8793SOL    HW128632   6.915   1.834  10.223 -0.3371  0.0265  0.7063
 8793SOL    HW228633   7.001   1.907  10.325 -0.5066 -0.1122  0.9497
 8794SOL     OW28634   7.753   9.310   8.353  0.3489 -0.3268 -0.2049
 8794SOL    HW128635   7.761   9.227   8.400 -1.8508  0.0800  1.0340
 8794SOL    HW228636   7.694   9.363   8.407  2.6042  2.5497 -0.3143
 8795SOL     OW28637   2.259   2.461   3.771  0.4208  0.5769  0.2373
 8795SOL    HW128638   2.293   2.478   3.858  0.0023 -0.0877  0.5401
 8795SOL    HW228639   2.181   2.407   3.786  0.2027  0.6661 -0.5306
 8796SOL     OW28640  10.191   8.578   7.678 -0.4783  0.2200 -0.1341
 8796SOL    HW128641  10.190   8.650   7.616  1.5056 -0.1795 -0.6948
 8796SOL    HW228642  10.226   8.617   7.759 -0.1630  0.0608 -0.1947
 8797SOL     OW28643   9.901   7.434   5.523 -0.2679  0.2698 -0.1520
 8797SOL    HW128644   9.908   7.372   5.596 -4.1798  1.0348  1.1172
 8797SOL    HW228645   9.921   7.519   5.562 -0.6052  0.4743 -0.4239
 8798SOL     OW28646   5.471   8.799   3.165 -0.3276 -0.2831 -0.0593
 8798SOL    HW128647   5.482   8.850   3.246 -2.5562  1.0876 -0.5282
 8798SOL    HW228648   5.458   8.709   3.195 -0.5429  0.1060  1.0873
 8799SOL     OW28649   8.953   2.756   7.053  0.2345  0.1854  0.5568
 8799SOL    HW128650   8.863   2.780   7.034  0.2723  0.8104  1.1315
 8799SOL    HW228651   8.981   2.705   6.977 -0.6463 -0.1441  0.4474
 8800SOL     OW28652   8.131   2.020   2.682  0.7746  0.0103  0.0089
 8800SOL    HW128653   8.052   1.971   2.703 -0.2909  0.6105 -2.2982
 8800SOL    HW228654   8.201   1.955   2.688  0.0105 -0.7591  1.1340
 8801SOL     OW28655   7.675   8.044   1.229  0.3169 -0.1289 -0.0863
 8801SOL    HW128656   7.628   7.974   1.275  1.1536 -0.5559  0.1445
 8801SOL    HW228657   7.715   8.000   1.154 -0.0767  0.3325 -0.5733
 8802SOL     OW28658   1.765   1.207   0.797 -0.1220  0.1107 -0.1191
 8802SOL    HW128659   1.753   1.112   0.802  1.0619 -0.0009  1.1356
 8802SOL    HW228660   1.676   1.242   0.793 -0.5823 -1.0340 -0.3062
 8803SOL     OW28661   3.811   1.744   8.539 -0.8452 -0.2633  0.0932
 8803SOL    HW128662   3.726   1.765   8.578 -1.3992 -0.6397 -0.8744
 8803SOL    HW228663   3.795   1.746   8.444 -0.3450 -2.6328 -0.0992
 8804SOL     OW28664   5.296   7.184   7.263  0.0782 -0.5272 -0.2016
 8804SOL    HW128665   5.325   7.270   7.294  0.2484 -0.4355 -0.6080
 8804SOL    HW228666   5.367   7.125   7.288 -0.4436 -0.7112  0.8806
 8805SOL     OW28667   4.837   9.939   1.545  0.5350  0.3801  0.4878
 8805SOL    HW128668   4.757   9.972   1.504  1.0010 -0.5037 -1.1975
 8805SOL    HW228669   4.850   9.996   1.621 -0.9369  1.3978  0.0143
 8806SOL     OW28670   8.048   6.705   6.824 -0.8905  0.3833  0.4289
 8806SOL    HW128671   8.036   6.639   6.892  0.2902 -0.8394 -0.5087
 8806SOL    HW228672   8.008   6.667   6.746 -1.4040  1.3806  0.1848
 8807SOL     OW28673   8.794   5.198   6.442 -0.1166  0.2846  0.2283
 8807SOL    HW128674   8.854   5.198   6.517  0.6346  1.0847 -0.3528
 8807SOL    HW228675   8.786   5.105   6.418  1.9055  0.2237 -0.4472
 8808SOL     OW28676   9.036   0.121   4.885 -0.4749  0.1694 -0.7324
 8808SOL    HW128677   8.977   0.186   4.923 -0.9062  0.8807 -2.5178
 8808SOL    HW228678   9.090   0.170   4.824 -0.8469 -1.1341 -2.1748
 8809SOL     OW28679   0.019   8.752   8.214  0.0260  0.3516  0.5116
 8809SOL    HW128680   0.104   8.779   8.179  0.4199 -1.8693 -0.3870
 8809SOL    HW228681  -0.042   8.763   8.140 -0.7403  2.8533  1.4223
 8810SOL     OW28682   2.999   9.250   2.934  0.0483 -0.0864  0.3841
 8810SOL    HW128683   2.956   9.168   2.962  0.6680 -0.7048 -0.4296
 8810SOL    HW228684   2.968   9.315   2.997 -1.2079 -0.7456  0.4904
 8811SOL     OW28685   9.121   2.961   7.156  0.0383 -0.2230  0.2074
 8811SOL    HW128686   9.183   2.920   7.215 -0.7699 -0.5784  0.8323
 8811SOL    HW228687   9.086   2.889   7.104  0.2360 -0.0104 -0.2196
 8812SOL     OW28688   4.690   0.667   5.948  0.2077  0.1956  0.1243
 8812SOL    HW128689   4.672   0.588   6.000 -0.5251  1.0021  1.1284
 8812SOL    HW228690   4.658   0.645   5.861 -1.0220 -0.2451  0.6619
 8813SOL     OW28691   6.282   8.346   4.897  0.5678  0.0756 -0.0321
 8813SOL    HW128692   6.356   8.315   4.845  0.6733  0.5121 -0.1471
 8813SOL    HW228693   6.272   8.282   4.967  1.3072  0.2270  0.2195
 8814SOL     OW28694   4.863   9.414   4.031 -1.0256 -0.3255  0.0728
 8814SOL    HW128695   4.948   9.374   4.048 -0.2378  0.8721 -0.8769
 8814SOL    HW228696   4.883   9.497   3.988 -2.6722  0.0972  0.0278
 8815SOL     OW28697   8.059   1.979   6.729 -0.1196 -0.3332  0.3102
 8815SOL    HW128698   8.110   2.054   6.698 -1.1167 -0.1106 -0.8889
 8815SOL    HW228699   7.969   1.999   6.703 -0.4430 -1.8348  0.1858
 8816SOL     OW28700   5.693   8.994   1.550 -0.4888 -0.1244  0.1769
 8816SOL    HW128701   5.608   9.002   1.506 -0.3744 -0.8662 -0.2038
 8816SOL    HW228702   5.748   9.058   1.506  0.0697 -1.9011 -1.9246
 8817SOL     OW28703   3.707   0.204   1.044  0.2929  0.0676 -0.3234
 8817SOL    HW128704   3.768   0.146   0.998 -0.5962  0.6742 -2.4125
 8817SOL    HW228705   3.664   0.253   0.974  1.3092  3.6275  1.3008
 8818SOL     OW28706   6.238   6.158   9.153  0.1948 -0.2477  0.2551
 8818SOL    HW128707   6.311   6.158   9.215  0.8371  1.5104 -0.4380
 8818SOL    HW228708   6.219   6.065   9.138  2.8446 -0.7963 -0.1783
 8819SOL     OW28709   8.563   6.077   8.640  0.0052  0.1759 -0.0167
 8819SOL    HW128710   8.629   6.047   8.703 -0.8567 -2.1752 -0.1167
 8819SOL    HW228711   8.615   6.113   8.567  1.3158 -2.3935 -0.4796
 8820SOL     OW28712   0.903   0.844   1.112  0.0589 -0.2675 -0.0025
 8820SOL    HW128713   0.846   0.894   1.053 -1.0588  0.8791  1.9353
 8820SOL    HW228714   0.974   0.905   1.133  0.9920 -1.0200 -0.9108
 8821SOL     OW28715   5.358   9.289   0.558 -0.5534  0.3213 -0.0508
 8821SOL    HW128716   5.359   9.315   0.650 -1.2353  0.6935 -0.1388
 8821SOL    HW228717   5.398   9.202   0.557 -0.5410  0.3183  0.5957
 8822SOL     OW28718   6.044   9.875   2.681 -0.1719  0.6774  0.1253
 8822SOL    HW128719   6.039   9.805   2.746  2.4387 -0.9570 -1.2468
 8822SOL    HW228720   5.953   9.895   2.659 -1.0178 -1.4376  1.4247
 8823SOL     OW28721   2.254   6.262   1.662 -0.0745  0.2505  0.0790
 8823SOL    HW128722   2.223   6.295   1.578 -0.3209  0.7631  0.3593
 8823SOL    HW228723   2.349   6.271   1.658  0.0427 -1.1150 -0.7006
 8824SOL     OW28724   0.163   2.053   3.085 -0.0254 -0.2094  0.2089
 8824SOL    HW128725   0.150   2.108   3.162  1.1020 -2.2452  1.9531
 8824SOL    HW228726   0.258   2.049   3.074 -0.1587 -0.2750 -1.0891
 8825SOL     OW28727   7.718  10.521   4.277  0.5728 -0.0157  0.5936
 8825SOL    HW128728   7.761  10.606   4.268 -1.2547  1.1225  1.9214
 8825SOL    HW228729   7.630  10.541   4.310 -0.2413 -2.3715  0.0972
 8826SOL     OW28730   7.007  10.188   6.052  0.4735 -0.3954  0.3824
 8826SOL    HW128731   6.987  10.111   5.998  0.2114 -0.1956  0.1878
 8826SOL    HW228732   6.924  10.235   6.059  0.6902  0.0156  0.2651
 8827SOL     OW28733   4.748   3.353   7.764  0.3120  0.1821 -0.0293
 8827SOL    HW128734   4.776   3.367   7.673 -0.9600 -0.7728 -0.5983
 8827SOL    HW228735   4.653   3.365   7.762  0.1868 -0.4581  1.0463
 8828SOL     OW28736   7.010   4.286   5.321  0.0766 -0.0399  0.3707
 8828SOL    HW128737   6.953   4.267   5.396  1.2174  1.0590  1.5758
 8828SOL    HW228738   6.956   4.342   5.264 -0.9750 -1.3028  0.0920
 8829SOL     OW28739   2.260   1.330   5.498  0.2636 -0.5201 -0.2899
 8829SOL    HW128740   2.322   1.257   5.503  2.1478  1.0222 -0.1338
 8829SOL    HW228741   2.246   1.355   5.589 -2.0239 -1.9409 -0.1826
 8830SOL     OW28742   4.016   5.647   6.876 -0.1693 -0.0088 -0.4356
 8830SOL    HW128743   4.076   5.574   6.889  1.2816  1.2074 -0.0545
 8830SOL    HW228744   3.934   5.606   6.846  1.5553 -1.5763 -3.5367
 8831SOL     OW28745   8.745  10.223   5.697 -0.0464 -0.4851 -0.4368
 8831SOL    HW128746   8.659  10.261   5.711 -0.1395 -1.0400  0.5552
 8831SOL    HW228747   8.785  10.218   5.784  1.0652 -0.0623 -0.9014
 8832SOL     OW28748   3.368   2.384  10.300  0.4133  0.1699 -0.2236
 8832SOL    HW128749   3.387   2.322  10.230 -0.1635 -2.3608  1.7186
 8832SOL    HW228750   3.272   2.389  10.302  0.4108 -0.0612  0.5687
 8833SOL     OW28751   1.946   6.682  10.264  0.8100 -0.2749 -0.1965
 8833SOL    HW128752   1.981   6.763  10.300 -2.1870  1.1106 -0.1254
 8833SOL    HW228753   1.904   6.708  10.182  0.0304 -1.8254 -0.3283
 8834SOL     OW28754   3.167   5.466   6.987  0.2436 -0.2517 -0.4929
 8834SOL    HW128755   3.208   5.381   6.997  0.9725  0.3747  3.1184
 8834SOL    HW228756   3.240   5.528   6.978 -0.2257  0.1933 -1.4546
 8835SOL     OW28757   7.302   3.468   5.634 -0.5579 -0.3875  0.0963
 8835SOL    HW128758   7.356   3.485   5.711 -1.4925  0.3043  0.6354
 8835SOL    HW228759   7.292   3.554   5.592  0.5800 -0.8831 -1.2560
 8836SOL     OW28760   6.084   6.417   3.591 -0.2845 -0.3266  0.4903
 8836SOL    HW128761   6.150   6.471   3.547 -1.5484 -0.6347 -2.0041
 8836SOL    HW228762   6.135   6.350   3.637  1.2165 -0.5316 -1.3089
 8837SOL     OW28763   0.332   8.329   7.441  0.3043  0.5757 -0.4538
 8837SOL    HW128764   0.294   8.277   7.512 -0.7394  1.4603 -0.3371
 8837SOL    HW228765   0.316   8.420   7.467 -0.2133  0.9155 -1.8679
 8838SOL     OW28766   8.000   3.269   4.730  0.6717  0.6695 -0.2953
 8838SOL    HW128767   8.048   3.223   4.661  0.8872 -0.3258  0.4931
 8838SOL    HW228768   7.973   3.199   4.790 -1.6817  1.2045 -0.6480
 8839SOL     OW28769   0.409   1.445   7.852  0.7379  0.6766 -0.1155
 8839SOL    HW128770   0.408   1.431   7.947  1.4892 -0.2331 -0.2313
 8839SOL    HW228771   0.339   1.390   7.818  0.0929  1.4396 -0.0419
 8840SOL     OW28772   5.764   1.753   5.280 -0.2768  0.1809  0.2173
 8840SOL    HW128773   5.670   1.737   5.293  0.0834 -1.4838  0.9487
 8840SOL    HW228774   5.807   1.672   5.309  1.4274  1.0883  0.3434
 8841SOL     OW28775   3.846   4.457   2.045 -0.5402  0.3428 -0.0032
 8841SOL    HW128776   3.880   4.496   2.125  1.0958 -0.3472 -0.3155
 8841SOL    HW228777   3.899   4.494   1.975  0.0589 -1.2415 -0.4511
 8842SOL     OW28778   6.764   9.689   8.551 -0.0994  0.5063 -0.1244
 8842SOL    HW128779   6.671   9.690   8.527  0.2343  1.4238 -1.5067
 8842SOL    HW228780   6.799   9.611   8.509 -0.2698  0.0868  0.5101
 8843SOL     OW28781   9.267   8.269   6.965  0.2642  0.8629  0.3971
 8843SOL    HW128782   9.359   8.293   6.978 -0.0679  2.2779  0.3337
 8843SOL    HW228783   9.236   8.330   6.898 -0.3839 -0.4966 -0.5914
 8844SOL     OW28784   7.976   2.888   5.451  0.6689  0.0358  0.0661
 8844SOL    HW128785   7.902   2.827   5.459  1.6046 -1.0424  0.9908
 8844SOL    HW228786   7.969   2.944   5.528  1.1122 -0.4271  0.4494
 8845SOL     OW28787   8.254   3.695   1.453  0.5045  0.5086 -0.3230
 8845SOL    HW128788   8.160   3.709   1.444  0.7028  3.4558  0.8556
 8845SOL    HW228789   8.282   3.664   1.367 -1.4246  0.1292 -0.8719
 8846SOL     OW28790   7.474   8.824   4.572  0.0605  0.5496 -0.6031
 8846SOL    HW128791   7.445   8.818   4.663  1.6074  0.2994 -0.0955
 8846SOL    HW228792   7.559   8.867   4.577  0.4199  0.0235 -1.8765
 8847SOL     OW28793   4.641   5.806   6.581 -1.0282 -0.2661  0.5202
 8847SOL    HW128794   4.579   5.808   6.508  1.5051  0.0571 -1.8046
 8847SOL    HW228795   4.628   5.889   6.626 -0.4367  1.1156 -1.6814
 8848SOL     OW28796   7.926   2.768   7.146 -0.9031 -0.2086 -0.1720
 8848SOL    HW128797   7.843   2.738   7.184  0.0161 -0.6313  1.5748
 8848SOL    HW228798   7.982   2.691   7.148  0.3866  0.7240  1.1758
 8849SOL     OW28799   8.644  10.193   7.321  0.0646 -0.7049 -0.2099
 8849SOL    HW128800   8.562  10.160   7.283 -0.2846 -0.3261  0.1917
 8849SOL    HW228801   8.618  10.227   7.407  0.3334  0.9317 -0.7405
 8850SOL     OW28802   6.706   5.083   4.715  0.3024 -0.0503 -0.3321
 8850SOL    HW128803   6.768   5.019   4.680  0.5287 -0.6235  1.0610
 8850SOL    HW228804   6.659   5.115   4.638  1.1678 -0.8422 -1.2179
 8851SOL     OW28805   9.000   1.483   2.305  0.2225 -0.2296 -0.2698
 8851SOL    HW128806   9.090   1.464   2.331 -0.0123  0.6114  1.2474
 8851SOL    HW228807   8.956   1.398   2.309 -0.0595 -0.0737  3.3418
 8852SOL     OW28808   9.198   7.247   9.542 -0.7652  0.1219 -0.0006
 8852SOL    HW128809   9.119   7.277   9.496 -0.9863 -0.1543  0.1903
 8852SOL    HW228810   9.192   7.151   9.539  1.5437 -0.0771 -3.4199
 8853SOL     OW28811   8.105   1.293   1.279 -0.1780 -0.3386 -0.0259
 8853SOL    HW128812   8.161   1.347   1.335  0.8077  0.4271 -1.6630
 8853SOL    HW228813   8.026   1.280   1.330  0.4161  0.8584  1.2836
 8854SOL     OW28814   6.165   9.812   1.349 -0.6371  0.7868  0.5772
 8854SOL    HW128815   6.093   9.774   1.300 -0.9766  0.9701  0.9259
 8854SOL    HW228816   6.124   9.879   1.405 -0.2037  0.8885  0.7844
 8855SOL     OW28817   0.060   3.434   4.229 -0.2452 -0.1603 -0.3854
 8855SOL    HW128818   0.110   3.382   4.291 -1.0463 -1.5406 -0.8429
 8855SOL    HW228819  -0.024   3.387   4.220 -1.5782  1.9654  0.2411
 8856SOL     OW28820   3.290   1.634   3.946 -0.0249  0.0828 -0.1810
 8856SOL    HW128821   3.231   1.708   3.963  0.7701  1.3718 -2.6592
 8856SOL    HW228822   3.231   1.562   3.922 -0.6723  0.9372 -1.2323
 8857SOL     OW28823   3.739   0.812   1.244 -0.2198  0.2988 -0.1447
 8857SOL    HW128824   3.702   0.809   1.333  0.0059  0.2102 -0.0521
 8857SOL    HW228825   3.698   0.738   1.199  2.1772 -1.8322  0.8923
 8858SOL     OW28826   5.799   3.719   5.976 -0.2729  0.0792  0.2227
 8858SOL    HW128827   5.886   3.755   5.958 -1.2630  1.3903 -2.3911
 8858SOL    HW228828   5.817   3.639   6.026  2.4612  0.1756 -0.4316
 8859SOL     OW28829   8.433   4.007   5.925 -0.3153 -0.6402  0.1524
 8859SOL    HW128830   8.472   3.982   6.008  0.3480 -0.6017 -0.1398
 8859SOL    HW228831   8.481   4.086   5.899 -0.2922 -0.8357 -0.4199
 8860SOL     OW28832   3.830   3.263   9.730 -0.2550 -0.0161  0.5333
 8860SOL    HW128833   3.912   3.308   9.709  1.0144 -2.4590 -0.1486
 8860SOL    HW228834   3.762   3.316   9.689  0.8432  2.4366  1.6579
 8861SOL     OW28835   1.458   7.783   3.161  0.9514 -1.0759 -0.1387
 8861SOL    HW128836   1.533   7.730   3.188  0.5278 -1.9387 -0.6482
 8861SOL    HW228837   1.382   7.730   3.182  0.5320 -0.8370 -1.0288
 8862SOL     OW28838  10.443   9.049   9.135 -0.1149 -0.5453  0.0998
 8862SOL    HW128839  10.351   9.076   9.137  0.6054  2.1931  2.2837
 8862SOL    HW228840  10.481   9.101   9.064  0.3340  0.7160  1.2368
 8863SOL     OW28841   0.672   3.031   0.602  0.3727 -0.6014 -0.0424
 8863SOL    HW128842   0.638   3.121   0.605 -0.0880 -0.7551 -0.4882
 8863SOL    HW228843   0.623   2.990   0.531  0.8380 -1.1051 -0.0721
 8864SOL     OW28844   4.899   8.269   6.862  0.0248  0.1246 -0.0374
 8864SOL    HW128845   4.918   8.230   6.776  0.0342  0.9430 -0.4147
 8864SOL    HW228846   4.893   8.363   6.845  0.8206  0.3803  1.0038
 8865SOL     OW28847  10.107   8.038   5.055  0.0584 -0.1342 -0.0993
 8865SOL    HW128848  10.035   8.101   5.047 -0.4884 -0.7017  0.1613
 8865SOL    HW228849  10.117   8.002   4.967  0.7701  0.7298 -0.3790
 8866SOL     OW28850   0.540   5.210   0.018  1.1872  0.0269  0.0546
 8866SOL    HW128851   0.629   5.179   0.038  0.6351 -1.2892  0.5723
 8866SOL    HW228852   0.483   5.143   0.054 -0.0342  0.8775 -0.2503
 8867SOL     OW28853   5.033   1.727   5.952 -0.3065  0.3841 -0.1154
 8867SOL    HW128854   5.002   1.802   6.003 -0.9778 -1.2144  1.9874
 8867SOL    HW228855   4.974   1.656   5.976  1.6399 -1.3839 -0.2883
 8868SOL     OW28856   3.812   1.184   3.833  0.7297 -0.2914 -0.0638
 8868SOL    HW128857   3.880   1.194   3.766  1.0714  0.5905  0.3844
 8868SOL    HW228858   3.794   1.274   3.860  0.4234 -0.6244  0.8505
 8869SOL     OW28859   1.295   7.062   5.831 -0.1035 -0.2227  0.1694
 8869SOL    HW128860   1.387   7.071   5.806 -0.0077  0.3513  0.7022
 8869SOL    HW228861   1.253   7.023   5.754  0.7805 -1.5246  0.3222
 8870SOL     OW28862   6.960   3.150   3.391  0.0625 -0.3899  0.3146
 8870SOL    HW128863   6.897   3.086   3.426  0.5988 -0.3805  1.3400
 8870SOL    HW228864   6.987   3.114   3.307 -0.2741 -1.0848  0.4954
 8871SOL     OW28865   9.597   7.072   9.752 -0.0076  0.1586  0.0722
 8871SOL    HW128866   9.662   7.004   9.732  0.9976  1.4149 -1.1458
 8871SOL    HW228867   9.649   7.147   9.781 -1.0675  0.5894  0.9301
 8872SOL     OW28868   0.249   5.393   1.796 -0.1837 -0.1684 -0.0126
 8872SOL    HW128869   0.264   5.431   1.709 -1.1772 -0.3219 -0.2630
 8872SOL    HW228870   0.336   5.389   1.835  0.5866 -1.8442 -1.7183
 8873SOL     OW28871   8.370   7.122   4.018 -0.4576  0.5980 -0.2281
 8873SOL    HW128872   8.306   7.113   4.089 -0.3557 -0.6398 -0.2826
 8873SOL    HW228873   8.452   7.090   4.055 -0.4193 -0.1210 -0.9269
 8874SOL     OW28874   9.923   3.376   8.606  0.1421  0.0777 -0.1077
 8874SOL    HW128875   9.883   3.297   8.569  3.0827 -0.9699 -1.3237
 8874SOL    HW228876   9.994   3.344   8.660  0.1989  1.8825  0.9474
 8875SOL     OW28877   0.719   6.098   1.402  0.6022  0.4168 -0.4772
 8875SOL    HW128878   0.715   6.100   1.498 -0.2775  0.3039 -0.5096
 8875SOL    HW228879   0.767   6.178   1.379 -0.1193  1.0024  0.0119
 8876SOL     OW28880   0.399   0.097   6.842 -0.8090 -0.2692 -0.1641
 8876SOL    HW128881   0.309   0.126   6.828 -1.2095 -1.0251  0.7368
 8876SOL    HW228882   0.396   0.002   6.828  0.1634 -0.1084 -1.5865
 8877SOL     OW28883   0.050   5.446  10.282  0.0782  0.1858 -0.7444
 8877SOL    HW128884  -0.014   5.516  10.296  0.9674  0.9024 -0.1255
 8877SOL    HW228885   0.107   5.450  10.358  0.3986 -0.9536 -0.9112
 8878SOL     OW28886   6.729   9.421   0.905 -0.2000  0.0498 -0.7332
 8878SOL    HW128887   6.664   9.477   0.861 -1.4104 -1.7879 -1.4056
 8878SOL    HW228888   6.677   9.368   0.965  1.1813  1.0759  1.5106
 8879SOL     OW28889   8.116   6.083   8.210 -0.0783  0.5653 -0.0665
 8879SOL    HW128890   8.087   6.174   8.219 -0.5347  0.5710 -1.3848
 8879SOL    HW228891   8.186   6.074   8.274 -2.0206  0.9677  2.2610
 8880SOL     OW28892   2.527   7.189   5.285  0.8810  0.4591  0.5243
 8880SOL    HW128893   2.478   7.230   5.214  1.7314  0.9842  0.2253
 8880SOL    HW228894   2.519   7.095   5.268 -0.7734  0.4850  1.0036
 8881SOL     OW28895   0.339   4.102   6.810  0.1691 -0.0926 -0.2468
 8881SOL    HW128896   0.412   4.107   6.872  0.3004  0.1601 -0.4233
 8881SOL    HW228897   0.272   4.052   6.857 -0.6014  1.9644  0.9881
 8882SOL     OW28898   9.325   6.914   9.059 -0.3852  0.2484  0.3771
 8882SOL    HW128899   9.313   7.003   9.026  0.6425  0.8501  1.5275
 8882SOL    HW228900   9.349   6.925   9.151  0.0889 -1.1980  0.4637
 8883SOL     OW28901   2.304   6.156   7.443  0.6718 -0.0338 -0.2132
 8883SOL    HW128902   2.258   6.238   7.424 -2.3861 -1.9637 -1.7443
 8883SOL    HW228903   2.349   6.135   7.361 -0.8126 -1.1977 -0.7660
 8884SOL     OW28904   4.606   1.552   3.359 -0.4310 -0.3425 -0.2732
 8884SOL    HW128905   4.625   1.492   3.431  0.5182 -0.8748 -0.9355
 8884SOL    HW228906   4.511   1.559   3.357 -0.4532  1.0751  2.1329
 8885SOL     OW28907   6.683   9.629   4.372 -0.4553 -0.0989 -0.0230
 8885SOL    HW128908   6.718   9.704   4.421 -0.5649  0.1306 -0.2969
 8885SOL    HW228909   6.756   9.601   4.316 -0.8545  0.6816 -0.9502
 8886SOL     OW28910   8.525   7.896   0.103 -0.2633 -0.2146  0.0217
 8886SOL    HW128911   8.611   7.935   0.119 -0.0709 -0.1466 -1.1252
 8886SOL    HW228912   8.465   7.945   0.159  0.5098 -0.6053  1.2362
 8887SOL     OW28913   5.363   2.311   1.780  0.1383 -0.4965  0.3775
 8887SOL    HW128914   5.415   2.391   1.777  0.4472 -0.7092 -0.6275
 8887SOL    HW228915   5.290   2.328   1.720  1.0023 -1.4691 -1.0060
 8888SOL     OW28916   4.157   3.573   3.972  0.2809 -0.5220  0.4876
 8888SOL    HW128917   4.214   3.630   3.920  1.6815 -0.8711  1.5516
 8888SOL    HW228918   4.176   3.485   3.940 -1.3887 -0.4744 -0.7035
 8889SOL     OW28919   4.207   5.663   2.159 -0.2553  0.0773  0.5107
 8889SOL    HW128920   4.225   5.570   2.147 -0.5163 -0.4125  3.2440
 8889SOL    HW228921   4.257   5.707   2.090 -0.0441 -2.0604 -0.7613
 8890SOL     OW28922   4.724   2.669   6.613 -0.1240 -1.0646 -0.7724
 8890SOL    HW128923   4.720   2.635   6.524 -2.2650 -0.6957 -0.8653
 8890SOL    HW228924   4.770   2.601   6.662  0.5102 -1.5667 -2.0147
 8891SOL     OW28925   9.953   0.393   7.843  0.5957 -0.1187  0.3678
 8891SOL    HW128926   9.884   0.360   7.901 -2.2370  2.4683 -1.2417
 8891SOL    HW228927   9.906   0.428   7.768  3.7391  1.5645 -0.9739
 8892SOL     OW28928   1.313   1.151   8.123 -0.6160 -0.3246 -0.6764
 8892SOL    HW128929   1.230   1.135   8.169 -2.0210  1.9820 -2.2213
 8892SOL    HW228930   1.287   1.174   8.034  1.6668  0.8200 -1.1216
 8893SOL     OW28931   6.851   5.622   8.301  0.1654 -0.4425  0.5535
 8893SOL    HW128932   6.839   5.527   8.302  0.4415 -0.4742  0.8009
 8893SOL    HW228933   6.877   5.644   8.390  0.0105 -0.1202  0.5210
 8894SOL     OW28934   8.517   8.043   2.178  0.3791  0.5841  0.6478
 8894SOL    HW128935   8.588   8.099   2.210  2.0296 -0.4493 -1.0374
 8894SOL    HW228936   8.484   7.999   2.257  0.6125  2.1410  1.6522
 8895SOL     OW28937   5.222   0.765   6.546  0.1169  0.1095 -0.4717
 8895SOL    HW128938   5.143   0.816   6.529  1.1655  2.3671  0.9121
 8895SOL    HW228939   5.202   0.716   6.625 -0.6974 -1.2450 -1.4818
 8896SOL     OW28940   9.505   5.082  10.239 -0.8937  0.0896 -0.2019
 8896SOL    HW128941   9.504   5.163  10.189 -0.7811 -0.3972 -1.0011
 8896SOL    HW228942   9.457   5.019  10.185 -2.5073  0.0595  1.1649
 8897SOL     OW28943   0.429   1.787   2.244  0.3657 -0.0451 -0.0886
 8897SOL    HW128944   0.430   1.695   2.217  0.3562 -0.2574  0.6197
 8897SOL    HW228945   0.495   1.792   2.314  1.0410  0.6844 -0.7601
 8898SOL     OW28946   6.405   0.391   7.239 -0.2409  0.6104 -0.1909
 8898SOL    HW128947   6.497   0.384   7.217 -0.6169  0.4118 -1.8226
 8898SOL    HW228948   6.399   0.357   7.329  0.6731 -3.4961 -1.4793
 8899SOL     OW28949   2.642   0.721   4.819  0.0618 -0.3513  0.4682
 8899SOL    HW128950   2.721   0.752   4.775  0.3008 -0.7371  0.6254
 8899SOL    HW228951   2.651   0.754   4.909 -0.9117  1.3136 -0.0141
 8900SOL     OW28952   2.269   9.896   3.081  0.2951  0.0759 -0.2048
 8900SOL    HW128953   2.207   9.917   3.011 -0.8261  0.6459  0.9043
 8900SOL    HW228954   2.325   9.973   3.087 -0.2244  0.4386  0.1374
 8901SOL     OW28955   7.148   5.292   7.901  0.1969  0.4733  0.1628
 8901SOL    HW128956   7.191   5.207   7.914 -0.2655 -0.0183 -1.3129
 8901SOL    HW228957   7.163   5.339   7.983  0.1998 -1.1419  1.1465
 8902SOL     OW28958   4.717   8.983   9.162  0.1619  0.0775  0.0432
 8902SOL    HW128959   4.791   8.977   9.222 -0.4758  1.2970  0.9904
 8902SOL    HW228960   4.663   9.055   9.196 -0.6386  0.2838 -1.5258
 8903SOL     OW28961   0.766   1.528   7.196 -0.5201  0.5302  0.0310
 8903SOL    HW128962   0.728   1.493   7.277 -0.5499  1.4572  0.4335
 8903SOL    HW228963   0.691   1.537   7.137 -0.4207 -0.6442 -0.3006
 8904SOL     OW28964   4.434   2.652   1.436  0.0608 -0.1899  0.0013
 8904SOL    HW128965   4.525   2.651   1.408 -0.5159 -1.3235 -2.0495
 8904SOL    HW228966   4.405   2.743   1.421 -0.2760 -0.7516 -3.6254
 8905SOL     OW28967   1.278   9.210   8.381 -0.2402 -0.0916 -0.0583
 8905SOL    HW128968   1.272   9.266   8.303  0.0605  0.5684  0.3817
 8905SOL    HW228969   1.340   9.255   8.438 -0.9242 -0.2370  0.8264
 8906SOL     OW28970   9.384   1.493   4.077  0.0401 -0.0640 -0.2718
 8906SOL    HW128971   9.315   1.506   4.012 -1.1227  2.3330  1.3029
 8906SOL    HW228972   9.463   1.476   4.025 -1.3848 -1.3529 -2.1641
 8907SOL     OW28973  10.572   8.482  10.073 -0.5456  0.2083  0.4077
 8907SOL    HW128974  10.601   8.532  10.149  3.6417  1.8172 -1.8578
 8907SOL    HW228975  10.607   8.532   9.998 -2.1210 -2.5987 -2.4178
 8908SOL     OW28976   8.097   6.743   7.677 -0.2428  0.2192  0.4946
 8908SOL    HW128977   8.087   6.682   7.604 -0.9732  0.8260  0.0802
 8908SOL    HW228978   8.009   6.756   7.710 -0.0388  0.7509  0.8372
 8909SOL     OW28979   4.748   6.516   8.042 -0.5218 -0.1445 -0.0372
 8909SOL    HW128980   4.764   6.601   8.000 -0.1954  0.4435  1.2265
 8909SOL    HW228981   4.663   6.526   8.085  0.1641  0.0660  1.3247
 8910SOL     OW28982   3.138   5.074   3.054  1.0151 -0.0582 -0.6284
 8910SOL    HW128983   3.176   5.108   3.135 -0.6150 -0.2176  0.2398
 8910SOL    HW228984   3.158   5.140   2.988  1.4310  0.5871  0.1351
 8911SOL     OW28985   0.498   1.950   9.045  0.0193  0.1910  0.1198
 8911SOL    HW128986   0.406   1.934   9.067 -0.0404 -1.0215 -0.8927
 8911SOL    HW228987   0.547   1.895   9.106  0.2543  2.6062  2.2850
 8912SOL     OW28988   1.835   5.083  10.601 -0.4605 -0.0760 -0.9104
 8912SOL    HW128989   1.865   5.018  10.538  0.1295 -0.0027 -0.7052
 8912SOL    HW228990   1.872   5.055  10.685 -0.4173  0.3792 -0.7732
 8913SOL     OW28991   0.301   2.797   6.565 -0.5215  0.6901  0.0955
 8913SOL    HW128992   0.354   2.833   6.493  2.7739 -2.2087  0.7632
 8913SOL    HW228993   0.274   2.710   6.534 -0.6457  0.1496  1.6246
 8914SOL     OW28994   6.806   6.358   1.839 -0.1420 -0.5652  0.0497
 8914SOL    HW128995   6.816   6.317   1.753  0.4815  0.3332 -0.3175
 8914SOL    HW228996   6.810   6.452   1.822 -1.8959 -0.3075  0.8351
 8915SOL     OW28997   0.394   7.478   3.254 -0.4373  0.2827 -0.4671
 8915SOL    HW128998   0.470   7.438   3.296 -0.0756  0.9543 -0.4643
 8915SOL    HW228999   0.329   7.486   3.325 -0.5330 -0.3405 -0.4823
 8916SOL     OW29000   6.838   9.602   0.205 -0.3400 -0.1640 -0.0828
 8916SOL    HW129001   6.884   9.583   0.123 -0.4248 -0.7422  0.0023
 8916SOL    HW229002   6.888   9.555   0.272  0.7132  1.6117  0.4654
 8917SOL     OW29003   8.672   8.901   4.005 -0.2857 -0.5808  0.1069
 8917SOL    HW129004   8.721   8.826   3.970 -0.9349 -1.0099  0.1103
 8917SOL    HW229005   8.604   8.862   4.059 -0.6588  0.0156  0.0749
 8918SOL     OW29006   2.452   2.091   2.642  0.0864  0.0042  0.1307
 8918SOL    HW129007   2.447   2.017   2.581 -0.0808 -0.5764  0.8380
 8918SOL    HW229008   2.463   2.050   2.728 -1.1340  0.7540  0.6667
 8919SOL     OW29009   7.553   6.390   0.680  0.1562 -0.0545  0.2182
 8919SOL    HW129010   7.583   6.471   0.638 -1.1003  1.0299  1.3385
 8919SOL    HW229011   7.633   6.346   0.707  0.8553  1.0074 -0.0625
 8920SOL     OW29012   6.011   7.819   7.258 -0.4459 -0.6669  0.1749
 8920SOL    HW129013   5.925   7.784   7.279  0.3807 -2.8496  0.2460
 8920SOL    HW229014   5.995   7.888   7.194 -2.1066 -2.8449 -1.9327
 8921SOL     OW29015   3.458   4.020   8.971 -0.6208  0.0288 -0.0248
 8921SOL    HW129016   3.409   3.938   8.978 -0.6452 -0.2076 -2.1064
 8921SOL    HW229017   3.390   4.087   8.962 -0.6040  0.3337  1.8225
 8922SOL     OW29018   3.538   8.066   6.064  0.3915  0.1423 -0.3994
 8922SOL    HW129019   3.623   8.022   6.068 -0.2553 -1.0663  1.5856
 8922SOL    HW229020   3.480   8.003   6.020  0.2104  0.4141 -0.5542
 8923SOL     OW29021   8.457   5.223   2.173 -0.0508 -0.7894  0.4704
 8923SOL    HW129022   8.407   5.190   2.248 -1.1289 -0.6797 -0.1770
 8923SOL    HW229023   8.406   5.196   2.097  0.7075 -0.3617 -0.2042
 8924SOL     OW29024   4.406   9.347   4.629 -0.7502  0.8217  0.6004
 8924SOL    HW129025   4.499   9.326   4.642 -1.1568 -0.6198  1.4968
 8924SOL    HW229026   4.362   9.305   4.703 -2.2952  0.0499 -0.6975
 8925SOL     OW29027   4.493   0.616  10.195  0.3037 -0.0092  0.3781
 8925SOL    HW129028   4.434   0.644  10.265  0.5748  0.8548  0.2691
 8925SOL    HW229029   4.552   0.554  10.238  0.4493  0.4880  0.9180
 8926SOL     OW29030   0.720   5.756   9.141 -0.4060 -0.5785 -0.5015
 8926SOL    HW129031   0.791   5.776   9.080 -0.2494 -2.6045 -1.0259
 8926SOL    HW229032   0.671   5.838   9.147  0.9684  0.3631 -1.4511
 8927SOL     OW29033   7.760   7.024   0.274 -0.1116 -0.6178 -0.5187
 8927SOL    HW129034   7.774   6.949   0.331 -0.1645 -0.6324 -0.5249
 8927SOL    HW229035   7.829   7.086   0.299 -1.9015  0.6542  1.6874
 8928SOL     OW29036   9.449   9.729   7.635  0.3439  0.0905 -0.0582
 8928SOL    HW129037   9.389   9.669   7.681  0.4354 -0.2833 -0.4279
 8928SOL    HW229038   9.462   9.801   7.697 -0.9996  0.5012 -0.2138
 8929SOL     OW29039   9.901   1.678   5.581  0.3975 -0.7459  0.4735
 8929SOL    HW129040   9.991   1.664   5.610  1.7850  2.0751 -1.8860
 8929SOL    HW229041   9.859   1.723   5.655  2.0855  1.1349  0.3876
 8930SOL     OW29042  10.322   7.812   4.545  0.2873  0.0198  0.3191
 8930SOL    HW129043  10.362   7.748   4.486  0.0656 -0.6321  0.8669
 8930SOL    HW229044  10.378   7.889   4.538  2.2074 -1.1733  1.7632
 8931SOL     OW29045   0.698   5.943   8.007 -0.6267 -0.1360  0.4876
 8931SOL    HW129046   0.724   5.865   8.055  0.6140  0.7680  1.3228
 8931SOL    HW229047   0.642   5.991   8.068 -0.7991 -0.0169  0.2378
 8932SOL     OW29048   7.186   8.978   2.591  0.2722  0.1778 -0.2264
 8932SOL    HW129049   7.128   9.040   2.636 -1.0982 -0.1930 -1.4123
 8932SOL    HW229050   7.132   8.941   2.521  1.6877 -0.8571 -0.8167
 8933SOL     OW29051   2.222   3.901   1.670 -0.7799 -0.0777  0.5251
 8933SOL    HW129052   2.247   3.812   1.697  2.4385 -0.0815 -1.8565
 8933SOL    HW229053   2.285   3.958   1.716 -2.0186  0.9001  1.0558
 8934SOL     OW29054   3.768   6.954   4.450  0.1601 -0.6705 -0.2291
 8934SOL    HW129055   3.697   6.902   4.487  0.8171 -1.2898  0.1909
 8934SOL    HW229056   3.840   6.892   4.439  0.9201  0.1132  0.1656
 8935SOL     OW29057  10.239   1.462   5.448 -0.4068 -0.1364 -0.8583
 8935SOL    HW129058  10.302   1.390   5.459  1.0709  0.8048 -2.5760
 8935SOL    HW229059  10.268   1.507   5.368 -1.7109  1.9434 -0.2323
 8936SOL     OW29060   8.125   3.472   4.079 -0.4313 -0.0150 -0.6184
 8936SOL    HW129061   8.133   3.565   4.102 -0.3396 -0.4036  1.0569
 8936SOL    HW229062   8.069   3.435   4.147  1.0826 -1.5651 -0.1386
 8937SOL     OW29063   3.384   8.530   7.171 -0.1865  1.1741 -0.0607
 8937SOL    HW129064   3.427   8.445   7.174  0.5929  1.5564  0.0235
 8937SOL    HW229065   3.365   8.544   7.078 -1.8948  0.1699  0.0903
 8938SOL     OW29066   8.804   6.439   3.077  0.1191  0.1004 -0.2907
 8938SOL    HW129067   8.840   6.350   3.088  2.1501  0.6514 -1.7129
 8938SOL    HW229068   8.734   6.445   3.142 -0.4847 -2.7345 -0.5307
 8939SOL     OW29069   3.179   1.074   7.701  0.2183  0.0438  0.3505
 8939SOL    HW129070   3.274   1.069   7.703  0.2931  0.5731 -0.9819
 8939SOL    HW229071   3.153   1.001   7.644 -0.2496 -0.6302  1.3821
 8940SOL     OW29072   0.250   3.859   6.305  0.0524 -0.0027  0.3405
 8940SOL    HW129073   0.188   3.804   6.257  0.7879 -0.1526 -0.4534
 8940SOL    HW229074   0.336   3.832   6.273  0.4666  1.1250  0.4689
 8941SOL     OW29075   9.968   4.169   0.427 -0.7005 -0.2720 -0.0238
 8941SOL    HW129076   9.943   4.167   0.519  0.7120  2.3187  0.5016
 8941SOL    HW229077  10.061   4.190   0.427 -0.7329  0.1130 -2.0493
 8942SOL     OW29078   1.737   8.518   9.944  0.0768 -0.0779  0.5824
 8942SOL    HW129079   1.675   8.449   9.921  0.5295 -0.9133  1.7234
 8942SOL    HW229080   1.750   8.568   9.863 -0.4443 -1.1976 -0.2140
 8943SOL     OW29081   6.838   6.937   7.311  0.2953 -0.5161 -0.2843
 8943SOL    HW129082   6.749   6.969   7.330  0.3857 -1.2880  1.6330
 8943SOL    HW229083   6.887   7.017   7.290 -0.3949  0.1723  0.6040
 8944SOL     OW29084   0.774   8.896   3.015 -0.7219  0.0768  0.0556
 8944SOL    HW129085   0.759   8.895   3.109 -0.2620 -2.0943  0.1554
 8944SOL    HW229086   0.767   8.805   2.988 -0.2334  0.5667 -1.9185
 8945SOL     OW29087   8.153   3.854   8.472  0.6725 -0.9471  0.8196
 8945SOL    HW129088   8.225   3.804   8.511  1.8108 -0.1306 -0.1536
 8945SOL    HW229089   8.189   3.887   8.390 -1.2152 -1.4659 -0.2501
 8946SOL     OW29090   1.618   6.634   4.901 -0.1722 -0.0465 -0.6032
 8946SOL    HW129091   1.668   6.557   4.929  1.0818  1.4053  1.4167
 8946SOL    HW229092   1.684   6.698   4.877 -0.9305  1.8755  2.0014
 8947SOL     OW29093   9.944   0.331   5.623  0.5357  0.6634  0.1409
 8947SOL    HW129094   9.925   0.296   5.710  1.1787  0.5059  0.2252
 8947SOL    HW229095   9.957   0.425   5.637 -2.8493  1.3500 -0.3312
 8948SOL     OW29096   2.940   6.114   1.868  0.0944 -1.1789  0.3017
 8948SOL    HW129097   2.884   6.050   1.911 -1.6878 -0.0671 -0.2604
 8948SOL    HW229098   2.889   6.144   1.793  0.5745  1.3673  0.9122
 8949SOL     OW29099   7.134   5.988   7.220 -0.1740 -0.1634 -0.6958
 8949SOL    HW129100   7.130   5.903   7.265 -0.1142  1.1464  1.9985
 8949SOL    HW229101   7.065   6.040   7.262  1.2156  1.7982 -0.7406
 8950SOL     OW29102   6.609   1.094   1.294 -0.2959  0.3428 -0.0601
 8950SOL    HW129103   6.550   1.028   1.329 -0.5390  0.6198  0.0524
 8950SOL    HW229104   6.595   1.171   1.349 -1.5163  1.1673 -1.4688
 8951SOL     OW29105  10.088   5.808   8.520 -0.4572 -0.2068  0.4280
 8951SOL    HW129106  10.182   5.797   8.508 -0.6065  0.9549 -2.4500
 8951SOL    HW229107  10.073   5.902   8.510 -2.1528 -0.6222 -1.7437
 8952SOL     OW29108   0.763   7.835   0.191  0.1155  0.0752  0.2231
 8952SOL    HW129109   0.844   7.885   0.202 -0.2369  1.1849 -1.7152
 8952SOL    HW229110   0.763   7.809   0.099  0.4407 -3.9443  1.1584
 8953SOL     OW29111   6.507  10.187   1.000 -0.2187 -0.3093 -0.0026
 8953SOL    HW129112   6.588  10.187   1.051 -0.3877 -0.5637  0.2718
 8953SOL    HW229113   6.475  10.097   1.007  0.4194 -0.7144 -1.6311
 8954SOL     OW29114   4.129   4.238   7.149 -0.1614  0.4930 -0.0426
 8954SOL    HW129115   4.064   4.299   7.185  0.1991  0.4588  0.6811
 8954SOL    HW229116   4.206   4.292   7.133  0.3308  0.1638  1.0693
 8955SOL     OW29117   5.091   0.063  10.060  0.1571 -0.5297  0.1700
 8955SOL    HW129118   5.114   0.055   9.967  0.5292 -0.9845  0.2915
 8955SOL    HW229119   5.024  -0.003  10.073 -1.1752  0.7194 -0.1535
 8956SOL     OW29120   9.594  10.202  10.551  0.0254 -0.1864 -0.3523
 8956SOL    HW129121   9.679  10.242  10.569  0.3657 -1.4302  1.0223
 8956SOL    HW229122   9.534  10.244  10.612  0.4509 -1.9081  1.3326
 8957SOL     OW29123   2.066   7.723   6.542  0.4700 -0.2543 -0.3184
 8957SOL    HW129124   2.113   7.645   6.570  1.0710 -0.1075 -0.8892
 8957SOL    HW229125   2.096   7.738   6.452  1.8200  1.7206  0.4084
 8958SOL     OW29126   4.160   0.905   4.383 -0.2588 -0.3183 -0.3455
 8958SOL    HW129127   4.065   0.903   4.371 -0.2233 -1.1053 -0.5636
 8958SOL    HW229128   4.194   0.872   4.300  0.1939 -0.4492 -0.1068
 8959SOL     OW29129   5.508  10.645   5.106 -0.0919 -0.4182  0.0718
 8959SOL    HW129130   5.516  10.702   5.029 -0.7858  0.0813  0.3565
 8959SOL    HW229131   5.472  10.702   5.174 -0.5718 -1.1425  0.4356
 8960SOL     OW29132   3.766   2.023   1.261  0.2705  0.3231  0.7282
 8960SOL    HW129133   3.783   1.953   1.323  1.6166  0.0941  0.1304
 8960SOL    HW229134   3.852   2.052   1.232 -0.1903  2.7372  1.4985
 8961SOL     OW29135   0.828   4.207   7.018  0.3857 -0.4233  0.2138
 8961SOL    HW129136   0.755   4.241   7.071  0.7548  0.5280  0.1415
 8961SOL    HW229137   0.869   4.141   7.073 -0.1740 -0.5516  0.4899
 8962SOL     OW29138   6.619   9.254   3.685 -0.6543  0.6261 -0.5415
 8962SOL    HW129139   6.583   9.176   3.728  2.3208  0.1340  1.3162
 8962SOL    HW229140   6.669   9.221   3.611  0.9306  0.6529  0.4703
 8963SOL     OW29141   4.339   7.246   0.178 -0.0567  0.4216 -0.4572
 8963SOL    HW129142   4.361   7.313   0.112 -0.8662  1.9820  0.8005
 8963SOL    HW229143   4.329   7.295   0.259  1.1042 -1.4852  0.9118
 8964SOL     OW29144   8.116   9.638   2.775 -0.0642 -0.8057 -0.5140
 8964SOL    HW129145   8.026   9.606   2.785 -1.1455  1.6699 -1.2660
 8964SOL    HW229146   8.126   9.702   2.845 -0.3000  1.5859 -2.5046
 8965SOL     OW29147   9.166   6.193   0.325 -0.1287 -0.7439  0.0933
 8965SOL    HW129148   9.134   6.151   0.405  0.4350  0.5521  1.0441
 8965SOL    HW229149   9.158   6.126   0.257 -1.0130 -1.7417  1.1489
 8966SOL     OW29150   2.480  10.569   6.396  0.3363 -0.0416 -0.0919
 8966SOL    HW129151   2.466  10.486   6.351 -1.2258  0.9624 -1.5723
 8966SOL    HW229152   2.461  10.549   6.488  0.0898 -1.3342 -0.3999
 8967SOL     OW29153   3.074   2.660   1.649  0.1293  0.5081 -0.0895
 8967SOL    HW129154   3.014   2.735   1.648 -1.8218 -0.8950  1.7961
 8967SOL    HW229155   3.045   2.606   1.575  1.1106  1.2521 -1.0461
 8968SOL     OW29156   6.729   4.679   8.025  0.0678 -0.3031  0.7098
 8968SOL    HW129157   6.676   4.608   8.062  0.5168 -1.5480 -0.9361
 8968SOL    HW229158   6.819   4.658   8.049  0.3598 -1.0923 -0.9311
 8969SOL     OW29159   6.264   3.488   5.595 -0.0696  0.4822  0.3779
 8969SOL    HW129160   6.214   3.442   5.662 -0.8342  1.0443  0.2034
 8969SOL    HW229161   6.198   3.529   5.539  0.5595  0.3892 -0.4664
 8970SOL     OW29162   2.373   6.573   6.699 -0.0479 -0.4245 -0.7204
 8970SOL    HW129163   2.448   6.568   6.639  1.5712  0.5708  1.1263
 8970SOL    HW229164   2.317   6.641   6.661  0.9080  0.1487 -1.1497
 8971SOL     OW29165   6.366   5.712   5.074 -0.3191 -0.0234  0.6061
 8971SOL    HW129166   6.384   5.787   5.131  0.8913  0.8279 -0.8356
 8971SOL    HW229167   6.447   5.698   5.026 -0.9577 -1.4224 -0.1204
 8972SOL     OW29168   5.310   9.023   2.863  0.1266 -0.1328  0.0542
 8972SOL    HW129169   5.278   8.934   2.847 -0.2763  0.1862 -1.0325
 8972SOL    HW229170   5.233   9.079   2.849  0.1853  0.3483  1.4821
 8973SOL     OW29171   7.030   3.741   8.444 -0.1926  0.2204 -0.5824
 8973SOL    HW129172   7.089   3.718   8.515  0.9044  0.1977 -1.4787
 8973SOL    HW229173   6.969   3.804   8.483 -1.5142 -2.0021  1.1678
 8974SOL     OW29174   1.727   8.565   0.694 -0.5153  0.0895 -0.4690
 8974SOL    HW129175   1.774   8.572   0.611  1.0971 -3.5259 -0.0288
 8974SOL    HW229176   1.653   8.508   0.676 -0.4887 -0.2488  0.4125
 8975SOL     OW29177   9.726   9.348   9.016 -0.3995 -0.6191 -0.0714
 8975SOL    HW129178   9.803   9.299   9.045 -0.4912 -1.0500 -0.5575
 8975SOL    HW229179   9.762   9.428   8.978 -0.2019 -0.7681 -0.1977
 8976SOL     OW29180   2.885   9.257   6.094 -0.0512  0.6300  0.1514
 8976SOL    HW129181   2.832   9.215   6.026 -0.4370 -0.5514  1.1480
 8976SOL    HW229182   2.930   9.328   6.048  0.5340 -0.7874 -1.6118
 8977SOL     OW29183   9.717   5.643   2.663 -0.2314 -0.0665  0.0054
 8977SOL    HW129184   9.760   5.636   2.577  1.5735 -1.9858  0.9893
 8977SOL    HW229185   9.787   5.629   2.726 -1.7047  0.2834  1.7963
 8978SOL     OW29186   1.032   4.067   4.385  0.2685 -0.9185 -0.5501
 8978SOL    HW129187   1.116   4.071   4.340  0.5768 -1.1429  0.0057
 8978SOL    HW229188   1.051   4.026   4.469 -0.0224  0.7759  0.3973
 8979SOL     OW29189   1.895   2.814   1.836 -0.4116  0.1318 -0.1720
 8979SOL    HW129190   1.977   2.830   1.883 -0.1863  1.0958 -0.8708
 8979SOL    HW229191   1.868   2.728   1.866  0.9409 -0.2803 -0.0363
 8980SOL     OW29192   9.990   3.935   5.813 -0.1724  0.0586 -0.0640
 8980SOL    HW129193  10.047   3.858   5.815 -0.6435 -0.3146 -0.7698
 8980SOL    HW229194   9.902   3.900   5.804 -0.6418  0.6004  2.0039
 8981SOL     OW29195   9.451   6.937   6.869  0.1103 -0.2978  0.6164
 8981SOL    HW129196   9.366   6.941   6.914 -0.1012  0.1572  0.1910
 8981SOL    HW229197   9.432   6.891   6.787 -0.3578  2.1406 -0.7683
 8982SOL     OW29198   7.408   8.515   5.282  0.2273  0.6846 -0.3634
 8982SOL    HW129199   7.376   8.598   5.318  0.2650  0.5387  0.0121
 8982SOL    HW229200   7.376   8.448   5.343  0.2967  0.4321 -0.5986
 8983SOL     OW29201   6.880   6.842   0.326 -0.1644 -0.5874 -0.0813
 8983SOL    HW129202   6.825   6.835   0.248  1.5267 -1.4450 -1.2651
 8983SOL    HW229203   6.956   6.891   0.297  0.3905 -0.7118  1.1086
 8984SOL     OW29204  10.228   3.785   1.616  0.1467  0.4873  0.1577
 8984SOL    HW129205  10.238   3.771   1.522  0.9978  2.2498 -0.0471
 8984SOL    HW229206  10.310   3.753   1.654 -0.7647 -1.6117  0.5299
 8985SOL     OW29207   9.659   9.854   2.824 -0.4240  0.8060  0.7363
 8985SOL    HW129208   9.615   9.795   2.764  2.6800 -0.1549 -0.8427
 8985SOL    HW229209   9.692   9.798   2.894  1.0835  0.8386  0.1101
 8986SOL     OW29210   8.413   1.500   2.552  0.3901  0.4812  0.2500
 8986SOL    HW129211   8.428   1.425   2.610  1.5163  1.2617  1.0128
 8986SOL    HW229212   8.474   1.486   2.480  0.4293  0.5320  0.2725
 8987SOL     OW29213   3.899   9.300   8.439 -0.6682  0.0887 -0.3842
 8987SOL    HW129214   3.850   9.381   8.453 -1.1659 -0.2023 -0.4101
 8987SOL    HW229215   3.976   9.327   8.389  0.2637  0.8862  1.3901
 8988SOL     OW29216   8.994   2.794   0.274 -0.3866  0.0481  0.3910
 8988SOL    HW129217   9.067   2.816   0.331 -0.9067 -0.3695  1.2347
 8988SOL    HW229218   8.949   2.723   0.319 -1.3684  0.3665 -0.0596
 8989SOL     OW29219   0.235   2.267   5.986 -0.2954 -0.5094  0.6221
 8989SOL    HW129220   0.273   2.303   5.906  0.4001 -0.1380  1.1109
 8989SOL    HW229221   0.260   2.175   5.985  0.5092 -0.2985  0.8711
 8990SOL     OW29222   9.906   4.550   7.290  0.0890 -0.3478  0.3244
 8990SOL    HW129223   9.812   4.557   7.273 -0.0915 -1.3060  0.8841
 8990SOL    HW229224   9.942   4.631   7.254 -0.8130 -0.4372 -0.8569
 8991SOL     OW29225   5.732   8.798   0.400 -0.4739 -0.2680 -0.3185
 8991SOL    HW129226   5.756   8.853   0.475 -0.0790 -2.1266  0.9907
 8991SOL    HW229227   5.813   8.789   0.350 -0.2380 -0.6425  0.1283
 8992SOL     OW29228   6.355   7.253   4.435  0.2436 -0.0078  0.7131
 8992SOL    HW129229   6.369   7.269   4.528  1.4649  3.6471  0.0422
 8992SOL    HW229230   6.272   7.295   4.415  0.9633  1.0502 -0.1883
 8993SOL     OW29231   6.604   4.578   5.287 -0.2748  0.0253  0.0212
 8993SOL    HW129232   6.624   4.640   5.357 -0.4089  0.6809 -0.5035
 8993SOL    HW229233   6.679   4.582   5.228 -0.5721  0.1883 -0.3557
 8994SOL     OW29234   2.522  10.063   7.989  0.1633 -0.4026  0.0775
 8994SOL    HW129235   2.468  10.118   8.044  0.9719  1.3602 -0.8049
 8994SOL    HW229236   2.523   9.978   8.033 -1.4805  0.1426  1.2483
 8995SOL     OW29237   7.534   3.197   5.772  0.5306  1.0127 -0.1063
 8995SOL    HW129238   7.544   3.143   5.693 -0.5366  0.3494  0.1851
 8995SOL    HW229239   7.616   3.246   5.778  1.2770 -0.0997 -0.7487
 8996SOL     OW29240   6.338   5.518   2.017 -0.6005 -0.2653  0.1104
 8996SOL    HW129241   6.362   5.437   1.972 -1.4443 -0.0861 -0.6772
 8996SOL    HW229242   6.415   5.575   2.005 -0.8999 -0.1263 -1.3506
 8997SOL     OW29243   8.253   9.802   2.350  0.4292  0.5200  0.4088
 8997SOL    HW129244   8.267   9.847   2.433  1.0283  0.0064  0.5887
 8997SOL    HW229245   8.161   9.819   2.329  0.1185  0.1755  1.4568
 8998SOL     OW29246   9.182   8.370  10.124  0.4040  0.0704  0.3341
 8998SOL    HW129247   9.087   8.385  10.127  0.2165  0.0141 -2.3373
 8998SOL    HW229248   9.220   8.449  10.160 -0.6565  0.5322  0.4863
 8999SOL     OW29249   6.463   8.110   7.462  0.2571  0.3098  0.1742
 8999SOL    HW129250   6.488   8.187   7.512  0.7512 -0.5686  1.3372
 8999SOL    HW229251   6.423   8.051   7.526  1.3746 -1.0679 -0.3325
 9000SOL     OW29252   0.587   1.051   1.681 -0.3382 -0.6714 -0.5373
 9000SOL    HW129253   0.552   0.963   1.699 -0.6038 -0.9037 -2.0900
 9000SOL    HW229254   0.509   1.105   1.669 -0.1788 -0.6344 -1.4337
 9001SOL     OW29255   8.989   8.295   6.288 -0.3252  0.3669  0.5253
 9001SOL    HW129256   9.054   8.241   6.334 -2.2170 -1.5441  1.1304
 9001SOL    HW229257   8.941   8.232   6.233 -2.1820  1.5344  0.7238
 9002SOL     OW29258   6.752   4.166  10.177 -0.0643 -0.5281  0.3012
 9002SOL    HW129259   6.769   4.185  10.085 -1.0288  1.9630  0.5644
 9002SOL    HW229260   6.839   4.165  10.217  0.3641 -1.6142 -0.5979
 9003SOL     OW29261   4.705   1.905   0.541 -0.2101  0.0120 -0.1543
 9003SOL    HW129262   4.638   1.939   0.482  1.3136  1.0682 -1.3832
 9003SOL    HW229263   4.684   1.812   0.550 -1.8331  0.3246 -0.4665
 9004SOL     OW29264   6.284   5.383   8.205 -0.4945 -0.0090 -0.1527
 9004SOL    HW129265   6.363   5.376   8.151 -1.3325 -1.0759 -1.2811
 9004SOL    HW229266   6.229   5.446   8.158 -1.0853 -0.6817 -0.3716
 9005SOL     OW29267   1.127   1.349   2.514 -0.1674 -0.3594 -0.1878
 9005SOL    HW129268   1.098   1.385   2.598 -1.6697 -1.8447 -0.0077
 9005SOL    HW229269   1.082   1.265   2.507 -1.8930  0.6328 -3.4618
 9006SOL     OW29270   7.181   3.567   3.858 -0.0672  0.0485  0.1159
 9006SOL    HW129271   7.217   3.524   3.935 -0.1104 -1.6292 -0.7376
 9006SOL    HW229272   7.245   3.550   3.789 -0.7959  0.0857 -0.5914
 9007SOL     OW29273   9.561   3.327   6.408  0.6824 -0.0329  0.2741
 9007SOL    HW129274   9.635   3.267   6.421  0.2684 -0.1775  2.2926
 9007SOL    HW229275   9.555   3.375   6.490 -0.5322  1.0550 -0.4265
 9008SOL     OW29276   9.146   3.417   0.105 -0.1046 -0.0677 -0.5060
 9008SOL    HW129277   9.229   3.371   0.090 -0.7290 -1.0207 -1.1240
 9008SOL    HW229278   9.089   3.386   0.035 -0.6163  1.5208 -0.8352
 9009SOL     OW29279   9.530   3.220  10.101  0.5422 -0.1260 -0.2321
 9009SOL    HW129280   9.596   3.268  10.052  0.6015  0.6657  0.5929
 9009SOL    HW229281   9.576   3.185  10.177  0.2540 -0.5607 -0.2478
 9010SOL     OW29282   9.308   3.110   7.814  0.1485  0.8159  0.0914
 9010SOL    HW129283   9.262   3.037   7.854  0.0348 -0.9432 -2.8980
 9010SOL    HW229284   9.400   3.085   7.818  0.1799  0.8690 -0.2602
 9011SOL     OW29285   2.040   5.867   9.983  0.3711 -0.0741 -0.1524
 9011SOL    HW129286   1.987   5.791   9.958  0.4909 -0.2010 -0.0189
 9011SOL    HW229287   1.993   5.942   9.946 -0.5893 -0.0660  1.0009
 9012SOL     OW29288   0.070   7.142   9.504 -0.2323 -0.2429  0.7231
 9012SOL    HW129289   0.121   7.183   9.574 -0.0439 -1.3790  1.2840
 9012SOL    HW229290   0.066   7.049   9.529  1.0579 -0.9661 -1.5057
 9013SOL     OW29291   6.704   2.881   8.256 -0.5281  0.3701  0.1632
 9013SOL    HW129292   6.659   2.925   8.184 -0.8089 -1.3592 -0.7528
 9013SOL    HW229293   6.716   2.950   8.322  0.7841  2.2963 -1.9727
 9014SOL     OW29294   0.969   4.867   8.516 -0.1991  0.3108  0.1424
 9014SOL    HW129295   0.913   4.898   8.445  1.3129  2.7575 -0.1147
 9014SOL    HW229296   0.942   4.919   8.592  0.7462  0.4854  0.3701
 9015SOL     OW29297   3.459   3.086   2.817  0.1529 -0.1245  1.0796
 9015SOL    HW129298   3.456   3.170   2.771 -1.2818 -0.4572  0.5169
 9015SOL    HW229299   3.508   3.028   2.758  1.6943  0.4615  1.7529
 9016SOL     OW29300   8.378   8.968   3.324  0.3810 -0.2172  0.6057
 9016SOL    HW129301   8.320   8.899   3.293 -1.4659  1.0052  1.1661
 9016SOL    HW229302   8.412   8.936   3.408 -0.9696 -0.2128  1.1784
 9017SOL     OW29303   3.934  10.240   3.157  0.3923 -0.0951  0.5383
 9017SOL    HW129304   3.973  10.191   3.085 -2.3105  0.5950 -1.5484
 9017SOL    HW229305   3.840  10.223   3.150 -0.2739  2.4328  2.0193
 9018SOL     OW29306  10.453   6.005   6.880 -0.5959  0.1394 -0.1607
 9018SOL    HW129307  10.468   6.049   6.963  1.6059  0.5151 -0.6818
 9018SOL    HW229308  10.370   6.041   6.848 -1.4162  0.0820  1.7640
 9019SOL     OW29309   7.981   3.894   0.620  0.2567 -0.1141 -0.3947
 9019SOL    HW129310   8.057   3.894   0.679  1.5256 -1.7474 -1.9289
 9019SOL    HW229311   7.935   3.813   0.642  0.1502 -0.1952 -0.9196
 9020SOL     OW29312   3.032   3.531   7.266 -0.1381 -0.5374  0.5555
 9020SOL    HW129313   3.111   3.517   7.318 -1.8163  0.0207  3.4766
 9020SOL    HW229314   3.060   3.591   7.196  1.5072  1.9262  3.1131
 9021SOL     OW29315   6.540   5.084   2.859  0.3436  0.0394 -0.6579
 9021SOL    HW129316   6.487   5.079   2.780  0.9147  1.6848 -1.2084
 9021SOL    HW229317   6.526   5.173   2.892  1.4217 -0.0493  0.1309
 9022SOL     OW29318   9.026   1.597   6.266  0.7839 -0.4176  0.1449
 9022SOL    HW129319   8.962   1.526   6.264  0.8271 -0.4490 -0.2862
 9022SOL    HW229320   9.093   1.567   6.328  2.1793 -1.9773 -1.9788
 9023SOL     OW29321   1.287   3.713  10.310  0.4208  0.0168  0.6157
 9023SOL    HW129322   1.232   3.759  10.374 -1.1790 -1.1889  0.1883
 9023SOL    HW229323   1.274   3.761  10.228  0.1395 -0.1554  0.5576
 9024SOL     OW29324   8.342   3.823   9.107  0.0549  0.5910  0.1117
 9024SOL    HW129325   8.403   3.783   9.045  1.2928  0.7838  1.1745
 9024SOL    HW229326   8.275   3.756   9.121  0.8435 -0.2190  0.0754
 9025SOL     OW29327   5.943   2.698   2.519 -0.9605 -0.6804 -0.8261
 9025SOL    HW129328   5.852   2.671   2.530 -1.8492  2.2251 -0.2463
 9025SOL    HW229329   5.939   2.772   2.459  1.0235 -0.4171 -0.6954
 9026SOL     OW29330   8.292   1.009   6.603 -0.0589  0.2248 -0.6358
 9026SOL    HW129331   8.314   1.093   6.562 -1.9932  1.6430  0.9870
 9026SOL    HW229332   8.314   1.021   6.696 -0.8371 -0.8432 -0.2890
 9027SOL     OW29333   5.327   2.966   7.338 -0.0702 -0.7799  0.2127
 9027SOL    HW129334   5.289   3.025   7.403 -2.1492 -0.6091 -1.0442
 9027SOL    HW229335   5.311   2.878   7.372  0.0564 -0.6626  0.5707
 9028SOL     OW29336   5.264   8.560   9.580  0.2748 -0.1370  0.0032
 9028SOL    HW129337   5.258   8.465   9.594  0.9630 -0.1777  0.0981
 9028SOL    HW229338   5.346   8.571   9.531  0.8321  0.5043  1.0424
 9029SOL     OW29339   5.534   4.909   1.334  0.4788  0.2533  0.3464
 9029SOL    HW129340   5.499   4.985   1.286 -0.6002  1.4721  2.8746
 9029SOL    HW229341   5.487   4.910   1.417  2.2062 -1.7849  1.4365
 9030SOL     OW29342   8.424   0.263   4.485 -0.1241 -0.9737 -0.2954
 9030SOL    HW129343   8.346   0.228   4.529 -0.4827 -2.0283 -1.6935
 9030SOL    HW229344   8.390   0.308   4.408  0.4459  1.3875  0.7683
 9031SOL     OW29345   8.643   4.610   9.578  0.4082 -0.3987 -0.5182
 9031SOL    HW129346   8.582   4.665   9.627 -0.5751 -1.6384 -0.2905
 9031SOL    HW229347   8.727   4.656   9.583 -0.5253  1.4578 -1.0144
 9032SOL     OW29348   1.288   9.020   5.330 -0.2825  0.1199 -0.0108
 9032SOL    HW129349   1.275   8.926   5.318 -1.5355  0.1603  0.8426
 9032SOL    HW229350   1.329   9.049   5.248 -0.1630 -1.1040 -0.4078
 9033SOL     OW29351   3.401  10.054   7.591  0.9324  0.3696  0.3101
 9033SOL    HW129352   3.406   9.973   7.641  2.3673  0.0159 -0.3513
 9033SOL    HW229353   3.460  10.040   7.516 -0.9880  0.9391 -1.4182
 9034SOL     OW29354   0.390   8.085   4.128 -0.3424  0.1287 -0.1804
 9034SOL    HW129355   0.442   8.005   4.125  0.1821  0.4589  0.1462
 9034SOL    HW229356   0.454   8.156   4.137 -0.7640  0.6341 -0.9816
 9035SOL     OW29357   5.517   3.869   4.736 -0.0383 -0.5791  0.3170
 9035SOL    HW129358   5.477   3.929   4.799 -0.8144  0.5174 -1.1538
 9035SOL    HW229359   5.606   3.855   4.769  0.3582  1.8316  0.4680
 9036SOL     OW29360   6.132   1.123   9.522 -0.1104 -0.0327 -0.2241
 9036SOL    HW129361   6.037   1.109   9.528 -0.1782 -0.2683 -1.5067
 9036SOL    HW229362   6.170   1.053   9.575 -0.6209 -1.2091 -1.3517
 9037SOL     OW29363   3.808   1.737   4.711 -0.0138 -0.5120  0.1950
 9037SOL    HW129364   3.849   1.722   4.797  1.9903  0.0277 -0.6014
 9037SOL    HW229365   3.825   1.657   4.662  1.8642  0.4185 -0.7700
 9038SOL     OW29366   8.805   3.948   3.417 -0.2375  0.1746  0.0154
 9038SOL    HW129367   8.882   3.990   3.455 -1.4924  1.5360  1.1983
 9038SOL    HW229368   8.732   3.980   3.471 -1.4930 -2.0208 -0.2873
 9039SOL     OW29369   1.949   5.223   8.567 -0.1642 -0.3164  0.3198
 9039SOL    HW129370   2.008   5.298   8.578 -1.4197  0.6609  0.6387
 9039SOL    HW229371   1.922   5.200   8.656 -1.2222  0.0602  0.1070
 9040SOL     OW29372   2.019   6.516   4.729 -0.1862  0.2108  0.5399
 9040SOL    HW129373   1.979   6.466   4.657  2.5193 -0.7062 -0.4329
 9040SOL    HW229374   2.070   6.452   4.778  0.9150  1.4890  1.1253
 9041SOL     OW29375   5.194   7.948   8.637 -0.2072  0.2583 -0.3094
 9041SOL    HW129376   5.249   7.963   8.714 -1.2454 -0.8574  0.6820
 9041SOL    HW229377   5.110   7.987   8.659 -0.6689 -0.5133 -0.6611
 9042SOL     OW29378   2.560   7.188   6.042  0.1983 -0.1557 -0.2177
 9042SOL    HW129379   2.508   7.183   6.122  2.7119 -0.7130  1.5146
 9042SOL    HW229380   2.560   7.098   6.008  0.5364 -0.2979  0.1489
 9043SOL     OW29381   0.039   2.018   6.283  0.3985 -0.0525  0.0058
 9043SOL    HW129382   0.089   2.070   6.347  1.6449  0.2819 -1.2001
 9043SOL    HW229383  -0.000   1.948   6.336  0.9921  0.4915  1.2200
 9044SOL     OW29384   2.588   3.280   9.878 -0.1472  0.0287  0.6695
 9044SOL    HW129385   2.537   3.316   9.805  0.6913 -0.2578 -0.0846
 9044SOL    HW229386   2.539   3.203   9.907  0.3770 -0.8912 -0.7671
 9045SOL     OW29387   5.321   9.588   4.801  0.1783  0.6174  0.3888
 9045SOL    HW129388   5.238   9.631   4.778  0.2270  0.9297  0.7890
 9045SOL    HW229389   5.299   9.495   4.807  0.6363  0.1002 -3.3979
 9046SOL     OW29390   9.922   1.379   7.155  0.1457 -0.2082 -0.2226
 9046SOL    HW129391   9.847   1.437   7.145  0.1254 -0.0455  0.7494
 9046SOL    HW229392   9.895   1.297   7.113 -0.2470  0.1188 -0.6215
 9047SOL     OW29393   3.245   5.874   0.370  0.0374 -0.0075 -0.2270
 9047SOL    HW129394   3.205   5.884   0.457  1.7099 -1.1182  0.7234
 9047SOL    HW229395   3.243   5.780   0.354 -0.9403  0.2415 -1.7833
 9048SOL     OW29396   2.491   6.898   4.355 -0.0387  0.0745  0.0446
 9048SOL    HW129397   2.585   6.914   4.345 -0.1141  0.3989 -0.1651
 9048SOL    HW229398   2.454   6.984   4.373 -0.3466  0.0107 -0.2752
 9049SOL     OW29399   6.955   1.181   4.938 -0.2011  0.3190  0.2347
 9049SOL    HW129400   6.944   1.252   5.001 -1.6756 -0.6363  1.1215
 9049SOL    HW229401   6.966   1.225   4.854 -2.4624  1.6308  0.5544
 9050SOL     OW29402   0.295   3.050   2.351 -0.5059 -0.2045 -0.3353
 9050SOL    HW129403   0.232   3.017   2.287  1.1984  0.0522 -2.2720
 9050SOL    HW229404   0.333   2.971   2.390 -0.6575 -0.4027 -0.5856
 9051SOL     OW29405   4.122   1.659   0.150 -0.5434 -0.1888 -0.5767
 9051SOL    HW129406   4.081   1.689   0.069 -0.3941  1.5200 -0.0547
 9051SOL    HW229407   4.145   1.739   0.197 -2.1434 -1.0896  1.9589
 9052SOL     OW29408   3.017   6.302   6.697  0.2124  0.3069  0.2494
 9052SOL    HW129409   2.936   6.251   6.704  0.2871  0.1523 -0.0114
 9052SOL    HW229410   2.987   6.391   6.676  0.0286  0.5939  1.6465
 9053SOL     OW29411   4.338   3.867   9.615  0.0096 -0.6199 -0.0885
 9053SOL    HW129412   4.395   3.929   9.569 -0.6203 -0.1104 -0.1894
 9053SOL    HW229413   4.384   3.850   9.698  0.1962 -0.0283 -0.0654
 9054SOL     OW29414   9.641   0.955   7.300  0.5157 -0.3551  0.1575
 9054SOL    HW129415   9.669   1.037   7.342  1.8745  0.4311 -2.0852
 9054SOL    HW229416   9.547   0.967   7.284  0.4816  0.3046  0.7917
 9055SOL     OW29417   0.567   2.103   2.743 -0.2728 -0.3502  0.4736
 9055SOL    HW129418   0.536   2.016   2.719 -1.8098  0.2042  0.3908
 9055SOL    HW229419   0.637   2.121   2.680 -0.4229 -1.2270  0.0387
 9056SOL     OW29420   8.753   8.420   3.327 -0.2006 -0.1489 -0.6127
 9056SOL    HW129421   8.846   8.418   3.350 -0.0559  0.7279 -1.0881
 9056SOL    HW229422   8.746   8.487   3.259 -1.5817  1.7954  1.3048
 9057SOL     OW29423   4.698   4.887   5.820  0.0320 -0.7716 -0.0986
 9057SOL    HW129424   4.641   4.959   5.847 -2.1918 -2.4369 -0.0539
 9057SOL    HW229425   4.754   4.925   5.752 -0.3741  1.2289  0.6246
 9058SOL     OW29426   1.105   7.805   9.532 -0.5065  0.2942 -0.3448
 9058SOL    HW129427   1.043   7.847   9.471 -0.6987 -1.3891 -1.3974
 9058SOL    HW229428   1.063   7.721   9.553  0.2921  0.1951  0.9095
 9059SOL     OW29429   6.677   7.625   0.504  0.0648 -0.4400  0.2054
 9059SOL    HW129430   6.760   7.672   0.500  0.4749 -1.0213  1.2413
 9059SOL    HW229431   6.668   7.584   0.418  0.1379  0.7755 -0.3982
 9060SOL     OW29432   7.529   5.898   2.501 -0.6780 -0.0512 -0.1181
 9060SOL    HW129433   7.604   5.903   2.442 -2.1136  1.1891 -1.9563
 9060SOL    HW229434   7.557   5.838   2.570  2.2046  0.8441 -0.3712
 9061SOL     OW29435  10.193   3.948   6.470  0.2277 -0.1599  0.2541
 9061SOL    HW129436  10.144   3.877   6.512 -0.0548  0.2031  0.5519
 9061SOL    HW229437  10.277   3.949   6.516  1.7772 -2.7318 -2.2039
 9062SOL     OW29438   3.559   5.874   5.234 -0.1014 -0.0840  0.0077
 9062SOL    HW129439   3.574   5.946   5.295  0.1906 -0.1475  0.0117
 9062SOL    HW229440   3.647   5.845   5.208 -0.1171 -2.0047  1.8466
 9063SOL     OW29441   9.590   3.719   5.143 -0.4948 -0.0438  0.5884
 9063SOL    HW129442   9.513   3.718   5.087  0.4982  2.7502 -1.0352
 9063SOL    HW229443   9.570   3.785   5.210 -0.1106 -0.4822  1.1514
 9064SOL     OW29444  10.036   0.870   3.871 -0.1841  0.0004  0.4648
 9064SOL    HW129445   9.980   0.792   3.880  0.1117 -0.3007 -0.2199
 9064SOL    HW229446  10.049   0.879   3.777 -0.5613  1.1380  0.5164
 9065SOL     OW29447   6.508   7.128   1.603 -0.0048  0.1127 -0.3125
 9065SOL    HW129448   6.559   7.103   1.680 -1.2406  1.5673  1.0395
 9065SOL    HW229449   6.438   7.063   1.599  0.0438  0.0526 -0.1930
 9066SOL     OW29450   3.018   7.634   6.684 -0.8827  0.4861  0.2045
 9066SOL    HW129451   2.999   7.591   6.600 -0.3308  1.5270 -0.4825
 9066SOL    HW229452   3.070   7.711   6.659  0.7748 -0.1048  1.6453
 9067SOL     OW29453   1.996  10.015   6.224 -0.4734 -0.3856 -0.2053
 9067SOL    HW129454   1.947   9.980   6.299 -0.6209  0.8403  0.2854
 9067SOL    HW229455   2.073  10.057   6.263  0.2170 -0.9862 -0.8666
 9068SOL     OW29456   3.647   5.222   8.175  0.3457 -0.3422  0.2703
 9068SOL    HW129457   3.650   5.196   8.267 -0.9505 -0.7331  0.2292
 9068SOL    HW229458   3.560   5.194   8.146 -0.5058  2.5316 -0.2467
 9069SOL     OW29459   6.350   3.996   6.767  0.7581 -0.1727  0.6534
 9069SOL    HW129460   6.382   4.016   6.679 -0.0588  0.0082  0.3854
 9069SOL    HW229461   6.428   3.972   6.817  0.9902 -2.3898 -0.6795
 9070SOL     OW29462   4.506   8.182  10.386 -0.6403 -0.1335  0.1569
 9070SOL    HW129463   4.462   8.267  10.375 -1.4271 -0.5353  0.0711
 9070SOL    HW229464   4.549   8.166  10.302 -0.9225 -0.0514 -0.0058
 9071SOL     OW29465   9.953   7.024   6.178  0.4275 -0.1878  0.5624
 9071SOL    HW129466   9.903   6.943   6.190 -0.1172 -0.2022 -1.3376
 9071SOL    HW229467   9.909   7.088   6.234  0.0574 -0.9000  1.0974
 9072SOL     OW29468   0.386   2.657   3.264 -0.2151  0.0463  0.2639
 9072SOL    HW129469   0.354   2.683   3.177 -0.7723  2.8753  1.2212
 9072SOL    HW229470   0.467   2.706   3.276  0.8634 -1.7230  0.6913
 9073SOL     OW29471   9.738   8.800   1.788 -0.0325 -0.6812  0.4355
 9073SOL    HW129472   9.774   8.754   1.864 -3.0514 -0.0966  2.4084
 9073SOL    HW229473   9.753   8.893   1.807  2.1394 -0.5486 -1.4274
 9074SOL     OW29474   4.228   2.957   6.933 -0.0758 -0.6334  0.2772
 9074SOL    HW129475   4.294   2.990   6.995 -0.4799  1.5889 -0.4198
 9074SOL    HW229476   4.252   2.996   6.849 -1.0159 -1.5897 -0.4575
 9075SOL     OW29477   6.270   0.585   9.720  0.0427  0.1308 -0.2098
 9075SOL    HW129478   6.246   0.563   9.630  0.0989  2.0110 -0.7280
 9075SOL    HW229479   6.345   0.644   9.710  1.2837 -1.1379  1.1639
 9076SOL     OW29480   5.914   0.464   9.950  0.1012  0.4824 -0.1196
 9076SOL    HW129481   5.843   0.420   9.904 -0.2463  1.0965 -0.1770
 9076SOL    HW229482   5.968   0.393   9.984 -0.8250  0.0068  0.3777
 9077SOL     OW29483   2.456   1.322   5.981  0.4920 -0.1602 -0.1952
 9077SOL    HW129484   2.416   1.407   5.964  0.2800 -0.3204 -0.5087
 9077SOL    HW229485   2.545   1.330   5.948  0.2531 -0.2879 -0.8903
 9078SOL     OW29486   6.321   1.051   1.113  0.0641  0.7602 -0.0425
 9078SOL    HW129487   6.360   1.137   1.131  1.0929 -0.0529  1.9859
 9078SOL    HW229488   6.241   1.049   1.166 -0.9123  1.1044 -1.4668
 9079SOL     OW29489   2.144   8.267   4.236  0.5843  0.6541 -0.0955
 9079SOL    HW129490   2.093   8.280   4.316 -1.2590  2.4922 -1.4651
 9079SOL    HW229491   2.089   8.302   4.166  1.8917 -1.3643 -2.2915
 9080SOL     OW29492   7.929   8.669   3.271  0.7105 -0.2025  0.4705
 9080SOL    HW129493   8.020   8.696   3.258  0.4902  1.6052  2.1907
 9080SOL    HW229494   7.911   8.608   3.199  2.8797  0.3735 -0.6299
 9081SOL     OW29495   7.213   1.850   6.953 -0.6703  0.8298 -0.5453
 9081SOL    HW129496   7.306   1.853   6.931 -0.2708 -2.4519  0.1150
 9081SOL    HW229497   7.175   1.789   6.890 -0.9724 -2.8308  2.7557
 9082SOL     OW29498   3.205   3.544   1.696  0.1545  0.5721  0.4516
 9082SOL    HW129499   3.196   3.635   1.668  2.2866  1.1462  1.4447
 9082SOL    HW229500   3.201   3.548   1.792 -0.2952 -0.4744  0.4853
 9083SOL     OW29501   6.925   8.917   9.075  0.3702 -0.3562 -0.0926
 9083SOL    HW129502   6.917   8.961   8.990  0.0092  1.2365  0.7279
 9083SOL    HW229503   7.020   8.907   9.088  0.4413 -0.2149 -0.4909
 9084SOL     OW29504   9.376   1.542   7.090  0.0802  0.0214  0.5215
 9084SOL    HW129505   9.432   1.591   7.030 -0.3914 -0.3844 -0.2554
 9084SOL    HW229506   9.288   1.579   7.077  0.0414  0.2226  1.2793
 9085SOL     OW29507   3.403   3.932   5.106  0.3392  0.3594 -0.2665
 9085SOL    HW129508   3.372   3.948   5.017  0.3389  0.0219 -0.3287
 9085SOL    HW229509   3.445   3.846   5.101 -0.1938  0.0702  0.1981
 9086SOL     OW29510   7.958   0.240   4.890 -0.5110 -0.2505  0.3297
 9086SOL    HW129511   7.936   0.191   4.811 -2.5219 -0.2322  0.8038
 9086SOL    HW229512   7.884   0.224   4.949  0.3453  0.7280  1.7392
 9087SOL     OW29513   0.156  10.238   9.433  0.2306  0.2752  0.7321
 9087SOL    HW129514   0.218  10.311   9.431 -0.0153  0.4822 -0.3704
 9087SOL    HW229515   0.190  10.179   9.500  0.2460  1.5472  1.8843
 9088SOL     OW29516  10.026   0.995   1.313  0.1282  0.0125 -0.0625
 9088SOL    HW129517   9.959   1.063   1.318 -0.3286 -0.1228 -2.9654
 9088SOL    HW229518  10.092   1.031   1.254  0.3254 -1.6605 -0.9217
 9089SOL     OW29519   0.288   2.618   0.599 -0.0021  0.1780  0.0633
 9089SOL    HW129520   0.249   2.662   0.675  0.5842  2.0948 -0.6881
 9089SOL    HW229521   0.217   2.612   0.535  0.1801  1.0495 -0.2327
 9090SOL     OW29522   9.669   9.420   0.977 -0.3283  0.1200 -0.2707
 9090SOL    HW129523   9.632   9.478   1.044  1.1284  0.8735 -0.0790
 9090SOL    HW229524   9.762   9.414   0.999 -0.5133 -2.8937  0.1458
 9091SOL     OW29525   7.978   4.591   8.571 -0.3064  0.1388  0.2797
 9091SOL    HW129526   7.995   4.502   8.604 -1.6295 -0.2015  0.0943
 9091SOL    HW229527   8.000   4.648   8.644 -2.2296 -0.5450  1.4695
 9092SOL     OW29528   6.311  10.264   8.281  0.7188 -0.5556  0.2137
 9092SOL    HW129529   6.288  10.352   8.311  0.7382  0.1108 -1.6336
 9092SOL    HW229530   6.231  10.231   8.240  0.3830 -1.8609  1.8162
 9093SOL     OW29531  10.571   4.006   6.107  0.6089  0.0411  0.4009
 9093SOL    HW129532  10.612   4.089   6.083  1.8050 -0.6906 -0.2101
 9093SOL    HW229533  10.553   4.015   6.201  0.0279  1.2451  0.2038
 9094SOL     OW29534   3.192   9.503   3.972  0.0615 -0.4667  0.1997
 9094SOL    HW129535   3.141   9.576   4.006 -1.9201 -1.2561 -0.9084
 9094SOL    HW229536   3.195   9.516   3.878  0.2844 -1.4472  0.0515
 9095SOL     OW29537   5.692   8.501   1.905 -0.2045 -0.3943 -0.3730
 9095SOL    HW129538   5.735   8.499   1.990 -1.3651 -1.6793  0.2377
 9095SOL    HW229539   5.763   8.498   1.841  0.6817  0.6179  0.5393
 9096SOL     OW29540   0.019   0.424   7.103 -0.0423 -0.2043  1.3151
 9096SOL    HW129541  -0.035   0.434   7.180 -0.8987  1.5436  0.5388
 9096SOL    HW229542  -0.024   0.476   7.035  0.3031 -2.1795 -0.5678
 9097SOL     OW29543   5.386   9.541   9.719 -0.2206  0.2617 -0.0788
 9097SOL    HW129544   5.363   9.508   9.806  1.3754 -1.1175 -0.1253
 9097SOL    HW229545   5.342   9.481   9.658  0.5642 -0.2194 -0.1857
 9098SOL     OW29546   8.999   8.512   3.090  0.3216 -0.0468  0.3692
 9098SOL    HW129547   8.904   8.517   3.074 -0.4362  0.8727  4.2992
 9098SOL    HW229548   9.018   8.419   3.087 -0.2324 -0.1618 -2.2858
 9099SOL     OW29549   3.165  10.560   4.642  0.0554  0.2413  0.2599
 9099SOL    HW129550   3.238  10.621   4.643 -1.9173  2.7991 -0.6481
 9099SOL    HW229551   3.101  10.597   4.703 -2.3708  0.7541 -2.3933
 9100SOL     OW29552   5.233   9.616   5.199  0.8320 -0.4652  0.0317
 9100SOL    HW129553   5.251   9.656   5.284  0.0042 -0.9707  0.4609
 9100SOL    HW229554   5.146   9.648   5.175  0.9832 -0.4673 -0.5400
 9101SOL     OW29555   7.225   3.208   9.366  0.4227  0.2365 -0.1767
 9101SOL    HW129556   7.235   3.144   9.295  3.2205 -0.4354  0.6909
 9101SOL    HW229557   7.247   3.159   9.445  0.8259  1.8135  0.7300
 9102SOL     OW29558   2.593   8.864   6.306 -0.7328 -0.6517  0.3848
 9102SOL    HW129559   2.508   8.889   6.270 -0.3520 -0.6171 -0.5232
 9102SOL    HW229560   2.601   8.916   6.386 -1.1432  0.0890 -0.0406
 9103SOL     OW29561   9.466   9.117   1.701 -0.2396  0.5189 -0.1875
 9103SOL    HW129562   9.424   9.147   1.782  1.3026  1.2288  0.4037
 9103SOL    HW229563   9.555   9.152   1.707  0.5540 -1.2119 -1.1931
 9104SOL     OW29564   0.591   7.278   6.396 -0.2075 -0.6001  0.1586
 9104SOL    HW129565   0.674   7.315   6.365 -0.8983  0.0490 -1.0012
 9104SOL    HW229566   0.617   7.200   6.445  1.0892 -0.4185 -0.1887
 9105SOL     OW29567   5.880   0.751   4.322 -0.1137  0.0628 -0.2150
 9105SOL    HW129568   5.869   0.793   4.407 -2.2896  0.7352 -0.7755
 9105SOL    HW229569   5.792   0.724   4.296  0.7359 -1.7915 -1.4591
 9106SOL     OW29570   8.558   1.242   5.282  0.2804 -0.1068 -0.4293
 9106SOL    HW129571   8.524   1.313   5.228 -1.9055 -0.7182  0.0466
 9106SOL    HW229572   8.652   1.242   5.265  0.2043  2.2386 -1.1788
 9107SOL     OW29573   7.759   5.527   2.973  0.0898  0.2166  0.0698
 9107SOL    HW129574   7.831   5.554   2.916  1.4873  1.4633  2.3147
 9107SOL    HW229575   7.693   5.596   2.964 -0.6240 -0.6080 -1.4949
 9108SOL     OW29576  10.413   3.719   4.582  0.2341 -0.4966 -0.2996
 9108SOL    HW129577  10.344   3.783   4.567  0.4546 -0.3322 -0.6181
 9108SOL    HW229578  10.494   3.769   4.583  0.5900 -0.9258 -2.1846
 9109SOL     OW29579   1.829   3.569   8.414  0.5280 -0.0127 -0.5796
 9109SOL    HW129580   1.803   3.521   8.335 -1.1220 -1.1262  0.5959
 9109SOL    HW229581   1.854   3.502   8.477  0.0745  0.7595  0.4559
 9110SOL     OW29582  10.281  10.560   6.729 -0.6510 -0.2145 -0.7405
 9110SOL    HW129583  10.325  10.481   6.696 -0.5787 -0.0018 -1.1619
 9110SOL    HW229584  10.279  10.549   6.824 -1.1365 -0.9954 -0.8237
 9111SOL     OW29585   0.524   2.124   7.155  0.3880  0.4711  0.7243
 9111SOL    HW129586   0.581   2.080   7.217  0.7248  0.3355  0.3249
 9111SOL    HW229587   0.451   2.156   7.208  1.1296  1.1786  1.3366
 9112SOL     OW29588   3.450   4.924   8.047 -0.8679 -0.7470 -0.2695
 9112SOL    HW129589   3.382   4.885   8.101 -0.8123  1.2024  1.3424
 9112SOL    HW229590   3.528   4.872   8.065 -0.7180  0.1565  2.0777
 9113SOL     OW29591   8.588   1.669   8.976 -0.5579 -0.0458 -0.1080
 9113SOL    HW129592   8.681   1.659   8.995 -0.9701 -1.3269  1.4440
 9113SOL    HW229593   8.559   1.581   8.951 -1.5567  0.1084  0.4546
 9114SOL     OW29594   6.822   9.525   5.394 -0.3773  0.4866  0.3052
 9114SOL    HW129595   6.759   9.485   5.455  1.5841 -1.2673  1.3310
 9114SOL    HW229596   6.780   9.518   5.308 -1.8681  0.0489  1.0238
 9115SOL     OW29597   3.956   0.840   7.985 -0.1842 -0.1703 -0.1441
 9115SOL    HW129598   4.006   0.800   8.057 -0.9496  0.2764  0.6639
 9115SOL    HW229599   3.867   0.805   7.996 -0.4238  0.2958 -0.5688
 9116SOL     OW29600   8.936  10.559   2.839  0.3262 -0.3842  0.7059
 9116SOL    HW129601   8.865  10.616   2.810  1.7040  1.2426  0.4124
 9116SOL    HW229602   8.893  10.495   2.897 -1.2621  0.9107  1.0295
 9117SOL     OW29603   5.118   4.235   7.177  0.4241  0.3446 -0.9649
 9117SOL    HW129604   5.112   4.324   7.213  1.1286  0.7742 -1.8542
 9117SOL    HW229605   5.032   4.219   7.139  0.0623  0.3597 -0.1578
 9118SOL     OW29606   8.607   1.970   1.317  0.9171 -0.2093  0.1453
 9118SOL    HW129607   8.530   1.976   1.374 -0.7765 -0.8991 -1.9168
 9118SOL    HW229608   8.677   1.937   1.374 -0.8326 -1.4575  1.6951
 9119SOL     OW29609   9.423   5.827   6.774  0.4115 -0.1477  0.3340
 9119SOL    HW129610   9.368   5.847   6.850 -1.6366  0.4304 -1.2218
 9119SOL    HW229611   9.453   5.913   6.743  2.3902 -0.4571  1.2316
 9120SOL     OW29612   5.100   1.390  10.137 -0.1880  0.3180  0.3874
 9120SOL    HW129613   5.170   1.392  10.202 -0.3449  0.3636  0.5531
 9120SOL    HW229614   5.038   1.325  10.170  1.0918 -1.8128 -1.1065
 9121SOL     OW29615  10.482   4.572   8.919  0.8373  0.0368  0.4957
 9121SOL    HW129616  10.566   4.544   8.956  0.6762  0.7670  1.4475
 9121SOL    HW229617  10.448   4.494   8.875  2.5692  0.0441 -0.9808
 9122SOL     OW29618   7.069   6.620   6.939  0.1747 -0.0149  0.1374
 9122SOL    HW129619   7.052   6.655   7.026  0.8758  0.4735  0.0838
 9122SOL    HW229620   7.086   6.697   6.885  2.3446 -0.4292  0.1470
 9123SOL     OW29621   1.131   5.745   4.139  0.6193  1.2639 -0.5279
 9123SOL    HW129622   1.180   5.764   4.219  0.6360 -2.2018  0.4718
 9123SOL    HW229623   1.041   5.733   4.169  0.2797  1.6943 -1.3582
 9124SOL     OW29624   2.193   0.747   5.353 -0.3646  0.0666  0.5266
 9124SOL    HW129625   2.248   0.805   5.408  2.2020 -0.5089 -1.2527
 9124SOL    HW229626   2.229   0.660   5.368  0.4212 -0.1122 -1.9704
 9125SOL     OW29627   1.256   7.180   6.076  0.1440 -0.2978  0.2860
 9125SOL    HW129628   1.272   7.119   6.004 -1.4786 -0.1258 -0.2693
 9125SOL    HW229629   1.273   7.266   6.038  0.4944 -0.2811  0.4790
 9126SOL     OW29630   1.763   1.578   4.113 -0.7194 -0.3230  0.3737
 9126SOL    HW129631   1.754   1.653   4.054  0.5885 -1.0467 -0.8170
 9126SOL    HW229632   1.687   1.523   4.095 -0.1562 -0.7106 -0.9649
 9127SOL     OW29633   2.087   2.728   2.069  0.0915  0.2647  0.6477
 9127SOL    HW129634   2.152   2.665   2.039  0.0893  0.0053  1.1730
 9127SOL    HW229635   2.078   2.711   2.163  2.0356  2.8003  1.3929
 9128SOL     OW29636   9.406   5.498   1.787 -0.1781  0.0122 -0.1368
 9128SOL    HW129637   9.321   5.459   1.768 -0.0962 -0.6300  0.7435
 9128SOL    HW229638   9.456   5.488   1.706 -0.3494 -1.2174 -0.1011
 9129SOL     OW29639   0.148   8.493   5.725  0.6009 -0.3882 -0.1515
 9129SOL    HW129640   0.145   8.510   5.631 -0.3892  0.5371  0.0228
 9129SOL    HW229641   0.115   8.404   5.734 -0.4001 -0.0738 -0.6010
 9130SOL     OW29642   4.872   2.714  10.618 -0.0489  0.3627  0.1316
 9130SOL    HW129643   4.949   2.659  10.633 -0.1926 -0.0286 -0.5441
 9130SOL    HW229644   4.848   2.698  10.527 -1.8137 -0.6816  0.7203
 9131SOL     OW29645  10.113   3.163   4.097  0.1982 -0.1728  0.5344
 9131SOL    HW129646  10.159   3.135   4.176 -2.2623 -1.2889  1.6695
 9131SOL    HW229647  10.098   3.256   4.109 -1.3349 -0.5756  2.0953
 9132SOL     OW29648   7.199   4.324   5.702  0.5529 -0.8545  0.0820
 9132SOL    HW129649   7.117   4.346   5.658 -0.5259 -2.0238  1.3937
 9132SOL    HW229650   7.255   4.288   5.633  0.2603  0.6223 -0.9679
 9133SOL     OW29651   3.155   7.196   0.420  0.0078  0.0475 -0.2791
 9133SOL    HW129652   3.100   7.257   0.469  1.2646  0.4521  0.7079
 9133SOL    HW229653   3.111   7.112   0.427 -1.0903  0.5873 -0.5553
 9134SOL     OW29654   7.832   7.401   1.889 -0.1164  0.1695  0.7578
 9134SOL    HW129655   7.872   7.383   1.804 -1.1070 -0.1318  0.3349
 9134SOL    HW229656   7.851   7.323   1.942 -0.6505 -0.2426  0.3572
 9135SOL     OW29657   7.313   7.772   9.117  0.5652  0.9177  0.2204
 9135SOL    HW129658   7.315   7.865   9.093  1.0691  1.0055  0.5889
 9135SOL    HW229659   7.275   7.771   9.205  1.7324  0.8981  0.7394
 9136SOL     OW29660   5.512   3.395   1.842 -0.0825  0.1801  0.3328
 9136SOL    HW129661   5.551   3.482   1.848  1.3378 -0.2799 -1.4534
 9136SOL    HW229662   5.432   3.409   1.792  0.7355  0.3131 -0.9729
 9137SOL     OW29663   5.255   3.245   8.464  0.5383 -0.2851  0.4178
 9137SOL    HW129664   5.162   3.266   8.467  0.6123 -0.1193  1.9568
 9137SOL    HW229665   5.283   3.275   8.377 -0.4119  1.5261  0.6868
 9138SOL     OW29666   5.730   4.537   7.627  0.6087  0.3641  0.0056
 9138SOL    HW129667   5.644   4.578   7.626  1.1951  1.7200 -2.1723
 9138SOL    HW229668   5.726   4.470   7.559  1.4322  0.9135 -0.6112
 9139SOL     OW29669   8.114   4.213   4.260  0.6205  0.0246 -0.4453
 9139SOL    HW129670   8.163   4.272   4.317  0.3866 -0.4579  0.2740
 9139SOL    HW229671   8.109   4.131   4.310 -1.7432  0.3451 -0.0656
 9140SOL     OW29672   5.811   4.441   5.996  0.3073 -0.4227 -0.3553
 9140SOL    HW129673   5.783   4.391   5.919 -0.9240  0.5004 -0.5451
 9140SOL    HW229674   5.763   4.401   6.069  1.1242 -1.0053 -0.1285
 9141SOL     OW29675   4.128   6.802   1.674 -0.2473 -0.4249 -0.2922
 9141SOL    HW129676   4.050   6.769   1.629 -0.3944  0.6668 -0.8722
 9141SOL    HW229677   4.193   6.812   1.605 -0.5524  1.5046 -0.3619
 9142SOL     OW29678   6.019   1.550   3.499 -0.1616  0.3802 -0.2736
 9142SOL    HW129679   6.089   1.610   3.472 -0.1642  0.4531 -0.1186
 9142SOL    HW229680   5.952   1.560   3.431  0.7484 -1.0668 -1.4626
 9143SOL     OW29681   9.867  10.262   2.650 -0.2084  0.6522 -0.2427
 9143SOL    HW129682   9.897  10.212   2.575 -0.1551  0.4621 -0.0941
 9143SOL    HW229683   9.778  10.232   2.665  0.3403 -0.5431  0.8144
 9144SOL     OW29684   1.122  10.483   9.027 -0.0982  0.3006  0.0245
 9144SOL    HW129685   1.136  10.551   9.093 -1.2172  1.6152 -1.0480
 9144SOL    HW229686   1.093  10.530   8.949  0.4484 -1.2868 -1.1963
 9145SOL     OW29687   6.469   3.945   7.737  0.0244 -0.4120 -0.4994
 9145SOL    HW129688   6.476   4.037   7.761 -1.5888 -0.4607  0.3144
 9145SOL    HW229689   6.484   3.897   7.818 -2.3592 -0.7026 -0.1661
 9146SOL     OW29690   0.850   3.873   5.241  0.2273 -0.2185 -0.0533
 9146SOL    HW129691   0.911   3.806   5.212  2.7074  1.7942  0.1173
 9146SOL    HW229692   0.898   3.922   5.309 -2.0787  0.6935  1.0306
 9147SOL     OW29693   5.344   4.675  10.652  0.4307 -0.2269 -0.4016
 9147SOL    HW129694   5.342   4.767  10.625 -0.7848 -0.0045  0.3678
 9147SOL    HW229695   5.297   4.628  10.583  1.2944 -0.3348 -0.9378
 9148SOL     OW29696   1.402   8.953   8.134 -0.1932  0.2289  0.7754
 9148SOL    HW129697   1.462   8.929   8.062 -0.0657  1.2276  0.5298
 9148SOL    HW229698   1.411   9.048   8.141 -1.4925  0.3547  0.9740
 9149SOL     OW29699   8.460   3.907   7.091 -0.0902 -0.1444 -0.4660
 9149SOL    HW129700   8.415   3.876   7.170 -1.8818  0.4865 -1.1781
 9149SOL    HW229701   8.409   3.870   7.019  0.3746  0.8513 -1.3201
 9150SOL     OW29702   3.776   9.747   5.897 -0.0124 -0.5485 -0.5028
 9150SOL    HW129703   3.843   9.792   5.948 -1.3979 -1.5632  2.4421
 9150SOL    HW229704   3.720   9.817   5.863  0.2190  0.1410  0.4895
 9151SOL     OW29705   7.464   3.090   7.669 -0.7930  0.1176 -0.7020
 9151SOL    HW129706   7.486   3.056   7.582  0.5284 -2.0362  0.3949
 9151SOL    HW229707   7.372   3.069   7.681 -0.3791 -1.8263 -0.6618
 9152SOL     OW29708   7.142   2.991   6.106 -0.1503  0.5580  0.1423
 9152SOL    HW129709   7.193   3.007   6.026 -0.4515  1.1051  0.0498
 9152SOL    HW229710   7.205   2.953   6.167  0.4895  1.6214  0.1707
 9153SOL     OW29711   1.354  10.604   5.797 -0.3270  0.2759  0.1171
 9153SOL    HW129712   1.263  10.629   5.816 -0.1715  0.8529  0.1367
 9153SOL    HW229713   1.388  10.573   5.881 -1.1572 -2.1045 -0.3628
 9154SOL     OW29714   6.306   8.124   3.596  0.3702  0.2402 -0.5603
 9154SOL    HW129715   6.295   8.033   3.622  3.5780 -0.5609 -1.5879
 9154SOL    HW229716   6.318   8.121   3.501  0.1497  1.7799 -0.6661
 9155SOL     OW29717   5.785   6.334   8.110 -0.4113  0.5585  0.0185
 9155SOL    HW129718   5.859   6.340   8.050  0.0810 -1.9932  0.2391
 9155SOL    HW229719   5.785   6.417   8.158  0.5474  1.7397 -1.9187
 9156SOL     OW29720   3.733  10.226   3.924 -0.1703 -0.1159  0.2085
 9156SOL    HW129721   3.696  10.286   3.859 -1.0760  1.2422  1.8883
 9156SOL    HW229722   3.758  10.283   3.997 -0.5120 -1.7046  1.6186
 9157SOL     OW29723   2.410   5.293   0.082  0.0368  0.2805 -0.1096
 9157SOL    HW129724   2.489   5.333   0.045  0.0833 -0.7664 -1.1923
 9157SOL    HW229725   2.351   5.283   0.007 -0.8576  0.4038  0.5616
 9158SOL     OW29726   8.547   4.601  10.644  0.0018  0.8734  0.3936
 9158SOL    HW129727   8.564   4.509  10.624 -1.6333  0.3910  1.0876
 9158SOL    HW229728   8.451   4.607  10.650 -0.0041  2.8466 -0.7206
 9159SOL     OW29729   5.944   5.012   3.338  0.5585 -0.2341  0.6434
 9159SOL    HW129730   5.957   4.950   3.410  0.5386  0.2874  1.1103
 9159SOL    HW229731   5.954   4.960   3.259 -0.4627 -1.0347  1.0251
 9160SOL     OW29732   2.992   5.912   2.835 -0.0617  0.1424 -0.1120
 9160SOL    HW129733   2.994   6.001   2.799 -0.5992  0.5374  0.7870
 9160SOL    HW229734   3.080   5.877   2.818  0.0726  0.7432 -0.7089
 9161SOL     OW29735   6.098   5.336   2.554 -0.8648  0.3366  0.7490
 9161SOL    HW129736   6.042   5.411   2.573 -0.8938  0.5763 -0.2218
 9161SOL    HW229737   6.173   5.374   2.507 -1.9913 -0.4679 -1.8903
 9162SOL     OW29738   7.178   8.763   0.096  0.2150 -0.1950 -0.1566
 9162SOL    HW129739   7.129   8.845   0.088 -0.2730 -0.4063  0.5642
 9162SOL    HW229740   7.138   8.719   0.171  0.2150 -1.2739 -0.7759
 9163SOL     OW29741   5.749   2.191   7.921 -0.0102 -0.1562 -0.7136
 9163SOL    HW129742   5.779   2.100   7.914 -0.5225 -0.5168  1.3111
 9163SOL    HW229743   5.691   2.203   7.845 -0.2173 -1.6206 -0.8123
 9164SOL     OW29744   7.834   3.949  10.265 -1.1552 -0.1237 -0.2256
 9164SOL    HW129745   7.808   3.907  10.346 -1.5976 -2.5685 -1.5348
 9164SOL    HW229746   7.761   4.006  10.242 -0.5846  1.4036  1.5582
 9165SOL     OW29747   6.480   5.059   2.527 -0.4514  0.2377  0.5683
 9165SOL    HW129748   6.488   5.141   2.479 -0.9987  0.4581  0.8429
 9165SOL    HW229749   6.531   4.996   2.477 -1.7306  0.2423 -0.7947
 9166SOL     OW29750   5.593  10.229   7.415 -0.2413 -0.5148 -0.0249
 9166SOL    HW129751   5.643  10.153   7.444 -1.6261 -1.2605  0.4842
 9166SOL    HW229752   5.650  10.272   7.352  0.6321 -1.9189 -0.2441
 9167SOL     OW29753   7.295   2.925  10.103 -0.1172 -0.6697 -0.4521
 9167SOL    HW129754   7.383   2.895  10.083 -0.4728 -0.8474 -1.8522
 9167SOL    HW229755   7.252   2.933  10.018 -0.8314  1.3595  0.0408
 9168SOL     OW29756   7.206   2.293   7.965  0.0086 -0.5275  0.2089
 9168SOL    HW129757   7.281   2.341   7.931 -1.1919  1.2373 -0.0924
 9168SOL    HW229758   7.168   2.351   8.031  0.3075 -2.4537  2.1707
 9169SOL     OW29759   9.694   6.274  10.151 -0.2395 -0.1162  0.0779
 9169SOL    HW129760   9.766   6.334  10.169  0.6299 -0.8976 -0.6620
 9169SOL    HW229761   9.615   6.322  10.174  0.4903  0.9722  0.3461
 9170SOL     OW29762   8.564   1.286   8.248 -0.0963  0.5442 -0.9043
 9170SOL    HW129763   8.565   1.323   8.159  1.8694  0.2434 -1.0375
 9170SOL    HW229764   8.591   1.359   8.304 -0.0423  0.3659 -0.6999
 9171SOL     OW29765   7.029   7.839   1.536 -0.3918 -0.3057 -0.3438
 9171SOL    HW129766   7.028   7.794   1.621  0.3161 -1.9614 -1.1495
 9171SOL    HW229767   6.940   7.830   1.503 -0.5424 -0.1034  0.0100
 9172SOL     OW29768   6.237   4.507   9.200 -0.5127 -0.0234 -0.5714
 9172SOL    HW129769   6.232   4.532   9.292  0.4066  1.4223 -0.8912
 9172SOL    HW229770   6.301   4.435   9.198 -0.2591  0.1843 -0.1306
 9173SOL     OW29771   2.158  10.627   6.687 -0.7391  0.0342 -0.0134
 9173SOL    HW129772   2.252  10.629   6.670 -1.1564  1.5270 -2.7654
 9173SOL    HW229773   2.148  10.679   6.767  0.7319  0.6213 -0.1686
 9174SOL     OW29774   0.962   4.324  10.114  0.6942  0.8875 -0.5071
 9174SOL    HW129775   0.956   4.416  10.086  2.2055  0.5470 -2.1109
 9174SOL    HW229776   0.892   4.280  10.066  0.2607  1.1165 -0.0894
 9175SOL     OW29777   0.351   9.361  10.618  0.2041  0.5296  0.0837
 9175SOL    HW129778   0.335   9.415  10.540  0.9302 -0.5827 -0.8763
 9175SOL    HW229779   0.337   9.420  10.691 -0.4245  1.6380 -0.8941
 9176SOL     OW29780   8.675   5.978   6.340 -0.2336  0.2262 -0.1842
 9176SOL    HW129781   8.682   5.919   6.416  0.6424 -1.2307 -1.3262
 9176SOL    HW229782   8.760   6.022   6.337  0.8571 -1.7921 -1.8532
 9177SOL     OW29783   9.292   7.857   7.003  0.0434  0.3306  0.1353
 9177SOL    HW129784   9.233   7.897   6.939 -0.4994  1.1790  1.1290
 9177SOL    HW229785   9.352   7.805   6.951 -1.5055 -0.4632 -0.9305
 9178SOL     OW29786   7.566   6.792   0.152 -0.0525  0.2578  0.5685
 9178SOL    HW129787   7.517   6.866   0.187  1.3286  0.7540  1.5627
 9178SOL    HW229788   7.631   6.831   0.094 -0.2283 -0.3107 -0.0322
 9179SOL     OW29789   4.950   9.587   7.058 -0.1719 -0.4157 -0.6770
 9179SOL    HW129790   4.978   9.539   7.136 -0.1841  1.1111  0.3304
 9179SOL    HW229791   5.002   9.551   6.987 -1.2302 -2.9177 -0.2992
 9180SOL     OW29792   7.301   8.567   7.953  0.6209  0.1043  0.2446
 9180SOL    HW129793   7.383   8.527   7.923  0.6941 -1.0761  1.8608
 9180SOL    HW229794   7.298   8.652   7.909  2.6238  0.1052  0.0040
 9181SOL     OW29795  10.315   0.323   9.644 -0.0163 -0.3215  0.1749
 9181SOL    HW129796  10.279   0.293   9.727  0.6136  0.0051  0.5733
 9181SOL    HW229797  10.407   0.343   9.663  0.1453 -0.2760 -0.6059
 9182SOL     OW29798   1.615   0.797   5.028 -0.3809  0.3088  0.7090
 9182SOL    HW129799   1.684   0.751   5.075  0.5845  0.6054 -0.3779
 9182SOL    HW229800   1.588   0.736   4.960  0.1917  0.9258 -0.0919
 9183SOL     OW29801   4.842   2.436   7.403  0.2699 -0.7830  0.4290
 9183SOL    HW129802   4.916   2.412   7.347 -0.2423 -1.6389  0.0933
 9183SOL    HW229803   4.881   2.461   7.486  1.0609  0.5837 -0.3167
 9184SOL     OW29804   2.643   8.066   5.721  0.3467 -0.3942 -0.2755
 9184SOL    HW129805   2.556   8.039   5.750 -0.7021  1.4848 -1.4483
 9184SOL    HW229806   2.631   8.091   5.629  1.8722  0.9070 -0.1650
 9185SOL     OW29807   4.316   8.490   3.948 -0.2605  0.4851  0.0971
 9185SOL    HW129808   4.271   8.453   3.873 -0.9647  1.5078 -0.0142
 9185SOL    HW229809   4.409   8.478   3.929 -0.3976  1.4177 -1.3260
 9186SOL     OW29810   1.147   8.367   5.995 -0.0840  0.6884 -0.3744
 9186SOL    HW129811   1.086   8.393   5.925  0.8179  3.0197 -0.3699
 9186SOL    HW229812   1.115   8.412   6.073  0.1993 -0.1105  0.2152
 9187SOL     OW29813   8.332   2.953   1.212  0.5697 -0.1381  0.0296
 9187SOL    HW129814   8.317   3.020   1.145 -1.0693 -0.5260 -0.0305
 9187SOL    HW229815   8.310   2.996   1.294 -0.2610 -0.5059  0.0124
 9188SOL     OW29816   6.227   2.716   7.868  0.2309  0.3784 -0.4693
 9188SOL    HW129817   6.217   2.795   7.921 -0.8995  0.6790 -1.1008
 9188SOL    HW229818   6.175   2.650   7.914  0.0575  0.3719 -0.6756
 9189SOL     OW29819   4.915   7.999   3.199 -0.1767 -0.6821  0.4418
 9189SOL    HW129820   4.926   8.093   3.188  1.6403 -0.2135  4.4749
 9189SOL    HW229821   4.996   7.961   3.167 -0.4266 -0.7956 -0.0766
 9190SOL     OW29822   8.974  10.303   8.292 -0.6684  0.1420  0.2902
 9190SOL    HW129823   8.947  10.213   8.277  1.3835 -0.7399  1.4888
 9190SOL    HW229824   8.904  10.341   8.345 -1.4130 -0.8342  0.0231
 9191SOL     OW29825   5.782   9.737   3.310  0.0117 -0.5834  0.1424
 9191SOL    HW129826   5.751   9.690   3.232  1.1758  0.0678 -0.7418
 9191SOL    HW229827   5.703   9.749   3.363 -0.9888 -0.2909 -1.3408
 9192SOL     OW29828   5.024   7.095   5.959 -0.1508  0.3844 -0.2851
 9192SOL    HW129829   5.047   7.027   6.022 -4.0169 -1.5110 -0.6171
 9192SOL    HW229830   5.037   7.054   5.873 -0.9341  0.6616 -0.5438
 9193SOL     OW29831   1.686   2.551   2.431  0.5779  0.2046  0.2525
 9193SOL    HW129832   1.715   2.467   2.396 -0.8922 -0.3842  0.3834
 9193SOL    HW229833   1.689   2.611   2.356  0.3924 -0.2812 -0.1426
 9194SOL     OW29834   3.677   3.128   3.840 -0.5585 -0.3076  0.0882
 9194SOL    HW129835   3.641   3.121   3.751 -0.5737 -0.6171  0.1162
 9194SOL    HW229836   3.606   3.100   3.897  0.0061 -1.8661  0.0898
 9195SOL     OW29837  10.587   5.315   9.539  0.5916 -0.2656  0.7529
 9195SOL    HW129838  10.546   5.337   9.455  0.8591 -1.2312  0.3684
 9195SOL    HW229839  10.680   5.336   9.527  0.6565 -0.5514  0.7571
 9196SOL     OW29840   9.461   0.879   1.411 -0.0515 -0.6281  0.2098
 9196SOL    HW129841   9.487   0.821   1.340 -1.5706 -0.0451 -0.8609
 9196SOL    HW229842   9.412   0.823   1.471 -0.0689 -0.8091  0.0264
 9197SOL     OW29843   8.750   8.295   8.201  0.1031 -0.6487  0.1579
 9197SOL    HW129844   8.818   8.328   8.260  0.8006  0.1752 -1.0835
 9197SOL    HW229845   8.794   8.282   8.117 -1.0765 -0.9424 -0.4408
 9198SOL     OW29846   2.675   5.566  10.057 -0.4409 -0.1418  0.0809
 9198SOL    HW129847   2.677   5.499  10.126 -0.3466  0.4649  0.6809
 9198SOL    HW229848   2.764   5.567  10.022 -0.7278 -1.1071 -0.7020
 9199SOL     OW29849   8.223   8.579   5.257 -0.5987 -0.0508  0.7309
 9199SOL    HW129850   8.218   8.624   5.172  0.6949  0.4192  0.8871
 9199SOL    HW229851   8.309   8.602   5.292 -0.4657 -1.5255  1.4584
 9200SOL     OW29852   1.802   6.173   7.299  0.0540 -0.0703  0.0576
 9200SOL    HW129853   1.855   6.149   7.375  0.1812 -0.3121 -0.1070
 9200SOL    HW229854   1.863   6.172   7.226  0.2892  1.7059  0.1807
 9201SOL     OW29855   8.403   7.840   5.902  0.0222 -1.0035  0.0821
 9201SOL    HW129856   8.486   7.870   5.940 -0.4005 -0.1589  0.3740
 9201SOL    HW229857   8.342   7.912   5.918 -0.2637 -0.7269 -1.9711
 9202SOL     OW29858   2.380   6.373   1.890  0.2797 -0.1711 -0.2449
 9202SOL    HW129859   2.424   6.287   1.897  0.6925  0.0436 -0.1576
 9202SOL    HW229860   2.320   6.363   1.817  0.7459 -0.3556 -0.6082
 9203SOL     OW29861   9.198   4.256   9.636  0.5384  0.5169  0.1049
 9203SOL    HW129862   9.124   4.315   9.648  0.1493  0.2880 -1.0130
 9203SOL    HW229863   9.259   4.279   9.706 -1.5243 -0.8125  2.4969
 9204SOL     OW29864   7.842   7.387   2.477 -0.1735 -0.3432  0.1363
 9204SOL    HW129865   7.847   7.479   2.504  0.8452 -0.4577  0.3770
 9204SOL    HW229866   7.786   7.387   2.399 -1.8588  0.2096  1.2899
 9205SOL     OW29867   9.990   3.630   4.748 -0.1730 -0.0110  0.6224
 9205SOL    HW129868   9.919   3.650   4.809 -1.1944  1.3304 -0.9252
 9205SOL    HW229869  10.004   3.536   4.759 -3.1706 -0.6307  0.0404
 9206SOL     OW29870   9.312   1.550   6.121  0.7478 -0.3201 -0.2749
 9206SOL    HW129871   9.345   1.631   6.159  0.9980 -0.5017 -0.0971
 9206SOL    HW229872   9.367   1.482   6.159 -0.0590 -0.6681  0.2948
 9207SOL     OW29873   7.510   0.637   0.449  0.0261  0.0944 -0.2670
 9207SOL    HW129874   7.526   0.730   0.434 -2.2255  0.6450  0.3623
 9207SOL    HW229875   7.455   0.634   0.527 -0.4861 -1.7286 -0.6450
 9208SOL     OW29876   7.542   4.307   3.574 -1.1373 -0.1232 -0.0813
 9208SOL    HW129877   7.616   4.255   3.608 -1.1081 -0.2055 -0.2657
 9208SOL    HW229878   7.490   4.328   3.651 -1.2896 -0.6519 -0.0371
 9209SOL     OW29879   5.710   0.891   6.294  0.7711 -0.0422  0.6968
 9209SOL    HW129880   5.675   0.821   6.350 -3.2462 -0.9128 -2.4278
 9209SOL    HW229881   5.734   0.847   6.213  1.1935  1.8372 -0.2588
 9210SOL     OW29882   4.893   3.940   6.128  0.4510  0.5522 -0.1879
 9210SOL    HW129883   4.862   3.881   6.197 -0.4750  0.7199 -0.4404
 9210SOL    HW229884   4.984   3.959   6.151  0.6871 -0.7694  0.0271
 9211SOL     OW29885   7.406   8.831   4.830  0.1699  0.4068 -0.1720
 9211SOL    HW129886   7.325   8.782   4.816 -1.0438  1.8553  1.3237
 9211SOL    HW229887   7.461   8.771   4.881 -1.2408  0.4910  1.5523
 9212SOL     OW29888   7.719   6.009   6.909 -0.1553 -0.6943  0.4000
 9212SOL    HW129889   7.698   6.020   6.816  1.1399 -0.0976  0.1481
 9212SOL    HW229890   7.814   5.995   6.910 -0.1475 -0.6181  1.6345
 9213SOL     OW29891   9.851   0.241   2.765 -0.4511  0.2178 -0.0511
 9213SOL    HW129892   9.930   0.207   2.724 -0.1562  1.6787 -0.7798
 9213SOL    HW229893   9.825   0.174   2.829  2.0141  0.1975  1.0292
 9214SOL     OW29894   1.367  10.462   7.203 -0.0840 -0.1893 -0.1561
 9214SOL    HW129895   1.380  10.402   7.129 -0.8155  0.0258 -0.4754
 9214SOL    HW229896   1.279  10.497   7.189 -0.1559 -0.0080  0.7255
 9215SOL     OW29897   4.246   0.872   8.304  0.2653 -0.2273  0.0210
 9215SOL    HW129898   4.200   0.832   8.229 -0.4656 -1.0459  0.8729
 9215SOL    HW229899   4.328   0.822   8.311 -0.0611 -0.7356  0.2875
 9216SOL     OW29900   1.755   3.026   6.786  0.1961  0.9737  0.3392
 9216SOL    HW129901   1.661   3.040   6.776  0.4241  1.8192 -0.7873
 9216SOL    HW229902   1.793   3.051   6.702  1.3589 -0.1010  0.5125
 9217SOL     OW29903   7.055   5.337   3.339 -0.3384  0.6859 -0.1995
 9217SOL    HW129904   7.023   5.346   3.429  0.6269  1.8612  0.0531
 9217SOL    HW229905   7.005   5.402   3.290 -1.4330 -0.4982 -0.6972
 9218SOL     OW29906   1.179   7.684   2.390 -0.1538  0.6030  0.5896
 9218SOL    HW129907   1.148   7.596   2.408 -0.8549  0.4567 -1.1818
 9218SOL    HW229908   1.275   7.677   2.393 -0.1121 -0.7500 -1.6544
 9219SOL     OW29909   0.034  10.351   5.053 -0.1112 -0.7297 -0.7270
 9219SOL    HW129910  -0.008  10.435   5.070  1.9414  0.2160 -0.0576
 9219SOL    HW229911   0.072  10.361   4.966  1.1894 -0.4978 -0.1429
 9220SOL     OW29912   9.619   2.028   4.796 -0.4017  1.4265  0.2047
 9220SOL    HW129913   9.557   1.957   4.780  0.8972  0.8291 -2.8926
 9220SOL    HW229914   9.564   2.102   4.825 -2.0773 -0.0780  1.0435
 9221SOL     OW29915   5.162   8.799   1.839 -0.0009  0.0120 -0.6489
 9221SOL    HW129916   5.147   8.713   1.799 -1.3959  0.9703 -2.3482
 9221SOL    HW229917   5.145   8.785   1.933  1.1120 -1.8167 -0.6753
 9222SOL     OW29918   3.075   3.255   1.153 -0.2751  0.1097  0.2296
 9222SOL    HW129919   3.066   3.246   1.059 -2.1156  1.7016  0.1772
 9222SOL    HW229920   3.007   3.197   1.190  0.8479 -0.9899  0.6304
 9223SOL     OW29921   0.244  10.239   4.336 -0.0340  0.4687  0.1106
 9223SOL    HW129922   0.181  10.171   4.362 -1.4295  1.2978 -0.9545
 9223SOL    HW229923   0.295  10.257   4.415 -1.4013  0.0478  1.1112
 9224SOL     OW29924   0.497   2.364   8.885 -0.8419  0.1833 -0.2350
 9224SOL    HW129925   0.534   2.436   8.936  0.4335 -0.5591 -0.0512
 9224SOL    HW229926   0.551   2.288   8.910 -1.0519 -0.4657 -1.6876
 9225SOL     OW29927   7.427   2.868   7.086  0.0949 -0.0989 -0.4565
 9225SOL    HW129928   7.503   2.913   7.124 -1.2522  1.8193  0.0641
 9225SOL    HW229929   7.428   2.894   6.994  0.5253 -0.7554 -0.6449
 9226SOL     OW29930   7.022   2.665   0.670 -0.1108  0.7981 -0.1737
 9226SOL    HW129931   7.005   2.657   0.576  0.7017  0.8542 -0.3299
 9226SOL    HW229932   7.018   2.575   0.702 -0.5392  0.7941 -0.2326
 9227SOL     OW29933   6.482   7.950   8.183 -0.0117  0.4834  0.4971
 9227SOL    HW129934   6.568   7.917   8.156  0.7004  1.3651  1.6115
 9227SOL    HW229935   6.489   8.045   8.175 -1.0335  0.5444  0.2053
 9228SOL     OW29936   6.776   9.037   5.396 -0.3982 -0.4120  0.1554
 9228SOL    HW129937   6.824   9.114   5.366 -1.0562  0.1283  0.4560
 9228SOL    HW229938   6.771   8.980   5.319 -1.6959  0.7635 -0.6817
 9229SOL     OW29939  10.424   4.110   4.193  0.3127  0.0853 -0.1807
 9229SOL    HW129940  10.374   4.188   4.169 -1.1630 -0.6403  0.3586
 9229SOL    HW229941  10.475   4.136   4.269 -0.7556  0.3489  0.4683
 9230SOL     OW29942   3.414   3.003   9.520 -0.2069 -0.2255  0.2452
 9230SOL    HW129943   3.432   3.040   9.607  0.2306  4.1225 -1.4339
 9230SOL    HW229944   3.491   2.949   9.501  0.0710 -0.6114  2.2300
 9231SOL     OW29945   7.995   1.077   5.122  0.1780  0.2386  0.3418
 9231SOL    HW129946   7.947   0.995   5.137 -0.6117  0.6742  0.2571
 9231SOL    HW229947   8.073   1.069   5.176 -0.2367 -0.2761  0.8777
 9232SOL     OW29948   0.249   2.807   5.795  0.4424  0.0693  0.0695
 9232SOL    HW129949   0.337   2.781   5.823  0.2682  0.0973  0.6621
 9232SOL    HW229950   0.194   2.785   5.870 -0.0036  0.3623 -0.1757
 9233SOL     OW29951   2.357   8.310   3.613 -0.2064 -0.0537  0.8892
 9233SOL    HW129952   2.394   8.378   3.671  1.2934  0.1026 -0.1876
 9233SOL    HW229953   2.433   8.277   3.565 -1.6734  1.7403 -3.0467
 9234SOL     OW29954   6.914   7.944   5.755 -0.0739  0.1595 -0.0790
 9234SOL    HW129955   6.845   7.966   5.692  0.1879  2.6399  0.3818
 9234SOL    HW229956   6.869   7.943   5.840  0.0280 -0.6326 -0.0326
 9235SOL     OW29957   7.711   6.203   9.360  0.0663  0.3176  0.2227
 9235SOL    HW129958   7.794   6.196   9.408  0.2837 -0.7416 -0.2749
 9235SOL    HW229959   7.645   6.211   9.429  0.4332 -0.5812  0.7047
 9236SOL     OW29960   4.940   2.041   8.986 -0.1685 -0.3102 -0.3234
 9236SOL    HW129961   4.924   2.123   9.033 -1.5027 -1.5039  1.4367
 9236SOL    HW229962   5.035   2.030   8.991 -0.0589  0.7162  0.1625
 9237SOL     OW29963   5.253   4.704   3.241 -0.1685 -0.6240 -0.0150
 9237SOL    HW129964   5.178   4.761   3.256 -0.5603 -0.9676 -0.6272
 9237SOL    HW229965   5.258   4.650   3.320 -0.3058 -0.3118  0.2095
 9238SOL     OW29966   9.472   7.642   8.513 -0.7013 -0.2044 -0.1402
 9238SOL    HW129967   9.460   7.575   8.445  0.9979  1.2286 -1.9980
 9238SOL    HW229968   9.394   7.697   8.507  0.7504  1.7985 -3.3552
 9239SOL     OW29969   6.966   2.985   5.521  0.6316 -0.3481 -0.2680
 9239SOL    HW129970   6.882   2.940   5.511  0.3620 -0.1971  1.1505
 9239SOL    HW229971   7.029   2.926   5.479 -0.0652 -0.8253 -0.6782
 9240SOL     OW29972   3.849   3.734  10.502  0.0962 -0.1311  0.2825
 9240SOL    HW129973   3.810   3.726  10.589  1.3124  1.2025  0.9818
 9240SOL    HW229974   3.820   3.820  10.470  1.0120  0.1130  0.0815
 9241SOL     OW29975   3.055   7.446   5.116 -0.0813 -0.2505  0.1012
 9241SOL    HW129976   2.961   7.457   5.132 -0.2640 -0.6682 -0.6651
 9241SOL    HW229977   3.067   7.469   5.024  0.5998 -0.0189  0.2430
 9242SOL     OW29978   7.300   2.174   6.954 -0.1646  0.2392  0.1595
 9242SOL    HW129979   7.356   2.183   7.031  0.7860 -0.4540 -0.4323
 9242SOL    HW229980   7.216   2.210   6.982  0.4108  0.8028  1.2400
 9243SOL     OW29981   5.853   4.147   4.967  0.6664  0.0322 -0.4538
 9243SOL    HW129982   5.928   4.168   4.912  0.6605  1.0849 -0.0913
 9243SOL    HW229983   5.826   4.060   4.939  1.2686  0.1422 -1.4230
 9244SOL     OW29984   3.838   2.725   5.823  0.4545 -0.0337  0.3613
 9244SOL    HW129985   3.862   2.766   5.740  0.6291  0.8414  0.8348
 9244SOL    HW229986   3.782   2.789   5.867  1.9346  0.3507  1.7651
 9245SOL     OW29987  10.303   8.062   1.168 -0.2560  0.3268  0.5474
 9245SOL    HW129988  10.237   8.079   1.100  0.4328 -0.5927 -0.3838
 9245SOL    HW229989  10.384   8.098   1.131  0.5660 -1.9996 -0.0814
 9246SOL     OW29990   3.665   6.751   0.857 -0.2398  0.0398 -0.0683
 9246SOL    HW129991   3.665   6.658   0.834  0.3076  0.1340 -0.4806
 9246SOL    HW229992   3.659   6.796   0.773  0.4021  0.3820  0.0628
 9247SOL     OW29993   5.960   0.778  10.513  0.3315 -0.2531 -0.2331
 9247SOL    HW129994   6.046   0.737  10.524 -0.2699 -1.8829 -1.3832
 9247SOL    HW229995   5.976   0.852  10.455  1.0114 -0.3419 -0.1667
 9248SOL     OW29996   1.982   5.735   7.655 -0.3831 -0.4782  0.1114
 9248SOL    HW129997   2.037   5.808   7.626 -1.7501  0.0848 -1.2249
 9248SOL    HW229998   2.028   5.697   7.730  1.5283  0.2898 -0.6274
 9249SOL     OW29999   4.063   1.102   0.080 -0.0196 -0.0567 -0.4633
 9249SOL    HW130000   4.155   1.093   0.106  0.2343  1.6069 -0.6473
 9249SOL    HW230001   4.014   1.066   0.154  0.7780  0.4389  0.3377
 9250SOL     OW30002  10.209   5.970   0.716 -0.3661  0.2276 -0.5336
 9250SOL    HW130003  10.285   6.016   0.680 -1.1952  0.6769 -1.7861
 9250SOL    HW230004  10.148   5.963   0.642 -1.6889  0.1918  0.5180
 9251SOL     OW30005   6.178   7.900   0.497  0.3533 -0.7692 -0.2370
 9251SOL    HW130006   6.231   7.819   0.492  1.4718 -0.1436  0.8670
 9251SOL    HW230007   6.222   7.960   0.437 -1.4432 -1.4335 -2.3554
 9252SOL     OW30008   0.106   4.728   3.315  0.1303 -0.4811 -0.1526
 9252SOL    HW130009   0.105   4.684   3.400 -1.8358  0.9457  0.6408
 9252SOL    HW230010   0.020   4.712   3.278 -0.0658  1.2910 -0.5629
 9253SOL     OW30011   3.817   1.716   3.735  0.1169 -0.5307  0.1592
 9253SOL    HW130012   3.743   1.655   3.732  0.8686 -1.4101 -1.0277
 9253SOL    HW230013   3.845   1.724   3.644  0.7921  0.6689  0.4540
 9254SOL     OW30014   1.815   6.458   7.396 -0.0816  0.5045 -0.0162
 9254SOL    HW130015   1.724   6.487   7.397  0.0942  1.0610  0.9724
 9254SOL    HW230016   1.809   6.364   7.382 -0.8772  0.3672  1.0526
 9255SOL     OW30017   9.569  10.371   9.753 -0.0446  0.2037  0.0035
 9255SOL    HW130018   9.582  10.466   9.752  1.1206  0.0801 -2.1811
 9255SOL    HW230019   9.570  10.346   9.661  2.2726 -2.2524  0.5727
 9256SOL     OW30020   0.555   6.194  10.558  0.0015  0.7324  0.1179
 9256SOL    HW130021   0.608   6.225  10.632  0.3967 -0.9672  0.5802
 9256SOL    HW230022   0.494   6.266  10.541 -0.8304  0.7844  2.8152
 9257SOL     OW30023   5.285   0.758   3.645 -0.6616 -0.2444 -0.2410
 9257SOL    HW130024   5.242   0.741   3.729  1.3446 -0.3639  0.8366
 9257SOL    HW230025   5.353   0.690   3.639  0.8880  1.2790 -0.7135
 9258SOL     OW30026   3.501  10.613   3.248  0.1573 -0.4849  0.3065
 9258SOL    HW130027   3.479  10.583   3.336  0.1414 -1.2620  0.0412
 9258SOL    HW230028   3.520  10.533   3.199 -1.0492 -0.1798 -0.7329
 9259SOL     OW30029  10.587   6.651   0.696  0.0867 -0.4338 -0.7093
 9259SOL    HW130030  10.605   6.692   0.611 -3.2861 -0.3044 -1.5199
 9259SOL    HW230031  10.542   6.719   0.746 -0.7182 -1.4428 -0.0233
 9260SOL     OW30032   1.308  10.242   5.310  0.3495  0.3151 -0.3183
 9260SOL    HW130033   1.220  10.252   5.347  1.1764  0.2689  1.8509
 9260SOL    HW230034   1.294  10.226   5.217 -2.0317 -1.7175  0.2847
 9261SOL     OW30035   9.286   0.250   0.531  0.1485 -0.1217  0.2260
 9261SOL    HW130036   9.326   0.328   0.493 -0.2512 -0.0199  0.0022
 9261SOL    HW230037   9.216   0.284   0.588  1.2340 -0.2382  1.6831
 9262SOL     OW30038   3.633   4.228   3.713  0.1949  0.0809 -0.3929
 9262SOL    HW130039   3.667   4.266   3.793 -1.3163 -0.1685  0.3995
 9262SOL    HW230040   3.709   4.183   3.674  1.0078  0.4273  0.7391
 9263SOL     OW30041   0.965   5.636   2.104  0.4508 -0.1108 -0.5144
 9263SOL    HW130042   0.939   5.571   2.168 -0.4406 -0.6104 -1.3488
 9263SOL    HW230043   1.035   5.686   2.146 -1.9746  1.4467  1.9560
 9264SOL     OW30044   4.126   8.978   7.077  0.2704  0.3618  0.1422
 9264SOL    HW130045   4.198   9.040   7.065  1.5082 -0.8836  0.9401
 9264SOL    HW230046   4.119   8.932   6.994  0.0232  0.8346 -0.1072
 9265SOL     OW30047   0.793   6.593   7.349 -0.2621  0.4040 -0.4463
 9265SOL    HW130048   0.790   6.687   7.368 -0.4513  0.7312 -1.9493
 9265SOL    HW230049   0.867   6.561   7.399 -1.1918  1.0201  1.4230
 9266SOL     OW30050   1.069   4.552   7.746  0.0046 -0.2630  0.1280
 9266SOL    HW130051   1.066   4.581   7.837 -0.1070 -0.2728  0.1272
 9266SOL    HW230052   1.162   4.539   7.728 -0.0501 -1.4220  0.6143
 9267SOL     OW30053   7.974   2.474  10.239 -0.4293  0.4827 -0.1108
 9267SOL    HW130054   7.882   2.475  10.266 -0.9736  2.1128 -1.8655
 9267SOL    HW230055   7.972   2.452  10.146  1.0682 -0.5567  0.0625
 9268SOL     OW30056   3.501   9.135   2.467  0.4554  0.1540 -0.9720
 9268SOL    HW130057   3.532   9.143   2.557 -1.4694  0.0498 -0.2379
 9268SOL    HW230058   3.427   9.195   2.461 -2.0023 -2.6708 -1.1994
 9269SOL     OW30059   3.547   2.937   6.173 -0.3061  0.0032 -0.7592
 9269SOL    HW130060   3.527   3.004   6.239 -0.2600 -0.1014 -0.6382
 9269SOL    HW230061   3.463   2.896   6.154 -0.0145 -1.4230  0.8241
 9270SOL     OW30062   5.143   0.467   6.464 -0.1936  0.3081  0.5102
 9270SOL    HW130063   5.126   0.536   6.528 -0.6558 -0.3364  1.0973
 9270SOL    HW230064   5.219   0.421   6.498  0.9144  1.2674 -0.5250
 9271SOL     OW30065   1.733   4.341   0.476  0.1628  0.0587 -0.2383
 9271SOL    HW130066   1.697   4.412   0.529 -1.1175  0.5347 -1.6746
 9271SOL    HW230067   1.795   4.383   0.417 -1.0695  0.1384 -1.5334
 9272SOL     OW30068   9.123   9.966   3.910 -0.0612  0.0564  0.1070
 9272SOL    HW130069   9.148   9.974   4.002 -1.2795  0.1911  0.4393
 9272SOL    HW230070   9.041   9.916   3.911 -1.2805  1.9445 -0.7139
 9273SOL     OW30071   9.172   7.166   0.277 -0.0115  0.1902  0.3062
 9273SOL    HW130072   9.083   7.166   0.241 -0.1504 -0.5804  0.6319
 9273SOL    HW230073   9.180   7.082   0.323  0.7056  0.4760  0.7281
 9274SOL     OW30074   1.346   0.186   4.890  0.1236  0.0139 -0.0459
 9274SOL    HW130075   1.293   0.109   4.874  0.7411 -0.5492  0.5474
 9274SOL    HW230076   1.435   0.152   4.904  1.0465  1.0516 -2.7835
 9275SOL     OW30077   8.338  10.130   5.029  0.0740  0.0908 -0.1615
 9275SOL    HW130078   8.287  10.058   5.064 -0.5573 -0.7245 -2.5316
 9275SOL    HW230079   8.424  10.092   5.011  0.1871  0.3177 -0.1047
 9276SOL     OW30080   7.360   2.310   1.796  0.0415 -0.2824  0.5179
 9276SOL    HW130081   7.451   2.316   1.826 -0.0799  0.2921  0.7926
 9276SOL    HW230082   7.308   2.344   1.869 -0.4013 -0.6547  0.3834
 9277SOL     OW30083   6.218   9.821   7.612  0.3342  0.4974 -0.2613
 9277SOL    HW130084   6.242   9.742   7.660 -0.9437  0.2909  0.0645
 9277SOL    HW230085   6.145   9.795   7.556 -0.4325  1.5394  0.2041
 9278SOL     OW30086   9.364   8.411  10.400  0.0738  0.5081 -0.2866
 9278SOL    HW130087   9.366   8.503  10.426 -0.2478  0.5636 -0.4562
 9278SOL    HW230088   9.279   8.380  10.430  0.0223  0.3684 -0.5830
 9279SOL     OW30089   2.785   9.280   8.885 -0.5166  0.6927  0.3553
 9279SOL    HW130090   2.702   9.271   8.840 -0.7965  2.3910  0.4629
 9279SOL    HW230091   2.791   9.203   8.942 -0.5617 -1.0311 -1.8559
 9280SOL     OW30092   4.752   9.590   5.040  0.5623 -0.2755  0.7499
 9280SOL    HW130093   4.796   9.508   5.021  0.3955 -0.6022  1.7220
 9280SOL    HW230094   4.822   9.654   5.047  0.8205 -0.6139  1.3722
 9281SOL     OW30095  10.140   0.891   0.274  0.5206 -0.3505 -0.4305
 9281SOL    HW130096  10.135   0.842   0.356 -0.6983  2.3737  1.2659
 9281SOL    HW230097  10.063   0.864   0.224 -0.9559  0.8195  1.1232
 9282SOL     OW30098   6.245  10.072   7.970  0.2084  0.6555 -0.6709
 9282SOL    HW130099   6.337  10.085   7.950  0.7170  0.3598  1.2516
 9282SOL    HW230100   6.241   9.986   8.012 -1.1672  0.0705 -1.8915
 9283SOL     OW30101   3.859   4.239   9.497 -0.4443 -0.1293  0.1690
 9283SOL    HW130102   3.951   4.252   9.476 -0.3187 -0.7001  0.3549
 9283SOL    HW230103   3.845   4.144   9.487 -1.0108 -0.0469  0.1282
 9284SOL     OW30104   8.296   9.622   9.675 -0.5443 -0.0882  0.3277
 9284SOL    HW130105   8.236   9.548   9.679 -0.0592 -0.4511  1.8182
 9284SOL    HW230106   8.368   9.593   9.620 -1.5201  0.2179 -1.1675
 9285SOL     OW30107   6.564   5.869   2.561 -0.3712 -0.6231  0.0829
 9285SOL    HW130108   6.541   5.887   2.652 -0.1295 -0.5995  0.1413
 9285SOL    HW230109   6.608   5.784   2.564  1.7233  0.3946  0.3371
 9286SOL     OW30110   6.722   3.144   7.805  0.4637 -0.4644  0.1303
 9286SOL    HW130111   6.805   3.169   7.764 -0.0177 -1.2911 -1.4132
 9286SOL    HW230112   6.662   3.217   7.786  0.3247 -0.7109 -0.3847
 9287SOL     OW30113   8.878   1.335   8.520 -0.0289 -0.8811 -0.1290
 9287SOL    HW130114   8.813   1.265   8.520 -2.2482  0.9657  2.2067
 9287SOL    HW230115   8.911   1.337   8.610  0.3587  0.7128 -0.2742
 9288SOL     OW30116   1.394   7.013   9.866  0.4511  0.3358 -0.1205
 9288SOL    HW130117   1.449   6.959   9.924  2.0665 -0.1586 -1.9842
 9288SOL    HW230118   1.314   6.962   9.856  0.8234 -0.3736  0.3632
 9289SOL     OW30119   4.622   6.008   6.771 -0.1220  0.8330 -0.3167
 9289SOL    HW130120   4.684   6.081   6.773  1.0796 -0.1316 -1.0103
 9289SOL    HW230121   4.536   6.050   6.764  0.3992  2.2152  1.0016
 9290SOL     OW30122   9.547   8.079   5.119 -0.4725  0.4057 -0.4664
 9290SOL    HW130123   9.610   8.151   5.120 -0.6391  0.5575 -0.7126
 9290SOL    HW230124   9.463   8.121   5.101 -0.5340  0.1265 -0.8542
 9291SOL     OW30125   4.489   1.832   6.595 -0.2551  0.6257  0.0357
 9291SOL    HW130126   4.469   1.746   6.558 -3.2548  1.1993  0.0678
 9291SOL    HW230127   4.573   1.856   6.556  0.3041 -1.9730 -0.5424
 9292SOL     OW30128   1.607   7.303   5.610 -0.4117 -0.4889  0.0051
 9292SOL    HW130129   1.543   7.317   5.680 -1.4807 -2.2876 -0.5558
 9292SOL    HW230130   1.653   7.223   5.636  1.5486  0.6662  0.3034
 9293SOL     OW30131   6.052   7.481   7.136 -0.0645  0.2275  0.6029
 9293SOL    HW130132   5.980   7.525   7.182  0.3085  0.7352  0.7077
 9293SOL    HW230133   6.089   7.422   7.202 -0.9964 -0.7733  0.2650
 9294SOL     OW30134   6.510   9.510   0.019  0.1286 -0.3077 -0.5072
 9294SOL    HW130135   6.498   9.573   0.090 -2.8047 -0.9903 -0.2498
 9294SOL    HW230136   6.538   9.430   0.063 -1.2914 -0.6150 -0.1077
 9295SOL     OW30137   7.425   1.280   8.436  0.2162  0.1262  0.2210
 9295SOL    HW130138   7.331   1.267   8.448  0.3807  0.4826  2.3762
 9295SOL    HW230139   7.433   1.316   8.348 -1.6620  0.1152 -0.0039
 9296SOL     OW30140   6.691  10.245   4.489  0.5597 -0.0606  0.0416
 9296SOL    HW130141   6.757  10.296   4.443 -0.6323 -0.0373 -1.7515
 9296SOL    HW230142   6.614  10.302   4.491  0.1444 -0.6354  0.7519
 9297SOL     OW30143   5.536   0.271   2.511 -0.3634 -0.4590 -0.3870
 9297SOL    HW130144   5.517   0.364   2.524  0.3694 -0.2980 -0.4072
 9297SOL    HW230145   5.529   0.258   2.417  0.6681 -0.1556 -0.5145
 9298SOL     OW30146   2.369   5.312   6.140 -0.1718  0.1703 -0.0104
 9298SOL    HW130147   2.432   5.292   6.209  0.3227 -0.3501 -0.5973
 9298SOL    HW230148   2.284   5.304   6.182  0.0952 -0.9239  0.3531
 9299SOL     OW30149   7.888  10.269   0.575  0.2502  0.5797 -0.1827
 9299SOL    HW130150   7.953  10.339   0.584  1.1573 -0.2934  0.3617
 9299SOL    HW230151   7.827  10.283   0.647  0.0174  1.2275 -0.5063
 9300SOL     OW30152   0.267   5.777   0.095  0.4954 -0.4748 -0.0925
 9300SOL    HW130153   0.312   5.838   0.036  2.9111 -0.4846  1.6212
 9300SOL    HW230154   0.197   5.829   0.134  1.5636  0.8065  0.2074
 9301SOL     OW30155   6.214   4.806   5.619 -0.2890 -0.7456 -0.5141
 9301SOL    HW130156   6.231   4.737   5.684  0.0888 -1.1514 -1.0354
 9301SOL    HW230157   6.268   4.782   5.544  0.1728  0.3425 -0.5516
 9302SOL     OW30158   1.022   8.186   3.380 -0.0399 -0.5194 -0.1694
 9302SOL    HW130159   1.074   8.125   3.431  1.6648  0.2009 -0.9692
 9302SOL    HW230160   0.983   8.245   3.445 -0.2661 -1.3490  0.4663
 9303SOL     OW30161   5.499   3.944   3.687  0.2984 -0.2141 -0.4930
 9303SOL    HW130162   5.419   3.893   3.684 -0.3653  0.7767 -0.1873
 9303SOL    HW230163   5.557   3.902   3.624 -0.0770 -1.5672  0.0344
 9304SOL     OW30164   4.890   1.568   6.124  0.1681 -0.7079  0.2065
 9304SOL    HW130165   4.798   1.578   6.148 -0.1324 -0.9959 -0.7961
 9304SOL    HW230166   4.938   1.588   6.205 -0.6799  1.2179  0.2798
 9305SOL     OW30167   5.114   8.919   7.491  0.5627  0.2815 -0.3257
 9305SOL    HW130168   5.053   8.902   7.419 -1.0040 -1.1500  1.2254
 9305SOL    HW230169   5.198   8.936   7.448 -0.4685  0.2703 -2.4872
 9306SOL     OW30170   2.950   0.670   1.616  0.7244 -0.2772  0.2737
 9306SOL    HW130171   2.937   0.681   1.522  0.9406  0.2457  0.3019
 9306SOL    HW230172   2.866   0.635   1.647 -0.0571  1.3647  0.1717
 9307SOL     OW30173   2.714   3.381   9.601  0.1496  0.1790  0.1237
 9307SOL    HW130174   2.765   3.370   9.681 -0.4043 -1.9005  0.2585
 9307SOL    HW230175   2.780   3.398   9.533  0.7056  0.9973  0.8548
 9308SOL     OW30176   8.532   6.227   1.631  0.1355  0.2093 -0.2776
 9308SOL    HW130177   8.625   6.246   1.621  0.6152 -1.1457  1.2188
 9308SOL    HW230178   8.517   6.149   1.577 -0.2393  0.6419 -0.8147
 9309SOL     OW30179   3.178   4.308   1.578  0.3949  0.2250  0.1708
 9309SOL    HW130180   3.104   4.368   1.566 -0.1148 -0.0865  1.6108
 9309SOL    HW230181   3.212   4.329   1.665  1.7413  0.0552 -0.2874
 9310SOL     OW30182   3.244   8.380   3.353 -0.3119  0.2011 -0.3416
 9310SOL    HW130183   3.182   8.311   3.330  1.5780 -1.8950  0.5046
 9310SOL    HW230184   3.220   8.405   3.442 -1.2301  0.9724 -0.7798
 9311SOL     OW30185   6.620   7.063   1.842  0.2807 -0.0004 -0.5783
 9311SOL    HW130186   6.602   7.020   1.926 -1.9580  1.6921 -0.0923
 9311SOL    HW230187   6.713   7.085   1.846  0.9740 -2.6524  0.0847
 9312SOL     OW30188   0.248   5.602   3.793 -0.5193  0.1251 -0.5075
 9312SOL    HW130189   0.223   5.635   3.706  0.2929  1.7109 -0.1767
 9312SOL    HW230190   0.277   5.512   3.777 -0.6851  0.2850 -1.8327
 9313SOL     OW30191   5.788   5.679   6.072 -0.7925 -0.3348 -0.1938
 9313SOL    HW130192   5.698   5.705   6.087 -0.6539 -1.1265  2.6053
 9313SOL    HW230193   5.795   5.667   5.977 -3.7829 -0.8593 -0.4254
 9314SOL     OW30194   8.549   8.512   8.291 -0.2207 -0.1537 -0.8301
 9314SOL    HW130195   8.491   8.440   8.316 -1.5020  0.5777 -1.6102
 9314SOL    HW230196   8.631   8.469   8.265  0.5507 -1.0639  2.6055
 9315SOL     OW30197   5.708   2.991   7.019 -0.0686  0.5756 -0.1470
 9315SOL    HW130198   5.675   3.003   6.929 -0.2290  0.2897 -0.1271
 9315SOL    HW230199   5.638   3.026   7.075 -0.5538 -0.4527 -0.0871
 9316SOL     OW30200   6.016   7.554   7.958 -0.1800  0.0157  0.0303
 9316SOL    HW130201   6.099   7.541   8.002 -0.1678  0.8285  0.2635
 9316SOL    HW230202   6.014   7.488   7.889 -0.9289 -2.4142  2.2277
 9317SOL     OW30203   1.530   7.837   8.154 -0.2548 -0.5101  0.2712
 9317SOL    HW130204   1.618   7.829   8.118 -0.0450 -1.1898  0.9166
 9317SOL    HW230205   1.515   7.755   8.200 -0.0064  0.7546  2.8245
 9318SOL     OW30206   5.285   8.858   5.884  0.0851  0.8693  0.5583
 9318SOL    HW130207   5.271   8.947   5.852 -0.7139  0.6253  0.1851
 9318SOL    HW230208   5.213   8.843   5.946 -0.6018  0.0193 -0.4020
 9319SOL     OW30209   5.507   1.035   3.059  0.0074  0.7321  0.1954
 9319SOL    HW130210   5.465   0.987   2.988  1.4145 -1.3639  0.6818
 9319SOL    HW230211   5.536   0.967   3.120  2.8360  2.1203  0.5471
 9320SOL     OW30212   6.947   7.770   7.743 -0.0032 -0.0155  0.3012
 9320SOL    HW130213   6.944   7.804   7.654 -3.1841 -0.7654 -0.0136
 9320SOL    HW230214   7.037   7.784   7.771  0.2561  3.5614 -1.6952
 9321SOL     OW30215   5.048   2.851  10.178  0.2460 -0.2878 -0.4921
 9321SOL    HW130216   5.053   2.945  10.200  1.0739 -0.3468 -0.3978
 9321SOL    HW230217   4.955   2.835  10.163 -0.2643 -0.0246  2.0187
 9322SOL     OW30218   4.255   8.321  10.323  0.2259  0.1990 -0.0264
 9322SOL    HW130219   4.194   8.272  10.268 -0.1147 -1.0158  1.3593
 9322SOL    HW230220   4.248   8.280  10.409  1.9423  0.9737  0.5331
 9323SOL     OW30221  10.641   0.313   2.255  0.3824 -0.1523 -0.0785
 9323SOL    HW130222  10.593   0.326   2.337  0.4979 -0.2191  0.0008
 9323SOL    HW230223  10.588   0.357   2.188  0.6712  0.5583  0.1543
 9324SOL     OW30224   7.936   6.126   3.436 -0.3221  0.5598 -0.2928
 9324SOL    HW130225   7.991   6.102   3.511 -0.2793  0.5454 -0.3289
 9324SOL    HW230226   7.892   6.206   3.463 -1.4231 -0.2131  0.3368
 9325SOL     OW30227   8.965   3.331   3.811  0.0264 -0.2648  0.4541
 9325SOL    HW130228   8.919   3.343   3.727  0.2070  0.0632  0.3985
 9325SOL    HW230229   8.918   3.389   3.871  0.1260 -0.2234  0.4912
 9326SOL     OW30230   6.725   3.098   1.629  0.1822  0.4072 -0.9083
 9326SOL    HW130231   6.642   3.144   1.620  0.5483  0.8759 -2.1017
 9326SOL    HW230232   6.701   3.005   1.628 -0.4530  0.5305  0.3915
 9327SOL     OW30233   3.543   6.847   7.492  0.8861  0.2714  0.1356
 9327SOL    HW130234   3.542   6.908   7.566 -1.5648  1.9872 -1.2124
 9327SOL    HW230235   3.610   6.882   7.433  0.7779  0.5804  0.1968
 9328SOL     OW30236   6.552   2.607   7.446 -0.1009 -0.4952  0.2563
 9328SOL    HW130237   6.479   2.631   7.503  0.7598 -1.1401  1.6846
 9328SOL    HW230238   6.621   2.671   7.466 -0.7284  1.0906 -2.2075
 9329SOL     OW30239   5.465   2.558   7.887 -0.9211 -0.3989  0.1934
 9329SOL    HW130240   5.464   2.648   7.919 -0.6228 -0.8605  1.5348
 9329SOL    HW230241   5.552   2.525   7.908 -0.7403 -0.7566 -1.0280
 9330SOL     OW30242   9.527   3.851   9.586  0.0883 -0.0036  0.2878
 9330SOL    HW130243   9.548   3.903   9.663  1.2209  0.7085 -0.4614
 9330SOL    HW230244   9.483   3.912   9.527 -1.2504 -0.6804  0.5645
 9331SOL     OW30245  10.386   6.396   6.164  0.7599  0.0629  0.1217
 9331SOL    HW130246  10.415   6.397   6.255  1.2759  1.3010 -0.0261
 9331SOL    HW230247  10.397   6.306   6.136  0.4215 -0.3773  1.3353
 9332SOL     OW30248   3.134   5.187   6.060 -0.2567  0.0862  0.4226
 9332SOL    HW130249   3.043   5.192   6.028  0.3263  1.6810 -1.1397
 9332SOL    HW230250   3.182   5.248   6.004  1.4343  0.7467  2.4873
 9333SOL     OW30251   6.752  10.104   4.010  0.6095  0.1595  0.1758
 9333SOL    HW130252   6.697  10.043   4.059  1.1412 -1.5976 -1.3167
 9333SOL    HW230253   6.838  10.061   4.006  0.9638  0.9263 -1.0353
 9334SOL     OW30254   2.666   9.734   9.719  0.2152  0.1624 -0.7860
 9334SOL    HW130255   2.644   9.702   9.807 -0.1662  2.6305  0.1050
 9334SOL    HW230256   2.710   9.818   9.735 -0.5087  1.0238 -2.9785
 9335SOL     OW30257   9.541   0.339   5.645 -0.1884  0.3911  0.5113
 9335SOL    HW130258   9.548   0.278   5.571  1.1550 -0.1963  1.0995
 9335SOL    HW230259   9.513   0.422   5.605 -1.8673 -0.5330 -0.3230
 9336SOL     OW30260   6.604   7.034   9.149  0.3962  0.1391  0.3645
 9336SOL    HW130261   6.681   6.991   9.112  1.1194  0.2161  1.7364
 9336SOL    HW230262   6.634   7.073   9.231 -0.8978  0.9220  0.5022
 9337SOL     OW30263   5.494   7.010   3.547  0.6635 -0.2932  0.8112
 9337SOL    HW130264   5.550   6.933   3.538  1.1747 -0.0880  2.0465
 9337SOL    HW230265   5.470   7.011   3.639 -0.1528  0.4843  0.6044
 9338SOL     OW30266   1.611   9.182   0.769  0.0859  0.0845  0.1615
 9338SOL    HW130267   1.596   9.227   0.686  1.0943 -0.8788 -0.5772
 9338SOL    HW230268   1.694   9.136   0.756  0.2321 -0.1302  1.6911
 9339SOL     OW30269   4.468   3.174   0.997 -0.2453 -0.0444  0.8438
 9339SOL    HW130270   4.404   3.164   1.067 -1.0972 -0.6978  0.0088
 9339SOL    HW230271   4.441   3.110   0.931 -1.8375  3.1226 -1.8348
 9340SOL     OW30272   9.604   3.349   8.705  0.0191  0.1201 -0.0787
 9340SOL    HW130273   9.658   3.295   8.648  0.0553 -2.0295  1.8585
 9340SOL    HW230274   9.662   3.421   8.731  0.0360  1.0765 -2.5314
 9341SOL     OW30275   4.586   4.223  10.463  0.9366  0.7136 -0.2270
 9341SOL    HW130276   4.642   4.300  10.469 -0.1860  1.5638 -0.3580
 9341SOL    HW230277   4.554   4.210  10.552 -0.4918  1.6701 -0.5629
 9342SOL     OW30278  10.014   6.493   5.514 -0.4140  0.3701 -0.7747
 9342SOL    HW130279  10.057   6.555   5.455  1.3740  0.5173  0.5796
 9342SOL    HW230280  10.072   6.417   5.513 -1.1439 -0.2000 -0.3161
 9343SOL     OW30281   7.870   4.128   5.762 -0.5611  0.3453  0.1238
 9343SOL    HW130282   7.800   4.170   5.712 -0.1364  0.0705 -0.7185
 9343SOL    HW230283   7.949   4.177   5.738 -0.3142  0.0600  0.3478
 9344SOL     OW30284   9.130   0.120   0.264 -0.1397 -0.3441  0.3092
 9344SOL    HW130285   9.064   0.095   0.329  0.8548 -0.4250  1.3258
 9344SOL    HW230286   9.187   0.182   0.311 -0.4800  1.0776 -1.0708
 9345SOL     OW30287   9.078   4.800   1.394  0.0401  0.6593 -0.0296
 9345SOL    HW130288   9.077   4.895   1.408  1.2190  0.4828  1.5090
 9345SOL    HW230289   9.169   4.781   1.369  0.3549 -0.2876  1.7065
 9346SOL     OW30290   0.185   8.156   6.041 -0.2734  0.4265  0.2201
 9346SOL    HW130291   0.091   8.174   6.030 -0.6024 -0.1899  1.6475
 9346SOL    HW230292   0.222   8.239   6.071 -0.5919  0.3878  0.7428
 9347SOL     OW30293   6.616   2.694   1.234 -0.0198 -0.3393  0.1519
 9347SOL    HW130294   6.710   2.711   1.232 -0.3173  1.4007 -0.2411
 9347SOL    HW230295   6.609   2.600   1.218  1.6823 -0.6588  1.0674
 9348SOL     OW30296   4.103  10.509   8.990  0.0729 -0.3767 -0.1353
 9348SOL    HW130297   4.185  10.495   8.943  0.0077 -0.9329 -0.0915
 9348SOL    HW230298   4.044  10.548   8.925  0.7152  1.1610  0.1435
 9349SOL     OW30299   2.486  10.137   7.120  0.6428 -0.0882 -0.6431
 9349SOL    HW130300   2.519  10.064   7.173 -1.1648 -0.6965 -0.2514
 9349SOL    HW230301   2.563  10.190   7.099  1.8392 -1.5263 -0.0148
 9350SOL     OW30302   0.846   4.206   6.028  0.1777  0.0450 -0.0187
 9350SOL    HW130303   0.825   4.156   6.107 -1.8198 -1.3647 -1.3252
 9350SOL    HW230304   0.800   4.159   5.958  1.0604  1.8093 -1.8656
 9351SOL     OW30305   7.489   9.725   4.916 -0.0518 -0.2440 -0.3198
 9351SOL    HW130306   7.407   9.756   4.877  0.5517  1.7562 -0.1544
 9351SOL    HW230307   7.469   9.638   4.949 -1.3381 -0.9589 -2.7095
 9352SOL     OW30308   5.247   1.475   7.618 -0.2272  0.7470 -0.1933
 9352SOL    HW130309   5.195   1.483   7.538 -1.9148  0.8485  0.8636
 9352SOL    HW230310   5.241   1.382   7.640 -0.6236  0.8982  0.3491
 9353SOL     OW30311   0.954   4.918   1.824  0.5280 -0.1949  0.5405
 9353SOL    HW130312   1.031   4.867   1.797  0.4768 -0.5651  1.0768
 9353SOL    HW230313   0.960   4.922   1.919 -0.1880 -0.3510  0.5994
 9354SOL     OW30314   9.770   9.367   6.680  0.7267  0.2397 -0.0276
 9354SOL    HW130315   9.804   9.441   6.731  0.6997  0.1859  0.0676
 9354SOL    HW230316   9.768   9.294   6.741 -0.8259  0.5560  0.3461
 9355SOL     OW30317   0.535   3.246   2.828 -0.0337 -0.0162  0.1763
 9355SOL    HW130318   0.558   3.154   2.839 -1.3686 -0.2691  1.1278
 9355SOL    HW230319   0.556   3.266   2.737  0.1194 -1.3122 -0.0879
 9356SOL     OW30320   9.760   4.196   4.705  0.3680  0.0581 -0.5490
 9356SOL    HW130321   9.742   4.240   4.788 -1.1428 -0.2311 -0.6763
 9356SOL    HW230322   9.832   4.137   4.725  0.0593  0.0187  0.5694
 9357SOL     OW30323   8.604   4.506   6.189 -0.0289  0.0168  0.0321
 9357SOL    HW130324   8.579   4.598   6.182  0.3442  0.1700  0.6101
 9357SOL    HW230325   8.523   4.460   6.210 -0.0055  0.3885  1.0103
 9358SOL     OW30326   5.645   1.164   2.653  0.2030 -0.3575  0.2248
 9358SOL    HW130327   5.732   1.173   2.613 -0.2796  1.5703 -0.4757
 9358SOL    HW230328   5.663   1.157   2.747  1.1996 -2.0918 -0.0574
 9359SOL     OW30329   8.176   6.762   4.187 -0.3677  0.0665  0.1305
 9359SOL    HW130330   8.243   6.790   4.250 -0.0399 -1.3735  0.4554
 9359SOL    HW230331   8.133   6.843   4.161  0.5938  0.8763  0.9560
 9360SOL     OW30332   1.736   0.255  10.341 -0.4993  0.3658  0.4400
 9360SOL    HW130333   1.726   0.343  10.304  0.3604  0.9236  1.4947
 9360SOL    HW230334   1.772   0.269  10.428  1.1837 -1.0997  0.0416
 9361SOL     OW30335   6.881   7.465   2.046  0.0362 -0.0278 -0.1854
 9361SOL    HW130336   6.918   7.388   2.089  1.2510  1.1630  0.9722
 9361SOL    HW230337   6.823   7.504   2.112  0.0698  0.4981 -0.4582
 9362SOL     OW30338   2.282   0.440   5.143  0.4699 -0.5009 -0.5579
 9362SOL    HW130339   2.290   0.535   5.149  1.2307 -0.5699 -0.3600
 9362SOL    HW230340   2.193   0.425   5.114 -0.0220  0.2460  0.4958
 9363SOL     OW30341   8.498   1.435   5.006 -0.2640  0.5818  0.5325
 9363SOL    HW130342   8.592   1.424   4.994 -0.0636  1.3859  1.3091
 9363SOL    HW230343   8.460   1.352   4.975  0.6842  0.2849  0.1439
 9364SOL     OW30344   0.362  10.614   5.505  0.2616  0.6818  0.5703
 9364SOL    HW130345   0.297  10.642   5.568 -0.7689  1.1057 -0.6324
 9364SOL    HW230346   0.321  10.630   5.420  1.4711 -0.1712 -0.2040
 9365SOL     OW30347   6.601   9.296   4.975 -0.2852  0.0603  0.9473
 9365SOL    HW130348   6.648   9.215   4.956  0.1754  0.4249  0.5059
 9365SOL    HW230349   6.611   9.349   4.896 -0.8347  0.4329  1.1183
 9366SOL     OW30350   2.363   1.434   1.110 -0.2766 -0.4921 -0.0201
 9366SOL    HW130351   2.375   1.516   1.063  1.7802 -0.3758  0.6036
 9366SOL    HW230352   2.364   1.458   1.203 -0.3279 -1.1469  0.1588
 9367SOL     OW30353   2.199   3.439   3.075 -0.4130  0.2693  0.1818
 9367SOL    HW130354   2.233   3.513   3.124 -0.0628  0.2888 -0.0811
 9367SOL    HW230355   2.271   3.414   3.017  0.9103 -2.6212  2.8119
 9368SOL     OW30356   0.027   3.657   5.071 -0.4673  0.3768  0.7815
 9368SOL    HW130357  -0.044   3.681   5.011 -0.0442  1.2697  0.6288
 9368SOL    HW230358  -0.017   3.611   5.142 -0.8602 -1.7997 -0.7523
 9369SOL     OW30359   5.265   9.863   5.390  0.4810 -0.4321 -0.2972
 9369SOL    HW130360   5.306   9.896   5.471 -2.0177  1.4519  0.3181
 9369SOL    HW230361   5.254   9.941   5.336 -1.8496 -0.8828 -0.5691
 9370SOL     OW30362   6.768   0.665   1.345  0.2325  0.3081 -0.2251
 9370SOL    HW130363   6.738   0.704   1.263 -0.8650  1.0914  0.5116
 9370SOL    HW230364   6.826   0.731   1.383  2.7143 -1.0303 -1.4467
 9371SOL     OW30365   2.599  10.339   9.056  0.9263  0.3758 -0.2029
 9371SOL    HW130366   2.647  10.257   9.063  0.7404  0.3475  1.0298
 9371SOL    HW230367   2.621  10.373   8.969  2.0316 -0.3379 -0.2232
 9372SOL     OW30368   0.345   2.509   2.603 -0.3431  1.1282 -0.4453
 9372SOL    HW130369   0.317   2.570   2.671 -0.7590  0.0684  0.3551
 9372SOL    HW230370   0.266   2.460   2.581  0.1172  0.4494 -0.6193
 9373SOL     OW30371   0.577   8.099   1.961  0.3434 -0.0668 -0.6554
 9373SOL    HW130372   0.670   8.095   1.937  1.0333 -0.7056  1.7603
 9373SOL    HW230373   0.576   8.077   2.055 -2.2436  0.0973 -0.5709
 9374SOL     OW30374   3.734   3.737   2.388 -0.1888  0.4303  0.3852
 9374SOL    HW130375   3.673   3.776   2.451  0.7648  0.9398  1.0036
 9374SOL    HW230376   3.804   3.802   2.379  0.6241 -0.4491  0.2253
 9375SOL     OW30377   6.824   8.674   5.040 -0.1020 -0.1037 -0.0754
 9375SOL    HW130378   6.776   8.591   5.038  1.2757 -0.9705  0.6997
 9375SOL    HW230379   6.893   8.662   4.975 -0.1393  0.5996 -0.2452
 9376SOL     OW30380   8.349   7.838   9.434 -0.5313 -0.3100  0.0972
 9376SOL    HW130381   8.429   7.800   9.472 -0.5357 -1.0900 -0.6446
 9376SOL    HW230382   8.309   7.766   9.386 -1.4463  0.2010  0.0669
 9377SOL     OW30383   7.255   9.533   7.315 -0.5220 -0.6100 -0.5779
 9377SOL    HW130384   7.228   9.459   7.262 -1.9636 -0.6973  0.2289
 9377SOL    HW230385   7.178   9.553   7.369  0.9571 -0.6898  1.6539
 9378SOL     OW30386   1.104   5.008   7.940  0.7407 -0.3953 -0.0216
 9378SOL    HW130387   1.109   5.099   7.971  0.1697 -0.8333  1.4684
 9378SOL    HW230388   1.031   5.008   7.878  1.0716  0.2670 -0.4185
 9379SOL     OW30389   1.393   2.736   5.675  0.1193 -0.0451  0.4615
 9379SOL    HW130390   1.385   2.641   5.680 -0.5435  0.0083  0.5253
 9379SOL    HW230391   1.398   2.755   5.581  0.6795 -0.1733  0.4656
 9380SOL     OW30392   2.832   5.933  10.241 -0.0240 -0.4033 -0.0198
 9380SOL    HW130393   2.813   5.889  10.158 -0.1288 -0.9558  0.2966
 9380SOL    HW230394   2.866   5.864  10.298 -0.1770 -0.0748  0.4757
 9381SOL     OW30395   7.977   0.980   0.757 -0.0482 -0.0544 -0.5592
 9381SOL    HW130396   7.959   0.943   0.670  0.9974 -0.5763 -0.5690
 9381SOL    HW230397   7.922   0.930   0.816 -0.4714  0.0323 -0.8759
 9382SOL     OW30398   5.975   9.891   6.518 -0.3646 -0.1101 -0.9413
 9382SOL    HW130399   5.974   9.874   6.424  1.5548  0.7483 -1.1624
 9382SOL    HW230400   5.957   9.984   6.526 -1.3227 -0.3276 -0.3751
 9383SOL     OW30401  10.014   0.555   4.906 -0.0540 -0.4399  0.0568
 9383SOL    HW130402   9.920   0.573   4.906 -0.2342 -1.3146  0.6818
 9383SOL    HW230403  10.054   0.639   4.882 -0.9712  0.0778  0.2654
 9384SOL     OW30404   7.519   3.779   2.180  0.2192  0.1180 -0.1807
 9384SOL    HW130405   7.456   3.721   2.137  1.4132 -1.2678 -0.1174
 9384SOL    HW230406   7.473   3.811   2.258  0.0472 -2.0124  0.6523
 9385SOL     OW30407   6.944   7.493   2.872  0.1157  0.3139  0.5836
 9385SOL    HW130408   7.021   7.441   2.895  0.0659  0.2082  0.5124
 9385SOL    HW230409   6.975   7.584   2.873  1.0376  0.1405 -2.3854
 9386SOL     OW30410   4.992   4.888   3.199 -0.0578  0.2909 -0.0258
 9386SOL    HW130411   5.059   4.919   3.261  0.4770 -0.4641 -0.2139
 9386SOL    HW230412   4.926   4.957   3.199  1.0578  1.4046 -0.3675
 9387SOL     OW30413   3.184   7.877   4.929 -0.9112  0.4123  0.2102
 9387SOL    HW130414   3.180   7.807   4.863 -0.0750 -1.3225  1.8859
 9387SOL    HW230415   3.100   7.871   4.974 -0.6403  0.1312  0.6849
 9388SOL     OW30416   1.369   5.730   1.193 -0.3614  0.1922  1.0158
 9388SOL    HW130417   1.376   5.644   1.153  0.3527  0.3077  0.8735
 9388SOL    HW230418   1.359   5.790   1.119  0.9105  0.4000  0.9882
 9389SOL     OW30419   4.489  10.162   8.462  0.1125 -0.2530  0.3966
 9389SOL    HW130420   4.538  10.081   8.448 -0.5636 -0.3320 -2.1441
 9389SOL    HW230421   4.552  10.222   8.502  2.4433 -0.3063 -2.7863
 9390SOL     OW30422   9.866   8.075   7.292 -0.4192 -0.3802 -0.1817
 9390SOL    HW130423   9.925   8.099   7.220 -0.5193  1.5315  0.3084
 9390SOL    HW230424   9.779   8.072   7.252 -0.3567 -0.2411 -0.3303
 9391SOL     OW30425   1.752   1.604   4.963 -0.2267  0.3155 -0.0288
 9391SOL    HW130426   1.732   1.623   4.872  0.5296 -0.3196 -0.3328
 9391SOL    HW230427   1.843   1.575   4.963 -0.1109  0.6191  0.9728
 9392SOL     OW30428  10.082   4.905   1.312 -0.5563  0.7607 -0.2263
 9392SOL    HW130429  10.081   4.822   1.265 -1.2061 -0.5282  1.9618
 9392SOL    HW230430  10.012   4.897   1.377  0.4142  2.3991  1.0863
 9393SOL     OW30431   8.125   0.512   5.967 -0.0557  0.2724 -0.8659
 9393SOL    HW130432   8.036   0.520   6.001  0.0513 -0.1313 -0.4801
 9393SOL    HW230433   8.142   0.418   5.967  0.4641  0.3636 -0.6907
 9394SOL     OW30434   3.578   3.785   1.672  0.2349 -0.1983 -0.4451
 9394SOL    HW130435   3.565   3.879   1.657 -0.6558 -0.6089 -2.5687
 9394SOL    HW230436   3.598   3.778   1.765 -2.1343  1.8653  0.3034
 9395SOL     OW30437   2.609   3.664   9.106  0.6793  0.5682 -0.5652
 9395SOL    HW130438   2.613   3.583   9.054  0.6589  1.5713 -2.2187
 9395SOL    HW230439   2.612   3.635   9.197 -1.9314 -1.4662 -1.0174
 9396SOL     OW30440   5.967   1.594   1.731  0.2356 -0.1829  0.2315
 9396SOL    HW130441   5.983   1.537   1.656 -1.1841  1.0216 -1.0466
 9396SOL    HW230442   5.992   1.681   1.700  0.6261  0.1855  1.5304
 9397SOL     OW30443   8.582   0.551   2.101  0.2232 -0.4627  0.1288
 9397SOL    HW130444   8.547   0.513   2.021  0.8383 -0.5717 -0.0948
 9397SOL    HW230445   8.558   0.488   2.170 -0.2640 -0.3911  0.0263
 9398SOL     OW30446   5.906  10.027   5.703 -0.1132  0.9226  0.4488
 9398SOL    HW130447   5.862  10.059   5.782 -2.9648  0.2136 -0.7096
 9398SOL    HW230448   5.901  10.099   5.641  3.3215  1.9741  1.1865
 9399SOL     OW30449   2.103   4.275   0.533  0.2063  0.2365  0.3466
 9399SOL    HW130450   2.169   4.314   0.475  0.0847  0.2446  0.2121
 9399SOL    HW230451   2.027   4.261   0.476  0.1845 -0.0235  0.4349
 9400SOL     OW30452   4.009   5.302   1.950  0.6521 -0.1797  0.0580
 9400SOL    HW130453   4.057   5.338   1.875 -0.7306 -2.2125 -1.9334
 9400SOL    HW230454   4.021   5.207   1.943 -1.1259 -0.5447  1.2727
 9401SOL     OW30455   6.986  10.019   9.913 -0.7873 -0.1017  0.1423
 9401SOL    HW130456   7.062  10.053   9.961 -0.8119 -2.0987  1.7433
 9401SOL    HW230457   6.911  10.067   9.950 -0.4521  1.1026 -0.6761
 9402SOL     OW30458   6.496   4.001   0.552 -0.3377  0.5415 -0.0619
 9402SOL    HW130459   6.457   3.923   0.514 -0.8595  1.2886 -1.1309
 9402SOL    HW230460   6.590   3.992   0.535  0.0131 -1.1487  2.3125
 9403SOL     OW30461   9.493   3.640   3.970  0.0064  0.1659  0.3874
 9403SOL    HW130462   9.541   3.620   4.050  1.4590 -0.4397 -0.6088
 9403SOL    HW230463   9.558   3.676   3.910 -1.1922  1.3054 -0.3006
 9404SOL     OW30464   0.668   6.143   6.832  0.0475  0.1113  0.4874
 9404SOL    HW130465   0.616   6.076   6.787  0.0364  0.6112 -0.2615
 9404SOL    HW230466   0.634   6.226   6.799  0.1821  0.4931  1.2706
 9405SOL     OW30467   3.271   3.068   4.807 -0.0481  0.2207  0.8078
 9405SOL    HW130468   3.195   3.049   4.862 -0.4652 -0.5376 -0.0039
 9405SOL    HW230469   3.324   2.989   4.810  0.6793  0.7193  1.3024
 9406SOL     OW30470   9.341   6.728   8.409  0.3621  0.2407  0.4091
 9406SOL    HW130471   9.314   6.637   8.393  1.0357 -0.0884  1.0761
 9406SOL    HW230472   9.393   6.724   8.489  1.7338  0.9561 -0.4080
 9407SOL     OW30473   6.740   3.451  10.555  0.2651 -0.5240 -0.2359
 9407SOL    HW130474   6.654   3.490  10.567  0.8585  0.2751  1.8652
 9407SOL    HW230475   6.739   3.373  10.611  0.8429 -0.6472 -0.3856
 9408SOL     OW30476   6.671   7.132   4.911  0.7858  0.0552  0.1041
 9408SOL    HW130477   6.678   7.119   5.006  0.5152  0.8485  0.2347
 9408SOL    HW230478   6.667   7.227   4.899  0.8846 -0.0326 -0.7103
 9409SOL     OW30479   7.878   8.984   0.998  0.0243  0.0759 -0.1122
 9409SOL    HW130480   7.808   9.033   1.041 -0.4063 -0.3632 -0.3184
 9409SOL    HW230481   7.894   9.031   0.916 -0.4374 -0.1712 -0.3435
 9410SOL     OW30482   6.359   7.283   8.362 -0.0081 -0.3444  0.2242
 9410SOL    HW130483   6.432   7.315   8.309  1.2770 -1.0866  1.4543
 9410SOL    HW230484   6.350   7.191   8.337  0.0063 -0.4566  0.6154
 9411SOL     OW30485   5.023   1.924  10.514 -0.4182  0.0421 -0.1558
 9411SOL    HW130486   4.929   1.944  10.522 -0.3526 -0.2475  1.9194
 9411SOL    HW230487   5.027   1.829  10.518 -0.0111  0.0771  0.4641
 9412SOL     OW30488   6.874   4.697   3.396 -0.3641  0.0587  0.1516
 9412SOL    HW130489   6.781   4.697   3.375 -0.8222  0.0251  2.0114
 9412SOL    HW230490   6.892   4.608   3.427  0.5647 -0.2577 -1.1840
 9413SOL     OW30491   9.597   4.273   1.859  0.3569 -0.1709 -0.7173
 9413SOL    HW130492   9.641   4.288   1.943 -0.4443 -0.5077 -0.2305
 9413SOL    HW230493   9.510   4.312   1.870  0.0860 -0.6171 -1.2388
 9414SOL     OW30494   4.909   8.632   8.093 -0.2042  0.6844 -0.0675
 9414SOL    HW130495   4.977   8.589   8.041  0.3693  1.6847 -0.1853
 9414SOL    HW230496   4.870   8.562   8.146  0.8638  0.0769 -0.0644
 9415SOL     OW30497   0.000   3.988   2.222  0.3015 -0.1249 -0.5031
 9415SOL    HW130498   0.074   4.046   2.245  0.7195 -0.3788 -1.1918
 9415SOL    HW230499  -0.056   4.042   2.167  0.0110  0.0363 -0.0605
 9416SOL     OW30500   4.147  10.416   7.831 -0.1017  0.2399  0.6564
 9416SOL    HW130501   4.177  10.504   7.807 -1.3233  0.8710  1.3750
 9416SOL    HW230502   4.063  10.430   7.874  0.5097 -1.1022  2.4375
 9417SOL     OW30503   4.590   7.448   8.653  1.0760  0.0562  0.0262
 9417SOL    HW130504   4.507   7.437   8.699  0.3755  1.1621 -0.9005
 9417SOL    HW230505   4.654   7.464   8.722  0.6366 -1.3355  0.7875
 9418SOL     OW30506   4.061   3.980   3.606  0.5462  0.2951  0.0206
 9418SOL    HW130507   4.127   3.910   3.603 -0.4934 -0.7099 -0.2027
 9418SOL    HW230508   4.011   3.961   3.686  0.8403  1.3499  0.4650
 9419SOL     OW30509   3.836   3.401   9.294  0.1831 -0.6864  0.2529
 9419SOL    HW130510   3.888   3.323   9.276  0.9065 -0.2448  0.3877
 9419SOL    HW230511   3.880   3.442   9.369 -1.3935 -1.2426  1.5388
 9420SOL     OW30512   8.830   6.574   3.609  0.0145  0.2047  0.1453
 9420SOL    HW130513   8.847   6.479   3.611 -0.8943 -0.0327 -1.6710
 9420SOL    HW230514   8.757   6.586   3.669 -1.0471 -0.5446 -0.9531
 9421SOL     OW30515   5.997   0.629   2.832  0.0487  0.2199  0.0537
 9421SOL    HW130516   6.069   0.640   2.770 -0.5240  1.3255 -0.4456
 9421SOL    HW230517   6.005   0.539   2.862  0.8605 -0.0792 -0.9827
 9422SOL     OW30518  10.119   9.323   4.406  0.5385  0.1024 -0.5350
 9422SOL    HW130519  10.044   9.361   4.361  0.9987 -0.7115 -2.0842
 9422SOL    HW230520  10.175   9.291   4.335  0.9874 -1.8767  0.6236
 9423SOL     OW30521   6.148  10.291   7.806  0.9610 -0.3481 -0.1289
 9423SOL    HW130522   6.128  10.203   7.838  0.2979 -0.0833  0.2143
 9423SOL    HW230523   6.193  10.334   7.878  1.7293 -0.5542 -0.4717
 9424SOL     OW30524   2.870   8.247   6.566  0.3900 -0.4804 -0.1807
 9424SOL    HW130525   2.844   8.159   6.593  0.2399 -0.4847 -0.3426
 9424SOL    HW230526   2.791   8.286   6.529  0.2937 -0.0573  0.4419
 9425SOL     OW30527   6.852   4.527   3.708  0.2842  0.2770 -0.1974
 9425SOL    HW130528   6.930   4.502   3.658  0.8812  1.2398  0.2286
 9425SOL    HW230529   6.882   4.526   3.800 -0.7328 -1.2513  0.1510
 9426SOL     OW30530   2.690   8.132   9.797  0.1049  0.0088  0.5513
 9426SOL    HW130531   2.760   8.194   9.776  1.1949 -1.2702  0.2182
 9426SOL    HW230532   2.726   8.047   9.772 -2.2274 -0.5394 -1.2027
 9427SOL     OW30533   6.913   4.542   9.503  0.4006  0.3141  0.3720
 9427SOL    HW130534   6.998   4.563   9.541  0.3790  0.0049  0.5939
 9427SOL    HW230535   6.905   4.447   9.513  1.7601 -0.3357 -3.1320
 9428SOL     OW30536   6.959  10.495   0.163 -0.3399 -0.7506  0.4690
 9428SOL    HW130537   6.994  10.508   0.251  1.5079  0.0935 -0.3470
 9428SOL    HW230538   6.934  10.582   0.133 -0.0916 -0.8859 -0.1615
 9429SOL     OW30539   4.496   6.722   1.947 -0.1468  0.2412 -0.1801
 9429SOL    HW130540   4.476   6.643   1.896  0.3264  0.0431 -0.0606
 9429SOL    HW230541   4.587   6.742   1.927  0.6669 -0.9284  1.9732
 9430SOL     OW30542   1.738   2.532   6.569 -0.0840 -0.1725  0.2176
 9430SOL    HW130543   1.668   2.508   6.509  0.1072 -0.9830  0.3061
 9430SOL    HW230544   1.737   2.464   6.636  1.6734 -1.0100 -0.5242
 9431SOL     OW30545  10.565   3.020   4.442 -0.5179  0.4230 -0.2147
 9431SOL    HW130546  10.520   3.091   4.488 -1.1933 -0.6914  0.8835
 9431SOL    HW230547  10.522   2.940   4.471  0.5629 -0.5009 -1.0353
 9432SOL     OW30548   0.366   8.834   7.768 -0.1854  0.3125  0.2502
 9432SOL    HW130549   0.454   8.872   7.768 -0.5369  1.1528  0.7571
 9432SOL    HW230550   0.380   8.741   7.751  0.8442  0.3508  0.7947
 9433SOL     OW30551   5.969  10.627   0.078 -0.5189  0.1662 -0.3191
 9433SOL    HW130552   5.882  10.662   0.096 -0.6350 -0.3259  0.0723
 9433SOL    HW230553   5.953  10.548   0.026 -0.1974  1.7286 -3.0220
 9434SOL     OW30554   1.917   6.845   0.531  0.4620  0.2480  0.1892
 9434SOL    HW130555   1.909   6.844   0.626  0.3657  0.5208  0.1859
 9434SOL    HW230556   2.011   6.860   0.515  0.2066  2.1492  0.2603
 9435SOL     OW30557   3.672   9.271   1.689 -0.7302  0.2580  0.4084
 9435SOL    HW130558   3.666   9.366   1.698 -0.2459  0.2396  0.9984
 9435SOL    HW230559   3.652   9.237   1.776  0.2173 -0.1176  0.4938
 9436SOL     OW30560   8.078   1.646   1.054 -0.4666  0.5996 -0.1336
 9436SOL    HW130561   8.015   1.660   1.125  0.1638 -0.9995  0.7873
 9436SOL    HW230562   8.069   1.554   1.031  0.0136  0.8736 -1.4943
 9437SOL     OW30563   1.741   4.848   4.921 -0.3054  0.2270 -0.1057
 9437SOL    HW130564   1.730   4.810   5.008  1.5020  0.8307  0.4372
 9437SOL    HW230565   1.812   4.797   4.882 -1.4566 -0.3933 -1.4691
 9438SOL     OW30566  10.450   6.322   7.017  0.3699  0.3753  0.0085
 9438SOL    HW130567  10.503   6.394   7.051 -0.1067  0.4605  0.6094
 9438SOL    HW230568  10.386   6.306   7.087 -0.3455  0.2371 -0.6711
 9439SOL     OW30569   3.941   3.387   4.990  0.1348  0.0483  0.1592
 9439SOL    HW130570   3.915   3.373   5.081  0.2666  0.5757  0.2830
 9439SOL    HW230571   4.036   3.374   4.990  0.2044  0.5190  0.1998
 9440SOL     OW30572   7.754  10.112   6.879  0.2121 -0.2621 -0.0504
 9440SOL    HW130573   7.741  10.052   6.806 -0.8408 -0.9101  0.6362
 9440SOL    HW230574   7.667  10.149   6.895  0.5638  0.3596  0.4594
 9441SOL     OW30575   8.821   1.292   2.196  0.3328  0.4310  0.3496
 9441SOL    HW130576   8.734   1.308   2.159  0.1982  1.1188  0.9527
 9441SOL    HW230577   8.881   1.309   2.124 -0.0494 -0.7504 -0.2900
 9442SOL     OW30578   2.152  10.563   3.498 -0.3863  0.0163 -0.1234
 9442SOL    HW130579   2.179  10.542   3.587  0.3255  0.6555 -0.1719
 9442SOL    HW230580   2.226  10.612   3.462 -1.2592  1.0443 -0.5746
 9443SOL     OW30581   6.129   8.114   2.981 -0.1782  0.8832  0.7276
 9443SOL    HW130582   6.165   8.157   3.059  1.1892  1.2603 -0.0768
 9443SOL    HW230583   6.199   8.119   2.916 -0.0050 -2.3720  0.5038
 9444SOL     OW30584   4.896   0.724   5.759 -0.5510  0.0751  0.1031
 9444SOL    HW130585   4.816   0.682   5.726 -0.9115 -0.3208  1.4078
 9444SOL    HW230586   4.933   0.768   5.683 -2.0312  0.2916 -0.5357
 9445SOL     OW30587   9.099   8.033   1.560 -0.1765 -0.1827  0.1193
 9445SOL    HW130588   9.181   8.067   1.524  0.3719 -0.1093  1.3773
 9445SOL    HW230589   9.083   7.952   1.511  0.8586 -0.3923  0.0986
 9446SOL     OW30590   4.623   8.340   2.231 -0.0733  0.0653  0.2536
 9446SOL    HW130591   4.639   8.251   2.264  0.1147  0.4117  1.1176
 9446SOL    HW230592   4.695   8.392   2.266 -1.2699  0.9800  1.4695
 9447SOL     OW30593   9.032   0.974  10.318 -0.0208 -0.1277  0.2018
 9447SOL    HW130594   9.034   0.921  10.398  1.1294 -0.4220  0.0039
 9447SOL    HW230595   8.956   0.943  10.270  1.1551 -2.3328 -0.3639
 9448SOL     OW30596   8.285   2.208   7.648  0.0391 -0.2319  0.4681
 9448SOL    HW130597   8.376   2.228   7.624  0.1159  0.3473  1.2171
 9448SOL    HW230598   8.241   2.195   7.564  0.9499 -1.1414  0.1097
 9449SOL     OW30599   4.986   1.070   8.295 -0.2379 -0.3601 -0.4126
 9449SOL    HW130600   5.060   1.121   8.330  0.1877 -0.8350 -0.6069
 9449SOL    HW230601   4.969   1.109   8.210  0.5006 -0.9269 -0.8364
 9450SOL     OW30602  10.064  10.396  10.491  0.1669 -0.5106  0.1110
 9450SOL    HW130603  10.115  10.342  10.430 -0.0481  0.4338 -0.9491
 9450SOL    HW230604  10.126  10.461  10.524  0.1954 -0.7950  0.6306
 9451SOL     OW30605   9.288   8.463   3.570  0.3516  0.5824  0.1607
 9451SOL    HW130606   9.383   8.479   3.568  0.7808 -1.2708  1.8674
 9451SOL    HW230607   9.279   8.372   3.544 -1.1535  1.1566 -1.4638
 9452SOL     OW30608   9.018   7.864  10.475  0.1578 -0.2302  0.0831
 9452SOL    HW130609   8.956   7.799  10.510  1.4556 -0.5018  2.0172
 9452SOL    HW230610   9.099   7.814  10.461  1.9080  1.2612  3.7504
 9453SOL     OW30611   5.412   5.012   1.852  0.2701  0.0282 -0.3074
 9453SOL    HW130612   5.321   4.983   1.848  0.2055  0.0598  0.7818
 9453SOL    HW230613   5.455   4.947   1.908  1.0652 -0.3408 -1.3161
 9454SOL     OW30614   1.441   9.329   9.838  0.0499  0.5571  0.6176
 9454SOL    HW130615   1.419   9.364   9.925  0.0170  3.1441 -0.3575
 9454SOL    HW230616   1.359   9.333   9.789  0.3860  0.4624  0.0403
 9455SOL     OW30617   6.387   0.023   6.886  0.6335 -0.2061  0.1122
 9455SOL    HW130618   6.389  -0.010   6.975 -1.1220 -0.8869 -0.0677
 9455SOL    HW230619   6.341   0.107   6.892  0.4201 -0.3011 -0.1576
 9456SOL     OW30620   8.903   3.877  10.206  0.5457 -0.1021 -0.2596
 9456SOL    HW130621   8.819   3.867  10.162  0.4287  1.9583 -0.6360
 9456SOL    HW230622   8.898   3.821  10.283  0.3415 -2.9974 -2.2406
 9457SOL     OW30623   7.430   6.703   4.804 -0.3832 -0.3643 -0.2013
 9457SOL    HW130624   7.516   6.691   4.763 -1.1306 -1.6886 -1.5146
 9457SOL    HW230625   7.391   6.615   4.804 -1.5907  0.1378  0.7096
 9458SOL     OW30626   7.382   3.234   0.658 -0.7777  0.2776  0.1220
 9458SOL    HW130627   7.462   3.216   0.608  0.4951  0.8455  1.8742
 9458SOL    HW230628   7.327   3.157   0.643  1.0190 -1.1743  0.6305
 9459SOL     OW30629   5.116   0.592   1.015 -0.1225 -0.2463 -0.1467
 9459SOL    HW130630   5.142   0.557   0.930  0.2910  1.5116 -0.7838
 9459SOL    HW230631   5.165   0.674   1.023 -0.5302 -0.1395  1.5719
 9460SOL     OW30632   7.148   3.367   9.751  0.3317  0.0983  0.3344
 9460SOL    HW130633   7.179   3.419   9.677  0.2615  0.6249  0.6715
 9460SOL    HW230634   7.212   3.296   9.759  1.9888  1.6412  1.5551
 9461SOL     OW30635   4.716   3.630   0.848  0.7222  0.3377 -0.1972
 9461SOL    HW130636   4.687   3.676   0.927 -2.0177 -0.0199 -0.9057
 9461SOL    HW230637   4.713   3.537   0.873  0.2396  0.2454 -0.5983
 9462SOL     OW30638   7.168   9.262   1.149 -0.1674 -0.3558  0.1536
 9462SOL    HW130639   7.143   9.171   1.163  1.3097 -0.6881  0.8456
 9462SOL    HW230640   7.091   9.312   1.175 -1.4084 -1.4196 -1.3163
 9463SOL     OW30641   5.312   7.535   1.853  0.0817 -0.1641 -0.1878
 9463SOL    HW130642   5.273   7.476   1.917  0.2397  0.6810  0.6995
 9463SOL    HW230643   5.368   7.478   1.800  0.1188 -0.8402  0.5529
 9464SOL     OW30644   2.997   8.039   4.034  0.3750 -0.2952 -0.5003
 9464SOL    HW130645   2.972   8.095   3.960 -0.3190 -0.3358 -0.2949
 9464SOL    HW230646   2.936   7.966   4.031  0.5592 -0.4670 -0.0832
 9465SOL     OW30647   5.066   4.114   2.437  0.3174  0.8354 -0.1849
 9465SOL    HW130648   5.018   4.083   2.361  1.6017 -4.4388  0.7531
 9465SOL    HW230649   4.999   4.126   2.505 -0.2947 -2.5496 -0.0027
 9466SOL     OW30650   0.288   9.276   7.603  0.2838 -0.4802  0.4491
 9466SOL    HW130651   0.270   9.269   7.509 -0.5972  0.9417  0.4882
 9466SOL    HW230652   0.356   9.344   7.609  0.0229 -0.2536  0.8711
 9467SOL     OW30653   0.098   9.817   4.692 -0.2032  0.1443 -0.0976
 9467SOL    HW130654   0.039   9.786   4.761  0.6961 -1.3858  0.0363
 9467SOL    HW230655   0.181   9.835   4.738 -0.2510  1.3210 -0.4362
 9468SOL     OW30656   4.585   9.701   5.701 -0.5841 -0.2160 -0.4867
 9468SOL    HW130657   4.574   9.738   5.788  0.7134  0.1724 -0.4595
 9468SOL    HW230658   4.529   9.754   5.644  0.0022  0.7598 -0.1811
 9469SOL     OW30659  10.576   5.698   8.318  0.1656  0.8527  0.0810
 9469SOL    HW130660  10.669   5.706   8.339  0.0930 -1.0384  1.4349
 9469SOL    HW230661  10.569   5.616   8.269 -0.9846 -0.2658  1.9525
 9470SOL     OW30662   0.293   0.228   6.065 -0.1968 -0.1672  0.2065
 9470SOL    HW130663   0.321   0.143   6.031 -0.0891  0.1624 -0.5527
 9470SOL    HW230664   0.367   0.259   6.118 -1.5352 -2.1199  3.5588
 9471SOL     OW30665   1.994   3.824   3.684  0.2578  0.6417  0.1384
 9471SOL    HW130666   2.046   3.898   3.714 -3.1302  2.5034  2.0585
 9471SOL    HW230667   1.904   3.855   3.689 -1.2119 -2.8573 -1.3904
 9472SOL     OW30668   5.096   1.544   2.699  0.0775  0.1741  0.8103
 9472SOL    HW130669   5.169   1.487   2.674 -0.3465 -0.5662  1.1933
 9472SOL    HW230670   5.129   1.596   2.772  0.3859  0.2173  0.6389
 9473SOL     OW30671   0.698   1.298   3.836  0.2563  0.4914 -0.0632
 9473SOL    HW130672   0.688   1.373   3.778  0.1723  0.8718  0.4387
 9473SOL    HW230673   0.762   1.326   3.901  1.0668 -0.2724 -0.5234
 9474SOL     OW30674   2.871   7.568   3.602 -0.7277  0.5825 -0.2231
 9474SOL    HW130675   2.880   7.594   3.510  0.0784 -1.9558 -0.9532
 9474SOL    HW230676   2.861   7.473   3.599 -0.7208  0.4337  2.3376
 9475SOL     OW30677   5.214   4.597   2.604  0.1735  0.6443 -0.4964
 9475SOL    HW130678   5.170   4.535   2.662  1.2402  0.1675 -0.1645
 9475SOL    HW230679   5.243   4.544   2.529 -2.0181  1.4159 -2.0013
 9476SOL     OW30680   9.862   9.153   1.231  0.5202 -0.2159  0.4883
 9476SOL    HW130681   9.871   9.205   1.152 -2.2444 -3.3241 -2.1696
 9476SOL    HW230682   9.952   9.126   1.252  1.3191  0.3145 -1.8998
 9477SOL     OW30683   1.754   4.142   6.957  0.1369 -0.0015 -0.2045
 9477SOL    HW130684   1.677   4.088   6.940  0.6602 -0.0805 -2.6736
 9477SOL    HW230685   1.796   4.152   6.871  0.5242  3.6247  0.2704
 9478SOL     OW30686   5.451  10.456   0.983  0.5024  0.6334 -0.1089
 9478SOL    HW130687   5.472  10.484   0.894  0.4799  0.0243 -0.3053
 9478SOL    HW230688   5.391  10.524   1.016 -0.6230  0.1282 -1.0493
 9479SOL     OW30689   0.767   9.986   1.632  0.0874  0.3796 -0.5962
 9479SOL    HW130690   0.734   9.960   1.718  0.4642  0.0050 -0.5642
 9479SOL    HW230691   0.795  10.077   1.643  1.6779 -0.1670  0.1244
 9480SOL     OW30692   1.419   7.818   6.545 -0.1056 -0.2152 -0.4373
 9480SOL    HW130693   1.480   7.749   6.518  0.4965  0.3739 -0.6031
 9480SOL    HW230694   1.391   7.791   6.633  0.8203 -0.2160 -0.1277
 9481SOL     OW30695   5.321   0.782   1.640  0.1257  0.5763  0.2398
 9481SOL    HW130696   5.355   0.714   1.697 -1.1408  1.1669  1.7637
 9481SOL    HW230697   5.397   0.839   1.623  0.4829  0.4988  1.4960
 9482SOL     OW30698   1.336   2.389   6.078 -0.1595  0.1821  0.1338
 9482SOL    HW130699   1.314   2.472   6.036 -1.3728  0.0838  0.5191
 9482SOL    HW230700   1.427   2.372   6.053 -0.5443  0.5849 -1.6713
 9483SOL     OW30701   9.162   2.491   0.524  0.2079 -0.0197  0.0735
 9483SOL    HW130702   9.089   2.508   0.465 -0.0156  0.0058  0.3540
 9483SOL    HW230703   9.160   2.563   0.587 -1.0474 -1.2756  1.5670
 9484SOL     OW30704   1.797   8.629   4.479  0.0611  0.3523 -0.4558
 9484SOL    HW130705   1.889   8.629   4.506  0.2972 -0.4735 -1.1699
 9484SOL    HW230706   1.755   8.566   4.537  0.3063 -0.4892 -1.1622
 9485SOL     OW30707   2.082   4.471   4.412  0.3432  0.0259  0.2020
 9485SOL    HW130708   2.007   4.466   4.353  1.9391  0.6732 -2.0327
 9485SOL    HW230709   2.121   4.557   4.394  1.8817 -0.4836  0.9260
 9486SOL     OW30710   8.514   7.769   8.578 -0.2855 -0.0969  0.6828
 9486SOL    HW130711   8.537   7.861   8.589  2.0231 -0.4368 -0.7328
 9486SOL    HW230712   8.451   7.768   8.506 -1.2983  0.4254  1.5197
 9487SOL     OW30713  10.257   4.497   7.774  0.4160  0.4425  0.2847
 9487SOL    HW130714  10.327   4.530   7.830  0.3653 -0.2687  0.7672
 9487SOL    HW230715  10.303   4.459   7.699  0.5734 -0.3139  0.7529
 9488SOL     OW30716   3.931   3.926   0.156 -0.2564  0.7194  0.1511
 9488SOL    HW130717   4.021   3.952   0.175 -0.8174  1.1086  2.5358
 9488SOL    HW230718   3.940   3.837   0.119  1.0628  0.5707  0.7605
 9489SOL     OW30719   8.955   0.975   6.508 -0.1108  0.4623  0.2772
 9489SOL    HW130720   8.916   0.889   6.498  0.0808  0.3590  0.4202
 9489SOL    HW230721   9.043   0.958   6.540  0.0414  0.6960 -0.0129
 9490SOL     OW30722   6.045   3.456   1.891  0.1335  0.6386 -0.5872
 9490SOL    HW130723   6.021   3.378   1.941 -0.3390  0.5983 -0.8650
 9490SOL    HW230724   6.004   3.528   1.938  0.9733  0.7786 -0.0609
 9491SOL     OW30725   7.308   1.241   9.804 -0.4226  0.4653  0.4032
 9491SOL    HW130726   7.250   1.203   9.738  0.7010 -0.1681 -0.2479
 9491SOL    HW230727   7.396   1.214   9.777  0.2175  1.7193  1.1530
 9492SOL     OW30728   2.718   4.209   3.515 -0.8012 -0.1869 -0.0802
 9492SOL    HW130729   2.657   4.264   3.467 -2.3507 -3.0489 -1.6814
 9492SOL    HW230730   2.664   4.168   3.584  0.4271  0.6483  1.4454
 9493SOL     OW30731   3.324   7.804   4.407  0.0780  0.1563  0.2695
 9493SOL    HW130732   3.394   7.868   4.396 -0.0656 -0.0053 -2.3773
 9493SOL    HW230733   3.369   7.719   4.409  0.0905  0.1745  0.7206
 9494SOL     OW30734   2.594   4.232   5.395 -0.0070 -0.2687  0.0968
 9494SOL    HW130735   2.513   4.203   5.352 -0.1144  0.5765 -0.2893
 9494SOL    HW230736   2.587   4.197   5.484 -1.0401  0.2120  0.2243
 9495SOL     OW30737   4.317   7.121  10.165 -0.3372 -0.2092  0.1426
 9495SOL    HW130738   4.289   7.150  10.078 -0.9197 -0.6564  0.1769
 9495SOL    HW230739   4.407   7.154  10.173 -0.3016 -0.1051 -0.5995
 9496SOL     OW30740   0.294   1.914   9.724 -0.2533 -0.3415 -0.4269
 9496SOL    HW130741   0.383   1.930   9.755 -0.2335 -0.1151 -0.5975
 9496SOL    HW230742   0.266   1.836   9.772 -0.5771  0.5619  0.8796
 9497SOL     OW30743   1.924   2.053   4.571  0.2846  0.1383  0.0090
 9497SOL    HW130744   2.007   2.006   4.576 -0.2338 -0.8127 -0.1992
 9497SOL    HW230745   1.857   1.985   4.568 -0.4720  0.8779 -0.5108
 9498SOL     OW30746   3.319   1.413   6.496  0.3443  0.0236  0.2003
 9498SOL    HW130747   3.309   1.494   6.545  0.9720  0.4671 -0.3930
 9498SOL    HW230748   3.413   1.397   6.495  0.3320 -0.0084 -0.8147
 9499SOL     OW30749   0.666   2.068   3.988  0.1460 -0.1815 -0.2451
 9499SOL    HW130750   0.647   2.048   4.080 -2.7240  0.0966 -0.6698
 9499SOL    HW230751   0.707   1.989   3.954 -3.4662 -2.4300  0.0984
 9500SOL     OW30752   6.065   0.450   2.273 -0.4328  1.2549 -0.0439
 9500SOL    HW130753   6.146   0.399   2.274 -0.4918  1.1336  1.9118
 9500SOL    HW230754   6.000   0.391   2.236  0.1039  0.9229 -0.4714
 9501SOL     OW30755   9.583   4.596   6.341  0.6626  0.1087 -0.0624
 9501SOL    HW130756   9.501   4.622   6.384  0.7915 -0.5654  0.6178
 9501SOL    HW230757   9.651   4.625   6.402  0.8238 -1.5411  0.6123
 9502SOL     OW30758  10.330   5.719   8.828  0.5665 -0.7282 -0.0123
 9502SOL    HW130759  10.378   5.692   8.906  1.9000  1.6816  0.1113
 9502SOL    HW230760  10.246   5.751   8.860  1.0632  0.1390  0.4473
 9503SOL     OW30761   6.712   8.510   2.268 -0.3358  0.0732 -0.9633
 9503SOL    HW130762   6.669   8.579   2.218  0.7566  1.3557 -0.2094
 9503SOL    HW230763   6.795   8.549   2.296  0.2753 -1.5225 -0.4227
 9504SOL     OW30764   3.836  10.207   7.710 -0.3108  0.0543 -0.3616
 9504SOL    HW130765   3.784  10.285   7.729 -0.6956 -0.0194 -1.0691
 9504SOL    HW230766   3.841  10.160   7.793 -0.6982  0.4663 -0.1025
 9505SOL     OW30767   9.693   1.058   2.049 -0.3078 -0.7860  0.1358
 9505SOL    HW130768   9.625   1.112   2.089 -1.1463 -1.8007  0.1457
 9505SOL    HW230769   9.769   1.116   2.041 -1.1075  0.3190  0.3067
 9506SOL     OW30770   7.706   8.393  10.007  0.1338 -0.0805 -0.0787
 9506SOL    HW130771   7.731   8.484   9.990  2.3642 -0.7309 -0.5254
 9506SOL    HW230772   7.788   8.345  10.013 -0.9983 -2.2307 -0.5849
 9507SOL     OW30773   0.895   0.602   9.896 -0.6205  0.1503  0.3052
 9507SOL    HW130774   0.816   0.592   9.842 -0.9830  1.0704  0.6316
 9507SOL    HW230775   0.960   0.637   9.836 -0.6805  0.0774  0.1972
 9508SOL     OW30776   7.104  10.492   0.417 -0.6802  0.7317  0.3145
 9508SOL    HW130777   7.153  10.421   0.376 -0.9606  0.5087  0.3662
 9508SOL    HW230778   7.170  10.542   0.465 -0.2798  1.2033 -0.6872
 9509SOL     OW30779   6.181   8.473   2.258  0.1784 -0.1336 -1.1267
 9509SOL    HW130780   6.237   8.446   2.185  0.3664 -0.4984 -0.8536
 9509SOL    HW230781   6.162   8.391   2.305  0.9325  0.2207 -0.1567
 9510SOL     OW30782   6.124   8.373   9.481 -0.1927  0.3212 -0.5622
 9510SOL    HW130783   6.098   8.322   9.557 -1.8165  0.6954 -0.8398
 9510SOL    HW230784   6.186   8.316   9.434 -2.4256 -1.7165 -1.2033
 9511SOL     OW30785   3.443   9.967   7.958  0.3780 -0.3470 -0.1025
 9511SOL    HW130786   3.509   9.963   8.027 -0.1442  2.3612  0.6850
 9511SOL    HW230787   3.444  10.058   7.929 -2.1724 -0.4874 -0.8722
 9512SOL     OW30788   0.486   8.828   9.476  0.3298 -0.3364 -0.2050
 9512SOL    HW130789   0.418   8.892   9.456 -0.5157 -1.5728 -1.3645
 9512SOL    HW230790   0.504   8.842   9.569 -0.4880  0.9590 -0.2129
 9513SOL     OW30791   8.506   1.705   0.344  0.2317 -0.3777 -0.1058
 9513SOL    HW130792   8.525   1.661   0.261  1.1724  0.7397 -0.5121
 9513SOL    HW230793   8.421   1.670   0.371  1.5279 -3.5111  0.3484
 9514SOL     OW30794   2.009   9.071   7.114  0.2329 -0.0945 -0.2576
 9514SOL    HW130795   1.925   9.086   7.071  0.7969 -0.6641 -1.6085
 9514SOL    HW230796   2.051   9.157   7.115  1.0670 -0.4005 -2.7762
 9515SOL     OW30797   8.940   4.296   0.784  0.2991  0.0993  0.0598
 9515SOL    HW130798   8.968   4.205   0.779 -1.6211 -0.6192  1.1098
 9515SOL    HW230799   8.973   4.327   0.868 -1.2005 -0.4898  0.9126
 9516SOL     OW30800   6.327   8.502   8.892  0.4755 -0.1544  0.0766
 9516SOL    HW130801   6.320   8.577   8.951  0.9512 -0.3967  0.4411
 9516SOL    HW230802   6.236   8.482   8.869  0.3797  1.0276 -0.6579
 9517SOL     OW30803   3.884   0.399   4.285  0.0344 -0.0587  0.0766
 9517SOL    HW130804   3.835   0.431   4.361 -0.5129  1.3699 -0.8373
 9517SOL    HW230805   3.837   0.434   4.209 -0.0210 -2.2609 -0.9943
 9518SOL     OW30806   5.749   8.827  10.556 -0.3510  0.5000 -0.0668
 9518SOL    HW130807   5.726   8.778  10.477 -0.2984 -0.1977  0.3422
 9518SOL    HW230808   5.844   8.820  10.562 -0.4509 -0.5914  0.7569
 9519SOL     OW30809   4.759   0.486   4.708 -0.1089  0.0181  0.8340
 9519SOL    HW130810   4.829   0.465   4.646 -0.5167  0.9309  0.0353
 9519SOL    HW230811   4.751   0.581   4.705 -0.8601 -0.0109  1.4880
 9520SOL     OW30812  10.086   3.175   4.603  0.3883  0.3986  0.1999
 9520SOL    HW130813  10.003   3.185   4.556  0.3737 -0.4950 -0.0001
 9520SOL    HW230814  10.101   3.080   4.603 -0.6147  0.0700  3.7331
 9521SOL     OW30815   7.859   4.491   7.850  0.1288 -0.5448 -0.6236
 9521SOL    HW130816   7.862   4.398   7.871 -2.7738 -0.4631  0.6517
 9521SOL    HW230817   7.899   4.535   7.925  0.5635 -0.7103 -0.7559
 9522SOL     OW30818   4.406   3.718   4.924 -0.3014 -0.5644 -0.2009
 9522SOL    HW130819   4.444   3.630   4.917 -0.7107 -0.7766  0.2561
 9522SOL    HW230820   4.312   3.704   4.926 -0.4390 -0.0252 -1.5242
 9523SOL     OW30821   2.341   6.419   3.082 -0.0998  0.5194 -0.0597
 9523SOL    HW130822   2.258   6.378   3.108 -0.2720  0.9117  0.0207
 9523SOL    HW230823   2.401   6.345   3.069 -0.4273  0.2377 -0.0022
 9524SOL     OW30824   7.914   6.327   8.614  0.0894  0.0574 -0.3164
 9524SOL    HW130825   7.989   6.385   8.608  1.3255 -1.4328  0.1815
 9524SOL    HW230826   7.882   6.338   8.704 -0.6169  1.0521 -0.6746
 9525SOL     OW30827  10.540   6.207   2.912  0.3283 -0.0909  0.1960
 9525SOL    HW130828  10.568   6.117   2.932  0.6945  0.2039  1.0797
 9525SOL    HW230829  10.463   6.220   2.967 -1.6741 -0.9144 -2.2675
 9526SOL     OW30830   8.568   6.290   2.676  0.5508 -0.3229  0.3782
 9526SOL    HW130831   8.611   6.375   2.674 -2.0987  1.1388  1.1601
 9526SOL    HW230832   8.475   6.309   2.665 -0.1613 -3.1233  0.6588
 9527SOL     OW30833   8.228   0.168   0.570  0.0853 -0.6110  0.0790
 9527SOL    HW130834   8.173   0.145   0.495 -1.1879 -0.6801  0.9983
 9527SOL    HW230835   8.178   0.138   0.646  0.4479  1.1578  1.0618
 9528SOL     OW30836   0.923   4.889   0.069 -0.1260 -0.6085  0.3357
 9528SOL    HW130837   0.966   4.844   0.141 -1.5890 -1.5285  0.6795
 9528SOL    HW230838   0.848   4.833   0.047  0.3688 -0.4502 -2.0111
 9529SOL     OW30839   2.981   4.380   7.443 -0.0301 -0.6367 -0.0531
 9529SOL    HW130840   2.952   4.318   7.510  1.9505 -1.0097  0.5205
 9529SOL    HW230841   2.914   4.449   7.444  0.5971  0.1289  3.4017
 9530SOL     OW30842   3.093   3.240   8.710  0.2067 -0.0046  0.0934
 9530SOL    HW130843   3.096   3.334   8.694 -2.2461  0.0485 -0.4881
 9530SOL    HW230844   3.127   3.201   8.629 -1.2733  0.3906 -0.7550
 9531SOL     OW30845   4.687   9.777  10.045  0.6911  0.0021  0.9069
 9531SOL    HW130846   4.686   9.817  10.131  1.0317  3.4758 -0.5264
 9531SOL    HW230847   4.777   9.790  10.014  0.6079 -1.2942  0.0726
 9532SOL     OW30848   6.004   6.592   4.953 -0.3996  0.3222 -0.3906
 9532SOL    HW130849   5.918   6.616   4.919 -1.9281 -0.4613  2.4987
 9532SOL    HW230850   6.016   6.501   4.926 -0.8474  0.2106 -0.2317
 9533SOL     OW30851   0.453   4.675   3.514 -0.1381 -0.3091 -0.1951
 9533SOL    HW130852   0.484   4.731   3.442 -0.8902  1.8337  1.0277
 9533SOL    HW230853   0.428   4.593   3.472 -0.0983  0.6859 -2.2993
 9534SOL     OW30854   8.339   7.404   5.621 -0.2357 -0.1581  0.0248
 9534SOL    HW130855   8.260   7.353   5.607 -1.1047  0.9396  0.6868
 9534SOL    HW230856   8.308   7.495   5.626  1.2082  0.4139 -0.8086
 9535SOL     OW30857   4.511   1.646   8.151  0.1227  0.0889 -0.8872
 9535SOL    HW130858   4.443   1.703   8.189  0.0009  0.5601 -1.7958
 9535SOL    HW230859   4.464   1.567   8.124  0.6081 -1.4803  2.3583
 9536SOL     OW30860   8.040   2.515   7.062 -0.0154  0.0405  0.2468
 9536SOL    HW130861   8.061   2.441   7.120 -0.2880 -0.8213 -0.7326
 9536SOL    HW230862   7.953   2.495   7.028 -0.1276  0.8609  0.0289
 9537SOL     OW30863   0.270  10.347   1.909  0.4034 -0.0964  0.4356
 9537SOL    HW130864   0.262  10.331   2.003  1.3188  2.0756  0.9381
 9537SOL    HW230865   0.189  10.391   1.884  0.2362 -0.5141  0.2302
 9538SOL     OW30866   9.077   7.880   1.224  0.3883  0.0583 -0.6375
 9538SOL    HW130867   9.042   7.833   1.149 -1.0300  0.9981 -0.6049
 9538SOL    HW230868   9.018   7.955   1.235  0.6121 -0.0074  1.3598
 9539SOL     OW30869   6.640   5.937   1.394  0.0322  0.2467 -0.2100
 9539SOL    HW130870   6.555   5.893   1.393 -0.6260  1.4838 -0.8223
 9539SOL    HW230871   6.683   5.904   1.473 -2.1389  1.6600  1.7253
 9540SOL     OW30872   9.579   0.487   8.359 -0.1258  0.4926  0.1072
 9540SOL    HW130873   9.663   0.461   8.396 -0.5964 -1.7476 -0.2214
 9540SOL    HW230874   9.588   0.467   8.265 -1.2941 -0.7049  0.2193
 9541SOL     OW30875   3.270   6.170   8.110  0.0748  0.0303  0.4757
 9541SOL    HW130876   3.361   6.195   8.093  0.3195 -2.0776 -1.7771
 9541SOL    HW230877   3.255   6.195   8.201  2.6950  1.0176  0.7130
 9542SOL     OW30878   0.911   3.592   6.683 -0.4224  0.2390 -0.3733
 9542SOL    HW130879   0.960   3.515   6.712 -1.7954 -1.0758 -1.4398
 9542SOL    HW230880   0.893   3.640   6.764  0.7645 -0.3409  0.2743
 9543SOL     OW30881   1.833   7.908   7.732 -0.2144  0.0220  0.3388
 9543SOL    HW130882   1.928   7.912   7.733 -0.1784 -0.5579 -0.2154
 9543SOL    HW230883   1.809   7.909   7.639 -0.7584  0.3471  0.4753
 9544SOL     OW30884   8.312   5.820   8.939  0.0425 -0.2312  0.1326
 9544SOL    HW130885   8.353   5.734   8.928  0.4086  0.1918 -2.2296
 9544SOL    HW230886   8.219   5.804   8.924 -0.0233 -0.3469  0.6254
 9545SOL     OW30887   3.483   1.292   9.717 -0.0059 -0.0461  0.1817
 9545SOL    HW130888   3.469   1.315   9.626 -0.1751 -0.8988 -0.0199
 9545SOL    HW230889   3.481   1.196   9.718 -0.9373 -0.0335  1.2198
 9546SOL     OW30890   8.289   6.551   1.615  0.2133  0.2145 -0.0520
 9546SOL    HW130891   8.269   6.474   1.669  1.5640 -0.1896 -0.0997
 9546SOL    HW230892   8.331   6.612   1.675  2.1100 -0.4063 -0.6939
 9547SOL     OW30893   4.356   6.030   5.819 -0.1252 -1.1336 -0.2231
 9547SOL    HW130894   4.380   5.950   5.772  1.2903 -1.0093  0.2520
 9547SOL    HW230895   4.430   6.047   5.878  0.9258  2.0195 -2.2107
 9548SOL     OW30896   0.947  10.443   2.955 -0.0845 -0.4998 -0.4021
 9548SOL    HW130897   0.899  10.512   2.909 -0.8890 -0.0451  1.0270
 9548SOL    HW230898   0.961  10.478   3.043  1.0623 -1.4719 -0.1649
 9549SOL     OW30899   1.026   7.810   7.544  0.1307  0.1900 -0.2629
 9549SOL    HW130900   1.042   7.739   7.481 -0.9391 -1.0280  0.7693
 9549SOL    HW230901   1.077   7.785   7.621  0.0382  0.7361 -0.0223
 9550SOL     OW30902   3.721   1.423   0.838  0.5145  0.7753 -0.0385
 9550SOL    HW130903   3.757   1.509   0.859  1.9857  0.1241  0.3028
 9550SOL    HW230904   3.728   1.374   0.920 -0.4190  0.3568 -0.1980
 9551SOL     OW30905   1.352   0.468   7.530  0.0407  0.4776  0.9665
 9551SOL    HW130906   1.310   0.501   7.451 -0.1244 -0.3865  0.6790
 9551SOL    HW230907   1.443   0.496   7.523  0.0884  0.1746  0.3404
 9552SOL     OW30908  10.228   7.340   9.282 -0.3915  0.3673 -0.3855
 9552SOL    HW130909  10.308   7.355   9.233 -0.6401 -0.1674 -0.9618
 9552SOL    HW230910  10.255   7.290   9.359 -0.6220 -3.1541 -2.4136
 9553SOL     OW30911   1.597   1.860   7.379 -0.9731 -0.1996 -0.6759
 9553SOL    HW130912   1.515   1.832   7.419 -0.2891 -0.0941  0.9099
 9553SOL    HW230913   1.664   1.808   7.423  0.0298  1.5725  0.0020
 9554SOL     OW30914   2.985   8.550  10.307  0.1123  0.7591 -0.4966
 9554SOL    HW130915   2.977   8.477  10.369  0.8464 -0.3598 -1.6645
 9554SOL    HW230916   3.061   8.600  10.339 -0.5202  1.1598  0.4277
 9555SOL     OW30917   5.711   0.137   2.907 -0.4511  0.0032  0.1976
 9555SOL    HW130918   5.692   0.114   2.816  1.0801 -0.6260  0.0102
 9555SOL    HW230919   5.626   0.165   2.942 -1.2546 -0.5814 -1.1633
 9556SOL     OW30920   9.879   4.097   8.835 -0.6649 -0.4186 -0.2151
 9556SOL    HW130921   9.925   4.094   8.751 -1.0914 -0.2540 -0.4575
 9556SOL    HW230922   9.787   4.106   8.812 -0.6706  1.0798  0.2878
 9557SOL     OW30923   4.537   1.832   7.915 -0.5925  0.0808 -0.5740
 9557SOL    HW130924   4.493   1.766   7.969 -0.3232  0.6508  0.3496
 9557SOL    HW230925   4.631   1.818   7.931 -0.5313  0.6351 -0.4306
 9558SOL     OW30926  10.520   8.909   6.583 -0.1371 -0.6018  0.1201
 9558SOL    HW130927  10.437   8.887   6.543 -1.6242  0.6389  2.2654
 9558SOL    HW230928  10.531   8.846   6.654  0.4874 -0.4489  0.1723
 9559SOL     OW30929   6.275   4.782   0.579 -0.5290 -0.5519  0.6097
 9559SOL    HW130930   6.202   4.840   0.556 -1.8902 -1.4418  2.4155
 9559SOL    HW230931   6.233   4.705   0.618  1.3289 -1.7511  0.3436
 9560SOL     OW30932   4.144   4.223   9.031  0.3482 -0.3463  0.5513
 9560SOL    HW130933   4.087   4.156   8.993  1.1982 -0.0563 -1.3296
 9560SOL    HW230934   4.090   4.302   9.035  0.0117 -0.5841  0.6994
 9561SOL     OW30935   7.158   9.637   0.549 -0.2853  0.0099 -0.0660
 9561SOL    HW130936   7.154   9.659   0.642 -0.9155 -1.3200  0.2434
 9561SOL    HW230937   7.182   9.719   0.506  1.3775  0.3477  1.3798
 9562SOL     OW30938   1.805   8.872   8.275  0.5476 -0.2226  0.0578
 9562SOL    HW130939   1.861   8.888   8.351  0.3146  0.7110  0.0409
 9562SOL    HW230940   1.719   8.851   8.313  0.5425 -0.2006  0.0580
 9563SOL     OW30941  10.073   5.231   9.599  0.0658  0.4436 -0.8590
 9563SOL    HW130942  10.077   5.293   9.671 -0.4001 -1.6858  1.1081
 9563SOL    HW230943  10.148   5.173   9.613 -1.3611 -1.4302 -0.6468
 9564SOL     OW30944   8.510   1.852  10.346 -0.1361 -0.0435  0.1318
 9564SOL    HW130945   8.472   1.907  10.414  0.2839 -0.8187  1.0054
 9564SOL    HW230946   8.460   1.771  10.349 -0.0028 -0.1476 -0.3682
 9565SOL     OW30947   8.804   8.732   0.099 -0.5313  0.0047  0.2884
 9565SOL    HW130948   8.825   8.666   0.034  0.2973  2.0067 -1.5815
 9565SOL    HW230949   8.886   8.748   0.145 -0.5563  0.2168  0.2627
 9566SOL     OW30950   0.740   4.707  10.503  0.1608 -0.7913 -0.4982
 9566SOL    HW130951   0.707   4.661  10.580  0.7281  0.8206  0.7606
 9566SOL    HW230952   0.821   4.661  10.480  1.3047  0.1457  1.4064
 9567SOL     OW30953   0.370   3.550   6.794 -0.2513  0.3290  0.2025
 9567SOL    HW130954   0.441   3.490   6.813  0.6288  0.5590 -2.0436
 9567SOL    HW230955   0.290   3.501   6.815  0.5222 -0.3483  1.6371
 9568SOL     OW30956   7.000   6.975  10.276 -0.3172  0.1751  0.8321
 9568SOL    HW130957   7.031   6.887  10.257  0.8848  1.0960 -2.1428
 9568SOL    HW230958   6.904   6.968  10.274 -0.2338 -0.9695  0.1023
 9569SOL     OW30959   5.963   1.704   9.994  0.4323  0.0718 -0.0152
 9569SOL    HW130960   6.003   1.629   9.951 -1.6505 -1.8103  1.1114
 9569SOL    HW230961   6.034   1.741  10.048  1.4750 -1.1441 -0.4909
 9570SOL     OW30962   9.792   0.073   9.614  0.2931 -0.1065 -0.1715
 9570SOL    HW130963   9.884   0.051   9.627  0.5646  0.8146 -0.4608
 9570SOL    HW230964   9.774   0.050   9.523 -0.0109 -1.1104  0.1342
 9571SOL     OW30965   8.708   7.214   1.599  0.1448  0.5040  0.1164
 9571SOL    HW130966   8.739   7.178   1.682 -0.7231 -1.1206 -0.2145
 9571SOL    HW230967   8.687   7.137   1.547 -1.9416  1.5041 -0.6148
 9572SOL     OW30968   8.750   9.151   4.081 -0.0451 -0.2349 -0.7825
 9572SOL    HW130969   8.832   9.152   4.031  0.7715 -0.9454  0.4875
 9572SOL    HW230970   8.712   9.065   4.062 -2.2082  1.2150 -3.9150
 9573SOL     OW30971   0.207   7.791   0.401 -0.2948 -0.0303  0.4363
 9573SOL    HW130972   0.128   7.832   0.367  1.1689  2.3797 -0.2937
 9573SOL    HW230973   0.241   7.740   0.328 -0.0306  0.7124  0.0351
 9574SOL     OW30974  10.474   1.771   0.149  0.4926  0.1041  0.4498
 9574SOL    HW130975  10.411   1.813   0.090 -0.3849  1.1192  2.0163
 9574SOL    HW230976  10.420   1.737   0.220  1.6519  0.5951  1.6031
 9575SOL     OW30977   6.066   4.487   6.123  0.1525 -0.4751 -0.0853
 9575SOL    HW130978   6.106   4.401   6.113 -1.1802 -1.1236 -0.1273
 9575SOL    HW230979   5.984   4.481   6.074 -0.6919  0.3009  1.1617
 9576SOL     OW30980   9.888   7.526   0.442  0.0098 -0.0526  0.5068
 9576SOL    HW130981   9.882   7.472   0.521  1.0379 -0.7150  0.1510
 9576SOL    HW230982   9.981   7.539   0.429 -0.2010  2.7138  1.1451
 9577SOL     OW30983   1.732   5.134   8.398  0.0676 -0.1669 -0.5646
 9577SOL    HW130984   1.666   5.197   8.427  0.1848  0.5198 -1.7099
 9577SOL    HW230985   1.812   5.161   8.442  0.0629  0.3530 -0.8676
 9578SOL     OW30986   4.124   1.186   3.324  0.1503 -0.0493 -0.1978
 9578SOL    HW130987   4.058   1.199   3.393  1.3358  0.5301  0.8704
 9578SOL    HW230988   4.130   1.091   3.314 -3.2060 -0.1732 -2.7163
 9579SOL     OW30989   4.365   5.788   2.608  0.1117  0.5066 -0.2562
 9579SOL    HW130990   4.446   5.782   2.659  0.5685  1.7090 -0.8033
 9579SOL    HW230991   4.392   5.829   2.526 -0.7764 -0.5851 -1.1155
 9580SOL     OW30992   8.574   2.710   0.975  0.1055 -0.1735 -0.5499
 9580SOL    HW130993   8.583   2.617   0.993 -0.0961 -0.0712  0.1082
 9580SOL    HW230994   8.642   2.752   1.028 -0.8339  0.1743  0.4253
 9581SOL     OW30995   4.466   3.558   1.517  0.4931  0.0253  0.7061
 9581SOL    HW130996   4.400   3.494   1.543 -0.5199  0.6972 -0.1368
 9581SOL    HW230997   4.530   3.558   1.589  0.2062 -1.4848  0.9803
 9582SOL     OW30998   5.469   3.627   3.632  0.3576 -0.4025 -0.0763
 9582SOL    HW130999   5.439   3.552   3.581 -0.0699 -0.0165 -0.3992
 9582SOL    HW231000   5.397   3.690   3.626  1.6955  1.0708 -1.9300
 9583SOL     OW31001   6.335   6.564   4.589 -0.0404 -0.3312  0.3174
 9583SOL    HW131002   6.378   6.650   4.591  0.4153 -0.5321 -0.4672
 9583SOL    HW231003   6.351   6.527   4.676  0.1269  0.2023  0.5195
 9584SOL     OW31004  10.302   8.118   7.717 -0.3448  0.0205 -0.0987
 9584SOL    HW131005  10.241   8.187   7.741  0.7983  1.2181 -0.4703
 9584SOL    HW231006  10.248   8.050   7.679 -1.5345  0.6253  0.4580
 9585SOL     OW31007   4.067   2.173   3.569 -0.0228  0.0949  0.3165
 9585SOL    HW131008   4.047   2.244   3.508 -0.9853 -0.3096  0.1482
 9585SOL    HW231009   4.005   2.104   3.547 -0.8602  0.2001  2.1898
 9586SOL     OW31010   0.343   5.235  10.131 -0.4915  0.2476 -0.3708
 9586SOL    HW131011   0.309   5.260  10.217  0.2818  0.3536 -0.0859
 9586SOL    HW231012   0.433   5.268  10.130 -0.0705 -0.8484 -0.7337
 9587SOL     OW31013   3.943   8.534   6.919 -0.2673  0.2679  0.5113
 9587SOL    HW131014   4.008   8.536   6.989  0.6920 -1.4329 -0.2810
 9587SOL    HW231015   3.956   8.450   6.876 -1.5666  0.8006 -1.0330
 9588SOL     OW31016  10.605   7.944   0.570  0.3756  0.0492 -0.3411
 9588SOL    HW131017  10.558   7.868   0.605 -0.0939 -0.1211 -1.2840
 9588SOL    HW231018  10.690   7.942   0.613 -0.0528 -0.3306  0.5203
 9589SOL     OW31019   4.437   5.373   4.501 -0.0832  0.2140 -0.1299
 9589SOL    HW131020   4.364   5.332   4.548 -0.7507  0.7199 -0.6856
 9589SOL    HW231021   4.459   5.311   4.432  0.2216 -0.0782  0.2291
 9590SOL     OW31022   2.281   0.618   8.235 -0.5467  0.2237 -0.6703
 9590SOL    HW131023   2.231   0.562   8.176 -1.2786 -0.7298  0.8022
 9590SOL    HW231024   2.215   0.670   8.281 -0.0635  0.2588 -0.0056
 9591SOL     OW31025   6.749   8.742   8.124 -0.1147 -0.5738  0.0462
 9591SOL    HW131026   6.747   8.655   8.163 -0.2662 -0.4372  0.3471
 9591SOL    HW231027   6.689   8.794   8.178 -1.1170 -0.6323 -0.9703
 9592SOL     OW31028   6.661   0.388   5.857  0.5439  0.1537 -0.1642
 9592SOL    HW131029   6.592   0.324   5.869  2.3614 -2.2109 -1.5531
 9592SOL    HW231030   6.666   0.402   5.762  1.3131  1.0553 -0.0195
 9593SOL     OW31031   1.583   8.844   4.991  0.2494 -0.0442  0.3730
 9593SOL    HW131032   1.528   8.868   5.065  0.0655 -0.5628  0.4064
 9593SOL    HW231033   1.665   8.813   5.031  0.6075  0.8183  0.3212
 9594SOL     OW31034   6.277   1.775   3.734  0.1638 -0.3321  0.3877
 9594SOL    HW131035   6.287   1.858   3.781 -0.0672  0.4178 -0.8388
 9594SOL    HW231036   6.241   1.800   3.649 -1.2703 -1.8257  0.4965
 9595SOL     OW31037   6.603   3.140   0.385  0.3778  0.4796 -0.1223
 9595SOL    HW131038   6.689   3.099   0.395 -0.8536 -2.3815 -0.0303
 9595SOL    HW231039   6.589   3.188   0.467  1.6219  0.4535  0.1198
 9596SOL     OW31040   7.605  10.353   6.268  0.2816  0.1110 -0.0346
 9596SOL    HW131041   7.607  10.444   6.296  1.1497  0.2458 -0.4943
 9596SOL    HW231042   7.566  10.355   6.180 -0.3994 -0.0578  0.2533
 9597SOL     OW31043   9.126   1.952   4.463  0.2750  0.4306 -0.3094
 9597SOL    HW131044   9.044   2.001   4.463  0.5795  0.9450 -0.5075
 9597SOL    HW231045   9.113   1.883   4.399 -0.1653  0.2405 -0.0136
 9598SOL     OW31046   0.238   8.413   7.170  0.1114  0.2294  0.8308
 9598SOL    HW131047   0.321   8.456   7.152 -0.2282  1.5663  2.1959
 9598SOL    HW231048   0.250   8.371   7.255  0.1887 -1.8186 -0.1433
 9599SOL     OW31049   5.106   8.132   2.262  0.3012 -0.1458 -0.1963
 9599SOL    HW131050   5.185   8.083   2.239  0.2088  0.1166 -1.0926
 9599SOL    HW231051   5.042   8.110   2.195  0.3306  1.3520 -0.7645
 9600SOL     OW31052   1.704   0.557   1.750 -0.1400 -0.4326 -0.0257
 9600SOL    HW131053   1.746   0.625   1.803 -1.6045  0.4472  0.0451
 9600SOL    HW231054   1.684   0.487   1.811  0.0437 -0.3126  0.1741
 9601SOL     OW31055   0.334   1.245   5.327  0.1293 -0.5145 -0.1777
 9601SOL    HW131056   0.357   1.287   5.245  0.2190 -0.7716 -0.2849
 9601SOL    HW231057   0.390   1.287   5.392  1.4851 -1.6682 -0.5543
 9602SOL     OW31058   4.524   1.169   9.025 -0.3489 -0.0183 -0.0149
 9602SOL    HW131059   4.526   1.205   9.114 -2.5263  0.0186  0.0766
 9602SOL    HW231060   4.539   1.075   9.036 -0.3661  0.0220  0.3561
 9603SOL     OW31061   1.118   6.053  10.619  0.1929 -0.1422 -0.5287
 9603SOL    HW131062   1.102   6.000  10.697 -0.0702 -0.4564 -0.7952
 9603SOL    HW231063   1.062   6.015  10.552  0.8432 -0.2418 -1.0302
 9604SOL     OW31064   7.598   9.998   7.497  0.0682  0.4806  0.6602
 9604SOL    HW131065   7.504   9.984   7.512 -0.0552  1.3107  0.6925
 9604SOL    HW231066   7.641   9.928   7.547 -0.4803  0.9808  1.8653
 9605SOL     OW31067   1.572   4.498   0.617  0.1367 -0.5927  0.1686
 9605SOL    HW131068   1.589   4.543   0.699 -0.0037 -0.9372  0.3859
 9605SOL    HW231069   1.512   4.557   0.569 -0.4193 -0.7626  0.6462
 9606SOL     OW31070   4.118   5.628   5.983  0.2765  0.2010 -0.2804
 9606SOL    HW131071   4.198   5.681   5.984  0.7739 -0.5040 -1.0696
 9606SOL    HW231072   4.138   5.556   5.922 -0.3067 -0.9907  0.8708
 9607SOL     OW31073   0.945   9.909   5.470 -0.5405  0.1440 -0.1198
 9607SOL    HW131074   0.972   9.817   5.476 -0.8684  0.0836  0.6182
 9607SOL    HW231075   0.886   9.921   5.545 -1.9274  0.4658 -1.2195
 9608SOL     OW31076  10.013   1.143   8.863 -0.2693 -0.5337 -0.0135
 9608SOL    HW131077  10.013   1.202   8.787  0.5387 -0.7964 -0.2309
 9608SOL    HW231078  10.011   1.202   8.938  0.5146 -0.2086 -0.2308
 9609SOL     OW31079   0.685   3.583   1.772  0.6352  0.2217 -0.7088
 9609SOL    HW131080   0.722   3.671   1.760  2.3974 -0.4224 -0.2400
 9609SOL    HW231081   0.736   3.527   1.714 -1.0642 -0.3949 -1.6929
 9610SOL     OW31082   8.479   8.426   4.507 -0.4418 -0.7049  0.3596
 9610SOL    HW131083   8.414   8.416   4.437 -0.5435 -0.7022  0.4532
 9610SOL    HW231084   8.525   8.342   4.508  0.0877 -0.4279 -0.2369
 9611SOL     OW31085   4.844   5.593   2.634 -0.2172 -0.0573  0.6156
 9611SOL    HW131086   4.902   5.521   2.659  0.0050 -0.4082 -0.8326
 9611SOL    HW231087   4.872   5.667   2.688  2.4163  0.1416 -0.8996
 9612SOL     OW31088   1.957   9.840   3.796  0.1495  0.4284 -0.1487
 9612SOL    HW131089   2.008   9.860   3.717 -0.6513 -1.0319 -1.1027
 9612SOL    HW231090   2.022   9.808   3.859  0.6934  0.7818 -0.5199
 9613SOL     OW31091   2.732   8.063   6.220  0.0948 -0.1521  0.2613
 9613SOL    HW131092   2.709   8.102   6.304  0.2116  0.2680  0.0982
 9613SOL    HW231093   2.648   8.049   6.177 -0.0027 -0.9172  0.6891
 9614SOL     OW31094   7.099   4.787   7.786 -0.4111 -0.1573  0.6312
 9614SOL    HW131095   7.134   4.697   7.792  0.6283  0.2509  0.9277
 9614SOL    HW231096   7.104   4.808   7.693 -1.9098 -0.8713  0.3627
 9615SOL     OW31097   5.883   1.073   7.905 -0.1776 -0.3086  0.2747
 9615SOL    HW131098   5.865   0.990   7.948  2.8660  0.4612  3.5230
 9615SOL    HW231099   5.957   1.054   7.846 -0.9353 -0.3106 -0.6931
 9616SOL     OW31100   9.369   9.039   0.320  0.1293 -0.3623 -0.2502
 9616SOL    HW131101   9.357   9.107   0.387  1.4870 -0.4524  0.1062
 9616SOL    HW231102   9.280   9.009   0.301 -0.3360  0.1107  1.0553
 9617SOL     OW31103   0.840   8.785   7.420 -0.1118 -0.0807  0.0245
 9617SOL    HW131104   0.911   8.849   7.412 -1.0510  1.0813  0.7103
 9617SOL    HW231105   0.768   8.823   7.371 -0.3195 -1.1928 -0.5567
 9618SOL     OW31106   9.990  10.006   0.283 -0.1896 -0.2460  0.0857
 9618SOL    HW131107  10.046  10.049   0.219 -0.0950 -1.0723 -0.3993
 9618SOL    HW231108  10.004  10.055   0.364  0.6566  0.0288 -0.2150
 9619SOL     OW31109   1.984   7.004   0.195 -0.1274 -0.6257 -0.2551
 9619SOL    HW131110   2.024   6.998   0.281  0.0864  0.0918 -0.2988
 9619SOL    HW231111   2.008   7.091   0.163  0.2301 -1.0731 -1.2523
 9620SOL     OW31112   7.200   1.098   9.074  0.0310  0.3287  0.1060
 9620SOL    HW131113   7.223   1.190   9.066  1.6595  0.1789  2.1572
 9620SOL    HW231114   7.116   1.098   9.121 -0.6222  0.7442 -1.0156
 9621SOL     OW31115   5.952   2.017   4.291 -0.0926  0.2174 -0.3406
 9621SOL    HW131116   5.955   1.971   4.375  0.2783 -0.2573 -0.6102
 9621SOL    HW231117   6.009   1.966   4.234 -0.6246  0.3411 -0.9848
 9622SOL     OW31118   0.095   8.289   7.657 -0.5682  0.1375 -0.0683
 9622SOL    HW131119   0.131   8.360   7.709 -0.9731  0.0976  0.2784
 9622SOL    HW231120   0.000   8.301   7.662 -0.8164 -1.9014  2.2124
 9623SOL     OW31121   4.161   0.190   3.299  0.1953  0.3342  0.2995
 9623SOL    HW131122   4.107   0.189   3.378 -0.2693  0.0737 -0.0085
 9623SOL    HW231123   4.119   0.255   3.242 -0.0280 -0.1473 -0.0949
 9624SOL     OW31124   5.572   1.526   8.858  0.6359  0.0046 -0.3995
 9624SOL    HW131125   5.573   1.600   8.919 -0.0175 -0.3123  0.0004
 9624SOL    HW231126   5.660   1.488   8.865  0.9224  0.6437 -0.4899
 9625SOL     OW31127   9.677   5.998   2.552  0.0385  0.2313  0.0012
 9625SOL    HW131128   9.650   5.935   2.619 -1.3404  1.8675  1.0539
 9625SOL    HW231129   9.748   6.048   2.593 -0.3269  0.7653 -0.0004
 9626SOL     OW31130  10.546   1.593   7.160 -0.1522  0.2315 -0.2702
 9626SOL    HW131131  10.622   1.644   7.129  0.7568 -0.5942  0.5258
 9626SOL    HW231132  10.561   1.505   7.125 -1.4499  0.3627 -1.2172
 9627SOL     OW31133   1.878   8.425   3.697  0.4831  0.4893 -0.4271
 9627SOL    HW131134   1.966   8.425   3.659  1.1158 -0.7066  0.9843
 9627SOL    HW231135   1.851   8.517   3.695  1.6292  0.8277 -1.1382
 9628SOL     OW31136   0.247   9.085   9.632  0.4477  0.5537 -0.6102
 9628SOL    HW131137   0.281   9.053   9.548 -0.0660 -0.4470 -0.4494
 9628SOL    HW231138   0.153   9.067   9.629  0.1035  2.1328 -0.5254
 9629SOL     OW31139   2.417   6.087   0.704  0.3924 -0.1298  0.6006
 9629SOL    HW131140   2.327   6.066   0.678  0.8328  0.0474 -1.1929
 9629SOL    HW231141   2.468   6.076   0.624  1.4789  2.7986  0.7871
 9630SOL     OW31142   1.639   8.988   9.647  0.0484 -0.7578  0.0850
 9630SOL    HW131143   1.553   8.991   9.688  0.5850 -0.7256  1.2555
 9630SOL    HW231144   1.624   9.017   9.557 -0.8268  1.5204  0.8834
 9631SOL     OW31145  10.207   7.610   9.379  0.3966 -0.1821  0.3936
 9631SOL    HW131146  10.188   7.665   9.303 -0.3672 -1.1318 -0.1280
 9631SOL    HW231147  10.228   7.525   9.342 -0.8734 -0.9037  1.2550
 9632SOL     OW31148  10.591   6.392   4.283 -0.7205  0.1767  0.2330
 9632SOL    HW131149  10.545   6.368   4.203  2.9376  1.6628 -2.6389
 9632SOL    HW231150  10.567   6.484   4.299 -0.8028  0.1400  0.3199
 9633SOL     OW31151   5.803   2.390   5.624 -0.1425  0.2968  0.3376
 9633SOL    HW131152   5.764   2.329   5.686  0.6721  0.1152  0.6849
 9633SOL    HW231153   5.739   2.461   5.616 -0.9298 -0.4110  0.2126
 9634SOL     OW31154   7.843   5.996   1.998 -0.3344 -0.1539  0.6461
 9634SOL    HW131155   7.809   6.085   1.986  0.8149  0.1937 -0.2435
 9634SOL    HW231156   7.766   5.940   1.988 -0.6123  0.5411 -2.1110
 9635SOL     OW31157   8.666   7.631   8.771 -0.1967 -0.6455 -0.0955
 9635SOL    HW131158   8.759   7.653   8.776 -0.4422  0.1762  2.4758
 9635SOL    HW231159   8.629   7.693   8.708  0.2807  2.1284  2.1862
 9636SOL     OW31160   5.725   4.806  10.107 -0.1340 -0.8797  0.3807
 9636SOL    HW131161   5.680   4.806  10.022 -1.2763 -0.0174  0.9587
 9636SOL    HW231162   5.811   4.768  10.089  0.5834  1.4781 -1.6561
 9637SOL     OW31163   8.308   4.268  10.109 -0.5438 -0.5829 -0.0700
 9637SOL    HW131164   8.237   4.315  10.065 -1.9014  0.3076  2.8198
 9637SOL    HW231165   8.386   4.320  10.092 -1.0337 -0.1993 -1.2408
 9638SOL     OW31166   7.837   6.030   2.480  0.5286  0.3917 -0.3718
 9638SOL    HW131167   7.863   6.023   2.388 -1.8228  0.3227 -1.1145
 9638SOL    HW231168   7.759   6.086   2.478  0.3424  0.2684  1.5696
 9639SOL     OW31169   0.649   2.407   9.687 -0.1914 -0.0511  0.6365
 9639SOL    HW131170   0.668   2.458   9.608 -1.0600  0.4026  0.7062
 9639SOL    HW231171   0.692   2.455   9.757  1.0562 -0.7571  0.3830
 9640SOL     OW31172   1.790   7.539   1.219 -0.0462  0.5779 -0.1114
 9640SOL    HW131173   1.858   7.594   1.257 -0.8330  1.1799  0.4769
 9640SOL    HW231174   1.825   7.450   1.223  0.8613  0.9239 -0.2029
 9641SOL     OW31175   5.597   0.175   3.886  0.2050 -0.1775  0.4812
 9641SOL    HW131176   5.624   0.111   3.953  0.1478  0.5559  1.2202
 9641SOL    HW231177   5.666   0.171   3.820  3.1830  2.7641  3.0358
 9642SOL     OW31178   4.541   6.287   2.100 -0.1237  0.4152 -0.3866
 9642SOL    HW131179   4.460   6.308   2.054 -0.2818 -0.3687 -0.4854
 9642SOL    HW231180   4.573   6.207   2.057  0.1780  0.1640  0.2924
 9643SOL     OW31181   6.629   0.935   7.515  0.1147  0.0154 -0.2128
 9643SOL    HW131182   6.617   1.021   7.474  0.3641  1.2667  2.1466
 9643SOL    HW231183   6.601   0.948   7.606 -0.6477 -2.6605 -0.0009
 9644SOL     OW31184   0.377   1.416   3.707 -0.0447 -0.0646  0.1848
 9644SOL    HW131185   0.309   1.391   3.770  0.0644 -2.5632 -0.5778
 9644SOL    HW231186   0.393   1.336   3.656  2.1175  0.9887 -0.9233
 9645SOL     OW31187   6.100   5.015   1.314 -0.2399 -0.1271  0.1754
 9645SOL    HW131188   6.062   4.999   1.228 -2.2317 -0.6409  1.0905
 9645SOL    HW231189   6.033   4.984   1.376  1.5612 -0.7501  1.9088
 9646SOL     OW31190   5.672   6.880   6.297 -0.3369  0.1994  0.3929
 9646SOL    HW131191   5.721   6.912   6.221  0.0234 -0.3814  0.3734
 9646SOL    HW231192   5.590   6.930   6.296 -0.3705  0.1414 -0.4282
 9647SOL     OW31193   0.844   3.383  10.463 -0.0893 -0.6521 -0.0174
 9647SOL    HW131194   0.890   3.438  10.526 -0.2828  2.2353 -2.1873
 9647SOL    HW231195   0.751   3.401  10.478 -0.1127  1.5645 -2.1761
 9648SOL     OW31196   0.506   6.311   6.512 -0.0194 -0.1669  0.5414
 9648SOL    HW131197   0.526   6.311   6.606 -0.2874 -2.2152  0.6378
 9648SOL    HW231198   0.448   6.386   6.500 -0.1421  0.0110  2.0601
 9649SOL     OW31199   3.282   6.578   4.622 -0.0708 -0.5408 -0.0375
 9649SOL    HW131200   3.330   6.526   4.557 -1.9141 -3.4795  0.7973
 9649SOL    HW231201   3.217   6.518   4.658  0.2073  1.2307  3.8563
 9650SOL     OW31202   3.459   4.610   7.802 -0.2894 -0.0892 -0.0268
 9650SOL    HW131203   3.458   4.586   7.894  2.8281  1.1750  0.4896
 9650SOL    HW231204   3.411   4.693   7.798  0.0787  0.1650  0.6010
 9651SOL     OW31205   7.200   2.168   8.888 -0.4260  0.9318 -0.1944
 9651SOL    HW131206   7.118   2.140   8.930 -0.0372  1.4772  0.9870
 9651SOL    HW231207   7.172   2.230   8.821 -0.9543  1.7440  0.7474
 9652SOL     OW31208   0.781   3.846   3.954 -0.0155 -0.5690  0.0548
 9652SOL    HW131209   0.827   3.786   3.895 -1.4678 -2.0671  0.3507
 9652SOL    HW231210   0.810   3.933   3.928  2.1575 -1.3790 -0.4224
 9653SOL     OW31211   3.774   6.281   4.407 -0.0680  0.0798  0.6616
 9653SOL    HW131212   3.797   6.220   4.477 -2.5864  1.3876  2.8028
 9653SOL    HW231213   3.853   6.333   4.393  0.8941 -1.0901  1.5453
 9654SOL     OW31214   5.947   1.807   0.681 -0.4072 -0.6148  0.2726
 9654SOL    HW131215   5.943   1.716   0.713 -0.1032 -0.3028  1.2341
 9654SOL    HW231216   5.895   1.856   0.744  1.7345  0.3203  1.3922
 9655SOL     OW31217   4.681   7.233   8.258  0.1821 -0.2119 -0.1922
 9655SOL    HW131218   4.758   7.266   8.305  0.1300  1.8602 -1.4123
 9655SOL    HW231219   4.609   7.246   8.319  0.1949  1.9344 -0.5296
 9656SOL     OW31220   5.149   2.355   8.544 -0.1690  0.0800 -0.3280
 9656SOL    HW131221   5.166   2.344   8.450 -0.3216 -0.9895 -0.2473
 9656SOL    HW231222   5.054   2.355   8.551 -0.1679 -1.2261 -0.0488
 9657SOL     OW31223   4.620   6.496   6.605  0.3090  0.5348  0.0793
 9657SOL    HW131224   4.546   6.437   6.592  0.2482  0.7160 -0.4504
 9657SOL    HW231225   4.583   6.572   6.650  0.1430  0.6707 -0.2773
 9658SOL     OW31226   7.755   7.625   2.754 -0.4871  0.1141 -0.2424
 9658SOL    HW131227   7.691   7.641   2.686  0.2548  3.1042 -0.3576
 9658SOL    HW231228   7.708   7.574   2.820 -1.8879 -0.8230 -1.8826
 9659SOL     OW31229   2.675   6.993  10.202 -0.1535  0.3300  0.0338
 9659SOL    HW131230   2.766   6.967  10.190  0.2967  2.1761 -0.9463
 9659SOL    HW231231   2.669   7.078  10.159 -2.2223  0.4825  0.5383
 9660SOL     OW31232  10.374   2.182   5.179 -0.1107  0.1070 -0.1159
 9660SOL    HW131233  10.392   2.115   5.245 -0.8971 -0.6919 -0.6882
 9660SOL    HW231234  10.292   2.223   5.208 -2.3834 -2.5197 -2.2328
 9661SOL     OW31235   3.453  10.235   0.989  0.3027 -0.2681 -0.3638
 9661SOL    HW131236   3.413  10.286   1.059  0.8361  0.3431 -0.4916
 9661SOL    HW231237   3.431  10.282   0.909  0.7855 -0.2437 -0.4855
 9662SOL     OW31238   7.495   8.489   3.802 -0.6032 -0.4972 -0.3338
 9662SOL    HW131239   7.463   8.573   3.770 -0.3481 -1.2148 -2.6665
 9662SOL    HW231240   7.564   8.464   3.740 -1.4154 -2.8954 -0.3928
 9663SOL     OW31241   1.585   8.301   6.865  0.1820 -0.0142 -0.4075
 9663SOL    HW131242   1.620   8.386   6.890  0.3993 -0.6312  1.5192
 9663SOL    HW231243   1.547   8.266   6.945 -0.7736 -1.3295 -1.3947
 9664SOL     OW31244   3.839   8.509   8.070 -0.1928 -0.0165 -0.3282
 9664SOL    HW131245   3.804   8.594   8.045  3.1495  0.6697 -3.4239
 9664SOL    HW231246   3.926   8.528   8.105  0.1690 -2.1152  0.0607
 9665SOL     OW31247   7.355   8.952   2.351 -0.0253  0.2749 -0.2391
 9665SOL    HW131248   7.358   9.009   2.428  1.1924  1.1562 -0.9059
 9665SOL    HW231249   7.434   8.898   2.358 -0.4704 -0.3888 -0.3153
 9666SOL     OW31250   8.863   5.981   8.460 -0.2823  0.0105 -0.1170
 9666SOL    HW131251   8.833   5.915   8.398  0.9302 -0.2134 -0.5025
 9666SOL    HW231252   8.831   6.064   8.424 -0.2738 -0.1953 -0.6104
 9667SOL     OW31253   8.564   7.137   6.569  0.1789  0.1078  0.5898
 9667SOL    HW131254   8.474   7.149   6.598  0.8416  1.2988  2.3606
 9667SOL    HW231255   8.562   7.058   6.515 -1.6699 -0.7081  1.7513
 9668SOL     OW31256  10.075   9.203   5.475 -0.2716 -0.2498 -0.0374
 9668SOL    HW131257  10.119   9.188   5.391 -0.6987 -0.8952 -0.1492
 9668SOL    HW231258  10.017   9.128   5.486  0.5267 -0.7169  1.3310
 9669SOL     OW31259   2.732   6.401   6.833  0.4086 -0.0999  0.0117
 9669SOL    HW131260   2.706   6.456   6.907  2.4445  0.5665  0.2931
 9669SOL    HW231261   2.665   6.333   6.829 -0.2883  0.4097  1.8477
 9670SOL     OW31262   1.379   5.544   7.753  0.2484  0.9749 -0.2025
 9670SOL    HW131263   1.338   5.495   7.824 -1.4943  0.2334 -1.6412
 9670SOL    HW231264   1.313   5.608   7.727  0.7091  0.9973 -1.3861
 9671SOL     OW31265   9.031   8.374   3.847 -0.0015 -0.0981  0.0529
 9671SOL    HW131266   8.940   8.381   3.875 -0.5490 -1.3686 -1.2208
 9671SOL    HW231267   9.072   8.314   3.910  0.0373  0.6786  0.7765
 9672SOL     OW31268   9.398   9.979   3.072  0.1443  0.4885  0.0127
 9672SOL    HW131269   9.471  10.001   3.014 -0.8568  1.0857 -1.0740
 9672SOL    HW231270   9.388  10.056   3.129  1.8204 -0.5296  1.7845
 9673SOL     OW31271   9.536   3.132   9.644 -0.4581  0.3298 -0.0724
 9673SOL    HW131272   9.552   3.041   9.667  0.8768  0.7591  0.8153
 9673SOL    HW231273   9.611   3.180   9.679  0.4794  1.3933 -3.2338
 9674SOL     OW31274   9.811   9.241   6.134  0.5913 -0.1613 -0.0687
 9674SOL    HW131275   9.803   9.286   6.218  3.2513  0.7522 -0.1970
 9674SOL    HW231276   9.878   9.291   6.087  0.3401 -1.6059 -2.0863
 9675SOL     OW31277   4.489   5.979   2.442 -0.0899 -0.3105  0.1876
 9675SOL    HW131278   4.460   5.974   2.351  0.8901  1.8604 -0.2989
 9675SOL    HW231279   4.455   6.062   2.475  1.4626  0.0116  1.0827
 9676SOL     OW31280   9.315   4.005   5.729  0.1669  0.1379  0.3641
 9676SOL    HW131281   9.293   4.049   5.647  1.1177  1.8132  0.9567
 9676SOL    HW231282   9.259   3.928   5.730  0.2122  0.0057 -1.8957
 9677SOL     OW31283   1.120   3.005   6.776 -0.3315 -0.4686 -0.1827
 9677SOL    HW131284   1.215   3.007   6.783 -0.3760  0.1381  0.3885
 9677SOL    HW231285   1.091   2.956   6.852 -0.5424  0.7924  0.5749
 9678SOL     OW31286   6.637   7.583   0.777  0.3802 -0.0023 -0.0395
 9678SOL    HW131287   6.727   7.610   0.794  0.5145 -0.4807  0.0302
 9678SOL    HW231288   6.635   7.564   0.684  0.9708 -2.1963  0.3393
 9679SOL     OW31289   8.554   3.438   3.511  0.2076 -0.1901 -0.1813
 9679SOL    HW131290   8.466   3.420   3.480  0.4847 -0.2468 -0.9573
 9679SOL    HW231291   8.565   3.532   3.500 -0.0961 -0.0176  0.8499
 9680SOL     OW31292   1.766   2.982   1.450  0.3116  0.1307  0.2816
 9680SOL    HW131293   1.683   3.025   1.432  0.1736 -0.3182 -0.1697
 9680SOL    HW231294   1.826   3.015   1.383  0.5871  0.7007  0.8032
 9681SOL     OW31295   0.795   6.096   3.030 -0.3694  0.0399  0.5052
 9681SOL    HW131296   0.750   6.064   2.951  0.2555  2.0252 -0.7256
 9681SOL    HW231297   0.888   6.081   3.012 -0.1859  0.9984  0.6022
 9682SOL     OW31298   6.596   4.051   1.626  0.2875  0.2467  0.0140
 9682SOL    HW131299   6.594   4.072   1.533 -2.2347  2.4611  0.4471
 9682SOL    HW231300   6.637   4.127   1.667  2.2455 -1.1158  0.6941
 9683SOL     OW31301   2.523   3.947  10.284 -0.7550  0.2731  0.4701
 9683SOL    HW131302   2.487   3.922  10.369 -1.3831  2.4263  0.8884
 9683SOL    HW231303   2.603   3.994  10.305 -0.1934 -0.3464 -0.2268
 9684SOL     OW31304   0.662   2.966   4.930  0.4725 -0.3520  0.2506
 9684SOL    HW131305   0.609   3.014   4.866 -0.3618 -0.6821  0.6698
 9684SOL    HW231306   0.728   3.029   4.958 -0.1179  0.3070  0.2083
 9685SOL     OW31307   6.938  10.547   4.156  0.6701  0.7427  0.0929
 9685SOL    HW131308   6.857  10.504   4.182  0.5967 -0.2667 -1.6403
 9685SOL    HW231309   6.974  10.491   4.087  2.6068  1.4128  0.4889
 9686SOL     OW31310   3.256   9.849   3.726 -0.1208 -0.0574 -0.0818
 9686SOL    HW131311   3.239   9.875   3.817 -0.3721 -1.3382  0.2679
 9686SOL    HW231312   3.340   9.889   3.705 -0.6323  1.2458  0.3006
 9687SOL     OW31313   6.655   7.838   6.148 -0.2586 -0.1114 -0.2210
 9687SOL    HW131314   6.577   7.802   6.105 -1.3719  0.4411  1.2332
 9687SOL    HW231315   6.634   7.835   6.241  0.8873  1.3646  0.1251
 9688SOL     OW31316   8.045   9.941  10.271  0.1292 -0.2051  0.0292
 9688SOL    HW131317   8.004  10.026  10.258 -0.1336 -0.5125 -1.2783
 9688SOL    HW231318   8.136   9.961  10.296 -0.4005  0.4522  1.5579
 9689SOL     OW31319   5.268   4.988   7.670  0.0787  0.4698  0.4782
 9689SOL    HW131320   5.343   4.995   7.612 -0.3740  1.9262  0.0318
 9689SOL    HW231321   5.251   4.893   7.676  0.3652  0.2564 -1.4770
 9690SOL     OW31322   4.178   4.891   8.280 -0.3927  0.2386 -0.2202
 9690SOL    HW131323   4.227   4.965   8.244  0.8659 -0.1129  0.7155
 9690SOL    HW231324   4.135   4.927   8.358 -1.9008  0.6157 -1.1834
 9691SOL     OW31325   4.550  10.428   6.144 -0.4794 -0.1935 -0.0995
 9691SOL    HW131326   4.487  10.450   6.213 -2.0200 -0.0064 -1.5096
 9691SOL    HW231327   4.636  10.439   6.186 -1.3392 -0.6461  1.9489
 9692SOL     OW31328   6.850   0.810   9.361  0.1157  0.2272  0.4050
 9692SOL    HW131329   6.833   0.846   9.274  1.9755 -1.0393 -0.5458
 9692SOL    HW231330   6.847   0.886   9.420 -0.5111  1.2019 -0.8378
 9693SOL     OW31331   1.271   5.590   8.953 -0.2177 -0.0475 -0.5015
 9693SOL    HW131332   1.319   5.535   9.015  2.5341  2.0410 -0.5700
 9693SOL    HW231333   1.190   5.613   9.000  0.9656  0.0386  1.6305
 9694SOL     OW31334  10.187   1.147  10.229  0.4338 -0.0106 -0.1229
 9694SOL    HW131335  10.102   1.191  10.230  0.2684 -0.1790  3.0045
 9694SOL    HW231336  10.172   1.066  10.180 -0.9007  0.4663 -0.5382
 9695SOL     OW31337   8.433  10.230   1.625  0.4865  0.5760  0.0687
 9695SOL    HW131338   8.500  10.173   1.663  0.3616 -0.0185 -0.5747
 9695SOL    HW231339   8.478  10.312   1.606  0.8630  0.4195  0.2855
 9696SOL     OW31340   2.318   2.464   8.724 -0.3607  0.0491  0.2286
 9696SOL    HW131341   2.267   2.499   8.651  0.6258  0.5968 -0.2071
 9696SOL    HW231342   2.271   2.494   8.802 -2.5936 -2.2034 -0.0889
 9697SOL     OW31343   3.036   6.371   7.966 -0.0328  0.0568 -0.5081
 9697SOL    HW131344   3.129   6.363   7.947 -0.0750 -0.1485 -0.6392
 9697SOL    HW231345   3.003   6.281   7.962 -0.3996  0.2171 -1.3230
 9698SOL     OW31346   3.072   0.795   8.862 -0.6007 -0.5276  0.0635
 9698SOL    HW131347   3.113   0.881   8.846  1.4318 -1.7061 -1.6144
 9698SOL    HW231348   3.118   0.762   8.940 -0.7016 -0.5018  0.1349
 9699SOL     OW31349   2.222   1.370   0.132 -0.2097 -0.4812  0.5170
 9699SOL    HW131350   2.257   1.450   0.172  1.4401 -0.7255 -0.3562
 9699SOL    HW231351   2.185   1.322   0.206 -0.6967  0.7986  1.1489
 9700SOL     OW31352   4.950   8.889   6.936 -0.4611 -0.0149 -0.0659
 9700SOL    HW131353   4.968   8.965   6.882 -0.1644 -0.5112 -0.6801
 9700SOL    HW231354   4.929   8.819   6.874 -2.2543 -0.0565  0.5355
 9701SOL     OW31355   3.585   1.682   0.251  0.0529 -0.4465 -0.2757
 9701SOL    HW131356   3.678   1.677   0.272  0.3419  0.5034 -1.2168
 9701SOL    HW231357   3.552   1.593   0.264  1.3780 -1.0971 -1.1901
 9702SOL     OW31358   0.347   7.850   0.125  0.4541  0.4107  0.3094
 9702SOL    HW131359   0.392   7.894   0.197 -1.4564  2.4340  0.3713
 9702SOL    HW231360   0.406   7.859   0.050  0.7349  1.9004  0.6846
 9703SOL     OW31361  10.295   4.681   4.594 -0.6821 -0.4325  0.1886
 9703SOL    HW131362  10.246   4.698   4.674  0.8164  1.0288  0.8421
 9703SOL    HW231363  10.229   4.646   4.533 -2.7216  1.9783  0.8249
 9704SOL     OW31364   0.718   7.445  10.276 -0.0725  0.2165 -0.0902
 9704SOL    HW131365   0.765   7.491  10.207  0.5498 -0.3351 -0.0406
 9704SOL    HW231366   0.694   7.513  10.339 -2.6541  1.1497 -1.8883
 9705SOL     OW31367   2.934   2.558   6.406 -0.4136 -0.1961  0.4638
 9705SOL    HW131368   2.965   2.562   6.315  1.2493  0.3033  1.0278
 9705SOL    HW231369   3.012   2.536   6.457 -1.0632  0.7171  1.9054
 9706SOL     OW31370   2.532   6.066   8.096 -0.0544  0.8182 -0.4437
 9706SOL    HW131371   2.446   6.075   8.138 -1.1278  0.3029 -2.4046
 9706SOL    HW231372   2.592   6.047   8.168 -1.8085 -0.1409  0.8469
 9707SOL     OW31373   6.337   7.473   3.651  0.0044 -0.3829  0.0430
 9707SOL    HW131374   6.361   7.414   3.722  0.2649  0.8889  1.0507
 9707SOL    HW231375   6.243   7.485   3.661 -0.2576 -1.5040 -0.8774
 9708SOL     OW31376   4.576  10.222   5.960  0.0650 -0.3024  0.5269
 9708SOL    HW131377   4.544  10.301   6.003 -0.7296  0.4388 -1.3394
 9708SOL    HW231378   4.526  10.151   6.000  0.6404  0.1207  2.0717
 9709SOL     OW31379   0.577   7.390   2.905  0.2576  0.0766 -0.2027
 9709SOL    HW131380   0.579   7.426   2.993 -1.8610  0.2521 -0.1671
 9709SOL    HW231381   0.585   7.466   2.847  2.2455 -0.0913 -0.2208
 9710SOL     OW31382   5.533   0.509   0.549  0.0948 -0.1692  0.0295
 9710SOL    HW131383   5.514   0.500   0.642 -0.9033 -0.3436 -0.1847
 9710SOL    HW231384   5.520   0.601   0.530 -0.4823 -0.2759 -0.1022
 9711SOL     OW31385   7.910   4.095   8.805  0.6517 -0.4669 -0.3315
 9711SOL    HW131386   7.972   4.098   8.877 -0.8331 -1.5786  1.0850
 9711SOL    HW231387   7.830   4.136   8.840 -0.1824 -1.2560 -1.2351
 9712SOL     OW31388   3.958   1.387   8.401 -0.0728  0.1606  0.2435
 9712SOL    HW131389   4.007   1.440   8.465 -0.7462  0.5096  0.4752
 9712SOL    HW231390   3.874   1.432   8.393 -0.9080 -1.2284  0.9301
 9713SOL     OW31391   2.379   1.946   9.901 -0.8210 -0.1894 -0.0640
 9713SOL    HW131392   2.305   2.006   9.908 -1.9799 -1.7358  2.8341
 9713SOL    HW231393   2.456   2.002   9.900 -1.9055  1.3995  0.9047
 9714SOL     OW31394   6.770   2.938  10.280 -0.1829 -0.3904 -0.1788
 9714SOL    HW131395   6.721   3.018  10.297 -2.5617 -1.6856 -0.4989
 9714SOL    HW231396   6.859   2.968  10.261 -1.2541  2.2808 -1.5090
 9715SOL     OW31397   8.508   6.731   2.260  0.4581 -0.5412  0.1755
 9715SOL    HW131398   8.551   6.647   2.274  0.5563 -0.4982  0.1324
 9715SOL    HW231399   8.461   6.748   2.342 -0.3960 -1.1234 -0.1653
 9716SOL     OW31400   9.418   2.464   6.453  0.1850  0.0634 -0.1075
 9716SOL    HW131401   9.426   2.529   6.523 -0.1118  0.0673 -0.0787
 9716SOL    HW231402   9.435   2.514   6.373  3.1872 -0.4201  0.0924
 9717SOL     OW31403   7.913   3.975   8.557 -0.1865  0.4780 -0.1864
 9717SOL    HW131404   7.945   4.021   8.635 -0.5477  0.6946 -0.1613
 9717SOL    HW231405   7.992   3.944   8.513  0.0796  1.3439 -0.3408
 9718SOL     OW31406   8.363   6.229   5.729  0.2019  0.1854  0.1085
 9718SOL    HW131407   8.402   6.154   5.683  0.4676 -0.5999  1.5659
 9718SOL    HW231408   8.426   6.251   5.797 -0.7081  0.5691  0.8459
 9719SOL     OW31409   0.123   1.335   3.812  0.0863 -0.3271  0.4943
 9719SOL    HW131410   0.116   1.252   3.859  0.2549 -1.1570 -0.8908
 9719SOL    HW231411   0.096   1.314   3.722  0.5448  1.0102  0.0188
 9720SOL     OW31412   8.493   6.040   3.059  0.1137  0.1314 -0.4043
 9720SOL    HW131413   8.546   6.052   2.980  0.3878 -0.1194 -0.2590
 9720SOL    HW231414   8.556   6.023   3.128 -0.2017 -1.3272 -0.4394
 9721SOL     OW31415   5.371   3.369   3.572  0.4360 -0.4519  0.6471
 9721SOL    HW131416   5.427   3.305   3.615  1.8614 -0.1683 -0.6977
 9721SOL    HW231417   5.286   3.325   3.565  0.8253 -1.3840  1.6030
 9722SOL     OW31418   6.331   9.979   2.188  0.0835 -0.9825  0.5639
 9722SOL    HW131419   6.402   9.923   2.221  0.7495 -0.7120 -0.3709
 9722SOL    HW231420   6.352  10.066   2.222 -0.7580 -1.2031  1.7180
 9723SOL     OW31421   0.903   5.165   9.120  0.0341  0.4185 -0.2442
 9723SOL    HW131422   0.841   5.190   9.051 -1.3847 -0.6346  0.5992
 9723SOL    HW231423   0.973   5.229   9.113  0.2647  0.0239 -3.0588
 9724SOL     OW31424   5.542   7.245   6.076  0.6020  0.1306  0.1550
 9724SOL    HW131425   5.525   7.157   6.043  1.1293 -0.7325  2.0834
 9724SOL    HW231426   5.496   7.303   6.015 -0.4410 -1.5163 -0.6785
 9725SOL     OW31427   2.457   9.575   0.580 -0.2333  0.4775 -0.2655
 9725SOL    HW131428   2.413   9.608   0.659  0.1472 -1.4047  0.7836
 9725SOL    HW231429   2.398   9.506   0.547  0.1168  0.5336 -1.0300
 9726SOL     OW31430   9.227   3.868   0.380  0.8440  0.3252  0.2616
 9726SOL    HW131431   9.319   3.874   0.354  0.8624  0.3597  0.3359
 9726SOL    HW231432   9.216   3.936   0.447  0.5932  0.7896 -0.2397
 9727SOL     OW31433   2.064   6.799   1.969  0.1376 -0.2401 -0.1735
 9727SOL    HW131434   2.005   6.806   1.895 -0.3522 -0.2207  0.2121
 9727SOL    HW231435   2.021   6.848   2.039  0.8890  0.2758 -0.0551
 9728SOL     OW31436   4.521   7.071   5.919  0.4006 -0.1442 -0.6098
 9728SOL    HW131437   4.559   6.991   5.956  0.0077  0.1401  0.4494
 9728SOL    HW231438   4.484   7.044   5.835  0.8512 -0.9266 -0.5690
 9729SOL     OW31439   0.964   9.289   8.327 -0.0002  0.0472 -0.4241
 9729SOL    HW131440   0.982   9.365   8.272  1.5868  0.5685  0.7305
 9729SOL    HW231441   0.938   9.326   8.411 -0.8030 -0.7129 -0.3278
 9730SOL     OW31442   4.457   7.106   1.769 -0.5598  0.2868 -0.0015
 9730SOL    HW131443   4.489   7.016   1.778 -0.2970  0.0941 -2.3813
 9730SOL    HW231444   4.459   7.124   1.675 -3.0482  1.9114  0.1560
 9731SOL     OW31445   0.381  10.292   0.684  0.2427  0.1246  0.3280
 9731SOL    HW131446   0.358  10.384   0.670 -2.6271 -0.5106  0.3929
 9731SOL    HW231447   0.417  10.290   0.773  2.6727  1.4924 -0.5259
 9732SOL     OW31448   4.496   2.829   8.356  0.1833 -0.2179  0.0520
 9732SOL    HW131449   4.479   2.887   8.430  2.6097  0.0601  0.4504
 9732SOL    HW231450   4.510   2.743   8.395  0.1634 -0.3481 -0.2230
 9733SOL     OW31451   7.610   9.620   6.899 -0.0035 -0.2257 -0.1621
 9733SOL    HW131452   7.663   9.655   6.971 -1.3569  2.7248 -0.4537
 9733SOL    HW231453   7.674   9.600   6.831  0.9701  0.8935  0.3824
 9734SOL     OW31454   5.808  10.476   4.513 -0.1971  0.7365 -0.2120
 9734SOL    HW131455   5.771  10.531   4.445 -1.1133  0.3773 -0.0153
 9734SOL    HW231456   5.796  10.387   4.481 -0.0419  0.5934  0.1263
 9735SOL     OW31457   3.293   7.841   7.168 -0.1020 -0.1101  0.5056
 9735SOL    HW131458   3.245   7.919   7.197  0.2229  1.1707 -2.1587
 9735SOL    HW231459   3.336   7.868   7.087  1.1447 -2.6958  0.2175
 9736SOL     OW31460   7.790   1.924   6.628 -0.4626  0.2696 -0.0774
 9736SOL    HW131461   7.716   1.883   6.583  0.6474 -0.1306 -1.6260
 9736SOL    HW231462   7.866   1.871   6.603  0.5947  1.5964  0.1800
 9737SOL     OW31463   2.892   6.948   6.083 -0.0083  0.0800  0.1947
 9737SOL    HW131464   2.804   6.971   6.114  0.1991  0.8732  0.2227
 9737SOL    HW231465   2.879   6.927   5.990 -0.3978 -0.8941  0.4584
 9738SOL     OW31466   5.656   9.396   9.461  0.1131 -0.0654  0.5590
 9738SOL    HW131467   5.746   9.367   9.447  0.1389  0.3285 -0.1515
 9738SOL    HW231468   5.610   9.372   9.380 -0.2273  0.4470  0.5948
 9739SOL     OW31469   5.473   9.183   3.967  0.5476  0.0951 -0.3157
 9739SOL    HW131470   5.417   9.137   4.029  1.6409 -0.6508  0.1652
 9739SOL    HW231471   5.490   9.119   3.898 -1.8452  1.3742 -2.2269
 9740SOL     OW31472   6.238  10.256   5.769 -0.1847 -0.0339 -0.6499
 9740SOL    HW131473   6.208  10.347   5.763 -0.4698 -0.0246  0.6182
 9740SOL    HW231474   6.331  10.263   5.789 -0.3943  0.0020  0.3529
 9741SOL     OW31475   0.523   7.027   7.054 -1.0643  0.2280 -0.8712
 9741SOL    HW131476   0.467   6.950   7.066 -1.8276  1.0386  1.2147
 9741SOL    HW231477   0.484   7.075   6.981 -1.0599 -0.9178 -1.6532
 9742SOL     OW31478  10.236   6.556   4.410 -0.7859  0.2556 -0.1004
 9742SOL    HW131479  10.178   6.497   4.362 -0.4558 -0.4403  0.3400
 9742SOL    HW231480  10.246   6.632   4.353 -1.2426 -0.1028 -0.6664
 9743SOL     OW31481   2.962  10.404   7.383 -0.5494  0.4865  0.4248
 9743SOL    HW131482   3.023  10.468   7.421  1.1193 -0.7092 -0.1403
 9743SOL    HW231483   2.894  10.457   7.342 -1.3038  1.8620  3.2001
 9744SOL     OW31484   4.726   3.004   8.346  0.6984 -0.2279  0.1240
 9744SOL    HW131485   4.667   3.071   8.381 -1.2142 -1.6587 -0.1792
 9744SOL    HW231486   4.670   2.928   8.333  2.5877 -1.5799 -0.5043
 9745SOL     OW31487   9.834   7.933   3.154  0.1472  0.6060 -0.1846
 9745SOL    HW131488   9.879   7.968   3.077  0.1797  0.8091 -0.0739
 9745SOL    HW231489   9.886   7.857   3.179 -0.2573  0.1270 -0.7794
 9746SOL     OW31490  10.260   4.249   1.135 -0.4268 -0.0944  0.6115
 9746SOL    HW131491  10.247   4.314   1.067  0.4157 -0.0575  0.4760
 9746SOL    HW231492  10.291   4.171   1.089 -1.1839 -0.5169  0.8010
 9747SOL     OW31493   5.116   7.907   8.140 -0.1329  0.7476  0.4938
 9747SOL    HW131494   5.173   7.956   8.081  1.0394 -0.8602  0.2078
 9747SOL    HW231495   5.172   7.884   8.214 -0.3441 -0.9004  0.1921
 9748SOL     OW31496   1.868   4.707   6.597  0.2598  0.6658 -0.6901
 9748SOL    HW131497   1.892   4.661   6.678 -2.8420 -0.1528 -0.0853
 9748SOL    HW231498   1.841   4.794   6.626 -0.9157  0.3517 -0.7678
 9749SOL     OW31499   7.267   1.656   3.063  0.2664  0.1324  0.4407
 9749SOL    HW131500   7.189   1.620   3.023 -0.0213 -1.2666  2.1295
 9749SOL    HW231501   7.244   1.747   3.083 -0.5155  0.0600 -0.0967
 9750SOL     OW31502   2.067   0.829  10.368 -0.0982 -0.4855  0.4088
 9750SOL    HW131503   2.143   0.882  10.390  0.7637 -1.3129 -0.5157
 9750SOL    HW231504   2.074   0.816  10.273 -0.8988 -1.3312  0.4567
 9751SOL     OW31505   4.500   1.216   0.355  0.4040  0.2871 -0.1023
 9751SOL    HW131506   4.453   1.219   0.272  1.9553 -0.2730 -1.0467
 9751SOL    HW231507   4.577   1.162   0.337  0.8029  0.1935  1.6949
 9752SOL     OW31508   3.580   6.822   5.924  0.4925  0.5308  0.5170
 9752SOL    HW131509   3.630   6.756   5.877  2.9953  2.3786  0.3619
 9752SOL    HW231510   3.531   6.867   5.855  2.0818  1.4979 -0.0518
 9753SOL     OW31511   2.200   9.542  10.274  0.1899  0.1634 -0.1272
 9753SOL    HW131512   2.215   9.540  10.179  0.2227  0.7705 -0.1403
 9753SOL    HW231513   2.128   9.480  10.288  0.3041 -0.0650 -0.5260
 9754SOL     OW31514   7.535  10.459  10.174  0.1235  0.4785 -0.2962
 9754SOL    HW131515   7.496  10.438  10.089  0.0971 -0.2647 -0.1072
 9754SOL    HW231516   7.461  10.484  10.229  0.1632  1.1694 -0.5451
 9755SOL     OW31517   6.200   6.989   8.857  0.8167  0.5326 -0.3493
 9755SOL    HW131518   6.267   7.047   8.892  0.1276 -0.0803  2.1878
 9755SOL    HW231519   6.240   6.902   8.859  0.5201  0.3944 -0.3807
 9756SOL     OW31520   2.641   8.005   0.041 -0.1644 -0.1489 -0.0829
 9756SOL    HW131521   2.625   7.996  -0.053  1.0915  1.1212 -0.4477
 9756SOL    HW231522   2.554   8.005   0.080 -0.7074 -0.5382 -1.2536
 9757SOL     OW31523   9.976   9.615   8.685  0.0918  0.0359 -0.0062
 9757SOL    HW131524   9.918   9.608   8.609 -0.2943 -0.7592  0.3443
 9757SOL    HW231525  10.058   9.576   8.656  0.2139  0.4772 -0.2663
 9758SOL     OW31526   6.185   4.122   5.817 -0.7636 -0.0373 -0.3333
 9758SOL    HW131527   6.108   4.175   5.795 -1.6672 -1.2584 -0.2595
 9758SOL    HW231528   6.199   4.067   5.740 -0.2037 -0.0823 -0.1988
 9759SOL     OW31529   7.017   6.904   3.612 -0.4060  0.8956  0.5612
 9759SOL    HW131530   7.058   6.934   3.531 -1.2321  0.4650 -0.0304
 9759SOL    HW231531   6.943   6.851   3.583  0.4453 -0.9314  1.5710
 9760SOL     OW31532   1.249   6.105  10.200  0.5012  0.0547 -0.0535
 9760SOL    HW131533   1.186   6.173  10.222  1.2502  0.4375  0.9896
 9760SOL    HW231534   1.197   6.025  10.195 -0.2373  0.5401 -0.3385
 9761SOL     OW31535   9.615   8.332   3.327 -0.4347 -0.8160  0.9199
 9761SOL    HW131536   9.616   8.247   3.369  0.0293 -1.1264  0.3111
 9761SOL    HW231537   9.673   8.386   3.380 -0.5455 -0.9522  1.1765
 9762SOL     OW31538   5.751   9.314   6.321  0.2058  0.1787 -0.2538
 9762SOL    HW131539   5.767   9.220   6.310 -0.5323 -0.0759  0.6503
 9762SOL    HW231540   5.666   9.319   6.366  0.4379  1.2617  0.1107
 9763SOL     OW31541   2.961   2.071   2.210 -0.2264 -0.4561 -0.1213
 9763SOL    HW131542   3.049   2.070   2.171  0.2487 -0.6257  0.9348
 9763SOL    HW231543   2.935   2.163   2.206 -0.1904 -0.4694 -0.8397
 9764SOL     OW31544   0.885   3.672  10.617  0.0951 -0.5491  0.6002
 9764SOL    HW131545   0.849   3.703  10.700 -0.5452  1.6577 -0.4103
 9764SOL    HW231546   0.809   3.664  10.559  0.7137 -0.1511 -0.2959
 9765SOL     OW31547   2.289   2.463   2.597 -0.0576  0.3919  0.4658
 9765SOL    HW131548   2.274   2.465   2.691  0.2008  1.9837  0.4898
 9765SOL    HW231549   2.384   2.466   2.587 -0.0684 -0.1498  0.1477
 9766SOL     OW31550   0.326   1.104   6.463  0.5453 -0.2464  0.2479
 9766SOL    HW131551   0.378   1.140   6.391  1.6893  1.0142  1.6366
 9766SOL    HW231552   0.390   1.085   6.532 -0.1688 -3.8339  0.0933
 9767SOL     OW31553   8.117   9.011   0.750  0.0733 -0.5538  0.0892
 9767SOL    HW131554   8.052   9.079   0.764  0.8186  0.1582  0.1439
 9767SOL    HW231555   8.164   9.005   0.833  1.0536 -0.0120 -0.4130
 9768SOL     OW31556  10.163   0.607   6.532  1.4585 -0.0540 -0.1417
 9768SOL    HW131557  10.129   0.559   6.457  3.8320 -1.6486 -0.2774
 9768SOL    HW231558  10.208   0.683   6.494  1.6800 -0.2362 -0.2410
 9769SOL     OW31559   7.861   2.151   5.556  0.0613 -0.2865  0.1779
 9769SOL    HW131560   7.826   2.237   5.582 -0.8195 -0.3909 -0.5902
 9769SOL    HW231561   7.920   2.170   5.483  0.3057 -0.2766  0.3788
 9770SOL     OW31562   1.109   2.370   5.081  0.4481  0.0591 -0.1815
 9770SOL    HW131563   1.112   2.368   4.985  2.0522 -0.6544 -0.1359
 9770SOL    HW231564   1.087   2.280   5.106  1.4859 -0.1101  0.1493
 9771SOL     OW31565   0.984   3.868   6.678  0.0944  0.1352  0.4310
 9771SOL    HW131566   1.075   3.885   6.702  0.2901 -0.3538  0.0642
 9771SOL    HW231567   0.970   3.776   6.701  0.0682 -0.1333 -0.6143
 9772SOL     OW31568   6.288   0.504   4.803 -0.2788  0.5246 -0.5995
 9772SOL    HW131569   6.199   0.489   4.834  0.7711 -1.1535  1.8904
 9772SOL    HW231570   6.300   0.442   4.731 -0.5264 -0.6107  0.3239
 9773SOL     OW31571   3.385   5.719   4.736 -0.5574  0.3111 -0.8494
 9773SOL    HW131572   3.428   5.649   4.785 -0.0108  1.1112 -0.1582
 9773SOL    HW231573   3.456   5.769   4.698 -0.9333  0.6161 -1.1630
 9774SOL     OW31574   4.660   7.330   5.841 -0.0913  0.0868  0.1855
 9774SOL    HW131575   4.579   7.380   5.835 -0.8890 -1.1859 -0.1701
 9774SOL    HW231576   4.631   7.239   5.853  1.2913 -0.3009  0.8612
 9775SOL     OW31577   9.231   1.080   7.548 -0.1528 -0.1427 -0.0981
 9775SOL    HW131578   9.147   1.122   7.532  0.5852  1.2145 -0.6043
 9775SOL    HW231579   9.266   1.124   7.625  0.8649  0.5550 -0.9408
 9776SOL     OW31580   8.820   2.122   6.879 -0.0903 -0.1105  0.0809
 9776SOL    HW131581   8.753   2.120   6.810  1.5952 -0.6552 -1.6173
 9776SOL    HW231582   8.903   2.127   6.832  1.1285 -0.0457  2.1103
 9777SOL     OW31583   8.405   1.481   4.657 -0.5830 -0.0937  0.1104
 9777SOL    HW131584   8.331   1.425   4.633 -1.3657  0.2660  1.5658
 9777SOL    HW231585   8.477   1.420   4.674  0.2409 -0.3709 -3.5163
 9778SOL     OW31586   6.698   3.711   4.553 -0.2703 -0.0514 -0.3707
 9778SOL    HW131587   6.766   3.763   4.510 -1.9666  2.6660  0.0299
 9778SOL    HW231588   6.714   3.724   4.646 -2.9278  3.1164 -0.2027
 9779SOL     OW31589   7.328   8.841   0.378  0.1926  0.2696  0.1515
 9779SOL    HW131590   7.289   8.917   0.336 -0.4411 -0.0728  0.1003
 9779SOL    HW231591   7.422   8.855   0.372  0.0782  1.5532  1.0904
 9780SOL     OW31592   3.382   0.266   4.963 -0.3810  0.2053  0.7173
 9780SOL    HW131593   3.303   0.318   4.948  0.3534  1.3077  0.4445
 9780SOL    HW231594   3.446   0.330   4.994  1.4227  0.0760 -2.3405
 9781SOL     OW31595   6.099   0.227   4.711 -0.4188  0.8484 -0.1846
 9781SOL    HW131596   6.189   0.256   4.696 -0.4302  0.9066 -0.1432
 9781SOL    HW231597   6.059   0.299   4.760  0.1016 -0.0537  1.6415
 9782SOL     OW31598   6.447   7.766   4.376 -0.1171 -0.2776  0.1782
 9782SOL    HW131599   6.387   7.719   4.318 -0.4024 -2.2808  1.9762
 9782SOL    HW231600   6.501   7.698   4.415  2.1656  1.3119 -0.0206
 9783SOL     OW31601   5.006   0.792   8.411  0.1099  0.1545 -0.1317
 9783SOL    HW131602   4.924   0.744   8.421 -0.2393  0.8140  0.1865
 9783SOL    HW231603   4.979   0.881   8.388  0.6168  1.1341  2.7267
 9784SOL     OW31604   5.087   6.249   3.581 -0.3384 -0.3965 -0.0067
 9784SOL    HW131605   5.095   6.342   3.564  1.6487 -0.6493 -0.6241
 9784SOL    HW231606   5.074   6.243   3.676 -1.6880  0.5340 -0.1117
 9785SOL     OW31607   2.781   0.960   2.561  0.6977  0.1324 -0.3920
 9785SOL    HW131608   2.695   0.929   2.534 -0.2060  1.2829  0.9890
 9785SOL    HW231609   2.839   0.938   2.489 -0.3494 -2.4031 -0.5486
 9786SOL     OW31610   9.937   7.362   3.962 -0.3654  0.3457 -0.2123
 9786SOL    HW131611   9.931   7.268   3.973 -1.1162  0.5290  1.1106
 9786SOL    HW231612  10.021   7.376   3.918  0.8516 -0.7799  1.6534
 9787SOL     OW31613   6.452   8.084   9.179  0.5782 -0.2484 -0.5319
 9787SOL    HW131614   6.452   8.163   9.125  0.8094  0.9431  1.1390
 9787SOL    HW231615   6.454   8.116   9.269 -1.2642 -2.1298  0.2781
 9788SOL     OW31616   1.113   0.336   5.608 -0.3121 -0.6888 -0.1753
 9788SOL    HW131617   1.052   0.314   5.538  1.5435 -0.0495 -2.0882
 9788SOL    HW231618   1.199   0.310   5.574  0.8433  1.1201  1.1966
 9789SOL     OW31619   5.729   5.752   5.543  0.1484  0.0694 -0.2522
 9789SOL    HW131620   5.756   5.844   5.545 -0.6860  0.3145  0.9235
 9789SOL    HW231621   5.695   5.739   5.454 -0.2414  1.0639 -0.2646
 9790SOL     OW31622  10.373   7.387   7.609  0.0100 -0.2294  0.2511
 9790SOL    HW131623  10.430   7.316   7.578 -1.1467 -0.5730 -1.2086
 9790SOL    HW231624  10.428   7.437   7.669  1.0090 -2.0673  0.9501
 9791SOL     OW31625   6.141   0.436   5.522  0.3432  0.2424 -0.0034
 9791SOL    HW131626   6.154   0.402   5.610  2.1290  0.1639 -0.2688
 9791SOL    HW231627   6.122   0.529   5.534 -3.2482 -0.4194  0.6406
 9792SOL     OW31628   8.005   8.848   2.972 -0.2722 -0.0613 -0.2561
 9792SOL    HW131629   7.966   8.761   2.973 -0.5829  0.0704 -0.8192
 9792SOL    HW231630   7.964   8.894   3.045 -0.0949 -0.3900  0.0527
 9793SOL     OW31631   5.620   5.768   8.593 -0.2458  0.1265 -0.0551
 9793SOL    HW131632   5.614   5.838   8.658  2.1620  2.1919 -1.8690
 9793SOL    HW231633   5.669   5.698   8.637  2.0022  1.7809  0.2298
 9794SOL     OW31634   1.957   1.553   8.056  0.4983  0.1629  0.2125
 9794SOL    HW131635   1.905   1.580   8.132  0.5236  0.4721  0.1231
 9794SOL    HW231636   1.970   1.634   8.006  0.3796 -0.0563 -0.1815
 9795SOL     OW31637   8.062   9.730   7.773  0.0525 -0.8860  0.3120
 9795SOL    HW131638   8.085   9.822   7.772 -0.8010 -0.6641  0.2315
 9795SOL    HW231639   8.017   9.717   7.856  0.6215 -1.3504  0.5543
 9796SOL     OW31640   9.994   9.867   2.534  0.2712  0.1881 -0.1865
 9796SOL    HW131641   9.936   9.941   2.514 -0.8855 -0.1830  1.5856
 9796SOL    HW231642  10.058   9.867   2.463 -0.5960  1.9659 -1.0316
 9797SOL     OW31643   2.915   7.092   1.921 -0.5105 -0.0874  0.1540
 9797SOL    HW131644   2.916   7.089   2.017 -0.1989  0.3808  0.1653
 9797SOL    HW231645   3.007   7.090   1.896 -0.5675  0.4969 -0.1130
 9798SOL     OW31646   8.725   4.352   8.640 -0.3897 -0.2470  0.1737
 9798SOL    HW131647   8.638   4.392   8.641  0.0408  0.8226 -1.1324
 9798SOL    HW231648   8.780   4.413   8.688 -0.4710 -1.3091  1.6864
 9799SOL     OW31649   0.824   8.722   4.285  0.2080 -0.2424 -0.2137
 9799SOL    HW131650   0.890   8.725   4.355 -1.5002  0.9853  1.4380
 9799SOL    HW231651   0.747   8.682   4.326 -0.7195  0.1408 -1.5168
 9800SOL     OW31652   0.412   4.496   8.982  0.1276  0.2354 -0.3915
 9800SOL    HW131653   0.413   4.543   8.898  0.0043 -0.6606 -0.9110
 9800SOL    HW231654   0.355   4.421   8.966  0.1309  0.0402  0.4938
 9801SOL     OW31655   1.946   3.878   2.311  0.1986 -0.4572 -0.1261
 9801SOL    HW131656   1.955   3.865   2.405 -1.4542  0.1257  0.1394
 9801SOL    HW231657   1.920   3.970   2.301 -1.8426 -1.0542 -0.9368
 9802SOL     OW31658   0.499   0.254   5.793  0.0301 -0.1263 -0.9800
 9802SOL    HW131659   0.521   0.348   5.787  1.1179 -0.4067 -1.8601
 9802SOL    HW231660   0.561   0.212   5.733 -0.5192 -1.4049 -0.6737
 9803SOL     OW31661   2.345   5.906   7.833  0.2566  0.3626 -0.1384
 9803SOL    HW131662   2.405   5.863   7.894  0.7178  1.0620 -0.0921
 9803SOL    HW231663   2.399   5.972   7.788 -0.0470 -0.1971 -1.3724
 9804SOL     OW31664   0.305  10.326   8.716 -0.6860  0.1931 -0.0803
 9804SOL    HW131665   0.334  10.235   8.725  1.0829  0.7786  0.5764
 9804SOL    HW231666   0.266  10.347   8.801 -0.5993  0.2071 -0.0437
 9805SOL     OW31667   6.861   1.840   9.780 -0.0529 -0.0534  0.4599
 9805SOL    HW131668   6.899   1.793   9.854 -0.2814 -0.9110  0.0454
 9805SOL    HW231669   6.806   1.908   9.820 -0.4680 -0.7426  1.0767
 9806SOL     OW31670   9.071   5.999   9.492 -0.0970  0.7096 -0.0256
 9806SOL    HW131671   9.040   5.916   9.455 -0.4223  0.5854  0.5142
 9806SOL    HW231672   9.122   5.973   9.569 -1.0835  1.0482  0.7659
 9807SOL     OW31673   0.126   2.632   1.899  0.0725 -0.0183  0.1794
 9807SOL    HW131674   0.121   2.726   1.884 -0.6371 -0.0279  0.3167
 9807SOL    HW231675   0.057   2.596   1.843  1.2063 -0.5843 -0.9007
 9808SOL     OW31676  10.236  10.553   0.343 -0.1202 -0.0278 -0.0679
 9808SOL    HW131677  10.289  10.525   0.268  0.3238  1.7764 -0.4738
 9808SOL    HW231678  10.181  10.623   0.309 -1.4895 -0.6281  0.8018
 9809SOL     OW31679   9.082   0.081   9.528 -0.3960 -0.6481  0.1936
 9809SOL    HW131680   9.163   0.112   9.489  0.5199 -2.8489  0.1924
 9809SOL    HW231681   9.106  -0.001   9.571 -2.4218 -0.8495  1.0691
 9810SOL     OW31682   9.147   5.825  10.607  0.1667  0.3053  0.1219
 9810SOL    HW131683   9.221   5.802  10.665  0.3390  1.6102  0.4617
 9810SOL    HW231684   9.187   5.834  10.521  0.6353  1.9964  0.4773
 9811SOL     OW31685   4.104   4.694   8.836 -0.1365  0.5514  0.0241
 9811SOL    HW131686   4.165   4.762   8.866 -0.8462  0.5920  1.4305
 9811SOL    HW231687   4.158   4.635   8.783  0.5303  2.1094 -1.1056
 9812SOL     OW31688   3.194   5.606   4.354 -0.0876  0.6738  0.1452
 9812SOL    HW131689   3.287   5.615   4.375  0.5170 -0.6180 -1.6963
 9812SOL    HW231690   3.176   5.512   4.364 -0.7797  0.6729 -0.9808
 9813SOL     OW31691   3.116   6.503  10.070 -0.2821 -0.1050 -0.3371
 9813SOL    HW131692   3.146   6.501   9.979 -0.1757 -0.0829 -0.3026
 9813SOL    HW231693   3.042   6.443  10.072 -1.1528  0.9223 -0.7432
 9814SOL     OW31694   9.468   8.668   6.719 -0.1840 -0.1339 -0.0106
 9814SOL    HW131695   9.491   8.696   6.630 -0.6405  0.4577  0.0480
 9814SOL    HW231696   9.372   8.670   6.720 -0.3450 -3.1625 -0.4512
 9815SOL     OW31697   4.044   1.495   4.682  0.5540  0.3884  0.0582
 9815SOL    HW131698   4.134   1.508   4.651  0.8519 -1.2482  0.1321
 9815SOL    HW231699   3.989   1.516   4.607  1.1282 -0.7709 -0.7141
 9816SOL     OW31700   8.620   0.463   8.049  0.0777 -0.1257 -0.0689
 9816SOL    HW131701   8.555   0.470   8.120  2.0007 -1.9156  2.0344
 9816SOL    HW231702   8.694   0.515   8.080  0.8235 -0.6498 -0.9450
 9817SOL     OW31703   1.796   9.927   5.121  0.8030 -0.0522 -0.4514
 9817SOL    HW131704   1.773  10.007   5.168 -0.8458 -1.9754  2.3390
 9817SOL    HW231705   1.716   9.901   5.076  0.7955 -0.9423  0.0381
 9818SOL     OW31706   0.287   6.327   9.471 -0.4856  0.0027 -0.5786
 9818SOL    HW131707   0.381   6.316   9.455 -0.4391 -1.8778  0.6490
 9818SOL    HW231708   0.283   6.380   9.551 -0.3810 -1.1739  0.2422
 9819SOL     OW31709   9.542   5.066   7.186  0.2961  0.0311 -0.1605
 9819SOL    HW131710   9.574   4.998   7.245 -1.5572 -0.1747  0.6950
 9819SOL    HW231711   9.614   5.128   7.178  0.7432 -0.1441  2.0444
 9820SOL     OW31712   7.994   4.549   9.798 -0.4621  0.2288  0.1134
 9820SOL    HW131713   7.988   4.469   9.746 -0.8899  0.5628 -0.3610
 9820SOL    HW231714   7.920   4.602   9.769  0.1170  1.0205  0.0583
 9821SOL     OW31715   9.043   5.684   3.164  0.1574  0.0125  0.2929
 9821SOL    HW131716   9.006   5.731   3.090  0.2078 -1.1641 -0.5200
 9821SOL    HW231717   9.092   5.612   3.124  0.4169 -0.4854  1.4622
 9822SOL     OW31718   5.310   8.636   1.445  0.4988  0.0717  0.0618
 9822SOL    HW131719   5.239   8.604   1.499  0.4467  2.8837  1.8436
 9822SOL    HW231720   5.267   8.681   1.373  0.4680  0.9566  0.6259
 9823SOL     OW31721   0.723   5.060   1.864 -0.7120 -0.1255  0.0554
 9823SOL    HW131722   0.735   4.974   1.905  0.0324  0.2187  0.5775
 9823SOL    HW231723   0.784   5.059   1.790 -1.0939 -0.2425 -0.2634
 9824SOL     OW31724   4.191   7.294   3.032  0.3042  0.0170 -0.6097
 9824SOL    HW131725   4.120   7.231   3.040 -0.2243  0.5637 -0.9103
 9824SOL    HW231726   4.148   7.375   3.003  1.0658  0.3095 -0.9507
 9825SOL     OW31727   0.361   1.598   2.964 -0.4706  0.2173 -0.3910
 9825SOL    HW131728   0.343   1.631   3.052  2.3494  0.8751  0.0272
 9825SOL    HW231729   0.275   1.575   2.929 -1.5630 -1.7063  3.1290
 9826SOL     OW31730   8.281   2.476   5.461 -0.8878  0.1964 -0.0411
 9826SOL    HW131731   8.242   2.437   5.539 -0.7293 -0.4128 -0.2643
 9826SOL    HW231732   8.211   2.476   5.396 -0.3704 -1.4744 -0.6421
 9827SOL     OW31733   3.974   1.246  10.511  0.0816  0.4242  0.1085
 9827SOL    HW131734   4.010   1.211  10.593 -0.9517  0.8253  0.7592
 9827SOL    HW231735   3.981   1.173  10.449  1.5615  0.3530  0.3250
 9828SOL     OW31736   0.769   2.867   0.051 -0.2094 -0.0467  0.6049
 9828SOL    HW131737   0.815   2.820  -0.018  0.5578  0.1162  0.9918
 9828SOL    HW231738   0.684   2.888   0.013  0.6999  1.3053 -0.8248
 9829SOL     OW31739   4.603   4.104   4.777  0.2059 -0.4661 -0.9597
 9829SOL    HW131740   4.595   4.166   4.705 -0.7377 -0.3841 -0.8015
 9829SOL    HW231741   4.697   4.104   4.798  0.0601  2.2303  0.1614
 9830SOL     OW31742   2.003   8.974   6.685  0.5889  0.7983  0.1054
 9830SOL    HW131743   2.055   8.967   6.764  0.3602 -1.2628  0.1247
 9830SOL    HW231744   1.971   9.064   6.685  0.8986  0.9486  2.1519
 9831SOL     OW31745   6.730   4.251   2.610  0.0723 -0.5488 -0.0390
 9831SOL    HW131746   6.754   4.219   2.523  0.9214  1.3005 -0.5484
 9831SOL    HW231747   6.637   4.229   2.619 -0.0830 -0.6075 -1.5180
 9832SOL     OW31748   7.192   2.845   8.807 -0.2704  0.4319 -0.5258
 9832SOL    HW131749   7.234   2.759   8.798  0.3317  0.5257  1.1277
 9832SOL    HW231750   7.109   2.835   8.760  0.3817 -0.6165 -1.5208
 9833SOL     OW31751   2.497   8.724   5.135 -0.1831  0.1680  0.5524
 9833SOL    HW131752   2.459   8.694   5.217  1.6757 -1.8439  0.7558
 9833SOL    HW231753   2.457   8.669   5.068  1.3115 -1.0594  0.6238
 9834SOL     OW31754   6.807   4.659   6.330  0.1046 -0.0384  0.0382
 9834SOL    HW131755   6.814   4.661   6.425 -1.5080 -0.8616  0.2100
 9834SOL    HW231756   6.734   4.718   6.310 -0.2853 -0.7006 -0.5681
 9835SOL     OW31757   9.612   2.813   7.856 -0.4632  0.3223  0.1000
 9835SOL    HW131758   9.534   2.783   7.810 -0.3853  1.0069 -0.4982
 9835SOL    HW231759   9.619   2.906   7.833  1.2356 -0.0128 -0.8989
 9836SOL     OW31760   0.685   8.640   5.670  0.2237  0.5497  0.7277
 9836SOL    HW131761   0.719   8.722   5.634  1.4170 -0.1645  0.1657
 9836SOL    HW231762   0.683   8.655   5.765  0.7736  1.1158  0.6600
 9837SOL     OW31763   0.002   4.104   9.174  0.3923  0.3829  0.7389
 9837SOL    HW131764  -0.002   4.077   9.265  0.9989  0.1863  0.7101
 9837SOL    HW231765   0.011   4.022   9.125  0.6707  0.5256  0.5465
 9838SOL     OW31766   9.356   9.583   3.526 -0.3181 -0.1488  0.6450
 9838SOL    HW131767   9.410   9.658   3.551  1.6956 -1.2952  0.0222
 9838SOL    HW231768   9.410   9.535   3.464 -0.9167 -2.8803  2.0832
 9839SOL     OW31769   0.687   7.710   3.145 -0.1349 -0.2783 -0.5582
 9839SOL    HW131770   0.747   7.784   3.154 -0.8197  0.2884 -0.4634
 9839SOL    HW231771   0.734   7.647   3.091  0.4426  0.2664 -0.7070
 9840SOL     OW31772   0.616   7.330   0.593 -0.0020  0.0139  0.0925
 9840SOL    HW131773   0.558   7.406   0.586  0.8545  0.7532  0.7097
 9840SOL    HW231774   0.679   7.342   0.522  1.9333  1.5212  1.9578
 9841SOL     OW31775   8.406   1.627   8.573  0.3441 -0.2200  0.2266
 9841SOL    HW131776   8.357   1.700   8.610  0.7122  0.3197 -0.3266
 9841SOL    HW231777   8.444   1.662   8.492  0.8541 -0.9059  0.1581
 9842SOL     OW31778   2.140   4.300   6.397  0.0520  0.9868 -0.3456
 9842SOL    HW131779   2.048   4.327   6.402 -0.0725  0.3844  1.4896
 9842SOL    HW231780   2.184   4.352   6.465  0.1666 -1.8613  1.9217
 9843SOL     OW31781  10.601   5.627   3.194  0.0812  0.1016 -0.1801
 9843SOL    HW131782  10.517   5.619   3.149 -0.0752 -0.0493  0.1387
 9843SOL    HW231783  10.640   5.540   3.188  0.0786  0.0921 -0.0639
 9844SOL     OW31784   2.604   1.620   3.882  0.0966 -0.0895 -0.4287
 9844SOL    HW131785   2.691   1.586   3.861  0.1571  0.1041 -0.4903
 9844SOL    HW231786   2.598   1.611   3.977  0.1929 -0.0775 -0.4213
 9845SOL     OW31787   5.568   5.294   3.919  0.2101  0.2065 -0.1583
 9845SOL    HW131788   5.614   5.327   3.841 -2.2768  0.2738 -1.7180
 9845SOL    HW231789   5.534   5.209   3.892 -1.8797  0.8345  0.3091
 9846SOL     OW31790   1.582   8.189   5.140  0.1005 -0.2904 -0.2080
 9846SOL    HW131791   1.633   8.209   5.218  0.5648 -1.1946 -0.2680
 9846SOL    HW231792   1.521   8.120   5.169  0.5308 -0.8994 -0.7309
 9847SOL     OW31793   1.699   7.823   2.026 -0.5251  0.2139 -0.4018
 9847SOL    HW131794   1.621   7.868   2.060 -0.8056  0.9506 -1.9301
 9847SOL    HW231795   1.744   7.889   1.974 -0.4547 -0.9958 -1.9562
 9848SOL     OW31796   8.722   7.026   0.420  0.1402 -0.5928 -0.0489
 9848SOL    HW131797   8.632   7.010   0.447  0.5744 -0.2898  1.6699
 9848SOL    HW231798   8.775   6.969   0.475  1.0629 -0.0153 -0.3067
 9849SOL     OW31799   3.600   7.284   7.496 -0.7124  0.7084 -0.3869
 9849SOL    HW131800   3.648   7.221   7.442 -0.1795  0.3115  0.5194
 9849SOL    HW231801   3.662   7.308   7.566 -1.1651  1.6778 -0.2989
 9850SOL     OW31802   7.324   3.148   9.780 -0.5058 -0.5017 -0.2408
 9850SOL    HW131803   7.413   3.157   9.814 -0.1141 -0.7869 -1.1609
 9850SOL    HW231804   7.325   3.065   9.731 -1.1285 -0.2545 -0.6915
 9851SOL     OW31805   5.140   9.303   8.114  0.2480 -0.1917  0.2147
 9851SOL    HW131806   5.099   9.342   8.037 -0.8793  0.9802  1.3616
 9851SOL    HW231807   5.217   9.357   8.130 -0.4671  0.6718  0.8887
 9852SOL     OW31808   3.663   7.379   2.531 -0.1087  0.3268 -0.5250
 9852SOL    HW131809   3.693   7.359   2.620 -1.3500 -1.4858 -0.4589
 9852SOL    HW231810   3.702   7.311   2.476 -0.9143  0.2786 -1.0499
 9853SOL     OW31811   6.391   0.315   7.517 -0.4964 -0.2708 -0.3000
 9853SOL    HW131812   6.389   0.244   7.582 -1.4042  0.0398  0.0283
 9853SOL    HW231813   6.321   0.375   7.545  0.3504  0.8303 -0.4859
 9854SOL     OW31814   4.471   9.635   2.325  0.6111  0.3393  0.6450
 9854SOL    HW131815   4.450   9.672   2.410 -0.3916 -1.2565  1.1280
 9854SOL    HW231816   4.391   9.591   2.297  1.3419 -0.3213 -0.4965
 9855SOL     OW31817   6.934  10.200   9.371  0.0599  0.2264  0.3446
 9855SOL    HW131818   6.847  10.235   9.351  0.8571  0.8887 -2.3147
 9855SOL    HW231819   6.925  10.105   9.357  0.2405  0.5203 -2.2713
 9856SOL     OW31820   0.303   3.640   7.051 -0.2630 -0.0388 -0.0068
 9856SOL    HW131821   0.305   3.616   6.958  0.1036  1.2325 -0.3556
 9856SOL    HW231822   0.277   3.560   7.097  0.7335 -1.0258 -1.0986
 9857SOL     OW31823   0.167   8.959   2.337 -0.1742  0.1016  0.2512
 9857SOL    HW131824   0.096   8.946   2.275 -0.3571 -0.5716  0.5945
 9857SOL    HW231825   0.165   8.882   2.393  0.1038  0.6078  0.9817
 9858SOL     OW31826   9.961   1.522   9.258  0.3768  0.1180 -0.1610
 9858SOL    HW131827  10.056   1.508   9.265  0.5054  0.6485 -0.7137
 9858SOL    HW231828   9.922   1.443   9.294  0.9879  0.8820  2.4033
 9859SOL     OW31829   9.199   5.945   6.085  0.5005 -0.5195 -0.1044
 9859SOL    HW131830   9.266   6.002   6.048 -0.0089  0.2311  0.1042
 9859SOL    HW231831   9.220   5.940   6.178  0.8496 -1.1009 -0.2138
 9860SOL     OW31832   0.770   9.864   9.069  0.0424  0.0879  0.2194
 9860SOL    HW131833   0.831   9.796   9.041  0.0653 -0.5840  1.7632
 9860SOL    HW231834   0.826   9.930   9.111 -0.2292 -0.4773  1.5371
 9861SOL     OW31835   5.836   2.809   6.699  0.0987 -0.3945 -0.3594
 9861SOL    HW131836   5.776   2.871   6.659  0.5535  0.8583  0.8172
 9861SOL    HW231837   5.877   2.764   6.625  0.2983  1.2294 -1.2842
 9862SOL     OW31838   3.431   4.587   9.488  0.3183  0.2662  0.5666
 9862SOL    HW131839   3.461   4.506   9.530 -0.7563 -0.3820  0.1332
 9862SOL    HW231840   3.382   4.632   9.557 -2.7478 -1.5047 -0.2502
 9863SOL     OW31841   8.747   3.460   8.896 -0.0410  0.0245 -0.3801
 9863SOL    HW131842   8.712   3.506   8.820 -0.5482  1.2949  0.5962
 9863SOL    HW231843   8.714   3.370   8.886 -2.1349  0.7400 -0.4138
 9864SOL     OW31844   6.678   4.316   3.742  0.3982  0.0612 -0.5539
 9864SOL    HW131845   6.753   4.371   3.718  1.4092 -1.6731 -1.5494
 9864SOL    HW231846   6.665   4.333   3.835  0.3232  2.3695 -0.9364
 9865SOL     OW31847   2.076   9.203   8.112  0.2981  0.3176  0.7176
 9865SOL    HW131848   2.014   9.132   8.097 -0.1492  0.9115 -0.4701
 9865SOL    HW231849   2.149   9.163   8.158 -0.0939 -0.8354  0.3726
 9866SOL     OW31850   9.322   4.560   6.175 -0.6408  0.5640 -0.2401
 9866SOL    HW131851   9.391   4.505   6.214 -0.6921  0.2732 -0.5490
 9866SOL    HW231852   9.247   4.548   6.233 -0.5146  0.6675 -0.0530
 9867SOL     OW31853   4.181   0.276   9.600 -0.2169 -0.1147 -0.7022
 9867SOL    HW131854   4.183   0.339   9.528  1.1673 -1.2542 -1.7156
 9867SOL    HW231855   4.171   0.330   9.679 -1.7232  1.1628 -1.7082
 9868SOL     OW31856  10.308  10.501   9.251 -0.3042 -0.3870  0.5845
 9868SOL    HW131857  10.256  10.582   9.252 -0.0943 -0.2438  0.0755
 9868SOL    HW231858  10.378  10.518   9.315  1.3139  0.8962 -1.4170
 9869SOL     OW31859   1.125   3.106   3.500  0.5524 -0.2472 -0.4417
 9869SOL    HW131860   1.039   3.132   3.535  0.4972 -0.8163 -0.1395
 9869SOL    HW231861   1.115   3.013   3.481  1.5026 -0.6429  0.8570
 9870SOL     OW31862   1.441   5.046   1.736  0.0560 -0.6659  0.2257
 9870SOL    HW131863   1.386   4.996   1.675  0.9351 -0.8524 -0.4415
 9870SOL    HW231864   1.502   5.092   1.679  2.0044 -2.1446  0.9945
 9871SOL     OW31865   4.127   4.894   3.677  0.1894  0.1582  0.1823
 9871SOL    HW131866   4.131   4.882   3.771  1.9408 -0.8537  0.0232
 9871SOL    HW231867   4.131   4.805   3.641  3.0000  0.6039 -0.8559
 9872SOL     OW31868  10.031   0.633   9.012  0.4883 -0.0652  0.0592
 9872SOL    HW131869  10.070   0.719   8.995  1.2096 -0.3998 -0.0349
 9872SOL    HW231870   9.966   0.649   9.080  3.2360 -0.0178  2.8924
 9873SOL     OW31871   8.720   3.983   7.080 -0.6451 -0.1764 -0.4911
 9873SOL    HW131872   8.631   3.952   7.064 -0.3649 -1.0330 -0.4514
 9873SOL    HW231873   8.772   3.942   7.011 -0.1259 -0.4716  0.0652
 9874SOL     OW31874   0.331   7.985   5.872 -0.0139  0.6944 -0.2040
 9874SOL    HW131875   0.293   8.041   5.940 -3.0782  0.6390 -1.7292
 9874SOL    HW231876   0.389   8.044   5.824 -1.1318  1.8945 -0.1412
 9875SOL     OW31877   2.451   7.231   5.571  0.3021  0.1912  0.4797
 9875SOL    HW131878   2.479   7.188   5.490 -1.2949 -0.6918  0.3527
 9875SOL    HW231879   2.527   7.223   5.629  0.2608 -2.5226  0.3108
 9876SOL     OW31880   9.927   2.830   8.897  0.2086  0.7271 -0.5702
 9876SOL    HW131881   9.913   2.925   8.896  1.7468  1.0406  1.1241
 9876SOL    HW231882  10.021   2.820   8.911 -0.0393 -1.0387  0.0872
 9877SOL     OW31883   9.654   4.043   6.797  0.3655 -0.1696  0.1749
 9877SOL    HW131884   9.639   3.966   6.742 -1.3262 -0.7475  1.3386
 9877SOL    HW231885   9.573   4.093   6.791  0.2834 -0.0602  1.7898
 9878SOL     OW31886   5.341   9.085  10.604  0.5771  0.4112  0.5207
 9878SOL    HW131887   5.436   9.076  10.602  0.4605 -1.1395 -0.9387
 9878SOL    HW231888   5.309   8.996  10.587 -1.0980  1.1785 -0.5653
 9879SOL     OW31889   1.842   4.727   8.295  0.4375 -0.6667 -0.1544
 9879SOL    HW131890   1.835   4.633   8.308 -0.1926 -0.3583  1.9726
 9879SOL    HW231891   1.816   4.740   8.203 -0.2035 -2.4670 -0.2650
 9880SOL     OW31892   7.756   4.824   0.148  0.4098 -0.1121 -0.5493
 9880SOL    HW131893   7.770   4.868   0.232 -1.6451  0.2804 -0.3657
 9880SOL    HW231894   7.784   4.734   0.163 -1.0318 -0.3615  0.9703
 9881SOL     OW31895   4.069  10.097   2.308 -0.0890  0.1426 -0.0634
 9881SOL    HW131896   4.121  10.153   2.366  0.0884  0.4276 -0.5011
 9881SOL    HW231897   4.070  10.141   2.223  2.6466 -2.0060 -1.2867
 9882SOL     OW31898   6.658   7.949   5.652  0.8687  0.0727 -0.2456
 9882SOL    HW131899   6.617   8.035   5.655 -0.7505 -0.6645 -0.5502
 9882SOL    HW231900   6.600   7.896   5.598  3.0717 -0.5868 -2.1333
 9883SOL     OW31901   4.936   3.104   9.956 -0.5849 -0.0473 -0.2302
 9883SOL    HW131902   4.958   3.189   9.994 -0.6649  0.1505 -0.6179
 9883SOL    HW231903   4.846   3.088   9.985 -0.4634 -0.1474  0.0985
 9884SOL     OW31904   7.347   4.919   9.085  0.7976 -0.3161  0.0306
 9884SOL    HW131905   7.271   4.865   9.068  0.7045  0.3894 -2.0500
 9884SOL    HW231906   7.404   4.865   9.140  0.0320 -1.9049 -0.6969
 9885SOL     OW31907   6.181   5.711   5.474  0.3531  0.1575  0.3316
 9885SOL    HW131908   6.259   5.667   5.508 -0.8576  0.1155  3.4088
 9885SOL    HW231909   6.194   5.804   5.494 -0.8619 -0.0032  2.0678
 9886SOL     OW31910   2.315   8.304   8.407 -0.5329 -0.0728  0.1654
 9886SOL    HW131911   2.236   8.347   8.374 -0.1832  1.4934  1.2607
 9886SOL    HW231912   2.358   8.270   8.329 -1.4996  0.4468 -0.6144
 9887SOL     OW31913   2.582   9.103   9.512  0.0736 -0.3763  0.5138
 9887SOL    HW131914   2.663   9.154   9.508 -0.5718  0.6015 -0.6371
 9887SOL    HW231915   2.595   9.034   9.446 -0.3235  0.2309 -0.2032
 9888SOL     OW31916   7.053   8.624   6.699  0.3191 -0.1835 -0.1747
 9888SOL    HW131917   6.966   8.662   6.689  0.4463  0.2049  0.1452
 9888SOL    HW231918   7.043   8.532   6.673 -0.1372 -0.0891 -0.3333
 9889SOL     OW31919   9.896   8.005   5.730  0.2923 -0.2248 -0.2700
 9889SOL    HW131920   9.865   7.917   5.753  1.1153  0.0569  2.3201
 9889SOL    HW231921   9.989   8.004   5.753  0.1377  1.5250  0.6209
 9890SOL     OW31922   6.330   9.778   6.345 -0.2571 -0.5774  0.1103
 9890SOL    HW131923   6.367   9.726   6.273  1.0980  0.6663 -0.1548
 9890SOL    HW231924   6.249   9.815   6.309 -0.4779 -1.3274 -0.1835
 9891SOL     OW31925   1.490   2.541   3.881 -0.0344 -0.1763  0.2840
 9891SOL    HW131926   1.415   2.580   3.838 -0.3350 -0.6293  0.3847
 9891SOL    HW231927   1.517   2.605   3.947  0.3496  0.4583 -0.4860
 9892SOL     OW31928   3.119   1.786   8.891  0.1885  0.3236 -0.6870
 9892SOL    HW131929   3.203   1.827   8.870 -0.1890  1.0791 -0.7476
 9892SOL    HW231930   3.061   1.859   8.911 -0.8728 -0.0776 -2.1400
 9893SOL     OW31931  10.432   9.348   1.963 -0.0823  0.1776 -0.6192
 9893SOL    HW131932  10.505   9.402   1.991 -0.9410  1.0304  0.0595
 9893SOL    HW231933  10.460   9.258   1.981  0.0537  0.5999  1.4962
 9894SOL     OW31934   7.270   9.262  10.359  0.0091  0.4357 -0.5095
 9894SOL    HW131935   7.265   9.232  10.450  0.1949 -0.3717 -0.7559
 9894SOL    HW231936   7.185   9.302  10.342 -0.5652 -0.7056 -0.4215
 9895SOL     OW31937   7.149   9.132   9.643 -0.1054 -0.3151 -0.0258
 9895SOL    HW131938   7.205   9.075   9.696 -0.2670 -1.0259 -0.5971
 9895SOL    HW231939   7.060   9.112   9.673 -0.1185  0.1327  0.2382
 9896SOL     OW31940   8.151   3.418   2.929 -0.9467  0.5418  0.1288
 9896SOL    HW131941   8.173   3.493   2.983 -0.1874  0.2833  0.1997
 9896SOL    HW231942   8.213   3.422   2.856 -0.8452 -0.0399  0.1705
 9897SOL     OW31943   7.177   6.506   2.981 -0.1034  0.1027  0.7143
 9897SOL    HW131944   7.183   6.454   2.901 -0.9209  1.3100 -0.1545
 9897SOL    HW231945   7.263   6.496   3.022  0.6309  0.1205 -0.7450
 9898SOL     OW31946   7.148   8.811   6.475 -0.4168 -0.6239 -0.0040
 9898SOL    HW131947   7.139   8.742   6.541 -0.6970  0.2734  0.9352
 9898SOL    HW231948   7.238   8.840   6.482 -0.7252  0.2036  0.7702
 9899SOL     OW31949   3.050   6.914   3.784  0.3282 -0.2610  0.4331
 9899SOL    HW131950   2.988   6.961   3.841 -1.2125 -1.0595 -0.5173
 9899SOL    HW231951   3.042   6.822   3.811 -0.2060 -0.6106 -0.8535
 9900SOL     OW31952   0.887   3.414   0.883 -0.6219 -0.3924 -0.0604
 9900SOL    HW131953   0.958   3.367   0.926  1.4975  0.5776 -2.2490
 9900SOL    HW231954   0.897   3.505   0.912 -0.0656 -0.0034 -1.3778
 9901SOL     OW31955   4.870   6.588   5.584  0.3723 -0.1459 -0.4022
 9901SOL    HW131956   4.958   6.549   5.590  0.8371  1.0547  1.7846
 9901SOL    HW231957   4.877   6.651   5.512  1.4641  0.2056 -0.0235
 9902SOL     OW31958   9.474   3.560   1.529  0.7268  0.0729 -0.3579
 9902SOL    HW131959   9.388   3.518   1.540  0.5643  0.6896  0.8909
 9902SOL    HW231960   9.469   3.600   1.442 -0.3280  0.2406 -0.2423
 9903SOL     OW31961   1.579   9.490   2.188 -0.1620  0.4067  0.0679
 9903SOL    HW131962   1.581   9.579   2.152  0.8683  0.4743  0.2719
 9903SOL    HW231963   1.580   9.502   2.283 -1.5328  0.1944  0.1342
 9904SOL     OW31964   8.257   7.652   5.624 -0.1137  0.1653  0.4711
 9904SOL    HW131965   8.215   7.676   5.542 -0.4217 -0.4182  0.4525
 9904SOL    HW231966   8.216   7.708   5.690  1.0238  1.5418  0.0611
 9905SOL     OW31967   7.410   3.862   4.666  0.2177  0.2296 -0.3484
 9905SOL    HW131968   7.420   3.776   4.627  0.5168 -0.1509  0.5309
 9905SOL    HW231969   7.499   3.896   4.673  0.3455 -0.3493  1.3513
 9906SOL     OW31970   6.296   0.653   7.099 -0.2251  0.4539  0.5081
 9906SOL    HW131971   6.326   0.643   7.190  0.8423 -1.1737  0.0190
 9906SOL    HW231972   6.354   0.721   7.062  0.8286 -0.4478  0.4522
 9907SOL     OW31973   1.504   8.555   9.183  0.6039  0.0019 -0.1839
 9907SOL    HW131974   1.507   8.578   9.091 -1.2293 -0.1040 -0.3099
 9907SOL    HW231975   1.506   8.459   9.184  0.4463 -0.0015 -0.1280
 9908SOL     OW31976   9.557   4.070   5.111  0.1042 -0.3793 -0.2820
 9908SOL    HW131977   9.648   4.049   5.091  0.1879  0.1563 -0.4897
 9908SOL    HW231978   9.506   4.027   5.043  0.1671 -1.0334  0.0770
 9909SOL     OW31979   2.108   7.218   4.557  0.3835  0.0315  0.3979
 9909SOL    HW131980   2.045   7.287   4.577  1.6326  1.2906  0.1543
 9909SOL    HW231981   2.178   7.230   4.622  0.6814 -0.9563  0.2876
 9910SOL     OW31982   5.179   2.746   5.220  0.2381  0.8034 -0.0077
 9910SOL    HW131983   5.224   2.828   5.241  0.8324  0.5863 -0.4289
 9910SOL    HW231984   5.233   2.705   5.153 -0.1293  0.1267  0.1048
 9911SOL     OW31985  10.123  10.164   9.662 -0.2502 -0.5148 -0.1940
 9911SOL    HW131986  10.029  10.149   9.647 -0.2750  0.3037 -0.9143
 9911SOL    HW231987  10.136  10.141   9.754 -1.2985 -0.0288  0.0931
 9912SOL     OW31988   2.883   9.958   1.097  0.3428 -0.4335 -0.6255
 9912SOL    HW131989   2.943   9.887   1.118  1.0854  0.3120 -0.1583
 9912SOL    HW231990   2.922  10.000   1.020 -0.7769 -1.3024 -1.7155
 9913SOL     OW31991   6.090   6.523   3.245 -0.4790  0.0295  0.1288
 9913SOL    HW131992   6.166   6.580   3.239 -0.6295  0.3519  1.0604
 9913SOL    HW231993   6.075   6.514   3.339 -1.7425  0.1861 -0.0408
 9914SOL     OW31994   6.778   7.113   5.887  0.1744  0.2774 -0.4610
 9914SOL    HW131995   6.866   7.137   5.858  0.7886 -0.8510  0.3794
 9914SOL    HW231996   6.775   7.138   5.979 -0.5967  0.8021 -0.6108
 9915SOL     OW31997   0.274   9.694   8.724 -0.3839  0.6518  0.5624
 9915SOL    HW131998   0.227   9.636   8.663  0.7684  0.4144 -0.1375
 9915SOL    HW231999   0.225   9.776   8.722 -0.7886  0.4043 -0.1206
 9916SOL     OW32000   8.223   6.936  10.351  0.2817  0.2408 -0.0992
 9916SOL    HW132001   8.136   6.901  10.369  0.7248 -0.1861  1.3968
 9916SOL    HW232002   8.239   6.917  10.259 -0.2576 -1.8436  0.1825
 9917SOL     OW32003   8.848   6.312   1.165  0.2497 -0.1772  0.5845
 9917SOL    HW132004   8.872   6.328   1.073  1.0490 -1.3523  0.5671
 9917SOL    HW232005   8.930   6.325   1.213  0.4126 -1.8485  0.8253
 9918SOL     OW32006   0.625   2.193   4.691  0.2161 -0.1798 -0.3713
 9918SOL    HW132007   0.552   2.143   4.655 -0.7076  1.2433 -0.5072
 9918SOL    HW232008   0.585   2.257   4.750  0.7759  3.6421 -3.7024
 9919SOL     OW32009   9.537   4.594   1.854  0.3930 -0.6396 -0.0125
 9919SOL    HW132010   9.550   4.544   1.935 -1.7206  0.1473  0.8770
 9919SOL    HW232011   9.542   4.686   1.882  1.4485 -0.3203 -1.1366
 9920SOL     OW32012  10.405   1.884   0.965  0.7531  0.5466  0.2300
 9920SOL    HW132013  10.336   1.883   0.899  0.1093  1.6540  0.8509
 9920SOL    HW232014  10.487   1.886   0.915  0.2629  2.0148 -0.5509
 9921SOL     OW32015   1.293   2.778   6.875  0.4006  0.2552 -0.5114
 9921SOL    HW132016   1.256   2.695   6.906 -0.0338  0.3305 -0.8167
 9921SOL    HW232017   1.352   2.753   6.804  0.8481  0.1451 -0.1041
 9922SOL     OW32018   0.477   1.117   2.326  0.2125 -0.2814  0.4193
 9922SOL    HW132019   0.388   1.112   2.359  0.3849  3.0554  1.7957
 9922SOL    HW232020   0.531   1.131   2.403  1.3693  1.8614 -0.6895
 9923SOL     OW32021   2.025   5.487   1.566  0.4582  0.4111  0.0236
 9923SOL    HW132022   1.945   5.480   1.514  2.1306 -1.3235 -2.5332
 9923SOL    HW232023   2.014   5.422   1.636 -0.9212  1.2103  0.5767
 9924SOL     OW32024   0.039   5.740   7.172 -0.3585 -0.0054 -0.4108
 9924SOL    HW132025  -0.049   5.773   7.193 -0.1360  0.1657  0.2627
 9924SOL    HW232026   0.093   5.768   7.245  0.0909 -0.8350 -0.4172
 9925SOL     OW32027   0.009   2.283   4.186 -0.4824  0.4213 -0.0377
 9925SOL    HW132028   0.098   2.262   4.213 -0.7662  0.6134  1.0612
 9925SOL    HW232029   0.005   2.378   4.190 -0.8585  0.3917  0.3048
 9926SOL     OW32030   6.543   2.730   9.507  0.3120  0.0755  0.0402
 9926SOL    HW132031   6.612   2.755   9.446 -1.7564  0.1981 -2.4430
 9926SOL    HW232032   6.477   2.689   9.451 -1.5196 -0.2402  2.3155
 9927SOL     OW32033  10.517   6.463   5.899  0.5566 -0.0667  0.4942
 9927SOL    HW132034  10.468   6.513   5.964 -0.0886 -0.3746  0.2590
 9927SOL    HW232035  10.584   6.417   5.949 -1.1310 -1.8380  1.2588
 9928SOL     OW32036   8.452   5.911   2.277  0.5055  0.6030  0.1869
 9928SOL    HW132037   8.408   5.961   2.346 -0.1339  0.7826 -0.3343
 9928SOL    HW232038   8.408   5.939   2.196  2.4747  1.7952 -0.5393
 9929SOL     OW32039   9.293   4.677   3.267  0.2183  0.7610  0.1069
 9929SOL    HW132040   9.258   4.751   3.217 -0.2378  1.5084  1.4908
 9929SOL    HW232041   9.255   4.600   3.224 -0.2233  1.3832 -0.6442
 9930SOL     OW32042   9.801   1.215   6.647 -0.0750  0.4443  0.7224
 9930SOL    HW132043   9.710   1.223   6.674 -0.3366 -1.9444  0.8031
 9930SOL    HW232044   9.799   1.224   6.551 -0.3784  0.5085  0.7363
 9931SOL     OW32045   5.495   3.299   1.463 -0.3995 -0.3249 -0.8558
 9931SOL    HW132046   5.525   3.241   1.532  1.3835  3.4886  1.9311
 9931SOL    HW232047   5.564   3.294   1.396  0.3648 -0.5348 -0.0670
 9932SOL     OW32048   2.916   4.079   6.065 -0.1587 -0.6848 -0.0712
 9932SOL    HW132049   2.947   4.149   6.124 -1.1379 -2.0160  2.1730
 9932SOL    HW232050   2.820   4.088   6.068 -0.2680 -1.7308 -0.2277
 9933SOL     OW32051   7.834   0.030  10.423  0.1283 -0.0450  0.7198
 9933SOL    HW132052   7.774   0.010  10.496 -0.3726 -1.3806 -0.0329
 9933SOL    HW232053   7.913  -0.020  10.443  0.1292 -0.1146  0.5413
 9934SOL     OW32054   9.885   6.214   3.841 -0.1270 -0.5205 -0.3657
 9934SOL    HW132055   9.845   6.127   3.845 -1.1633 -0.0511 -0.3500
 9934SOL    HW232056   9.829   6.269   3.896  0.2197  0.2689 -0.7907
 9935SOL     OW32057   3.529   7.949   5.438 -0.0340 -0.2289  0.6281
 9935SOL    HW132058   3.489   7.900   5.510  0.5243  0.7871  1.6543
 9935SOL    HW232059   3.527   8.040   5.467 -0.7777  0.3486 -1.1169
 9936SOL     OW32060   2.613   3.877   8.002  0.7903 -0.0533 -0.2241
 9936SOL    HW132061   2.644   3.788   8.016  0.4530  0.0450  1.2962
 9936SOL    HW232062   2.671   3.913   7.935  1.0770 -1.3257 -0.6746
 9937SOL     OW32063   2.015   3.030   0.641  0.4602  0.2877 -0.2469
 9937SOL    HW132064   1.952   3.022   0.712 -0.5661 -1.9657 -1.2863
 9937SOL    HW232065   1.964   3.065   0.567  0.8891  0.2431 -0.5710
 9938SOL     OW32066  10.052   3.201   6.199  0.2642 -0.6719 -0.4162
 9938SOL    HW132067  10.115   3.158   6.140  1.3218 -1.8984  1.5085
 9938SOL    HW232068   9.967   3.187   6.157  1.0374 -0.8995 -1.9948
 9939SOL     OW32069   6.999  10.076   4.349 -0.5055 -0.8502  0.4098
 9939SOL    HW132070   6.995  10.138   4.276 -0.8597  1.1863  2.0318
 9939SOL    HW232071   7.087  10.038   4.343  0.6396  1.5252  0.5726
 9940SOL     OW32072   6.728   3.031   6.868  0.0114  0.1810  0.0305
 9940SOL    HW132073   6.652   3.008   6.814 -0.3917 -0.5572  0.8842
 9940SOL    HW232074   6.717   3.125   6.885 -0.1056  0.3185 -0.7800
 9941SOL     OW32075   5.085   2.274   4.686 -0.0164  0.3037 -0.0064
 9941SOL    HW132076   5.049   2.279   4.774 -1.5718  1.0617 -0.6328
 9941SOL    HW232077   5.171   2.316   4.691 -0.6976  1.6529  0.8666
 9942SOL     OW32078   7.573   7.124   1.251  0.1618  0.3922  0.5305
 9942SOL    HW132079   7.625   7.088   1.323 -0.0681 -0.2531  0.3835
 9942SOL    HW232080   7.635   7.174   1.199  0.9875 -1.4844 -0.4154
 9943SOL     OW32081   3.777   1.316   2.193 -0.4527 -0.4961  0.2021
 9943SOL    HW132082   3.837   1.278   2.129  0.0987  1.3354 -0.4266
 9943SOL    HW232083   3.735   1.241   2.234  2.0179 -1.8505  0.4273
 9944SOL     OW32084   2.466   4.801   1.806 -0.9620 -0.1479 -0.2755
 9944SOL    HW132085   2.500   4.804   1.895 -0.8874  0.0448 -0.3111
 9944SOL    HW232086   2.427   4.887   1.792  0.1543  0.2707 -0.8771
 9945SOL     OW32087   7.710   0.168   6.410 -0.7733 -0.1044  0.1664
 9945SOL    HW132088   7.644   0.154   6.477 -1.2051  0.5896 -0.1074
 9945SOL    HW232089   7.675   0.238   6.356 -1.2121 -1.7408 -1.7900
 9946SOL     OW32090   2.408   0.445   6.365  0.3083 -0.0069 -0.3647
 9946SOL    HW132091   2.367   0.406   6.442 -0.0789 -0.8075 -0.9585
 9946SOL    HW232092   2.497   0.467   6.393  0.4019 -0.9505  0.1014
 9947SOL     OW32093   9.778   9.215   2.091 -0.0045  0.3165 -0.0204
 9947SOL    HW132094   9.746   9.302   2.065 -1.5367  0.0832  0.9444
 9947SOL    HW232095   9.794   9.223   2.185 -1.9611 -0.9011  0.4769
 9948SOL     OW32096   6.613  10.581   1.716  1.2545  0.1460  0.5061
 9948SOL    HW132097   6.585  10.670   1.697 -0.0266 -0.1346  0.9823
 9948SOL    HW232098   6.532  10.533   1.733  1.5004 -1.9728 -3.1069
 9949SOL     OW32099   6.255   6.491   7.859 -0.2421 -0.1258 -0.5687
 9949SOL    HW132100   6.236   6.522   7.771 -0.4231  0.6497 -0.2646
 9949SOL    HW232101   6.283   6.569   7.907 -1.7298 -0.2085  0.5084
 9950SOL     OW32102   2.976   3.013   0.121 -0.3287  0.1436 -0.8106
 9950SOL    HW132103   3.015   2.963   0.049 -0.1488  0.4660 -0.9423
 9950SOL    HW232104   3.014   2.976   0.200  0.0241  0.2573 -0.9232
 9951SOL     OW32105   3.411   7.849   3.402  0.1884 -0.3746 -0.0228
 9951SOL    HW132106   3.486   7.904   3.380 -0.1508 -0.0384 -0.3460
 9951SOL    HW232107   3.410   7.847   3.498  0.3783 -0.0581 -0.0148
 9952SOL     OW32108   2.851   5.546   4.684  0.5357  0.0017 -0.4739
 9952SOL    HW132109   2.845   5.577   4.774 -1.6580  0.8399 -0.8616
 9952SOL    HW232110   2.903   5.466   4.690 -1.4451 -1.2528  1.9074
 9953SOL     OW32111   8.956   4.897   5.520 -0.0683  0.0908 -0.0003
 9953SOL    HW132112   8.950   4.827   5.455  1.5944  1.4528 -1.7373
 9953SOL    HW232113   9.040   4.882   5.564  0.1456  0.7688 -0.1592
 9954SOL     OW32114   7.639   9.268   6.834 -0.4370 -0.0488  0.0507
 9954SOL    HW132115   7.650   9.230   6.921  1.5349 -0.3155 -0.2687
 9954SOL    HW232116   7.661   9.197   6.773  1.6811  1.0580 -0.5792
 9955SOL     OW32117   4.144   3.772   9.109 -0.5216  0.4145  0.1116
 9955SOL    HW132118   4.069   3.714   9.123  1.2820 -1.6519  2.1338
 9955SOL    HW232119   4.175   3.751   9.021  0.9308 -2.9603  1.2704
 9956SOL     OW32120  10.418   9.908   1.750  0.4365  0.2353 -0.0204
 9956SOL    HW132121  10.450   9.821   1.774 -0.1455  0.3134  1.0912
 9956SOL    HW232122  10.498   9.961   1.744  0.7372 -0.1987  0.0489
 9957SOL     OW32123   3.100   0.799   5.997  0.2794 -0.3305 -0.2846
 9957SOL    HW132124   3.096   0.755   6.083 -0.0874 -1.1752 -0.7215
 9957SOL    HW232125   3.027   0.861   5.999  0.7901  0.2702  0.3328
 9958SOL     OW32126   0.696   5.940   5.296  0.5512 -0.4763 -0.0408
 9958SOL    HW132127   0.731   5.988   5.372  0.9576 -0.3068 -0.3318
 9958SOL    HW232128   0.749   5.860   5.293 -0.2683 -1.0668  0.5750
 9959SOL     OW32129  10.560   8.401   1.221  0.8227 -0.0484 -0.2702
 9959SOL    HW132130  10.502   8.473   1.247  0.0842 -1.0220  0.9251
 9959SOL    HW232131  10.618   8.389   1.296  0.6557 -0.9532 -0.2687
 9960SOL     OW32132   8.240   0.340   0.248 -0.0068  0.3512  0.4740
 9960SOL    HW132133   8.225   0.365   0.339  0.6311  1.5259  0.2796
 9960SOL    HW232134   8.197   0.408   0.196 -0.9093 -0.6423 -0.1327
 9961SOL     OW32135   7.588   6.020   9.938  1.0036 -0.3562 -0.4371
 9961SOL    HW132136   7.618   5.990  10.024  0.8031  0.2745 -0.1425
 9961SOL    HW232137   7.668   6.038   9.889  1.1177 -0.5860 -0.3321
 9962SOL     OW32138   1.768   7.127   2.165 -0.1848  0.1965  0.0075
 9962SOL    HW132139   1.686   7.099   2.203  0.9267 -1.5469  1.2168
 9962SOL    HW232140   1.806   7.187   2.230 -0.0633  0.2637 -0.1240
 9963SOL     OW32141   7.000   0.748   1.519 -0.5909 -0.3169  0.0486
 9963SOL    HW132142   6.961   0.666   1.547 -0.2793 -0.8171 -0.9480
 9963SOL    HW232143   7.076   0.760   1.578 -0.1670 -1.1540 -0.3206
 9964SOL     OW32144   5.963   1.082   1.672 -0.5690  0.1855 -0.2991
 9964SOL    HW132145   6.036   1.110   1.727 -1.1253  2.4268 -0.6047
 9964SOL    HW232146   5.972   1.133   1.592 -2.9752  1.3211  0.0432
 9965SOL     OW32147   5.396   6.352   4.853  0.6376  0.2881 -0.7450
 9965SOL    HW132148   5.328   6.310   4.800  1.4034 -1.7503 -0.1715
 9965SOL    HW232149   5.349   6.419   4.903 -0.7388 -0.2939 -1.2091
 9966SOL     OW32150   4.057   8.449   4.592 -0.1413  0.2444  0.2547
 9966SOL    HW132151   3.978   8.492   4.560 -0.0257  0.3660  0.1289
 9966SOL    HW232152   4.103   8.421   4.513  0.1876  0.6212  0.3071
 9967SOL     OW32153   0.571   7.140   2.097  0.3208  0.0334 -0.2474
 9967SOL    HW132154   0.498   7.162   2.038 -0.1427 -0.7687  0.0183
 9967SOL    HW232155   0.529   7.119   2.180  0.8376 -0.7291 -0.1736
 9968SOL     OW32156   8.328   5.545   8.219  0.1129 -0.6222 -0.6005
 9968SOL    HW132157   8.269   5.553   8.144 -0.7298  1.1461  0.1876
 9968SOL    HW232158   8.270   5.518   8.291  0.6708 -1.0263 -0.2972
 9969SOL     OW32159  10.041   0.065   2.652  1.1062  0.0019 -0.4348
 9969SOL    HW132160  10.007  -0.025   2.652  0.2075  0.3284 -0.8217
 9969SOL    HW232161  10.117   0.062   2.595  1.0627 -0.5101 -0.4665
 9970SOL     OW32162   6.955   6.100   6.219 -0.7592  0.2301  0.4691
 9970SOL    HW132163   7.032   6.156   6.206  0.3363 -1.3445 -0.1120
 9970SOL    HW232164   6.971   6.058   6.304  0.4882 -2.2114 -0.8691
 9971SOL     OW32165   6.096   5.632   7.284  0.4406 -0.0010 -0.5834
 9971SOL    HW132166   6.188   5.612   7.268  0.4947 -0.1987 -0.0307
 9971SOL    HW232167   6.050   5.551   7.266  0.2770  0.2976 -1.6023
 9972SOL     OW32168   7.484   3.316   5.154  0.3314 -0.2398 -0.2256
 9972SOL    HW132169   7.401   3.289   5.192 -0.6781 -0.8659 -2.6584
 9972SOL    HW232170   7.492   3.409   5.176  0.1136 -0.6836  1.8820
 9973SOL     OW32171   0.547   4.200  10.478  0.2938  0.0643 -0.1744
 9973SOL    HW132172   0.576   4.111  10.498  2.4523 -0.2560 -3.7900
 9973SOL    HW232173   0.482   4.189  10.408 -0.7421  1.3312  0.5346
 9974SOL     OW32174   9.102   6.470   6.163  0.1206 -0.9582 -0.6932
 9974SOL    HW132175   9.079   6.523   6.240  0.2333 -2.2290  0.2432
 9974SOL    HW232176   9.195   6.450   6.175  0.3096 -0.6040 -1.5232
 9975SOL     OW32177  10.222   9.014   6.692  0.3906 -0.4975  0.0590
 9975SOL    HW132178  10.226   9.098   6.646 -0.3790 -0.0416  0.7782
 9975SOL    HW232179  10.303   9.012   6.744  0.6342 -0.4183 -0.3116
 9976SOL     OW32180   9.561   1.968   5.255  1.2624 -0.2045  0.5109
 9976SOL    HW132181   9.569   1.903   5.325  0.0401 -0.3099  0.5760
 9976SOL    HW232182   9.472   1.955   5.221  1.0304  1.3503  0.4469
 9977SOL     OW32183   5.536   2.992   0.809  0.3227  0.4841  0.0355
 9977SOL    HW132184   5.449   3.029   0.795  0.1876  0.2489  0.2735
 9977SOL    HW232185   5.582   3.011   0.727 -0.1813 -0.0542 -0.3782
 9978SOL     OW32186   7.410   5.925   1.434 -0.7655  0.0903  0.2939
 9978SOL    HW132187   7.461   5.988   1.384 -1.3975 -0.1448 -0.6727
 9978SOL    HW232188   7.368   5.978   1.502  1.6252  0.1176  1.8771
 9979SOL     OW32189   5.590   0.347   5.115  0.6293 -0.0621 -0.4835
 9979SOL    HW132190   5.640   0.301   5.182  1.9349  1.3739 -0.4122
 9979SOL    HW232191   5.612   0.301   5.034  2.2034  0.5759 -0.4667
 9980SOL     OW32192   8.024   2.024   6.001 -1.3011 -0.2909 -0.1072
 9980SOL    HW132193   8.006   2.079   6.077  2.0519 -0.0795  0.7150
 9980SOL    HW232194   8.062   2.084   5.937  0.3283 -1.2108 -0.0521
 9981SOL     OW32195  10.077   8.982   1.706 -0.4319 -0.0328 -0.0288
 9981SOL    HW132196  10.157   8.962   1.755 -0.8472 -0.9421  0.3004
 9981SOL    HW232197  10.063   9.075   1.720 -0.6476 -0.3061  1.7910
 9982SOL     OW32198   5.505   3.919   5.125  0.2000  0.2158  0.6318
 9982SOL    HW132199   5.564   3.873   5.065 -0.9433 -1.5565  0.8226
 9982SOL    HW232200   5.470   3.992   5.072  2.8538  1.6362  0.6672
 9983SOL     OW32201   1.158   6.751   5.978  0.3640 -0.2230  0.8594
 9983SOL    HW132202   1.120   6.666   5.958  1.8911 -0.6769 -0.2846
 9983SOL    HW232203   1.234   6.758   5.919  1.0604  1.3381  1.8791
 9984SOL     OW32204  10.344   3.794   1.283  0.5092  0.4621 -0.3379
 9984SOL    HW132205  10.296   3.736   1.224 -1.2908  0.9036  0.5945
 9984SOL    HW232206  10.360   3.741   1.361  0.8268  0.5647 -0.3324
 9985SOL     OW32207   5.475   7.966   3.593  0.2317 -0.1230 -0.3113
 9985SOL    HW132208   5.555   8.003   3.555 -0.9160  1.8579 -0.9403
 9985SOL    HW232209   5.442   7.906   3.526  0.3993  0.1981 -0.6820
 9986SOL     OW32210   5.047   4.645   8.892 -0.1348  0.5778 -0.0287
 9986SOL    HW132211   4.998   4.720   8.858  1.0619  0.8966 -1.1226
 9986SOL    HW232212   4.990   4.570   8.876 -0.7830  1.0872 -0.1460
 9987SOL     OW32213   2.175   0.310   0.543 -0.0084 -0.1788  0.2256
 9987SOL    HW132214   2.117   0.258   0.600 -0.3326  1.1488  1.1461
 9987SOL    HW232215   2.133   0.395   0.537  1.7254  0.7637  0.7452
 9988SOL     OW32216   6.472   0.429   6.397 -0.0717  0.3625 -0.1641
 9988SOL    HW132217   6.483   0.405   6.306 -2.1015  0.9766 -0.6321
 9988SOL    HW232218   6.553   0.475   6.420  0.9655 -0.8398 -1.2563
 9989SOL     OW32219   2.495   2.208   3.512  0.1522 -0.2535 -0.0794
 9989SOL    HW132220   2.546   2.277   3.470  0.6357 -1.1327 -0.9586
 9989SOL    HW232221   2.555   2.169   3.576 -0.5405  0.9979  1.4096
 9990SOL     OW32222  10.225   9.727   7.069  0.2699 -0.5735  0.0933
 9990SOL    HW132223  10.166   9.771   7.008  1.2457  0.5058 -0.1015
 9990SOL    HW232224  10.169   9.665   7.116 -0.6888 -0.7209 -1.1981
 9991SOL     OW32225   3.968   3.223   7.495 -0.2441  0.3484 -0.2855
 9991SOL    HW132226   3.995   3.134   7.474  0.9835  0.9367 -1.3341
 9991SOL    HW232227   4.022   3.279   7.439 -1.4004  1.7374 -0.0907
 9992SOL     OW32228   6.635   8.827   3.479  0.1636 -0.7142  0.2915
 9992SOL    HW132229   6.594   8.746   3.448 -0.5187 -0.2398 -0.0896
 9992SOL    HW232230   6.687   8.800   3.555 -0.1103 -1.4963  0.2164
 9993SOL     OW32231   2.672   5.056   0.338 -0.1391 -0.0000  0.6482
 9993SOL    HW132232   2.598   5.079   0.281 -0.3346  3.4338  2.0846
 9993SOL    HW232233   2.632   5.037   0.423  0.5364  1.1041  1.2270
 9994SOL     OW32234   4.754   0.417   3.075 -0.3409 -0.0112  0.0373
 9994SOL    HW132235   4.794   0.366   3.146  0.0782 -1.5528 -1.2404
 9994SOL    HW232236   4.829   0.448   3.024 -0.6655 -0.4965 -0.7562
 9995SOL     OW32237   0.267   3.356   8.162  0.1955  0.0155  0.4728
 9995SOL    HW132238   0.317   3.327   8.238  0.4776 -0.0430  0.2658
 9995SOL    HW232239   0.257   3.277   8.109 -1.3967 -0.3270  1.2174
 9996SOL     OW32240   8.275   6.115   7.957  0.0176  0.7394 -0.3490
 9996SOL    HW132241   8.327   6.185   7.997  2.5762 -1.1718 -0.0410
 9996SOL    HW232242   8.205   6.098   8.019 -0.8638  3.1565 -0.5720
 9997SOL     OW32243   3.983   2.981   1.059 -0.2800  0.0071 -0.7109
 9997SOL    HW132244   3.897   3.014   1.086  0.5429  4.2428 -2.5570
 9997SOL    HW232245   4.032   2.972   1.141 -1.6464  0.1067  0.1544
 9998SOL     OW32246   6.285   8.080   5.862 -0.3110  0.0202  0.2792
 9998SOL    HW132247   6.196   8.053   5.837 -0.4124  1.8469 -1.6580
 9998SOL    HW232248   6.336   8.070   5.782  0.6761  1.1479  0.7420
 9999SOL     OW32249   4.902   8.452   5.541 -0.0361 -0.3705 -0.1333
 9999SOL    HW132250   4.852   8.455   5.622 -0.4614 -1.2431 -0.3484
 9999SOL    HW232251   4.876   8.531   5.493 -3.0576 -1.8984 -1.2844
10000SOL     OW32252   7.763   7.565   3.264 -0.1851 -0.2950 -0.0635
10000SOL    HW132253   7.797   7.478   3.288  0.2317 -0.1861 -0.2580
10000SOL    HW232254   7.694   7.547   3.200 -1.1722 -0.5771  1.0456
10001SOL     OW32255   9.101  10.163   0.066 -0.5862 -0.0432 -0.0482
10001SOL    HW132256   9.100  10.245   0.016 -0.4846  0.5696  0.9301
10001SOL    HW232257   9.172  10.112   0.027  0.5399  1.0792  0.4794
10002SOL     OW32258   7.054   5.580   0.093 -0.7909 -0.5325  0.0854
10002SOL    HW132259   6.980   5.543   0.045 -0.0269 -0.3130 -1.2980
10002SOL    HW232260   7.039   5.674   0.090 -1.3110 -0.5535  1.2692
10003SOL     OW32261   0.049   0.431   0.883  0.5515 -0.2195  0.5891
10003SOL    HW132262   0.033   0.484   0.961  0.1000  0.7081 -0.1146
10003SOL    HW232263   0.120   0.476   0.838 -0.1599  0.0703 -0.2622
10004SOL     OW32264   8.082   9.747   0.918 -0.1641  0.5565 -0.0068
10004SOL    HW132265   8.171   9.777   0.939 -0.1790  0.7375 -0.2059
10004SOL    HW232266   8.095   9.659   0.883 -0.0479  0.6395 -0.1763
10005SOL     OW32267   8.799   7.349   2.294  0.1526  0.5194  0.0549
10005SOL    HW132268   8.813   7.444   2.293  1.2520  0.3815  0.5842
10005SOL    HW232269   8.736   7.335   2.364 -0.3663  0.9014 -0.3307
10006SOL     OW32270   8.971   3.993   0.843 -0.1563 -0.4457 -0.2208
10006SOL    HW132271   9.001   3.945   0.766  1.2084 -1.1008  0.6718
10006SOL    HW232272   9.048   4.042   0.871 -0.0171 -1.7486  1.8554
10007SOL     OW32273   4.790   1.522   1.764 -0.4938  0.3748 -0.1763
10007SOL    HW132274   4.747   1.596   1.806  0.8418  1.1601 -0.1384
10007SOL    HW232275   4.799   1.548   1.673  0.2602  0.4066 -0.1003
10008SOL     OW32276  10.556   3.342   8.489 -0.3245  0.8248 -0.2574
10008SOL    HW132277  10.601   3.348   8.405 -0.3703 -0.0312 -0.3494
10008SOL    HW232278  10.600   3.270   8.535 -0.3517  1.2310  0.4173
10009SOL     OW32279   7.965   9.821  10.039  0.0485  0.1178 -0.1411
10009SOL    HW132280   7.970   9.848  10.130 -3.7188 -2.6416  1.1324
10009SOL    HW232281   7.884   9.861  10.007  2.0975  2.4530 -3.0213
10010SOL     OW32282   2.835   2.058   6.110  0.0339  0.0046  0.1566
10010SOL    HW132283   2.881   2.142   6.105 -1.0554  0.6665  0.9423
10010SOL    HW232284   2.750   2.075   6.070 -0.2845 -0.6547  0.5391
10011SOL     OW32285   2.075   1.184   3.080  0.7595  0.0519  0.0088
10011SOL    HW132286   2.008   1.140   3.028 -0.3993 -0.3506  1.7676
10011SOL    HW232287   2.029   1.254   3.126  1.7217  0.3534  0.5511
10012SOL     OW32288   2.843   4.916  10.572  0.2742 -0.5715  0.2193
10012SOL    HW132289   2.919   4.963  10.606 -0.3913  1.0701 -0.4324
10012SOL    HW232290   2.874   4.875  10.491  0.2720  0.8699 -0.5468
10013SOL     OW32291   0.458   9.195  10.245  0.1558  0.2191  0.2433
10013SOL    HW132292   0.532   9.195  10.305 -0.9410  1.8063  1.6888
10013SOL    HW232293   0.430   9.104  10.241  0.6138 -0.0098  1.7216
10014SOL     OW32294   8.391   9.366  10.195 -0.9334 -0.0408  0.2273
10014SOL    HW132295   8.418   9.352  10.285 -0.0159 -0.1657 -0.0560
10014SOL    HW232296   8.329   9.296  10.177  0.8839 -1.6485 -0.0531
10015SOL     OW32297   2.311   3.061   2.327  0.0856  0.5921 -0.4982
10015SOL    HW132298   2.286   3.060   2.419  1.1044 -0.7842 -0.2082
10015SOL    HW232299   2.392   3.112   2.325 -0.2206  1.0753 -0.7217
10016SOL     OW32300  10.200   7.559   1.019 -0.2698  0.2137 -0.3557
10016SOL    HW132301  10.286   7.524   1.038 -0.2548  1.0081  1.2274
10016SOL    HW232302  10.148   7.484   0.990  0.6646 -0.4487 -0.3317
10017SOL     OW32303   9.873   1.073   3.399  0.3126  0.2647  0.5920
10017SOL    HW132304   9.835   1.008   3.340  2.8134 -2.8338  2.0845
10017SOL    HW232305   9.799   1.106   3.450 -1.2189 -0.4622 -1.0794
10018SOL     OW32306   9.192   7.706   5.463  0.0694 -0.1633 -0.6276
10018SOL    HW132307   9.151   7.786   5.433  2.2431  1.2979  0.0541
10018SOL    HW232308   9.148   7.686   5.546 -1.3738 -0.4783 -1.4309
10019SOL     OW32309   6.435   7.029   5.501 -0.0138 -1.1144  0.1134
10019SOL    HW132310   6.340   7.022   5.511 -0.3181 -0.1032 -1.7920
10019SOL    HW232311   6.465   7.061   5.586 -1.5686  0.0688  0.2703
10020SOL     OW32312   3.378   2.808   4.837 -0.1557  0.0177 -0.4982
10020SOL    HW132313   3.327   2.756   4.899  0.6911  1.0283  1.1038
10020SOL    HW232314   3.469   2.796   4.865  0.2593  0.4253 -1.6136
10021SOL     OW32315   7.372   2.666  10.349  0.0146 -0.3386 -0.0240
10021SOL    HW132316   7.301   2.730  10.346  2.0483  2.0257 -2.0828
10021SOL    HW232317   7.361   2.612  10.271 -0.3332 -0.9723  0.4503
10022SOL     OW32318   4.711   7.772   8.999 -0.5593  0.6555 -0.1712
10022SOL    HW132319   4.717   7.750   9.092 -1.5717  1.9872  0.2437
10022SOL    HW232320   4.708   7.868   8.997 -4.9798  0.7277 -1.1466
10023SOL     OW32321   2.776   9.168   6.346 -0.1938 -0.3049 -0.2954
10023SOL    HW132322   2.776   9.200   6.256  0.6525 -1.6184 -0.7879
10023SOL    HW232323   2.855   9.206   6.385  0.3957 -1.1378 -0.6510
10024SOL     OW32324   2.217   4.426   5.432 -0.0369  0.1569  0.0073
10024SOL    HW132325   2.156   4.499   5.419  0.1577  0.3601  0.2146
10024SOL    HW232326   2.293   4.466   5.474  1.2075  0.3166 -2.2964
10025SOL     OW32327   3.096   5.957   0.008  0.6535  0.4311 -0.5907
10025SOL    HW132328   3.035   6.030  -0.003  0.7080  0.5567 -0.0955
10025SOL    HW232329   3.169   5.977  -0.051  0.3875  0.4695 -0.9058
10026SOL     OW32330   5.350   5.552   1.375 -0.6345 -0.1070  0.1682
10026SOL    HW132331   5.392   5.579   1.457  0.2115  1.1448 -0.6433
10026SOL    HW232332   5.416   5.567   1.308 -1.3587 -1.0011 -0.7723
10027SOL     OW32333   2.008   6.425   2.934 -0.0195  0.1733 -0.0776
10027SOL    HW132334   1.972   6.349   2.981  1.5019 -0.2245  0.5157
10027SOL    HW232335   1.999   6.402   2.842  0.7844 -0.9541  0.0905
10028SOL     OW32336   7.528   4.685   3.299 -0.0259  0.4441 -0.0760
10028SOL    HW132337   7.549   4.630   3.224  1.7821 -0.0926  0.7782
10028SOL    HW232338   7.449   4.645   3.336  0.4921 -0.7791 -0.2442
10029SOL     OW32339  10.394   4.780   5.117  0.1156 -0.4326  0.1550
10029SOL    HW132340  10.386   4.726   5.039 -0.9135 -0.7041  0.4391
10029SOL    HW232341  10.368   4.868   5.088 -2.3307 -0.9322  0.6287
10030SOL     OW32342   0.160   2.994   3.809  0.2250 -0.0090  0.1572
10030SOL    HW132343   0.099   3.026   3.875  0.1269  0.1410 -0.0066
10030SOL    HW232344   0.224   2.942   3.859  0.9249  1.1913  0.5691
10031SOL     OW32345   9.874   2.743   6.463 -0.0401  0.1109  0.3790
10031SOL    HW132346   9.850   2.834   6.480 -2.0710 -0.3459  0.1785
10031SOL    HW232347   9.873   2.702   6.549  0.9564  0.2686  0.4793
10032SOL     OW32348   1.306   8.023   9.864  0.4713  0.0483  0.0153
10032SOL    HW132349   1.341   8.112   9.858  0.6297  0.4090  3.9054
10032SOL    HW232350   1.241   8.018   9.794 -0.6506  3.7851  0.5818
10033SOL     OW32351   5.800   6.806   4.914 -0.0678  0.2262 -0.4031
10033SOL    HW132352   5.849   6.763   4.844  0.2582 -1.9099  1.0627
10033SOL    HW232353   5.708   6.798   4.887  0.1269  3.0322 -2.4765
10034SOL     OW32354   7.832   7.038   3.877  0.2306  0.1867 -0.1709
10034SOL    HW132355   7.745   7.056   3.843  0.5469  0.3698 -0.9078
10034SOL    HW232356   7.883   7.014   3.800  0.1354 -2.7741  0.5887
10035SOL     OW32357   1.002   9.140   4.363 -0.1192 -0.4647 -0.6288
10035SOL    HW132358   0.942   9.152   4.290 -1.0322  1.0721  0.3067
10035SOL    HW232359   0.947   9.105   4.434  0.8038 -2.2022 -0.7151
10036SOL     OW32360  10.093   9.018   9.769  0.2762  0.0069  0.3468
10036SOL    HW132361  10.016   8.981   9.725  0.1519 -0.4579  0.9471
10036SOL    HW232362  10.069   9.021   9.861  1.4456 -1.3778  0.7378
10037SOL     OW32363   7.261   9.636   9.750 -0.2035 -0.4374 -0.1640
10037SOL    HW132364   7.209   9.556   9.742 -0.6444 -0.1889  0.1748
10037SOL    HW232365   7.227   9.679   9.828  0.9414 -0.5734  0.4329
10038SOL     OW32366   0.147   1.635   7.468  0.1967  0.4392  0.0088
10038SOL    HW132367   0.205   1.656   7.540  0.0719 -0.5425  0.4066
10038SOL    HW232368   0.202   1.642   7.390  0.4495  1.0464  0.2383
10039SOL     OW32369   2.074   2.770   8.157 -0.4198  0.5248  0.2955
10039SOL    HW132370   2.029   2.807   8.232 -1.0255 -0.6052  0.5145
10039SOL    HW232371   2.166   2.764   8.184 -0.4509  1.1061  0.5392
10040SOL     OW32372   8.165   3.419   6.087 -0.2280  0.3118 -0.1324
10040SOL    HW132373   8.224   3.482   6.046 -1.7430  1.6284 -0.3830
10040SOL    HW232374   8.150   3.352   6.020 -0.3996  0.8979 -0.6838
10041SOL     OW32375   2.349   4.971   9.863  0.1620 -0.3674  0.2263
10041SOL    HW132376   2.430   4.939   9.823 -1.1839 -1.0854 -2.1054
10041SOL    HW232377   2.303   4.892   9.892 -0.5612 -0.1315 -0.2476
10042SOL     OW32378   5.215   8.932   3.311  0.5598 -0.0655 -0.4337
10042SOL    HW132379   5.196   8.842   3.285 -1.4085  0.7559 -2.1268
10042SOL    HW232380   5.304   8.948   3.278  1.2799 -1.5939  0.6372
10043SOL     OW32381   0.520   7.017   9.423  0.3243  0.1102 -0.5232
10043SOL    HW132382   0.490   7.105   9.402 -1.5428 -0.4716 -0.4922
10043SOL    HW232383   0.483   6.999   9.509  1.8128 -0.2255  0.0665
10044SOL     OW32384   9.243   1.719   3.423  0.0787 -0.4737 -0.1292
10044SOL    HW132385   9.238   1.654   3.494 -1.4520  2.7855  3.0381
10044SOL    HW232386   9.151   1.738   3.402  0.0700  4.1323  2.7750
10045SOL     OW32387   8.100   7.162   9.980  0.0575  0.3870  0.1147
10045SOL    HW132388   8.169   7.108   9.941 -1.1897 -0.6656 -0.7324
10045SOL    HW232389   8.024   7.105   9.983 -0.9569  1.7031  0.4693
10046SOL     OW32390   0.937   8.765   5.364 -0.6117  0.3229 -0.1361
10046SOL    HW132391   0.921   8.850   5.324  1.0754 -0.2079 -2.1588
10046SOL    HW232392   0.868   8.709   5.330  0.6458 -0.0521 -2.2526
10047SOL     OW32393   5.475   7.590   6.966  0.4270 -0.3005 -0.3645
10047SOL    HW132394   5.402   7.626   7.017  1.0697 -0.6991  0.8760
10047SOL    HW232395   5.445   7.504   6.939  0.0356 -0.0403 -0.7771
10048SOL     OW32396   9.443   7.208   0.556 -0.3313 -0.1184 -0.1399
10048SOL    HW132397   9.418   7.266   0.628  0.2958 -1.2340  1.0018
10048SOL    HW232398   9.499   7.262   0.501 -0.3210  0.5713  0.5233
10049SOL     OW32399   8.073   8.663   6.205 -0.0795  0.0898  0.4115
10049SOL    HW132400   8.053   8.754   6.185 -0.4125 -0.0222  0.2267
10049SOL    HW232401   8.062   8.617   6.122 -0.3829 -0.1963  0.6045
10050SOL     OW32402   6.637   0.017   5.870 -0.0333 -0.2545  0.3804
10050SOL    HW132403   6.731   0.023   5.854 -0.0692 -0.0660  0.2387
10050SOL    HW232404   6.602  -0.021   5.790 -0.1014 -0.1546  0.3634
10051SOL     OW32405   2.614   7.301   0.550  0.2453  0.2787 -0.4929
10051SOL    HW132406   2.625   7.226   0.608  1.4847  0.6816 -0.1686
10051SOL    HW232407   2.599   7.375   0.610 -0.9117  0.3267 -0.8056
10052SOL     OW32408   0.483   3.381   3.054  0.0641  0.3595  0.0643
10052SOL    HW132409   0.516   3.350   2.970 -0.1428 -0.7836  0.3909
10052SOL    HW232410   0.560   3.383   3.111  0.4179  2.1771 -0.4133
10053SOL     OW32411   1.393   6.827   3.951 -0.5038  0.1146  0.6251
10053SOL    HW132412   1.468   6.865   3.906  0.0802 -0.2224  1.2929
10053SOL    HW232413   1.429   6.753   3.999 -1.1249  0.4069  1.5629
10054SOL     OW32414   9.926  10.171   6.288 -0.2747 -0.1428  0.0765
10054SOL    HW132415   9.972  10.087   6.283 -1.3046 -0.7617  0.7076
10054SOL    HW232416   9.978  10.230   6.233  0.8417 -1.0084  0.1599
10055SOL     OW32417  10.041   2.977   2.012  0.6587 -0.2631  0.1709
10055SOL    HW132418  10.114   2.937   2.060  0.8080 -0.6786 -0.4003
10055SOL    HW232419  10.064   3.070   2.008  1.8648 -0.5811 -1.2090
10056SOL     OW32420   8.872   7.416  10.547 -0.1401  0.1582  0.1048
10056SOL    HW132421   8.911   7.396  10.632  0.7137 -1.0718 -0.5551
10056SOL    HW232422   8.782   7.385  10.553 -0.7026  1.8604  1.2026
10057SOL     OW32423   3.641   5.779   7.991 -0.8123  0.1806  0.2869
10057SOL    HW132424   3.558   5.823   8.010 -1.8150 -2.2011  2.0101
10057SOL    HW232425   3.625   5.688   8.015  1.9280 -0.6279 -0.6110
10058SOL     OW32426   0.155   0.356   3.919 -0.2565 -0.4895  0.5550
10058SOL    HW132427   0.122   0.268   3.898  0.0930 -0.7250  0.9639
10058SOL    HW232428   0.170   0.353   4.014  0.3903 -0.1992  0.4619
10059SOL     OW32429   8.476   3.059   1.659  0.2830 -0.1833  0.1516
10059SOL    HW132430   8.555   3.113   1.659  1.5259 -1.8013 -2.2636
10059SOL    HW232431   8.509   2.970   1.650 -1.7996 -1.1104  1.0911
10060SOL     OW32432   7.039   4.801   2.248  0.4621  0.0567  0.0859
10060SOL    HW132433   7.023   4.895   2.247 -0.2065 -0.0535 -0.2177
10060SOL    HW232434   6.952   4.762   2.237  0.7886 -0.5858 -0.2651
10061SOL     OW32435   0.181   6.803  10.585 -0.1313  0.1356 -0.5312
10061SOL    HW132436   0.255   6.821  10.527  0.2477 -0.8788 -0.3827
10061SOL    HW232437   0.155   6.888  10.618  0.2918  0.6213 -1.4134
10062SOL     OW32438   1.549   2.068   5.136 -0.1489  0.0271 -0.1876
10062SOL    HW132439   1.615   2.091   5.071  0.2656  2.5710  1.0325
10062SOL    HW232440   1.594   2.004   5.193 -0.6815 -2.6329 -2.5182
10063SOL     OW32441   5.324  10.199   7.409  0.1762 -0.1497 -0.3053
10063SOL    HW132442   5.417  10.219   7.403  0.2229 -0.3283 -0.2046
10063SOL    HW232443   5.321  10.107   7.436 -0.0209  0.3789  1.6121
10064SOL     OW32444   6.590   3.837   0.175 -0.5793  0.4742 -0.6315
10064SOL    HW132445   6.582   3.922   0.131  1.8285  1.7984  1.2483
10064SOL    HW232446   6.654   3.788   0.123  3.5606  2.6562  1.8316
10065SOL     OW32447   0.603   4.958   2.525  0.0643 -0.0492  0.5463
10065SOL    HW132448   0.615   4.864   2.530  0.9962  0.0005 -0.3223
10065SOL    HW232449   0.663   4.994   2.589  1.8687  0.0383 -1.0979
10066SOL     OW32450   9.446   3.668   4.700 -0.3223 -0.6236  0.9889
10066SOL    HW132451   9.514   3.709   4.647 -1.5829  0.2490 -0.0178
10066SOL    HW232452   9.481   3.582   4.722  1.1897 -0.1054  0.7162
10067SOL     OW32453   8.690   2.934   2.496  0.5485 -0.1594  0.1418
10067SOL    HW132454   8.595   2.938   2.492  0.5707  0.6129  0.2365
10067SOL    HW232455   8.714   2.992   2.569  1.1834  1.1223 -1.0409
10068SOL     OW32456   8.874  10.083   0.177  0.4400  0.4765  0.1772
10068SOL    HW132457   8.800  10.094   0.117  1.0523  1.5608 -0.4005
10068SOL    HW232458   8.950  10.113   0.127  1.6680 -2.5969 -0.0329
10069SOL     OW32459   5.995   8.766   0.335  0.0828  0.2842 -0.1606
10069SOL    HW132460   6.066   8.796   0.392 -0.4514  0.1961  0.5809
10069SOL    HW232461   6.039   8.722   0.263  0.7667 -1.1372  1.0604
10070SOL     OW32462   4.100   5.549   2.914 -0.1246  0.2386  0.5306
10070SOL    HW132463   4.117   5.490   2.988 -0.5332  1.1011  1.3259
10070SOL    HW232464   4.156   5.515   2.844  1.4956  0.3554  1.7162
10071SOL     OW32465   3.356   1.719   1.484  0.1419 -0.3268  0.1034
10071SOL    HW132466   3.427   1.778   1.456 -0.1214  0.1616  0.4545
10071SOL    HW232467   3.330   1.752   1.570 -0.7441 -0.2938 -0.1737
10072SOL     OW32468   3.366   2.157   8.141 -0.0001 -0.1386 -0.0162
10072SOL    HW132469   3.282   2.196   8.167 -0.6989 -1.8209  0.3893
10072SOL    HW232470   3.370   2.074   8.189  1.6803 -0.3234 -0.4121
10073SOL     OW32471   7.247   5.714   7.490 -0.4417 -0.4068 -0.1889
10073SOL    HW132472   7.319   5.655   7.469  0.7468  1.3323 -1.2140
10073SOL    HW232473   7.268   5.747   7.578 -0.2773 -0.3318 -0.2561
10074SOL     OW32474   2.367   2.279   1.945  0.3929 -0.1845  0.0589
10074SOL    HW132475   2.321   2.198   1.971  1.1520 -0.8204 -0.5423
10074SOL    HW232476   2.415   2.305   2.024 -0.3840  0.0608  0.4604
10075SOL     OW32477  10.001   5.843   4.171 -0.6348  0.0475 -0.0687
10075SOL    HW132478   9.972   5.773   4.113 -1.2961  1.0178 -0.9442
10075SOL    HW232479   9.951   5.831   4.251  0.6825 -1.6337  0.5656
10076SOL     OW32480   0.673   6.965   3.890 -0.0639  0.5795 -0.3237
10076SOL    HW132481   0.671   6.961   3.985  1.0959 -0.2073 -0.3128
10076SOL    HW232482   0.602   6.907   3.862 -0.4227  0.8320  0.0480
10077SOL     OW32483   3.295   0.103   6.032 -0.4433 -0.4758  0.8009
10077SOL    HW132484   3.313   0.060   6.115  1.2612 -0.1349  0.6457
10077SOL    HW232485   3.230   0.047   5.989 -0.3918 -1.3286  1.8026
10078SOL     OW32486   9.737   5.563   9.005 -0.2319  0.1299 -0.0412
10078SOL    HW132487   9.797   5.637   8.994  1.9835 -1.7508 -1.5098
10078SOL    HW232488   9.767   5.521   9.086  0.7391 -1.0519 -0.9961
10079SOL     OW32489   3.955   6.108   5.988  0.2128 -0.2199  0.0125
10079SOL    HW132490   3.929   6.015   5.990 -2.5878  0.3714 -2.0749
10079SOL    HW232491   3.911   6.147   6.063  0.4269 -0.3635  0.2147
10080SOL     OW32492   2.503   1.951   3.921  0.3895  0.2157  0.3648
10080SOL    HW132493   2.508   1.975   3.829  0.5764 -0.1593  0.2723
10080SOL    HW232494   2.416   1.979   3.948 -0.4590 -1.4356 -0.4624
10081SOL     OW32495   2.842   1.215  10.093 -0.5128  0.2641  0.5858
10081SOL    HW132496   2.846   1.293  10.038 -2.4467  0.9230  1.2940
10081SOL    HW232497   2.850   1.142  10.032 -0.6176  0.9865 -0.3160
10082SOL     OW32498   2.894   9.326   8.183 -0.1075  0.0276  0.0399
10082SOL    HW132499   2.851   9.335   8.268  2.2608  0.2948  1.3064
10082SOL    HW232500   2.874   9.237   8.155 -0.6899 -0.1650  1.0296
10083SOL     OW32501   4.321   1.299   3.643 -0.4428 -0.2238 -0.5514
10083SOL    HW132502   4.382   1.286   3.570 -0.1086 -0.8646 -0.1714
10083SOL    HW232503   4.334   1.222   3.698 -0.6190  0.2965  0.2336
10084SOL     OW32504   5.901   7.122   7.889  0.0509 -0.5001 -0.3338
10084SOL    HW132505   5.843   7.149   7.960  0.2500  1.3331 -0.8177
10084SOL    HW232506   5.950   7.048   7.926 -1.0678 -0.7232  0.8094
10085SOL     OW32507   8.724   2.885   6.948  0.3835  0.3951 -0.1430
10085SOL    HW132508   8.658   2.817   6.935  1.8051 -1.0320 -0.2049
10085SOL    HW232509   8.677   2.955   6.995 -1.6675  0.3438 -1.9591
10086SOL     OW32510   2.851   3.233   5.606 -0.0205 -0.0143 -0.1621
10086SOL    HW132511   2.780   3.278   5.561 -0.2110  0.2098  0.3518
10086SOL    HW232512   2.808   3.188   5.679  0.4299  0.5648  0.4767
10087SOL     OW32513   8.792   5.505   1.943  0.3376  0.1200  0.0048
10087SOL    HW132514   8.714   5.539   1.898  0.1768 -0.5946 -0.2795
10087SOL    HW232515   8.802   5.417   1.908 -1.0579 -1.3264  2.8781
10088SOL     OW32516   0.136   5.902   0.336  0.7329 -0.1065  0.1828
10088SOL    HW132517   0.173   5.927   0.421  2.3482 -1.5515 -0.0547
10088SOL    HW232518   0.067   5.967   0.320  0.4211  0.2311  2.5636
10089SOL     OW32519   2.023   6.018   8.382 -0.3259 -0.0109  0.0255
10089SOL    HW132520   1.948   6.077   8.390  0.3359  0.8817 -0.1742
10089SOL    HW232521   2.033   6.005   8.287 -0.4991 -0.5045  0.0684
10090SOL     OW32522   9.584  10.440   5.324 -0.3665 -0.1728  0.1505
10090SOL    HW132523   9.669  10.468   5.358 -0.5502 -0.6382  1.0285
10090SOL    HW232524   9.606  10.388   5.246  0.1499 -0.2923  0.3688
10091SOL     OW32525   2.367   8.661   5.359 -0.4914  0.1566 -0.5675
10091SOL    HW132526   2.276   8.686   5.373 -1.2104 -1.7462 -1.5536
10091SOL    HW232527   2.370   8.567   5.378  1.1684  0.0784 -1.0113
10092SOL     OW32528   8.275   1.733   0.115 -0.6050  0.3512 -0.3113
10092SOL    HW132529   8.282   1.822   0.149  1.4049  0.4408 -0.8009
10092SOL    HW232530   8.248   1.680   0.190  1.2731  0.9186  0.8310
10093SOL     OW32531   8.163   9.485   6.895  0.0870 -0.1110  0.2566
10093SOL    HW132532   8.135   9.404   6.852 -0.4420 -0.5803  1.4391
10093SOL    HW232533   8.103   9.495   6.969  1.0263  0.6095  0.9479
10094SOL     OW32534   3.789   9.566   6.989 -0.5432  0.1171  0.0073
10094SOL    HW132535   3.715   9.509   6.969 -0.5871  0.3891 -0.6216
10094SOL    HW232536   3.757   9.655   6.973 -0.2171  0.2670  0.1655
10095SOL     OW32537   1.012   5.842   0.339  0.1684 -0.3225  0.7811
10095SOL    HW132538   1.027   5.810   0.250 -0.3193  1.3067  0.0788
10095SOL    HW232539   0.962   5.772   0.381 -0.5448 -0.6577 -0.5682
10096SOL     OW32540   9.718  10.065  10.095  0.1917 -0.3906  0.7311
10096SOL    HW132541   9.656  10.108  10.154  0.7585 -0.9551  1.7694
10096SOL    HW232542   9.747  10.135  10.035 -0.2790  0.2345  1.2181
10097SOL     OW32543   1.127   3.171   0.617  0.2435 -0.4181 -0.5618
10097SOL    HW132544   1.067   3.245   0.607  1.0087 -0.0065 -2.3065
10097SOL    HW232545   1.104   3.134   0.703 -0.8538  1.1879 -0.1149
10098SOL     OW32546   9.702   7.492   3.052 -0.2698  0.1379 -0.1439
10098SOL    HW132547   9.781   7.517   3.100 -1.3125  0.6308  1.3946
10098SOL    HW232548   9.657   7.430   3.109 -1.1900  0.1528 -0.8153
10099SOL     OW32549   1.782   1.653   8.387 -0.2541 -0.2963  0.3803
10099SOL    HW132550   1.720   1.682   8.453 -1.1731  0.3055 -0.6989
10099SOL    HW232551   1.728   1.610   8.320  0.3110  1.1390 -1.0844
10100SOL     OW32552   0.028   9.591   6.623 -0.2942 -0.1451  0.6225
10100SOL    HW132553  -0.061   9.615   6.648 -1.0185 -2.2559  0.3021
10100SOL    HW232554   0.025   9.585   6.528 -0.0584 -1.0308  0.6618
10101SOL     OW32555   6.909   0.009  10.521 -0.0861  0.2645  0.8359
10101SOL    HW132556   6.868  -0.020  10.439 -0.3617  0.5890  0.8590
10101SOL    HW232557   6.943   0.097  10.501  1.4654 -0.3728  0.5163
10102SOL     OW32558   7.332   5.087   0.202 -0.2186  0.0201  0.3220
10102SOL    HW132559   7.424   5.062   0.198 -0.5294 -1.0012 -0.7188
10102SOL    HW232560   7.298   5.072   0.114 -1.2996  0.7427  0.5877
10103SOL     OW32561  10.603   9.102   0.331 -0.4596 -0.3013  0.4020
10103SOL    HW132562  10.604   9.041   0.257 -0.3503 -0.1508  0.2775
10103SOL    HW232563  10.601   9.046   0.408  2.9219 -0.6173  0.4302
10104SOL     OW32564   0.906   5.270   8.262  0.3993  0.4304 -0.1144
10104SOL    HW132565   0.904   5.306   8.350  0.7463  1.3394 -0.4653
10104SOL    HW232566   0.824   5.300   8.222 -0.1419 -0.6555  0.1455
10105SOL     OW32567   7.841   7.496   5.294  0.3113  0.4065 -0.2778
10105SOL    HW132568   7.825   7.458   5.207 -0.9411  0.1964  0.0217
10105SOL    HW232569   7.831   7.422   5.353 -1.2124  0.9725  0.2333
10106SOL     OW32570   9.958   7.756   4.744  0.3505 -0.1927  0.0239
10106SOL    HW132571   9.875   7.758   4.791  1.0549  0.7814  1.2876
10106SOL    HW232572   9.985   7.664   4.746  0.4877 -0.1473  1.7933
10107SOL     OW32573   7.339   4.220   4.346 -0.2022 -0.6250 -0.4193
10107SOL    HW132574   7.384   4.161   4.285  0.3556 -0.2851 -0.3431
10107SOL    HW232575   7.326   4.167   4.425  0.1922 -0.6917 -0.3931
10108SOL     OW32576   0.664   3.984   4.183 -0.6405  0.1618 -0.3553
10108SOL    HW132577   0.614   3.923   4.237 -0.2532 -0.2351 -0.4399
10108SOL    HW232578   0.713   3.928   4.123 -1.6628  0.6183 -1.6536
10109SOL     OW32579   3.542   8.295   8.790 -0.3917  0.0547 -0.0901
10109SOL    HW132580   3.514   8.330   8.706  1.0529 -0.7736 -0.9542
10109SOL    HW232581   3.546   8.201   8.777  0.2338 -0.0511  0.7797
10110SOL     OW32582   2.694   2.020   9.139 -0.1163 -0.2902  0.1068
10110SOL    HW132583   2.666   1.951   9.199  1.1803 -0.4582  0.5518
10110SOL    HW232584   2.643   2.097   9.165 -0.5679 -0.7145  0.5064
10111SOL     OW32585   7.969   8.066   3.707  0.0290  0.5592 -0.1562
10111SOL    HW132586   8.003   8.155   3.698  1.3949 -0.0552 -1.5421
10111SOL    HW232587   7.910   8.055   3.633 -0.6283  0.5102  0.3680
10112SOL     OW32588   0.396   9.120   5.461  0.1637 -0.7466  0.2208
10112SOL    HW132589   0.336   9.114   5.535  0.1510 -1.2193  0.1773
10112SOL    HW232590   0.364   9.194   5.409 -1.3846 -1.9981 -0.6868
10113SOL     OW32591   0.198   5.518   3.028  0.0673 -0.0466 -0.3571
10113SOL    HW132592   0.148   5.437   3.037 -0.2155  0.1946  0.3820
10113SOL    HW232593   0.139   5.578   2.983 -0.3215  0.2368  0.5118
10114SOL     OW32594   6.449   3.162   9.082  0.2054 -0.1635  0.4852
10114SOL    HW132595   6.514   3.225   9.053 -0.8109  1.3090  1.2967
10114SOL    HW232596   6.446   3.172   9.177 -0.7538 -0.6503  0.5185
10115SOL     OW32597   6.850   7.572   3.209  0.2503 -0.1351 -0.1446
10115SOL    HW132598   6.836   7.659   3.172 -0.0980  1.1258  2.6528
10115SOL    HW232599   6.918   7.585   3.275 -0.0333 -1.9241  0.5622
10116SOL     OW32600   6.815   8.903   4.822 -0.0941  0.1677  0.3600
10116SOL    HW132601   6.781   8.817   4.845 -1.0146  0.9814  2.2215
10116SOL    HW232602   6.737   8.955   4.803  0.4949  0.3710 -1.7859
10117SOL     OW32603   0.416  10.021  10.159  0.2437 -0.4466 -0.1149
10117SOL    HW132604   0.480  10.046  10.226 -0.6495 -2.9805  1.8411
10117SOL    HW232605   0.469   9.991  10.086  1.2505  0.7106  0.0937
10118SOL     OW32606  10.461   8.914   3.975  0.0642 -0.1145  0.1125
10118SOL    HW132607  10.491   8.858   3.903 -1.9850 -0.4857 -0.5387
10118SOL    HW232608  10.492   9.001   3.952  1.7523 -0.6587  0.2049
10119SOL     OW32609   7.663   1.563   5.798 -0.2343  0.4372  0.1293
10119SOL    HW132610   7.743   1.613   5.780  0.3513 -0.5592 -0.0838
10119SOL    HW232611   7.694   1.477   5.826 -1.2230 -0.6854 -1.9813
10120SOL     OW32612   6.398   3.019   4.642 -0.1179 -0.3876 -0.3816
10120SOL    HW132613   6.452   2.955   4.596 -0.0049 -0.2334 -0.4682
10120SOL    HW232614   6.311   2.980   4.646 -0.2760 -0.1539 -1.2610
10121SOL     OW32615   1.394   1.083   9.496 -0.3775 -0.2451 -0.4838
10121SOL    HW132616   1.382   1.171   9.533  0.6392  0.4143 -1.6540
10121SOL    HW232617   1.317   1.069   9.441 -1.1682 -0.6339  0.6681
10122SOL     OW32618   8.964   0.012  10.626 -0.1459 -0.6958 -0.0464
10122SOL    HW132619   8.936   0.088  10.575  0.3636  0.1113  0.8563
10122SOL    HW232620   9.005  -0.046  10.561  2.2442  1.1699 -0.3506
10123SOL     OW32621   9.209  10.576   6.009  0.6977  0.2497  0.1976
10123SOL    HW132622   9.171  10.489   6.002  0.6695  0.1769  1.1296
10123SOL    HW232623   9.241  10.596   5.921 -1.3669  0.2711 -0.6194
10124SOL     OW32624  10.056   1.219   0.742 -0.6281 -0.0095 -0.6021
10124SOL    HW132625   9.968   1.245   0.714 -0.1616  0.4669 -1.6556
10124SOL    HW232626  10.115   1.269   0.686  0.3504  0.7978  1.0922
10125SOL     OW32627   0.649   2.939  10.040  0.2725 -0.1607 -0.4540
10125SOL    HW132628   0.699   2.858  10.029  0.7451  0.0863 -0.2003
10125SOL    HW232629   0.703   3.006   9.998  0.4342  0.2026  0.3098
10126SOL     OW32630   9.813  10.262   9.895  0.5180 -0.4762 -0.6947
10126SOL    HW132631   9.746  10.312   9.848  0.3801 -0.9795 -1.0328
10126SOL    HW232632   9.855  10.208   9.828  0.0931 -1.4449 -0.1891
10127SOL     OW32633   4.683   8.047   8.999  0.1831  0.0658  0.2265
10127SOL    HW132634   4.728   8.085   9.074  0.0099 -0.7609  0.7576
10127SOL    HW232635   4.731   8.080   8.923  0.0934  1.2652  0.6684
10128SOL     OW32636   0.818   9.111   4.150  0.4458  0.0623 -0.6714
10128SOL    HW132637   0.844   9.022   4.175  1.3529 -0.1329 -2.1722
10128SOL    HW232638   0.797   9.105   4.057  1.0429  1.5035 -0.9334
10129SOL     OW32639   3.471   5.642   4.414 -0.6049 -0.1729 -0.0589
10129SOL    HW132640   3.486   5.548   4.418  0.6726 -0.1085 -1.8209
10129SOL    HW232641   3.543   5.681   4.464  0.1443 -0.1079 -1.1460
10130SOL     OW32642   4.936   4.483   6.920  0.4768 -0.0793  0.0908
10130SOL    HW132643   4.922   4.574   6.894 -1.4401 -0.4428 -0.2980
10130SOL    HW232644   5.028   4.479   6.946  0.6474  1.9135 -0.0760
10131SOL     OW32645   1.563   2.688   4.099  0.0499 -0.0797 -0.3488
10131SOL    HW132646   1.640   2.737   4.126 -0.6155  0.2752  0.9688
10131SOL    HW232647   1.490   2.732   4.141 -1.0749  0.4815 -2.7098
10132SOL     OW32648   6.549   7.885   3.250  0.1072 -0.0578  0.6082
10132SOL    HW132649   6.620   7.864   3.310  0.1775 -0.8840  0.2392
10132SOL    HW232650   6.523   7.974   3.275  0.6317 -0.1061  1.3653
10133SOL     OW32651   5.416   0.967   8.104 -0.5466  0.2616 -0.0922
10133SOL    HW132652   5.401   1.058   8.131  0.0109  0.3526 -0.0759
10133SOL    HW232653   5.343   0.919   8.142 -3.3743  1.3063 -3.6571
10134SOL     OW32654   9.368   4.597   5.670  0.0017 -0.3220  0.0422
10134SOL    HW132655   9.429   4.623   5.739 -0.3962 -0.1713  0.3435
10134SOL    HW232656   9.335   4.512   5.697 -1.3245  0.4118  0.8501
10135SOL     OW32657  10.013   4.196   3.673 -0.4702 -0.0192 -0.4479
10135SOL    HW132658  10.058   4.265   3.625 -0.0726 -1.0151 -1.5700
10135SOL    HW232659  10.079   4.127   3.683 -0.4965  0.2018  1.6943
10136SOL     OW32660   3.812   3.761   3.402 -0.2335 -0.4833  0.0350
10136SOL    HW132661   3.811   3.852   3.373 -0.6142 -0.6765 -0.5615
10136SOL    HW232662   3.767   3.762   3.486 -1.9203 -0.3985 -0.8422
10137SOL     OW32663   8.445   5.809   2.564  0.1648 -0.0539 -0.5619
10137SOL    HW132664   8.448   5.728   2.615 -1.4592  0.6001  0.6477
10137SOL    HW232665   8.536   5.831   2.548  0.6545 -1.4299  0.2002
10138SOL     OW32666   2.704   7.993   0.705 -0.1657  0.2017 -0.6314
10138SOL    HW132667   2.613   7.987   0.735  0.4382 -0.6943  1.2124
10138SOL    HW232668   2.727   7.904   0.679  0.5239  0.1658  0.0542
10139SOL     OW32669   6.101   5.930   7.289 -0.7068 -0.2635 -0.0899
10139SOL    HW132670   6.160   5.962   7.221  0.8606 -1.3155  0.6984
10139SOL    HW232671   6.101   5.835   7.277 -1.1970 -0.3786  0.7416
10140SOL     OW32672   3.030   5.478   3.136  0.4448 -0.1591 -0.2648
10140SOL    HW132673   2.970   5.404   3.131 -1.7553  1.6033 -2.1488
10140SOL    HW232674   3.087   5.468   3.059 -0.2556  0.3518 -0.8734
10141SOL     OW32675   9.409   6.394   9.400  0.3712 -0.4555 -0.2629
10141SOL    HW132676   9.445   6.311   9.431  0.1532  0.0129  1.3762
10141SOL    HW232677   9.469   6.423   9.332  1.0870 -1.4051 -0.0556
10142SOL     OW32678   3.292   4.586   4.198  0.2249 -0.2196 -0.4338
10142SOL    HW132679   3.202   4.603   4.223  0.6988  1.6660  0.1184
10142SOL    HW232680   3.322   4.667   4.157  2.1731 -0.1273  0.9909
10143SOL     OW32681   9.500   3.726   1.339 -0.0613  0.0117  0.0478
10143SOL    HW132682   9.464   3.798   1.287  1.7928  0.2457 -0.9840
10143SOL    HW232683   9.581   3.701   1.294  0.3661 -1.4020  1.4963
10144SOL     OW32684   3.962   4.818   6.780  0.2216  0.4816  0.3503
10144SOL    HW132685   4.016   4.740   6.785  1.2163  1.1423  0.3124
10144SOL    HW232686   3.873   4.786   6.767  0.7902 -0.6151 -1.0478
10145SOL     OW32687   9.355   1.973   0.912 -0.2989  0.4230 -0.1306
10145SOL    HW132688   9.259   1.979   0.914 -0.2996  0.5816 -0.4516
10145SOL    HW232689   9.380   1.955   1.002 -0.6160  0.6385  0.0033
10146SOL     OW32690   6.629   5.438   3.291 -0.0157  0.4516  0.3654
10146SOL    HW132691   6.616   5.377   3.363  0.0628  0.3179  0.2677
10146SOL    HW232692   6.711   5.482   3.311 -0.9939  1.8801  1.4013
10147SOL     OW32693   2.784   0.125   6.449  0.6182  0.6982 -0.2636
10147SOL    HW132694   2.750   0.063   6.514  1.1459  1.5531  0.8749
10147SOL    HW232695   2.865   0.086   6.418 -0.4852 -0.5485 -1.7473
10148SOL     OW32696   3.297   5.175   2.058 -0.4221 -0.7241  0.1618
10148SOL    HW132697   3.230   5.222   2.008 -0.1146 -0.9455 -0.4646
10148SOL    HW232698   3.283   5.204   2.149 -0.8798 -0.1941 -0.0684
10149SOL     OW32699  10.562   3.352   5.951 -0.2725 -0.2110 -0.2063
10149SOL    HW132700  10.483   3.396   5.921  1.1280  1.6557 -1.4102
10149SOL    HW232701  10.578   3.387   6.039 -0.3183  0.0800 -0.3135
10150SOL     OW32702  10.007   0.063   8.322 -0.4716 -0.1257 -0.7756
10150SOL    HW132703   9.912   0.072   8.329 -0.5113 -0.3172 -1.0586
10150SOL    HW232704  10.024   0.056   8.228 -0.3246 -1.5080 -0.6740
10151SOL     OW32705   4.536   1.525   4.102  0.0278  0.6593 -0.0565
10151SOL    HW132706   4.460   1.468   4.090  1.4746 -1.2287 -0.7747
10151SOL    HW232707   4.599   1.471   4.150  1.6707  1.4373 -1.2405
10152SOL     OW32708   0.809   0.664   8.152 -0.1005 -0.3864 -0.4453
10152SOL    HW132709   0.810   0.733   8.086  1.3417  0.6112  0.5449
10152SOL    HW232710   0.789   0.711   8.234 -0.1902 -1.3190  0.0758
10153SOL     OW32711   9.440   7.815   3.879 -0.3587 -0.2097 -0.0268
10153SOL    HW132712   9.403   7.746   3.934 -0.2783 -1.1930 -1.1924
10153SOL    HW232713   9.364   7.854   3.836 -0.2631 -0.6319 -0.5829
10154SOL     OW32714   5.333   0.693   4.364 -0.2921 -0.2200 -0.1900
10154SOL    HW132715   5.273   0.671   4.292 -0.0221  1.2815 -0.9059
10154SOL    HW232716   5.409   0.733   4.321 -0.9377  2.5128  0.9720
10155SOL     OW32717   8.847   0.554  10.410  0.0153 -0.7514 -0.0009
10155SOL    HW132718   8.807   0.541  10.324 -2.2253 -1.0012  1.0203
10155SOL    HW232719   8.932   0.511  10.403 -0.7272 -2.0866 -1.6403
10156SOL     OW32720   2.254   8.494   9.035 -0.4579 -0.2295  0.3148
10156SOL    HW132721   2.236   8.409   8.995  1.2623  0.4198 -2.0382
10156SOL    HW232722   2.179   8.548   9.009  1.1970  0.5544 -3.5016
10157SOL     OW32723   6.974   3.029   6.411  0.0003  0.0331  0.3058
10157SOL    HW132724   7.002   2.974   6.338  0.1201  0.5207 -0.0177
10157SOL    HW232725   6.881   3.044   6.395  0.2990  1.1824 -0.4404
10158SOL     OW32726   8.005   4.733   3.490  0.4124 -0.4975  0.2768
10158SOL    HW132727   8.025   4.681   3.412 -1.3232 -2.1197  0.8528
10158SOL    HW232728   8.032   4.679   3.563 -0.9810 -0.4217  0.8786
10159SOL     OW32729   3.093   9.351  10.633 -0.3468 -1.0122 -0.0977
10159SOL    HW132730   3.145   9.417  10.679 -1.7785 -0.0963  0.2548
10159SOL    HW232731   3.036   9.402  10.575 -0.9100 -1.9802 -0.4162
10160SOL     OW32732   3.160   4.456  10.126 -0.6470  0.0185 -0.2450
10160SOL    HW132733   3.203   4.420  10.204 -1.7526  0.0529  0.4001
10160SOL    HW232734   3.183   4.396  10.055 -1.0802 -1.0034  0.4669
10161SOL     OW32735  10.364   7.153   6.153 -0.1795 -0.0041  0.3961
10161SOL    HW132736  10.384   7.126   6.242 -0.3223 -1.8672 -0.0949
10161SOL    HW232737  10.448   7.151   6.108 -0.1956  0.3514  0.3517
10162SOL     OW32738   3.488   2.055   6.743 -0.2547 -0.1233  0.2865
10162SOL    HW132739   3.465   2.043   6.650 -2.4950  1.6652  0.5104
10162SOL    HW232740   3.418   2.010   6.791 -0.7327  1.3856  1.0589
10163SOL     OW32741   7.371   5.679   5.815  0.1369  0.0945 -0.0500
10163SOL    HW132742   7.285   5.644   5.838  0.2967 -0.9460 -0.9181
10163SOL    HW232743   7.380   5.659   5.722  0.3847  2.2195 -0.5347
10164SOL     OW32744   1.469   4.700   1.417 -0.0540 -0.5057  0.1243
10164SOL    HW132745   1.501   4.625   1.465 -0.3729 -0.5026  0.3492
10164SOL    HW232746   1.453   4.767   1.484  3.4952  1.0350 -0.3359
10165SOL     OW32747   1.889   0.145   1.390 -0.1732 -0.0899 -0.6249
10165SOL    HW132748   1.897   0.234   1.424  1.3717 -0.6410  0.5697
10165SOL    HW232749   1.944   0.145   1.311 -1.8776  0.5419 -1.8849
10166SOL     OW32750   0.500   5.783   4.676 -0.1875 -0.0999  0.4188
10166SOL    HW132751   0.524   5.786   4.583  1.4843 -1.0683  0.7723
10166SOL    HW232752   0.531   5.698   4.706 -0.1548  0.4350  2.0095
10167SOL     OW32753   8.964   2.667   4.060 -0.0691  0.0322  0.3265
10167SOL    HW132754   9.012   2.664   4.143 -0.0730  0.7981  0.3607
10167SOL    HW232755   8.875   2.644   4.083  0.1895 -1.0398  0.3212
10168SOL     OW32756   2.452   5.413   2.795  0.0150  0.6277  0.3686
10168SOL    HW132757   2.545   5.430   2.812 -0.1672  0.1247  2.0536
10168SOL    HW232758   2.406   5.459   2.865 -0.9752  0.4557 -0.1588
10169SOL     OW32759  10.242   0.235   8.278 -0.0512 -0.5932 -0.4360
10169SOL    HW132760  10.269   0.157   8.231 -1.1177 -2.5416  1.9601
10169SOL    HW232761  10.154   0.215   8.310 -0.4054  1.6425  0.2041
10170SOL     OW32762   2.803   4.369   1.429 -0.2809  0.2455 -0.1490
10170SOL    HW132763   2.736   4.310   1.396  0.2134 -0.1612 -0.4391
10170SOL    HW232764   2.841   4.408   1.350  0.9683 -0.7953 -0.0872
10171SOL     OW32765   3.509   4.248   2.177 -0.3825  0.0528  0.7757
10171SOL    HW132766   3.512   4.155   2.201  3.2158 -0.9935 -2.6704
10171SOL    HW232767   3.466   4.249   2.091 -0.2622  1.5803  0.7033
10172SOL     OW32768   5.474   3.496   6.440 -0.4263  0.2942 -0.7945
10172SOL    HW132769   5.496   3.547   6.362 -0.8772  0.6876 -0.6641
10172SOL    HW232770   5.385   3.464   6.424 -0.0535 -0.6917 -1.0014
10173SOL     OW32771   2.589   2.904   6.063  0.6626 -0.0087  0.1656
10173SOL    HW132772   2.680   2.877   6.065  1.0253  1.0842 -0.6025
10173SOL    HW232773   2.591   2.996   6.035 -0.6883 -0.0919 -0.3248
10174SOL     OW32774   0.794   3.849   9.872 -0.1256  0.0975  0.0860
10174SOL    HW132775   0.870   3.799   9.903  0.1775 -2.4511 -4.0280
10174SOL    HW232776   0.827   3.937   9.858  2.3206 -0.9989 -1.8571
10175SOL     OW32777   6.528   1.290   2.491  0.1433 -0.3510  0.3278
10175SOL    HW132778   6.531   1.363   2.552  0.0541  0.7019 -0.8885
10175SOL    HW232779   6.589   1.314   2.422  1.2024 -2.0938  0.5829
10176SOL     OW32780   1.673   5.400   0.942  0.7524  0.4117 -0.3552
10176SOL    HW132781   1.691   5.329   1.004  1.2464  1.0091  0.1953
10176SOL    HW232782   1.758   5.418   0.901  1.2552  2.4787  1.4265
10177SOL     OW32783   6.544   1.912   6.427  0.0642 -0.0820 -0.6186
10177SOL    HW132784   6.591   1.931   6.508 -0.7114 -0.5659 -0.0456
10177SOL    HW232785   6.584   1.970   6.362  0.1909  0.8664  0.2794
10178SOL     OW32786   7.078   0.630   0.008  0.3568  0.1849 -0.3751
10178SOL    HW132787   7.102   0.567   0.075 -0.9434  1.6196  1.5529
10178SOL    HW232788   7.000   0.593  -0.033 -0.0847  0.2492  0.3805
10179SOL     OW32789   0.161   4.978   0.380 -0.0281  0.5853 -0.1418
10179SOL    HW132790   0.166   5.021   0.465 -0.0176  0.4155 -0.0564
10179SOL    HW232791   0.187   5.046   0.317  0.9804  0.4164  0.0833
10180SOL     OW32792   1.856   9.379   4.478 -0.1745  0.3415  0.3312
10180SOL    HW132793   1.934   9.388   4.424  0.8352 -0.3797  1.6091
10180SOL    HW232794   1.883   9.411   4.564 -0.5741 -1.9437  1.3794
10181SOL     OW32795   4.313  10.152   0.060 -0.6874 -0.2664 -0.6887
10181SOL    HW132796   4.316  10.160  -0.036 -0.2164 -0.9599 -0.7466
10181SOL    HW232797   4.403  10.128   0.084 -0.7539  0.1283 -0.0488
10182SOL     OW32798   5.451   3.460   6.716 -0.4504  0.0367  0.0135
10182SOL    HW132799   5.444   3.479   6.623 -0.1765  1.0446  0.1891
10182SOL    HW232800   5.380   3.511   6.756  0.1076  0.4716  0.4631
10183SOL     OW32801   6.890   4.518   1.897 -0.3310  0.1628  0.1286
10183SOL    HW132802   6.818   4.558   1.945 -0.6009 -1.5240  1.2161
10183SOL    HW232803   6.860   4.430   1.876  0.5520  0.2024 -1.4364
10184SOL     OW32804   2.648   3.384   5.462  0.0392 -0.2741  0.1847
10184SOL    HW132805   2.593   3.391   5.541 -0.1238  0.8111 -0.0072
10184SOL    HW232806   2.697   3.466   5.460 -0.7218  0.1804 -1.3958
10185SOL     OW32807  10.370  10.028   8.529 -0.0229 -0.1278 -0.0860
10185SOL    HW132808  10.367  10.096   8.596  1.0798 -1.2855  1.1838
10185SOL    HW232809  10.371  10.076   8.446 -2.6974  1.3129  0.6268
10186SOL     OW32810   6.627   5.110   5.526  0.1999 -0.7940  0.5797
10186SOL    HW132811   6.681   5.120   5.604  0.2281 -2.5462  0.8423
10186SOL    HW232812   6.687   5.122   5.453 -0.2792  3.4422  0.6359
10187SOL     OW32813   2.704   0.038   1.093 -0.0422 -0.9068 -0.1772
10187SOL    HW132814   2.679   0.040   1.186  0.2183 -0.8265 -0.1076
10187SOL    HW232815   2.755  -0.042   1.083 -0.6203 -1.2523 -0.3977
10188SOL     OW32816   1.431   7.681   8.551  0.2538 -0.4993  0.4010
10188SOL    HW132817   1.488   7.729   8.612 -0.9104  1.1659  0.2614
10188SOL    HW232818   1.492   7.640   8.490  1.3554  1.1909  0.2670
10189SOL     OW32819   5.362  10.210   1.375 -0.1293  0.0635  0.4423
10189SOL    HW132820   5.310  10.247   1.446  0.4127  0.8949  0.4102
10189SOL    HW232821   5.307  10.218   1.297 -0.3553 -0.0071  0.5944
10190SOL     OW32822   4.227   2.169   6.296 -0.0923  0.1189 -0.3612
10190SOL    HW132823   4.171   2.217   6.235 -0.1656 -0.7389 -0.9898
10190SOL    HW232824   4.167   2.116   6.348  0.0969 -0.5229 -0.7859
10191SOL     OW32825   0.049   4.824   9.736 -0.2068  0.4046 -0.0577
10191SOL    HW132826   0.051   4.838   9.831 -1.8843 -0.1272  0.0862
10191SOL    HW232827   0.140   4.835   9.708  0.3979  0.1158  1.6831
10192SOL     OW32828   7.786   8.171   8.106 -0.0544 -0.3407  0.2104
10192SOL    HW132829   7.714   8.232   8.085 -1.1364 -1.0591  1.6347
10192SOL    HW232830   7.848   8.182   8.035 -0.9289  1.3388 -0.3484
10193SOL     OW32831   4.832   3.468   9.021 -0.3408 -0.4526 -0.5037
10193SOL    HW132832   4.751   3.465   9.072 -0.9989 -1.0111 -1.5399
10193SOL    HW232833   4.872   3.552   9.045 -1.4973  0.0909 -0.3692
10194SOL     OW32834   7.200   2.735   9.864 -0.1976  0.3043  0.5147
10194SOL    HW132835   7.292   2.726   9.888  0.2378 -1.4335 -1.4740
10194SOL    HW232836   7.202   2.756   9.770 -1.8345  1.5047  0.6938
10195SOL     OW32837   2.793   8.557   2.601 -0.5960 -0.7366 -0.0798
10195SOL    HW132838   2.802   8.571   2.507  1.6470  0.7486  0.2847
10195SOL    HW232839   2.831   8.635   2.641 -3.0479 -0.5238  2.1091
10196SOL     OW32840   5.499   2.931   2.207  0.6159  0.5548  0.1921
10196SOL    HW132841   5.490   3.004   2.146  0.5261  1.1683  0.9276
10196SOL    HW232842   5.594   2.915   2.211  0.5327 -0.5798 -1.3448
10197SOL     OW32843   2.453   3.851   2.231 -0.3446 -0.4851  0.0591
10197SOL    HW132844   2.537   3.842   2.187 -0.7584 -0.5689 -0.7253
10197SOL    HW232845   2.451   3.942   2.260  0.0343 -0.4959  0.1203
10198SOL     OW32846   9.998   8.248   9.813 -0.4920  0.2075 -0.2071
10198SOL    HW132847  10.044   8.271   9.733  0.0097  1.6047  0.4648
10198SOL    HW232848   9.923   8.307   9.815  0.1716  1.0486  0.9496
10199SOL     OW32849   2.037   4.123   0.247  0.0210  0.1466 -0.4445
10199SOL    HW132850   2.118   4.079   0.222  0.5395 -1.6242  3.5657
10199SOL    HW232851   1.968   4.064   0.220  0.4256 -0.8164  0.5692
10200SOL     OW32852   8.184   9.362   8.746 -0.1173  0.5880 -0.6302
10200SOL    HW132853   8.131   9.427   8.792 -1.5856 -0.3276 -0.9613
10200SOL    HW232854   8.250   9.335   8.810 -0.3127  1.4383 -0.0596
10201SOL     OW32855   7.336   1.190  10.135  0.2928 -0.0769 -0.3856
10201SOL    HW132856   7.284   1.202  10.055  1.1777 -2.0556 -1.3254
10201SOL    HW232857   7.322   1.098  10.159  2.4475 -0.3658 -0.0347
10202SOL     OW32858   3.886   2.367   6.379  0.4164 -0.3611  0.1622
10202SOL    HW132859   3.882   2.300   6.447  1.9081 -1.7159 -0.9977
10202SOL    HW232860   3.979   2.389   6.373  0.1615  0.5515 -0.6746
10203SOL     OW32861   8.247   0.812   1.886 -0.2953  0.0064 -0.5482
10203SOL    HW132862   8.275   0.897   1.850 -1.1686 -0.2729 -2.0121
10203SOL    HW232863   8.324   0.756   1.880  0.0127  0.4221 -0.5167
10204SOL     OW32864   5.954   9.062   4.136  0.0774  0.0472 -0.5269
10204SOL    HW132865   5.886   9.030   4.076  0.5882 -0.9326 -0.6002
10204SOL    HW232866   6.025   8.998   4.128 -0.0093 -0.3659  1.4660
10205SOL     OW32867   8.983   6.452   0.545 -0.3468  0.2926  0.5790
10205SOL    HW132868   9.075   6.460   0.522 -0.3279 -0.7358  0.2414
10205SOL    HW232869   8.973   6.508   0.623  0.3949  0.9409  0.2208
10206SOL     OW32870   5.388   1.506   1.786 -0.3135 -0.1887  0.3276
10206SOL    HW132871   5.386   1.482   1.879 -2.3236 -0.9834  0.1472
10206SOL    HW232872   5.480   1.524   1.767  0.6970 -3.1431  1.7173
10207SOL     OW32873   4.676   2.523   6.947  0.3544 -0.4139 -0.4865
10207SOL    HW132874   4.739   2.453   6.963  0.2404 -0.4726 -0.2872
10207SOL    HW232875   4.654   2.556   7.034 -1.4253 -1.7494 -0.3777
10208SOL     OW32876   7.351   5.101   8.623 -0.2659  0.6518 -0.4583
10208SOL    HW132877   7.272   5.081   8.673 -0.9892 -2.8771 -2.6707
10208SOL    HW232878   7.422   5.099   8.687 -1.4948 -0.3532  0.9341
10209SOL     OW32879   3.164   3.038   3.236 -0.4323 -0.1931  0.3926
10209SOL    HW132880   3.205   2.969   3.184 -3.4835 -2.7899  1.0848
10209SOL    HW232881   3.089   3.065   3.184 -1.0267  0.3417  1.4918
10210SOL     OW32882   0.071   0.935   5.259 -0.1175  0.5339  0.5336
10210SOL    HW132883   0.059   0.995   5.333 -3.0284 -0.7905  1.2832
10210SOL    HW232884   0.090   0.851   5.300 -0.1500  0.1058 -0.3146
10211SOL     OW32885   3.014   3.839   6.204  0.3196 -0.5361  0.1868
10211SOL    HW132886   2.940   3.780   6.219 -0.2016  0.1928  0.5119
10211SOL    HW232887   2.977   3.914   6.158  0.8419 -0.1426  0.3887
10212SOL     OW32888   2.234   9.079   7.506 -1.0865  0.1214 -0.6989
10212SOL    HW132889   2.302   9.079   7.438  1.2888  2.3642  1.4280
10212SOL    HW232890   2.250   8.999   7.555  1.1242  1.2617  0.6206
10213SOL     OW32891   0.205   4.813   7.129  0.1997  0.0919 -0.1900
10213SOL    HW132892   0.255   4.775   7.201 -1.0882  0.3979  0.9020
10213SOL    HW232893   0.138   4.866   7.171 -1.1516 -0.4234 -1.5859
10214SOL     OW32894   3.257   1.192   6.910 -0.1595 -0.1692 -0.0552
10214SOL    HW132895   3.284   1.277   6.947  0.9872 -0.5584  0.0543
10214SOL    HW232896   3.291   1.127   6.972 -0.0728 -0.7451 -0.6960
10215SOL     OW32897   0.798   3.721   6.898  0.0083  0.2843 -0.2063
10215SOL    HW132898   0.801   3.699   6.991 -1.3165 -0.1060 -0.2467
10215SOL    HW232899   0.715   3.766   6.887 -1.0156 -1.8146 -1.6511
10216SOL     OW32900   5.146   3.279   5.006  0.1417  0.1899  0.0555
10216SOL    HW132901   5.217   3.281   5.070 -0.7895 -0.8987  1.1849
10216SOL    HW232902   5.187   3.304   4.923  0.8916  4.2375  1.4433
10217SOL     OW32903   3.891   9.140   7.776 -0.6055  0.3429  0.5200
10217SOL    HW132904   3.955   9.070   7.792 -0.7564 -0.1782 -0.9301
10217SOL    HW232905   3.819   9.121   7.836 -1.1172 -1.4271 -0.5610
10218SOL     OW32906   1.886   0.996  10.490  0.3939 -0.8281  0.6910
10218SOL    HW132907   1.860   1.048  10.414  0.9710 -0.4901  0.7254
10218SOL    HW232908   1.957   0.941  10.458  0.9327 -0.3703  1.0989
10219SOL     OW32909   0.675   6.566   2.187 -0.0430 -0.0974  0.4689
10219SOL    HW132910   0.595   6.570   2.240  0.0343 -1.5865  0.7350
10219SOL    HW232911   0.647   6.594   2.100 -0.6614  0.2254  0.7596
10220SOL     OW32912  10.448   4.394   4.136  0.3418 -0.1058  0.3001
10220SOL    HW132913  10.526   4.439   4.168  0.0858  0.0861  0.6640
10220SOL    HW232914  10.439   4.422   4.045 -0.2179  1.1451  0.7296
10221SOL     OW32915  10.525   5.743  10.103  0.1623 -0.2592 -0.1351
10221SOL    HW132916  10.532   5.761  10.197  0.8968 -1.5281  0.0721
10221SOL    HW232917  10.574   5.814  10.061 -0.2019  0.3342  0.4200
10222SOL     OW32918   9.615   0.782   2.932 -0.4132 -0.2175 -0.1181
10222SOL    HW132919   9.694   0.802   2.882 -0.8694  0.7782 -0.4828
10222SOL    HW232920   9.646   0.757   3.019  0.4183 -2.3590 -0.9832
10223SOL     OW32921   8.758  10.635   0.769 -0.1493  0.2552  0.1796
10223SOL    HW132922   8.838  10.684   0.790  0.2808  0.9656 -2.6467
10223SOL    HW232923   8.787  10.569   0.706 -1.5651 -0.4512  0.2381
10224SOL     OW32924   6.231   1.081   4.095  0.4179  0.0377  0.2168
10224SOL    HW132925   6.287   1.011   4.130  0.6996  0.6893  1.1244
10224SOL    HW232926   6.206   1.051   4.008  2.6985 -0.0214 -0.5003
10225SOL     OW32927   8.523   3.661   6.433  0.6933  0.6356  0.0800
10225SOL    HW132928   8.498   3.640   6.523  0.6822  0.3678  0.0169
10225SOL    HW232929   8.582   3.736   6.441  0.4079  0.8362  0.2812
10226SOL     OW32930   6.659   2.326   9.041 -0.1293  0.4010  0.1239
10226SOL    HW132931   6.704   2.287   8.966  0.2986 -0.0211  0.5935
10226SOL    HW232932   6.600   2.391   9.003 -3.0643 -2.6106 -1.0025
10227SOL     OW32933   0.225   7.653   4.958 -0.4227  0.0173  0.1775
10227SOL    HW132934   0.315   7.667   4.987 -0.0855 -3.6173  1.3327
10227SOL    HW232935   0.184   7.601   5.027 -2.9392  0.1522 -1.0717
10228SOL     OW32936  10.610   6.125   5.811 -0.1940 -0.6546 -0.1177
10228SOL    HW132937  10.644   6.039   5.835 -1.2258 -0.8641  0.6709
10228SOL    HW232938  10.589   6.167   5.895  0.2023  0.3390 -0.4933
10229SOL     OW32939   4.879   4.148   4.459 -0.2173 -0.6356  0.5276
10229SOL    HW132940   4.950   4.208   4.485  0.1254 -0.1366 -1.4163
10229SOL    HW232941   4.838   4.191   4.384 -1.6207 -1.6577  0.6821
10230SOL     OW32942   2.692   6.661   0.679  0.1588 -0.3277 -0.3688
10230SOL    HW132943   2.712   6.676   0.587 -1.2815 -2.5358 -1.1207
10230SOL    HW232944   2.739   6.730   0.726  0.6196  1.0765 -2.7655
10231SOL     OW32945   0.125   1.232   2.056  0.4922 -0.1463 -0.7212
10231SOL    HW132946   0.045   1.181   2.062  0.7026 -0.3430  0.8198
10231SOL    HW232947   0.101   1.318   2.090  0.7238  0.0825 -1.1181
10232SOL     OW32948   6.737   5.800   4.140 -0.0901 -0.2331  0.1288
10232SOL    HW132949   6.665   5.813   4.078 -0.2265 -1.2106  0.0656
10232SOL    HW232950   6.705   5.837   4.222  0.8741  2.9982 -0.8051
10233SOL     OW32951   9.741   7.050   4.454  0.0389  0.2958  0.2207
10233SOL    HW132952   9.697   6.972   4.487 -0.3294  0.6085  0.4828
10233SOL    HW232953   9.681   7.085   4.388 -0.3971  1.0501  0.9950
10234SOL     OW32954   1.454   3.724   4.339  0.6065  0.3829  0.4506
10234SOL    HW132955   1.385   3.772   4.385 -1.5896 -2.3843  0.2836
10234SOL    HW232956   1.466   3.644   4.389  1.9331 -0.3256 -0.9213
10235SOL     OW32957   4.972   1.928   0.481 -0.2735 -0.0155  0.9056
10235SOL    HW132958   4.877   1.916   0.493 -0.3558 -1.4147 -0.7848
10235SOL    HW232959   5.011   1.851   0.523  0.1292  0.6221  1.7063
10236SOL     OW32960   8.692   2.195   5.379  0.1015  0.2013  0.1214
10236SOL    HW132961   8.754   2.143   5.430  0.9406 -0.7036 -1.7327
10236SOL    HW232962   8.714   2.177   5.287 -1.5870  1.4552 -0.5985
10237SOL     OW32963   7.925   0.478   3.799 -0.0215  0.0705 -0.3033
10237SOL    HW132964   8.018   0.472   3.780  0.0957  0.2032  0.2085
10237SOL    HW232965   7.894   0.554   3.750  0.4342  0.8822  0.6401
10238SOL     OW32966   4.564   6.523   3.197  0.1241  0.3612  0.4414
10238SOL    HW132967   4.478   6.565   3.188 -0.2237 -0.4997 -0.4023
10238SOL    HW232968   4.603   6.564   3.275 -0.3262  2.0110 -0.1586
10239SOL     OW32969   0.723  10.501   3.504  0.6035 -0.7030 -0.9035
10239SOL    HW132970   0.718  10.424   3.448  1.5142 -0.1720 -1.7429
10239SOL    HW232971   0.639  10.545   3.492  0.7742 -0.6174 -1.8353
10240SOL     OW32972   9.734   8.905  10.446  0.1058  0.3413 -0.1319
10240SOL    HW132973   9.680   8.895  10.525  0.0606 -1.4583 -0.3540
10240SOL    HW232974   9.683   8.863  10.377  0.8092  0.5984 -0.8203
10241SOL     OW32975   5.207   1.233   1.980  0.8113 -0.5084  0.0642
10241SOL    HW132976   5.287   1.184   1.958  1.9353  1.5067 -0.5770
10241SOL    HW232977   5.171   1.259   1.895  0.1356 -0.3751  0.3882
10242SOL     OW32978   9.812   4.456   1.803  0.8398  0.6046 -0.2802
10242SOL    HW132979   9.787   4.364   1.792  0.9661  0.7511 -2.1873
10242SOL    HW232980   9.731   4.505   1.783  0.6118  0.9197  1.3042
10243SOL     OW32981   4.162   9.776   9.568  0.7137 -0.1398  0.0605
10243SOL    HW132982   4.165   9.824   9.485  0.8706 -1.3302 -0.6392
10243SOL    HW232983   4.221   9.826   9.626 -0.1628  1.2692 -0.1994
10244SOL     OW32984   9.615   5.859   8.413 -0.1350  0.3548  0.1574
10244SOL    HW132985   9.521   5.848   8.427  0.1724 -0.5407  1.7760
10244SOL    HW232986   9.624   5.869   8.318 -1.8640  0.5833 -0.0157
10245SOL     OW32987   9.771   0.591  10.270 -0.0224 -0.0769  0.0266
10245SOL    HW132988   9.783   0.539  10.350  1.2276  0.2414  0.0566
10245SOL    HW232989   9.736   0.528  10.207 -2.8154  0.0481  1.2639
10246SOL     OW32990   4.928   6.928   1.587  0.5266 -0.1742  0.1007
10246SOL    HW132991   4.991   6.907   1.656  1.3626  2.1120  0.1166
10246SOL    HW232992   4.845   6.937   1.633  1.2995  2.7150  1.1880
10247SOL     OW32993   2.004   0.641   2.408 -0.4064 -0.9040 -0.1938
10247SOL    HW132994   1.998   0.558   2.361  2.7513 -0.3206 -1.8603
10247SOL    HW232995   2.028   0.616   2.497 -2.4173 -1.8300  0.1424
10248SOL     OW32996   7.847   9.547   0.999 -0.5438  0.3729 -0.1779
10248SOL    HW132997   7.937   9.514   0.996 -0.7783 -0.2375 -0.6273
10248SOL    HW232998   7.857   9.642   1.000  0.1586  0.3284  1.6142
10249SOL     OW32999   3.654   7.697   2.785 -0.5182 -0.2944  0.3571
10249SOL    HW133000   3.739   7.736   2.803 -0.2038 -1.8032  2.4602
10249SOL    HW233001   3.648   7.696   2.689  1.1517  1.1760  0.1873
10250SOL     OW33002   2.188   6.525   8.222  0.5633 -0.1956 -0.5207
10250SOL    HW133003   2.246   6.598   8.242 -0.7338  0.7312 -0.0333
10250SOL    HW233004   2.139   6.553   8.145 -0.4896 -0.2216  0.1249
10251SOL     OW33005   5.290   1.868   0.848 -0.1674 -0.1244  0.6887
10251SOL    HW133006   5.212   1.898   0.894 -0.3774  1.9029 -0.8127
10251SOL    HW233007   5.303   1.933   0.778  1.9065 -1.3145 -0.1394
10252SOL     OW33008   1.291   9.505   7.797 -0.5155 -0.2646 -0.1505
10252SOL    HW133009   1.331   9.482   7.713 -1.8503 -2.1617 -0.3439
10252SOL    HW233010   1.356   9.559   7.841  0.8267 -0.4540 -1.7988
10253SOL     OW33011   4.171   0.324   1.738  0.2006 -0.0694  0.0966
10253SOL    HW133012   4.104   0.308   1.672  0.2590  0.9743 -0.2441
10253SOL    HW233013   4.123   0.328   1.821 -0.0124 -0.3945 -0.0109
10254SOL     OW33014  10.202   7.755   5.757 -0.4608 -0.3402  0.0594
10254SOL    HW133015  10.276   7.807   5.725  1.2209 -2.2373  0.6589
10254SOL    HW233016  10.183   7.791   5.843  0.4021 -0.4390  0.2984
10255SOL     OW33017  10.151   1.238   3.673 -0.5562  0.6282  0.1382
10255SOL    HW133018  10.075   1.267   3.622  0.2213 -0.5014 -1.7679
10255SOL    HW233019  10.147   1.142   3.670  0.2095  0.5482  1.1691
10256SOL     OW33020   8.164   0.387   6.279 -0.4127 -0.3660 -0.4621
10256SOL    HW133021   8.174   0.366   6.187 -0.8776 -0.5715 -0.4706
10256SOL    HW233022   8.091   0.332   6.308  1.2276 -2.1002  0.6166
10257SOL     OW33023   2.561   0.010   4.069  0.0738  0.2133  0.5493
10257SOL    HW133024   2.640  -0.044   4.057 -0.5461 -0.6135  0.0798
10257SOL    HW233025   2.530   0.026   3.980  0.4749  1.7391  0.6433
10258SOL     OW33026   7.261   8.576   7.461  0.0816  0.6800 -0.0373
10258SOL    HW133027   7.319   8.541   7.529  1.2326  0.8705 -0.8738
10258SOL    HW233028   7.285   8.668   7.453  1.4041  0.2482 -2.0092
10259SOL     OW33029   1.100   6.347  10.610 -0.3312  0.6710 -0.0702
10259SOL    HW133030   1.110   6.253  10.626  1.0515  0.6585 -0.8348
10259SOL    HW233031   1.025   6.354  10.551 -1.3167  0.1824  1.0833
10260SOL     OW33032   8.142  10.495   8.878  0.4988  0.6100  0.4434
10260SOL    HW133033   8.051  10.476   8.901  0.9500 -0.0266  1.7845
10260SOL    HW233034   8.175  10.415   8.839  0.7381  0.5465  0.7736
10261SOL     OW33035   6.045   5.443   1.197  0.6171 -0.5401  0.5176
10261SOL    HW133036   6.055   5.396   1.114 -1.0181 -0.2110  0.0929
10261SOL    HW233037   6.073   5.380   1.264  1.1451 -1.1124 -0.2319
10262SOL     OW33038   8.743   2.882   2.097  0.2919 -0.1883  0.2506
10262SOL    HW133039   8.797   2.849   2.169  0.5152 -1.2234 -0.3847
10262SOL    HW233040   8.803   2.933   2.043  0.3331 -0.2015  0.2841
10263SOL     OW33041   1.032   2.039   8.058 -0.3764  0.2810  0.8370
10263SOL    HW133042   0.971   2.106   8.027  0.7085  0.9157  0.0002
10263SOL    HW233043   0.976   1.971   8.095 -1.8064 -0.5014 -2.3875
10264SOL     OW33044   3.056   2.133   5.475  0.8288  0.2918 -0.4626
10264SOL    HW133045   2.980   2.131   5.417 -0.6983  0.1789  1.4253
10264SOL    HW233046   3.086   2.223   5.473  0.6454  0.3393 -1.2376
10265SOL     OW33047   9.472   5.390   1.108 -0.1886  0.6799  0.2360
10265SOL    HW133048   9.505   5.302   1.127  0.0940  1.2572  2.6765
10265SOL    HW233049   9.536   5.449   1.148 -0.9834  1.9810 -0.3580
10266SOL     OW33050   7.859   4.057   3.017 -0.2029 -0.2099 -0.0462
10266SOL    HW133051   7.859   4.003   2.938 -0.1791 -2.3835  1.3607
10266SOL    HW233052   7.948   4.090   3.025 -0.3039  0.3537 -1.1055
10267SOL     OW33053   4.834   0.686  10.523  0.0661  0.2363 -0.2387
10267SOL    HW133054   4.926   0.668  10.539  0.2138  0.6584 -0.5746
10267SOL    HW233055   4.796   0.602  10.499  0.0507 -0.2205  1.2944
10268SOL     OW33056  10.334   9.037   0.078 -0.9511 -0.4542  0.3841
10268SOL    HW133057  10.423   9.006   0.097 -0.7986 -0.3289 -0.1025
10268SOL    HW233058  10.314   9.000  -0.008 -0.6217  1.0832 -0.3779
10269SOL     OW33059   4.531   5.745   6.905  0.5165 -0.6816 -0.0362
10269SOL    HW133060   4.550   5.838   6.889  1.7310 -1.1407 -1.5883
10269SOL    HW233061   4.453   5.745   6.960  0.9790  1.2716  0.6854
10270SOL     OW33062   2.501   2.412   4.865  0.7586 -0.2903  0.2547
10270SOL    HW133063   2.410   2.409   4.896  0.6586  0.0286  0.0044
10270SOL    HW233064   2.521   2.323   4.837  0.6225 -0.4275  0.5987
10271SOL     OW33065   3.462   6.309   8.725  0.2011 -0.5301  0.5733
10271SOL    HW133066   3.494   6.318   8.815 -1.1868 -0.3354  1.0617
10271SOL    HW233067   3.423   6.222   8.721  0.8224 -0.7979 -0.0482
10272SOL     OW33068   6.968   8.470   8.994 -0.0144 -0.2970  0.2671
10272SOL    HW133069   6.969   8.556   9.036 -1.8042  0.2497 -0.7275
10272SOL    HW233070   7.054   8.433   9.014  0.1407  0.9710  2.2215
10273SOL     OW33071   4.790   8.977   6.162  0.4300 -0.2218  0.4922
10273SOL    HW133072   4.800   9.013   6.074 -0.8212  3.8528  1.8030
10273SOL    HW233073   4.850   9.029   6.216 -0.9411 -0.5876  2.4698
10274SOL     OW33074   2.930  10.503   2.548 -0.1573 -0.5206  0.3413
10274SOL    HW133075   2.864  10.560   2.587 -0.1403 -2.0078  2.7048
10274SOL    HW233076   3.013  10.537   2.582  0.1200 -0.1457 -0.6784
10275SOL     OW33077  10.370   4.806   6.265  0.2260  0.5343  0.2493
10275SOL    HW133078  10.450   4.848   6.298  0.5026 -0.6739  1.1824
10275SOL    HW233079  10.389   4.712   6.268 -0.6971  0.2847 -0.9685
10276SOL     OW33080   6.267   3.212  10.358  0.1479  0.2776  0.3365
10276SOL    HW133081   6.210   3.142  10.326 -0.5757  1.4337 -1.0329
10276SOL    HW233082   6.228   3.292  10.322  1.5673  1.2794  0.9594
10277SOL     OW33083   3.483   3.352   8.687 -0.5754 -0.3168 -0.0767
10277SOL    HW133084   3.542   3.383   8.618 -2.3805 -1.3706 -2.2316
10277SOL    HW233085   3.541   3.326   8.758  1.2956  2.2609 -0.5308
10278SOL     OW33086   4.450   2.370   2.033  0.0932  0.5833  0.2604
10278SOL    HW133087   4.407   2.334   2.110  0.2114  1.4259  0.7362
10278SOL    HW233088   4.481   2.456   2.061  1.1678  0.4248 -0.3801
10279SOL     OW33089   3.834   8.873   6.116 -0.0912 -0.4986  0.1487
10279SOL    HW133090   3.808   8.958   6.152 -0.1310 -0.8967  1.0827
10279SOL    HW233091   3.911   8.893   6.062 -1.1270  0.3905 -1.0724
10280SOL     OW33092  10.225   3.512   5.331 -0.4011 -0.5577 -0.6357
10280SOL    HW133093  10.298   3.570   5.353 -1.2361  1.0114 -1.8027
10280SOL    HW233094  10.255   3.465   5.253 -1.0041  0.9197 -1.8075
10281SOL     OW33095   8.388   8.569   8.045 -0.0866  0.3557 -0.4595
10281SOL    HW133096   8.405   8.644   7.988 -1.0316 -0.7163 -2.2373
10281SOL    HW233097   8.452   8.578   8.116 -0.0688  2.7287 -0.6977
10282SOL     OW33098   0.064   5.049   9.414 -0.1195 -0.2178 -0.1083
10282SOL    HW133099   0.098   4.973   9.366  0.3373 -1.2220  1.7017
10282SOL    HW233100   0.140   5.082   9.463 -0.3946  1.2376 -0.5983
10283SOL     OW33101   7.068   6.484   6.535 -0.5313 -0.0936  0.1017
10283SOL    HW133102   7.001   6.416   6.532 -1.0165  0.2939  1.5464
10283SOL    HW233103   7.119   6.464   6.614 -0.2291  0.8029  0.1418
10284SOL     OW33104   4.070   0.003   4.141 -0.2195  0.0028 -0.4994
10284SOL    HW133105   3.986   0.048   4.135 -0.3839 -0.2982 -0.4959
10284SOL    HW233106   4.116   0.027   4.061 -0.1371  0.5089 -0.3024
10285SOL     OW33107   7.198   9.902   9.669 -0.3805  0.3600  0.5807
10285SOL    HW133108   7.240   9.822   9.701 -0.0898  0.0508 -0.5499
10285SOL    HW233109   7.136   9.925   9.738 -1.1334 -1.3504  0.5293
10286SOL     OW33110   2.409   4.439   2.254  0.5224  0.8540 -0.1216
10286SOL    HW133111   2.389   4.520   2.207  0.3090 -0.2430 -2.0342
10286SOL    HW233112   2.323   4.403   2.276  0.5481  0.1582 -1.1039
10287SOL     OW33113   0.871  10.246   3.771  0.9192 -0.6382 -0.1672
10287SOL    HW133114   0.787  10.214   3.805  0.4398  0.4105 -0.3305
10287SOL    HW233115   0.913  10.169   3.734 -0.2096 -1.0846 -0.5544
10288SOL     OW33116   7.241   3.860   1.993  0.0741  0.0617  0.1532
10288SOL    HW133117   7.263   3.770   2.014 -0.6974 -0.1899 -0.0956
10288SOL    HW233118   7.229   3.903   2.078  0.4358 -0.0685  0.2696
10289SOL     OW33119   1.407   8.340   4.106 -0.0448  0.4895 -0.3347
10289SOL    HW133120   1.466   8.375   4.039 -0.7461  0.7824 -0.8093
10289SOL    HW233121   1.420   8.397   4.182  0.4131  0.4395 -0.3725
10290SOL     OW33122   9.476  10.170   9.129  0.1781 -0.2724  0.0409
10290SOL    HW133123   9.486  10.156   9.035 -0.1965  1.3966 -0.2890
10290SOL    HW233124   9.430  10.092   9.160  0.5061 -0.9551 -1.1142
10291SOL     OW33125   3.698   1.458   3.439 -0.2515 -0.1329  0.0867
10291SOL    HW133126   3.685   1.455   3.534  2.8139 -2.9718  0.5937
10291SOL    HW233127   3.623   1.409   3.403 -0.2688 -1.0015  1.2581
10292SOL     OW33128   9.720   6.297   5.126 -0.0674 -0.4093 -0.2973
10292SOL    HW133129   9.790   6.328   5.184 -1.3606  0.2095  0.9954
10292SOL    HW233130   9.760   6.226   5.076  1.7889  0.6215 -0.3622
10293SOL     OW33131   6.106   9.836  10.104  0.0203  0.0437 -0.3587
10293SOL    HW133132   6.036   9.818  10.167  0.9937  2.9204  1.7603
10293SOL    HW233133   6.148   9.751  10.090 -1.9396 -1.1751  0.7375
10294SOL     OW33134   1.337   1.835   7.218 -0.0931 -0.1974 -0.1706
10294SOL    HW133135   1.317   1.857   7.309  0.2104 -0.1788 -0.1060
10294SOL    HW233136   1.258   1.858   7.170 -0.7744 -1.5000  0.2814
10295SOL     OW33137   0.316   0.136   0.566  0.3683  0.4992  0.3804
10295SOL    HW133138   0.348   0.212   0.517  1.9536 -1.3614 -1.6801
10295SOL    HW233139   0.221   0.142   0.560  0.4826  1.6307 -0.8772
10296SOL     OW33140   0.535   9.601   5.672 -0.0037  0.1331  1.1988
10296SOL    HW133141   0.483   9.520   5.678 -0.3132  0.3752  1.8677
10296SOL    HW233142   0.585   9.603   5.754  1.2734 -0.2207  0.4639
10297SOL     OW33143   2.349   3.724   6.170 -0.8171  0.3608 -0.4249
10297SOL    HW133144   2.386   3.635   6.174 -1.9531 -0.0854  1.0611
10297SOL    HW233145   2.411   3.778   6.219 -1.4976 -0.1748  1.0915
10298SOL     OW33146  10.515   3.818   9.940  0.4554 -0.1131 -0.0790
10298SOL    HW133147  10.463   3.804   9.862  1.0644  0.8183 -0.6702
10298SOL    HW233148  10.463   3.780  10.011 -1.4003  1.4785 -0.5169
10299SOL     OW33149   2.144   6.588   5.793  0.4588 -0.1787 -0.1749
10299SOL    HW133150   2.153   6.649   5.720 -1.1004  2.6173  1.8035
10299SOL    HW233151   2.067   6.536   5.772  0.8302 -0.3694 -1.1153
10300SOL     OW33152   1.218   3.858   0.028  0.3360 -0.1072  0.1557
10300SOL    HW133153   1.175   3.807  -0.041  0.5790  0.6673 -0.5924
10300SOL    HW233154   1.311   3.839   0.018  0.4938  0.9609 -0.5580
10301SOL     OW33155   3.161   1.419  10.004 -0.0446  0.3071 -0.1724
10301SOL    HW133156   3.185   1.417   9.911  0.2049 -2.4082 -0.1254
10301SOL    HW233157   3.233   1.375  10.049 -0.6019  0.7331  1.1955
10302SOL     OW33158   1.660   4.369   5.355  0.0575 -0.5054 -0.6665
10302SOL    HW133159   1.607   4.394   5.279 -0.0687 -0.7779 -0.6699
10302SOL    HW233160   1.689   4.452   5.393 -1.3558 -0.3092  0.0420
10303SOL     OW33161   1.058   8.070   8.707 -0.3705 -0.5041 -0.3406
10303SOL    HW133162   1.086   8.108   8.624 -1.6961  0.8193 -0.2273
10303SOL    HW233163   0.965   8.049   8.695 -0.8477  0.6041  1.0827
10304SOL     OW33164   8.193  10.325   4.154  0.0764 -0.4261 -0.2066
10304SOL    HW133165   8.112  10.370   4.175  0.1657 -0.8360  1.1340
10304SOL    HW233166   8.209  10.268   4.229  0.0582 -2.5787 -1.7555
10305SOL     OW33167   8.344   3.403   3.958  0.0161 -0.2085 -0.4351
10305SOL    HW133168   8.341   3.313   3.924 -0.1844  0.3721 -2.0043
10305SOL    HW233169   8.255   3.419   3.990  0.1485 -0.6777  0.1949
10306SOL     OW33170   5.817   8.448   3.443 -1.0092  0.2889  0.2719
10306SOL    HW133171   5.902   8.410   3.462 -1.7628 -0.9318  1.3506
10306SOL    HW233172   5.832   8.505   3.367  0.0452 -2.7560 -1.9800
10307SOL     OW33173   1.438   3.372   7.478  0.2532 -0.2334 -0.2868
10307SOL    HW133174   1.508   3.319   7.516 -0.5458 -2.6307 -1.9145
10307SOL    HW233175   1.411   3.323   7.399 -0.7605  2.4747 -1.7549
10308SOL     OW33176   7.314   1.430   6.268 -0.5840 -0.1433  0.8587
10308SOL    HW133177   7.276   1.518   6.269 -1.1604 -0.2675 -1.6625
10308SOL    HW233178   7.240   1.373   6.246  0.2944 -0.8653 -0.3736
10309SOL     OW33179   2.778   1.706   2.680 -0.2797 -0.4955  0.0790
10309SOL    HW133180   2.867   1.739   2.671  0.1539 -1.3821  0.9847
10309SOL    HW233181   2.785   1.631   2.739 -1.7695  0.0358  1.0048
10310SOL     OW33182   4.742   6.083   2.842 -0.2798  0.1702 -0.4390
10310SOL    HW133183   4.807   6.141   2.880 -0.9753  1.5268 -1.2027
10310SOL    HW233184   4.746   6.003   2.894 -0.2605  1.4252  1.5590
10311SOL     OW33185   3.819   6.209   7.015  0.0860 -0.9486 -0.2342
10311SOL    HW133186   3.869   6.248   7.086 -0.6328 -0.5173  0.0452
10311SOL    HW233187   3.737   6.258   7.013  0.2927 -0.6034 -1.6921
10312SOL     OW33188   7.573   9.838   2.414  0.2769  0.0967  0.0012
10312SOL    HW133189   7.555   9.932   2.408  1.2994  0.3088  0.0951
10312SOL    HW233190   7.640   9.830   2.482  0.7196 -0.6250 -0.5007
10313SOL     OW33191  10.611   8.384   3.399  1.0988 -0.4904 -0.4546
10313SOL    HW133192  10.529   8.343   3.430 -0.2032  1.7108 -0.8108
10313SOL    HW233193  10.621   8.352   3.309  0.6388 -0.7784 -0.4080
10314SOL     OW33194   8.271   0.615   8.987 -0.4479  0.4950  0.7570
10314SOL    HW133195   8.180   0.605   9.013 -0.0087  0.1345  2.2325
10314SOL    HW233196   8.279   0.706   8.958 -1.0458  0.8004  1.5495
10315SOL     OW33197   7.020   8.060   1.924  0.4043  0.0395  0.2419
10315SOL    HW133198   7.016   7.986   1.984 -2.1229 -0.2015 -0.1422
10315SOL    HW233199   7.005   8.136   1.979 -1.6286 -0.1594  0.0398
10316SOL     OW33200   9.171   8.087   0.094 -0.3945 -0.2660  0.0054
10316SOL    HW133201   9.115   8.093   0.171 -0.5769 -0.6708 -0.0946
10316SOL    HW233202   9.168   7.995   0.069 -1.0865  0.0376 -1.0560
10317SOL     OW33203   8.511   2.534   6.651  0.0181  0.5320  0.2787
10317SOL    HW133204   8.526   2.531   6.556  2.3645  0.3203  0.6053
10317SOL    HW233205   8.465   2.453   6.671 -0.7734  0.7186 -0.6986
10318SOL     OW33206   2.916   1.420   2.762  0.6350 -0.0688  0.7311
10318SOL    HW133207   2.856   1.355   2.798 -1.3942  2.4098  2.2614
10318SOL    HW233208   2.975   1.441   2.835  1.6058 -0.5262  0.0956
10319SOL     OW33209   4.064   1.327   0.801 -0.5804 -0.0567 -0.4942
10319SOL    HW133210   4.080   1.418   0.777  1.1530 -0.4255 -0.8909
10319SOL    HW233211   4.056   1.282   0.717 -0.8876 -0.3584 -0.3042
10320SOL     OW33212   4.054   1.008   8.961  0.1417  0.4289 -0.1591
10320SOL    HW133213   4.121   0.939   8.961 -1.1262 -0.8778  1.3030
10320SOL    HW233214   4.014   1.002   8.874  0.7498  0.0437 -0.4219
10321SOL     OW33215   5.980   3.349  10.427  0.4299  0.1502 -0.3529
10321SOL    HW133216   5.929   3.383  10.354 -0.3585  0.0024  0.1176
10321SOL    HW233217   6.062   3.399  10.424 -0.0383  0.9193 -0.6701
10322SOL     OW33218   5.624   2.570   5.561  0.1025  0.1103  0.2831
10322SOL    HW133219   5.554   2.592   5.499 -0.3309 -2.4121 -0.2191
10322SOL    HW233220   5.588   2.596   5.647 -1.0118 -0.1616 -0.0839
10323SOL     OW33221   4.202   1.482   5.111 -0.3507 -0.1230 -0.0338
10323SOL    HW133222   4.239   1.411   5.163 -0.3354  0.1714  0.3706
10323SOL    HW233223   4.130   1.442   5.062  1.3108 -1.0037 -1.8690
10324SOL     OW33224   7.196   0.437   5.249 -0.7813 -0.2421 -0.2568
10324SOL    HW133225   7.221   0.345   5.250 -1.7019 -0.5293 -1.2641
10324SOL    HW233226   7.100   0.436   5.247 -0.8027  0.7228 -0.6767
10325SOL     OW33227   4.674   3.657   2.171  0.2654  0.5258  0.4186
10325SOL    HW133228   4.685   3.642   2.265 -0.1864 -0.6771  0.2965
10325SOL    HW233229   4.622   3.583   2.141  0.6397  0.7554 -0.8386
10326SOL     OW33230   5.516   9.776   7.146  0.0115 -0.2152 -0.1481
10326SOL    HW133231   5.559   9.766   7.061  0.3620 -0.5667  0.0683
10326SOL    HW233232   5.469   9.694   7.159 -0.7437  0.1652 -0.3829
10327SOL     OW33233   7.200   9.708   1.315 -0.3579  0.2199  0.2147
10327SOL    HW133234   7.225   9.640   1.378 -0.6161 -0.6909 -0.6482
10327SOL    HW233235   7.267   9.776   1.327 -0.7615  0.3706  1.9088
10328SOL     OW33236   8.775   4.863   9.303  0.4474  0.0384 -0.6441
10328SOL    HW133237   8.848   4.915   9.272  1.5112 -0.0159  1.5423
10328SOL    HW233238   8.755   4.899   9.390 -0.3724 -1.6374 -0.0922
10329SOL     OW33239   7.732  10.250   5.510 -0.0299 -0.1345 -0.3439
10329SOL    HW133240   7.818  10.227   5.545  0.0051 -0.8989 -0.9008
10329SOL    HW233241   7.719  10.190   5.436 -1.7745 -1.2862  0.7963
10330SOL     OW33242   6.233   9.004   2.496  0.2303  0.1798  0.0478
10330SOL    HW133243   6.173   9.060   2.547  0.5590  0.0217  0.6232
10330SOL    HW233244   6.175   8.946   2.447 -0.0938 -0.2075  0.8604
10331SOL     OW33245   4.631   9.759   0.011 -0.2915 -0.1764 -0.1049
10331SOL    HW133246   4.587   9.752   0.095  0.3836 -1.0348  0.2016
10331SOL    HW233247   4.581   9.824  -0.038 -1.0778 -0.1483  0.7165
10332SOL     OW33248   1.004   5.248   6.449  0.0442  0.4272 -0.1425
10332SOL    HW133249   0.954   5.274   6.371 -0.0716  0.3249 -0.1018
10332SOL    HW233250   1.069   5.187   6.416  0.2185  0.6503 -0.2151
10333SOL     OW33251   7.218   4.055   7.152 -0.3600 -0.4873  0.6237
10333SOL    HW133252   7.179   4.032   7.237 -1.9412  1.0703  0.3717
10333SOL    HW233253   7.239   4.148   7.159  1.3714 -0.7963 -0.0313
10334SOL     OW33254   1.337   6.292   6.681  0.1988 -0.1272  0.6698
10334SOL    HW133255   1.433   6.292   6.684  0.2488 -1.9510  0.5437
10334SOL    HW233256   1.311   6.361   6.741  1.6029 -1.5193  3.0469
10335SOL     OW33257   9.541   4.886   9.803 -0.1195  0.1396 -0.1820
10335SOL    HW133258   9.501   4.928   9.880 -0.1122 -0.4608  0.1510
10335SOL    HW233259   9.545   4.956   9.738 -0.9824  0.4131  0.0476
10336SOL     OW33260   4.906   4.323   5.637  0.8617 -0.2616  0.0070
10336SOL    HW133261   4.814   4.343   5.623  0.5295 -1.1048  0.8163
10336SOL    HW233262   4.953   4.399   5.605 -0.2095  0.9134  1.1063
10337SOL     OW33263   1.725   4.876   1.550 -0.5497  0.2227  0.1375
10337SOL    HW133264   1.751   4.815   1.481 -0.0517  1.0029 -0.3841
10337SOL    HW233265   1.637   4.906   1.524 -0.4673  0.3224 -0.0282
10338SOL     OW33266   8.865   6.486   1.655 -0.6995  0.2098 -0.4751
10338SOL    HW133267   8.776   6.516   1.638 -1.2714 -0.9018  0.3929
10338SOL    HW233268   8.854   6.398   1.692  0.8407 -0.7987 -2.2147
10339SOL     OW33269   8.446   8.554   4.774  0.3773 -1.1787  0.3789
10339SOL    HW133270   8.427   8.541   4.681  0.9327 -1.2556  0.2739
10339SOL    HW233271   8.539   8.536   4.782  0.7980  0.8405  0.5808
10340SOL     OW33272   4.466   3.492   4.395 -0.0196  0.4750  0.0563
10340SOL    HW133273   4.405   3.506   4.322 -0.5270  2.6064  0.7915
10340SOL    HW233274   4.552   3.483   4.354 -0.2909  1.6941 -0.8432
10341SOL     OW33275   4.483   2.772   5.978 -0.0836 -0.6195  0.2821
10341SOL    HW133276   4.548   2.837   6.003  0.2569 -1.0457  0.5199
10341SOL    HW233277   4.409   2.823   5.945  1.0624 -0.1379 -1.7328
10342SOL     OW33278   6.056   9.152   5.750  0.9475  0.5071 -0.0040
10342SOL    HW133279   6.032   9.137   5.841  0.0879  1.3811 -0.0688
10342SOL    HW233280   6.082   9.244   5.747 -0.2649  0.8379 -0.8877
10343SOL     OW33281   3.570   7.887   4.837  0.6700  0.2801 -0.5613
10343SOL    HW133282   3.639   7.872   4.902 -0.8447  0.6931  1.2519
10343SOL    HW233283   3.575   7.811   4.779  0.9870 -1.0282  1.0943
10344SOL     OW33284   1.296   1.542   3.469  0.5921 -0.1358 -0.1841
10344SOL    HW133285   1.278   1.474   3.405  1.0008 -0.5138  0.0904
10344SOL    HW233286   1.257   1.510   3.550  1.1779 -0.2684  0.0556
10345SOL     OW33287   0.305   6.716   1.798 -0.5964  0.0864  0.4150
10345SOL    HW133288   0.368   6.777   1.760 -0.5014 -0.1235  0.2332
10345SOL    HW233289   0.261   6.678   1.722 -0.1544 -0.6036  0.4977
10346SOL     OW33290   5.355   1.419   2.334 -0.8722 -0.0599 -0.0556
10346SOL    HW133291   5.284   1.388   2.390  0.2060 -2.3105  0.1944
10346SOL    HW233292   5.313   1.442   2.251 -2.0998  0.4742  0.6936
10347SOL     OW33293   8.251   1.203   3.544  0.4152  0.5698 -0.4476
10347SOL    HW133294   8.195   1.136   3.584  1.6209 -0.4786 -0.4775
10347SOL    HW233295   8.300   1.157   3.476  1.2403  1.4864 -0.4997
10348SOL     OW33296   0.781   9.913   5.063 -0.2392  0.3649 -0.8793
10348SOL    HW133297   0.848   9.977   5.087 -0.9529  1.2603 -1.2517
10348SOL    HW233298   0.776   9.854   5.139 -1.7471  2.5416  0.8282
10349SOL     OW33299   4.928   5.438   3.446  0.8311  0.0531  0.2145
10349SOL    HW133300   4.961   5.499   3.380  2.6023 -1.5241 -0.4453
10349SOL    HW233301   4.840   5.416   3.416  1.2450  0.1132 -1.0978
10350SOL     OW33302   5.034  10.128   7.362  0.0246 -0.2769 -0.0147
10350SOL    HW133303   5.116  10.160   7.401 -0.6585 -0.8471  2.0365
10350SOL    HW233304   5.058  10.100   7.274  1.6610  1.2051 -0.0973
10351SOL     OW33305   1.181   1.489   5.206 -0.3770 -0.0037 -0.3686
10351SOL    HW133306   1.224   1.405   5.219 -0.1805  0.3729  1.6575
10351SOL    HW233307   1.207   1.515   5.117 -0.3605 -1.9957 -1.0006
10352SOL     OW33308  10.057   3.369   2.549 -0.2547 -0.4667 -0.5496
10352SOL    HW133309  10.080   3.436   2.613 -0.2240 -0.3645 -0.6665
10352SOL    HW233310  10.139   3.351   2.503 -0.4367  0.0056 -1.0679
10353SOL     OW33311   2.569   9.678   3.598  0.2991 -0.3579  0.0128
10353SOL    HW133312   2.536   9.767   3.589 -0.0494 -0.5518 -0.7150
10353SOL    HW233313   2.491   9.622   3.592  0.4537 -0.6914  0.9507
10354SOL     OW33314   4.643   0.565   0.197 -0.1340  0.2357 -0.0295
10354SOL    HW133315   4.679   0.567   0.286  0.8386  0.3402 -0.4118
10354SOL    HW233316   4.575   0.632   0.197  0.7738  1.1766  0.2625
10355SOL     OW33317   7.302   1.595   1.794 -0.6317  0.2265 -0.0273
10355SOL    HW133318   7.292   1.530   1.864  0.2934  0.0429 -0.0546
10355SOL    HW233319   7.248   1.562   1.723 -2.1329  0.7556  0.8109
10356SOL     OW33320   2.684   4.040   4.112 -0.0786 -0.2500  0.1862
10356SOL    HW133321   2.643   3.954   4.104  1.0733 -0.7268 -0.8996
10356SOL    HW233322   2.615   4.102   4.088 -1.2174 -0.7680  1.9369
10357SOL     OW33323   7.323   9.617   1.749  0.4462 -0.4416  0.2247
10357SOL    HW133324   7.388   9.638   1.815  1.1148  1.8339 -1.0368
10357SOL    HW233325   7.242   9.658   1.781  1.2402  2.4992 -1.1931
10358SOL     OW33326   0.323   6.312   6.138  0.6796  0.4367  0.1614
10358SOL    HW133327   0.385   6.277   6.201  1.7799  0.5953 -0.7891
10358SOL    HW233328   0.357   6.285   6.053 -0.2530  1.0042 -0.4175
10359SOL     OW33329  10.462   9.371   7.708  0.3617  0.4507 -0.0953
10359SOL    HW133330  10.417   9.395   7.789 -0.6981 -0.4162 -0.4152
10359SOL    HW233331  10.430   9.434   7.643  0.1737  0.2901 -0.1574
10360SOL     OW33332   6.117   0.347   1.103 -0.3023  0.3743  0.8168
10360SOL    HW133333   6.073   0.272   1.063 -2.3803  1.5232  0.7619
10360SOL    HW233334   6.164   0.311   1.178 -0.4235 -1.1110  0.1977
10361SOL     OW33335   4.120   9.036   2.447 -0.3310  0.1351  0.3763
10361SOL    HW133336   4.078   8.966   2.398  1.5533 -0.7122 -0.1389
10361SOL    HW233337   4.205   9.048   2.404  0.7260  0.4931  2.3943
10362SOL     OW33338   0.319   7.310   6.250 -0.0185 -0.0222 -0.2193
10362SOL    HW133339   0.230   7.311   6.285 -0.1154 -0.9897 -0.4036
10362SOL    HW233340   0.375   7.318   6.327 -0.2576 -0.1737 -0.0270
10363SOL     OW33341   0.790   0.375   2.014  0.4221  0.1851 -0.7858
10363SOL    HW133342   0.869   0.421   2.043  1.1982 -1.5575  0.0423
10363SOL    HW233343   0.724   0.396   2.081  0.5264  0.7125 -0.8444
10364SOL     OW33344   0.944   3.990  10.092  0.0203  0.6482 -0.7659
10364SOL    HW133345   0.969   4.009  10.002 -0.1180  1.5886 -0.6189
10364SOL    HW233346   0.947   4.075  10.137 -0.1985  0.2465  0.0440
10365SOL     OW33347   2.698   3.182   6.369 -0.3162 -0.2711  0.3231
10365SOL    HW133348   2.694   3.229   6.453  5.1273 -0.2652  0.9297
10365SOL    HW233349   2.651   3.100   6.386 -1.3776  0.7082  2.5642
10366SOL     OW33350   4.063   9.469   4.587  0.4831  0.2238  0.2621
10366SOL    HW133351   4.095   9.380   4.570 -0.1246  0.2816 -1.3490
10366SOL    HW233352   4.022   9.463   4.673  1.7090 -0.6931  0.8160
10367SOL     OW33353   2.014   8.364   6.424 -0.0468 -0.8717  0.0268
10367SOL    HW133354   2.006   8.300   6.494 -0.4341 -1.8879 -0.9156
10367SOL    HW233355   1.982   8.446   6.462 -3.0821 -2.0192  0.2149
10368SOL     OW33356   1.867   5.405   9.299  0.0132 -0.0537  0.0913
10368SOL    HW133357   1.948   5.380   9.343  0.1803  0.2517 -0.0438
10368SOL    HW233358   1.888   5.406   9.206 -0.5507 -1.4767 -0.0703
10369SOL     OW33359   5.072   0.993   4.439  0.3438  0.6350 -0.3461
10369SOL    HW133360   5.041   1.081   4.420  0.3955  0.4175 -1.5664
10369SOL    HW233361   5.048   0.942   4.361  0.5601 -0.3612  0.2166
10370SOL     OW33362   2.094   6.597   2.274 -0.0724  0.0190 -0.1702
10370SOL    HW133363   2.066   6.653   2.346  0.8911  1.2587 -0.7041
10370SOL    HW233364   2.172   6.641   2.239 -0.5765 -0.4685 -2.0321
10371SOL     OW33365   3.583   3.688   9.532  0.0167  0.2967  0.0409
10371SOL    HW133366   3.654   3.633   9.563  0.2045  0.2146 -0.5215
10371SOL    HW233367   3.623   3.774   9.517  0.0409  0.1999 -0.4561
10372SOL     OW33368   0.404   3.431   7.622 -0.2750  0.0865  0.1964
10372SOL    HW133369   0.423   3.392   7.708 -2.2687 -0.0000  0.6374
10372SOL    HW233370   0.331   3.380   7.588  0.4541  0.1569 -1.5576
10373SOL     OW33371   7.002   5.070   5.896 -0.0392  0.9883 -0.5751
10373SOL    HW133372   7.002   5.022   5.980 -1.1702  0.4970 -0.8257
10373SOL    HW233373   7.063   5.022   5.841  0.4515  1.1087 -0.1509
10374SOL     OW33374   2.629   9.196   5.605 -0.4034  0.4623  0.3396
10374SOL    HW133375   2.535   9.212   5.598 -0.3022  0.8060 -0.4232
10374SOL    HW233376   2.664   9.275   5.646 -0.4768  0.2457  0.8150
10375SOL     OW33377   8.989   8.542   3.638 -0.4668 -0.3306 -0.2084
10375SOL    HW133378   9.015   8.491   3.715  1.3247 -0.8548 -1.1181
10375SOL    HW233379   8.893   8.545   3.644 -0.3874 -0.3887  1.9964
10376SOL     OW33380   8.761   2.153   7.473  0.1293  1.0537 -0.6327
10376SOL    HW133381   8.820   2.198   7.533  0.5282 -1.0425  0.6554
10376SOL    HW233382   8.806   2.070   7.454 -1.3794  0.3902 -1.4147
10377SOL     OW33383   7.505   9.926   0.935 -0.1160 -0.5114  0.5093
10377SOL    HW133384   7.537   9.840   0.961  1.8215 -0.5269 -1.6464
10377SOL    HW233385   7.410   9.916   0.930  0.0876 -2.5726  0.1638
10378SOL     OW33386   6.204   3.644   2.356  0.1351  0.1187 -0.2210
10378SOL    HW133387   6.231   3.569   2.408 -1.0674  0.2757  0.6852
10378SOL    HW233388   6.258   3.640   2.277  0.5282 -1.3230  0.0953
10379SOL     OW33389   8.835   5.887   9.868 -0.3924 -0.6388 -0.2639
10379SOL    HW133390   8.816   5.960   9.927  0.3756  0.9853 -1.9225
10379SOL    HW233391   8.777   5.901   9.793  3.1600  1.3835 -2.9828
10380SOL     OW33392   3.160  10.518   1.818  0.0316 -0.2573  0.2572
10380SOL    HW133393   3.174  10.452   1.886 -2.1110  0.1786  1.2062
10380SOL    HW233394   3.107  10.473   1.751 -1.6783  0.5013  1.0401
10381SOL     OW33395   5.707   2.985  10.062 -0.3812  0.2718 -0.1708
10381SOL    HW133396   5.801   2.972  10.051 -0.4799  0.0722 -0.8527
10381SOL    HW233397   5.676   2.903  10.101 -0.2351  0.4415  0.3076
10382SOL     OW33398   8.549   0.076   9.053 -0.2273 -0.3228 -0.1244
10382SOL    HW133399   8.614   0.009   9.030 -0.1458 -0.4163  0.3798
10382SOL    HW233400   8.465   0.031   9.047 -0.3430  0.0209 -1.6549
10383SOL     OW33401   8.124   8.528   8.344  0.2457 -0.3584 -0.0682
10383SOL    HW133402   8.081   8.555   8.263  1.0537  0.6890 -0.1753
10383SOL    HW233403   8.071   8.568   8.414 -0.6628 -1.5661 -0.0464
10384SOL     OW33404   9.974   1.015   1.003  0.6134 -0.7710 -0.3482
10384SOL    HW133405   9.898   1.043   1.054  1.4821 -0.0347  0.5963
10384SOL    HW233406   9.962   1.057   0.918  1.4580  1.9617  0.7578
10385SOL     OW33407   1.272   6.491   1.957  0.5197 -0.9888  0.0793
10385SOL    HW133408   1.277   6.498   1.862 -0.6449 -0.4382  0.0413
10385SOL    HW233409   1.179   6.505   1.978  1.0168  0.6581  1.4267
10386SOL     OW33410   2.564   6.949   5.907 -0.2300  0.1598 -0.6398
10386SOL    HW133411   2.539   6.859   5.928 -0.0313  0.1864 -0.2854
10386SOL    HW233412   2.658   6.944   5.888 -0.3653  0.1680 -1.3415
10387SOL     OW33413  10.131   7.954   7.944  0.5353  0.2618 -0.4678
10387SOL    HW133414  10.121   7.947   7.849  1.8433 -2.0109 -0.5104
10387SOL    HW233415  10.204   7.896   7.965  0.0845  0.4680  1.9876
10388SOL     OW33416  10.560   6.324   2.211  0.3892 -0.3678  0.4114
10388SOL    HW133417  10.645   6.340   2.170  0.3132 -0.1672  0.3313
10388SOL    HW233418  10.570   6.239   2.254  1.0464  0.2249  1.4880
10389SOL     OW33419   4.745   9.817   3.612 -0.4782 -0.0272 -0.4959
10389SOL    HW133420   4.710   9.903   3.637 -1.8524 -0.8555  0.5385
10389SOL    HW233421   4.689   9.789   3.539  0.8205  0.4942 -1.7587
10390SOL     OW33422   4.363   5.816   7.105  0.0972 -0.3076  0.3375
10390SOL    HW133423   4.317   5.755   7.162 -0.8300 -1.2775 -1.3645
10390SOL    HW233424   4.294   5.872   7.069  0.2916 -1.1772 -1.5299
10391SOL     OW33425  10.142   3.460   2.954  0.1719  0.0928 -0.1818
10391SOL    HW133426  10.086   3.384   2.940  0.1968 -0.0721  0.5748
10391SOL    HW233427  10.231   3.425   2.950  0.2462  0.4218 -1.7862
10392SOL     OW33428   0.380   4.768   4.247 -0.1855  0.1425 -0.0778
10392SOL    HW133429   0.359   4.677   4.267  0.4220 -0.2297 -1.0793
10392SOL    HW233430   0.459   4.764   4.193  0.2763  1.3068  0.4702
10393SOL     OW33431   5.602  10.383   9.272 -0.1760 -0.8267 -0.2704
10393SOL    HW133432   5.605  10.434   9.191  0.7002 -0.0219  0.2465
10393SOL    HW233433   5.690  10.393   9.310 -0.2759 -1.9638  0.3111
10394SOL     OW33434   0.923   4.299   0.631  0.4969 -0.0932  0.3491
10394SOL    HW133435   0.998   4.264   0.584  0.5855 -0.0343  0.4468
10394SOL    HW233436   0.905   4.235   0.699  2.0947  1.1268  2.0184
10395SOL     OW33437   9.439   0.560   2.871 -0.1010  0.1222 -0.6610
10395SOL    HW133438   9.513   0.602   2.825 -1.0704  0.9929 -1.4832
10395SOL    HW233439   9.461   0.467   2.870  1.3410  0.4251 -0.2258
10396SOL     OW33440   1.377   9.061   9.491 -0.0325 -0.0428  0.1967
10396SOL    HW133441   1.393   9.099   9.577  0.0793  0.3462  0.0072
10396SOL    HW233442   1.282   9.046   9.488 -0.7820  3.7395 -1.1009
10397SOL     OW33443   8.614   2.192   2.602 -0.7005  0.2310  0.2921
10397SOL    HW133444   8.589   2.218   2.513 -0.7474 -0.5358  0.0651
10397SOL    HW233445   8.613   2.096   2.599 -3.1529  0.1237  1.7871
10398SOL     OW33446   9.335   4.679   2.459 -0.6294 -0.0774 -0.2078
10398SOL    HW133447   9.362   4.747   2.396 -0.8363  0.7033  0.5297
10398SOL    HW233448   9.359   4.597   2.416  1.2891  0.5037 -0.3686
10399SOL     OW33449   3.984   0.891   7.171  0.2987 -0.0870  0.2341
10399SOL    HW133450   4.067   0.850   7.147  0.2993 -0.1711  0.3800
10399SOL    HW233451   3.922   0.818   7.177  0.0044  0.0632 -0.7604
10400SOL     OW33452   7.856   1.308   4.417  0.2383 -0.8292 -0.1121
10400SOL    HW133453   7.841   1.279   4.327  0.0454  1.0338 -0.7198
10400SOL    HW233454   7.798   1.254   4.470 -1.7140 -0.1006 -1.4173
10401SOL     OW33455   0.325   7.946   3.784 -0.1966 -0.0943 -0.1572
10401SOL    HW133456   0.408   7.988   3.807  0.4240 -1.1123 -0.4304
10401SOL    HW233457   0.282   8.008   3.725 -0.4316  1.2031  1.3439
10402SOL     OW33458   1.481   8.705   9.946 -0.2847  0.3935  0.2825
10402SOL    HW133459   1.492   8.679   9.854  0.0023  1.7961 -0.0985
10402SOL    HW233460   1.543   8.777   9.958 -0.6020  0.4837  1.4745
10403SOL     OW33461   6.601   4.254   7.929 -0.7247  0.5350 -0.0688
10403SOL    HW133462   6.570   4.212   8.009 -1.4718  0.2872 -0.4886
10403SOL    HW233463   6.697   4.250   7.936 -0.7649 -1.3040 -0.1373
10404SOL     OW33464   9.077   4.148  10.286  0.0938 -0.1692  0.1004
10404SOL    HW133465   9.126   4.100  10.353 -0.7901  0.1203  0.9743
10404SOL    HW233466   9.081   4.091  10.209  0.4745 -0.8725  0.6189
10405SOL     OW33467   5.484   0.608   5.334  0.0498 -0.2294  0.0425
10405SOL    HW133468   5.547   0.544   5.368 -1.6927 -1.8666  0.4218
10405SOL    HW233469   5.525   0.642   5.255  0.6308 -2.6849 -0.8222
10406SOL     OW33470   2.664   4.485   7.834  0.1454  0.1991  0.1098
10406SOL    HW133471   2.754   4.482   7.801 -0.0393  2.6681 -0.8169
10406SOL    HW233472   2.611   4.451   7.762  0.2687 -0.7743  0.4648
10407SOL     OW33473   0.675   2.911   5.819 -0.1928  0.7207 -0.2949
10407SOL    HW133474   0.748   2.864   5.778 -0.7187 -0.4924  0.1031
10407SOL    HW233475   0.713   2.994   5.848  1.4346 -0.4662  1.2081
10408SOL     OW33476   2.444   1.884   7.836 -0.1522  0.6789  0.2235
10408SOL    HW133477   2.410   1.878   7.925  0.8156 -0.3152  0.5518
10408SOL    HW233478   2.531   1.844   7.841  0.3141  1.4792 -0.9672
10409SOL     OW33479   7.237   5.495  10.539 -0.0489 -0.3440 -0.6792
10409SOL    HW133480   7.187   5.516  10.618  1.5443  0.7784  0.0977
10409SOL    HW233481   7.314   5.553  10.544  0.6841 -1.1102 -2.4444
10410SOL     OW33482   8.356   5.908   2.013 -0.2754  0.2718  0.3728
10410SOL    HW133483   8.266   5.887   1.988 -0.5035 -0.2236  1.5422
10410SOL    HW233484   8.408   5.837   1.977 -0.8512 -1.5622  2.9539
10411SOL     OW33485   3.256   9.680   7.694  0.1731 -0.3780 -0.0302
10411SOL    HW133486   3.342   9.703   7.659  0.9337  0.1104  2.0009
10411SOL    HW233487   3.214   9.765   7.710 -0.2702 -0.5945 -0.0404
10412SOL     OW33488   2.875   8.526   2.340 -0.3294  0.5573  0.6132
10412SOL    HW133489   2.857   8.585   2.267 -1.1677 -1.1515 -0.6404
10412SOL    HW233490   2.949   8.473   2.310 -2.2526 -1.8611 -0.1438
10413SOL     OW33491   2.676   6.983   0.319 -0.5679  0.2299  0.3460
10413SOL    HW133492   2.685   6.986   0.224 -1.7411  1.3164  0.2485
10413SOL    HW233493   2.719   6.901   0.344 -0.0345  0.0388 -1.0827
10414SOL     OW33494   4.375  10.493   1.787 -0.6048  0.0504 -0.5387
10414SOL    HW133495   4.297  10.465   1.834 -0.5081  2.1866  1.0271
10414SOL    HW233496   4.364  10.587   1.775  1.5209  0.3342 -0.6649
10415SOL     OW33497   4.292   8.526   0.623  0.2631  0.0704 -0.4245
10415SOL    HW133498   4.217   8.482   0.584  0.6438 -0.4827 -0.5395
10415SOL    HW233499   4.285   8.506   0.717  0.3034 -0.0346 -0.4439
10416SOL     OW33500   8.288   6.187   4.567  0.2123 -0.2801  0.4762
10416SOL    HW133501   8.220   6.155   4.507 -0.8810  0.1201  1.4570
10416SOL    HW233502   8.296   6.118   4.632 -1.6952  1.0256  2.2379
10417SOL     OW33503   7.654   7.300   8.162 -0.4072 -0.2877  0.0329
10417SOL    HW133504   7.587   7.244   8.199  1.7904 -2.7790  0.5248
10417SOL    HW233505   7.622   7.323   8.075 -1.5944 -1.9747 -0.0155
10418SOL     OW33506   6.392   6.237   7.728 -0.3052 -0.3426 -0.3748
10418SOL    HW133507   6.343   6.279   7.658 -0.7028 -1.1803 -0.6035
10418SOL    HW233508   6.350   6.268   7.808 -0.8908 -0.6672 -0.5545
10419SOL     OW33509  10.310   4.815   0.884  0.7123  0.2425 -0.1899
10419SOL    HW133510  10.246   4.750   0.856 -1.0016  1.5433  0.5331
10419SOL    HW233511  10.377   4.765   0.929  0.0761 -1.1374 -0.7161
10420SOL     OW33512   8.880   2.256  10.545 -0.4016  0.7989  0.3245
10420SOL    HW133513   8.833   2.260  10.462  0.8502  0.3595 -0.4299
10420SOL    HW233514   8.828   2.311  10.605 -2.7853 -0.9963  0.0239
10421SOL     OW33515   4.206   8.876   9.361 -0.2830 -0.1218 -0.0071
10421SOL    HW133516   4.164   8.818   9.298 -1.9687  0.4481  0.5577
10421SOL    HW233517   4.209   8.825   9.442  0.1345 -0.1643 -0.0475
10422SOL     OW33518   4.866   0.024   8.717 -0.8929 -0.2313 -0.1238
10422SOL    HW133519   4.789   0.051   8.768 -0.5942  1.1964 -0.3915
10422SOL    HW233520   4.910  -0.040   8.773 -1.5099  0.0025  0.6513
10423SOL     OW33521   3.797   9.558   8.079 -0.4938  0.1136  0.0908
10423SOL    HW133522   3.777   9.634   8.134 -0.4391  0.7754 -0.7800
10423SOL    HW233523   3.888   9.537   8.100 -0.7969 -0.3172  1.0280
10424SOL     OW33524   5.546   3.951  10.129 -0.2042  0.2709  0.2194
10424SOL    HW133525   5.558   3.857  10.138 -0.8187  0.0414 -1.1659
10424SOL    HW233526   5.623   3.981  10.081 -0.6512  0.2494 -0.5263
10425SOL     OW33527   4.205   0.349   6.637  0.7945  0.0723  0.0064
10425SOL    HW133528   4.172   0.272   6.591 -0.3984  1.2483 -1.1953
10425SOL    HW233529   4.186   0.332   6.730 -0.6980 -0.5012 -0.3801
10426SOL     OW33530   9.134  10.502   3.287 -0.3826  0.3095  0.2951
10426SOL    HW133531   9.048  10.465   3.268 -0.5582  0.5821  0.5502
10426SOL    HW233532   9.142  10.576   3.227 -1.0126  1.2811  1.3720
10427SOL     OW33533  10.543   4.941   2.176  0.1470 -0.1564 -1.2483
10427SOL    HW133534  10.551   5.033   2.201 -0.4843 -0.3960 -0.0949
10427SOL    HW233535  10.570   4.939   2.084 -0.6168  1.3190 -1.5478
10428SOL     OW33536   0.294   8.417   3.683 -0.6369 -0.2657 -0.1721
10428SOL    HW133537   0.218   8.374   3.723  0.4264 -1.9874  0.0720
10428SOL    HW233538   0.331   8.351   3.624 -0.1929  1.0684 -1.4538
10429SOL     OW33539   9.972   9.769   9.258 -0.4020 -0.2560 -0.9383
10429SOL    HW133540  10.053   9.740   9.300 -0.7535  1.7218  1.3531
10429SOL    HW233541   9.999   9.798   9.171  1.6771  1.4524  0.1570
10430SOL     OW33542   4.881   4.233   2.609  0.0391  0.2684  0.1140
10430SOL    HW133543   4.952   4.283   2.649  1.7388 -0.7588 -1.4693
10430SOL    HW233544   4.858   4.283   2.530  0.3150 -0.3764 -0.3780
10431SOL     OW33545   6.184   4.275   2.694 -0.0053  0.3464  0.9015
10431SOL    HW133546   6.116   4.211   2.713  0.9083 -0.4371  1.6386
10431SOL    HW233547   6.138   4.349   2.656 -1.6764  0.9676  3.8157
10432SOL     OW33548   3.228   0.852   0.109 -0.0450 -0.0134  0.1830
10432SOL    HW133549   3.313   0.808   0.112 -1.4803 -2.9461  2.1949
10432SOL    HW233550   3.234   0.920   0.176  1.6065  1.9211 -1.7563
10433SOL     OW33551  10.251   9.414   3.483  0.2479 -0.0517 -0.3385
10433SOL    HW133552  10.159   9.437   3.468  0.1884 -0.8942 -1.4606
10433SOL    HW233553  10.290   9.493   3.519 -0.9641  0.2424  0.4008
10434SOL     OW33554   6.102  10.507   8.656  0.3562 -0.5922  0.6103
10434SOL    HW133555   6.098  10.432   8.716  0.0595 -0.7197  0.4318
10434SOL    HW233556   6.183  10.551   8.679  0.5465 -0.9852  0.6995
10435SOL     OW33557   9.551   1.632   5.971 -0.3723  0.2343 -0.3669
10435SOL    HW133558   9.533   1.597   6.058 -1.2949  0.2800 -0.5256
10435SOL    HW233559   9.472   1.682   5.948  0.0405  0.6031 -1.0394
10436SOL     OW33560   4.158   1.496  10.496  0.4433 -0.0623  0.5491
10436SOL    HW133561   4.093   1.428  10.513  0.6640 -0.3146  0.3849
10436SOL    HW233562   4.107   1.570  10.463 -0.1522  0.8038  3.1265
10437SOL     OW33563   2.546   0.139  10.241  0.3201 -0.5222  0.0268
10437SOL    HW133564   2.501   0.203  10.296 -0.6057  0.5676 -1.9069
10437SOL    HW233565   2.576   0.071  10.302 -0.9340  0.4609  1.7996
10438SOL     OW33566   5.805   9.341   8.484 -0.2755  0.2501 -0.1125
10438SOL    HW133567   5.787   9.289   8.406  3.6339 -0.0045 -1.0478
10438SOL    HW233568   5.893   9.377   8.470  1.4391 -1.1443  4.7659
10439SOL     OW33569   1.770   8.481   9.298  0.2180  0.2891 -0.5444
10439SOL    HW133570   1.694   8.434   9.264 -0.8554  0.3531  1.5906
10439SOL    HW233571   1.782   8.553   9.237 -0.5462 -0.5162 -1.7067
10440SOL     OW33572   3.324   3.457  10.031 -0.6009  0.0429 -0.4632
10440SOL    HW133573   3.361   3.494  10.111  0.4323 -0.7231 -0.5608
10440SOL    HW233574   3.380   3.381  10.012 -0.9269  0.1173 -1.8133
10441SOL     OW33575   5.423   3.219  10.050  0.0456 -0.1445 -0.4645
10441SOL    HW133576   5.489   3.263   9.996  0.2256  0.5356  0.3029
10441SOL    HW233577   5.401   3.140  10.000 -0.4543  0.9132 -1.9549
10442SOL     OW33578   9.268   8.412   1.336  0.6988 -0.3635 -0.5839
10442SOL    HW133579   9.282   8.443   1.426  1.1394  0.3628 -0.8908
10442SOL    HW233580   9.350   8.369   1.313 -0.4295 -3.2112  0.3724
10443SOL     OW33581   4.040   7.319   2.316  1.3603 -0.5500 -0.9408
10443SOL    HW133582   4.010   7.228   2.328 -0.2387  0.2035  1.6626
10443SOL    HW233583   3.981   7.355   2.249  0.6360 -0.8869 -0.5000
10444SOL     OW33584   6.853   1.399   2.029  0.4222  0.2055 -0.2571
10444SOL    HW133585   6.911   1.474   2.047  0.1812  0.5917 -1.0794
10444SOL    HW233586   6.913   1.329   2.005  0.6019  0.3528 -0.2506
10445SOL     OW33587   0.975   7.314   3.708 -0.2662 -0.3093  0.2504
10445SOL    HW133588   1.017   7.236   3.671  0.1824  0.0215  0.0537
10445SOL    HW233589   0.899   7.330   3.651 -0.4435 -0.6802  0.3768
10446SOL     OW33590   2.037   9.246   1.777 -0.6401 -0.2861 -0.2928
10446SOL    HW133591   1.955   9.224   1.822 -1.1513 -1.8513 -1.8627
10446SOL    HW233592   2.022   9.334   1.742 -0.8279  0.2906  1.1425
10447SOL     OW33593   7.952   1.634   8.489 -0.3364 -0.4413 -0.0272
10447SOL    HW133594   7.952   1.729   8.496 -2.5584 -0.2693 -1.4553
10447SOL    HW233595   7.860   1.608   8.498  0.2465 -2.5113  0.7211
10448SOL     OW33596   4.319   3.157   1.217 -0.1501 -0.4470  0.6131
10448SOL    HW133597   4.405   3.160   1.258 -0.3217  1.3279  0.9139
10448SOL    HW233598   4.268   3.224   1.262 -0.4678  1.3223 -2.1419
10449SOL     OW33599   9.260   1.823  10.199 -0.0423  0.1737 -0.4809
10449SOL    HW133600   9.316   1.776  10.260  0.9042  1.0215 -0.6621
10449SOL    HW233601   9.175   1.826  10.242  0.8506  1.6796  1.3417
10450SOL     OW33602   6.566   1.677   9.688 -0.5850  0.5337  0.2040
10450SOL    HW133603   6.623   1.653   9.761  2.3047  1.8083 -1.4430
10450SOL    HW233604   6.522   1.596   9.663  0.9724 -0.6787  1.2254
10451SOL     OW33605   0.044   0.258   1.161 -0.2547  0.8654  0.5175
10451SOL    HW133606   0.030   0.346   1.126 -1.9147  0.1657 -0.6997
10451SOL    HW233607   0.089   0.210   1.091  0.1923  0.5804  0.9815
10452SOL     OW33608   9.705  10.435   5.658  0.0096  0.0683 -0.0160
10452SOL    HW133609   9.799  10.434   5.676 -0.1545  0.6347  0.9400
10452SOL    HW233610   9.679  10.527   5.667 -0.4767  0.0692 -1.1904
10453SOL     OW33611   9.448   7.621   0.797  0.3481 -0.7319 -0.0671
10453SOL    HW133612   9.478   7.693   0.742  0.4426 -0.0752  0.8273
10453SOL    HW233613   9.359   7.603   0.766 -0.2993  0.8717  0.7574
10454SOL     OW33614  10.286   1.648   5.233  0.1428 -0.1616  0.6088
10454SOL    HW133615  10.362   1.702   5.254 -0.3237  0.5696  0.4932
10454SOL    HW233616  10.266   1.670   5.142  1.0490 -1.9304 -0.0708
10455SOL     OW33617   1.991   3.200   2.640  0.3298 -0.7099 -0.5053
10455SOL    HW133618   2.008   3.250   2.720 -0.8901 -0.7159 -0.2208
10455SOL    HW233619   1.988   3.109   2.670  2.8983 -1.0525 -1.0755
10456SOL     OW33620   3.374   8.312   6.559 -0.6553  0.3564 -0.3432
10456SOL    HW133621   3.399   8.397   6.595  0.0071  1.7476 -3.7043
10456SOL    HW233622   3.379   8.324   6.464 -0.6475 -3.4359 -0.9698
10457SOL     OW33623   5.610   3.302   2.459  0.2561 -0.0902 -0.0396
10457SOL    HW133624   5.625   3.349   2.541  2.8895  0.8793 -0.9491
10457SOL    HW233625   5.671   3.343   2.397 -0.8432 -1.5235 -2.1960
10458SOL     OW33626   4.884   4.598   2.166  0.7498 -0.2399 -0.2949
10458SOL    HW133627   4.800   4.597   2.212  0.9983 -2.1336  0.1671
10458SOL    HW233628   4.862   4.629   2.078 -0.1028  1.1081  0.3538
10459SOL     OW33629   8.282   3.973   9.853  0.3858 -0.8460 -0.3856
10459SOL    HW133630   8.230   4.028   9.911 -0.6828 -2.2080 -0.0118
10459SOL    HW233631   8.339   4.035   9.807 -1.9406  0.8063 -1.2527
10460SOL     OW33632   5.878   7.963   2.291  0.7630  0.0435  0.0831
10460SOL    HW133633   5.899   7.872   2.268  2.3879 -0.0554  1.6743
10460SOL    HW233634   5.831   7.956   2.374 -1.6711  0.5617 -1.1757
10461SOL     OW33635   9.327   5.604   9.548 -0.0241 -0.4061 -0.4562
10461SOL    HW133636   9.234   5.582   9.557 -0.6124  1.6703 -0.8135
10461SOL    HW233637   9.333   5.649   9.464  1.1926  0.0105 -0.1739
10462SOL     OW33638   9.371   8.896   1.590  0.7359  0.3325 -0.3103
10462SOL    HW133639   9.422   8.969   1.624 -0.7575  0.3868  1.9647
10462SOL    HW233640   9.284   8.908   1.627 -0.3447 -1.0189 -2.2478
10463SOL     OW33641   5.441   0.345  10.441  0.2393 -0.2930 -0.0792
10463SOL    HW133642   5.469   0.255  10.427  0.2121 -0.2023 -0.7510
10463SOL    HW233643   5.438   0.383  10.354  0.9646  0.5761  0.2603
10464SOL     OW33644   1.948   8.894   0.970  0.4081 -0.1469 -0.3899
10464SOL    HW133645   1.882   8.946   1.015  1.4974  0.8483  0.1061
10464SOL    HW233646   1.900   8.818   0.937 -0.9533  0.4967  0.0348
10465SOL     OW33647   1.601   8.288   9.160  0.0300 -0.3648  0.1343
10465SOL    HW133648   1.678   8.232   9.166  0.3830  0.3149  3.3505
10465SOL    HW233649   1.532   8.229   9.129  0.8832 -2.0606  1.2840
10466SOL     OW33650   7.086   1.087   0.337  0.4311 -0.0748 -0.1629
10466SOL    HW133651   7.089   1.140   0.257 -0.0878  1.6740  0.9187
10466SOL    HW233652   7.004   1.038   0.330  0.6662 -0.3675 -0.9590
10467SOL     OW33653   3.963   9.727   3.776  0.6944  0.4315  0.0594
10467SOL    HW133654   4.040   9.729   3.834  0.3653 -2.4927  0.7623
10467SOL    HW233655   3.962   9.637   3.742 -2.6295  0.2343  0.4039
10468SOL     OW33656   8.534   0.039   0.932  0.6043  0.3943  0.0551
10468SOL    HW133657   8.595   0.040   0.859 -0.1395 -0.6301 -0.6089
10468SOL    HW233658   8.454   0.080   0.897 -0.1575 -1.1607 -0.1090
10469SOL     OW33659   9.854   9.711   4.496  0.3440 -0.4299 -0.2261
10469SOL    HW133660   9.940   9.717   4.537 -0.0531 -2.2178  0.9704
10469SOL    HW233661   9.822   9.624   4.519 -2.8614  1.0414  1.5323
10470SOL     OW33662   7.914   0.476   1.712 -0.0864  0.2772  0.5394
10470SOL    HW133663   7.954   0.561   1.691 -1.8178  0.9675 -0.1657
10470SOL    HW233664   7.965   0.413   1.661  1.2972  0.8605  1.1575
10471SOL     OW33665   7.786   8.310   2.556 -0.1172  0.3681  0.7404
10471SOL    HW133666   7.805   8.375   2.623 -0.0522 -0.8187  1.9301
10471SOL    HW233667   7.733   8.244   2.601  1.9864 -1.7274  0.3844
10472SOL     OW33668   4.974   7.512   0.524 -0.2328  0.0599  0.6686
10472SOL    HW133669   4.955   7.508   0.431  0.0142  0.6702  0.5882
10472SOL    HW233670   4.929   7.591   0.554 -1.1722 -0.6757  1.2789
10473SOL     OW33671   1.319   9.877   9.689  0.3168 -0.4721 -0.5984
10473SOL    HW133672   1.252   9.938   9.659  0.1447  1.2360  2.8304
10473SOL    HW233673   1.270   9.798   9.714 -0.4501  0.5718  1.3874
10474SOL     OW33674   7.662   5.405   8.542  0.1138  0.2603 -0.5088
10474SOL    HW133675   7.749   5.437   8.518 -0.2376  0.7166 -1.2100
10474SOL    HW233676   7.673   5.368   8.630  1.6584 -2.3263 -1.6891
10475SOL     OW33677   3.842   1.509   7.404 -0.0817  0.4138 -0.4539
10475SOL    HW133678   3.815   1.509   7.312  1.8155 -0.7675 -1.0560
10475SOL    HW233679   3.866   1.418   7.422  0.5033  0.8209  0.9139
10476SOL     OW33680   9.705   5.940   2.056  0.5226 -0.5214 -0.6145
10476SOL    HW133681   9.617   5.963   2.026  0.4425  0.8765  0.5843
10476SOL    HW233682   9.694   5.920   2.149  1.4608 -0.4257 -0.4759
10477SOL     OW33683   2.240   3.729   4.081 -0.0606 -0.8239 -0.1069
10477SOL    HW133684   2.332   3.707   4.090 -0.3134 -1.1770  2.9833
10477SOL    HW233685   2.238   3.822   4.060  1.0571 -0.4431  1.3137
10478SOL     OW33686   0.714   1.717   8.923  0.1623  0.0175 -0.5886
10478SOL    HW133687   0.650   1.750   8.860  1.2344  2.6662 -0.4043
10478SOL    HW233688   0.796   1.760   8.900  1.2722 -1.1903  0.8586
10479SOL     OW33689   8.471   4.975   3.863 -0.1906  0.5669 -0.4746
10479SOL    HW133690   8.479   4.951   3.955 -0.7050 -0.7794 -0.7677
10479SOL    HW233691   8.537   5.043   3.851  0.2064  0.4341  0.7702
10480SOL     OW33692   8.990   2.256   0.213  0.4812  0.7858  0.5582
10480SOL    HW133693   9.061   2.265   0.150  1.6234  0.9969  1.8236
10480SOL    HW233694   8.923   2.206   0.167  1.8387 -0.2669 -0.3538
10481SOL     OW33695   6.014   7.785   4.632 -0.6609 -0.0317  0.3670
10481SOL    HW133696   6.106   7.775   4.653 -0.1219  0.9971 -1.3284
10481SOL    HW233697   5.971   7.796   4.717  1.1635  2.4032  1.0919
10482SOL     OW33698   0.964   8.416   3.096 -0.3165  0.8093 -0.0304
10482SOL    HW133699   1.052   8.381   3.114  0.0062  1.1585 -0.8666
10482SOL    HW233700   0.913   8.392   3.173  0.6269  0.9958  0.6769
10483SOL     OW33701  10.177   1.467   7.053  0.5048  0.7964 -0.5607
10483SOL    HW133702  10.088   1.448   7.085  1.0320  0.3473  0.6990
10483SOL    HW233703  10.174   1.442   6.960 -0.5475  0.3202 -0.4191
10484SOL     OW33704   7.366   8.478   0.574 -0.4216 -1.6832  0.0691
10484SOL    HW133705   7.409   8.500   0.657 -0.3188  1.2061 -0.6480
10484SOL    HW233706   7.416   8.403   0.541  0.6780 -1.7535  1.7415
10485SOL     OW33707   6.684   2.905   8.941  0.3162  0.5134  0.3516
10485SOL    HW133708   6.650   2.884   9.028  1.5708 -0.2108  0.6835
10485SOL    HW233709   6.606   2.931   8.891 -0.9868 -2.3177  0.6840
10486SOL     OW33710   1.389   2.860   4.229 -0.2394 -0.4129 -0.0586
10486SOL    HW133711   1.336   2.831   4.155 -2.2561 -0.2541  1.2387
10486SOL    HW233712   1.421   2.947   4.203 -0.7319 -0.4521 -0.8412
10487SOL     OW33713   9.279   6.126   5.617  0.0039 -0.0911  0.1093
10487SOL    HW133714   9.292   6.149   5.525  0.0238  1.9919  0.5979
10487SOL    HW233715   9.350   6.171   5.663  0.0420 -1.1800  1.1496
10488SOL     OW33716   5.870   7.997   7.814 -0.2466  0.5277 -0.7506
10488SOL    HW133717   5.925   8.074   7.827 -1.8205  1.9669 -1.9883
10488SOL    HW233718   5.872   7.982   7.719 -2.7830  1.3884 -1.0415
10489SOL     OW33719   7.394   9.661   7.917 -0.3338  0.6178  0.1872
10489SOL    HW133720   7.424   9.700   7.834  0.8405  1.3597  0.9299
10489SOL    HW233721   7.451   9.585   7.930 -0.7454  0.2994  0.1596
10490SOL     OW33722   2.236   0.953   6.241 -0.5722 -0.3741  0.2273
10490SOL    HW133723   2.228   1.042   6.274  2.1841  0.8949 -2.1163
10490SOL    HW233724   2.282   0.906   6.311 -0.3764  0.5460  0.7350
10491SOL     OW33725   8.435   0.525  10.464 -0.3129  0.0788  0.0734
10491SOL    HW133726   8.430   0.617  10.487  0.9599  0.6498 -1.6996
10491SOL    HW233727   8.346   0.491  10.478 -0.2489  0.9099  3.1022
10492SOL     OW33728   1.682   5.856   7.305  0.0717  0.3887  0.0944
10492SOL    HW133729   1.657   5.922   7.369  0.4514  0.3676  0.2652
10492SOL    HW233730   1.728   5.905   7.237 -1.5983  0.6418 -0.9113
10493SOL     OW33731   6.191   1.038   4.875  0.1533  0.1272  0.5573
10493SOL    HW133732   6.098   1.031   4.854  0.3140  1.4146 -0.7483
10493SOL    HW233733   6.231   0.964   4.829  0.0649  1.0154 -1.0284
10494SOL     OW33734   7.018   3.972   7.974 -0.2571  0.4752  0.5321
10494SOL    HW133735   6.981   4.004   8.056  0.5104  1.0055  0.6845
10494SOL    HW233736   7.095   4.027   7.959 -1.1204  1.2778 -1.2399
10495SOL     OW33737   1.527   4.794   4.344  0.1233  0.2888  0.2213
10495SOL    HW133738   1.447   4.839   4.371 -0.2338  0.3065 -0.8076
10495SOL    HW233739   1.497   4.706   4.318  0.2613  0.6327 -1.1636
10496SOL     OW33740  10.317   2.053   3.279 -0.4604 -0.0161 -0.3538
10496SOL    HW133741  10.394   2.024   3.231 -0.8622 -1.2753 -0.2757
10496SOL    HW233742  10.341   2.138   3.315  1.1244 -0.6946  0.2439
10497SOL     OW33743   3.292   4.180   4.525  0.4560  0.8824 -0.3317
10497SOL    HW133744   3.302   4.215   4.613  0.2609 -0.4514  0.2437
10497SOL    HW233745   3.251   4.251   4.475 -0.1298  1.3856  0.8375
10498SOL     OW33746   7.317   0.223   3.362  0.7574  0.0981 -0.2884
10498SOL    HW133747   7.291   0.134   3.337  1.2895  0.0209 -0.5729
10498SOL    HW233748   7.368   0.255   3.288 -0.5430  1.1404 -0.7612
10499SOL     OW33749   3.188   9.818   8.231  0.5738  1.2489 -0.1646
10499SOL    HW133750   3.167   9.904   8.194  1.1981  1.2642 -0.4950
10499SOL    HW233751   3.215   9.836   8.321  1.1373  1.4451 -0.3736
10500SOL     OW33752   4.541   0.542   2.442  0.4071 -0.0912  0.1358
10500SOL    HW133753   4.524   0.554   2.536  0.3522 -1.5125  0.3322
10500SOL    HW233754   4.480   0.603   2.399 -1.3610 -1.1652  0.9702
10501SOL     OW33755   2.704   0.462   0.627 -0.1645 -0.3366  0.4954
10501SOL    HW133756   2.625   0.490   0.673  1.1314  0.2748  2.5216
10501SOL    HW233757   2.693   0.494   0.538 -2.1958 -0.3220  0.7117
10502SOL     OW33758  10.618   6.352   9.205  0.3155  0.4320  0.4069
10502SOL    HW133759  10.583   6.269   9.237 -1.6474  0.9530 -0.2533
10502SOL    HW233760  10.696   6.327   9.156 -0.9039 -1.1858 -0.8297
10503SOL     OW33761   8.293   4.665  10.069  0.1707 -0.1813 -0.0868
10503SOL    HW133762   8.388   4.658  10.066  0.2341  0.3157  0.6575
10503SOL    HW233763   8.274   4.750  10.027 -0.0341 -0.7897 -1.2799
10504SOL     OW33764   3.460   1.463   8.122 -0.8410  0.3150  0.7994
10504SOL    HW133765   3.404   1.447   8.046  0.7676  0.3096 -0.4499
10504SOL    HW233766   3.501   1.548   8.104 -0.8339  0.5675  1.9280
10505SOL     OW33767   9.047   4.181   6.986  0.2125  0.3533 -0.1964
10505SOL    HW133768   8.980   4.192   6.918 -0.2498 -1.3373 -0.0652
10505SOL    HW233769   9.053   4.087   6.999  0.1802  0.6013  2.2076
10506SOL     OW33770   6.388   7.102   5.921  0.4628 -0.3549 -0.1673
10506SOL    HW133771   6.385   7.081   6.014 -3.6025 -0.6514 -0.1875
10506SOL    HW233772   6.383   7.197   5.918  0.4717 -0.3528 -0.1131
10507SOL     OW33773   0.035   3.419   8.279 -0.2449 -0.0095  0.0773
10507SOL    HW133774   0.090   3.382   8.210 -0.4760 -0.2580  0.0247
10507SOL    HW233775  -0.024   3.479   8.234 -1.4281 -1.3198 -0.1628
10508SOL     OW33776   1.649   0.008   4.649  0.0991  0.4042  0.0279
10508SOL    HW133777   1.634   0.061   4.571 -0.8642  0.4602  0.2368
10508SOL    HW233778   1.587  -0.064   4.642 -0.4592  0.7654  1.0478
10509SOL     OW33779   4.627   0.031   4.021 -0.4095  0.1964  0.0437
10509SOL    HW133780   4.609  -0.005   3.935  2.3918 -0.7193 -0.2516
10509SOL    HW233781   4.551   0.006   4.074 -1.2083 -1.0673 -1.6177
10510SOL     OW33782   1.958   2.032  10.215 -0.4284 -0.1281  0.0924
10510SOL    HW133783   2.007   2.070  10.288  0.0080 -0.3928 -0.0577
10510SOL    HW233784   1.871   2.015  10.250 -0.6333  1.0164  0.1601
10511SOL     OW33785   7.982   4.516   2.850 -0.1154  0.2082 -0.5853
10511SOL    HW133786   8.007   4.493   2.940 -2.0928  1.8144  0.4671
10511SOL    HW233787   8.065   4.526   2.804  0.9402 -1.3147  0.8679
10512SOL     OW33788   6.454   2.440   4.086 -0.4709  0.0276  0.2166
10512SOL    HW133789   6.391   2.510   4.069 -2.8294 -2.0613 -0.2062
10512SOL    HW233790   6.503   2.431   4.005 -1.8550 -0.3933 -0.6058
10513SOL     OW33791   7.645   2.396  10.026 -0.1974  0.3254  0.5663
10513SOL    HW133792   7.585   2.324  10.047 -1.1905  0.7427 -0.7328
10513SOL    HW233793   7.622   2.465  10.088  0.6463 -0.3739  1.7082
10514SOL     OW33794  10.177   9.642   0.636 -0.0500  0.2804  0.0447
10514SOL    HW133795  10.248   9.592   0.595  0.5644  2.2415 -1.4609
10514SOL    HW233796  10.193   9.632   0.730  0.7518 -1.3036 -0.2186
10515SOL     OW33797   2.128   8.324   6.764  0.3599 -0.6810  0.5793
10515SOL    HW133798   2.209   8.319   6.713 -0.6380  3.1373 -1.7535
10515SOL    HW233799   2.153   8.291   6.850  3.6741 -2.0899 -0.7153
10516SOL     OW33800   6.719   6.331   2.506  0.2931  0.8582  0.0288
10516SOL    HW133801   6.627   6.315   2.487  0.2839  0.3203  0.5024
10516SOL    HW233802   6.754   6.245   2.531  1.0297  0.9647 -0.5698
10517SOL     OW33803   0.822   6.637  10.078  0.2976 -0.4225 -0.8270
10517SOL    HW133804   0.790   6.563  10.130  0.7493 -0.3661 -0.4616
10517SOL    HW233805   0.877   6.687  10.138 -2.7819  2.2552  0.0846
10518SOL     OW33806   3.206   8.891   2.805 -0.0158  0.2996 -0.2656
10518SOL    HW133807   3.301   8.898   2.811 -0.1476  0.7658  2.7720
10518SOL    HW233808   3.174   8.929   2.887 -2.8406  0.1813 -1.2077
10519SOL     OW33809   2.370   7.344   3.667  0.2462  0.0412  0.0033
10519SOL    HW133810   2.326   7.277   3.616 -0.0862 -0.1532  0.5434
10519SOL    HW233811   2.443   7.298   3.710  0.3097  0.1282 -0.0102
10520SOL     OW33812   6.113   4.408   6.382  0.9096 -0.0716 -0.4223
10520SOL    HW133813   6.066   4.449   6.308 -0.2483  0.9894  0.8500
10520SOL    HW233814   6.053   4.417   6.456  1.7476 -1.7625  0.5115
10521SOL     OW33815   6.047   2.134   0.333  0.3982 -0.3033 -0.5367
10521SOL    HW133816   5.958   2.136   0.367  0.3123  0.1166 -0.7728
10521SOL    HW233817   6.063   2.041   0.313 -0.3676 -0.2533 -1.4700
10522SOL     OW33818   1.304   3.325   3.521  0.0926  0.0497 -0.1013
10522SOL    HW133819   1.240   3.390   3.491  0.5230 -0.4850 -2.4311
10522SOL    HW233820   1.260   3.241   3.509  0.7108 -0.2443 -0.3721
10523SOL     OW33821   3.932   4.841   7.137 -0.2410 -0.4328  0.0487
10523SOL    HW133822   3.900   4.786   7.209 -0.5176 -0.6654 -0.2460
10523SOL    HW233823   3.857   4.849   7.078  0.1836 -0.8214 -0.5537
10524SOL     OW33824   1.700   8.626   6.806 -0.7901  0.2444 -0.1238
10524SOL    HW133825   1.784   8.580   6.799 -0.8007 -0.1961  1.9719
10524SOL    HW233826   1.720   8.703   6.860 -1.7579 -0.0063  0.6238
10525SOL     OW33827   6.066   5.590   6.501  0.1247  0.2403  0.4483
10525SOL    HW133828   6.033   5.605   6.413 -1.6939  0.1068  1.0661
10525SOL    HW233829   6.036   5.666   6.551  0.8918  0.1831  1.0131
10526SOL     OW33830   1.999   0.831   9.192 -0.0154  0.2260  0.0969
10526SOL    HW133831   1.995   0.786   9.107  0.3071  0.2863  0.0495
10526SOL    HW233832   2.085   0.808   9.227 -0.6310 -0.8178  0.9756
10527SOL     OW33833   5.924   4.945   1.522  0.4314 -0.0273 -0.2342
10527SOL    HW133834   5.882   5.004   1.585  1.8091 -0.4487  1.1257
10527SOL    HW233835   5.899   4.857   1.551  0.7927 -0.2173 -0.4946
10528SOL     OW33836   0.496   5.565   9.984  0.1349 -0.1820  0.0010
10528SOL    HW133837   0.528   5.626   9.918  1.2292  0.1049  0.7715
10528SOL    HW233838   0.409   5.540   9.954  0.8124 -0.4849 -1.8304
10529SOL     OW33839   2.011   9.336   9.441  0.0748  0.5071 -0.2465
10529SOL    HW133840   1.916   9.324   9.438 -0.3075  2.7222  0.9205
10529SOL    HW233841   2.028   9.408   9.380  0.8246  0.8669  0.3622
10530SOL     OW33842   7.921   9.072   3.153  0.5890  0.1130 -0.0615
10530SOL    HW133843   8.005   9.111   3.131  0.2813  0.3392 -0.8851
10530SOL    HW233844   7.913   9.082   3.248  0.9649  1.1570 -0.1283
10531SOL     OW33845   8.322   6.135   4.889 -0.0581  0.2005 -0.6369
10531SOL    HW133846   8.404   6.179   4.912  0.3278 -2.1125  3.3136
10531SOL    HW233847   8.254   6.198   4.910  0.5464 -0.1634  3.0056
10532SOL     OW33848   9.480   8.514   5.722  0.2626  0.0213  0.6960
10532SOL    HW133849   9.469   8.444   5.786 -0.1487  0.2355  0.8650
10532SOL    HW233850   9.573   8.513   5.700  0.3855 -0.1130  1.2252
10533SOL     OW33851   0.024  10.440   6.789  0.0372 -0.4557 -0.0377
10533SOL    HW133852  -0.021  10.409   6.710 -1.0590  0.0048  0.3754
10533SOL    HW233853  -0.047  10.466   6.848  0.8560 -0.0012  0.7776
10534SOL     OW33854   9.349   9.032   3.396  0.1093 -0.2131 -0.0367
10534SOL    HW133855   9.430   8.984   3.380  0.4176  0.5235 -0.7324
10534SOL    HW233856   9.364   9.119   3.358 -1.6072 -0.6029 -1.7860
10535SOL     OW33857   1.697   6.549  10.322 -0.4654 -0.2403  0.0032
10535SOL    HW133858   1.788   6.569  10.343 -1.4518  3.2864  1.6063
10535SOL    HW233859   1.682   6.463  10.361  1.0479  1.0224  3.7932
10536SOL     OW33860   9.022   1.253   6.855  0.2186  0.1192  0.5284
10536SOL    HW133861   8.935   1.241   6.818  0.4346 -1.4749  0.4861
10536SOL    HW233862   9.048   1.341   6.826 -0.7701  0.0392 -0.6958
10537SOL     OW33863   7.423   8.596   4.419 -1.1094  0.1395  0.4596
10537SOL    HW133864   7.449   8.674   4.469  0.5853 -0.8469  1.1947
10537SOL    HW233865   7.480   8.527   4.451 -2.6899 -1.4832 -0.0518
10538SOL     OW33866   2.703   2.199   1.710  0.7768 -0.2246  0.2878
10538SOL    HW133867   2.635   2.143   1.673  0.0399  1.6444 -1.3476
10538SOL    HW233868   2.765   2.211   1.638  1.2393  0.5524  0.8144
10539SOL     OW33869   1.027   1.066   3.756  0.5802  0.4871 -0.0901
10539SOL    HW133870   0.987   0.984   3.786 -0.1494  0.6618 -0.5570
10539SOL    HW233871   1.055   1.110   3.836 -0.7554  0.6524  0.3104
10540SOL     OW33872   5.900   8.585   3.206  0.0959 -0.2117 -0.5081
10540SOL    HW133873   5.822   8.613   3.158 -0.4836 -0.0542  0.4948
10540SOL    HW233874   5.957   8.662   3.205  1.0196 -0.8263 -2.6874
10541SOL     OW33875   2.787   0.971   6.969 -0.1219  0.2715 -0.3249
10541SOL    HW133876   2.795   0.933   6.882 -0.1495  1.5017 -0.8879
10541SOL    HW233877   2.876   0.996   6.993 -0.1006 -0.1453  0.0471
10542SOL     OW33878   8.210  10.417   7.631  0.0496 -0.3849  0.7119
10542SOL    HW133879   8.281  10.375   7.582  1.0747 -0.3797  2.1182
10542SOL    HW233880   8.137  10.421   7.569  1.1090 -0.8576 -0.6228
10543SOL     OW33881   5.674   2.436   3.985 -0.0717  0.8055  0.4694
10543SOL    HW133882   5.728   2.420   3.908 -1.2074 -0.4294 -0.1173
10543SOL    HW233883   5.717   2.388   4.055 -0.1660  0.1592  0.0976
10544SOL     OW33884   6.011   9.546   4.860  0.0116  0.2041  0.0432
10544SOL    HW133885   5.959   9.469   4.839  0.0337  0.4716 -1.0446
10544SOL    HW233886   5.949   9.619   4.860 -0.0228  0.1871  1.1371
10545SOL     OW33887   7.068   1.177   9.963  0.4644 -0.0305  0.1220
10545SOL    HW133888   7.066   1.084   9.938 -1.5565 -0.4991  1.7470
10545SOL    HW233889   7.080   1.223   9.880 -1.7784 -1.6507 -1.2378
10546SOL     OW33890   4.878   6.351   3.827  0.3563  0.0080 -0.0116
10546SOL    HW133891   4.812   6.344   3.758  1.5614  0.9889 -1.3192
10546SOL    HW233892   4.860   6.435   3.868 -0.3170 -0.5451  0.8618
10547SOL     OW33893   5.094   2.645   8.272 -0.6573  0.7240  0.1398
10547SOL    HW133894   5.149   2.665   8.196  1.8329 -2.3893  0.8835
10547SOL    HW233895   5.135   2.692   8.345  0.8533 -1.0876  0.5686
10548SOL     OW33896   0.885   0.335   4.337  0.2032 -0.4850 -0.7955
10548SOL    HW133897   0.840   0.403   4.288  1.1497  0.6888 -0.0821
10548SOL    HW233898   0.831   0.257   4.325 -2.0638  0.8651  0.1434
10549SOL     OW33899   3.635   3.241   8.874 -0.3835 -0.2164 -0.2307
10549SOL    HW133900   3.651   3.172   8.810 -1.5097 -0.4590 -0.2755
10549SOL    HW233901   3.631   3.195   8.958  0.7086  0.0517 -0.0116
10550SOL     OW33902   5.682   2.250   2.615 -0.1973 -0.1213  0.0920
10550SOL    HW133903   5.674   2.344   2.626  1.0207  0.0347 -0.2289
10550SOL    HW233904   5.721   2.219   2.698  0.7553 -0.1299 -0.3435
10551SOL     OW33905   2.071   7.678   2.485 -0.3553 -0.5416 -0.6301
10551SOL    HW133906   2.165   7.693   2.496 -0.8873  1.9955  1.3254
10551SOL    HW233907   2.052   7.707   2.396  0.5767 -0.4803 -0.8188
10552SOL     OW33908   4.224   5.961   5.428 -0.0401  0.3581  0.1285
10552SOL    HW133909   4.167   5.971   5.352 -0.0639  3.1927  0.4347
10552SOL    HW233910   4.195   6.029   5.489  1.7796 -0.0414  1.5329
10553SOL     OW33911   3.416   5.276   6.350  0.2774 -0.1241 -0.4390
10553SOL    HW133912   3.435   5.358   6.305  0.7214 -0.0384 -0.1004
10553SOL    HW233913   3.320   5.271   6.351  0.2573 -0.0353 -1.2168
10554SOL     OW33914   0.726   0.036   1.182 -0.4639  0.4288  0.5295
10554SOL    HW133915   0.667   0.071   1.114 -1.6223 -0.8571  0.8365
10554SOL    HW233916   0.673   0.035   1.261  1.1566  2.7979  1.7565
10555SOL     OW33917   2.265   8.633   8.395 -0.2168 -0.1364 -0.1035
10555SOL    HW133918   2.299   8.694   8.461  0.1235 -0.6871  0.2326
10555SOL    HW233919   2.237   8.690   8.323  1.6274  0.3232 -0.4998
10556SOL     OW33920   3.313   4.715   1.479 -0.3538  0.0922 -0.5589
10556SOL    HW133921   3.326   4.675   1.393 -1.4271 -1.0505 -0.2118
10556SOL    HW233922   3.378   4.672   1.535  0.7947  1.3097 -0.9189
10557SOL     OW33923   8.982   3.519   0.811 -0.5627 -0.5704 -0.5906
10557SOL    HW133924   8.989   3.436   0.765  0.1511  0.0189 -1.5885
10557SOL    HW233925   9.027   3.505   0.894  0.9872 -0.7423 -1.4132
10558SOL     OW33926   4.696   5.581   5.322 -0.0704  0.1673  0.1978
10558SOL    HW133927   4.673   5.578   5.415  1.2470 -2.0629  0.5157
10558SOL    HW233928   4.779   5.534   5.316  1.4683  2.8265 -1.7217
10559SOL     OW33929   9.368   2.776   9.901  0.3352 -0.9754  0.3409
10559SOL    HW133930   9.432   2.808   9.837 -0.7927  0.5634 -0.0613
10559SOL    HW233931   9.285   2.774   9.854 -0.4740 -0.0499  1.6581
10560SOL     OW33932   4.543   2.987   4.171 -0.1635 -0.1807 -0.3141
10560SOL    HW133933   4.533   3.081   4.159 -0.3872 -0.2081 -0.3463
10560SOL    HW233934   4.506   2.948   4.092 -0.4861 -0.3128 -0.1019
10561SOL     OW33935  10.367   1.572   2.228  0.7807  0.1875 -0.0602
10561SOL    HW133936  10.340   1.505   2.290 -1.1746 -0.1006 -1.1757
10561SOL    HW233937  10.377   1.526   2.145 -0.6471  1.2364 -0.8511
10562SOL     OW33938   1.298   5.651   0.241 -0.1051  0.2248 -0.5052
10562SOL    HW133939   1.272   5.615   0.326 -0.3881 -0.9475 -1.0636
10562SOL    HW233940   1.377   5.602   0.218  1.1145  1.8822 -0.0634
10563SOL     OW33941   4.054   9.941   7.782 -0.5758 -0.2488  0.2065
10563SOL    HW133942   3.983   9.960   7.844  0.7497  1.3779  1.3485
10563SOL    HW233943   4.090   9.857   7.812 -1.1569 -0.4138  0.4551
10564SOL     OW33944   4.824   8.710   5.499  0.3773  0.3822  0.0277
10564SOL    HW133945   4.868   8.785   5.539 -0.6152 -0.1925  2.3609
10564SOL    HW233946   4.731   8.730   5.506  0.0427 -1.5246  1.7635
10565SOL     OW33947   2.250   3.854   5.263  0.1411  0.1988  0.1003
10565SOL    HW133948   2.327   3.843   5.208  0.0441 -1.0279  0.1833
10565SOL    HW233949   2.176   3.837   5.205 -0.0156  0.2188  0.2912
10566SOL     OW33950   8.766   3.980   4.053 -0.0952 -0.4091 -0.1878
10566SOL    HW133951   8.847   4.000   4.006 -0.3622 -0.1151 -0.5288
10566SOL    HW233952   8.737   4.064   4.088 -0.2939 -0.5010 -0.1305
10567SOL     OW33953   6.904  10.574   7.933 -0.1099 -1.5608  0.3526
10567SOL    HW133954   6.882  10.566   7.840  0.4348  0.6042 -0.0140
10567SOL    HW233955   6.829  10.621   7.971  0.7848 -0.1541  0.4510
10568SOL     OW33956   1.119   7.119   4.194 -0.1681 -0.3411 -0.1553
10568SOL    HW133957   1.139   7.212   4.181  0.3700 -0.2143  1.3085
10568SOL    HW233958   1.148   7.076   4.114  3.6295  0.2137  0.7197
10569SOL     OW33959   7.412   4.035   7.649  0.2508 -0.5416  0.1216
10569SOL    HW133960   7.431   3.984   7.728 -0.9839  0.8012  1.3705
10569SOL    HW233961   7.359   3.977   7.595  0.7400 -1.3368  0.4731
10570SOL     OW33962   5.727   2.917   0.118 -0.0400 -0.1697 -0.3806
10570SOL    HW133963   5.688   2.989   0.069 -1.9548 -2.4472 -2.4497
10570SOL    HW233964   5.775   2.866   0.053  2.8819  0.1353  1.3543
10571SOL     OW33965   6.388   9.568   1.355 -0.1116 -0.4875 -0.2022
10571SOL    HW133966   6.454   9.624   1.314  0.0815  0.5327  1.4228
10571SOL    HW233967   6.304   9.603   1.324 -0.0353  1.3222  1.4309
10572SOL     OW33968   6.440   2.114   9.318  0.1370  0.0889  0.3100
10572SOL    HW133969   6.362   2.155   9.355  0.8864  2.4837 -0.5477
10572SOL    HW233970   6.501   2.187   9.306  1.5057 -1.2837 -1.5219
10573SOL     OW33971   8.437   3.967   4.327 -0.1730 -0.1633  0.1822
10573SOL    HW133972   8.529   3.978   4.302 -0.5808 -0.2208 -1.4386
10573SOL    HW233973   8.419   3.875   4.311 -0.4540 -0.2191  0.7785
10574SOL     OW33974   7.604   6.622   6.560  0.3706 -0.2142  0.1152
10574SOL    HW133975   7.530   6.573   6.525  1.6130 -1.2546 -1.2287
10574SOL    HW233976   7.659   6.556   6.603  1.1485  0.2889 -0.0715
10575SOL     OW33977   6.677   2.187   7.465 -0.1576  0.2743 -0.3454
10575SOL    HW133978   6.642   2.188   7.554 -1.2702 -0.5237 -0.7603
10575SOL    HW233979   6.730   2.108   7.460  1.5348  1.3055  0.1747
10576SOL     OW33980   4.209   8.991   8.345 -0.2567  0.5779 -0.8338
10576SOL    HW133981   4.223   8.970   8.438  1.5776  2.6833 -0.5405
10576SOL    HW233982   4.282   8.949   8.300  0.5771  2.0022 -0.8779
10577SOL     OW33983   2.399   3.573   8.250  0.6525 -0.1596 -0.6901
10577SOL    HW133984   2.402   3.664   8.282  0.3975 -0.3842 -0.0047
10577SOL    HW233985   2.306   3.557   8.235  0.7229 -0.2277 -1.0556
10578SOL     OW33986   1.592   3.850   1.989 -0.2417  0.4064  0.6395
10578SOL    HW133987   1.687   3.852   2.005 -0.3573 -2.2570  2.2556
10578SOL    HW233988   1.580   3.777   1.928 -1.1311  1.9369 -1.0982
10579SOL     OW33989   6.066   1.482   4.916  0.1709  0.3599 -0.7080
10579SOL    HW133990   6.129   1.434   4.863 -1.0436 -3.5600  1.0547
10579SOL    HW233991   6.101   1.477   5.005 -1.4560  0.1309 -0.0432
10580SOL     OW33992   2.356  10.451   3.890 -0.2248  0.5357 -0.0074
10580SOL    HW133993   2.392  10.530   3.850 -1.5987  0.8627 -0.6638
10580SOL    HW233994   2.264  10.449   3.862 -0.3805 -0.9743  0.4902
10581SOL     OW33995   7.965   9.678   3.288 -0.2492 -0.5036  0.2094
10581SOL    HW133996   7.925   9.742   3.229  0.6871  1.1523  1.3002
10581SOL    HW233997   7.976   9.599   3.234 -1.0181  0.3820 -1.3017
10582SOL     OW33998   0.910   8.015   3.163 -0.4806  0.6163  0.6667
10582SOL    HW133999   0.967   7.941   3.143 -1.5018 -0.4630  1.6121
10582SOL    HW234000   0.957   8.064   3.230 -0.0455  0.5098  0.4441
10583SOL     OW34001   8.205   9.971   2.581  0.2476 -0.4060  0.0850
10583SOL    HW134002   8.139  10.013   2.527  2.0920  2.4106 -0.2302
10583SOL    HW234003   8.202  10.018   2.664 -0.3073 -2.4534  1.2923
10584SOL     OW34004   2.970   2.287   0.564 -0.4781  0.1862 -0.4266
10584SOL    HW134005   2.897   2.326   0.612  0.5075  1.6404 -0.0443
10584SOL    HW234006   3.003   2.218   0.621 -1.0610  0.0500 -0.2545
10585SOL     OW34007   3.124  10.486   5.044 -0.7845  0.1260  0.4316
10585SOL    HW134008   3.031  10.503   5.054 -1.1397 -0.4398 -1.5405
10585SOL    HW234009   3.134  10.453   4.955  1.1212 -1.0997  1.0101
10586SOL     OW34010   1.587   3.596   2.260  0.0648  0.5593 -0.0108
10586SOL    HW134011   1.659   3.621   2.202 -0.8680  0.4770 -1.2697
10586SOL    HW234012   1.573   3.673   2.316  0.4954  0.9423 -0.4210
10587SOL     OW34013   9.547   0.357   4.579  0.6688 -0.2391  0.4799
10587SOL    HW134014   9.552   0.376   4.485 -1.2014 -0.0640  0.3837
10587SOL    HW234015   9.595   0.275   4.589 -0.0521 -0.8448 -0.8295
10588SOL     OW34016   8.197   6.172   9.883 -0.4582 -0.4001  0.3004
10588SOL    HW134017   8.139   6.104   9.919  0.3521 -0.0380  2.4933
10588SOL    HW234018   8.138   6.238   9.848 -1.2851 -1.6606 -0.7663
10589SOL     OW34019   8.384   9.912   9.127 -0.2826 -0.5693 -0.1833
10589SOL    HW134020   8.332   9.862   9.064 -0.5277 -0.4632 -0.0655
10589SOL    HW234021   8.408   9.992   9.081 -0.3508 -0.5507 -0.1860
10590SOL     OW34022   9.538   9.613   8.699  0.2611 -0.5331  0.0443
10590SOL    HW134023   9.480   9.588   8.771  1.9517 -1.9287  0.9637
10590SOL    HW234024   9.527   9.544   8.634 -0.8850  0.4668 -0.8833
10591SOL     OW34025   7.935   7.641   4.878  0.2987 -0.4273 -0.2362
10591SOL    HW134026   8.013   7.654   4.932 -0.2430  1.5193  0.1579
10591SOL    HW234027   7.962   7.669   4.790  0.0026  0.4807 -0.0484
10592SOL     OW34028   0.224   9.111   4.720 -0.1102  0.0877  0.0349
10592SOL    HW134029   0.281   9.049   4.765 -2.3777 -0.9849  1.6071
10592SOL    HW234030   0.258   9.115   4.631  1.4372 -1.6974  0.4931
10593SOL     OW34031   2.677   2.436   0.054 -0.2644 -0.0719  0.6175
10593SOL    HW134032   2.719   2.493  -0.011 -2.2809  1.2283  0.3705
10593SOL    HW234033   2.685   2.485   0.136 -1.5056  0.3273  0.5144
10594SOL     OW34034   9.200   8.058   5.062 -0.0718 -0.5692 -0.4536
10594SOL    HW134035   9.198   7.964   5.043  0.4629 -0.6656 -0.0429
10594SOL    HW234036   9.269   8.068   5.127 -1.0767 -0.0840  0.5795
10595SOL     OW34037   7.264   1.251   5.671 -0.1255 -0.2081 -0.3604
10595SOL    HW134038   7.309   1.299   5.740 -0.8643 -0.4277  0.2901
10595SOL    HW234039   7.222   1.319   5.617 -0.2085 -0.0682 -0.1203
10596SOL     OW34040   7.934   2.820   4.889 -0.6007  0.1332 -0.0554
10596SOL    HW134041   7.943   2.729   4.917  1.8496  0.2417 -0.3112
10596SOL    HW234042   7.945   2.818   4.794  0.1323  0.7556  0.0075
10597SOL     OW34043   9.825   3.268  10.373 -0.3910 -0.4218 -0.7449
10597SOL    HW134044   9.876   3.300  10.299  1.4075  0.8635  0.9100
10597SOL    HW234045   9.885   3.208  10.418 -0.1620  1.2758  1.3742
10598SOL     OW34046   5.265   0.603   2.066  0.2488 -0.2162  0.7151
10598SOL    HW134047   5.265   0.558   2.151  0.9772  0.1676  0.9221
10598SOL    HW234048   5.307   0.687   2.083 -0.1943  0.1349  0.1088
10599SOL     OW34049   5.398   1.888   5.344 -0.7320  0.1050  0.1269
10599SOL    HW134050   5.354   1.872   5.427 -2.3534 -0.8227 -0.8543
10599SOL    HW234051   5.359   1.969   5.311  0.3931  0.8408  0.5534
10600SOL     OW34052   0.221   9.915   7.114 -0.3164  0.0037  0.0211
10600SOL    HW134053   0.185   9.856   7.048 -1.1280  1.4839 -0.9063
10600SOL    HW234054   0.178   9.888   7.196 -0.7734 -0.5947 -0.4037
10601SOL     OW34055   1.793   0.758   6.267  0.2752  0.0270  0.1878
10601SOL    HW134056   1.770   0.775   6.175 -1.7803  0.2587  0.7043
10601SOL    HW234057   1.812   0.844   6.303 -0.9819  0.1968  0.4805
10602SOL     OW34058   7.913   6.973   4.903  0.2284 -0.2032 -0.5027
10602SOL    HW134059   7.906   7.068   4.896 -1.6154 -0.3681 -1.1401
10602SOL    HW234060   7.875   6.952   4.988 -0.5486 -0.4858 -0.9175
10603SOL     OW34061   4.558   3.100   1.826  0.0126  0.2152 -0.0301
10603SOL    HW134062   4.481   3.071   1.777 -0.5580  1.1482  0.2824
10603SOL    HW234063   4.538   3.191   1.849  0.5661  0.0144  1.3350
10604SOL     OW34064   6.037   9.864   3.723  0.2501  0.0272  0.1264
10604SOL    HW134065   6.066   9.870   3.813 -0.2250 -1.2818  0.3835
10604SOL    HW234066   5.966   9.800   3.724  0.8907 -0.7568 -1.3327
10605SOL     OW34067   5.227   8.083  10.220  0.5016  0.2271 -0.1450
10605SOL    HW134068   5.318   8.110  10.209  1.2150 -1.5261  0.9684
10605SOL    HW234069   5.188   8.153  10.273  1.5924  0.3553  0.5247
10606SOL     OW34070  10.269   7.441   1.364 -0.2530  0.7012 -0.1733
10606SOL    HW134071  10.245   7.531   1.339 -0.9257  0.1026 -1.8627
10606SOL    HW234072  10.316   7.408   1.287  0.3122 -0.2794  0.5805
10607SOL     OW34073   2.722   3.963   1.225  0.1087  0.1996 -0.8143
10607SOL    HW134074   2.817   3.955   1.226  0.1430  0.6344 -0.4373
10607SOL    HW234075   2.706   4.057   1.228 -0.3350  0.1235 -0.7757
10608SOL     OW34076  10.324   1.134   8.953 -0.5158  0.1507  0.1912
10608SOL    HW134077  10.381   1.165   8.883 -1.0794  0.8997  0.0576
10608SOL    HW234078  10.275   1.211   8.981 -0.9642 -0.3344  0.7800
10609SOL     OW34079   6.949   3.961   9.931 -0.0914  0.3325  0.0483
10609SOL    HW134080   6.877   3.985   9.873  0.5184  0.2236 -0.7731
10609SOL    HW234081   6.982   4.044   9.965 -0.0053  0.4486 -0.3150
10610SOL     OW34082   9.701   0.632   5.387 -0.1141 -0.1994  0.1112
10610SOL    HW134083   9.721   0.725   5.383 -1.0373 -0.0287 -1.1347
10610SOL    HW234084   9.786   0.588   5.378  0.5547  0.4744  2.3849
10611SOL     OW34085   7.284   0.898   7.405 -0.3026 -0.0872 -0.0437
10611SOL    HW134086   7.239   0.945   7.475  0.4803  1.1354 -0.3344
10611SOL    HW234087   7.375   0.897   7.431  0.1533  1.1628 -1.4274
10612SOL     OW34088   1.301   5.081   9.638 -0.2218  0.2448 -0.0434
10612SOL    HW134089   1.262   5.004   9.680 -0.1900 -1.4584 -2.8538
10612SOL    HW234090   1.385   5.093   9.684 -1.5633  0.6253  2.4995
10613SOL     OW34091   6.961   8.647   2.686  0.2682  0.5749  0.5881
10613SOL    HW134092   6.936   8.738   2.696  0.6983  0.6513  0.9588
10613SOL    HW234093   6.908   8.600   2.750 -1.4342  0.2863 -0.9236
10614SOL     OW34094   1.350   1.924   4.567  0.4815  0.0059 -0.6842
10614SOL    HW134095   1.407   1.859   4.527 -0.1592 -2.5975  2.2480
10614SOL    HW234096   1.263   1.885   4.564  0.3481 -0.2644  2.7014
10615SOL     OW34097  10.451  10.650   2.811  0.0570  0.2206 -0.7300
10615SOL    HW134098  10.444  10.574   2.869  2.5910  0.1667 -0.3677
10615SOL    HW234099  10.369  10.698   2.825 -0.1325 -0.6291  1.6881
10616SOL     OW34100   6.437   7.036   4.772  0.0428 -0.7776  0.2417
10616SOL    HW134101   6.364   7.098   4.776 -0.2340 -1.1355  1.1509
10616SOL    HW234102   6.491   7.057   4.849 -0.1452 -1.7536  0.6614
10617SOL     OW34103   2.355  10.494   9.147 -0.5358  0.2779  0.0305
10617SOL    HW134104   2.406  10.420   9.112 -3.8704 -2.2045 -0.1094
10617SOL    HW234105   2.306  10.527   9.072 -1.0715  0.8849  0.6344
10618SOL     OW34106   6.613   5.816   4.400  0.1944 -0.2916  0.7860
10618SOL    HW134107   6.610   5.891   4.460 -1.5065  0.4825 -0.1843
10618SOL    HW234108   6.522   5.805   4.372  0.9768 -0.3951 -1.9450
10619SOL     OW34109   3.186   3.649   6.785  0.0750 -0.0635  0.3758
10619SOL    HW134110   3.186   3.633   6.690 -1.1868 -0.3568  0.4054
10619SOL    HW234111   3.251   3.718   6.797 -1.2946  1.5823 -1.0246
10620SOL     OW34112   9.844   5.678   8.470  0.1097  0.0850 -0.3206
10620SOL    HW134113   9.794   5.759   8.472  0.6080  0.4151  2.0048
10620SOL    HW234114   9.935   5.707   8.482  0.4217 -0.7472 -0.6519
10621SOL     OW34115   2.974   9.976   2.543  0.2258 -0.0754 -0.0424
10621SOL    HW134116   2.940  10.063   2.521  0.7018  0.1365  0.0409
10621SOL    HW234117   2.919   9.915   2.494 -0.8248  0.2101  0.7710
10622SOL     OW34118   3.040   7.136   8.307  0.2958 -0.0720 -0.1616
10622SOL    HW134119   2.963   7.081   8.325 -0.5501  1.3801  0.9188
10622SOL    HW234120   3.059   7.121   8.215 -0.8796 -0.9945 -0.2808
10623SOL     OW34121   2.999   0.004   4.816  0.4141  0.1023  0.0957
10623SOL    HW134122   2.956   0.082   4.780  1.0154  0.3374 -0.1260
10623SOL    HW234123   2.938  -0.028   4.882 -0.4311  0.0063 -0.7109
10624SOL     OW34124   6.869   1.514  10.191  0.6177  0.2226  0.1507
10624SOL    HW134125   6.959   1.539  10.213  0.6431  0.4248 -0.1696
10624SOL    HW234126   6.818   1.533  10.269  0.9436 -0.3894  0.5232
10625SOL     OW34127   6.173   6.323   8.369 -0.3888  0.4793 -0.5061
10625SOL    HW134128   6.227   6.293   8.297  0.2602  0.4857 -0.0325
10625SOL    HW234129   6.093   6.271   8.363  0.4531 -0.9187 -0.0770
10626SOL     OW34130   1.079   0.583   4.970  0.1376 -0.2640  0.6680
10626SOL    HW134131   1.077   0.526   5.047 -0.7468  0.8736  1.5252
10626SOL    HW234132   1.159   0.635   4.981 -0.6330  0.8072  1.5569
10627SOL     OW34133   0.962   1.328   1.896  0.3883 -0.5823 -0.0340
10627SOL    HW134134   0.907   1.297   1.825 -0.0173 -2.3279  0.9817
10627SOL    HW234135   0.919   1.408   1.927 -0.4832 -0.8522 -0.5116
10628SOL     OW34136   9.732   0.954   9.385  0.5956 -0.2154  0.0635
10628SOL    HW134137   9.685   0.871   9.381 -1.3001  0.7816  0.3052
10628SOL    HW234138   9.705   1.001   9.305  1.7903  0.0956 -0.1708
10629SOL     OW34139   4.523   5.821   5.725  0.0443 -0.6147  0.1527
10629SOL    HW134140   4.577   5.799   5.801  1.1849 -2.7205 -1.1782
10629SOL    HW234141   4.585   5.854   5.660 -0.7411 -0.0343 -0.3221
10630SOL     OW34142   4.077   2.088   4.246 -0.2025 -0.8522  0.4267
10630SOL    HW134143   4.141   2.022   4.270  2.5560  0.9986 -1.2168
10630SOL    HW234144   4.059   2.072   4.153 -0.5647 -0.1440  0.3610
10631SOL     OW34145   4.483   1.530   3.810 -0.3761  0.5130  0.2846
10631SOL    HW134146   4.526   1.527   3.896 -0.1960  1.2732  0.2273
10631SOL    HW234147   4.463   1.439   3.790  1.9729  0.0172 -0.0723
10632SOL     OW34148   8.887   3.866  10.647 -0.3366  0.0425 -0.1239
10632SOL    HW134149   8.911   3.958  10.659 -0.7334  0.1677 -0.2658
10632SOL    HW234150   8.868   3.835  10.735  0.4357 -0.0857 -0.0000
10633SOL     OW34151   4.350   7.862   1.995  0.0082 -0.4710  0.0408
10633SOL    HW134152   4.445   7.854   1.997 -0.0620 -1.1597  1.3148
10633SOL    HW234153   4.327   7.844   1.904  1.1318  0.4122 -0.4519
10634SOL     OW34154   5.174   8.133   4.339 -0.0749  0.3861 -0.3276
10634SOL    HW134155   5.207   8.045   4.322  1.3697  0.2222  2.7690
10634SOL    HW234156   5.145   8.164   4.253 -0.4823 -2.9824 -1.5733
10635SOL     OW34157   4.234   8.078   0.487  0.2280  0.4028  0.1157
10635SOL    HW134158   4.159   8.044   0.439  0.7320 -0.1824 -0.2748
10635SOL    HW234159   4.308   8.026   0.456  0.8284  1.0985  0.3555
10636SOL     OW34160   0.136   0.806   7.730 -0.6251 -0.1001  0.8795
10636SOL    HW134161   0.134   0.712   7.711 -0.7925 -0.2286  1.4948
10636SOL    HW234162   0.183   0.813   7.813  0.1040  0.4419  0.4244
10637SOL     OW34163   9.037   7.424   8.980 -0.3297 -0.1450  0.1542
10637SOL    HW134164   9.082   7.340   8.988 -1.0095 -0.5043  0.3284
10637SOL    HW234165   8.972   7.409   8.912  0.8963  0.8602 -1.2901
10638SOL     OW34166   0.066   3.015   1.618 -0.1188 -0.5322  0.5731
10638SOL    HW134167   0.056   3.062   1.535  2.0310 -0.6567  0.2006
10638SOL    HW234168   0.019   2.933   1.604 -1.5556  0.3032  0.2507
10639SOL     OW34169   9.769   2.949   1.993  0.6447 -0.4250  0.2460
10639SOL    HW134170   9.751   2.856   2.008 -0.3018 -0.0811  1.4196
10639SOL    HW234171   9.865   2.956   1.998  0.7604 -1.3893 -0.2938
10640SOL     OW34172   2.364   6.035   8.488 -0.1271  0.4039  0.3590
10640SOL    HW134173   2.457   6.019   8.503  0.2958  1.6781 -0.6971
10640SOL    HW234174   2.343   5.982   8.410 -0.4754 -0.4032  0.9817
10641SOL     OW34175   5.658   2.667   1.529 -0.5811 -0.2752 -0.5548
10641SOL    HW134176   5.645   2.760   1.507 -0.3073 -0.4995 -1.7201
10641SOL    HW234177   5.633   2.620   1.449  1.0079 -1.1018 -0.6017
10642SOL     OW34178   8.742   9.871   0.430 -0.6162  0.6578 -0.1598
10642SOL    HW134179   8.782   9.957   0.416  0.0717  0.6097  1.2918
10642SOL    HW234180   8.648   9.888   0.434 -0.4247  1.5437  1.2070
10643SOL     OW34181   0.331  10.408   6.450  0.6654 -0.1667  0.1366
10643SOL    HW134182   0.252  10.462   6.456  1.1465  0.4976  0.8006
10643SOL    HW234183   0.403  10.471   6.446  1.1543 -0.7540 -0.8765
10644SOL     OW34184  10.641   8.448   8.020 -0.2773  0.4013 -0.6656
10644SOL    HW134185  10.698   8.466   7.945 -0.3635 -2.1268 -1.4197
10644SOL    HW234186  10.689   8.482   8.095  1.8130 -0.7764 -1.3886
10645SOL     OW34187   5.515   9.199   5.943  0.7112 -0.1265 -0.7309
10645SOL    HW134188   5.439   9.216   5.888  0.9648 -1.3345 -1.4819
10645SOL    HW234189   5.541   9.285   5.975 -0.7281  0.3487 -0.7737
10646SOL     OW34190   0.261  10.575   3.355 -0.0492 -0.0535 -0.0319
10646SOL    HW134191   0.278  10.583   3.261 -0.0783  0.9585  0.0431
10646SOL    HW234192   0.172  10.607   3.366 -0.3945 -1.0590  0.2207
10647SOL     OW34193   2.483   7.833   7.427 -0.2059 -0.4022  0.2818
10647SOL    HW134194   2.452   7.753   7.470  0.7560 -0.6817  0.4601
10647SOL    HW234195   2.574   7.816   7.407 -0.0521  0.5718  0.1187
10648SOL     OW34196   8.937   2.238   4.206  0.4598 -0.0619  0.4557
10648SOL    HW134197   8.863   2.236   4.146 -0.4058 -0.4919  1.4963
10648SOL    HW234198   8.988   2.314   4.179 -1.6265  1.7152  1.1778
10649SOL     OW34199   0.256   8.146   8.650  0.1361  0.5251 -0.1020
10649SOL    HW134200   0.226   8.217   8.708  0.8544  0.8230 -0.0846
10649SOL    HW234201   0.209   8.162   8.567 -0.4107  0.4687  0.1914
10650SOL     OW34202   3.209   0.155   6.556 -0.2035 -0.7341 -0.0332
10650SOL    HW134203   3.115   0.169   6.557 -0.7744 -3.7934  1.1035
10650SOL    HW234204   3.223   0.086   6.491  1.2570 -0.3700 -0.1536
10651SOL     OW34205   3.324   4.005  10.057  0.0165  0.0799  0.2055
10651SOL    HW134206   3.419   4.010  10.050  0.2229 -1.2215  1.4734
10651SOL    HW234207   3.305   3.911  10.062 -1.6457  0.0967 -3.0099
10652SOL     OW34208   4.321   1.469  10.080 -0.1006 -0.0060 -0.5375
10652SOL    HW134209   4.314   1.432  10.168 -1.0492 -0.2930 -0.7143
10652SOL    HW234210   4.341   1.394  10.024 -3.6902 -0.7348 -1.1488
10653SOL     OW34211   9.169   4.835   5.303 -0.4445 -0.2875  0.0271
10653SOL    HW134212   9.209   4.844   5.389 -0.1334 -2.0540  0.1000
10653SOL    HW234213   9.102   4.767   5.314 -0.3029 -0.6483 -1.1477
10654SOL     OW34214   5.779   3.067   4.921 -0.3435  0.2542 -0.9164
10654SOL    HW134215   5.830   3.096   4.846 -0.6321  1.1526 -0.7697
10654SOL    HW234216   5.787   2.971   4.919  1.1306  0.3528 -1.0397
10655SOL     OW34217   1.927   8.232   8.592  0.1149 -0.3112 -0.2152
10655SOL    HW134218   1.892   8.182   8.519  1.4266 -2.7819  0.7372
10655SOL    HW234219   2.004   8.276   8.556  0.1945 -0.7230 -0.5587
10656SOL     OW34220   0.373   0.371   0.898 -0.4458 -0.3208  0.4240
10656SOL    HW134221   0.445   0.425   0.931 -1.8966  0.5347  2.4062
10656SOL    HW234222   0.341   0.418   0.821 -0.6571  0.8014  1.1779
10657SOL     OW34223   8.548   7.616   4.167 -0.5630  0.0863 -0.8599
10657SOL    HW134224   8.478   7.578   4.219  0.0754 -0.1429 -0.1324
10657SOL    HW234225   8.548   7.568   4.085 -0.9719 -0.2074 -0.6863
10658SOL     OW34226  10.060   1.389   5.693  0.5097  0.4366  0.0921
10658SOL    HW134227  10.116   1.314   5.714  1.7813  0.7841 -1.7896
10658SOL    HW234228  10.096   1.424   5.611 -1.8857  1.2914 -0.6910
10659SOL     OW34229   0.645   0.399   6.599 -0.2853 -0.0291 -0.1665
10659SOL    HW134230   0.591   0.328   6.565 -1.1351  1.1275 -1.3409
10659SOL    HW234231   0.729   0.358   6.620 -0.9526 -1.4797 -0.2035
10660SOL     OW34232  10.238   1.830   8.330 -0.0572  0.1523 -0.6944
10660SOL    HW134233  10.308   1.785   8.377 -1.0064  1.0717  1.7459
10660SOL    HW234234  10.217   1.771   8.257  0.6362 -2.0255  0.7610
10661SOL     OW34235   6.267  10.142   3.851  0.3255 -0.0338  0.3096
10661SOL    HW134236   6.286  10.050   3.834 -1.5868 -0.3456 -0.3901
10661SOL    HW234237   6.262  10.148   3.947  0.2749 -0.6898  0.3532
10662SOL     OW34238   6.347   0.070   1.002  0.5524  0.7446  0.1230
10662SOL    HW134239   6.425   0.017   1.015 -0.7835 -1.2312  0.4989
10662SOL    HW234240   6.329   0.108   1.088 -1.5371 -2.7208  1.4118
10663SOL     OW34241   5.541   1.724   2.172  0.2818  0.7286  0.2486
10663SOL    HW134242   5.636   1.722   2.185  0.3272  0.3601 -0.1450
10663SOL    HW234243   5.526   1.799   2.115  0.2337  1.3942  1.1058
10664SOL     OW34244  10.490   8.361   7.665 -0.1914 -0.1033 -0.0418
10664SOL    HW134245  10.465   8.387   7.577  0.9657  1.3313  0.0179
10664SOL    HW234246  10.426   8.294   7.690 -2.1508  1.3314 -0.9674
10665SOL     OW34247  10.060   2.417   8.069  0.4644 -0.0952 -0.1866
10665SOL    HW134248  10.078   2.511   8.060  2.8536 -0.5564 -0.9448
10665SOL    HW234249  10.007   2.411   8.149  0.0598  1.8958 -0.2403
10666SOL     OW34250  10.516   1.844   4.863 -0.6175  0.2895  0.2318
10666SOL    HW134251  10.516   1.896   4.783 -1.9024  0.0465  0.0553
10666SOL    HW234252  10.563   1.764   4.839  0.1402  0.7565  0.1105
10667SOL     OW34253   1.640   4.587   9.347 -0.2784  0.3088  0.7253
10667SOL    HW134254   1.730   4.579   9.316 -0.5454  0.4906 -0.1320
10667SOL    HW234255   1.641   4.550   9.435  0.4912 -0.3278  0.4587
10668SOL     OW34256   3.941   2.476   0.049 -0.4209 -0.2096 -0.0408
10668SOL    HW134257   3.961   2.420  -0.026  0.3692  0.0235 -0.0135
10668SOL    HW234258   3.871   2.534   0.018 -1.3963 -1.3317 -0.0010
10669SOL     OW34259   3.218   1.710   0.242 -0.0107 -0.0883  1.4125
10669SOL    HW134260   3.236   1.634   0.297  2.3130 -0.7390 -0.0896
10669SOL    HW234261   3.267   1.782   0.283  0.7241 -0.2827  0.8913
10670SOL     OW34262   6.125   3.406   3.421  0.8396  0.2618  0.2912
10670SOL    HW134263   6.191   3.476   3.419  2.5156 -1.2206 -2.7322
10670SOL    HW234264   6.076   3.418   3.339 -0.3967 -0.7435  0.8580
10671SOL     OW34265   3.612   8.241   3.409 -0.5574 -0.4691 -0.2104
10671SOL    HW134266   3.557   8.279   3.340  0.0829 -0.0998 -0.5368
10671SOL    HW234267   3.695   8.223   3.365 -0.0344  0.0514  0.5320
10672SOL     OW34268   3.776   9.474   8.774 -0.2098  0.8960  0.1846
10672SOL    HW134269   3.737   9.391   8.799 -0.4735  1.2349  0.9051
10672SOL    HW234270   3.856   9.480   8.826  0.9217  0.1502 -1.3611
10673SOL     OW34271   2.361   5.608   1.792 -0.1117 -0.2390  0.3447
10673SOL    HW134272   2.273   5.644   1.804 -0.1256 -0.1012 -0.1674
10673SOL    HW234273   2.353   5.548   1.718  0.1391 -0.5297  0.5479
10674SOL     OW34274   4.992   9.302   3.437  0.2908 -0.1406  0.1977
10674SOL    HW134275   4.989   9.246   3.359  0.5086 -1.4887  1.1292
10674SOL    HW234276   4.909   9.286   3.482 -0.1879  1.2450 -0.1374
10675SOL     OW34277   0.887   6.143   3.900 -0.4181 -0.2436 -0.4436
10675SOL    HW134278   0.914   6.175   3.814 -2.4283  0.6744 -0.8066
10675SOL    HW234279   0.817   6.203   3.927  0.8002  0.0803  2.3117
10676SOL     OW34280   9.463   4.006   6.421  0.0462  0.0771 -0.6827
10676SOL    HW134281   9.465   4.101   6.424 -0.5785  0.0985 -0.8721
10676SOL    HW234282   9.454   3.985   6.328 -3.1348 -0.0815 -0.4369
10677SOL     OW34283   0.242   9.680   3.195  0.2715 -0.4978  0.2986
10677SOL    HW134284   0.168   9.664   3.253  0.5399  1.1248  1.1675
10677SOL    HW234285   0.319   9.666   3.250  0.5295  0.8842  0.3376
10678SOL     OW34286   6.692   2.402   4.255 -0.7490 -0.1656 -0.0682
10678SOL    HW134287   6.691   2.440   4.343  1.9977  0.2028 -0.1139
10678SOL    HW234288   6.620   2.446   4.210 -2.1698 -0.2941  1.9196
10679SOL     OW34289   8.403   6.073   9.010 -0.5441  0.0303  0.4008
10679SOL    HW134290   8.359   6.001   8.965 -1.4678 -1.4989  3.4324
10679SOL    HW234291   8.492   6.073   8.976 -1.7440  0.7868 -3.2216
10680SOL     OW34292   7.995  10.172   9.642  0.2860 -0.0926 -0.1525
10680SOL    HW134293   7.951  10.169   9.727  0.0702 -1.5211 -0.2898
10680SOL    HW234294   7.997  10.081   9.613 -0.3614  0.4510 -2.0571
10681SOL     OW34295   8.790   9.801   7.088 -0.2144 -0.3484 -0.7112
10681SOL    HW134296   8.814   9.860   7.159 -1.8015  0.9942 -1.2337
10681SOL    HW234297   8.874   9.770   7.053  0.7988  2.9549 -1.5348
10682SOL     OW34298  10.478   9.045   6.876 -0.1381  0.2148 -0.3577
10682SOL    HW134299  10.432   9.028   6.958  1.0362 -1.5104 -0.0057
10682SOL    HW234300  10.440   9.128   6.844 -1.6033  0.2011  1.1874
10683SOL     OW34301   6.096   4.803   7.594 -0.0122  0.7128 -0.6062
10683SOL    HW134302   6.119   4.728   7.649 -0.2766 -1.2571 -3.0085
10683SOL    HW234303   6.165   4.868   7.612 -0.0173  0.1198  1.8484
10684SOL     OW34304   7.675   1.721   4.951 -0.0999 -0.3671 -0.1428
10684SOL    HW134305   7.741   1.691   5.013  0.6684  0.9839 -0.2617
10684SOL    HW234306   7.619   1.779   5.002 -0.1455 -0.1433 -0.4451
10685SOL     OW34307   2.869   3.208   8.473 -0.1364  0.3552 -0.2752
10685SOL    HW134308   2.957   3.204   8.437  0.8755  1.5691  1.8860
10685SOL    HW234309   2.853   3.120   8.506  0.3116  0.1522 -0.5901
10686SOL     OW34310   7.336   0.735   6.316 -0.2249 -0.6799 -0.1730
10686SOL    HW134311   7.322   0.723   6.222  0.2534 -0.1277 -0.3261
10686SOL    HW234312   7.405   0.673   6.338  0.4493 -0.0394 -0.4281
10687SOL     OW34313   2.429   7.398   6.728 -0.0985 -0.2363 -0.3116
10687SOL    HW134314   2.496   7.331   6.714 -2.9441 -3.2323 -0.9721
10687SOL    HW234315   2.400   7.422   6.640 -0.0752  0.8642 -0.0316
10688SOL     OW34316   1.442   3.110   3.608 -0.6996  0.3746 -0.3104
10688SOL    HW134317   1.404   3.191   3.575 -1.3310 -0.0452 -0.6447
10688SOL    HW234318   1.494   3.076   3.535 -0.9845  0.1392 -0.4058
10689SOL     OW34319   2.320   4.258  10.019 -0.0363  0.6897 -0.3073
10689SOL    HW134320   2.307   4.172  10.059 -2.0572  1.0810 -0.0478
10689SOL    HW234321   2.365   4.239   9.937 -0.7992 -0.6744 -0.4379
10690SOL     OW34322   5.833   7.400   5.540  0.4329  0.0047 -0.3795
10690SOL    HW134323   5.778   7.367   5.469 -0.5348 -1.5692  1.0119
10690SOL    HW234324   5.812   7.493   5.545 -0.5512 -0.1472 -1.2491
10691SOL     OW34325   7.015   8.089   8.622 -0.2593 -0.1460 -0.6043
10691SOL    HW134326   6.982   8.118   8.707 -1.3185 -0.5023 -0.8763
10691SOL    HW234327   7.043   8.170   8.578 -1.7836  0.3359 -0.7702
10692SOL     OW34328   8.702   9.857   7.820 -0.0627  0.2682 -0.4093
10692SOL    HW134329   8.776   9.859   7.880 -0.2909  1.1869 -0.1434
10692SOL    HW234330   8.647   9.932   7.846 -0.3136  0.5136 -1.5634
10693SOL     OW34331   1.097   3.789   9.677  0.1357 -0.0233 -0.4816
10693SOL    HW134332   1.092   3.779   9.772  1.3818 -0.4520 -0.4513
10693SOL    HW234333   1.152   3.865   9.663 -0.5589  0.4226 -0.8680
10694SOL     OW34334   6.795   4.759   4.695  0.4870  0.1299 -0.3998
10694SOL    HW134335   6.871   4.814   4.713  0.4009  0.1140  0.0188
10694SOL    HW234336   6.830   4.685   4.645  0.7918 -0.0047  0.0035
10695SOL     OW34337   9.205   6.743   8.746 -0.7885  0.1762  0.1370
10695SOL    HW134338   9.141   6.815   8.745 -1.6163 -0.5332 -1.0112
10695SOL    HW234339   9.167   6.678   8.804 -0.8046  0.0258 -0.0404
10696SOL     OW34340   5.802  10.155   1.364 -0.4092 -0.3255 -0.3025
10696SOL    HW134341   5.740  10.227   1.360  0.7312  0.7996  1.3927
10696SOL    HW234342   5.765  10.095   1.429 -0.1096 -0.0308  0.1417
10697SOL     OW34343   8.009   0.201   8.607 -0.0743  0.0657  0.2698
10697SOL    HW134344   7.995   0.294   8.592 -1.8028  0.3524  2.8517
10697SOL    HW234345   8.087   0.196   8.662  0.4011 -0.0853 -0.4098
10698SOL     OW34346   5.643   9.195   5.658 -0.2058 -0.6718 -0.4898
10698SOL    HW134347   5.630   9.159   5.746  1.0555 -3.0455 -1.2073
10698SOL    HW234348   5.721   9.150   5.625  0.5191  1.6085 -2.1204
10699SOL     OW34349   9.330   9.806   5.322  0.3560  0.1998 -0.1147
10699SOL    HW134350   9.403   9.789   5.261 -0.3329 -3.6263 -0.1320
10699SOL    HW234351   9.252   9.808   5.266  0.1134  1.3279  0.2299
10700SOL     OW34352   1.794   8.701   9.142 -0.2878  0.5324 -0.1707
10700SOL    HW134353   1.721   8.749   9.102  0.0470  1.7842  0.6622
10700SOL    HW234354   1.844   8.768   9.189  0.0455 -0.6775  1.2860
10701SOL     OW34355   7.009   0.550   5.986 -0.3940  0.0417  0.2687
10701SOL    HW134356   6.990   0.526   5.895  0.3755 -0.0913  0.1345
10701SOL    HW234357   6.925   0.577   6.022 -0.3899  1.9761 -1.0567
10702SOL     OW34358   3.320   1.399   7.378 -0.1720 -0.1449  0.7400
10702SOL    HW134359   3.373   1.321   7.393 -0.7275 -0.4121  1.3942
10702SOL    HW234360   3.378   1.460   7.333  0.0704 -1.1882 -0.4059
10703SOL     OW34361   5.781   5.604   8.766  0.0946 -0.3167 -0.5397
10703SOL    HW134362   5.872   5.594   8.793 -0.4100 -0.0345  1.4220
10703SOL    HW234363   5.743   5.517   8.777 -0.0192 -0.2923 -0.7424
10704SOL     OW34364   0.831   7.748   5.251 -0.1468 -0.1800  0.3828
10704SOL    HW134365   0.781   7.782   5.326 -0.6708  0.7954 -0.3730
10704SOL    HW234366   0.790   7.790   5.175  3.4575  2.9449 -0.1653
10705SOL     OW34367   5.704   8.026   5.733  0.3108 -0.4890  0.1631
10705SOL    HW134368   5.731   7.955   5.792 -2.0219 -0.4385  1.3984
10705SOL    HW234369   5.644   7.984   5.671 -1.8586  0.4557  1.4918
10706SOL     OW34370   1.181   3.542   2.561 -0.1924 -0.3111 -0.9477
10706SOL    HW134371   1.113   3.572   2.501 -0.3309 -0.9968 -1.1357
10706SOL    HW234372   1.134   3.512   2.638 -0.1702 -1.4845 -1.3692
10707SOL     OW34373   2.539   8.727   9.791 -0.1296  0.1501  0.0849
10707SOL    HW134374   2.473   8.714   9.860 -0.2994 -0.6821 -0.2143
10707SOL    HW234375   2.510   8.669   9.720  0.4311  0.4669 -0.4031
10708SOL     OW34376   6.297   4.505   9.507  0.1909 -0.0516 -0.7067
10708SOL    HW134377   6.228   4.442   9.484  0.3327  0.1131 -1.6494
10708SOL    HW234378   6.378   4.455   9.502  0.2999  0.1742 -1.4146
10709SOL     OW34379   7.742   1.865   9.125  0.0208  0.0843 -0.4173
10709SOL    HW134380   7.656   1.897   9.100 -0.1305  0.3706  0.4276
10709SOL    HW234381   7.731   1.771   9.135 -0.4857  0.2599  0.7963
10710SOL     OW34382   6.396   6.694   5.489  0.1108 -0.2188 -0.1301
10710SOL    HW134383   6.406   6.742   5.407  0.6990 -0.7857 -0.3912
10710SOL    HW234384   6.458   6.736   5.549 -1.3602  1.1628  0.4846
10711SOL     OW34385   9.487   6.872   7.772  0.0938 -0.2243 -0.1180
10711SOL    HW134386   9.571   6.894   7.812 -0.3765  1.3601  0.0833
10711SOL    HW234387   9.468   6.945   7.713 -0.2504 -1.4843 -1.6448
10712SOL     OW34388   7.609   6.564   2.134  0.3988  0.3420  0.2666
10712SOL    HW134389   7.653   6.515   2.064  0.7320 -0.1711  0.8262
10712SOL    HW234390   7.665   6.640   2.149  1.4214 -0.5990  1.3635
10713SOL     OW34391   2.411   5.832   6.231  0.1763 -0.4112  0.1525
10713SOL    HW134392   2.398   5.740   6.209  0.1168 -0.9076  2.0363
10713SOL    HW234393   2.414   5.877   6.147  0.2588 -2.1321 -0.8151
10714SOL     OW34394   3.855   4.965   5.089 -0.0126  0.1718  0.4882
10714SOL    HW134395   3.834   5.057   5.071  1.9196  0.5222 -0.1804
10714SOL    HW234396   3.791   4.916   5.038  0.6288  1.1781 -1.4112
10715SOL     OW34397  10.241   4.245   9.121 -0.4864 -0.4050 -0.7957
10715SOL    HW134398  10.165   4.279   9.074  0.1450 -1.2908 -2.5494
10715SOL    HW234399  10.232   4.150   9.115 -0.4470 -0.5711  1.0672
10716SOL     OW34400   7.479   3.860   0.228 -0.0238 -0.3215  0.4321
10716SOL    HW134401   7.400   3.893   0.271  0.2640  0.5002  0.3506
10716SOL    HW234402   7.480   3.905   0.143  2.0372  1.9921  1.5447
10717SOL     OW34403   6.628   7.175   2.401 -0.4744 -0.2747 -0.5074
10717SOL    HW134404   6.540   7.192   2.435 -0.7980 -0.2322 -1.3205
10717SOL    HW234405   6.670   7.261   2.399 -0.5553 -0.2348 -0.4713
10718SOL     OW34406   1.513   4.501   5.751  0.2191  0.2100  0.3636
10718SOL    HW134407   1.558   4.504   5.836 -0.1374 -1.6860  0.6737
10718SOL    HW234408   1.420   4.505   5.774  0.1539  2.0377 -0.1290
10719SOL     OW34409   1.250   3.363   7.661 -0.0188 -0.1227 -0.2539
10719SOL    HW134410   1.304   3.362   7.582 -1.0997 -0.8507 -1.0247
10719SOL    HW234411   1.225   3.272   7.674  0.2676 -0.0345  1.0391
10720SOL     OW34412   2.432  10.618   3.481  0.3958 -0.0865 -0.4195
10720SOL    HW134413   2.435  10.661   3.567 -1.1594 -1.1118  0.1878
10720SOL    HW234414   2.520  10.631   3.445  1.1381  0.2518  1.3872
10721SOL     OW34415   2.535   8.354   4.997 -0.5578  0.1174 -0.4574
10721SOL    HW134416   2.475   8.426   4.978 -1.4863 -0.3358  0.6001
10721SOL    HW234417   2.622   8.389   4.980 -0.7181  2.4064  2.5488
10722SOL     OW34418   4.978   3.243   1.805  0.0590  0.1454 -0.4839
10722SOL    HW134419   4.939   3.260   1.891 -0.4060 -1.0951 -0.4334
10722SOL    HW234420   4.964   3.324   1.756 -2.4963 -0.1811 -0.4314
10723SOL     OW34421   3.662   4.136   0.526 -0.0738 -0.3252 -0.0267
10723SOL    HW134422   3.710   4.129   0.608 -0.9828  1.0559  0.6663
10723SOL    HW234423   3.587   4.192   0.547  0.1674  0.8531 -2.0069
10724SOL     OW34424   5.317   4.922   8.092 -0.3829  0.2162 -0.2430
10724SOL    HW134425   5.310   4.832   8.125 -1.3327 -0.5969 -2.4857
10724SOL    HW234426   5.234   4.964   8.117 -0.0534  0.3972  0.5641
10725SOL     OW34427   1.818   0.097   0.122  0.3007 -0.0640 -0.0570
10725SOL    HW134428   1.729   0.079   0.091  0.5283 -0.1424 -0.6856
10725SOL    HW234429   1.843   0.018   0.170  0.1841 -0.2201 -0.2479
10726SOL     OW34430   0.615  10.349   0.350  0.1603 -0.0775 -0.2162
10726SOL    HW134431   0.527  10.385   0.353 -0.1299 -0.8184  0.8694
10726SOL    HW234432   0.662  10.395   0.421  0.8699  0.8214 -1.2332
10727SOL     OW34433   9.538   4.335   1.578  0.3000  0.3557  0.3496
10727SOL    HW134434   9.558   4.321   1.670 -0.7017 -0.7185  0.4162
10727SOL    HW234435   9.455   4.383   1.578  0.1013  0.0242  0.0148
10728SOL     OW34436   0.252   0.611   0.757  0.1064 -0.4756  0.4781
10728SOL    HW134437   0.203   0.669   0.699  3.4018  0.7763 -1.3644
10728SOL    HW234438   0.257   0.658   0.840  1.2598  1.2075 -0.4695
10729SOL     OW34439   1.217   0.651   2.403  0.3372  0.8510 -0.3885
10729SOL    HW134440   1.293   0.621   2.454 -0.5552 -1.5442 -0.3300
10729SOL    HW234441   1.157   0.687   2.469 -0.3403 -1.2172  0.2110
10730SOL     OW34442   3.321   0.490   2.681 -0.1887  0.0424  0.7502
10730SOL    HW134443   3.285   0.567   2.725  0.1020  1.0906 -0.7903
10730SOL    HW234444   3.301   0.503   2.589  1.8378 -0.6241  0.1731
10731SOL     OW34445   3.640   2.523   1.664 -0.1277 -0.0445 -0.4845
10731SOL    HW134446   3.580   2.501   1.593 -0.2960  0.9149 -0.6526
10731SOL    HW234447   3.710   2.459   1.656  0.4588  0.7386 -2.2730
10732SOL     OW34448   8.411   4.061   4.816 -0.0659 -0.1405  0.0801
10732SOL    HW134449   8.446   3.972   4.819  0.6924  0.1657  0.6332
10732SOL    HW234450   8.354   4.062   4.739 -1.2187 -1.5194  0.8469
10733SOL     OW34451   9.812   4.499   8.036  0.1770  0.0755  0.3061
10733SOL    HW134452   9.738   4.448   8.002  0.5522 -0.2830  0.0156
10733SOL    HW234453   9.888   4.463   7.992  0.3233  1.7703 -0.9440
10734SOL     OW34454   2.714   1.526   1.865  0.2948 -0.3174  0.2088
10734SOL    HW134455   2.788   1.493   1.815  1.8050  1.0765  1.4167
10734SOL    HW234456   2.641   1.468   1.842  1.9452 -2.2600 -0.3675
10735SOL     OW34457   8.872   0.108   2.513  0.1004 -0.0154 -0.1983
10735SOL    HW134458   8.915   0.116   2.427 -0.7568 -0.1596 -0.6577
10735SOL    HW234459   8.884   0.194   2.554  0.0032  0.2493 -0.7124
10736SOL     OW34460   6.009   8.161   5.781 -0.3126  0.1538 -0.0757
10736SOL    HW134461   5.965   8.095   5.834 -0.4343  1.7101  1.8972
10736SOL    HW234462   5.954   8.239   5.790  0.0836  0.7062 -1.9202
10737SOL     OW34463  10.166   0.359   1.968 -0.1316 -0.4823 -0.3576
10737SOL    HW134464  10.103   0.328   2.033  1.6313 -3.3378  0.1861
10737SOL    HW234465  10.236   0.399   2.020 -0.8778  1.6814 -0.8937
10738SOL     OW34466   0.547   1.113   3.108  0.1123 -0.0272 -0.0698
10738SOL    HW134467   0.572   1.062   3.030 -0.9424 -1.0306  0.2269
10738SOL    HW234468   0.496   1.187   3.073 -2.3710 -1.7023 -0.2660
10739SOL     OW34469   1.118   0.237   3.780  0.0653 -0.6515 -0.5062
10739SOL    HW134470   1.035   0.272   3.748  0.5410  2.3600  1.1540
10739SOL    HW234471   1.183   0.267   3.716  0.1735 -0.8593 -0.4940
10740SOL     OW34472  10.300   3.785   2.172 -0.5654  0.1345  0.0790
10740SOL    HW134473  10.390   3.782   2.140 -0.9431  1.7170 -1.2728
10740SOL    HW234474  10.254   3.840   2.108 -1.7227  2.1943  2.5190
10741SOL     OW34475   4.084   2.340   5.361  0.4453 -0.4353  0.7153
10741SOL    HW134476   3.998   2.333   5.402  0.4521 -1.5223  0.5951
10741SOL    HW234477   4.086   2.268   5.297  0.5226  1.0782 -1.0543
10742SOL     OW34478  10.281   0.957   7.873  0.2067 -0.2889 -0.6070
10742SOL    HW134479  10.260   0.871   7.910  0.9940 -0.1915  0.1121
10742SOL    HW234480  10.254   0.952   7.782 -3.0843 -0.0921  0.2399
10743SOL     OW34481   9.072  10.580   8.839 -0.1435 -0.2561 -0.0140
10743SOL    HW134482   9.020  10.516   8.790 -0.0122  0.7639 -1.5462
10743SOL    HW234483   9.007  10.635   8.884 -0.2795 -0.8807  0.5633
10744SOL     OW34484   1.245   0.095   3.430  0.2189  0.4772 -0.3109
10744SOL    HW134485   1.205   0.045   3.501  0.5498 -0.0678 -0.5027
10744SOL    HW234486   1.180   0.093   3.360  0.4007 -0.0418 -0.4678
10745SOL     OW34487   0.176   5.142   4.608 -0.0002  0.2373 -0.0303
10745SOL    HW134488   0.168   5.162   4.515 -1.0662 -1.6900 -0.4091
10745SOL    HW234489   0.105   5.192   4.650  0.1213  0.6597 -0.3268
10746SOL     OW34490   7.654   7.105   7.889 -0.0559 -0.4690 -0.1471
10746SOL    HW134491   7.641   7.199   7.880 -1.7835 -0.6390  0.1533
10746SOL    HW234492   7.742   7.089   7.857 -0.0790  1.1261 -1.0889
10747SOL     OW34493   7.091   4.234   6.244  0.3797  0.2514 -0.5218
10747SOL    HW134494   7.067   4.326   6.243 -1.7000 -0.0288  3.6572
10747SOL    HW234495   7.179   4.231   6.280  0.0183  0.5748  0.3951
10748SOL     OW34496   0.978   8.546   7.460  0.2139  0.2209  0.2218
10748SOL    HW134497   0.927   8.623   7.434  1.2055  1.0379  0.6286
10748SOL    HW234498   1.050   8.581   7.512  1.6365 -0.8169 -0.9562
10749SOL     OW34499   0.299   1.957   2.398  0.3930 -0.6106 -0.3491
10749SOL    HW134500   0.330   1.901   2.326  3.0851 -1.1044  1.1105
10749SOL    HW234501   0.312   1.905   2.477  1.2108  1.3625  0.8870
10750SOL     OW34502   0.413   7.524   4.062 -0.2705  0.5800  0.6369
10750SOL    HW134503   0.362   7.478   3.995 -1.5394  2.1220  0.4865
10750SOL    HW234504   0.429   7.611   4.024 -3.1623  2.4129  3.2209
10751SOL     OW34505   3.790   1.828  10.013 -0.0903 -0.0668 -0.6907
10751SOL    HW134506   3.762   1.770  10.084 -0.4801  0.4290 -0.4296
10751SOL    HW234507   3.883   1.843  10.030 -0.6115  1.7648  1.0056
10752SOL     OW34508   8.920   4.498  10.547  0.4703 -0.3908  0.4340
10752SOL    HW134509   9.012   4.496  10.520 -0.0518 -0.6154 -1.5373
10752SOL    HW234510   8.899   4.406  10.565  0.7035 -0.3023  1.1631
10753SOL     OW34511   7.727   4.353   0.077  0.2644  0.1247 -0.4104
10753SOL    HW134512   7.777   4.295   0.020  0.6656  1.6361 -1.6529
10753SOL    HW234513   7.636   4.328   0.064  0.5378 -1.5373  0.6034
10754SOL     OW34514   3.718   3.984   9.655 -0.8220 -0.0109  0.7920
10754SOL    HW134515   3.768   3.916   9.609 -1.1341 -0.1552  0.6610
10754SOL    HW234516   3.769   4.003   9.733 -1.4151 -1.4069  1.5650
10755SOL     OW34517   1.100   2.487   8.512 -0.4671  0.2454 -0.0903
10755SOL    HW134518   1.135   2.515   8.597 -1.2980  1.2780 -0.0688
10755SOL    HW234519   1.175   2.446   8.469  0.1627  0.3454  0.8570
10756SOL     OW34520   6.184   3.384   1.092 -0.1117  0.2328 -0.0680
10756SOL    HW134521   6.163   3.293   1.069  1.5659 -0.3353  0.4847
10756SOL    HW234522   6.164   3.434   1.013  2.8310 -1.2570 -1.9348
10757SOL     OW34523   8.523   8.266   6.962 -0.2465  0.3614 -0.1334
10757SOL    HW134524   8.554   8.311   7.041  1.9200  1.5909 -1.6028
10757SOL    HW234525   8.445   8.316   6.936 -2.5769 -1.5421  2.4606
10758SOL     OW34526   4.481  10.595   4.533  0.4971  0.3125  0.2871
10758SOL    HW134527   4.392  10.576   4.504  0.4429  0.8650  0.0695
10758SOL    HW234528   4.510  10.665   4.475  0.2297  1.7586  1.8062
10759SOL     OW34529   5.243   4.755   9.043 -0.1635  0.1232  0.0440
10759SOL    HW134530   5.203   4.714   8.966 -1.6943  0.9588  0.3474
10759SOL    HW234531   5.189   4.726   9.116  0.1072  0.8646  0.5509
10760SOL     OW34532   9.541   5.123   9.614 -0.0095 -0.1266 -0.1738
10760SOL    HW134533   9.485   5.168   9.678  0.1617  0.4145 -0.4014
10760SOL    HW234534   9.511   5.154   9.529 -0.1444 -0.7433 -0.3560
10761SOL     OW34535   4.669   7.404   7.305 -0.2010  0.1245  0.0626
10761SOL    HW134536   4.718   7.431   7.227 -1.3195 -1.0059 -1.0879
10761SOL    HW234537   4.584   7.448   7.297 -0.5510 -0.4805  0.3053
10762SOL     OW34538  10.288   3.825   0.376 -0.5220 -0.2032 -0.1695
10762SOL    HW134539  10.380   3.823   0.350 -0.8298  0.1530 -1.3629
10762SOL    HW234540  10.241   3.848   0.296 -1.4555  1.8731  0.8910
10763SOL     OW34541  10.301   0.885   3.571  0.0604 -0.2571  0.1661
10763SOL    HW134542  10.386   0.894   3.527 -0.0320  0.4874  0.1319
10763SOL    HW234543  10.255   0.819   3.519 -0.2878  1.0484 -1.2716
10764SOL     OW34544   6.070  10.624   0.677  0.1370 -0.1248 -0.2391
10764SOL    HW134545   6.157  10.601   0.644  0.6407 -1.3961  1.8024
10764SOL    HW234546   6.015  10.549   0.655 -0.3966  0.5400 -1.2391
10765SOL     OW34547   0.294   3.620   7.446  0.5796  0.5065  0.2868
10765SOL    HW134548   0.341   3.547   7.487  1.2768  1.4970  1.2996
10765SOL    HW234549   0.354   3.653   7.380 -0.0352 -0.2804 -0.6932
10766SOL     OW34550   2.642   7.286   5.019  0.1946 -0.5018 -0.1666
10766SOL    HW134551   2.552   7.270   4.990  0.5572  0.1235 -1.7547
10766SOL    HW234552   2.693   7.291   4.938  1.6493 -0.7140  0.6935
10767SOL     OW34553   4.501   2.828   6.669 -0.4068 -0.2092  0.3994
10767SOL    HW134554   4.435   2.761   6.689 -0.6982 -0.2168 -0.5400
10767SOL    HW234555   4.573   2.779   6.629 -0.8040  0.0760 -0.6979
10768SOL     OW34556   9.286   0.804   5.579  0.7082  0.0725  0.7307
10768SOL    HW134557   9.278   0.780   5.672 -1.0230 -1.4912  0.2416
10768SOL    HW234558   9.249   0.892   5.574 -1.5707 -0.7960  1.1847
10769SOL     OW34559   7.220  10.074   6.770  0.4177 -0.4020  0.4792
10769SOL    HW134560   7.245  10.062   6.678  2.9567 -0.2166  1.0719
10769SOL    HW234561   7.169  10.155   6.771  0.6338 -0.2283 -0.7255
10770SOL     OW34562   3.283   5.819   2.815  0.2736 -0.3033  0.0233
10770SOL    HW134563   3.320   5.778   2.737  0.6086 -0.5084  0.2914
10770SOL    HW234564   3.319   5.770   2.888  0.6542  0.4406  0.3513
10771SOL     OW34565   0.830   3.281   6.550  0.1629  0.0857 -0.1570
10771SOL    HW134566   0.888   3.334   6.605 -0.4254  1.1683 -0.5443
10771SOL    HW234567   0.781   3.345   6.498  2.1754 -0.8951 -3.5583
10772SOL     OW34568   4.166   4.915   3.946 -0.2466  0.6471  0.1543
10772SOL    HW134569   4.258   4.940   3.938 -0.4666  2.7483  2.5566
10772SOL    HW234570   4.165   4.852   4.018 -0.5315 -0.9352 -1.1787
10773SOL     OW34571   4.680   9.515  10.097 -0.4734  0.0804  0.1264
10773SOL    HW134572   4.680   9.607  10.071  0.0803  0.3101  0.9170
10773SOL    HW234573   4.641   9.469  10.022  0.4469  0.8035 -0.8278
10774SOL     OW34574   3.750   0.568   5.258  0.2779 -0.5690  0.2015
10774SOL    HW134575   3.765   0.474   5.261  1.1178 -0.4208  1.2541
10774SOL    HW234576   3.835   0.607   5.278 -0.2009  0.4034  0.4193
10775SOL     OW34577  10.642   1.741   8.183  0.0080  0.5245  0.4763
10775SOL    HW134578  10.552   1.710   8.193 -0.5734  2.2798  1.0171
10775SOL    HW234579  10.641   1.789   8.100  0.3935  0.7153  0.5827
10776SOL     OW34580   1.802   5.444   6.163 -0.0598  0.0450  0.4454
10776SOL    HW134581   1.786   5.391   6.085  0.7625 -0.5312  0.6481
10776SOL    HW234582   1.878   5.498   6.139  0.1468 -0.0790  0.8119
10777SOL     OW34583   2.815   5.253   9.442  0.0069  0.1460 -0.0290
10777SOL    HW134584   2.862   5.173   9.469 -0.1264  0.0680 -0.0287
10777SOL    HW234585   2.723   5.228   9.444 -0.0622  0.4429  0.4335
10778SOL     OW34586   5.683   2.579   6.429  0.1630  0.1025 -0.0729
10778SOL    HW134587   5.768   2.593   6.470  1.0128 -2.9378 -0.4847
10778SOL    HW234588   5.678   2.645   6.361  1.3278  1.5433  1.1658
10779SOL     OW34589   8.249   5.082  10.479  0.1929  0.2926 -0.1130
10779SOL    HW134590   8.306   5.050  10.409  2.9585  1.6837  1.3125
10779SOL    HW234591   8.190   5.009  10.497  0.3823 -0.6412 -2.8249
10780SOL     OW34592   5.133   0.914   2.716  0.6835 -0.1029  0.5111
10780SOL    HW134593   5.066   0.869   2.767 -1.5894 -1.8894 -3.5357
10780SOL    HW234594   5.095   1.000   2.697  0.3470 -0.4083 -0.2303
10781SOL     OW34595   3.283   2.917   0.067 -0.2184  0.6595 -0.1996
10781SOL    HW134596   3.244   2.890  -0.017 -0.1186  0.3147 -0.1351
10781SOL    HW234597   3.260   2.847   0.128 -0.7302  1.1607  0.1871
10782SOL     OW34598   6.429   4.496   7.041 -0.5420 -0.1908 -0.5089
10782SOL    HW134599   6.413   4.405   7.067  1.0072  0.3606  3.0141
10782SOL    HW234600   6.342   4.535   7.037 -1.1123 -1.3099  0.3900
10783SOL     OW34601   8.426   7.482   4.936 -0.0217  0.7711 -0.0630
10783SOL    HW134602   8.475   7.485   5.018 -0.9582  0.0530  0.5472
10783SOL    HW234603   8.413   7.389   4.919 -2.3789  0.9205  0.5701
10784SOL     OW34604   0.065   4.007   7.410 -0.0259 -0.8841  0.0814
10784SOL    HW134605   0.019   4.044   7.485 -0.2293 -1.4675  0.2435
10784SOL    HW234606   0.131   4.073   7.388 -1.5800  0.4720 -0.7969
10785SOL     OW34607   6.732   8.115  10.203  0.7973  0.0244  0.4944
10785SOL    HW134608   6.823   8.117  10.233  0.2582 -0.1866  2.2573
10785SOL    HW234609   6.696   8.199  10.231  0.4839  0.1694 -0.3276
10786SOL     OW34610   1.001   6.368   9.855 -0.5630 -0.0027 -0.5072
10786SOL    HW134611   1.053   6.303   9.808  1.5591 -0.1250  1.7731
10786SOL    HW234612   0.935   6.316   9.903 -0.1892 -0.2844 -0.2911
10787SOL     OW34613   1.083   8.289   1.024 -0.6010 -0.0955 -0.3810
10787SOL    HW134614   1.030   8.368   1.014  1.5833  1.2844 -1.8197
10787SOL    HW234615   1.111   8.291   1.116  0.5563  1.6277 -0.7215
10788SOL     OW34616  10.206   2.144   7.105  0.2416 -0.1096 -0.2870
10788SOL    HW134617  10.178   2.117   7.193  0.6380 -1.2005 -0.4861
10788SOL    HW234618  10.296   2.175   7.117  0.9875 -2.0281 -0.5893
10789SOL     OW34619   0.753   6.962   0.421 -0.4988 -0.0757  0.1255
10789SOL    HW134620   0.811   6.935   0.492 -0.1178 -1.6214 -0.7195
10789SOL    HW234621   0.671   6.985   0.464  0.1888  0.4721  1.1816
10790SOL     OW34622  10.182   1.252  10.489 -0.5188  0.1600  0.2748
10790SOL    HW134623  10.093   1.236  10.521 -0.6172  1.9072  0.9468
10790SOL    HW234624  10.187   1.201  10.408 -2.9339  1.7297 -1.0077
10791SOL     OW34625   4.073   9.091   8.129 -0.6633  0.1851  0.1262
10791SOL    HW134626   4.131   9.037   8.075 -2.3809 -1.8199  0.1775
10791SOL    HW234627   4.102   9.075   8.219 -1.0961 -0.6022  0.1334
10792SOL     OW34628  10.202   5.459   3.926 -0.5309  0.6760 -0.2260
10792SOL    HW134629  10.206   5.540   3.876  0.3966  0.1031 -1.0940
10792SOL    HW234630  10.266   5.470   3.996 -0.8659  0.9328  0.0482
10793SOL     OW34631   9.419   2.849   3.773 -0.0085  0.4871 -0.0858
10793SOL    HW134632   9.482   2.782   3.746  1.1063  1.1162  0.8251
10793SOL    HW234633   9.433   2.858   3.867 -2.4064 -0.2620  0.4136
10794SOL     OW34634   0.492   0.650   8.601 -0.0708  0.2501 -0.6333
10794SOL    HW134635   0.512   0.564   8.564  0.5327 -0.3927  1.0586
10794SOL    HW234636   0.407   0.639   8.644 -0.2195  0.6493 -0.8171
10795SOL     OW34637   7.203   1.373   9.027  0.0149 -0.2446  0.2284
10795SOL    HW134638   7.108   1.381   9.034 -0.1094 -1.4393  0.2318
10795SOL    HW234639   7.238   1.448   9.074 -0.9277  1.3768 -1.5337
10796SOL     OW34640   5.212   7.776   4.514  0.6823 -0.4774  0.1807
10796SOL    HW134641   5.273   7.813   4.450  1.3943 -1.5367  0.2136
10796SOL    HW234642   5.153   7.721   4.462 -0.0128  0.2341  0.1998
10797SOL     OW34643   9.309   2.651   8.219 -0.6125  0.0973 -0.2108
10797SOL    HW134644   9.360   2.722   8.258  0.1691  0.2360 -1.4585
10797SOL    HW234645   9.258   2.616   8.293  0.9613  0.2212  1.0036
10798SOL     OW34646   8.190   9.190   3.107  0.0390  0.2434 -0.2959
10798SOL    HW134647   8.238   9.254   3.055 -0.1578  0.6085 -0.0335
10798SOL    HW234648   8.252   9.165   3.176 -1.0817  2.9878  1.9061
10799SOL     OW34649  10.585  10.283   7.237  0.3935 -0.9729 -0.0042
10799SOL    HW134650  10.573  10.372   7.204  0.2807 -1.0123 -0.0711
10799SOL    HW234651  10.523  10.276   7.310  1.6202 -0.4338  1.1168
10800SOL     OW34652   3.276   3.131   6.751 -0.1647 -0.0859  0.4620
10800SOL    HW134653   3.340   3.105   6.685  0.4647  0.4282  0.8484
10800SOL    HW234654   3.194   3.138   6.704  0.3984  0.9333 -0.4265
10801SOL     OW34655   8.313   6.193   4.167 -0.3852 -0.1077 -0.3679
10801SOL    HW134656   8.233   6.158   4.127 -1.4804  0.7958  0.9601
10801SOL    HW234657   8.293   6.285   4.185  0.5858 -0.1104  0.8840
10802SOL     OW34658   8.730   8.170   6.769 -0.2813  0.3050 -0.4250
10802SOL    HW134659   8.750   8.259   6.739  0.9793 -0.1082 -0.9017
10802SOL    HW234660   8.668   8.182   6.841 -0.2662  1.5619 -0.5986
10803SOL     OW34661   4.282   9.737  10.341  0.0573  0.1820  0.4350
10803SOL    HW134662   4.326   9.653  10.333  1.7528  1.1315 -0.9769
10803SOL    HW234663   4.189   9.717  10.340  0.4323 -1.6891  0.5868
10804SOL     OW34664   1.614   7.700   3.851  0.3180 -0.3204 -0.5061
10804SOL    HW134665   1.590   7.607   3.855  0.6894 -0.4516 -1.2150
10804SOL    HW234666   1.574   7.738   3.930  0.4231 -1.1357 -0.0441
10805SOL     OW34667   0.937   2.244   8.505  0.1422  0.0370 -0.5402
10805SOL    HW134668   0.978   2.330   8.504 -1.6375  0.9421 -1.9722
10805SOL    HW234669   0.861   2.254   8.562  0.4762 -0.8924  0.0893
10806SOL     OW34670   6.106   9.320   4.318  0.0066 -0.3577  0.3769
10806SOL    HW134671   6.028   9.272   4.345 -0.6542  0.5475  0.1078
10806SOL    HW234672   6.167   9.252   4.290 -0.6500 -1.0805  0.6712
10807SOL     OW34673   4.408   9.107   1.149  0.5601 -0.5369  0.0250
10807SOL    HW134674   4.333   9.121   1.091 -0.0030  0.9979  1.0670
10807SOL    HW234675   4.484   9.114   1.092 -0.0265 -0.5202 -0.7751
10808SOL     OW34676   9.820   0.814   1.389 -0.4741  0.2033 -0.1654
10808SOL    HW134677   9.868   0.732   1.388 -1.1684 -0.2074 -0.0595
10808SOL    HW234678   9.887   0.881   1.376  0.1732 -0.3356  0.3331
10809SOL     OW34679   1.588   3.540   5.062 -0.7596  0.6696  0.0068
10809SOL    HW134680   1.598   3.633   5.041  3.1815  0.7899  1.4811
10809SOL    HW234681   1.662   3.498   5.018 -0.5597 -1.2227  1.9829
10810SOL     OW34682   1.907   6.724   7.099 -0.0309  0.4456  0.6361
10810SOL    HW134683   1.962   6.785   7.147  0.6455  1.0376 -0.8320
10810SOL    HW234684   1.968   6.659   7.064 -0.2309  1.0257 -0.8876
10811SOL     OW34685   2.280   2.121   6.811  0.3649 -0.1432  0.4010
10811SOL    HW134686   2.210   2.110   6.876 -0.6145  0.0519 -0.5817
10811SOL    HW234687   2.263   2.207   6.772  1.5835  0.2157  0.6238
10812SOL     OW34688   4.535   8.791   6.631  0.0701  0.2878 -0.1027
10812SOL    HW134689   4.497   8.820   6.548  1.6448  0.9065 -0.6449
10812SOL    HW234690   4.609   8.850   6.645  0.4491 -0.4686  1.2227
10813SOL     OW34691   3.497   2.979  10.230  0.1733  0.7720  0.0542
10813SOL    HW134692   3.557   2.905  10.240 -0.9860 -0.5255 -2.0314
10813SOL    HW234693   3.432   2.967  10.299  0.3923  0.2552  0.1745
10814SOL     OW34694   4.955   9.183   0.461  0.3015  0.3320  0.1406
10814SOL    HW134695   5.020   9.247   0.431  0.6665 -0.5913 -1.0849
10814SOL    HW234696   4.991   9.150   0.543  1.5652 -0.3900 -0.6693
10815SOL     OW34697  10.272   7.232   9.710  0.5635 -0.4656 -0.2256
10815SOL    HW134698  10.363   7.244   9.682  1.0939 -0.0771  1.5074
10815SOL    HW234699  10.229   7.314   9.687  0.1356 -1.2709 -2.6455
10816SOL     OW34700   6.754   3.757   8.240  0.6859 -0.3199  0.0002
10816SOL    HW134701   6.787   3.839   8.277 -0.9728  0.0386  0.7545
10816SOL    HW234702   6.718   3.709   8.314  0.2222 -1.0404 -0.6764
10817SOL     OW34703   6.243   0.848   0.266  0.0200  0.2119 -0.1927
10817SOL    HW134704   6.174   0.896   0.311  1.1798  1.1041  0.7274
10817SOL    HW234705   6.198   0.784   0.212 -1.4858  0.2792  0.9352
10818SOL     OW34706   3.536   2.030   3.608 -0.0227  0.0500 -0.2723
10818SOL    HW134707   3.480   2.106   3.625  1.0045  0.6979  0.2790
10818SOL    HW234708   3.602   2.032   3.677 -0.5187 -1.9138  0.3518
10819SOL     OW34709   6.963   8.846   2.444  0.2230 -0.0164  0.3331
10819SOL    HW134710   7.035   8.818   2.387  0.5601  3.3998 -1.1774
10819SOL    HW234711   6.885   8.841   2.389 -0.2915 -1.0945  1.1151
10820SOL     OW34712   1.227   6.530   9.093 -0.1231  0.2100 -0.3126
10820SOL    HW134713   1.140   6.560   9.118 -0.4095 -0.6375 -0.2487
10820SOL    HW234714   1.214   6.492   9.006 -0.2834 -1.8643  0.5597
10821SOL     OW34715   7.104  10.534   8.129  0.0340 -0.0989 -0.2113
10821SOL    HW134716   7.121  10.624   8.157 -1.3442  0.2461 -0.3972
10821SOL    HW234717   7.020  10.539   8.083  0.5389 -1.2700 -1.3183
10822SOL     OW34718   3.412   7.120   6.879 -0.1212  0.1642 -0.2827
10822SOL    HW134719   3.495   7.079   6.905 -0.1941  0.2800  0.1403
10822SOL    HW234720   3.402   7.193   6.940 -0.9849 -0.3884  0.2448
10823SOL     OW34721   8.074  10.628   1.636 -0.0633  0.5972  0.0694
10823SOL    HW134722   8.134  10.563   1.673 -2.3187 -1.1256  1.0069
10823SOL    HW234723   8.130  10.693   1.594  2.3868 -1.0704  0.5746
10824SOL     OW34724   6.604   7.601   5.548 -0.6875  0.4109 -0.1506
10824SOL    HW134725   6.591   7.512   5.579  0.0173  0.7437  1.1828
10824SOL    HW234726   6.517   7.632   5.525 -1.0656 -0.3006  0.2995
10825SOL     OW34727  10.640   3.789   3.165  0.1654 -0.0685  0.5147
10825SOL    HW134728  10.699   3.740   3.108  0.5450  0.2941  0.5903
10825SOL    HW234729  10.680   3.784   3.252  1.3007  2.0088  0.1956
10826SOL     OW34730   9.487   4.558   2.110 -0.0956  0.2860  0.0104
10826SOL    HW134731   9.499   4.635   2.165  1.6949  0.1716 -0.1703
10826SOL    HW234732   9.411   4.514   2.147 -0.3967  1.4863  0.8769
10827SOL     OW34733   8.168   9.005   5.858  0.8155  0.1724 -0.0289
10827SOL    HW134734   8.205   9.068   5.796 -0.2406  0.2747 -0.5859
10827SOL    HW234735   8.244   8.960   5.895  1.4943  0.4757 -1.0091
10828SOL     OW34736   3.713   4.960   2.847  0.2156  0.2907  0.3823
10828SOL    HW134737   3.627   4.918   2.846  0.2284  0.2385 -1.0240
10828SOL    HW234738   3.767   4.903   2.901 -0.1048 -0.8386 -0.4405
10829SOL     OW34739  10.585   5.358   5.418  0.4482  0.3804  0.3294
10829SOL    HW134740  10.617   5.281   5.370  0.6400  0.9094 -0.4086
10829SOL    HW234741  10.612   5.343   5.508  1.3533  0.0495  0.0103
10830SOL     OW34742   6.669   7.784   3.758  0.2714 -0.1687 -0.1983
10830SOL    HW134743   6.654   7.879   3.753 -1.0037 -0.3461 -0.0560
10830SOL    HW234744   6.692   7.758   3.669  0.8161  0.2979 -0.1981
10831SOL     OW34745   8.441   0.441   2.597 -0.5335 -0.0264 -0.4947
10831SOL    HW134746   8.347   0.446   2.615 -0.6939  0.8673 -1.4962
10831SOL    HW234747   8.480   0.412   2.680 -1.6119  0.2772  0.1344
10832SOL     OW34748   8.834   1.203   5.280 -0.0335  0.3987 -0.4336
10832SOL    HW134749   8.841   1.166   5.368 -1.3831 -0.7042 -0.7697
10832SOL    HW234750   8.866   1.134   5.222  0.4399  0.9574 -0.8469
10833SOL     OW34751   5.635   2.158   4.029  0.1833  0.2423  0.3346
10833SOL    HW134752   5.583   2.078   4.037  0.1701  0.0622 -1.2695
10833SOL    HW234753   5.658   2.163   3.936  2.1946  0.8606  0.8071
10834SOL     OW34754   6.541  10.277   7.276 -0.1306  0.0646  0.2111
10834SOL    HW134755   6.581  10.291   7.190 -0.2121  1.5550  0.3954
10834SOL    HW234756   6.598  10.212   7.318 -1.5935 -2.8373 -1.9242
10835SOL     OW34757   8.731   0.620   7.791  0.2329  0.3029  0.1717
10835SOL    HW134758   8.654   0.676   7.785  0.2067  0.3890  1.1104
10835SOL    HW234759   8.707   0.553   7.855  0.2150 -0.8815 -1.0248
10836SOL     OW34760   8.680   2.931   5.141 -0.2020 -0.3676  0.8133
10836SOL    HW134761   8.617   2.910   5.210  0.1102  0.7339  1.4547
10836SOL    HW234762   8.715   3.017   5.165  2.5957 -1.5008  1.2785
10837SOL     OW34763   5.182   8.883   0.622  0.1219 -0.1042 -0.0299
10837SOL    HW134764   5.138   8.858   0.540 -0.0189  0.2791 -0.0763
10837SOL    HW234765   5.127   8.954   0.657  1.5426  1.4840 -0.8771
10838SOL     OW34766   8.668   1.995   1.850  0.0656 -0.5895 -0.1062
10838SOL    HW134767   8.740   1.954   1.899 -0.4143 -0.1893  0.9711
10838SOL    HW234768   8.591   1.979   1.904 -0.3081  0.8150 -0.1853
10839SOL     OW34769   6.004   6.679   6.996  0.1033 -0.1687 -0.4245
10839SOL    HW134770   6.087   6.720   6.971 -1.4666  2.2760 -2.0359
10839SOL    HW234771   5.993   6.608   6.933 -0.9163  2.1532 -3.0792
10840SOL     OW34772  10.020   9.926   3.514 -0.1388  0.5368 -0.1182
10840SOL    HW134773  10.019   9.840   3.557 -1.6042  0.7193  0.2703
10840SOL    HW234774  10.038   9.907   3.422  0.6266 -0.0722  0.1443
10841SOL     OW34775   1.096   4.211   0.080 -0.0632 -0.0486 -0.0433
10841SOL    HW134776   1.005   4.182   0.080 -0.0514 -0.1005 -0.5181
10841SOL    HW234777   1.130   4.182  -0.005 -0.2167  1.8500 -0.8008
10842SOL     OW34778   5.085   7.313   8.986  0.0636 -0.9084 -0.4799
10842SOL    HW134779   5.133   7.291   8.906 -0.1380 -1.4596 -0.4540
10842SOL    HW234780   5.111   7.246   9.048 -0.1111 -0.7315 -0.2154
10843SOL     OW34781   0.990   0.330  10.347  0.5483  0.0342 -0.2590
10843SOL    HW134782   0.974   0.305  10.438 -0.8360  0.6834 -0.3019
10843SOL    HW234783   1.081   0.359  10.346  0.3682  0.7314  1.1053
10844SOL     OW34784   0.809   5.056   4.242  0.2379 -0.4777  0.0517
10844SOL    HW134785   0.862   5.010   4.307  1.0560 -0.7503 -0.8035
10844SOL    HW234786   0.719   5.030   4.263  0.5084 -0.7289  0.9397
10845SOL     OW34787  10.493   6.579   0.334  0.3892  0.2180 -0.1624
10845SOL    HW134788  10.480   6.517   0.406  0.9009  0.2657 -0.0225
10845SOL    HW234789  10.578   6.556   0.297  0.9979  1.3695  0.4457
10846SOL     OW34790   7.286   2.942   9.584 -0.8049 -0.4268 -0.0361
10846SOL    HW134791   7.307   2.849   9.580 -1.1238 -0.4652 -1.9232
10846SOL    HW234792   7.191   2.945   9.596 -0.7908 -0.3405  0.0598
10847SOL     OW34793   2.249   4.718   8.101 -0.3319 -0.5523 -0.4488
10847SOL    HW134794   2.284   4.700   8.188 -0.2829 -0.1565 -0.3830
10847SOL    HW234795   2.289   4.652   8.045  1.5390  0.6452 -0.6147
10848SOL     OW34796   8.806   6.235   8.526 -0.0076 -0.7683  0.3420
10848SOL    HW134797   8.780   6.315   8.480  0.8474 -0.9381 -0.4928
10848SOL    HW234798   8.860   6.266   8.599 -0.7297 -0.5326  0.7863
10849SOL     OW34799   1.417   4.273   4.807 -0.3372 -0.3983 -1.1275
10849SOL    HW134800   1.495   4.254   4.859 -1.6706  0.2246  1.2451
10849SOL    HW234801   1.423   4.367   4.788 -0.5102 -0.3566 -0.9703
10850SOL     OW34802   1.777   7.266   9.468  0.4042 -0.0183  0.2537
10850SOL    HW134803   1.852   7.261   9.527  2.1160 -1.4181 -1.8667
10850SOL    HW234804   1.723   7.190   9.491 -0.1765  0.7527  1.5074
10851SOL     OW34805   1.539   3.004   8.672  0.0196  0.0039  0.3475
10851SOL    HW134806   1.499   3.085   8.640  1.1426  1.3194  2.1086
10851SOL    HW234807   1.528   2.942   8.600  0.0149  2.0013 -1.4644
10852SOL     OW34808   2.964  10.233   6.223  0.1634 -0.2815  0.2468
10852SOL    HW134809   2.964  10.190   6.137 -0.9136 -0.7056  0.4433
10852SOL    HW234810   2.871  10.246   6.243  0.4046  2.3585  0.0898
10853SOL     OW34811   3.539   7.168   9.910  0.1917  0.4931  0.0119
10853SOL    HW134812   3.443   7.163   9.910  0.1954  0.4217  0.0898
10853SOL    HW234813   3.557   7.262   9.898  0.0964  0.6627  1.0771
10854SOL     OW34814   6.522   9.000   2.508 -0.2793  0.5739 -0.0498
10854SOL    HW134815   6.428   9.005   2.491 -0.3886  0.7742  0.5820
10854SOL    HW234816   6.544   8.907   2.496 -0.6530  0.4414  0.2799
10855SOL     OW34817   7.004   3.212   2.578 -0.6034 -0.4735 -0.1708
10855SOL    HW134818   7.096   3.227   2.559 -0.6521  2.3927  1.2900
10855SOL    HW234819   7.003   3.134   2.633  1.2791  0.7146  1.6766
10856SOL     OW34820   2.344   6.172   5.270 -0.1633 -0.5462 -0.2958
10856SOL    HW134821   2.437   6.178   5.293  0.2923 -0.2679 -2.0670
10856SOL    HW234822   2.340   6.100   5.207 -1.1928 -0.6679 -0.1048
10857SOL     OW34823   2.093   3.484   6.020  0.1793  0.2108  0.2678
10857SOL    HW134824   2.040   3.416   6.062  0.4246  0.6177  1.2513
10857SOL    HW234825   2.059   3.566   6.053  0.4960  0.5385 -0.1970
10858SOL     OW34826   8.391   6.553   0.207  0.1526  0.1070  0.6715
10858SOL    HW134827   8.451   6.541   0.134  2.2382 -1.0675  2.4502
10858SOL    HW234828   8.410   6.480   0.266 -2.3214  0.2942  1.8358
10859SOL     OW34829   6.178   2.827   8.879  0.2537  0.4302 -0.4312
10859SOL    HW134830   6.082   2.827   8.878  0.2211  1.0305  0.5173
10859SOL    HW234831   6.200   2.839   8.972  1.2491  0.1467 -0.6253
10860SOL     OW34832   9.211  10.481   0.647  0.1381  0.0318 -0.0075
10860SOL    HW134833   9.173  10.409   0.598 -0.1251  0.2977 -0.1982
10860SOL    HW234834   9.258  10.439   0.719 -0.1842 -0.3173 -0.0002
10861SOL     OW34835   5.960   6.270   7.002  0.5279  0.2315 -0.7314
10861SOL    HW134836   5.926   6.326   6.932  0.1027  1.2151  0.2398
10861SOL    HW234837   5.889   6.267   7.066  0.2154 -2.0718 -1.0814
10862SOL     OW34838   1.166  10.226   4.317 -0.3783 -0.1453 -0.5089
10862SOL    HW134839   1.162  10.319   4.297 -0.1479  0.0217  0.2151
10862SOL    HW234840   1.085  10.190   4.281 -1.2485  0.6154  0.6254
10863SOL     OW34841   1.636   0.248   6.816 -0.0766 -0.2930 -0.1068
10863SOL    HW134842   1.624   0.338   6.784 -0.0959 -0.9601 -2.0642
10863SOL    HW234843   1.716   0.218   6.775 -0.5966 -1.5067 -0.2654
10864SOL     OW34844   7.483   6.000   3.551 -0.0448  0.2003  0.1505
10864SOL    HW134845   7.499   5.985   3.458  0.8556 -2.8074  0.6706
10864SOL    HW234846   7.557   6.054   3.579  0.3935  0.0392 -0.6478
10865SOL     OW34847   1.271   7.381   1.332 -0.5205  0.7716 -0.4965
10865SOL    HW134848   1.266   7.291   1.301 -0.8095  0.2117  1.1071
10865SOL    HW234849   1.337   7.422   1.276 -0.2452 -0.4902 -1.1121
10866SOL     OW34850   4.232   7.103   5.044 -0.3973  0.3690 -0.1888
10866SOL    HW134851   4.245   7.098   5.138 -1.5492 -0.1755 -0.0371
10866SOL    HW234852   4.295   7.042   5.007  0.7774  1.3373  0.1294
10867SOL     OW34853   3.301   2.680   6.404  0.2930  0.1918 -0.6715
10867SOL    HW134854   3.247   2.716   6.474  0.9339  0.3733 -0.2592
10867SOL    HW234855   3.324   2.592   6.434 -1.5739 -0.7491 -1.8432
10868SOL     OW34856   4.977   0.781   6.699  0.0647  0.0514  0.0454
10868SOL    HW134857   4.924   0.834   6.757 -0.2654  0.1903 -0.3784
10868SOL    HW234858   4.920   0.708   6.674  0.3222 -0.1977  0.1703
10869SOL     OW34859   2.578   8.677   2.130 -0.9031 -0.5413  0.3122
10869SOL    HW134860   2.517   8.742   2.095  0.2623 -0.0919 -0.9975
10869SOL    HW234861   2.653   8.728   2.160 -0.3702 -1.2013  0.1261
10870SOL     OW34862   7.212   0.457   9.522 -0.4169 -0.0268 -0.0877
10870SOL    HW134863   7.262   0.474   9.442 -1.6682 -0.8123 -1.0763
10870SOL    HW234864   7.138   0.519   9.517 -0.1138  0.4208  0.8392
10871SOL     OW34865   7.743   6.435   2.890 -0.0112  0.4696  0.5033
10871SOL    HW134866   7.672   6.492   2.860 -0.0839  1.7213  2.7735
10871SOL    HW234867   7.782   6.400   2.810 -2.3826  0.7262 -0.8478
10872SOL     OW34868   7.395   3.395   3.965  0.4923  0.4038 -0.0565
10872SOL    HW134869   7.465   3.329   3.971  0.4017  0.3966  1.3400
10872SOL    HW234870   7.379   3.420   4.056 -0.8026  0.9658 -0.4274
10873SOL     OW34871   3.915   9.292   6.363  0.2913 -0.3013 -0.7150
10873SOL    HW134872   3.958   9.327   6.285 -0.6495  0.6177 -0.8321
10873SOL    HW234873   3.840   9.349   6.377  0.3026 -0.6000  0.7261
10874SOL     OW34874   5.925   7.221   3.038  0.5471  0.4205 -0.1739
10874SOL    HW134875   5.852   7.280   3.057  0.2840  0.2112 -0.5088
10874SOL    HW234876   6.003   7.275   3.046  0.3196  0.7694 -0.3021
10875SOL     OW34877   3.948   3.059   6.876  0.2301  0.0281 -0.5156
10875SOL    HW134878   4.018   3.000   6.906 -0.0643 -0.3325 -0.5337
10875SOL    HW234879   3.985   3.146   6.887  0.3995 -0.1266  0.1940
10876SOL     OW34880   4.974   5.376   5.951  0.1283  0.6322  0.6116
10876SOL    HW134881   5.010   5.289   5.934 -0.5624  0.4075  0.2287
10876SOL    HW234882   5.044   5.436   5.928 -0.2005  0.2773 -1.6094
10877SOL     OW34883   3.676   7.829   1.178 -0.1836  0.2047  0.7768
10877SOL    HW134884   3.753   7.846   1.231 -0.0091  2.5350 -0.1038
10877SOL    HW234885   3.602   7.859   1.231 -0.3424 -0.4094  0.9214
10878SOL     OW34886  10.418   0.466   3.164  0.0543  0.2393  0.1984
10878SOL    HW134887  10.507   0.497   3.147 -0.3108  1.4895  0.4532
10878SOL    HW234888  10.363   0.542   3.149 -1.0313 -0.6218 -0.3423
10879SOL     OW34889   5.706   9.285   3.165  0.2781 -0.3263  0.1499
10879SOL    HW134890   5.706   9.199   3.207 -3.1027  0.6312  2.5735
10879SOL    HW234891   5.731   9.346   3.234  1.2652  0.8088 -1.1572
10880SOL     OW34892   3.970   0.205   1.198 -0.1858 -0.1104  0.3382
10880SOL    HW134893   4.009   0.287   1.167 -1.4787 -0.5288 -2.7692
10880SOL    HW234894   3.880   0.208   1.166 -0.2816 -2.7101  0.1716
10881SOL     OW34895   3.598   2.424   3.213  0.0077  0.1133 -0.2369
10881SOL    HW134896   3.548   2.502   3.237  1.3388  0.6698  0.9009
10881SOL    HW234897   3.687   2.457   3.199  0.4447 -1.1073 -0.4084
10882SOL     OW34898   6.673   0.480   5.563 -0.1382 -0.4245 -0.2714
10882SOL    HW134899   6.673   0.393   5.523  1.1148 -0.3681 -0.4419
10882SOL    HW234900   6.673   0.540   5.489 -0.0278 -0.2935 -0.1659
10883SOL     OW34901   1.118   6.204   0.359  0.6933  0.3478  0.5335
10883SOL    HW134902   1.166   6.265   0.416 -0.0970  2.1461 -0.6473
10883SOL    HW234903   1.027   6.215   0.384  0.4811  0.0980 -0.1172
10884SOL     OW34904   6.230   3.340   5.146 -0.3722 -0.3216  0.1644
10884SOL    HW134905   6.283   3.364   5.222 -0.7725 -2.3154  1.1183
10884SOL    HW234906   6.230   3.245   5.145 -0.3491 -0.3453 -2.3931
10885SOL     OW34907   8.355   7.415   6.082  0.1127 -0.1742 -0.2361
10885SOL    HW134908   8.320   7.330   6.056  1.4039 -0.8092  0.0292
10885SOL    HW234909   8.382   7.456   5.999  0.1138 -0.3039 -0.2995
10886SOL     OW34910   6.926  10.139   2.602  0.2383 -0.1263 -0.7298
10886SOL    HW134911   6.898  10.124   2.512 -1.7146  0.2282 -0.2318
10886SOL    HW234912   6.920  10.233   2.615 -2.1122 -0.3519  0.4798
10887SOL     OW34913  10.508   5.248   6.006  0.2014  0.6105 -0.7491
10887SOL    HW134914  10.455   5.249   5.926  0.6250  2.9987 -1.0843
10887SOL    HW234915  10.542   5.337   6.013  1.0860  0.1619  1.5181
10888SOL     OW34916   9.977   5.890   1.129 -0.7291  0.1470 -0.1944
10888SOL    HW134917   9.883   5.881   1.143 -1.3309  2.1448 -2.2597
10888SOL    HW234918   9.987   5.886   1.033  1.3188 -0.1508 -0.0095
10889SOL     OW34919   4.317   0.363   3.685 -0.4596  0.0536 -0.0364
10889SOL    HW134920   4.222   0.360   3.673 -0.4832 -1.0568  0.3347
10889SOL    HW234921   4.350   0.288   3.635  0.0314 -0.7041  1.3731
10890SOL     OW34922  10.524   8.114   1.542 -0.2061  0.1625 -0.9779
10890SOL    HW134923  10.521   8.114   1.638  0.2263  3.0347 -0.8806
10890SOL    HW234924  10.433   8.107   1.515 -0.3472 -0.4380 -0.3686
10891SOL     OW34925   1.139   4.177   0.549 -0.1696 -0.2641 -0.0025
10891SOL    HW134926   1.221   4.178   0.599  0.1286 -1.9143 -0.4121
10891SOL    HW234927   1.153   4.244   0.481 -1.0181  2.8482  2.6278
10892SOL     OW34928   2.418   2.673   5.781  0.2999  0.4366 -0.0309
10892SOL    HW134929   2.419   2.753   5.834  1.0772 -0.2340  1.0056
10892SOL    HW234930   2.348   2.620   5.818 -1.2282  1.2045 -1.6641
10893SOL     OW34931   9.738   8.821   8.780  0.5363  0.7869 -0.1388
10893SOL    HW134932   9.736   8.906   8.736  0.5997  0.6561 -0.3964
10893SOL    HW234933   9.665   8.772   8.740 -0.6652  1.3385  1.2777
10894SOL     OW34934   4.968   8.105   2.645  0.2373  0.2562  0.1292
10894SOL    HW134935   4.948   8.037   2.581  0.4764 -1.1573  1.5149
10894SOL    HW234936   4.884   8.149   2.660 -0.2967 -0.8334  0.4486
10895SOL     OW34937  10.035   0.338   6.481 -0.0449  0.3042 -0.0195
10895SOL    HW134938  10.093   0.376   6.547  0.0695  2.2772 -1.1559
10895SOL    HW234939   9.948   0.371   6.504  0.2789  2.8800 -1.9562
10896SOL     OW34940   5.551   1.200   8.996  0.3236 -0.0429  0.1266
10896SOL    HW134941   5.537   1.106   8.988  2.3289 -0.2237 -4.1353
10896SOL    HW234942   5.466   1.239   8.975 -0.2810 -0.8295  1.0150
10897SOL     OW34943   1.532   1.168   0.086  0.6254 -0.3415  0.0652
10897SOL    HW134944   1.604   1.199   0.140  0.9385 -1.3373  0.2424
10897SOL    HW234945   1.566   1.170  -0.004 -0.8585  4.2388 -0.6487
10898SOL     OW34946   6.631   2.036   7.923 -0.4791  0.2505 -0.5158
10898SOL    HW134947   6.700   1.973   7.940 -2.1307 -1.7662 -0.9491
10898SOL    HW234948   6.607   2.069   8.010  0.6196  0.5971 -0.3208
10899SOL     OW34949   4.964   1.650  10.218 -0.2054  0.5753 -0.3230
10899SOL    HW134950   5.008   1.729  10.185  0.5645  0.2899 -0.0244
10899SOL    HW234951   5.030   1.609  10.274 -1.5863  1.2930  1.9589
10900SOL     OW34952   3.964   4.342   7.547 -0.6364  0.1552 -0.2130
10900SOL    HW134953   3.972   4.379   7.635 -0.0665  0.7353 -0.4949
10900SOL    HW234954   3.926   4.255   7.561  0.3869 -0.1804  0.7055
10901SOL     OW34955   8.022   4.670   5.225 -0.0720 -0.2191  0.0559
10901SOL    HW134956   8.043   4.585   5.185 -0.4715 -0.8754  1.1779
10901SOL    HW234957   8.107   4.708   5.247  0.1044 -1.1820  1.1987
10902SOL     OW34958  10.203   1.375   9.321  0.5823  0.6384  0.5840
10902SOL    HW134959  10.259   1.300   9.304 -0.0316  0.2862  0.1116
10902SOL    HW234960  10.264   1.447   9.337  1.1729  0.0172  1.1771
10903SOL     OW34961   4.525   0.580   1.631 -0.4776  0.3808  0.3255
10903SOL    HW134962   4.503   0.525   1.706  0.0135 -0.9396 -0.4702
10903SOL    HW234963   4.575   0.522   1.572 -0.4004  1.5275 -0.7769
10904SOL     OW34964   5.966   1.125   5.510 -0.2683  0.0896  0.6524
10904SOL    HW134965   6.022   1.152   5.582  0.7992 -0.7066  0.1592
10904SOL    HW234966   5.974   1.196   5.446 -0.9079  0.6114  1.1379
10905SOL     OW34967   9.559   4.095   5.749  0.1262 -0.1499 -0.2321
10905SOL    HW134968   9.577   4.167   5.689 -0.6351  0.5503  0.3488
10905SOL    HW234969   9.467   4.075   5.736  0.1686 -0.5711  0.0847
10906SOL     OW34970   9.103   2.652   5.665 -0.2975  0.4315 -0.5124
10906SOL    HW134971   9.075   2.568   5.627 -1.3821 -0.3224  1.7811
10906SOL    HW234972   9.171   2.628   5.727 -0.7443  1.2057  0.2922
10907SOL     OW34973   5.392   6.185   7.129  0.3653 -0.2411 -0.4481
10907SOL    HW134974   5.475   6.231   7.121  0.3242 -0.4224 -2.3797
10907SOL    HW234975   5.412   6.107   7.181  0.8387  0.9399  1.2136
10908SOL     OW34976   5.742   2.438  10.271 -0.3026 -0.8777 -0.3202
10908SOL    HW134977   5.809   2.479  10.216 -1.9002  0.1335 -1.6266
10908SOL    HW234978   5.686   2.390  10.209 -1.6999 -0.3570  0.4937
10909SOL     OW34979   8.145   8.410   0.100 -0.3700  0.0430  0.0808
10909SOL    HW134980   8.158   8.496   0.060  1.1138 -0.3446 -0.3160
10909SOL    HW234981   8.154   8.426   0.194  2.2091  0.0148 -0.0830
10910SOL     OW34982   0.501   6.177   0.960 -0.1134 -0.3546 -0.2661
10910SOL    HW134983   0.541   6.209   1.041  1.4331 -0.7583 -0.8449
10910SOL    HW234984   0.471   6.257   0.916  2.5764  0.2948 -1.0994
10911SOL     OW34985   8.404   8.816   5.966  0.0612 -0.0952  0.7037
10911SOL    HW134986   8.432   8.752   5.901  0.9685  1.4308 -0.4668
10911SOL    HW234987   8.384   8.764   6.044  1.8612 -1.7016  0.1621
10912SOL     OW34988   2.775   2.650   3.754 -0.2415 -0.2270  0.2769
10912SOL    HW134989   2.777   2.674   3.662  0.3152 -0.2934  0.2690
10912SOL    HW234990   2.763   2.733   3.801 -0.9739 -0.2414  0.1320
10913SOL     OW34991   7.716   9.075   6.616  0.1746  1.2688  0.1878
10913SOL    HW134992   7.784   9.051   6.553  0.6653  2.7119  0.1449
10913SOL    HW234993   7.730   9.016   6.690 -0.3870 -0.4436 -0.9939
10914SOL     OW34994   1.741   0.490   0.098  0.3486  0.1504  0.0058
10914SOL    HW134995   1.780   0.561   0.149 -0.3502 -0.7469  1.8974
10914SOL    HW234996   1.665   0.462   0.150 -0.0987 -1.1552 -1.2982
10915SOL     OW34997   9.534   1.858   2.330  0.4374  0.3241  0.5724
10915SOL    HW134998   9.499   1.858   2.241  2.7324 -1.8730 -0.4656
10915SOL    HW234999   9.596   1.931   2.331 -0.0433  0.7371  0.5881
10916SOL     OW35000   1.251   8.590   9.971 -0.1772  0.2959  0.0226
10916SOL    HW135001   1.333   8.636   9.955 -0.0614  0.0976  0.0484
10916SOL    HW235002   1.246   8.524   9.902 -0.5251  0.5869 -0.2401
10917SOL     OW35003   0.539   6.682   4.481  0.1800 -0.3327  0.7363
10917SOL    HW135004   0.447   6.667   4.504 -0.0289 -0.2346  0.0090
10917SOL    HW235005   0.574   6.732   4.554 -0.5394  0.2382  0.7043
10918SOL     OW35006   0.731   4.207   6.504  0.3715 -0.0246 -0.3463
10918SOL    HW135007   0.716   4.268   6.576 -0.4838 -0.2154 -0.3458
10918SOL    HW235008   0.777   4.257   6.438 -0.9145  0.8262 -0.6280
10919SOL     OW35009   2.695   9.753   0.710  0.5210  0.0150 -0.1515
10919SOL    HW135010   2.773   9.698   0.719  1.1624  0.8915 -0.2179
10919SOL    HW235011   2.629   9.709   0.763  1.1704 -0.5370  0.2243
10920SOL     OW35012   9.265   6.274   4.849  0.3408  0.4715 -0.1255
10920SOL    HW135013   9.242   6.366   4.844 -0.3202  0.3323  0.2704
10920SOL    HW235014   9.285   6.250   4.758  2.7441  1.5389  0.0631
10921SOL     OW35015   6.173   1.139   2.943  0.4048  0.2722  0.5175
10921SOL    HW135016   6.088   1.159   2.982 -0.1580  0.3212 -0.6906
10921SOL    HW235017   6.178   1.043   2.944  1.1319  0.2947  2.1934
10922SOL     OW35018   4.909   1.524   3.862  0.2267 -0.5335  0.0080
10922SOL    HW135019   4.862   1.582   3.803  3.1488 -0.3871 -2.4812
10922SOL    HW235020   4.930   1.577   3.938 -0.7126  0.3707 -0.3544
10923SOL     OW35021   3.574   8.108   0.572  0.4756 -0.0661  0.4636
10923SOL    HW135022   3.499   8.056   0.543  0.1636 -0.0484  1.2147
10923SOL    HW235023   3.590   8.078   0.662  0.9150  0.4392  0.5580
10924SOL     OW35024   7.850   3.414   3.390  0.1762  0.0403 -0.2742
10924SOL    HW135025   7.860   3.436   3.297  0.6041 -0.6879 -0.4086
10924SOL    HW235026   7.757   3.396   3.401 -0.3015  2.3618 -0.0416
10925SOL     OW35027   7.316   8.434   6.432 -0.2682  0.1637 -0.2253
10925SOL    HW135028   7.339   8.372   6.363 -1.6670 -0.6859  0.0404
10925SOL    HW235029   7.245   8.486   6.395 -0.3229  0.3999  0.2032
10926SOL     OW35030   6.426   2.016   6.048  0.2245  0.2740  0.3756
10926SOL    HW135031   6.467   1.930   6.034 -1.9228 -0.8595  0.5866
10926SOL    HW235032   6.403   2.046   5.960  1.7564  1.1053  0.2181
10927SOL     OW35033   0.410   4.313   7.977 -0.1124 -0.2322 -0.3891
10927SOL    HW135034   0.336   4.346   8.028 -0.4629  0.2019 -1.1536
10927SOL    HW235035   0.487   4.338   8.028 -0.4943 -1.0942  0.6457
10928SOL     OW35036   9.585   0.020   5.742  0.0525 -0.0393  0.1168
10928SOL    HW135037   9.603   0.032   5.835 -1.5865 -1.3054  0.6460
10928SOL    HW235038   9.490   0.006   5.737 -0.0281  0.7886 -1.8453
10929SOL     OW35039   4.111   1.443   9.269 -0.1098  0.0714  0.2556
10929SOL    HW135040   4.099   1.379   9.339  2.4324  0.5632  1.2493
10929SOL    HW235041   4.116   1.391   9.189  0.5530 -0.8629  0.8861
10930SOL     OW35042   2.144   3.665   1.871 -0.2944  0.3171  0.1074
10930SOL    HW135043   2.151   3.693   1.962  0.0683  0.9460 -0.1010
10930SOL    HW235044   2.050   3.671   1.851 -0.4979 -0.7623  0.7145
10931SOL     OW35045   2.188   1.349   6.518 -0.1566 -0.1937  0.3643
10931SOL    HW135046   2.232   1.348   6.604 -2.2062 -1.2359  1.4881
10931SOL    HW235047   2.128   1.423   6.523  1.2551  1.0989 -1.0750
10932SOL     OW35048   2.111  10.360   5.974 -0.2779 -0.1153 -0.6241
10932SOL    HW135049   2.109  10.427   6.042  1.3401 -0.2677 -0.3806
10932SOL    HW235050   2.116  10.409   5.892  2.9251  0.1737 -0.3724
10933SOL     OW35051   6.820  10.441   1.403  0.2874 -0.2591  0.2139
10933SOL    HW135052   6.836  10.419   1.495 -0.3245 -0.5704  0.2496
10933SOL    HW235053   6.734  10.481   1.403  0.2859 -0.2652 -0.2299
10934SOL     OW35054   2.584   2.309   4.010 -0.2891 -0.4828 -0.0345
10934SOL    HW135055   2.667   2.299   4.056 -0.7267  1.1182  1.1792
10934SOL    HW235056   2.603   2.284   3.920  1.2458 -1.1303  0.4368
10935SOL     OW35057   4.506   8.871   7.749  0.2943 -0.3268  0.3397
10935SOL    HW135058   4.580   8.932   7.740 -0.5747  0.5216 -1.5976
10935SOL    HW235059   4.451   8.889   7.673 -2.0372 -0.7988  1.8158
10936SOL     OW35060   3.515   6.963   9.533  0.3129 -0.4669  0.2252
10936SOL    HW135061   3.553   6.881   9.500  0.1058  0.1025 -1.5366
10936SOL    HW235062   3.427   6.938   9.562 -0.1104 -0.7427 -1.1841
10937SOL     OW35063   6.958   4.115  10.322 -0.6328  0.1070  0.3556
10937SOL    HW135064   7.007   4.135  10.402 -1.7657  0.2585  1.0195
10937SOL    HW235065   6.973   4.021  10.309  0.2010  0.2342  0.2825
10938SOL     OW35066   3.644   0.615   2.039 -0.0401 -0.3477 -0.2968
10938SOL    HW135067   3.674   0.676   2.106 -0.4680 -0.5079  0.0459
10938SOL    HW235068   3.719   0.602   1.982  0.0104  0.6209 -0.4596
10939SOL     OW35069   0.840   2.491   8.390 -0.0455 -0.3364 -0.2552
10939SOL    HW135070   0.854   2.471   8.298  0.0381 -0.2198 -0.2683
10939SOL    HW235071   0.924   2.527   8.420  1.2533 -3.7852  0.7976
10940SOL     OW35072  10.085   1.376   2.711 -0.2562 -0.1861  0.1527
10940SOL    HW135073  10.121   1.396   2.797 -1.7216  0.5304  0.6435
10940SOL    HW235074  10.106   1.453   2.657 -0.6785  0.0670  0.3362
10941SOL     OW35075   6.473   1.560  10.306 -0.6131 -0.4462  0.1597
10941SOL    HW135076   6.559   1.583  10.340 -2.0394  1.8909  2.5386
10941SOL    HW235077   6.481   1.569  10.211  1.1902  1.9832  0.4559
10942SOL     OW35078   4.674   0.886   8.028 -0.0450  0.0345  0.1139
10942SOL    HW135079   4.712   0.950   7.968  1.0448  1.0852  1.8256
10942SOL    HW235080   4.707   0.802   7.999 -1.7543  0.0977 -2.3945
10943SOL     OW35081   7.232   0.668   7.278  0.3357 -0.3249  0.3130
10943SOL    HW135082   7.237   0.748   7.330  2.0918 -0.9215  1.1514
10943SOL    HW235083   7.170   0.612   7.325 -0.4282  0.2918  0.0588
10944SOL     OW35084   0.012   0.712   1.921  0.4065 -0.1777  0.2562
10944SOL    HW135085  -0.020   0.764   1.847 -2.2881  0.7219  1.9065
10944SOL    HW235086   0.047   0.776   1.982  4.0233 -1.0129 -0.6694
10945SOL     OW35087   4.510   0.402   9.768  0.4147  0.3498 -0.4611
10945SOL    HW135088   4.577   0.469   9.783  1.5390 -0.6434 -0.8476
10945SOL    HW235089   4.463   0.431   9.690 -0.7653  1.9199  0.7712
10946SOL     OW35090   5.891   3.712   9.510  0.0373 -0.6125  0.5241
10946SOL    HW135091   5.967   3.654   9.517  0.3107 -0.3586 -0.2874
10946SOL    HW235092   5.887   3.735   9.418 -1.4706 -1.2033  0.4299
10947SOL     OW35093   5.171   6.449   5.984  0.7541  0.1205  0.1033
10947SOL    HW135094   5.165   6.373   5.927  1.6660 -0.4638  0.7629
10947SOL    HW235095   5.195   6.414   6.069 -1.2286  0.9022  1.0631
10948SOL     OW35096   4.649   8.042   3.481 -0.0910 -0.2151 -0.4391
10948SOL    HW135097   4.718   8.078   3.536  0.6157  1.4453 -2.2574
10948SOL    HW235098   4.572   8.095   3.503 -0.4856 -1.2068  0.6647
10949SOL     OW35099   1.447  10.339   1.266  0.2280 -0.4800  0.6817
10949SOL    HW135100   1.526  10.290   1.242  0.4329  0.4287 -0.6224
10949SOL    HW235101   1.375  10.281   1.241  0.4553  0.0273 -1.3795
10950SOL     OW35102  10.222   8.397   1.462 -0.3915 -0.2911 -0.2541
10950SOL    HW135103  10.161   8.399   1.389  0.2029 -2.4562 -0.8708
10950SOL    HW235104  10.269   8.314   1.453  1.2592  0.3915  1.3275
10951SOL     OW35105   3.035   2.603   9.537  0.3110  0.5004  0.3197
10951SOL    HW135106   3.026   2.536   9.606 -2.9001 -0.5074 -0.8988
10951SOL    HW235107   3.064   2.681   9.584 -1.3828 -0.2445  2.8098
10952SOL     OW35108   4.543   4.543   8.359  0.2285  0.3138 -0.0657
10952SOL    HW135109   4.510   4.626   8.393 -0.3397  0.3317 -0.6367
10952SOL    HW235110   4.638   4.552   8.360  0.2419  0.3008  1.5309
10953SOL     OW35111  10.418   5.711   7.869  0.0962 -0.1756  0.1433
10953SOL    HW135112  10.343   5.701   7.928 -0.2774 -0.2086 -0.3379
10953SOL    HW235113  10.383   5.757   7.793  0.7583  0.5903  0.2912
10954SOL     OW35114   5.054   1.157   3.564  0.7527 -0.4884  0.0393
10954SOL    HW135115   5.066   1.248   3.591 -1.8179  0.4943 -1.7179
10954SOL    HW235116   5.110   1.148   3.487  1.2299 -0.4748  0.3849
10955SOL     OW35117   7.051   1.196   5.417  0.0166  0.0352  0.3488
10955SOL    HW135118   7.053   1.146   5.499  0.8883  0.9216  0.8871
10955SOL    HW235119   7.139   1.186   5.381 -0.1727  0.1889 -0.1644
10956SOL     OW35120   0.714   4.224   1.711 -0.7258  0.4306  0.3254
10956SOL    HW135121   0.627   4.260   1.697 -1.4962 -1.4817 -0.0989
10956SOL    HW235122   0.746   4.204   1.623 -0.5721 -0.4298  0.5629
10957SOL     OW35123   4.223   8.962   1.721 -0.2873 -0.0876 -0.4481
10957SOL    HW135124   4.262   9.007   1.796 -0.8516 -0.1359 -0.1185
10957SOL    HW235125   4.297   8.921   1.677 -0.0843 -1.4865  1.0526
10958SOL     OW35126   1.034   9.594   7.861 -0.4038 -0.7623 -0.5709
10958SOL    HW135127   1.124   9.574   7.835 -0.2907 -1.9348  0.6429
10958SOL    HW235128   1.042   9.625   7.952 -0.9846  1.5093 -1.2239
10959SOL     OW35129   4.419   2.843   4.609 -0.2149 -0.6234 -0.1797
10959SOL    HW135130   4.461   2.927   4.589 -0.8754 -0.2374  0.0074
10959SOL    HW235131   4.374   2.820   4.528 -1.9498  0.3737  0.4486
10960SOL     OW35132   0.224   2.352   8.383  0.6825 -0.5701  0.0362
10960SOL    HW135133   0.181   2.287   8.328 -0.7013  1.2168 -1.0934
10960SOL    HW235134   0.166   2.363   8.458 -0.1019  0.6760 -0.7078
10961SOL     OW35135   8.866   9.855   1.914 -0.3734  0.1139 -0.3709
10961SOL    HW135136   8.926   9.904   1.858 -0.8402  1.3917  0.1917
10961SOL    HW235137   8.913   9.775   1.936  0.2655  0.1268 -1.6444
10962SOL     OW35138   4.049   2.640   0.307 -0.6791 -0.1244  0.6568
10962SOL    HW135139   4.096   2.677   0.382 -0.2066 -1.7244  1.2127
10962SOL    HW235140   3.972   2.696   0.296  0.7451  1.8741  0.4549
10963SOL     OW35141   1.669   6.600   7.787 -0.0760 -0.4873  0.0538
10963SOL    HW135142   1.589   6.651   7.778  2.5100  3.8498 -1.2293
10963SOL    HW235143   1.699   6.618   7.876  1.7128  1.8890 -0.9401
10964SOL     OW35144  10.217   4.740   1.960 -0.3216  0.5728 -0.5131
10964SOL    HW135145  10.216   4.662   2.016 -1.2317  0.3044 -0.8894
10964SOL    HW235146  10.161   4.803   2.004  0.8275  1.2221  0.0536
10965SOL     OW35147   9.248   8.641   2.169 -0.1768  0.0937  0.4677
10965SOL    HW135148   9.321   8.611   2.224 -0.0566  1.2665  0.9781
10965SOL    HW235149   9.285   8.648   2.081  0.0325 -0.3696  0.5188
10966SOL     OW35150   2.800   6.979   8.666  0.2535 -0.0177 -0.2531
10966SOL    HW135151   2.861   7.047   8.637  0.4940 -0.5090 -0.9323
10966SOL    HW235152   2.790   6.994   8.760  0.5769  0.7336 -0.3306
10967SOL     OW35153   9.595   3.687   9.350 -0.3817  0.5060  0.7953
10967SOL    HW135154   9.540   3.689   9.428 -0.1235  3.6193  0.9962
10967SOL    HW235155   9.666   3.626   9.372 -0.0180  1.6776  3.2559
10968SOL     OW35156   0.513   3.825   6.508 -0.1837  0.3935 -0.5759
10968SOL    HW135157   0.600   3.864   6.510  0.0753 -0.1862  0.1990
10968SOL    HW235158   0.456   3.892   6.471  0.0708  1.8477  1.5496
10969SOL     OW35159   1.154   4.473   8.668 -0.1683 -0.3570 -0.2277
10969SOL    HW135160   1.235   4.424   8.660  0.0022  0.0099 -0.7723
10969SOL    HW235161   1.148   4.494   8.761  0.6019  0.0252 -0.2600
10970SOL     OW35162   0.966   9.579   5.009  0.1586  0.3398  0.3568
10970SOL    HW135163   0.901   9.623   5.064 -0.1245  2.8698 -1.8113
10970SOL    HW235164   0.946   9.486   5.018 -2.9777  0.9435  0.7384
10971SOL     OW35165   9.991   7.449   4.646  0.0085 -0.0364  0.5626
10971SOL    HW135166   9.938   7.441   4.567 -0.2009 -2.4107  0.8600
10971SOL    HW235167  10.073   7.488   4.617 -0.2989 -0.3074 -0.7114
10972SOL     OW35168   0.822   6.415   8.812  0.5425  0.3322  0.1677
10972SOL    HW135169   0.872   6.416   8.731 -0.3880 -1.0243 -0.4710
10972SOL    HW235170   0.795   6.324   8.823 -1.6343  0.9576  0.5476
10973SOL     OW35171   1.595   7.349   6.498 -0.1937 -0.2575 -0.2769
10973SOL    HW135172   1.549   7.353   6.415  1.6356  1.7378 -1.2971
10973SOL    HW235173   1.623   7.258   6.506 -0.5988 -0.5299 -1.7289
10974SOL     OW35174   0.244   4.452   3.667 -0.1961  0.2817  0.1344
10974SOL    HW135175   0.253   4.370   3.715  1.3351  1.0843  1.3193
10974SOL    HW235176   0.300   4.441   3.590  0.8645  0.5403  0.8326
10975SOL     OW35177   8.568   4.726   7.723  0.3378  0.0827  0.3391
10975SOL    HW135178   8.596   4.766   7.805  0.1169  0.8042  0.0696
10975SOL    HW235179   8.536   4.640   7.748  0.4964  0.2064  0.9797
10976SOL     OW35180   3.057  10.543   8.776  0.5424  0.0505  0.0555
10976SOL    HW135181   3.022  10.579   8.858  0.2322  1.1917 -0.5530
10976SOL    HW235182   3.144  10.583   8.769  0.0876  0.9296 -0.7642
10977SOL     OW35183   0.589   0.378   7.519 -0.0151  1.0741 -0.1695
10977SOL    HW135184   0.670   0.337   7.490  0.4854  1.2177  0.9562
10977SOL    HW235185   0.616   0.464   7.552 -0.1844  0.1471  2.6351
10978SOL     OW35186   9.657   8.113   6.937  0.0799  0.1769 -0.1345
10978SOL    HW135187   9.746   8.135   6.910  0.2232 -0.0479  0.1484
10978SOL    HW235188   9.657   8.017   6.941  0.2174  0.2175  1.1701
10979SOL     OW35189   1.372   5.331   0.930  0.2705  0.2380  0.0675
10979SOL    HW135190   1.467   5.321   0.936  0.0963 -2.0469 -0.1451
10979SOL    HW235191   1.350   5.387   1.005  1.8170  1.4464 -0.3085
10980SOL     OW35192   7.587   3.675  10.568  0.0530  1.0547  0.1636
10980SOL    HW135193   7.604   3.612  10.498 -0.6951  1.7822 -0.7077
10980SOL    HW235194   7.615   3.631  10.648  0.1513 -0.1220 -0.4975
10981SOL     OW35195   7.902   1.162  10.469 -0.2142  0.1455  0.1612
10981SOL    HW135196   7.809   1.157  10.491  0.2252 -1.4724  1.9296
10981SOL    HW235197   7.939   1.081  10.504  1.5040 -0.3159 -2.4574
10982SOL     OW35198   7.388   3.038   7.404  0.2556  0.1812  0.3343
10982SOL    HW135199   7.324   2.973   7.374  1.5730 -0.0739 -2.2232
10982SOL    HW235200   7.431   3.067   7.323  1.1865  2.6825  1.6286
10983SOL     OW35201   0.621   7.915   8.807 -0.3300  0.4257 -0.4719
10983SOL    HW135202   0.699   7.861   8.818 -0.4055  0.6023  1.2286
10983SOL    HW235203   0.652   7.993   8.762  0.0231 -0.4674 -1.8175
10984SOL     OW35204   2.534   0.317   8.616 -0.6873  0.2253 -0.1857
10984SOL    HW135205   2.479   0.238   8.615 -0.9131  0.3319  1.3706
10984SOL    HW235206   2.508   0.365   8.537 -1.5379 -0.5944 -0.4276
10985SOL     OW35207   4.993   0.020   7.414 -0.0449 -0.6231  0.2115
10985SOL    HW135208   5.040   0.020   7.497  0.4310 -1.1591 -0.0483
10985SOL    HW235209   4.960  -0.070   7.405  0.0910 -0.6280 -0.2753
10986SOL     OW35210   9.198   6.805   6.568  0.2076  0.3480 -0.2546
10986SOL    HW135211   9.273   6.783   6.513 -0.2475  1.2783 -1.2773
10986SOL    HW235212   9.182   6.898   6.551 -1.6500 -0.0062 -0.6598
10987SOL     OW35213   0.136   6.645   8.707  0.2238 -0.0733 -0.0592
10987SOL    HW135214   0.160   6.603   8.624  0.5618 -0.0454  0.0234
10987SOL    HW235215   0.082   6.720   8.682 -1.5456 -1.3206 -0.1516
10988SOL     OW35216   6.132   6.585   7.330 -0.2130 -0.4428  0.3341
10988SOL    HW135217   6.036   6.593   7.329 -0.2105 -0.2493 -1.6195
10988SOL    HW235218   6.152   6.528   7.256  1.3323  1.6742 -0.9933
10989SOL     OW35219  10.106   0.443   6.799 -0.2198 -0.0536  0.7606
10989SOL    HW135220  10.201   0.426   6.798 -0.3615 -0.8874 -0.0023
10989SOL    HW235221  10.095   0.519   6.743  0.1183  0.8400  1.8677
10990SOL     OW35222   3.469   7.858   8.728 -0.3255  0.1518  0.1328
10990SOL    HW135223   3.441   7.909   8.803  0.7260  1.7150 -0.4885
10990SOL    HW235224   3.403   7.789   8.720 -0.8853  0.4109  1.9856
10991SOL     OW35225   3.477   0.644   2.294  0.2448  0.3310  0.3066
10991SOL    HW135226   3.473   0.584   2.219  0.6088  1.1127 -0.3530
10991SOL    HW235227   3.418   0.605   2.359  0.6360 -0.8508 -0.0205
10992SOL     OW35228   9.357   4.868   9.102 -0.1010 -0.2308 -0.8414
10992SOL    HW135229   9.317   4.811   9.167  0.4054 -0.2685 -0.5550
10992SOL    HW235230   9.342   4.957   9.134  0.9248 -0.2723 -0.1897
10993SOL     OW35231   7.796   1.358   9.321 -0.3497  0.2062 -0.2924
10993SOL    HW135232   7.714   1.378   9.277 -1.3760  1.2086  1.9577
10993SOL    HW235233   7.784   1.269   9.355 -0.4093  0.2604 -0.1709
10994SOL     OW35234   2.756   7.563   5.471 -0.1108 -0.1474  0.3803
10994SOL    HW135235   2.721   7.608   5.394  0.4624  0.7449  0.6198
10994SOL    HW235236   2.763   7.472   5.445 -0.4325  0.0499 -0.4413
10995SOL     OW35237   0.344   3.711   5.202  0.4217 -0.4634 -0.0558
10995SOL    HW135238   0.360   3.720   5.108  1.1488 -0.2496  0.0832
10995SOL    HW235239   0.419   3.755   5.243  0.5220 -1.2607  0.6254
10996SOL     OW35240   1.079   9.896   4.370 -0.1107  0.4384  0.1659
10996SOL    HW135241   1.017   9.870   4.438  2.0179  1.9096  2.8887
10996SOL    HW235242   1.106   9.813   4.330 -1.7287 -0.4516  0.8103
10997SOL     OW35243  10.520   8.669   6.779 -0.1944 -0.8533 -0.4126
10997SOL    HW135244  10.428   8.695   6.785  0.0912 -0.0051  0.7014
10997SOL    HW235245  10.518   8.574   6.785 -1.0120 -0.8654 -0.6807
10998SOL     OW35246   6.949   4.493   0.555  0.3264  0.5121 -0.0856
10998SOL    HW135247   7.013   4.557   0.584 -0.2223  1.4906 -0.9381
10998SOL    HW235248   6.873   4.545   0.528  0.1462 -0.4252 -1.5389
10999SOL     OW35249   1.057   5.703   9.161 -0.0816 -0.1054  0.2374
10999SOL    HW135250   1.053   5.775   9.097 -0.3132  1.1867  1.6548
10999SOL    HW235251   1.132   5.724   9.216 -1.4915  0.3362  2.0903
11000SOL     OW35252   3.202  10.263   7.408 -0.4015  0.2138  0.1791
11000SOL    HW135253   3.138  10.207   7.452 -1.6820 -0.0539 -1.9269
11000SOL    HW235254   3.151  10.336   7.374  0.8283  1.2691  0.5445
11001SOL     OW35255   3.781   9.252   7.251 -0.5927  0.7518  0.9155
11001SOL    HW135256   3.695   9.294   7.239 -0.2845  1.0093 -0.5528
11001SOL    HW235257   3.819   9.296   7.327 -1.1800  1.6218  0.7127
11002SOL     OW35258   0.400   3.170   5.582 -0.5545 -0.3943 -0.4311
11002SOL    HW135259   0.492   3.150   5.566 -0.7360 -0.2178 -1.8212
11002SOL    HW235260   0.401   3.228   5.658  0.4512 -0.6734 -0.2181
11003SOL     OW35261   9.835   0.536   6.130  0.4011 -0.0880  0.2448
11003SOL    HW135262   9.816   0.518   6.038 -0.6719  1.6426  0.0728
11003SOL    HW235263   9.779   0.611   6.152  1.5847  0.3734  1.9431
11004SOL     OW35264   8.814   2.531  10.052 -0.5457 -0.1343  0.0072
11004SOL    HW135265   8.817   2.625  10.072 -0.3707 -0.0610 -0.3475
11004SOL    HW235266   8.731   2.518  10.008 -0.6522 -0.1798  0.2218
11005SOL     OW35267   6.870   3.443   7.243  0.6679 -0.1639 -0.8012
11005SOL    HW135268   6.791   3.466   7.195  0.7063 -0.4468 -1.0005
11005SOL    HW235269   6.841   3.381   7.310  0.3038  1.5585  0.7068
11006SOL     OW35270   1.621   2.572   1.665  0.6169  0.0793  0.0121
11006SOL    HW135271   1.707   2.608   1.642  0.8573 -0.9996 -0.8739
11006SOL    HW235272   1.563   2.603   1.596  0.3640  0.5065  0.4111
11007SOL     OW35273   5.734   1.540  10.058  0.1577 -0.0309  0.1955
11007SOL    HW135274   5.672   1.468  10.044 -0.3880  0.7723 -1.9642
11007SOL    HW235275   5.786   1.512  10.133  0.3250 -2.9619 -0.8740
11008SOL     OW35276   4.638   4.581   3.641 -0.1341  0.0921 -0.0942
11008SOL    HW135277   4.688   4.662   3.632  0.6956 -0.6722 -3.5550
11008SOL    HW235278   4.674   4.540   3.720  2.4382  1.1470 -0.6066
11009SOL     OW35279   7.563   7.518   2.987  0.5135  0.1073  0.5908
11009SOL    HW135280   7.589   7.587   3.048  1.7600 -0.6505  0.9463
11009SOL    HW235281   7.469   7.532   2.974  0.0529 -0.0408  3.1673
11010SOL     OW35282   7.494   4.346   9.057 -0.2300  0.2422  0.0611
11010SOL    HW135283   7.419   4.308   9.012  0.2782  0.0470 -0.6412
11010SOL    HW235284   7.505   4.432   9.018 -0.9030  0.8315  1.1086
11011SOL     OW35285   3.463   0.039   6.997 -0.2793  0.1873 -0.2222
11011SOL    HW135286   3.496  -0.018   7.066 -1.2887  0.9161  0.9087
11011SOL    HW235287   3.493   0.127   7.022 -0.6008  0.4541 -0.7547
11012SOL     OW35288   5.347   2.156   1.003  0.3663 -0.3400  0.0530
11012SOL    HW135289   5.268   2.110   0.975 -0.5538  0.1574  1.7021
11012SOL    HW235290   5.339   2.244   0.965 -0.5201  0.1065  1.2289
11013SOL     OW35291   0.388   4.325   2.687 -0.2933 -0.3477  0.1529
11013SOL    HW135292   0.312   4.272   2.662  0.2812 -0.9577 -0.3189
11013SOL    HW235293   0.441   4.329   2.608  0.8541 -1.1228  0.8610
11014SOL     OW35294  10.192   0.121   4.936 -0.0286  0.2275  0.1040
11014SOL    HW135295  10.167   0.075   5.016  0.4134  0.1388  0.1976
11014SOL    HW235296  10.149   0.073   4.866 -1.6541  1.1904  0.3872
11015SOL     OW35297  10.023   7.082   3.712 -0.6117  0.0886  0.4823
11015SOL    HW135298   9.987   7.146   3.650  0.2386 -0.6586 -0.8533
11015SOL    HW235299   9.955   7.070   3.778 -1.5502  0.9467 -0.3048
11016SOL     OW35300   9.695   1.725   9.175  0.1889 -0.8924  0.3562
11016SOL    HW135301   9.713   1.819   9.182 -0.9589 -0.5687 -0.7290
11016SOL    HW235302   9.757   1.694   9.109  0.8400 -0.9977  0.9993
11017SOL     OW35303   2.545   0.992   9.661 -0.4394 -0.9350 -0.1757
11017SOL    HW135304   2.608   1.052   9.621 -0.6957  0.3461  1.2499
11017SOL    HW235305   2.596   0.941   9.723 -1.0136  1.6864  2.7137
11018SOL     OW35306   0.217   4.176  10.621  0.0882  0.4480  0.2127
11018SOL    HW135307   0.290   4.228  10.656 -0.6567  1.0804  0.8457
11018SOL    HW235308   0.248   4.085  10.628  1.5416  0.7798 -1.2222
11019SOL     OW35309   9.194  10.014   7.607  0.7785 -0.6275  0.4381
11019SOL    HW135310   9.100  10.030   7.609  0.9137  0.2799 -0.2625
11019SOL    HW235311   9.202   9.919   7.618 -0.0818 -0.4644  3.6766
11020SOL     OW35312   8.639   8.576   1.194 -0.0122 -0.2874 -0.6079
11020SOL    HW135313   8.670   8.584   1.104 -0.8935  3.0653 -0.7366
11020SOL    HW235314   8.707   8.617   1.247  0.0853 -1.4399  0.2163
11021SOL     OW35315   9.715   3.316   3.053  0.1323  0.3872  0.0552
11021SOL    HW135316   9.640   3.349   3.103 -1.7007 -1.7930 -1.0543
11021SOL    HW235317   9.708   3.220   3.061  3.0957  0.0858  0.2522
11022SOL     OW35318  10.261   2.744   9.588 -0.1921 -0.0062  0.1136
11022SOL    HW135319  10.224   2.800   9.657 -1.4619 -1.2037  0.4397
11022SOL    HW235320  10.278   2.660   9.631  0.1189 -0.4088 -0.7677
11023SOL     OW35321   2.512   9.440   6.061 -0.0480  0.5705 -0.0453
11023SOL    HW135322   2.514   9.484   6.147  0.4558 -0.0060  0.2417
11023SOL    HW235323   2.536   9.349   6.080  4.4173  1.2519 -1.2946
11024SOL     OW35324   4.376   2.104   1.550 -0.3122 -0.4528  0.1406
11024SOL    HW135325   4.469   2.086   1.533 -0.1067 -0.5800  1.2997
11024SOL    HW235326   4.376   2.159   1.628 -1.1262  1.6326 -1.2674
11025SOL     OW35327   5.531   8.862  10.313  0.0610  0.2325  0.5785
11025SOL    HW135328   5.502   8.897  10.397 -0.4810 -0.2015  0.5784
11025SOL    HW235329   5.553   8.939  10.261 -1.1502  0.5884  0.5608
11026SOL     OW35330   2.743   2.560  10.456  0.1013  0.4712 -0.0133
11026SOL    HW135331   2.733   2.655  10.449 -0.5096  0.4961  1.0553
11026SOL    HW235332   2.700   2.526  10.377 -1.8761  0.9786  0.7839
11027SOL     OW35333   1.122   5.748   0.071 -0.1826 -0.3534  0.0488
11027SOL    HW135334   1.192   5.724   0.133  2.3407  3.3963 -0.9937
11027SOL    HW235335   1.125   5.680   0.004  2.6013 -0.3018  0.0164
11028SOL     OW35336  10.462   2.019   0.330 -0.7630  0.5517  0.2360
11028SOL    HW135337  10.530   1.987   0.271 -0.6201 -0.5663  0.9826
11028SOL    HW235338  10.382   2.013   0.279 -1.1125 -3.0654  0.9194
11029SOL     OW35339   9.432   9.213   7.617 -0.2112  0.1051 -0.4178
11029SOL    HW135340   9.476   9.296   7.598 -0.0347 -0.2330 -1.5681
11029SOL    HW235341   9.382   9.194   7.538 -1.6861 -0.0020  0.5115
11030SOL     OW35342   8.314   2.850   9.829 -0.0066 -0.0137 -0.7568
11030SOL    HW135343   8.351   2.830   9.915 -2.2081 -1.9527 -0.1755
11030SOL    HW235344   8.335   2.943   9.815  3.2533 -0.4477  0.3348
11031SOL     OW35345   9.881   8.563   9.549 -0.2850 -0.7446  0.7098
11031SOL    HW135346   9.876   8.495   9.481 -1.5041 -0.3713  0.3892
11031SOL    HW235347   9.960   8.542   9.599  0.3224 -1.3641 -0.4693
11032SOL     OW35348   3.251   8.390   3.930 -0.5819 -0.1791  0.0113
11032SOL    HW135349   3.248   8.343   4.013  1.8642  0.4947  0.5749
11032SOL    HW235350   3.339   8.428   3.928 -1.2306  1.3663 -2.0518
11033SOL     OW35351   4.810   4.656   8.406 -0.3779  0.1758  0.1199
11033SOL    HW135352   4.854   4.739   8.426 -0.2796  0.2133 -0.2429
11033SOL    HW235353   4.876   4.605   8.359  0.6347 -1.3108  2.9123
11034SOL     OW35354   1.215   4.634   9.554 -0.2221 -0.1728 -0.3538
11034SOL    HW135355   1.276   4.636   9.480  0.9057  0.7875  0.5651
11034SOL    HW235356   1.128   4.643   9.513  0.4069  0.8398 -1.5335
11035SOL     OW35357   1.026   0.822   0.610  0.0757 -0.2806 -0.0327
11035SOL    HW135358   1.029   0.796   0.702  1.3061  0.4457  0.1522
11035SOL    HW235359   0.941   0.864   0.600 -0.2636 -0.7864  0.6548
11036SOL     OW35360   1.054   8.845   0.907 -0.1234 -0.2670  0.8015
11036SOL    HW135361   1.127   8.800   0.864 -0.1781  0.8873 -0.5759
11036SOL    HW235362   1.066   8.937   0.884 -1.5702  0.0539  1.2385
11037SOL     OW35363   4.491   5.060   0.778  0.2220  0.0691  0.0642
11037SOL    HW135364   4.564   5.047   0.718  0.0518 -0.8769  0.0528
11037SOL    HW235365   4.470   4.973   0.810 -0.2830  0.4509  0.8092
11038SOL     OW35366   5.236   5.569   5.356 -0.5380 -0.0309 -0.1058
11038SOL    HW135367   5.215   5.490   5.406 -0.1505 -0.3266 -0.4001
11038SOL    HW235368   5.250   5.636   5.422  2.4480 -0.9817  0.3760
11039SOL     OW35369   8.922   7.055   9.330 -0.1708  0.2409  0.2441
11039SOL    HW135370   9.017   7.056   9.341  0.0983 -0.4196 -1.5772
11039SOL    HW235371   8.904   6.969   9.290 -1.4668  0.5395  0.1406
11040SOL     OW35372   1.563   7.551   7.307  0.8134 -0.0318  0.8318
11040SOL    HW135373   1.590   7.626   7.254 -0.6958  1.2050  1.7529
11040SOL    HW235374   1.582   7.577   7.397 -0.1382 -0.5577  1.1961
11041SOL     OW35375   9.305   5.868  10.016  0.2448 -0.1053 -0.4452
11041SOL    HW135376   9.331   5.788   9.971 -1.0144 -0.2719 -0.9229
11041SOL    HW235377   9.387   5.913  10.036  1.0762 -2.1202  1.0077
11042SOL     OW35378   3.368   3.042   0.571  0.8888  0.4270 -0.3691
11042SOL    HW135379   3.345   3.001   0.654  2.3878 -0.3291 -0.2988
11042SOL    HW235380   3.462   3.058   0.577  1.3844 -1.1960 -2.5609
11043SOL     OW35381   1.855   6.525   0.582 -0.0518 -0.4027 -0.1729
11043SOL    HW135382   1.926   6.527   0.518 -1.7295  0.3272 -2.1364
11043SOL    HW235383   1.782   6.570   0.538 -1.5764 -0.6832  1.9258
11044SOL     OW35384   8.204   6.594   6.036  0.3746  0.0793  0.0634
11044SOL    HW135385   8.293   6.606   6.002 -0.1727  0.7594 -1.1642
11044SOL    HW235386   8.197   6.499   6.051  0.0797 -0.5681 -3.4095
11045SOL     OW35387   2.896   6.240   1.626  0.3449  0.1366 -0.4910
11045SOL    HW135388   2.913   6.318   1.678 -0.1438 -0.8462  1.2259
11045SOL    HW235389   2.981   6.196   1.621  0.0170 -0.8134  1.3489
11046SOL     OW35390   9.239   6.808   3.628 -0.1469 -0.1214 -0.6931
11046SOL    HW135391   9.275   6.726   3.664  0.5099  0.2435 -0.5081
11046SOL    HW235392   9.170   6.779   3.568 -0.6105 -0.7738  0.1415
11047SOL     OW35393   5.885   6.750   3.199 -0.2979 -0.1261 -0.3015
11047SOL    HW135394   5.958   6.701   3.237  0.0580  1.4747  1.1754
11047SOL    HW235395   5.811   6.690   3.203 -0.5438  0.2023  3.9507
11048SOL     OW35396   3.948   3.761   3.005 -0.1082 -0.0146  0.3685
11048SOL    HW135397   3.943   3.856   3.010  0.1053 -0.0232  0.7328
11048SOL    HW235398   4.041   3.742   2.991 -0.3774 -0.0778 -1.7856
11049SOL     OW35399   7.403   6.245  10.418  0.3260 -0.2185  0.1490
11049SOL    HW135400   7.443   6.312  10.362  0.6679  0.7747  1.5347
11049SOL    HW235401   7.461   6.238  10.493 -1.2613  0.1317  1.4690
11050SOL     OW35402  10.602   1.645   2.641 -0.3141 -0.0224  0.7196
11050SOL    HW135403  10.565   1.560   2.617  1.1197 -0.5143  0.1907
11050SOL    HW235404  10.695   1.639   2.619 -0.5637  2.4805 -1.4616
11051SOL     OW35405   8.208   9.489   3.772 -0.0288  0.6391 -0.3719
11051SOL    HW135406   8.138   9.487   3.707 -1.4186  4.5619  0.7082
11051SOL    HW235407   8.287   9.468   3.723 -1.5289 -0.6971 -2.3713
11052SOL     OW35408   5.598   9.297   1.547 -0.0993 -0.7673 -0.0641
11052SOL    HW135409   5.568   9.377   1.589  1.0512  0.6513 -1.7893
11052SOL    HW235410   5.526   9.235   1.558 -1.5431  0.8865  0.2454
11053SOL     OW35411   3.895   4.119   0.792 -0.4171  0.8009  0.2054
11053SOL    HW135412   3.890   4.208   0.757  2.9285  1.1235  0.2064
11053SOL    HW235413   3.890   4.129   0.887 -1.6599  0.7724  0.1565
11054SOL     OW35414   9.631   2.694   2.015  0.2339  0.3398 -0.5342
11054SOL    HW135415   9.555   2.647   2.050 -0.4412  1.5422 -0.3399
11054SOL    HW235416   9.642   2.659   1.927  0.0876 -0.5582 -0.2145
11055SOL     OW35417   4.066   0.174   0.744 -0.1951  0.4016 -0.2227
11055SOL    HW135418   3.984   0.126   0.734  1.0676 -1.6507 -1.4412
11055SOL    HW235419   4.131   0.120   0.699  1.8931  1.8157  0.9314
11056SOL     OW35420   7.822   1.010   2.856 -0.0159 -0.4686  0.0048
11056SOL    HW135421   7.878   1.057   2.794  0.3537 -0.9971 -0.0800
11056SOL    HW235422   7.825   1.061   2.936 -1.1134  0.6404 -0.6283
11057SOL     OW35423   1.686   5.934   9.138 -0.1230  0.9203  0.0727
11057SOL    HW135424   1.640   5.899   9.214 -0.6093 -0.7417 -0.9339
11057SOL    HW235425   1.708   6.024   9.163 -0.1831  0.4087  2.1856
11058SOL     OW35426   4.091   9.203   9.537 -0.0045 -0.3301  0.0166
11058SOL    HW135427   4.024   9.150   9.494  1.4245 -1.4340 -0.9387
11058SOL    HW235428   4.079   9.186   9.630 -0.9303 -0.6312 -0.1479
11059SOL     OW35429  10.062   6.911   9.401  0.0385  0.4602 -0.1592
11059SOL    HW135430  10.125   6.982   9.393  0.8426 -0.4288 -2.8418
11059SOL    HW235431  10.028   6.899   9.312 -1.4605 -1.2801  0.5773
11060SOL     OW35432   8.483   1.059   7.213  0.5868 -0.2653  0.2598
11060SOL    HW135433   8.501   1.005   7.290  1.4467  1.2411  1.1578
11060SOL    HW235434   8.570   1.082   7.180  0.2236 -0.4861 -0.8774
11061SOL     OW35435   8.106   0.057   7.133 -0.2834 -0.1502  0.5848
11061SOL    HW135436   8.170  -0.010   7.111 -1.0863 -0.7424  0.0058
11061SOL    HW235437   8.122   0.076   7.226  1.8225  0.9434  0.0564
11062SOL     OW35438   5.429   9.561   2.472  0.1608 -0.3811 -0.0678
11062SOL    HW135439   5.401   9.648   2.500  1.8259  0.8838 -2.0376
11062SOL    HW235440   5.437   9.567   2.377  0.6744 -2.5962 -0.2391
11063SOL     OW35441   6.618  10.388   7.878 -0.5084 -0.1923 -0.3041
11063SOL    HW135442   6.557  10.354   7.812 -1.9168  0.3605  0.6716
11063SOL    HW235443   6.580  10.362   7.962  0.9737 -0.4119  0.3384
11064SOL     OW35444   2.914   7.280   3.257  0.1590  0.0176  0.2301
11064SOL    HW135445   2.877   7.192   3.265 -0.1056  0.1068 -0.0261
11064SOL    HW235446   2.994   7.268   3.205 -0.5872  0.1249 -0.9597
11065SOL     OW35447   4.005   0.693   9.280 -0.2802  0.2720  0.0936
11065SOL    HW135448   3.997   0.786   9.260 -0.2962  0.1825 -0.3317
11065SOL    HW235449   4.003   0.650   9.194 -1.4942 -0.2029  0.3375
11066SOL     OW35450   9.734   6.034   4.506  0.4061  0.4530  0.1057
11066SOL    HW135451   9.775   6.067   4.585  3.0638 -2.1164 -0.0262
11066SOL    HW235452   9.640   6.037   4.524  0.9146 -0.0002  3.3654
11067SOL     OW35453  10.133   7.471   0.328 -0.0166 -0.1150 -0.2875
11067SOL    HW135454  10.135   7.418   0.248 -0.1417 -0.1254 -0.2840
11067SOL    HW235455  10.225   7.480   0.353 -0.0281 -0.8186  0.0412
11068SOL     OW35456   9.571   5.199   4.354 -0.3201 -0.0101 -0.3913
11068SOL    HW135457   9.594   5.283   4.392 -2.9637  0.8826 -0.5509
11068SOL    HW235458   9.579   5.212   4.260 -0.4093 -0.0283 -0.4019
11069SOL     OW35459   3.978  10.489   0.229  0.0961 -0.0761 -0.1175
11069SOL    HW135460   4.034  10.412   0.223  0.5162  0.1893  0.2597
11069SOL    HW235461   3.891  10.458   0.206  0.3279 -0.5846 -0.3189
11070SOL     OW35462   4.227   6.068   1.291  0.5804 -0.2825 -0.4799
11070SOL    HW135463   4.316   6.103   1.281  0.2473  0.2055 -2.0603
11070SOL    HW235464   4.222   6.042   1.383  2.1586  0.2191 -0.2104
11071SOL     OW35465  10.074   6.584   5.844  0.0376  0.3299 -0.4985
11071SOL    HW135466  10.087   6.558   5.935  0.8672  1.9463 -0.1098
11071SOL    HW235467   9.979   6.579   5.830 -0.1885  0.8711  0.7254
11072SOL     OW35468   5.933   2.767   1.598  0.3950  0.2104  0.4308
11072SOL    HW135469   5.843   2.797   1.607  0.6658  0.7954  1.2062
11072SOL    HW235470   5.925   2.685   1.548 -0.5571  0.2542  0.4851
11073SOL     OW35471   9.564   3.915   3.492 -0.2580  0.7889  0.0406
11073SOL    HW135472   9.637   3.951   3.543 -0.5260  2.5448 -0.7366
11073SOL    HW235473   9.488   3.966   3.520 -1.0813 -0.5332  0.3127
11074SOL     OW35474   5.981   2.102   6.569 -0.3927 -0.1294 -0.7585
11074SOL    HW135475   6.021   2.173   6.619  2.7171 -0.4302 -2.5789
11074SOL    HW235476   5.985   2.026   6.627 -0.3056  0.3511 -0.1302
11075SOL     OW35477   2.712   3.837   2.164 -0.5973  0.5191  0.0258
11075SOL    HW135478   2.772   3.907   2.140 -0.6565  0.5449 -0.0484
11075SOL    HW235479   2.766   3.759   2.170 -0.5762  0.5204 -0.1527
11076SOL     OW35480   6.352   0.458   8.526 -0.1901 -0.0311  0.2070
11076SOL    HW135481   6.260   0.454   8.551 -0.3758  0.3684 -0.3935
11076SOL    HW235482   6.396   0.497   8.601 -0.5369 -0.0360  0.4137
11077SOL     OW35483   0.065   4.864   4.228  0.3279  0.4563  0.3960
11077SOL    HW135484   0.146   4.820   4.204 -0.7228 -0.0554 -2.6918
11077SOL    HW235485   0.010   4.795   4.266  0.6135  0.3513  0.6198
11078SOL     OW35486   7.509   6.878   2.361 -0.1110 -0.3193 -0.2061
11078SOL    HW135487   7.554   6.861   2.278 -2.0997 -0.9280 -1.2220
11078SOL    HW235488   7.507   6.793   2.405  1.0813  0.0359  0.5712
11079SOL     OW35489   7.322   5.348   1.731 -0.3581 -0.3271 -0.0068
11079SOL    HW135490   7.347   5.310   1.647 -2.0272 -1.0606 -0.2292
11079SOL    HW235491   7.234   5.312   1.747  0.0629 -0.4802  2.2146
11080SOL     OW35492   4.726   7.010   5.511  1.2401  0.3816 -0.4205
11080SOL    HW135493   4.632   7.027   5.503  1.1515  0.0387 -0.1570
11080SOL    HW235494   4.733   6.950   5.586  1.5963 -0.1749 -0.8902
11081SOL     OW35495   3.399   6.921   5.708 -0.0430 -0.1370  0.6922
11081SOL    HW135496   3.401   6.828   5.685 -0.2051 -0.0490  0.3168
11081SOL    HW235497   3.327   6.957   5.656 -0.7668 -0.0418  1.7199
11082SOL     OW35498   6.628   4.085   7.204  0.2678  0.0466 -0.0973
11082SOL    HW135499   6.540   4.109   7.174 -0.2732 -0.0201  1.3570
11082SOL    HW235500   6.655   4.158   7.259  0.1680 -0.9518  1.3110
11083SOL     OW35501  10.618   8.319   6.094 -0.0357  0.2945 -0.1796
11083SOL    HW135502  10.625   8.365   6.178  1.3547  1.5392 -0.9333
11083SOL    HW235503  10.524   8.319   6.075 -0.3325  0.3569  1.1551
11084SOL     OW35504   7.762   6.383   6.393 -0.3615  0.0847 -0.2811
11084SOL    HW135505   7.821   6.350   6.460 -1.0488  1.7049  1.2096
11084SOL    HW235506   7.726   6.305   6.351  0.6385 -0.9571  0.7359
11085SOL     OW35507   4.849   1.394   2.648  0.7588 -0.1019 -0.0913
11085SOL    HW135508   4.906   1.470   2.639 -0.7892  1.2336  0.9358
11085SOL    HW235509   4.761   1.431   2.658 -0.0334 -2.0344  0.4607
11086SOL     OW35510   8.583   6.782   6.706  1.1849  0.2043 -0.2585
11086SOL    HW135511   8.566   6.788   6.800  1.0731 -0.1721 -0.2524
11086SOL    HW235512   8.496   6.779   6.665  1.2303  1.0645 -0.4249
11087SOL     OW35513   3.872   4.845   4.373 -0.0752 -0.2245 -0.6497
11087SOL    HW135514   3.963   4.874   4.380 -0.0315 -0.3633 -0.6362
11087SOL    HW235515   3.821   4.916   4.411  0.1119 -0.6399  0.4248
11088SOL     OW35516   7.192   1.427   8.091  0.2571  0.2108  0.2637
11088SOL    HW135517   7.267   1.375   8.063  0.1872  0.3336 -0.1630
11088SOL    HW235518   7.116   1.380   8.056  0.2645  1.3309 -1.3607
11089SOL     OW35519   6.130   3.946   1.412 -0.8473  0.3241 -0.2047
11089SOL    HW135520   6.096   3.938   1.501 -0.7254  1.9596  0.0228
11089SOL    HW235521   6.176   4.031   1.411  2.0150 -1.1064 -0.8827
11090SOL     OW35522   2.308   4.165   7.319 -0.0457  0.1424 -0.1428
11090SOL    HW135523   2.296   4.088   7.263 -0.5865  0.7532 -0.8867
11090SOL    HW235524   2.403   4.178   7.322  0.0934 -0.9009  0.4899
11091SOL     OW35525   3.305   8.547  10.307 -0.4276  0.4307 -0.3020
11091SOL    HW135526   3.340   8.615  10.365 -0.4068  0.5148 -0.4129
11091SOL    HW235527   3.304   8.468  10.361  1.7947 -0.0518 -0.8586
11092SOL     OW35528   9.082   6.329   4.334 -0.0581  0.2880  0.0297
11092SOL    HW135529   9.094   6.376   4.251  2.1761 -0.2791 -0.0269
11092SOL    HW235530   9.034   6.390   4.390 -0.3643  1.2179 -1.1966
11093SOL     OW35531   4.161   7.396   2.558  0.3951 -0.0269 -0.1029
11093SOL    HW135532   4.114   7.392   2.475 -0.4781  0.0234  0.3735
11093SOL    HW235533   4.241   7.346   2.543 -0.7696 -1.9333 -0.3405
11094SOL     OW35534   8.930  10.150   2.276  0.3441 -0.4184  0.0765
11094SOL    HW135535   8.899  10.061   2.262  0.1259 -0.3314 -0.0021
11094SOL    HW235536   8.929  10.162   2.371 -1.8539  0.2720  0.0169
11095SOL     OW35537   5.640   6.992   5.230  0.0474 -0.0377  0.5020
11095SOL    HW135538   5.550   6.992   5.261 -0.3587 -1.1435 -0.5864
11095SOL    HW235539   5.636   7.034   5.144  0.0730 -2.4262 -0.7438
11096SOL     OW35540   7.299   1.887   9.529  0.3527 -0.4978  0.0238
11096SOL    HW135541   7.239   1.947   9.574 -1.3701 -1.7012 -0.5870
11096SOL    HW235542   7.377   1.885   9.585  0.2026  1.7505  0.4120
11097SOL     OW35543   6.731   0.704  10.103 -0.6070 -0.2023  0.0717
11097SOL    HW135544   6.705   0.687  10.013 -0.1597  0.4720 -0.1940
11097SOL    HW235545   6.653   0.744  10.144 -1.0963 -1.2952  0.2361
11098SOL     OW35546   9.864   6.080   5.028  0.0081  0.1096 -0.3161
11098SOL    HW135547   9.859   6.067   4.933  1.0984  1.9311 -0.6746
11098SOL    HW235548   9.935   6.023   5.056 -0.5319 -0.6812 -0.5175
11099SOL     OW35549   7.061   5.301   2.733 -0.8095  0.5564  0.3356
11099SOL    HW135550   7.117   5.235   2.774 -0.8327  0.1968 -0.1970
11099SOL    HW235551   7.010   5.337   2.805 -0.9132 -0.1263  0.6152
11100SOL     OW35552   6.073   4.777   3.993 -0.1968 -0.2596 -0.1311
11100SOL    HW135553   6.000   4.716   3.984 -0.6778  0.2494  0.3067
11100SOL    HW235554   6.141   4.726   4.036 -0.0749 -0.9072 -1.0455
11101SOL     OW35555   9.830   2.754  10.268 -0.1752  0.7441  0.7018
11101SOL    HW135556   9.765   2.810  10.225  1.2256  1.0483 -1.1261
11101SOL    HW235557   9.789   2.667  10.268  0.3240  0.3630 -2.8126
11102SOL     OW35558   8.093   1.856   2.047 -0.0644 -0.2475  0.1446
11102SOL    HW135559   8.154   1.783   2.039  1.6156  1.2369 -1.2495
11102SOL    HW235560   8.022   1.834   1.986  2.4605  1.0927 -3.6047
11103SOL     OW35561   4.678   9.760   3.966  0.1375 -1.0612 -0.0326
11103SOL    HW135562   4.628   9.721   3.893 -0.1619 -0.3634 -0.2079
11103SOL    HW235563   4.762   9.714   3.964  0.2063 -0.9291 -0.9489
11104SOL     OW35564   9.444   8.770   8.618  0.0790 -0.2076 -0.3189
11104SOL    HW135565   9.427   8.863   8.605 -0.1067 -0.4222 -1.8884
11104SOL    HW235566   9.484   8.742   8.536 -0.1553 -1.5785  0.0082
11105SOL     OW35567   2.442   1.438   2.306  0.2752 -0.0814 -0.2095
11105SOL    HW135568   2.531   1.461   2.279 -0.2666  0.4482 -1.6472
11105SOL    HW235569   2.405   1.393   2.231 -1.4825  1.9026 -0.6230
11106SOL     OW35570   0.143   7.590   7.817 -0.4901  0.6791  0.2206
11106SOL    HW135571   0.133   7.496   7.832  0.8169  0.2396 -1.3743
11106SOL    HW235572   0.235   7.607   7.836 -0.2679  1.2521 -1.2568
11107SOL     OW35573   3.837   4.250   9.915  0.4445 -0.5550  0.2522
11107SOL    HW135574   3.837   4.303   9.995  1.9911 -1.6692  1.0223
11107SOL    HW235575   3.854   4.314   9.845 -0.9632  0.4354  0.7673
11108SOL     OW35576   9.038   6.718   3.496 -0.1360  0.0151  0.7982
11108SOL    HW135577   9.100   6.652   3.463  0.2087  0.7187  0.0142
11108SOL    HW235578   8.963   6.667   3.526 -0.2795 -0.6911 -0.6632
11109SOL     OW35579   7.695   5.215   8.252 -0.3164  0.1634  0.1256
11109SOL    HW135580   7.601   5.230   8.244 -0.3939  0.0282  0.7643
11109SOL    HW235581   7.727   5.287   8.306  0.4375  1.8577 -2.4041
11110SOL     OW35582   0.924   5.497   7.453 -0.2153  0.1421  0.2881
11110SOL    HW135583   0.939   5.542   7.370 -0.6869 -2.5577 -1.3876
11110SOL    HW235584   0.862   5.552   7.500 -0.9535  1.1144 -1.7285
11111SOL     OW35585   1.153   4.647   8.431  0.3546 -0.2379 -0.4247
11111SOL    HW135586   1.158   4.591   8.508 -1.0707  0.6363  0.3365
11111SOL    HW235587   1.102   4.723   8.459  1.0293  0.7903 -1.8293
11112SOL     OW35588   8.348   0.378   9.541  0.3621  0.1975  0.2107
11112SOL    HW135589   8.359   0.415   9.453  0.9283 -0.2634  0.0822
11112SOL    HW235590   8.373   0.286   9.531 -0.3052 -0.0440  0.6921
11113SOL     OW35591   6.660   8.526   7.462 -0.1737  0.1350  0.0258
11113SOL    HW135592   6.634   8.451   7.516  0.9503 -0.1670  0.1815
11113SOL    HW235593   6.594   8.530   7.393 -0.4608 -0.7767  0.2284
11114SOL     OW35594   1.307   8.119   0.323 -0.0638 -0.5330  0.2368
11114SOL    HW135595   1.289   8.108   0.416 -2.1578 -1.0388 -0.1751
11114SOL    HW235596   1.265   8.201   0.299  0.9495 -0.1126 -0.1638
11115SOL     OW35597   3.331   0.880   6.379 -0.2286 -0.7100  0.0970
11115SOL    HW135598   3.405   0.844   6.331 -0.8762 -0.1610 -1.3683
11115SOL    HW235599   3.365   0.959   6.421 -0.3327  0.4899 -1.9400
11116SOL     OW35600   3.022   0.173   9.381  0.4223  0.4421 -1.2776
11116SOL    HW135601   3.093   0.164   9.318  1.3000  0.8599 -0.3696
11116SOL    HW235602   2.997   0.265   9.377  0.1232  0.3591 -1.3801
11117SOL     OW35603   4.644   6.002   7.398  0.2410  0.3375  0.4547
11117SOL    HW135604   4.657   5.963   7.312  0.3100  1.5023 -0.0867
11117SOL    HW235605   4.583   5.943   7.442 -0.5882  0.2412 -0.7706
11118SOL     OW35606   6.758   4.056   6.047  0.0518  0.0685 -0.4838
11118SOL    HW135607   6.852   4.050   6.030 -0.0248 -0.8155 -0.6796
11118SOL    HW235608   6.718   4.052   5.960 -0.1897 -0.2618 -0.3602
11119SOL     OW35609   2.564   8.846   7.749  0.1438  0.5492  0.5222
11119SOL    HW135610   2.632   8.895   7.702  0.9014 -1.2321 -0.3470
11119SOL    HW235611   2.566   8.881   7.838  1.6673  1.1047  0.3017
11120SOL     OW35612   0.792   5.505   0.766 -0.2148 -0.7677  0.0923
11120SOL    HW135613   0.828   5.425   0.804  1.9739  0.5645  0.9927
11120SOL    HW235614   0.721   5.530   0.824 -0.3230 -1.5737  0.3150
11121SOL     OW35615   8.366   8.003   0.862 -0.2068 -0.7777 -0.0156
11121SOL    HW135616   8.461   8.000   0.872 -0.0566 -0.8853 -1.2463
11121SOL    HW235617   8.341   8.092   0.886  0.5216 -0.0148 -1.8787
11122SOL     OW35618   4.196   0.894   0.902  0.2517 -0.4149  0.1520
11122SOL    HW135619   4.165   0.909   0.813  0.4602  1.8610  0.3988
11122SOL    HW235620   4.260   0.964   0.918  0.3123 -0.8321  2.0414
11123SOL     OW35621   0.737   4.827  10.240  0.9893  0.4637 -0.3109
11123SOL    HW135622   0.664   4.792  10.189 -0.0730  0.4786  1.1177
11123SOL    HW235623   0.741   4.771  10.318  2.3178  0.6605 -0.2045
11124SOL     OW35624   7.782   5.672   8.324 -0.1526  0.7615  0.2955
11124SOL    HW135625   7.820   5.760   8.321  0.8901  0.3041 -0.3216
11124SOL    HW235626   7.708   5.676   8.263  1.6262  0.4502 -2.0052
11125SOL     OW35627   2.906   4.546   7.743 -0.2320  0.1923  0.0197
11125SOL    HW135628   2.982   4.592   7.708 -0.8031  1.3635  0.2792
11125SOL    HW235629   2.840   4.551   7.674 -1.0936  1.8368  0.8914
11126SOL     OW35630   0.702  10.296   8.726 -0.0640 -0.6432  0.0886
11126SOL    HW135631   0.633  10.334   8.671 -0.0985 -0.6098  0.1534
11126SOL    HW235632   0.679  10.325   8.815  0.5420  0.1402  0.0043
11127SOL     OW35633   1.663   4.101   0.339  0.1196  0.4144 -0.0294
11127SOL    HW135634   1.691   4.180   0.385  1.9640 -0.1082 -0.1570
11127SOL    HW235635   1.640   4.131   0.251 -1.7631  1.1610  0.6659
11128SOL     OW35636   0.981   3.626   7.540  0.0671 -0.1757  0.4468
11128SOL    HW135637   1.001   3.658   7.452  1.4814 -0.3373  0.6866
11128SOL    HW235638   0.888   3.646   7.552 -0.0311  0.2918 -0.8877
11129SOL     OW35639   9.533   7.771   0.033 -0.0014  0.1799 -0.1063
11129SOL    HW135640   9.453   7.726   0.061  0.7839 -0.9556  0.3528
11129SOL    HW235641   9.520   7.862   0.061 -1.5995  0.2703 -1.0341
11130SOL     OW35642   4.995   0.511   2.942  0.0088 -0.3451  0.1760
11130SOL    HW135643   4.979   0.604   2.928  0.5600  0.0162  1.7066
11130SOL    HW235644   4.963   0.469   2.862  2.0776  1.3654 -1.6969
11131SOL     OW35645   4.720   0.781   6.388 -0.0200 -0.2257 -0.4084
11131SOL    HW135646   4.628   0.801   6.405 -0.4598 -1.4789 -1.1761
11131SOL    HW235647   4.768   0.851   6.433 -1.3454  0.7273 -0.3956
11132SOL     OW35648  10.530  10.496   9.441  0.4074  0.0906  0.4746
11132SOL    HW135649  10.515  10.485   9.535  1.9393 -1.1890  0.6051
11132SOL    HW235650  10.607  10.553   9.435  0.3586  0.1166 -0.0209
11133SOL     OW35651   9.912   7.092   8.638 -0.1830 -0.1961 -0.2359
11133SOL    HW135652   9.990   7.145   8.621  0.3488 -0.5164  1.1471
11133SOL    HW235653   9.920   7.018   8.577  1.2628 -0.8982  0.7583
11134SOL     OW35654   6.633   3.363   9.753  0.5481  0.2796  0.0052
11134SOL    HW135655   6.633   3.284   9.699  0.1460 -0.3304  0.8731
11134SOL    HW235656   6.725   3.384   9.766  0.6985 -0.9948  1.1081
11135SOL     OW35657   9.503   2.220   1.994 -0.2319  0.2231  0.1081
11135SOL    HW135658   9.429   2.167   1.964 -0.2376 -0.7655  1.7981
11135SOL    HW235659   9.578   2.187   1.944 -0.5422 -0.1913 -0.0839
11136SOL     OW35660   3.773   6.858   6.784 -0.1946 -0.2509 -0.4430
11136SOL    HW135661   3.723   6.890   6.709 -1.9233 -0.6905  0.4640
11136SOL    HW235662   3.737   6.907   6.858  0.4313 -0.9048  0.3051
11137SOL     OW35663   1.124   0.722   5.908  0.2074  0.8292 -0.4834
11137SOL    HW135664   1.201   0.749   5.858 -0.1144  0.2425 -1.3103
11137SOL    HW235665   1.114   0.629   5.889  0.2447  0.5183  0.9105
11138SOL     OW35666   2.002  10.654   4.598  0.3239 -0.8905  0.1870
11138SOL    HW135667   1.958  10.623   4.519  0.3228 -1.1613  0.2912
11138SOL    HW235668   2.090  10.677   4.569  0.3505 -1.0697  0.1210
11139SOL     OW35669   6.387   8.894   2.227  0.2009 -1.0173  0.0891
11139SOL    HW135670   6.378   8.939   2.143  0.1337  0.6941  0.9731
11139SOL    HW235671   6.350   8.954   2.291  0.9959 -1.9258  1.4658
11140SOL     OW35672   4.062   0.279   8.501  0.4765 -0.0378 -0.3234
11140SOL    HW135673   4.014   0.210   8.547 -0.5143  0.8352 -0.0052
11140SOL    HW235674   4.106   0.234   8.429 -0.7629 -0.8935 -0.5756
11141SOL     OW35675   8.780  10.459   3.935  0.4852 -0.2583 -0.3180
11141SOL    HW135676   8.757  10.436   3.845  1.5490  2.5602 -1.4165
11141SOL    HW235677   8.697  10.481   3.977  0.2543  1.4868 -1.6095
11142SOL     OW35678   9.023   2.671  10.322  0.1816  0.4479  0.7870
11142SOL    HW135679   9.035   2.675  10.227  0.2531 -1.1690  0.7041
11142SOL    HW235680   9.037   2.761  10.351  1.4455  0.7356 -0.5854
11143SOL     OW35681   1.682   7.321   1.920 -0.0323  0.1187 -0.0500
11143SOL    HW135682   1.712   7.235   1.950 -0.4190 -0.4353 -1.2017
11143SOL    HW235683   1.650   7.306   1.831  0.8904  1.6601 -0.6961
11144SOL     OW35684  10.068   0.551   6.262  0.6057 -0.0177  0.1413
11144SOL    HW135685  10.102   0.461   6.262  0.6583  0.0023  0.1192
11144SOL    HW235686   9.985   0.544   6.214 -0.3694 -0.4181  1.8127
11145SOL     OW35687   2.102   4.957   5.815 -0.1074 -0.2025  0.0803
11145SOL    HW135688   2.197   4.967   5.816  0.1015 -1.8820  0.8617
11145SOL    HW235689   2.086   4.883   5.756 -0.7294 -1.2247  1.4535
11146SOL     OW35690  10.244   7.272   4.513 -0.3110 -0.3985 -0.3514
11146SOL    HW135691  10.255   7.367   4.519  0.0109 -0.1551 -3.1787
11146SOL    HW235692  10.150   7.259   4.500 -0.3594 -0.4754  0.0724
11147SOL     OW35693   8.727   1.995   8.105  0.3853  0.2399  0.3405
11147SOL    HW135694   8.810   1.955   8.130  0.1815  0.5424  1.5543
11147SOL    HW235695   8.675   1.923   8.068  1.3068  0.1251 -0.7663
11148SOL     OW35696   9.944   7.395   1.711 -0.1385 -0.0197  0.4441
11148SOL    HW135697   9.950   7.321   1.770  0.1042  0.2165  0.7203
11148SOL    HW235698  10.034   7.411   1.682  0.1365  1.3788  1.9075
11149SOL     OW35699   2.316   7.681   9.775  0.2049  0.0979 -1.0225
11149SOL    HW135700   2.325   7.765   9.819  0.8696 -0.0900 -0.7857
11149SOL    HW235701   2.251   7.696   9.707 -1.0036  0.3447  0.1439
11150SOL     OW35702   7.663   4.498   4.076  0.0696  0.0427 -0.2295
11150SOL    HW135703   7.644   4.417   4.028 -0.9175 -0.4022  0.8520
11150SOL    HW235704   7.620   4.567   4.024 -0.2140 -0.3088 -0.4694
11151SOL     OW35705   2.500   2.511   9.921 -0.5196  0.2458  0.1132
11151SOL    HW135706   2.556   2.567   9.868 -0.3512  0.3492  0.3946
11151SOL    HW235707   2.422   2.564   9.938 -0.2817  0.4709  0.5335
11152SOL     OW35708  10.285   4.595   0.488  0.1474 -0.5696  0.2670
11152SOL    HW135709  10.268   4.503   0.467 -0.3127 -0.8153  1.5716
11152SOL    HW235710  10.215   4.618   0.549 -1.4588  1.5234 -2.1920
11153SOL     OW35711   9.544   0.865   2.410 -0.0130  0.1392  0.3653
11153SOL    HW135712   9.581   0.786   2.449  1.5685  0.4832 -0.3236
11153SOL    HW235713   9.481   0.833   2.345  2.1141 -0.7286 -1.4187
11154SOL     OW35714  10.217   2.060   5.806 -0.3410 -0.1001 -0.3510
11154SOL    HW135715  10.265   2.137   5.836 -1.0709 -0.3122  1.5138
11154SOL    HW235716  10.138   2.095   5.764 -0.0286  0.1878 -0.6959
11155SOL     OW35717   5.171   1.823   4.922 -0.0941  0.3331  0.0184
11155SOL    HW135718   5.255   1.778   4.925  0.2796  1.0469  0.5724
11155SOL    HW235719   5.108   1.755   4.900  0.9173  0.1650 -2.8191
11156SOL     OW35720   2.088   3.211   5.696  0.4886 -0.1789 -0.4646
11156SOL    HW135721   2.020   3.153   5.661 -1.0788  0.0529  1.9479
11156SOL    HW235722   2.170   3.172   5.667 -0.5893 -0.8472 -2.9402
11157SOL     OW35723   1.672   9.110   8.637 -0.2364  0.7597 -0.3960
11157SOL    HW135724   1.658   9.167   8.712 -1.8750  1.0928 -0.9276
11157SOL    HW235725   1.744   9.053   8.664  0.9493  2.5286  0.4484
11158SOL     OW35726   5.606   6.553   8.669  0.2847  0.2662  0.1450
11158SOL    HW135727   5.691   6.584   8.638  0.6982 -1.2701 -0.3516
11158SOL    HW235728   5.577   6.621   8.731  1.8384  0.8510  0.2814
11159SOL     OW35729  10.225   3.043   3.698 -0.0878  0.5482 -0.2667
11159SOL    HW135730  10.156   3.100   3.732 -0.1882  0.4202 -0.2540
11159SOL    HW235731  10.307   3.086   3.723 -0.1636  0.7469 -0.3617
11160SOL     OW35732   7.710   2.318   8.940  0.2377  0.4409  1.0358
11160SOL    HW135733   7.647   2.357   8.879  0.0125 -0.0970  0.9241
11160SOL    HW235734   7.669   2.328   9.026  0.5958  1.2810  1.1252
11161SOL     OW35735   9.132   6.905   2.560 -0.0081  0.1426 -0.6957
11161SOL    HW135736   9.180   6.852   2.497 -0.8192  1.3071 -2.3453
11161SOL    HW235737   9.173   6.991   2.555 -2.0021  1.0900 -1.9354
11162SOL     OW35738   7.142   4.569   6.637 -0.4143 -0.4757 -0.4080
11162SOL    HW135739   7.126   4.634   6.568 -2.5334 -1.0495 -0.5311
11162SOL    HW235740   7.120   4.613   6.718 -0.4414 -0.5868 -0.3540
11163SOL     OW35741   1.980   4.433   5.681 -1.0023  0.5707 -0.4590
11163SOL    HW135742   2.023   4.451   5.765 -0.1915  1.7592 -1.0964
11163SOL    HW235743   2.051   4.407   5.623 -1.5539 -0.1972 -0.7951
11164SOL     OW35744   7.215   4.595   6.018  0.4586  0.2677  0.0100
11164SOL    HW135745   7.187   4.642   5.939 -1.8515  0.8372  1.1024
11164SOL    HW235746   7.300   4.635   6.040  0.3736  1.2109 -1.2614
11165SOL     OW35747   8.349   0.261   1.169  0.1522  0.6089  0.1893
11165SOL    HW135748   8.274   0.267   1.228  0.5346  0.2710  0.7199
11165SOL    HW235749   8.368   0.168   1.163  2.3318  0.7978  2.4342
11166SOL     OW35750   2.559   2.816   9.083 -0.2073 -0.1259  0.3478
11166SOL    HW135751   2.594   2.809   8.995 -1.2465  1.8699 -0.2816
11166SOL    HW235752   2.469   2.784   9.076 -1.1404  2.3273  0.0272
11167SOL     OW35753   6.771   9.421   3.880  0.1219 -0.1818  0.2981
11167SOL    HW135754   6.690   9.380   3.848  0.5649  0.2805 -1.5662
11167SOL    HW235755   6.834   9.349   3.883  0.8690  0.1835 -2.8630
11168SOL     OW35756   5.672   7.366   6.563 -0.5162 -0.2258 -0.0791
11168SOL    HW135757   5.716   7.290   6.525 -1.1875  0.0335 -1.4264
11168SOL    HW235758   5.632   7.332   6.643  1.3500 -0.6618  0.7255
11169SOL     OW35759   9.505   8.293   8.817 -0.4072 -0.1465 -0.2137
11169SOL    HW135760   9.458   8.213   8.843  0.0153 -0.0850  0.7592
11169SOL    HW235761   9.570   8.262   8.754 -0.3548 -0.5487  0.0311
11170SOL     OW35762   1.186   5.333   8.804 -0.9956 -0.0784 -0.1906
11170SOL    HW135763   1.127   5.398   8.768  0.0284  0.4538 -0.9506
11170SOL    HW235764   1.234   5.298   8.729 -0.5981 -0.7590  0.3579
11171SOL     OW35765   9.846   2.676   8.655  0.0961  0.6010 -0.0671
11171SOL    HW135766   9.771   2.701   8.602 -0.1570 -1.7889 -0.9843
11171SOL    HW235767   9.824   2.705   8.744 -0.3397  2.9294 -0.8714
11172SOL     OW35768   2.407   7.975   0.460  0.0047 -0.0787  0.3535
11172SOL    HW135769   2.378   8.020   0.380  0.2016 -0.3537  0.1299
11172SOL    HW235770   2.455   7.898   0.430 -0.8671 -0.7944  0.7357
11173SOL     OW35771   5.708   5.482   7.763  0.1967  0.0315 -0.5851
11173SOL    HW135772   5.710   5.503   7.670  1.6774 -0.4529 -0.6981
11173SOL    HW235773   5.799   5.495   7.792 -0.4287  1.1727  1.0295
11174SOL     OW35774   2.543   3.051   1.825 -0.4863 -0.2783 -0.1043
11174SOL    HW135775   2.557   3.004   1.743 -1.8352 -0.5769 -0.1876
11174SOL    HW235776   2.628   3.092   1.844 -0.0421 -0.5333 -1.4239
11175SOL     OW35777   8.483   0.305   7.882  0.4848  0.4613  0.5969
11175SOL    HW135778   8.401   0.349   7.863  0.9151  0.5355 -1.2727
11175SOL    HW235779   8.537   0.372   7.925  0.5434  1.3065 -0.7218
11176SOL     OW35780   8.514   2.666   3.613  0.1538 -0.2116 -0.2183
11176SOL    HW135781   8.531   2.651   3.706  2.4888  3.0149  0.0141
11176SOL    HW235782   8.589   2.627   3.568 -0.1680 -0.3540 -0.6449
11177SOL     OW35783   5.486   3.152   3.686 -0.4088  0.0698  0.3152
11177SOL    HW135784   5.535   3.090   3.632 -1.6573 -0.4261 -0.2745
11177SOL    HW235785   5.544   3.171   3.760  1.1432  0.3910 -0.9276
11178SOL     OW35786   9.265   5.430  10.232 -0.1870 -0.4346  0.2919
11178SOL    HW135787   9.201   5.361  10.214  0.6996 -1.5636  1.2942
11178SOL    HW235788   9.347   5.395  10.198 -0.1447  1.1654 -1.3325
11179SOL     OW35789   6.553   3.999   2.813  0.4044 -0.2028 -0.2098
11179SOL    HW135790   6.525   4.042   2.894 -1.3723 -4.3600  1.6924
11179SOL    HW235791   6.642   4.031   2.797  0.4367  1.5157  2.7852
11180SOL     OW35792   9.584   4.709   1.224 -0.0215 -0.5631 -0.7094
11180SOL    HW135793   9.624   4.629   1.189  0.2350 -0.0807 -1.5290
11180SOL    HW235794   9.625   4.720   1.309  2.0073  0.1929 -1.7284
11181SOL     OW35795   1.655   8.263   6.360 -0.4424  0.1990  0.1310
11181SOL    HW135796   1.725   8.203   6.388 -1.5410 -1.1499  0.0673
11181SOL    HW235797   1.635   8.314   6.438 -0.4450 -0.4909  0.5957
11182SOL     OW35798   1.761   1.641   6.610 -0.1114 -0.1009 -0.8597
11182SOL    HW135799   1.722   1.667   6.527 -1.7969  0.2440 -0.0006
11182SOL    HW235800   1.710   1.687   6.676  1.6214  0.1501  0.3564
11183SOL     OW35801   2.659   7.462   7.445  0.4077 -0.1792  0.0710
11183SOL    HW135802   2.625   7.418   7.523 -1.4286  0.7087 -0.1708
11183SOL    HW235803   2.716   7.531   7.479  1.2525 -1.0742  0.5259
11184SOL     OW35804   3.845   2.907   2.787 -0.4623 -0.1455 -0.3756
11184SOL    HW135805   3.802   2.849   2.725  0.2669 -0.8570 -0.2437
11184SOL    HW235806   3.830   2.866   2.872  1.7884 -1.3313 -0.4649
11185SOL     OW35807   6.056   9.736   0.092 -0.2338 -0.3785 -0.3879
11185SOL    HW135808   5.970   9.770   0.068 -0.6435 -1.8552 -1.1489
11185SOL    HW235809   6.094   9.804   0.147 -2.0368  0.1590  0.2833
11186SOL     OW35810   3.140   5.574   8.734 -0.0123 -0.4218 -0.0886
11186SOL    HW135811   3.057   5.598   8.693 -0.8117 -1.0015  1.0968
11186SOL    HW235812   3.117   5.499   8.789  0.1484  2.2494  4.0497
11187SOL     OW35813   0.066   1.020   7.370  0.0284 -0.4322  0.2738
11187SOL    HW135814   0.161   1.027   7.366 -0.1021  1.2683 -2.4402
11187SOL    HW235815   0.039   1.094   7.425  0.2310  0.4144 -0.7272
11188SOL     OW35816  10.081   7.944   1.551 -0.1302  0.9702 -0.1512
11188SOL    HW135817  10.022   7.875   1.522 -0.9106  1.4968  0.1706
11188SOL    HW235818  10.154   7.897   1.592 -1.5863  0.3386  1.9056
11189SOL     OW35819   0.045   3.780   0.501 -0.3143  0.2241  0.3114
11189SOL    HW135820   0.130   3.820   0.521 -0.0136  0.9520 -2.0438
11189SOL    HW235821  -0.017   3.853   0.500 -1.4147 -0.4867  3.5773
11190SOL     OW35822  10.341   6.244   3.082  0.0772  1.2542  0.2203
11190SOL    HW135823  10.297   6.163   3.109 -0.0200  1.0081 -0.6404
11190SOL    HW235824  10.394   6.269   3.157 -0.8997  1.1009  0.9756
11191SOL     OW35825   7.472   1.517   4.509  0.4085  0.3084  0.2884
11191SOL    HW135826   7.415   1.449   4.544 -0.9894  1.2464 -0.0876
11191SOL    HW235827   7.412   1.588   4.483  1.7860  1.5517  0.3743
11192SOL     OW35828  10.031   2.984   3.443  0.3232  0.1485  0.0751
11192SOL    HW135829  10.124   3.003   3.432  0.5542 -1.1989 -0.5239
11192SOL    HW235830   9.990   3.070   3.451  1.7586  0.7431  1.6727
11193SOL     OW35831   7.481   8.997   4.221 -0.8812  0.2954  0.1146
11193SOL    HW135832   7.552   8.974   4.280  0.3094  3.8140  0.2553
11193SOL    HW235833   7.401   8.984   4.272 -0.3248 -2.1524  0.4826
11194SOL     OW35834  10.498   3.461   7.104  0.1644 -0.1625 -0.1415
11194SOL    HW135835  10.424   3.485   7.159  1.1209  0.8792  0.7382
11194SOL    HW235836  10.575   3.478   7.159  1.1569  0.9534 -1.7996
11195SOL     OW35837   8.049   1.115   4.662  0.6672  0.0624 -0.4623
11195SOL    HW135838   7.981   1.172   4.624  1.0271  0.3445 -0.6911
11195SOL    HW235839   8.000   1.045   4.705  0.0722  1.9880  2.2710
11196SOL     OW35840   1.538   1.095   7.577  0.5445  0.1507  0.1510
11196SOL    HW135841   1.463   1.086   7.519  1.9548  1.2214 -1.9829
11196SOL    HW235842   1.515   1.045   7.655 -2.6003  0.9639 -0.1346
11197SOL     OW35843   1.316   6.332   4.868  0.6016  0.2857 -0.3755
11197SOL    HW135844   1.296   6.414   4.821 -0.4344  0.6220  0.6243
11197SOL    HW235845   1.412   6.331   4.872  0.6565  1.0849 -1.0394
11198SOL     OW35846   6.121   7.302   6.107  0.0157  0.0083  0.6230
11198SOL    HW135847   6.199   7.340   6.066 -1.5590  1.9426 -0.7338
11198SOL    HW235848   6.097   7.229   6.049 -1.1099  1.5625 -0.9542
11199SOL     OW35849   7.511   7.600  10.006 -0.0666  0.2037 -0.1175
11199SOL    HW135850   7.432   7.589   9.954 -0.0265  0.4514 -0.2334
11199SOL    HW235851   7.487   7.568  10.093 -0.1966 -0.0157 -0.2339
11200SOL     OW35852   7.087   6.180  10.232  0.1133  0.0601  0.1675
11200SOL    HW135853   7.121   6.263  10.198  2.0660 -0.5787  0.4683
11200SOL    HW235854   7.108   6.182  10.325  0.1731 -0.7844  0.1753
11201SOL     OW35855   1.668   5.110   4.933 -0.3402 -0.3754 -0.1520
11201SOL    HW135856   1.699   5.140   4.847 -0.5415 -0.1130 -0.1351
11201SOL    HW235857   1.717   5.030   4.949  1.8411  1.0626  0.7721
11202SOL     OW35858   1.462   8.079   3.791 -0.3285 -0.0271 -0.6746
11202SOL    HW135859   1.533   8.116   3.844  0.7188 -1.7720 -0.7785
11202SOL    HW235860   1.399   8.047   3.856 -0.9758  1.3791 -0.5793
11203SOL     OW35861   9.689   5.438   3.308 -0.1153 -0.5028 -0.1145
11203SOL    HW135862   9.642   5.369   3.355 -1.1726 -0.4938 -1.0925
11203SOL    HW235863   9.698   5.509   3.371 -1.1220 -0.6564  0.2237
11204SOL     OW35864   4.118   2.983   5.614  0.0620  0.1280 -0.3460
11204SOL    HW135865   4.114   2.931   5.534  3.4741  0.8910 -1.1718
11204SOL    HW235866   4.080   3.067   5.589 -1.0578 -0.3716 -0.4051
11205SOL     OW35867   7.475   3.168   2.316  1.0239  0.0128 -0.2065
11205SOL    HW135868   7.402   3.176   2.255  0.2298 -2.5056  0.2682
11205SOL    HW235869   7.480   3.253   2.360 -1.5797  0.2849 -0.3189
11206SOL     OW35870   5.480   6.985   5.963 -0.4672  0.2289 -0.0377
11206SOL    HW135871   5.481   6.992   5.868  0.9992  1.3481  0.0257
11206SOL    HW235872   5.496   6.892   5.981  0.1931  0.1735 -0.8797
11207SOL     OW35873   8.417   0.536   7.514  0.0194  0.3967 -0.2287
11207SOL    HW135874   8.440   0.533   7.607  2.1356  0.1160 -0.7132
11207SOL    HW235875   8.452   0.455   7.478  1.1711  1.4767 -1.6508
11208SOL     OW35876   8.146   1.892   5.716 -0.4566 -0.3433 -1.0121
11208SOL    HW135877   8.225   1.842   5.696  0.5845  1.9512 -3.0772
11208SOL    HW235878   8.084   1.826   5.749  1.4875 -2.5950 -1.5696
11209SOL     OW35879   3.825   2.821   9.280  0.0818 -0.1587  0.0778
11209SOL    HW135880   3.861   2.878   9.348  1.4911 -0.4644 -0.3945
11209SOL    HW235881   3.864   2.735   9.297 -0.7998 -0.6256 -0.1690
11210SOL     OW35882   2.312   9.600   4.601 -0.3938  0.1893  0.7248
11210SOL    HW135883   2.345   9.685   4.573 -0.0274  0.1710  1.0934
11210SOL    HW235884   2.256   9.619   4.676 -0.7690  0.1609  0.4559
11211SOL     OW35885   8.716   2.619   0.739  0.5520  0.0645  0.3371
11211SOL    HW135886   8.774   2.695   0.741  1.5283 -0.6365  2.7768
11211SOL    HW235887   8.661   2.629   0.816  0.6762 -1.6695  0.6800
11212SOL     OW35888   6.602   4.673   3.724 -0.3903 -0.4346  0.1024
11212SOL    HW135889   6.545   4.599   3.744  0.1499 -0.7065  0.7034
11212SOL    HW235890   6.686   4.632   3.703 -0.1351 -0.0015  0.2696
11213SOL     OW35891   7.466   3.044   5.103  0.7245  0.1727  0.0687
11213SOL    HW135892   7.490   3.136   5.114  2.4339  0.0529 -1.9910
11213SOL    HW235893   7.549   2.998   5.096 -0.1068 -1.3714 -0.0288
11214SOL     OW35894   9.435   5.552   1.432  0.3561  0.0776 -0.0095
11214SOL    HW135895   9.503   5.560   1.365  0.1191 -0.7438 -0.3617
11214SOL    HW235896   9.452   5.468   1.474 -0.3530 -0.0724 -0.0028
11215SOL     OW35897   7.318   6.672   5.936 -0.3864  0.2407  0.1710
11215SOL    HW135898   7.317   6.678   6.032 -1.1017  1.8656  0.0769
11215SOL    HW235899   7.272   6.750   5.906 -0.5348 -0.4543 -1.5074
11216SOL     OW35900   6.704   7.707   5.796  0.1894  0.1829  0.0250
11216SOL    HW135901   6.687   7.801   5.785  0.6170  0.3802  0.9672
11216SOL    HW235902   6.668   7.667   5.717 -1.9867  0.9070  0.5548
11217SOL     OW35903   3.436   5.950   3.057 -0.3535  0.1480  0.3138
11217SOL    HW135904   3.376   6.001   3.111  2.4326  1.8810  2.0274
11217SOL    HW235905   3.444   5.866   3.103 -1.2522 -0.0263  0.1756
11218SOL     OW35906   7.343   8.456   2.704 -0.5529  0.5725  0.2185
11218SOL    HW135907   7.294   8.491   2.629 -1.3112 -0.1525  0.3655
11218SOL    HW235908   7.403   8.527   2.728 -2.8242  2.2895  1.2273
11219SOL     OW35909   5.935   3.357   0.916 -0.4094  0.5656 -0.0887
11219SOL    HW135910   5.851   3.331   0.953  0.0321  0.3448  0.7801
11219SOL    HW235911   5.970   3.277   0.877  0.1306  0.2604  0.9935
11220SOL     OW35912   6.956   7.269   6.589 -0.4304 -0.1097 -0.2668
11220SOL    HW135913   6.938   7.310   6.674 -0.7985 -3.0036  1.1695
11220SOL    HW235914   7.044   7.298   6.566 -0.8388  1.8024  0.3869
11221SOL     OW35915   8.931   7.378   3.938 -0.1172 -0.3564 -0.0606
11221SOL    HW135916   8.936   7.414   4.026 -2.1019 -1.2787  0.4836
11221SOL    HW235917   8.999   7.310   3.936 -0.3823 -0.6593  0.9286
11222SOL     OW35918   1.887   1.288   3.764 -0.3732  0.4310  0.0407
11222SOL    HW135919   1.821   1.220   3.780 -0.5828  1.1963  2.9686
11222SOL    HW235920   1.938   1.254   3.690 -1.3694 -2.2016  0.4254
11223SOL     OW35921   8.234   9.348   1.429 -0.0824 -0.6182  0.0943
11223SOL    HW135922   8.279   9.432   1.424 -0.9315  0.0615  2.5759
11223SOL    HW235923   8.303   9.283   1.417  0.6624  0.4013 -1.3761
11224SOL     OW35924   3.316   1.923   9.977 -0.4995 -0.2750  0.3480
11224SOL    HW135925   3.346   1.953  10.062  1.8665  0.3207 -0.6258
11224SOL    HW235926   3.263   1.995   9.943  0.0265  0.2290  0.5831
11225SOL     OW35927   6.556   7.614   9.814 -0.0054 -0.0678 -0.7071
11225SOL    HW135928   6.541   7.529   9.772  1.3979 -0.0007 -1.4072
11225SOL    HW235929   6.478   7.665   9.793  0.0971 -0.4701 -2.2053
11226SOL     OW35930   2.446  10.362   2.240  0.7660 -0.5152  0.4352
11226SOL    HW135931   2.459  10.283   2.187 -0.7709  0.1892 -1.0909
11226SOL    HW235932   2.354  10.384   2.227  1.0503  1.2699  1.2195
11227SOL     OW35933   4.166   8.097   8.882  0.2403  0.4508  0.0094
11227SOL    HW135934   4.256   8.064   8.890 -0.4711 -1.5080  0.4183
11227SOL    HW235935   4.164   8.139   8.796  1.0721 -1.2040 -0.8725
11228SOL     OW35936   3.741   0.376   7.083 -0.2943 -0.2958  0.2677
11228SOL    HW135937   3.656   0.365   7.126 -0.2511  1.1177  0.7758
11228SOL    HW235938   3.727   0.349   6.993 -1.2011 -0.3712  0.4270
11229SOL     OW35939   7.426   9.824   9.371  0.1940  0.4245  0.2261
11229SOL    HW135940   7.339   9.848   9.404  0.6982  2.9148 -0.0455
11229SOL    HW235941   7.409   9.788   9.284 -0.6551 -0.5862  0.7815
11230SOL     OW35942   4.767   1.715   3.680  0.1795  0.1469  0.2246
11230SOL    HW135943   4.678   1.684   3.695 -0.0103  0.7828  0.4673
11230SOL    HW235944   4.769   1.801   3.723  1.1653 -0.2304  0.9736
11231SOL     OW35945   0.736   2.756   2.716 -0.1723 -0.1100  0.2064
11231SOL    HW135946   0.674   2.684   2.705  0.2677 -0.5832  0.7270
11231SOL    HW235947   0.819   2.721   2.684  0.4589 -0.4930  2.1271
11232SOL     OW35948  10.255   8.565   1.102 -0.1631  0.0223  0.2174
11232SOL    HW135949  10.210   8.649   1.102 -0.1935  0.0104 -0.4125
11232SOL    HW235950  10.203   8.510   1.160  0.0656  0.5429  0.9318
11233SOL     OW35951   4.170   7.115   8.211 -0.6636 -0.3474  0.0981
11233SOL    HW135952   4.238   7.182   8.208 -0.0049 -0.9880  0.1489
11233SOL    HW235953   4.096   7.152   8.164  0.9655 -0.9730 -3.1939
11234SOL     OW35954   1.162   4.034   0.883  0.1454  0.0891  0.1947
11234SOL    HW135955   1.086   4.021   0.939 -0.5574 -1.4082 -1.0351
11234SOL    HW235956   1.226   3.969   0.912 -0.1813 -0.6230 -0.6374
11235SOL     OW35957   9.497   5.886  10.205  0.6854  0.3638 -0.0705
11235SOL    HW135958   9.492   5.796  10.239 -0.6790 -0.1566 -1.5176
11235SOL    HW235959   9.438   5.936  10.261 -1.6350 -0.5057 -1.5767
11236SOL     OW35960   1.562   8.524   1.707 -0.4589 -0.5355  0.3989
11236SOL    HW135961   1.599   8.590   1.648 -3.3066  1.1598  0.3491
11236SOL    HW235962   1.517   8.462   1.650 -0.9325 -0.4210  0.6421
11237SOL     OW35963   3.343   9.559  10.510  0.4944 -0.2502 -0.2930
11237SOL    HW135964   3.324   9.529  10.599 -1.4964  1.4190 -0.0922
11237SOL    HW235965   3.344   9.654  10.517  0.7578 -0.1097 -1.9781
11238SOL     OW35966   9.796   6.948   1.944 -0.1371  0.1789 -0.5717
11238SOL    HW135967   9.736   6.874   1.934 -0.7949  0.6947 -0.4828
11238SOL    HW235968   9.865   6.915   2.002  0.0782 -0.6555 -1.2765
11239SOL     OW35969   1.436   6.623   2.149  0.1855 -0.3765 -0.3127
11239SOL    HW135970   1.523   6.625   2.109  2.0349 -3.0650  3.0366
11239SOL    HW235971   1.395   6.543   2.116 -0.8920  0.5870 -1.4354
11240SOL     OW35972   2.803   5.356   8.373 -0.1655 -0.6501  0.3714
11240SOL    HW135973   2.771   5.266   8.369 -1.7863 -0.1016  0.2201
11240SOL    HW235974   2.729   5.409   8.344  0.6357  0.7624  0.8047
11241SOL     OW35975  10.653   4.587  10.479 -0.3452 -0.0569  0.1435
11241SOL    HW135976  10.742   4.621  10.467 -0.3629 -0.3762 -1.0951
11241SOL    HW235977  10.615   4.641  10.548  1.2619 -0.8118  1.6757
11242SOL     OW35978   5.543  10.069   8.062  0.4480 -0.3482  0.4749
11242SOL    HW135979   5.458  10.071   8.106  0.9638 -0.9128  1.5230
11242SOL    HW235980   5.562   9.977   8.051  0.3544 -0.2121 -0.9201
11243SOL     OW35981   8.726   4.654   4.243  0.8450  0.1749 -0.8911
11243SOL    HW135982   8.761   4.603   4.316  1.3068  0.9255 -0.5768
11243SOL    HW235983   8.648   4.697   4.279  0.8201  0.1927 -0.9659
11244SOL     OW35984   9.789   8.285   4.242 -0.1131  0.1485 -0.2532
11244SOL    HW135985   9.768   8.350   4.176  1.8047  0.8482 -0.2169
11244SOL    HW235986   9.879   8.258   4.223 -0.5253 -1.8036  0.3099
11245SOL     OW35987   0.463   3.725   7.253 -0.0380 -0.3606  0.2314
11245SOL    HW135988   0.425   3.703   7.167 -1.9053  1.2472  0.5809
11245SOL    HW235989   0.538   3.781   7.232  0.6464 -1.4609 -0.3844
11246SOL     OW35990   5.796   0.270   6.283 -0.1103 -0.2540  0.1025
11246SOL    HW135991   5.821   0.222   6.204 -1.2169 -0.5776 -0.0674
11246SOL    HW235992   5.880   0.292   6.325  0.4508 -2.5416  0.3349
11247SOL     OW35993   1.594   8.725   8.370  0.2174  0.0625  0.1418
11247SOL    HW135994   1.507   8.751   8.343  0.8588 -0.3839 -2.6202
11247SOL    HW235995   1.586   8.706   8.464 -2.7530 -0.5419 -0.1595
11248SOL     OW35996   9.198   4.682   4.528 -0.1740 -0.3554 -0.1776
11248SOL    HW135997   9.199   4.724   4.442  1.5398  0.7703  0.3453
11248SOL    HW235998   9.253   4.604   4.518  0.0095 -0.2352 -0.1079
11249SOL     OW35999   5.898   4.011   6.905  0.3364 -0.1826  0.1517
11249SOL    HW136000   5.979   4.060   6.892  0.7248 -0.6274  0.8283
11249SOL    HW236001   5.866   3.994   6.817  0.4945  0.7830 -0.1020
11250SOL     OW36002   2.867   2.608   2.133 -0.8295 -0.5206  0.0860
11250SOL    HW136003   2.847   2.652   2.215  2.7220  0.1278  0.7729
11250SOL    HW236004   2.891   2.519   2.158 -0.1899 -0.4595 -0.2796
11251SOL     OW36005   1.170   0.837  10.087 -0.0280  0.1318 -0.2372
11251SOL    HW136006   1.191   0.775  10.017  0.2765  1.6407 -1.5395
11251SOL    HW236007   1.233   0.818  10.156  1.2510  0.1789 -1.3550
11252SOL     OW36008   1.963   6.946   6.844 -0.0059 -0.3803  0.0304
11252SOL    HW136009   1.879   6.899   6.842 -0.1971 -0.0569  0.2610
11252SOL    HW236010   1.970   6.978   6.934  0.2997 -0.2887 -0.0248
11253SOL     OW36011   5.132   7.913   4.748  0.2673  0.0656 -0.0814
11253SOL    HW136012   5.160   7.863   4.671 -0.1550  0.5790 -0.5804
11253SOL    HW236013   5.127   8.003   4.717 -2.2862 -0.0166 -0.1469
11254SOL     OW36014   2.322   8.376   6.017 -0.0432 -0.3534  0.1285
11254SOL    HW136015   2.266   8.326   6.077  0.3754  1.1115  1.8236
11254SOL    HW236016   2.270   8.452   5.993  0.4677 -0.0223  0.0582
11255SOL     OW36017   6.073   5.663   7.544 -0.0817  0.1683 -0.3012
11255SOL    HW136018   6.005   5.729   7.528  0.3024  0.4924 -0.6122
11255SOL    HW236019   6.097   5.632   7.457  0.0541 -0.0625 -0.1809
11256SOL     OW36020   9.636   5.757   4.237 -0.0209  0.0539  0.2387
11256SOL    HW136021   9.619   5.713   4.153  0.4074  1.4521 -0.6109
11256SOL    HW236022   9.561   5.815   4.249 -1.4125 -1.9765  2.1663
11257SOL     OW36023   1.518   9.701   1.925 -0.4941 -0.2962  0.0204
11257SOL    HW136024   1.432   9.674   1.893 -0.7039  0.0575  0.2791
11257SOL    HW236025   1.500   9.776   1.982 -0.1987 -1.2078  1.3705
11258SOL     OW36026   5.840   2.565   8.714 -0.1966  0.3913  0.6292
11258SOL    HW136027   5.793   2.617   8.649 -1.1705 -0.2536  0.7973
11258SOL    HW236028   5.868   2.487   8.666  0.6663  0.7459  0.5450
11259SOL     OW36029   6.890   1.850   8.947  0.1337 -0.3177 -0.0518
11259SOL    HW136030   6.811   1.812   8.985 -0.8134 -0.2106 -1.7784
11259SOL    HW236031   6.879   1.944   8.957  0.2012 -0.3178  0.0207
11260SOL     OW36032   1.148   7.419   8.994  0.6020 -0.3709  0.1667
11260SOL    HW136033   1.124   7.479   9.065  1.7808  1.1569 -0.6904
11260SOL    HW236034   1.108   7.336   9.020 -0.9921  0.7281  1.4344
11261SOL     OW36035   3.418   3.124   2.096  0.3240 -0.1772  0.3382
11261SOL    HW136036   3.413   3.117   2.001 -0.9441  3.0390  0.0490
11261SOL    HW236037   3.509   3.150   2.113  0.1503  0.7771 -0.1539
11262SOL     OW36038   1.636   6.729   4.511 -0.0973 -0.2045  0.0602
11262SOL    HW136039   1.692   6.704   4.437 -0.2988 -0.0112 -0.1566
11262SOL    HW236040   1.637   6.652   4.568  1.6524  0.3296  0.8418
11263SOL     OW36041   9.179   4.954   8.498 -0.2117  0.2207  0.2654
11263SOL    HW136042   9.123   5.002   8.438 -0.3155 -0.0104  0.1755
11263SOL    HW236043   9.174   5.003   8.580 -1.5737 -0.5199  0.6437
11264SOL     OW36044   5.104   9.286   6.636 -0.0216 -0.1171 -0.5671
11264SOL    HW136045   5.184   9.339   6.644  0.4108 -0.6608 -1.1513
11264SOL    HW236046   5.057   9.326   6.562  0.0369 -0.2030 -0.6517
11265SOL     OW36047   0.635   2.287   5.575 -0.4228 -0.1329 -0.1492
11265SOL    HW136048   0.721   2.320   5.550 -0.3781 -0.6049 -0.6381
11265SOL    HW236049   0.638   2.283   5.671  1.2932 -3.1322 -0.1780
11266SOL     OW36050   1.920   9.868   1.809 -0.0353 -0.2600 -0.1992
11266SOL    HW136051   1.903   9.842   1.718 -2.0719  0.9813 -0.2387
11266SOL    HW236052   1.841   9.844   1.857 -1.1230  3.3915  0.1988
11267SOL     OW36053   3.840   1.119   9.862  0.0378 -0.2719 -0.2895
11267SOL    HW136054   3.826   1.199   9.812 -0.0967  0.3861  0.7660
11267SOL    HW236055   3.926   1.088   9.834  0.2828  0.4851 -0.3931
11268SOL     OW36056   4.769  10.159   7.695 -0.0939 -0.2651  0.4030
11268SOL    HW136057   4.792  10.091   7.632 -2.1020 -1.3382  0.7723
11268SOL    HW236058   4.678  10.141   7.719 -0.5083  2.2045  0.9676
11269SOL     OW36059   7.749   1.833   9.609  0.2669 -0.3348  0.9079
11269SOL    HW136060   7.843   1.815   9.612  0.2594 -0.6848 -0.4159
11269SOL    HW236061   7.724   1.812   9.519 -0.7506  1.3719  0.7642
11270SOL     OW36062   9.187   5.642   1.371 -0.0401  0.3886 -0.1381
11270SOL    HW136063   9.277   5.636   1.403 -0.6553 -0.2560  1.6371
11270SOL    HW236064   9.191   5.701   1.296  1.8057  0.5920  0.0861
11271SOL     OW36065   4.892   0.625  10.131  0.0935  0.5221 -0.5648
11271SOL    HW136066   4.959   0.605  10.066 -0.1125 -0.1892 -0.5658
11271SOL    HW236067   4.930   0.696  10.183  1.2078 -0.4113 -0.0442
11272SOL     OW36068   8.913   8.478   9.646  0.1608  0.1656 -0.5274
11272SOL    HW136069   8.976   8.472   9.574  0.4807 -0.5018 -0.2000
11272SOL    HW236070   8.832   8.507   9.605  0.7921  1.4926 -0.8950
11273SOL     OW36071   0.594   3.928   3.251  0.3605  0.0951  0.0171
11273SOL    HW136072   0.662   3.934   3.184 -0.4580  1.5345 -0.7448
11273SOL    HW236073   0.513   3.917   3.201 -0.0614 -0.7781  0.8736
11274SOL     OW36074  10.237  10.503  10.139  0.4564  0.2238  0.4007
11274SOL    HW136075  10.253  10.532  10.229  1.3150 -0.2772  0.4207
11274SOL    HW236076  10.300  10.551  10.086 -1.3395  1.9936 -0.2264
11275SOL     OW36077   3.491   1.715   3.797 -0.1713 -0.1100 -0.3712
11275SOL    HW136078   3.542   1.785   3.836  1.6911 -0.3893 -2.1423
11275SOL    HW236079   3.425   1.694   3.863  0.9841  1.3720  1.3522
11276SOL     OW36080   8.256   6.519   6.391 -0.4362 -0.1608 -0.5975
11276SOL    HW136081   8.241   6.425   6.378 -1.6953 -0.0722  0.0336
11276SOL    HW236082   8.189   6.561   6.337  0.9491  0.4298 -1.9107
11277SOL     OW36083   0.824  10.338  10.020  0.1689  0.9258  0.5967
11277SOL    HW136084   0.744  10.336   9.968  0.6657 -2.1656 -0.2176
11277SOL    HW236085   0.856  10.428  10.011 -3.0102  2.2184  0.7688
11278SOL     OW36086   8.651   9.437   6.876 -0.1443 -0.1669 -0.0392
11278SOL    HW136087   8.564   9.478   6.875 -1.3853 -2.5693 -1.4011
11278SOL    HW236088   8.649   9.380   6.953 -0.0374 -0.6756 -0.4038
11279SOL     OW36089   6.949   9.065   9.827  0.3874  0.3369 -0.2143
11279SOL    HW136090   6.942   8.973   9.801  0.1057  0.2465  0.1858
11279SOL    HW236091   6.882   9.109   9.774  0.7867  0.3759 -0.6960
11280SOL     OW36092   6.516   8.210   8.101  0.4027 -0.4729 -0.0649
11280SOL    HW136093   6.555   8.174   8.021  1.1111 -2.0222  0.9400
11280SOL    HW236094   6.453   8.275   8.070  0.6863 -1.0193 -1.8797
11281SOL     OW36095   4.204   7.056   4.610 -0.3259  0.3291  0.1872
11281SOL    HW136096   4.287   7.077   4.567 -1.0392  2.8918 -0.0796
11281SOL    HW236097   4.142   7.120   4.576 -2.3412 -1.2135  0.7479
11282SOL     OW36098   0.520   9.303   0.706 -0.2606 -0.0799 -0.2375
11282SOL    HW136099   0.615   9.309   0.705 -0.2944  0.4227 -1.1470
11282SOL    HW236100   0.494   9.315   0.614 -1.2994  1.5413  0.2256
11283SOL     OW36101   6.918   8.809   1.482  0.0977 -0.0053  0.4598
11283SOL    HW136102   7.013   8.811   1.472  0.0740 -0.5537  0.0997
11283SOL    HW236103   6.901   8.722   1.520 -0.3892 -0.5354 -0.9156
11284SOL     OW36104   1.973   3.356   8.017  0.3123  0.3024 -0.2617
11284SOL    HW136105   1.936   3.295   7.954 -0.5432  0.1942  0.3275
11284SOL    HW236106   1.991   3.435   7.966 -2.1700  0.9184 -0.3218
11285SOL     OW36107   4.888   1.796   5.702 -0.3930  0.5105 -0.6988
11285SOL    HW136108   4.816   1.859   5.706  0.5915  1.8553 -2.6330
11285SOL    HW236109   4.940   1.814   5.780 -2.4631 -0.9864  1.1292
11286SOL     OW36110   4.938   4.273   3.003 -0.3350  0.3156 -0.2946
11286SOL    HW136111   5.004   4.341   3.018 -0.8589  0.6164  0.7654
11286SOL    HW236112   4.857   4.322   2.985 -0.9215  0.0101  1.3731
11287SOL     OW36113   3.779   5.198   7.822 -0.1372  0.7827  0.3250
11287SOL    HW136114   3.748   5.226   7.735  1.6585 -0.3344 -0.7367
11287SOL    HW236115   3.813   5.278   7.862  3.9019  0.6261 -2.2202
11288SOL     OW36116   0.755   3.985   6.166  0.5447  0.2423  0.2793
11288SOL    HW136117   0.685   4.015   6.224 -0.4747  0.5156 -1.0626
11288SOL    HW236118   0.750   3.889   6.169  0.2228  0.2605  0.3151
11289SOL     OW36119   3.594   8.091   3.808 -0.3880  0.2183 -0.0290
11289SOL    HW136120   3.639   8.012   3.781 -0.2052 -0.4856  2.1520
11289SOL    HW236121   3.504   8.063   3.827 -0.1871  0.3836  1.2748
11290SOL     OW36122   1.440   7.754   0.051 -0.2945 -0.1276  0.3231
11290SOL    HW136123   1.457   7.660   0.063 -0.5894 -0.0669  1.3411
11290SOL    HW236124   1.454   7.770  -0.042  0.3634 -1.0615  0.2540
11291SOL     OW36125   2.663   0.791   7.196 -0.0554 -0.1820  0.0363
11291SOL    HW136126   2.615   0.709   7.205  0.7354 -0.6480  0.1171
11291SOL    HW236127   2.678   0.799   7.101  0.6291 -0.5954  0.0987
11292SOL     OW36128   3.386   0.850   1.220 -1.1669 -0.3868  0.3696
11292SOL    HW136129   3.303   0.877   1.260 -2.2298 -1.0685 -1.2678
11292SOL    HW236130   3.364   0.774   1.167  0.2475  0.1437 -1.0958
11293SOL     OW36131   8.585   6.934   7.556 -0.5535  0.4336  0.2898
11293SOL    HW136132   8.562   6.868   7.491  0.1874  0.4032  0.0456
11293SOL    HW236133   8.659   6.897   7.603 -1.5343  0.1485  1.6518
11294SOL     OW36134   6.061   2.198   7.477  0.3760 -0.2591  0.3435
11294SOL    HW136135   5.981   2.219   7.526  0.1796  1.1513 -0.5262
11294SOL    HW236136   6.124   2.263   7.505  0.5071  0.0605 -0.6676
11295SOL     OW36137   9.489   1.844   8.652 -0.3836 -0.0557 -0.1580
11295SOL    HW136138   9.474   1.895   8.731  0.7703 -1.8413  1.2987
11295SOL    HW236139   9.531   1.763   8.683  0.5725 -0.6084 -2.6452
11296SOL     OW36140   0.247   2.305   0.961  0.2153  0.3089  0.5717
11296SOL    HW136141   0.155   2.279   0.967  0.1202  0.5246  0.1468
11296SOL    HW236142   0.271   2.330   1.050  0.0886 -0.4883  0.8410
11297SOL     OW36143   9.572   5.939   5.755 -0.0428  0.0188 -0.3863
11297SOL    HW136144   9.621   6.012   5.792  1.7992 -1.3678  0.0200
11297SOL    HW236145   9.516   5.909   5.827  1.6525 -1.0480  0.5334
11298SOL     OW36146   0.946   1.329   3.506 -0.0795 -0.2467 -0.1599
11298SOL    HW136147   0.869   1.372   3.467  0.6401 -0.5139 -1.9756
11298SOL    HW236148   0.969   1.385   3.580 -0.7817  0.9984 -0.8410
11299SOL     OW36149   1.270   5.052   1.201  0.5295  0.0519 -0.2770
11299SOL    HW136150   1.244   4.974   1.250  0.9325  0.0930  0.0068
11299SOL    HW236151   1.365   5.052   1.205  0.5058  1.8119  1.7255
11300SOL     OW36152   6.570   2.169   8.149  0.3063  0.4292 -0.7805
11300SOL    HW136153   6.615   2.238   8.101  1.3012  0.4098  0.0837
11300SOL    HW236154   6.477   2.182   8.130  0.6419  0.6433 -2.3758
11301SOL     OW36155   1.969   7.757   2.200  0.1442 -0.0428 -0.0888
11301SOL    HW136156   1.893   7.790   2.152 -0.2079 -0.6683  0.0268
11301SOL    HW236157   1.990   7.674   2.158 -1.0251 -1.2972  1.6521
11302SOL     OW36158   1.377   8.861   2.208 -0.8209  0.3751  0.6761
11302SOL    HW136159   1.316   8.896   2.273 -0.9539  2.0201 -0.2825
11302SOL    HW236160   1.455   8.917   2.215  0.0267 -0.7772  0.8690
11303SOL     OW36161   3.803   0.098   0.365  0.1311  0.0357  0.1073
11303SOL    HW136162   3.861   0.162   0.405 -1.0891  1.1512  0.1303
11303SOL    HW236163   3.858   0.055   0.299  0.5426  2.2807 -1.1011
11304SOL     OW36164   5.880   1.688   4.903  0.5321  0.0770  0.6204
11304SOL    HW136165   5.819   1.674   4.975 -0.6624 -0.8299 -0.5361
11304SOL    HW236166   5.946   1.620   4.914  0.3130 -0.1029  0.8160
11305SOL     OW36167   2.621   9.263   4.647 -0.2184  0.4454  0.0352
11305SOL    HW136168   2.706   9.297   4.674 -0.6594  1.3556  0.3125
11305SOL    HW236169   2.557   9.310   4.702 -0.8498 -0.9169  0.5283
11306SOL     OW36170   8.582   8.392   5.331 -0.1586  0.2638  0.0153
11306SOL    HW136171   8.487   8.384   5.325 -0.0978 -0.7020  0.1062
11306SOL    HW236172   8.612   8.302   5.340  0.9401  0.3227 -2.3369
11307SOL     OW36173   1.787   4.477   8.343 -0.1062 -0.7120 -0.2695
11307SOL    HW136174   1.789   4.382   8.351 -0.1116 -0.6795  0.1814
11307SOL    HW236175   1.693   4.499   8.348 -0.2347 -0.7991 -1.9768
11308SOL     OW36176   9.936   4.862   0.459 -0.3440  0.0220 -0.1181
11308SOL    HW136177   9.868   4.908   0.411 -2.2589 -1.8496  0.6086
11308SOL    HW236178   9.922   4.886   0.550  1.0544  0.8792 -0.1052
11309SOL     OW36179   7.236   2.242  10.333  0.4197  0.2152  0.6431
11309SOL    HW136180   7.286   2.161  10.335  0.7004  0.3555 -0.4216
11309SOL    HW236181   7.264   2.289  10.412  1.6326  0.0878  0.3114
11310SOL     OW36182   2.199   9.645   3.913  0.0417  0.0674  0.1611
11310SOL    HW136183   2.220   9.736   3.890 -0.6828  0.0040 -0.7882
11310SOL    HW236184   2.270   9.594   3.874  1.2400  0.2974  1.8911
11311SOL     OW36185   9.970   9.060   4.941 -0.3311  0.1517 -0.2844
11311SOL    HW136186   9.971   9.156   4.939 -1.8804  0.1683 -1.1401
11311SOL    HW236187   9.877   9.036   4.941 -0.0192 -1.3445  1.5693
11312SOL     OW36188   9.749   4.939   7.824  0.8250  0.1029  0.4706
11312SOL    HW136189   9.661   4.954   7.858  1.5188  0.5066  2.2112
11312SOL    HW236190   9.736   4.887   7.745 -0.9343 -0.3974  1.0459
11313SOL     OW36191   6.022   0.237   7.123 -0.1285  0.0638 -0.4288
11313SOL    HW136192   5.981   0.274   7.202  0.5650 -0.2008  0.0611
11313SOL    HW236193   5.948   0.214   7.067 -0.6237  0.5056  0.0250
11314SOL     OW36194  10.160   9.240   8.553 -0.0361 -0.7133 -0.3664
11314SOL    HW136195  10.192   9.325   8.581 -1.0688  0.5386 -2.7416
11314SOL    HW236196  10.212   9.177   8.603 -0.9245  1.2386  3.3466
11315SOL     OW36197  10.265   3.039   3.322 -0.2952  0.4229 -0.3737
11315SOL    HW136198  10.266   3.047   3.226  0.1114  0.1113 -0.4008
11315SOL    HW236199  10.350   3.001   3.343 -0.6339 -0.0926  0.0671
11316SOL     OW36200   2.833   7.600   5.933 -0.1156 -0.3340 -0.6776
11316SOL    HW136201   2.778   7.576   5.859 -0.4588 -1.9123  0.0364
11316SOL    HW236202   2.808   7.539   6.002  0.4674  0.8332  0.6281
11317SOL     OW36203   7.908   2.139   1.667 -0.1211  0.4101 -0.7176
11317SOL    HW136204   7.976   2.173   1.725  1.9624 -1.1715 -2.0789
11317SOL    HW236205   7.887   2.052   1.703 -0.7238  0.4945 -0.8519
11318SOL     OW36206   1.694   4.134   7.499 -0.0200 -0.2890  0.5752
11318SOL    HW136207   1.740   4.051   7.507 -1.9136 -1.4319  0.2265
11318SOL    HW236208   1.680   4.145   7.405 -0.1683  0.2011  0.6481
11319SOL     OW36209   2.316   1.523   4.235  0.2789  0.1831 -0.7228
11319SOL    HW136210   2.274   1.519   4.149 -1.5520  0.0226  0.1241
11319SOL    HW236211   2.315   1.616   4.257  1.5717  0.3335 -1.2328
11320SOL     OW36212   5.826   1.867   2.384 -0.2100 -0.2366 -0.4224
11320SOL    HW136213   5.766   1.939   2.362  1.0233  1.0153  0.1739
11320SOL    HW236214   5.805   1.846   2.475 -0.8751 -0.9710 -0.7304
11321SOL     OW36215   0.709  10.618   2.560  0.2851  0.2980 -0.5143
11321SOL    HW136216   0.619  10.650   2.554  0.7255  1.6235 -0.3624
11321SOL    HW236217   0.701  10.532   2.602 -0.9860 -0.0753 -1.4392
11322SOL     OW36218   9.498   4.787   5.446  0.2948 -0.8159  0.1202
11322SOL    HW136219   9.591   4.796   5.427  0.2234 -0.5134 -0.0953
11322SOL    HW236220   9.490   4.700   5.486  0.6437 -0.9097 -0.0093
11323SOL     OW36221   4.627   9.601   3.261  0.0850  0.1898  0.5049
11323SOL    HW136222   4.626   9.623   3.168  0.8233  0.7647  0.6241
11323SOL    HW236223   4.542   9.561   3.277 -1.1212  2.4200  0.1395
11324SOL     OW36224   7.434   8.597   5.041  0.2644 -0.3847  0.2961
11324SOL    HW136225   7.424   8.567   5.131 -0.1640 -0.1862  0.3189
11324SOL    HW236226   7.355   8.566   4.996  0.4463 -0.4328  0.0035
11325SOL     OW36227   3.488  10.259  10.538 -0.1106 -0.3178 -0.3831
11325SOL    HW136228   3.448  10.224  10.458 -1.7981  1.6875 -0.4781
11325SOL    HW236229   3.472  10.353  10.534  3.2097  0.4115  0.4532
11326SOL     OW36230   7.060   1.321   3.827 -0.3247  0.3875  0.5141
11326SOL    HW136231   7.137   1.293   3.778  0.1892  0.0540  1.4874
11326SOL    HW236232   7.035   1.244   3.878  0.7211  1.4295  2.7563
11327SOL     OW36233   5.678   6.578   7.567 -0.2940 -0.1984  0.2732
11327SOL    HW136234   5.760   6.537   7.542  0.3784  1.2820 -0.0786
11327SOL    HW236235   5.674   6.569   7.662 -0.6658 -1.9212  0.1209
11328SOL     OW36236   2.330   3.514   6.818  0.2425 -0.0746  0.1731
11328SOL    HW136237   2.335   3.541   6.727  1.5230 -0.6659  0.0599
11328SOL    HW236238   2.269   3.440   6.818 -1.7336  1.4667  0.2004
11329SOL     OW36239  10.595   0.898   9.502 -0.6810 -0.6348 -0.0703
11329SOL    HW136240  10.577   0.933   9.414  0.0279 -0.3573 -0.1115
11329SOL    HW236241  10.553   0.960   9.562  0.9777  0.6184 -0.1182
11330SOL     OW36242   1.585   2.126   9.561 -0.5680 -0.9036  0.0136
11330SOL    HW136243   1.595   2.087   9.648  0.2775  1.5966  1.1303
11330SOL    HW236244   1.491   2.132   9.548 -0.7042 -0.8817  0.9630
11331SOL     OW36245   2.468   6.477   4.937  0.8165  0.2066  0.4727
11331SOL    HW136246   2.461   6.516   5.024  0.7895  2.4476 -0.4532
11331SOL    HW236247   2.378   6.470   4.907  0.7508 -1.6267  1.0259
11332SOL     OW36248  10.241   8.810   5.590  0.6450 -0.2241 -0.0586
11332SOL    HW136249  10.325   8.802   5.545  0.1226 -1.8020 -0.7955
11332SOL    HW236250  10.197   8.726   5.577 -1.1152  0.5968  0.2036
11333SOL     OW36251   4.540   7.842   5.427  0.3875  0.7043  0.3900
11333SOL    HW136252   4.588   7.799   5.498  0.6405 -0.3535 -0.3861
11333SOL    HW236253   4.456   7.796   5.424  0.5228  0.4904 -0.2222
11334SOL     OW36254   0.229   6.183   9.211  0.1228 -0.2514  0.2416
11334SOL    HW136255   0.212   6.232   9.291 -1.0478  0.1795 -0.2495
11334SOL    HW236256   0.220   6.247   9.141  0.0605 -0.8548 -0.3082
11335SOL     OW36257   1.707   3.975   8.631  0.0903 -0.7241 -0.7599
11335SOL    HW136258   1.762   3.920   8.576  0.9836 -1.8869  1.1691
11335SOL    HW236259   1.769   4.031   8.678 -0.7432  1.2755 -1.9355
11336SOL     OW36260   5.402   9.218   4.931  0.1356  0.9130  0.1781
11336SOL    HW136261   5.328   9.278   4.925 -0.3156  0.4035  0.6133
11336SOL    HW236262   5.367   9.139   4.972 -0.0351 -0.8906 -3.1015
11337SOL     OW36263   8.897   8.099   5.884 -0.2768 -0.4299 -0.0503
11337SOL    HW136264   8.901   8.057   5.970  0.4799  1.1015  0.6982
11337SOL    HW236265   8.887   8.192   5.903  0.0105 -0.0438 -1.6281
11338SOL     OW36266   2.962   0.939   9.737 -0.3183  0.3812  0.1451
11338SOL    HW136267   3.032   1.002   9.756  0.3121 -0.3141  0.1551
11338SOL    HW236268   2.950   0.946   9.642 -2.1129  2.4344  0.4556
11339SOL     OW36269   5.348   0.241   8.016 -0.7263 -0.3998 -0.5608
11339SOL    HW136270   5.336   0.170   7.952 -0.1463 -0.7091 -0.3367
11339SOL    HW236271   5.348   0.321   7.963 -0.7474 -0.6148 -0.8901
11340SOL     OW36272   6.067   4.726   8.767 -0.0785 -0.1279 -0.1276
11340SOL    HW136273   6.121   4.651   8.741  1.8317  0.7577  1.1480
11340SOL    HW236274   6.037   4.704   8.855 -2.3306 -0.8365 -0.9883
11341SOL     OW36275   2.205   7.877   0.105  0.1972  0.1259  0.6719
11341SOL    HW136276   2.237   7.959   0.141 -0.4786  0.9437 -0.5357
11341SOL    HW236277   2.282   7.821   0.101  1.1627  1.4710 -0.5924
11342SOL     OW36278   8.501   7.717   2.220  0.0436  0.6451 -0.6055
11342SOL    HW136279   8.454   7.705   2.137  0.4539  2.6395 -1.1835
11342SOL    HW236280   8.594   7.721   2.194  0.2752  0.0529  0.1127
11343SOL     OW36281   9.558   1.774   3.345 -0.5151  0.0825  0.1983
11343SOL    HW136282   9.594   1.778   3.434 -0.0136  0.8479 -0.0293
11343SOL    HW236283   9.463   1.782   3.358 -0.4043  0.8278  0.6359
11344SOL     OW36284   3.354   8.443   1.168 -0.6068  0.0330  0.1402
11344SOL    HW136285   3.399   8.359   1.167 -0.6745 -0.0092  0.5325
11344SOL    HW236286   3.265   8.423   1.139 -0.5971 -0.0144  0.1437
11345SOL     OW36287   6.208   1.425  10.579 -0.8487 -0.0841  0.3125
11345SOL    HW136288   6.192   1.459  10.491 -0.3836  0.0254  0.2675
11345SOL    HW236289   6.199   1.330  10.570 -0.4083 -0.1024  0.0610
11346SOL     OW36290   6.022   4.130   7.938 -0.2547  0.1862  0.0251
11346SOL    HW136291   6.104   4.082   7.953 -0.9882 -1.1246 -0.0509
11346SOL    HW236292   5.954   4.075   7.976 -1.4395 -0.1248 -2.3181
11347SOL     OW36293   2.917   5.105   8.156 -0.0754 -0.2070 -0.6743
11347SOL    HW136294   2.952   5.103   8.245 -4.9993 -2.0109  1.6016
11347SOL    HW236295   2.864   5.185   8.153 -1.8240 -1.3260 -1.0407
11348SOL     OW36296   5.546   7.924   2.177  0.1382  0.1679 -0.2730
11348SOL    HW136297   5.543   7.958   2.267  0.7197  1.4632 -0.7196
11348SOL    HW236298   5.489   7.983   2.128 -1.4841 -1.4895 -0.4962
11349SOL     OW36299   0.696   2.395   3.464  0.1210  0.0610 -0.2734
11349SOL    HW136300   0.720   2.462   3.399  2.5300  0.0749  0.5192
11349SOL    HW236301   0.660   2.446   3.537  0.7616  0.3996 -0.1817
11350SOL     OW36302   4.110  10.654   1.801 -0.0861  0.4481  0.0594
11350SOL    HW136303   4.079  10.742   1.779 -0.1051  0.2585 -0.7153
11350SOL    HW236304   4.116  10.654   1.896 -2.2152  0.5775  0.2453
11351SOL     OW36305   6.518   0.830  10.181 -0.6646 -0.5723  0.3272
11351SOL    HW136306   6.445   0.768  10.175 -1.7874  0.7072  0.2440
11351SOL    HW236307   6.500   0.880  10.261  0.3748 -0.5235  0.5462
11352SOL     OW36308   1.264   6.186   8.902 -0.2765 -0.4638 -0.2526
11352SOL    HW136309   1.356   6.179   8.928  0.0713  1.6832 -0.7689
11352SOL    HW236310   1.257   6.133   8.823  0.5662 -0.4505 -0.3410
11353SOL     OW36311   7.909   2.464   2.689 -0.2993 -0.5597  0.0933
11353SOL    HW136312   7.988   2.516   2.704 -0.8026 -0.0050  0.9052
11353SOL    HW236313   7.853   2.521   2.637 -0.5683 -0.5664  0.3773
11354SOL     OW36314   4.741   1.249   1.634 -0.1800  0.3536  0.0336
11354SOL    HW136315   4.759   1.177   1.695 -1.3721 -0.4190 -0.4943
11354SOL    HW236316   4.719   1.323   1.690  0.6982  0.2138  0.5814
11355SOL     OW36317   7.307   0.969   5.824  0.1350  0.3865  0.6380
11355SOL    HW136318   7.398   0.968   5.797 -0.1023  1.6804 -0.3257
11355SOL    HW236319   7.264   0.903   5.769  0.2605  0.6902  0.1724
11356SOL     OW36320   5.744   4.331  10.617 -0.2772 -0.3125 -0.2049
11356SOL    HW136321   5.835   4.361  10.622 -0.3756  0.0567 -0.5721
11356SOL    HW236322   5.692   4.411  10.627 -0.5740 -0.5828  0.4825
11357SOL     OW36323   3.357   7.333   3.272 -0.3291  0.1592 -0.9174
11357SOL    HW136324   3.365   7.428   3.263  0.2457  0.2708  0.4985
11357SOL    HW236325   3.273   7.320   3.316  0.2371  0.1090  0.1600
11358SOL     OW36326   8.807   9.166   1.189  0.4426  0.4743  0.7472
11358SOL    HW136327   8.849   9.081   1.175 -0.0244  0.2658  0.5857
11358SOL    HW236328   8.798   9.202   1.101  1.4425  1.0901  0.8830
11359SOL     OW36329   3.362   4.213   7.046 -0.2159  0.3422 -0.2979
11359SOL    HW136330   3.282   4.237   7.092 -1.1126 -0.0995 -1.5563
11359SOL    HW236331   3.410   4.295   7.036 -1.0545  0.8187 -0.5188
11360SOL     OW36332   3.938   6.594   7.347 -0.2260  0.0244  0.0913
11360SOL    HW136333   4.010   6.639   7.303 -0.1774 -1.9290 -1.9961
11360SOL    HW236334   3.859   6.637   7.313 -0.1452 -0.6387 -0.9704
11361SOL     OW36335   0.682   5.589   5.201 -0.2207 -0.1734  0.1489
11361SOL    HW136336   0.601   5.633   5.226 -0.1405  0.1074 -0.0814
11361SOL    HW236337   0.660   5.545   5.118  0.1651  0.7953 -0.4802
11362SOL     OW36338   1.531   8.199   1.148  0.8603  0.5524  0.2886
11362SOL    HW136339   1.578   8.265   1.198  1.0658 -0.0500  0.9032
11362SOL    HW236340   1.566   8.115   1.179 -0.5669  0.0893  0.7427
11363SOL     OW36341   0.395  10.542   1.178  0.2276  0.5474 -0.3351
11363SOL    HW136342   0.351  10.476   1.232 -0.3194  2.0997  1.2095
11363SOL    HW236343   0.484  10.509   1.167  0.6989  0.6463  2.4753
11364SOL     OW36344   1.973   8.937   8.049 -0.1032  0.1138  0.2360
11364SOL    HW136345   1.933   8.879   7.984  1.1952  0.6927 -1.1498
11364SOL    HW236346   1.922   8.923   8.129 -2.7029  0.4109 -1.2613
11365SOL     OW36347   0.098   4.691   3.586  0.2135  0.5863  0.2122
11365SOL    HW136348   0.131   4.604   3.606  2.1019  1.2392  0.0841
11365SOL    HW236349   0.047   4.716   3.664 -0.3651 -0.6008  0.2399
11366SOL     OW36350   1.802   1.929   1.947  0.4356 -0.1163 -0.1415
11366SOL    HW136351   1.715   1.969   1.941  0.8114  1.0814  1.4972
11366SOL    HW236352   1.859   1.990   1.902  0.4992 -0.6675 -0.8117
11367SOL     OW36353   4.177   4.584   9.515  0.1975  0.1886  0.4260
11367SOL    HW136354   4.150   4.561   9.426  0.3595 -1.7814  0.8450
11367SOL    HW236355   4.115   4.653   9.541  0.7661  1.5395 -1.5229
11368SOL     OW36356   1.475   4.592  10.033 -0.0297  0.3011  0.3531
11368SOL    HW136357   1.488   4.617  10.125 -0.4015  0.2025  0.4319
11368SOL    HW236358   1.422   4.662   9.996 -0.2217  0.1383  0.3187
11369SOL     OW36359   2.313   0.082   5.904  0.1950 -0.2045 -0.1475
11369SOL    HW136360   2.373   0.114   5.837 -1.7821  2.2475 -0.8636
11369SOL    HW236361   2.311   0.151   5.970 -2.3280  0.1059 -0.4815
11370SOL     OW36362   6.222   5.960   5.532  0.1451  0.0717 -0.0037
11370SOL    HW136363   6.298   5.989   5.582 -0.8287  2.0935  0.3974
11370SOL    HW236364   6.156   6.028   5.546 -1.7500 -1.5930 -0.3556
11371SOL     OW36365   3.642   9.286   5.503 -0.1374  0.4125  0.2809
11371SOL    HW136366   3.594   9.320   5.428 -0.2939 -0.4304 -0.0205
11371SOL    HW236367   3.661   9.195   5.479  0.1211  0.2407  1.1153
11372SOL     OW36368   9.242  10.373   3.988  0.1581  0.2469  0.8477
11372SOL    HW136369   9.187  10.297   4.006  0.5483 -0.0716  0.7187
11372SOL    HW236370   9.306  10.342   3.923 -0.0029  0.8288  0.4003
11373SOL     OW36371   0.734   8.097   3.661 -0.2006  0.1343  0.0565
11373SOL    HW136372   0.802   8.121   3.725  0.0492  0.7194 -0.4250
11373SOL    HW236373   0.653   8.097   3.711 -0.2679  2.3351  0.0153
11374SOL     OW36374   9.927   0.810   0.097 -0.2806 -0.0140 -0.3133
11374SOL    HW136375   9.900   0.726   0.134  0.1797  0.3078  0.7822
11374SOL    HW236376   9.847   0.845   0.056 -0.5514 -0.8275 -0.4957
11375SOL     OW36377   3.455   8.849   9.976 -0.1872 -0.0521 -0.5265
11375SOL    HW136378   3.530   8.904   9.999 -0.1451  0.0326 -0.8707
11375SOL    HW236379   3.423   8.884   9.894 -0.2768 -0.4246 -0.6554
11376SOL     OW36380  10.280   5.480   7.514  0.3019 -0.5297  0.2187
11376SOL    HW136381  10.300   5.463   7.606  2.1991  1.1284  0.1696
11376SOL    HW236382  10.329   5.413   7.466  2.3926  0.8700  0.3009
11377SOL     OW36383   4.699  10.510   9.802  0.6042  0.0645 -0.1317
11377SOL    HW136384   4.662  10.558   9.728  0.3772  2.1760  1.2423
11377SOL    HW236385   4.770  10.458   9.764  1.2760  1.9946 -1.7059
11378SOL     OW36386   3.493   8.593   8.143 -0.9841 -0.2064 -0.5313
11378SOL    HW136387   3.562   8.586   8.209 -1.7364 -2.0794  0.1286
11378SOL    HW236388   3.523   8.661   8.083  0.5703  0.2746  0.7378
11379SOL     OW36389   2.030   7.087   9.247 -0.1831  0.2928 -0.5477
11379SOL    HW136390   2.122   7.063   9.238  0.0990  0.5772  1.1516
11379SOL    HW236391   2.031   7.167   9.300 -1.4055  0.3148 -0.5117
11380SOL     OW36392   2.879   5.638   8.627 -0.0824  0.0554 -0.1747
11380SOL    HW136393   2.839   5.663   8.544 -0.5410  0.2315  0.0932
11380SOL    HW236394   2.813   5.662   8.693 -0.1206 -0.9556  0.1643
11381SOL     OW36395   3.201   9.391  10.351 -0.3011 -0.0738 -0.4116
11381SOL    HW136396   3.188   9.446  10.274 -0.7166  0.7694  0.2430
11381SOL    HW236397   3.233   9.451  10.418 -1.8828 -0.3622  0.6722
11382SOL     OW36398   0.769   9.050   0.917 -0.3017  0.2546 -0.5317
11382SOL    HW136399   0.779   9.022   1.008 -0.2882 -0.0924 -0.6389
11382SOL    HW236400   0.837   9.117   0.906 -1.2035  1.3047  0.1043
11383SOL     OW36401   5.027   9.811   3.697 -0.3086  0.5349  0.4812
11383SOL    HW136402   5.111   9.787   3.736  0.0962  2.2046  0.6963
11383SOL    HW236403   4.996   9.884   3.749 -2.2194 -0.4349  0.7711
11384SOL     OW36404   1.827   8.842   3.093  0.7246  0.2372  0.0620
11384SOL    HW136405   1.752   8.899   3.104 -1.1702 -2.2202  0.8509
11384SOL    HW236406   1.862   8.829   3.181  1.0982  0.1302 -0.0977
11385SOL     OW36407   4.489   5.218   1.310  0.1435 -0.0082 -0.1511
11385SOL    HW136408   4.577   5.186   1.329  1.0486  1.8233 -0.9572
11385SOL    HW236409   4.486   5.225   1.214 -0.9273 -0.1134 -0.1454
11386SOL     OW36410   5.571  10.102   4.810 -0.2195 -0.4667  0.0287
11386SOL    HW136411   5.541  10.091   4.900  1.0788  2.2554  0.9040
11386SOL    HW236412   5.493  10.131   4.762 -0.3160  0.9629  0.9892
11387SOL     OW36413   0.884   3.313   0.641  0.5658  0.1107  0.3176
11387SOL    HW136414   0.793   3.327   0.615  1.2171  1.6274 -1.3915
11387SOL    HW236415   0.891   3.355   0.727  0.1901  2.2405 -0.6227
11388SOL     OW36416   5.923   8.353  10.154 -0.7707  0.7768  0.4939
11388SOL    HW136417   5.908   8.262  10.131  0.9741  0.5944 -0.0703
11388SOL    HW236418   5.844   8.379  10.202 -1.6819 -0.7479 -0.0963
11389SOL     OW36419   7.500   9.756   9.617  0.9193 -0.0708 -0.4298
11389SOL    HW136420   7.473   9.771   9.527  0.5598 -3.0993 -0.9328
11389SOL    HW236421   7.425   9.712   9.658  1.5606  0.0653  0.9564
11390SOL     OW36422   0.224  10.019   6.073  0.2149 -0.3731  0.2025
11390SOL    HW136423   0.267   9.948   6.122 -2.9219 -1.7016  1.2592
11390SOL    HW236424   0.217  10.090   6.137  1.7396  0.3073 -0.3253
11391SOL     OW36425   9.455   8.996   3.641  0.5243  0.0224  0.0486
11391SOL    HW136426   9.517   9.065   3.617 -0.5218  1.3280  0.9035
11391SOL    HW236427   9.400   8.986   3.563  1.3576 -0.6375 -0.4616
11392SOL     OW36428   5.453   3.100   5.060  0.2374  0.0860  0.5219
11392SOL    HW136429   5.397   3.168   5.097 -0.8879  0.8421 -2.3254
11392SOL    HW236430   5.534   3.145   5.037 -0.6728  0.7037 -1.7824
11393SOL     OW36431   8.744   1.822   0.223 -0.3537 -0.7903  0.2082
11393SOL    HW136432   8.820   1.831   0.280  0.4019 -1.3269 -0.6848
11393SOL    HW236433   8.677   1.783   0.279 -0.1824  0.2579  1.1719
11394SOL     OW36434   5.490   0.640  10.066  0.1153  0.1693  0.7664
11394SOL    HW136435   5.574   0.685  10.073  0.8142 -0.2728 -2.8774
11394SOL    HW236436   5.465   0.650   9.974 -2.4760 -2.0538  1.1058
11395SOL     OW36437   5.865   3.630   4.569  0.5989 -0.0942 -0.1148
11395SOL    HW136438   5.846   3.721   4.589 -1.4635 -0.9210  2.1992
11395SOL    HW236439   5.852   3.623   4.474 -0.5817  1.7176 -0.1339
11396SOL     OW36440   0.578  10.034   8.990 -0.5176  0.1075  0.3800
11396SOL    HW136441   0.648   9.981   9.027 -0.8239  0.5094  1.5728
11396SOL    HW236442   0.529   9.973   8.935  0.2147 -0.3909  0.2572
11397SOL     OW36443   2.928   2.098   4.010  0.0408  0.6751  0.3256
11397SOL    HW136444   2.882   2.017   4.029 -0.2197  0.9334  0.8155
11397SOL    HW236445   2.921   2.109   3.915 -2.3142  1.5461  0.5542
11398SOL     OW36446   0.288   7.023   5.632  0.2361 -0.5763 -0.2559
11398SOL    HW136447   0.337   7.073   5.696 -0.7353  0.9237 -0.6349
11398SOL    HW236448   0.344   7.022   5.554  1.2446 -2.0672  0.4434
11399SOL     OW36449   3.453   1.388   4.924  0.2370 -0.2042 -0.3712
11399SOL    HW136450   3.466   1.353   5.012 -0.4569 -0.2471 -0.2789
11399SOL    HW236451   3.429   1.479   4.939  1.5498  0.2012 -0.5897
11400SOL     OW36452   7.348   6.772   5.636 -0.0356 -0.3158 -0.2965
11400SOL    HW136453   7.339   6.753   5.542 -0.3716 -0.8856 -0.1555
11400SOL    HW236454   7.426   6.722   5.663  0.1672 -0.0085 -0.3046
11401SOL     OW36455  10.387   4.147   6.990  0.0292 -0.0363  0.1158
11401SOL    HW136456  10.293   4.128   6.979 -0.0239  1.1268 -2.0194
11401SOL    HW236457  10.407   4.209   6.920  2.3191  0.1017  0.8157
11402SOL     OW36458  10.614   5.056   3.260  0.1108  0.2709  0.1487
11402SOL    HW136459  10.631   5.020   3.347  2.1321 -0.5596 -0.5138
11402SOL    HW236460  10.674   5.008   3.203  1.1394  2.9515 -1.1978
11403SOL     OW36461   2.620   7.254   8.604 -0.5710  0.0832  0.7836
11403SOL    HW136462   2.594   7.162   8.607 -1.5130  0.3208  0.3149
11403SOL    HW236463   2.661   7.265   8.518 -1.6920  0.3983  0.2690
11404SOL     OW36464   1.009   6.692   2.837 -0.2537  0.6464 -0.2629
11404SOL    HW136465   0.925   6.736   2.841  0.4003  1.8888  0.7564
11404SOL    HW236466   1.008   6.631   2.910 -0.3424  0.5265 -0.3646
11405SOL     OW36467   3.475   0.049   9.682  0.0336  0.3078  0.2312
11405SOL    HW136468   3.483  -0.018   9.614 -3.1397  0.0125  0.0012
11405SOL    HW236469   3.466  -0.001   9.763  0.9670  0.5728  0.5014
11406SOL     OW36470   8.438   6.807   6.098  0.6843  0.2198  0.0770
11406SOL    HW136471   8.525   6.846   6.104  1.0281 -0.4818 -0.2078
11406SOL    HW236472   8.442   6.752   6.020  1.1364 -2.5679  1.8983
11407SOL     OW36473   1.704   0.632   0.942  0.0575 -0.1755 -0.1953
11407SOL    HW136474   1.779   0.644   0.885  0.1195 -0.7015 -0.2249
11407SOL    HW236475   1.671   0.544   0.921 -0.6559  0.1058 -0.2937
11408SOL     OW36476   5.074   1.015   8.799  0.4381 -0.2904  0.2421
11408SOL    HW136477   5.038   1.074   8.734  0.3799 -2.2649 -1.6077
11408SOL    HW236478   5.008   0.947   8.810  0.3464  0.0864  2.5879
11409SOL     OW36479   1.334   6.502   3.789  0.2202 -0.1218 -0.7135
11409SOL    HW136480   1.324   6.428   3.729 -0.3542 -0.7228  0.1010
11409SOL    HW236481   1.246   6.516   3.825  0.0650  1.6642 -1.6473
11410SOL     OW36482   2.796   6.194   8.826  0.2994  0.2632 -0.6218
11410SOL    HW136483   2.724   6.224   8.882 -0.1995 -0.4468 -0.8628
11410SOL    HW236484   2.868   6.179   8.886  0.0095  0.2538 -0.2703
11411SOL     OW36485   8.027  10.431   4.725 -0.7488 -0.3452 -0.2774
11411SOL    HW136486   7.980  10.422   4.808  1.6829 -0.2251  1.2143
11411SOL    HW236487   8.060  10.344   4.705 -0.2597 -0.1268 -0.4487
11412SOL     OW36488   1.462   1.490   5.856 -0.3935 -0.4856  0.6295
11412SOL    HW136489   1.437   1.572   5.813  0.8575 -0.4310 -0.0212
11412SOL    HW236490   1.510   1.517   5.934 -1.6424 -0.5991  1.4605
11413SOL     OW36491   7.073   9.310   4.315  0.6896  0.5272 -0.3436
11413SOL    HW136492   7.047   9.401   4.305  1.9284  1.0325  0.7509
11413SOL    HW236493   7.138   9.296   4.246  1.5178  0.9045  0.3411
11414SOL     OW36494   0.958   9.245   0.828 -0.1854 -0.7139 -0.3409
11414SOL    HW136495   1.009   9.316   0.788 -1.3555 -0.8535 -2.2026
11414SOL    HW236496   0.892   9.290   0.880  1.2448 -0.5274  1.4125
11415SOL     OW36497   0.495   5.031   5.926  0.1761  0.1175 -0.2168
11415SOL    HW136498   0.512   4.944   5.963 -0.0652 -0.3623 -1.2046
11415SOL    HW236499   0.416   5.061   5.971  0.5450  0.0476  0.4898
11416SOL     OW36500   6.900   8.305   4.471 -0.0050  0.1360 -0.1373
11416SOL    HW136501   6.861   8.311   4.384 -1.2847  0.6896  0.4430
11416SOL    HW236502   6.950   8.224   4.470 -1.9043 -1.0935 -0.6662
11417SOL     OW36503   1.934   1.839   6.795 -0.4178 -0.8418 -0.3599
11417SOL    HW136504   2.013   1.821   6.744  0.6464  1.6087  0.2858
11417SOL    HW236505   1.868   1.781   6.758  1.8419 -3.6445 -0.3534
11418SOL     OW36506   6.516   1.949   5.135 -0.3647 -0.0189  0.4366
11418SOL    HW136507   6.498   1.857   5.117  0.9292 -0.5134  1.5062
11418SOL    HW236508   6.543   1.985   5.050  0.8773 -1.0809  0.3568
11419SOL     OW36509   5.366   9.165   4.464  0.3824  0.5476 -0.7873
11419SOL    HW136510   5.422   9.236   4.434 -1.3353  1.8241 -1.0660
11419SOL    HW236511   5.368   9.101   4.393  0.9257  0.8986 -1.0896
11420SOL     OW36512   3.161   0.634   3.724 -0.0265  0.1951  0.2043
11420SOL    HW136513   3.211   0.553   3.729 -0.1229  0.1421  0.3317
11420SOL    HW236514   3.208   0.694   3.783 -0.0228  0.1944  0.2020
11421SOL     OW36515   0.384   2.253   6.726 -0.0868 -0.3117  0.1953
11421SOL    HW136516   0.443   2.180   6.745 -0.0023 -0.3475 -0.1840
11421SOL    HW236517   0.302   2.212   6.698  0.1492 -0.2694 -0.5851
11422SOL     OW36518   2.484   1.272   7.019  0.1102 -0.2718 -0.0105
11422SOL    HW136519   2.515   1.190   7.059  0.8580  0.2200  0.4568
11422SOL    HW236520   2.444   1.320   7.092 -0.0858 -0.1098 -0.2246
11423SOL     OW36521   4.657   8.498  10.650  0.1252  0.6393 -0.0794
11423SOL    HW136522   4.730   8.540  10.604  1.4313 -0.1870  1.1631
11423SOL    HW236523   4.657   8.408  10.618 -0.0154  0.5009  0.3039
11424SOL     OW36524   1.118   6.222   4.604 -0.5864 -0.2951 -0.0083
11424SOL    HW136525   1.069   6.193   4.681  0.8639 -1.1272  0.6445
11424SOL    HW236526   1.121   6.145   4.547 -0.2742 -0.1784 -0.1518
11425SOL     OW36527   2.437   3.805  10.530  0.2686 -0.0596  0.3255
11425SOL    HW136528   2.404   3.715  10.526 -0.6914  0.2573  0.9140
11425SOL    HW236529   2.516   3.799  10.584  0.2099 -0.5526  0.3594
11426SOL     OW36530   0.681   3.216   0.296 -0.4571 -0.3505 -0.1027
11426SOL    HW136531   0.752   3.182   0.241  0.2264  0.6957  0.0975
11426SOL    HW236532   0.725   3.276   0.356 -1.4894  0.1183  0.1959
11427SOL     OW36533   7.033   9.423   5.036 -0.2564  0.2475  0.3006
11427SOL    HW136534   6.951   9.454   5.073 -0.7927  0.2503 -0.8372
11427SOL    HW236535   7.064   9.495   4.982  0.2985  0.1030  0.4190
11428SOL     OW36536   8.953   8.417   2.389  0.0944  0.2098  0.1710
11428SOL    HW136537   8.969   8.367   2.469  0.1900  0.1371  0.1065
11428SOL    HW236538   8.867   8.387   2.360  0.0806  0.2013  0.2210
11429SOL     OW36539  10.427   5.819   3.014 -0.1579 -0.0926  0.1406
11429SOL    HW136540  10.346   5.869   3.009 -0.3238 -0.4255 -0.6770
11429SOL    HW236541  10.487   5.876   3.063 -0.0117  1.4103 -1.6603
11430SOL     OW36542   9.983   7.701   1.735  0.7531 -0.6300  0.1799
11430SOL    HW136543   9.891   7.727   1.744  0.9944  0.5467 -0.4959
11430SOL    HW236544   9.986   7.646   1.657  0.7246 -0.0680 -0.2241
11431SOL     OW36545   0.444   3.030   5.877 -0.6500  0.2299 -0.6848
11431SOL    HW136546   0.383   2.978   5.823 -0.7774  0.1182 -0.4374
11431SOL    HW236547   0.531   3.007   5.844 -0.6205 -1.0798  0.2090
11432SOL     OW36548   5.711   2.436   9.870 -0.1733  0.3406  0.8306
11432SOL    HW136549   5.676   2.355   9.831  0.0564  0.4353  0.4187
11432SOL    HW236550   5.719   2.496   9.796  0.7577  0.3545  0.9373
11433SOL     OW36551   2.803   2.784   5.574 -0.2807  0.2583  0.0821
11433SOL    HW136552   2.863   2.855   5.548  0.9556 -0.6486  0.3455
11433SOL    HW236553   2.800   2.788   5.669 -0.5198  0.2077  0.0764
11434SOL     OW36554   4.879  10.372   4.336  0.2953 -0.6972  0.7684
11434SOL    HW136555   4.805  10.313   4.318  0.1460 -0.0191 -1.0644
11434SOL    HW236556   4.950  10.337   4.282  0.2948  0.5917 -0.0980
11435SOL     OW36557   1.720   3.112   6.511  0.4221 -0.0242  0.5525
11435SOL    HW136558   1.809   3.148   6.514  0.4741 -0.2264  1.7780
11435SOL    HW236559   1.728   3.034   6.457  0.7997  0.4551 -0.1065
11436SOL     OW36560   1.366   4.912   4.015  0.1656  0.0794 -0.5953
11436SOL    HW136561   1.316   4.966   4.076  1.8883 -0.3042  1.2536
11436SOL    HW236562   1.304   4.891   3.946 -0.7209  4.0773 -1.2699
11437SOL     OW36563   2.088   8.848   1.872  0.6120 -0.3966  0.3195
11437SOL    HW136564   2.120   8.884   1.789  0.9579  0.4832  0.8216
11437SOL    HW236565   2.074   8.925   1.927  1.6431 -1.0595  1.5324
11438SOL     OW36566   6.413   7.499   2.874  0.3479  0.3745  0.1261
11438SOL    HW136567   6.356   7.567   2.910  0.1416  0.3184 -0.0930
11438SOL    HW236568   6.482   7.489   2.940 -1.0443 -1.0751  1.4522
11439SOL     OW36569   2.402   9.794   9.636 -0.2164 -0.2720 -0.3931
11439SOL    HW136570   2.495   9.793   9.661 -0.2989  1.1812  0.0449
11439SOL    HW236571   2.390   9.714   9.584  0.9332 -1.2488  0.7743
11440SOL     OW36572   0.887   8.273   4.483  0.0959  0.3615 -0.3533
11440SOL    HW136573   0.817   8.214   4.453  1.2216 -1.2566  0.0724
11440SOL    HW236574   0.845   8.328   4.549 -0.9447 -0.1010 -0.5985
11441SOL     OW36575   8.506   4.063   8.473  0.3638 -0.4155  0.1100
11441SOL    HW136576   8.527   4.060   8.380  0.6862 -2.7876  0.2126
11441SOL    HW236577   8.582   4.026   8.517  0.0122  0.2088  1.2947
11442SOL     OW36578   1.230   5.522   1.879 -0.0071 -0.1332  0.0435
11442SOL    HW136579   1.168   5.462   1.837 -0.1381  0.2284 -0.2860
11442SOL    HW236580   1.183   5.606   1.883 -0.0783 -0.2086  1.1054
11443SOL     OW36581   2.961   7.163   5.290  0.5851 -0.2544  0.2143
11443SOL    HW136582   2.998   7.237   5.243  2.3214 -0.8561  0.5791
11443SOL    HW236583   3.008   7.161   5.373  0.0164 -1.3037  0.5354
11444SOL     OW36584   4.719   1.110   5.227  0.0691  0.0446 -0.2072
11444SOL    HW136585   4.791   1.160   5.264 -0.4934  0.3800  0.4501
11444SOL    HW236586   4.746   1.093   5.136  0.4875  1.0896 -0.2940
11445SOL     OW36587   7.205  10.412   2.695  0.0809 -0.6526  0.8396
11445SOL    HW136588   7.177  10.371   2.777  1.2811 -0.6896  1.2587
11445SOL    HW236589   7.300  10.420   2.704 -0.0216  1.5737  0.4647
11446SOL     OW36590   4.379   5.803   1.912  0.2366 -0.2292  0.1749
11446SOL    HW136591   4.471   5.789   1.889  0.6705  0.2672  1.5318
11446SOL    HW236592   4.333   5.797   1.828  1.3888 -1.3393 -0.4226
11447SOL     OW36593   0.937   1.948  10.328  0.1159 -0.1899 -0.0529
11447SOL    HW136594   0.850   1.915  10.348 -0.2355  2.1996  3.1775
11447SOL    HW236595   0.928   1.991  10.243 -1.7759 -0.1815  0.1154
11448SOL     OW36596   7.265   1.192   2.408 -0.1394  0.1744 -0.2355
11448SOL    HW136597   7.229   1.280   2.397  2.3193  1.2763 -0.2109
11448SOL    HW236598   7.296   1.167   2.321 -1.9316 -1.2602 -0.5174
11449SOL     OW36599   3.952   9.551   7.204 -0.0075  0.5138  0.0762
11449SOL    HW136600   3.993   9.465   7.192 -0.0988  0.3843  0.6522
11449SOL    HW236601   3.909   9.569   7.120 -0.4501 -0.2555  0.1284
11450SOL     OW36602   8.531   5.591   4.365 -0.0268 -0.0745  0.1360
11450SOL    HW136603   8.601   5.582   4.430 -0.5035  1.9407  1.0291
11450SOL    HW236604   8.465   5.527   4.390  0.8373 -0.9658  0.1762
11451SOL     OW36605   6.250   8.812   0.534 -0.7038  0.3226 -0.5796
11451SOL    HW136606   6.317   8.790   0.598 -1.1799 -1.8346 -0.7367
11451SOL    HW236607   6.239   8.907   0.542 -1.1954  0.0894  2.9883
11452SOL     OW36608   8.221   5.849   7.228 -0.3213  0.3214 -0.3128
11452SOL    HW136609   8.271   5.776   7.264 -2.2341 -1.2226 -0.6195
11452SOL    HW236610   8.130   5.819   7.229 -1.3353  3.1290  0.5200
11453SOL     OW36611   0.408   2.918   9.626  0.0988 -0.7035 -0.6027
11453SOL    HW136612   0.417   2.908   9.720 -0.6328 -1.8292 -0.6300
11453SOL    HW236613   0.324   2.963   9.613 -0.0734 -1.0515 -0.7233
11454SOL     OW36614   9.974   8.564   4.020 -0.3923  0.1009  0.4538
11454SOL    HW136615   9.904   8.503   3.995 -2.1546  1.0965  2.5959
11454SOL    HW236616   9.951   8.645   3.975 -1.5082  0.8432  2.2592
11455SOL     OW36617   3.456   9.506   9.152 -0.3038  0.2507 -0.1748
11455SOL    HW136618   3.477   9.468   9.067 -1.6152  2.1437 -1.4350
11455SOL    HW236619   3.510   9.457   9.214 -0.3435 -2.1549 -1.8809
11456SOL     OW36620   4.228   7.972   1.169  0.1845 -0.5489 -0.5113
11456SOL    HW136621   4.158   8.026   1.207  0.4328 -0.1162 -0.6553
11456SOL    HW236622   4.254   7.914   1.240  1.0786  0.6799  0.2184
11457SOL     OW36623   9.212  10.361   3.632  0.1127 -0.4958 -0.1666
11457SOL    HW136624   9.155  10.327   3.563  0.4056  0.6895 -1.0169
11457SOL    HW236625   9.213  10.456   3.618  2.5876 -0.4989 -0.4328
11458SOL     OW36626   6.496   0.266  10.233  0.3632 -0.1031  0.7152
11458SOL    HW136627   6.538   0.254  10.319  2.7437 -0.8585 -0.4601
11458SOL    HW236628   6.427   0.199  10.231 -0.4597  0.6210  2.4032
11459SOL     OW36629  10.344   7.674   3.878 -0.0446 -0.1586  0.4049
11459SOL    HW136630  10.417   7.644   3.824  0.7077 -0.5002  1.5853
11459SOL    HW236631  10.275   7.696   3.814 -0.1869 -3.0913 -0.6206
11460SOL     OW36632   1.842   0.289  10.585  0.2709  0.1282  0.9385
11460SOL    HW136633   1.834   0.377  10.621  1.3342  0.8302 -0.4151
11460SOL    HW236634   1.830   0.231  10.660  1.9995  1.4929  2.3810
11461SOL     OW36635   7.116   6.958   5.565  0.0153  0.1621  0.4871
11461SOL    HW136636   7.103   6.863   5.571  1.7359 -0.4388 -2.7436
11461SOL    HW236637   7.034   6.990   5.526  0.3294 -0.4543 -0.7556
11462SOL     OW36638   9.581   2.638   3.689  0.7554  0.5930 -0.0532
11462SOL    HW136639   9.530   2.558   3.682  0.0293  0.9251  1.2227
11462SOL    HW236640   9.562   2.686   3.608  1.7085 -0.7813 -1.1268
11463SOL     OW36641   5.864   2.138   3.315 -0.1292 -0.3748  0.1760
11463SOL    HW136642   5.875   2.045   3.295  3.3588 -0.2067  0.5787
11463SOL    HW236643   5.872   2.181   3.230 -3.0088 -0.3916 -0.1973
11464SOL     OW36644   1.688   5.295   5.392 -0.3368  0.4933 -0.0929
11464SOL    HW136645   1.682   5.316   5.299  0.3886 -0.1562 -0.2984
11464SOL    HW236646   1.780   5.310   5.414 -0.2365 -0.5038  0.2231
11465SOL     OW36647   9.310   8.712   5.390 -0.1033 -0.2727  0.4799
11465SOL    HW136648   9.234   8.734   5.336  0.5868 -0.2499 -0.5109
11465SOL    HW236649   9.298   8.762   5.471 -0.5355  0.6737 -0.1582
11466SOL     OW36650   3.420   6.700   6.551  0.3853  0.6691  0.3680
11466SOL    HW136651   3.388   6.665   6.468  0.0970 -0.7393  1.0474
11466SOL    HW236652   3.503   6.742   6.529  0.6271 -0.2364 -0.5331
11467SOL     OW36653  10.328   7.979   5.471 -0.2388 -0.0072 -0.1760
11467SOL    HW136654  10.344   8.039   5.399 -2.0923  1.5160  0.5996
11467SOL    HW236655  10.260   7.920   5.438  1.3179 -1.5145 -0.8074
11468SOL     OW36656   1.780  10.290  10.210  0.5243  0.2096 -0.3420
11468SOL    HW136657   1.764  10.273  10.117 -1.8873 -1.3453  0.2757
11468SOL    HW236658   1.849  10.228  10.234  0.0186 -0.5265 -0.7555
11469SOL     OW36659   7.700   5.340   7.987 -0.1096  0.9191  0.5631
11469SOL    HW136660   7.613   5.304   7.970  0.6355  0.2284 -2.3603
11469SOL    HW236661   7.717   5.319   8.079 -1.6184 -2.1524  0.2803
11470SOL     OW36662   0.242   1.918   3.665  0.7045  0.4411 -0.7637
11470SOL    HW136663   0.189   1.995   3.688  0.3112 -0.0546  0.0195
11470SOL    HW236664   0.324   1.931   3.711 -0.6758 -1.3730  2.5210
11471SOL     OW36665   9.203   6.420   8.320  0.2971  0.6837 -0.3362
11471SOL    HW136666   9.244   6.340   8.286 -0.7455 -0.0664  0.1324
11471SOL    HW236667   9.138   6.444   8.254  0.3002  0.8989 -0.2624
11472SOL     OW36668   2.495   7.938   9.819 -0.0284  0.3647 -0.1417
11472SOL    HW136669   2.404   7.967   9.828  0.0326  0.1672  1.5965
11472SOL    HW236670   2.544   8.019   9.801 -0.4266  0.6507  0.0339
11473SOL     OW36671   1.327   2.636   5.942  0.2200  0.4537 -0.5551
11473SOL    HW136672   1.397   2.661   6.002  0.1883  0.8473 -0.6793
11473SOL    HW236673   1.347   2.682   5.861  1.8004 -2.1587 -1.7887
11474SOL     OW36674   8.624   4.208   1.291  0.3592  0.1344 -0.0223
11474SOL    HW136675   8.624   4.296   1.328  0.6476  0.4291 -0.7112
11474SOL    HW236676   8.544   4.203   1.239  1.9701  1.2619 -2.8645
11475SOL     OW36677   1.658   3.110   4.802 -0.1096 -0.3531 -0.1420
11475SOL    HW136678   1.726   3.114   4.735 -0.5414  2.1307 -0.5009
11475SOL    HW236679   1.698   3.151   4.879 -0.8227  0.0976 -0.0052
11476SOL     OW36680   0.269   1.774   1.321 -0.6288 -0.3622  0.4284
11476SOL    HW136681   0.280   1.824   1.240  0.6830 -0.7715  0.3331
11476SOL    HW236682   0.239   1.839   1.385  1.0467  0.5824  0.3104
11477SOL     OW36683   3.443   3.241   8.055 -0.3344  0.4624  0.1735
11477SOL    HW136684   3.508   3.171   8.060 -0.4688  0.4348  2.7305
11477SOL    HW236685   3.477   3.300   7.988  1.4848 -0.3960  0.2777
11478SOL     OW36686   4.126   5.316   2.668  0.0548  0.0913 -0.1747
11478SOL    HW136687   4.177   5.397   2.668  0.5640 -0.2065  1.1761
11478SOL    HW236688   4.110   5.298   2.575  1.6609  0.6722 -0.5995
11479SOL     OW36689   0.154   2.658   4.654 -0.0630 -0.0539 -0.3004
11479SOL    HW136690   0.249   2.663   4.664 -0.3204  1.2595  2.6398
11479SOL    HW236691   0.123   2.621   4.737 -2.1171 -1.0655 -1.4333
11480SOL     OW36692   0.872   3.133   5.011  0.3107  0.6767 -0.0389
11480SOL    HW136693   0.937   3.203   4.998  0.8500  0.1950  0.0328
11480SOL    HW236694   0.923   3.059   5.043 -0.5424  0.8882  1.9657
11481SOL     OW36695   1.328   6.642   6.456  0.0876  0.5009 -0.2806
11481SOL    HW136696   1.368   6.626   6.542  0.5786 -2.5814 -0.9522
11481SOL    HW236697   1.244   6.597   6.460  0.5845 -0.6503 -1.7029
11482SOL     OW36698   7.363   8.051   0.031  0.2748 -0.3462  0.1961
11482SOL    HW136699   7.343   8.020  -0.057  0.0313  1.2545 -0.3368
11482SOL    HW236700   7.445   8.007   0.054 -0.1606 -1.5221 -0.4266
11483SOL     OW36701   4.840  10.319   4.650 -0.0697 -0.3933 -0.2185
11483SOL    HW136702   4.836  10.337   4.556  1.5589  0.2789 -0.1800
11483SOL    HW236703   4.867  10.227   4.655  0.1450 -0.3419 -0.4076
11484SOL     OW36704   8.575   6.838   0.966 -0.6638  0.0848  0.6282
11484SOL    HW136705   8.574   6.860   1.059  3.2136 -0.7715  1.0420
11484SOL    HW236706   8.667   6.846   0.940 -1.2788 -1.6136 -2.6723
11485SOL     OW36707   3.410   8.550   2.793  0.0787  0.4710 -0.2022
11485SOL    HW136708   3.415   8.644   2.814  1.1999  0.4259 -0.2251
11485SOL    HW236709   3.497   8.517   2.811  0.1478 -0.2619 -1.7146
11486SOL     OW36710   3.228   1.493   1.407 -0.2882  0.2387  0.0793
11486SOL    HW136711   3.264   1.579   1.428 -0.5423  0.7905 -1.6140
11486SOL    HW236712   3.259   1.436   1.477  0.7407  1.4831  0.6689
11487SOL     OW36713   5.509   8.815   8.238  0.6618  0.0414  0.6346
11487SOL    HW136714   5.504   8.722   8.218  0.7135  0.1999 -0.1272
11487SOL    HW236715   5.441   8.855   8.184  2.5993  0.8144 -1.3708
11488SOL     OW36716  10.419   0.003   4.191  0.5279  0.3935 -1.0227
11488SOL    HW136717  10.513   0.004   4.172  0.9686  0.0289  0.9283
11488SOL    HW236718  10.396  -0.090   4.196  0.1263  0.4802 -1.1520
11489SOL     OW36719   0.330   0.671   5.540 -0.3484  0.1955  0.5754
11489SOL    HW136720   0.403   0.651   5.599 -0.4980  1.3467  1.1758
11489SOL    HW236721   0.254   0.680   5.598 -1.0975 -1.4957 -0.0920
11490SOL     OW36722   8.459   1.073   5.981 -0.5764 -0.2220  0.2571
11490SOL    HW136723   8.404   1.026   5.918 -0.7597 -1.4478  1.2981
11490SOL    HW236724   8.536   1.100   5.930  0.3591 -3.1391 -0.0609
11491SOL     OW36725   0.854   6.188   7.591 -0.5230 -0.2857  0.0713
11491SOL    HW136726   0.943   6.172   7.622  0.1797  2.0061 -0.5748
11491SOL    HW236727   0.830   6.108   7.545  1.7442 -0.4936 -0.9060
11492SOL     OW36728   8.764  10.486   3.413  0.0593  0.2039 -0.5912
11492SOL    HW136729   8.688  10.446   3.370  0.6962 -1.3741 -0.3098
11492SOL    HW236730   8.780  10.566   3.363 -0.5928 -0.4323 -1.8788
11493SOL     OW36731   3.194   5.660   7.966  0.1754  0.3126  0.5127
11493SOL    HW136732   3.208   5.579   8.015 -0.2163  0.0506  0.1949
11493SOL    HW236733   3.250   5.651   7.889  1.5206  1.1273  1.3345
11494SOL     OW36734   8.053   4.657   2.183 -0.3333  0.6047 -0.7729
11494SOL    HW136735   8.106   4.664   2.103 -1.0048  3.1154 -1.1094
11494SOL    HW236736   7.990   4.588   2.164  0.2310  0.3959 -1.9854
11495SOL     OW36737   8.973   7.905   7.258 -0.0812  0.3153 -0.0188
11495SOL    HW136738   9.056   7.944   7.284 -0.4926  0.6524  0.8177
11495SOL    HW236739   8.978   7.898   7.162  0.2136  1.9018 -0.1341
11496SOL     OW36740  10.118   4.214   8.215  0.4657 -0.3881 -0.2611
11496SOL    HW136741  10.099   4.199   8.308  0.4543  1.0432 -0.0132
11496SOL    HW236742  10.122   4.309   8.207  1.6478 -0.5232 -1.4965
11497SOL     OW36743   1.492   7.349   6.237 -0.1647  0.9474 -0.1546
11497SOL    HW136744   1.450   7.434   6.226 -0.7698  0.8029  0.9216
11497SOL    HW236745   1.421   7.288   6.255  0.3597  0.4126  0.1707
11498SOL     OW36746   3.940   2.848   4.763 -0.2454  0.2588  0.6395
11498SOL    HW136747   3.982   2.918   4.713 -3.5877 -0.0714 -3.1733
11498SOL    HW236748   3.887   2.894   4.828  0.3635  1.0452  0.6044
11499SOL     OW36749   8.951   4.546   6.286  0.2108 -0.1970  0.2683
11499SOL    HW136750   9.011   4.501   6.347 -0.2778 -0.5701  0.4788
11499SOL    HW236751   8.864   4.521   6.316 -0.0418 -0.0077 -0.3064
11500SOL     OW36752  10.428   0.289   6.292 -0.2240  0.6913 -0.5575
11500SOL    HW136753  10.425   0.368   6.346  2.8039  0.8137 -0.4185
11500SOL    HW236754  10.458   0.319   6.206  0.8989 -0.2515 -0.5235
11501SOL     OW36755   2.370   9.781   4.282 -0.0929  0.0157  0.1806
11501SOL    HW136756   2.373   9.813   4.372 -0.9347  0.0078  0.2220
11501SOL    HW236757   2.462   9.770   4.257  0.2875  2.9001  0.0056
11502SOL     OW36758   9.626   4.993   4.635  0.3345  0.7024  0.5151
11502SOL    HW136759   9.544   4.958   4.668  1.0625  0.7152  2.4603
11502SOL    HW236760   9.619   4.986   4.540 -0.9753 -1.4266  0.7134
11503SOL     OW36761   2.050   7.237   5.964  0.0697 -0.0617  0.2633
11503SOL    HW136762   2.111   7.224   5.892  0.5935  0.7472  0.5538
11503SOL    HW236763   2.099   7.288   6.028 -0.7156  0.0688  0.7688
11504SOL     OW36764  10.475   2.229   3.513  0.1029 -0.3200  0.2629
11504SOL    HW136765  10.510   2.301   3.566 -1.1636  0.7635 -0.3141
11504SOL    HW236766  10.387   2.213   3.549 -0.3171 -0.3578 -0.7409
11505SOL     OW36767   7.969   2.512   1.102 -0.6066 -0.9476 -0.2844
11505SOL    HW136768   7.942   2.420   1.104 -1.2639 -0.7462  0.2596
11505SOL    HW236769   8.008   2.528   1.188 -2.0928 -0.2590  0.3026
11506SOL     OW36770   3.167   7.491  10.569 -0.1191  0.3211 -0.7118
11506SOL    HW136771   3.170   7.468  10.662  0.9313 -1.0719 -1.0658
11506SOL    HW236772   3.082   7.461  10.539  0.6315 -1.8552 -0.8140
11507SOL     OW36773   8.650   6.058   3.915 -0.0500  0.1308  0.0638
11507SOL    HW136774   8.559   6.055   3.885  0.7600 -0.8792 -2.6576
11507SOL    HW236775   8.701   6.061   3.834  2.3937 -0.7489  1.4688
11508SOL     OW36776   3.196   0.194   9.888  0.9708 -0.1403 -0.5128
11508SOL    HW136777   3.118   0.241   9.916  1.4301 -0.6603  1.8527
11508SOL    HW236778   3.269   0.250   9.914  1.4556 -1.2428  0.6625
11509SOL     OW36779   8.826   5.878   1.262  0.4838 -0.3904 -0.1158
11509SOL    HW136780   8.797   5.967   1.243  0.7720 -0.6800 -2.0850
11509SOL    HW236781   8.915   5.874   1.228 -0.3718 -2.1033 -2.3929
11510SOL     OW36782  10.278   6.967   7.111  0.4394  0.0986  0.0372
11510SOL    HW136783  10.282   6.891   7.054  2.3882  0.6128 -0.5832
11510SOL    HW236784  10.267   7.041   7.052 -0.4191  0.4078  0.5650
11511SOL     OW36785   4.782   7.191   6.069  0.5728  0.4414  0.2382
11511SOL    HW136786   4.862   7.164   6.024  1.2143  0.4724  1.3270
11511SOL    HW236787   4.750   7.266   6.019  2.4240  1.8129  1.0107
11512SOL     OW36788   1.497   6.565   0.505 -0.0752 -0.2372 -0.0534
11512SOL    HW136789   1.492   6.474   0.476 -0.7902  0.1288 -1.1302
11512SOL    HW236790   1.428   6.574   0.571  0.3471 -0.5985  0.4496
11513SOL     OW36791   1.660   0.784   6.020 -0.2661  0.1692 -0.2079
11513SOL    HW136792   1.626   0.865   5.982  1.7196  0.5409 -1.3343
11513SOL    HW236793   1.660   0.722   5.948  2.1821  0.4515 -0.5340
11514SOL     OW36794   0.677   9.160   8.719  0.1175 -0.2858 -0.0040
11514SOL    HW136795   0.681   9.256   8.714  0.5240 -0.2547  0.7047
11514SOL    HW236796   0.703   9.140   8.809  1.3492 -1.1485 -0.5223
11515SOL     OW36797  10.451   3.903   0.018 -0.2516  0.2643 -0.0336
11515SOL    HW136798  10.368   3.863   0.045 -0.4716  0.1348 -0.8743
11515SOL    HW236799  10.468   3.970   0.084 -0.4757 -0.4316  0.7464
11516SOL     OW36800   1.800   2.374   3.044 -0.2387  0.5181 -0.1576
11516SOL    HW136801   1.814   2.305   2.980  2.1131 -0.5354  1.3589
11516SOL    HW236802   1.865   2.441   3.023  0.4918  0.2108  0.9887
11517SOL     OW36803  10.184   7.658   7.518 -0.0431 -0.0673  0.0156
11517SOL    HW136804  10.206   7.587   7.458  0.8407  1.3715 -1.4539
11517SOL    HW236805  10.093   7.679   7.497 -0.5515 -1.2182  0.9786
11518SOL     OW36806   1.148   2.381   7.801 -0.2487 -0.2332  0.0220
11518SOL    HW136807   1.214   2.423   7.745 -0.1682 -0.4251 -0.0268
11518SOL    HW236808   1.162   2.287   7.789 -2.1114 -0.3491 -1.9231
11519SOL     OW36809   9.089   9.996   4.615 -0.5345 -0.1973 -0.8819
11519SOL    HW136810   9.120   9.905   4.614  0.8459  0.2557 -1.8996
11519SOL    HW236811   9.040  10.003   4.697  0.5188 -1.4704 -0.0987
11520SOL     OW36812   0.121   5.341   1.345  0.4877  0.7160  0.9927
11520SOL    HW136813   0.162   5.375   1.266  0.6355  0.3761  0.9224
11520SOL    HW236814   0.066   5.269   1.315 -2.3111  2.8144  0.6961
11521SOL     OW36815   9.065   1.560   2.857  0.8318 -0.1654 -0.1333
11521SOL    HW136816   9.043   1.469   2.837  3.0027 -0.7904  0.0257
11521SOL    HW236817   9.082   1.600   2.772 -1.7027  0.6104 -0.3470
11522SOL     OW36818   4.242   6.093   7.347 -0.0452 -0.3091  0.0853
11522SOL    HW136819   4.220   6.185   7.359 -0.3038 -0.5690  1.8194
11522SOL    HW236820   4.226   6.077   7.254 -1.0294  1.1214 -0.0265
11523SOL     OW36821   8.063   5.109   8.815 -0.2291  0.4411  0.0775
11523SOL    HW136822   8.092   5.155   8.894 -1.1017  0.2130  0.5370
11523SOL    HW236823   8.135   5.122   8.753 -0.3031  2.1781  0.2915
11524SOL     OW36824   9.431   5.159   3.587 -0.2742  0.0034 -0.0986
11524SOL    HW136825   9.523   5.140   3.604  0.0967  2.2565  0.7868
11524SOL    HW236826   9.418   5.133   3.496  0.9640 -1.2327  0.0410
11525SOL     OW36827  10.235   3.197   1.862 -0.0410 -0.5736  0.4014
11525SOL    HW136828  10.291   3.191   1.940  0.4814 -0.4695  0.0439
11525SOL    HW236829  10.290   3.161   1.791  0.5412  1.8334 -0.4530
11526SOL     OW36830   9.214   6.718   2.792  0.4546  0.1785 -0.1536
11526SOL    HW136831   9.146   6.723   2.726 -0.3434  0.0724  0.6409
11526SOL    HW236832   9.253   6.806   2.794 -1.8041  1.2261  1.5873
11527SOL     OW36833   9.808   9.586   1.174 -0.0592 -0.1322 -0.2168
11527SOL    HW136834   9.895   9.576   1.136  0.4331 -0.7931  1.0308
11527SOL    HW236835   9.779   9.673   1.147  1.7282  0.8208  0.8179
11528SOL     OW36836   3.503   1.183   5.455 -0.4243  0.0081 -0.0783
11528SOL    HW136837   3.570   1.160   5.390  0.2532  2.4265 -0.3484
11528SOL    HW236838   3.436   1.115   5.445  2.0369 -2.7261  0.4008
11529SOL     OW36839   2.155   2.614   8.551  0.2045 -0.3155 -0.3323
11529SOL    HW136840   2.159   2.709   8.553 -2.1524 -0.1729 -0.0885
11529SOL    HW236841   2.081   2.591   8.606 -0.5064 -2.1689 -1.9322
11530SOL     OW36842   0.141   7.813   6.274  0.5710 -0.5017 -0.7461
11530SOL    HW136843   0.149   7.842   6.183 -0.4907  0.3452 -0.5891
11530SOL    HW236844   0.051   7.836   6.298 -0.2098 -3.4563 -0.4374
11531SOL     OW36845   1.921   5.367   9.891  0.0171  0.0576  0.1749
11531SOL    HW136846   1.989   5.314   9.934 -1.3726 -2.5249 -0.5778
11531SOL    HW236847   1.839   5.322   9.912 -1.4687  2.7783  0.6097
11532SOL     OW36848   5.792   4.413  10.069 -0.5217 -0.3735 -0.0547
11532SOL    HW136849   5.831   4.343  10.121 -0.5753 -0.5407 -0.2379
11532SOL    HW236850   5.699   4.393  10.067 -0.6405  0.0964  0.4896
11533SOL     OW36851   3.385   0.946   5.385 -0.9340 -0.3529 -0.1485
11533SOL    HW136852   3.301   0.915   5.418 -0.0732  0.1845  2.8076
11533SOL    HW236853   3.441   0.868   5.385 -0.5065 -0.0626  1.2281
11534SOL     OW36854   8.232   8.526   3.005 -0.1592 -0.3088 -0.2766
11534SOL    HW136855   8.139   8.551   3.012  0.1829  0.8169  0.6065
11534SOL    HW236856   8.247   8.516   2.911 -0.5837  1.9473 -0.6289
11535SOL     OW36857   4.693   1.492   9.344 -0.3180  0.0149  0.0086
11535SOL    HW136858   4.690   1.499   9.439 -1.1407  1.4731 -0.1011
11535SOL    HW236859   4.786   1.499   9.322  0.0552 -1.9549  0.7780
11536SOL     OW36860   8.537   7.571   5.436 -0.4428  0.0659  0.4606
11536SOL    HW136861   8.459   7.596   5.485 -0.6060  2.0728 -0.7222
11536SOL    HW236862   8.593   7.648   5.439  1.3220 -1.1682  0.8641
11537SOL     OW36863   2.236   1.926   4.331  0.3667  0.3847 -0.2356
11537SOL    HW136864   2.289   1.948   4.254 -1.0624  2.1673 -0.7928
11537SOL    HW236865   2.158   1.883   4.295  0.6896 -0.7867  0.4269
11538SOL     OW36866   4.195  10.021   7.376  0.1308  0.5999  0.1921
11538SOL    HW136867   4.161   9.932   7.384  0.5833  0.4818  0.8690
11538SOL    HW236868   4.125  10.076   7.412  0.1530  0.4579  0.4538
11539SOL     OW36869   2.956   1.992   8.949 -0.1177  0.3518 -0.4612
11539SOL    HW136870   2.879   2.048   8.955  0.4290  1.1586 -0.7991
11539SOL    HW236871   3.025   2.041   8.993  0.1260 -0.5119  0.1372
11540SOL     OW36872  10.652   9.368   9.139 -0.4615  0.1323 -0.2999
11540SOL    HW136873  10.690   9.402   9.058  2.2387 -0.8840  0.4380
11540SOL    HW236874  10.677   9.275   9.139 -1.9198 -0.2920  0.9029
11541SOL     OW36875   6.465   6.464   7.369 -0.2540  0.7299 -0.0495
11541SOL    HW136876   6.459   6.558   7.386 -1.8125  0.7291 -0.5281
11541SOL    HW236877   6.392   6.426   7.417 -0.4739 -0.0756 -0.9969
11542SOL     OW36878   3.032   3.143   9.171 -0.6349  0.4352 -0.4911
11542SOL    HW136879   3.026   3.220   9.115  0.7477  0.2336 -0.9404
11542SOL    HW236880   3.057   3.072   9.112  0.7401  0.1963  0.3524
11543SOL     OW36881   8.262   3.141   5.438  0.1640  0.4202  0.1860
11543SOL    HW136882   8.354   3.153   5.415  0.1458 -0.4818 -0.4267
11543SOL    HW236883   8.229   3.229   5.455  1.8310  0.5936  3.2316
11544SOL     OW36884   4.237   9.958  10.196 -0.3700 -0.1055 -0.3593
11544SOL    HW136885   4.258   9.933  10.106  0.2936  0.0477 -0.2504
11544SOL    HW236886   4.262   9.882  10.249 -2.9408 -1.1673 -0.5050
11545SOL     OW36887   2.492   4.122   2.301  0.0259 -0.8043 -0.6736
11545SOL    HW136888   2.473   4.176   2.378 -0.7152  0.4336 -1.6794
11545SOL    HW236889   2.482   4.182   2.227 -0.6933 -2.3048 -1.8481
11546SOL     OW36890   3.104   7.591   4.212  0.4473  0.8156 -0.0718
11546SOL    HW136891   3.167   7.643   4.262 -0.1133  2.3776 -0.9206
11546SOL    HW236892   3.081   7.647   4.137 -1.3467 -0.0350 -0.2070
11547SOL     OW36893   8.884   6.862   7.393  0.5019  0.0068 -0.3061
11547SOL    HW136894   8.838   6.946   7.391 -0.6698 -0.4794  2.0563
11547SOL    HW236895   8.898   6.845   7.487  3.2538 -1.1282 -0.8344
11548SOL     OW36896   3.827   0.742   4.009  0.2252  0.2254 -0.1719
11548SOL    HW136897   3.802   0.794   3.932  0.0882 -1.1213 -1.0709
11548SOL    HW236898   3.907   0.783   4.041  0.4565  0.6394 -1.2273
11549SOL     OW36899   4.164   4.491   4.591 -0.6216 -0.6058  0.6096
11549SOL    HW136900   4.105   4.474   4.518  0.9492 -0.0515 -0.8371
11549SOL    HW236901   4.127   4.568   4.634  0.4051  1.4349 -1.9138
11550SOL     OW36902   3.472   8.971   7.901 -0.0811  0.1878  0.0530
11550SOL    HW136903   3.447   9.057   7.933 -1.0040 -0.2488  0.5362
11550SOL    HW236904   3.480   8.982   7.806 -0.9235  0.6524  0.0219
11551SOL     OW36905   6.888  10.008   6.652 -0.0467 -0.2097  0.0272
11551SOL    HW136906   6.817   9.944   6.653 -1.8141  1.6701  0.2756
11551SOL    HW236907   6.940   9.984   6.575  0.2582 -2.8183  0.9450
11552SOL     OW36908   7.843   4.073   7.396 -0.1648  0.2883  0.9061
11552SOL    HW136909   7.853   3.979   7.410 -0.5647  0.3735  1.8350
11552SOL    HW236910   7.847   4.111   7.484  1.4262  1.2916  0.4270
11553SOL     OW36911   2.525   9.723  10.537 -1.0140 -0.0003 -0.3858
11553SOL    HW136912   2.615   9.744  10.513 -0.7606 -0.9314 -0.2869
11553SOL    HW236913   2.505   9.643  10.489 -1.8062  0.2145 -0.4364
11554SOL     OW36914   8.466   4.197   6.939  0.9257 -0.6160  0.3566
11554SOL    HW136915   8.456   4.106   6.910 -1.6102 -0.4673  0.5154
11554SOL    HW236916   8.440   4.249   6.863  1.1297 -0.0612  0.6634
11555SOL     OW36917   1.133   3.225   2.420  0.5967  0.1582 -0.1273
11555SOL    HW136918   1.150   3.183   2.504 -0.3962  0.2416  0.1259
11555SOL    HW236919   1.210   3.280   2.406  1.0502 -0.3141  0.4364
11556SOL     OW36920   0.837   8.140   5.769 -0.5303 -0.1034  0.1066
11556SOL    HW136921   0.792   8.056   5.770 -0.3072 -0.2885 -1.6720
11556SOL    HW236922   0.927   8.119   5.743 -0.3248  0.6348  0.1763
11557SOL     OW36923   0.284   8.828  10.336 -0.4184  0.1758 -0.2084
11557SOL    HW136924   0.332   8.751  10.368 -0.2301  0.8416  1.1964
11557SOL    HW236925   0.318   8.900  10.389 -2.9048  0.7041  0.7719
11558SOL     OW36926   9.222   0.530   6.068  0.5707  0.1278 -0.0188
11558SOL    HW136927   9.168   0.538   6.147  3.2098 -0.8378  2.0277
11558SOL    HW236928   9.198   0.446   6.030  0.6113 -0.2900  0.8605
11559SOL     OW36929   7.689   7.980   9.276  0.4803  0.2635 -0.0177
11559SOL    HW136930   7.686   7.945   9.187 -0.2069  1.3881 -0.4559
11559SOL    HW236931   7.715   8.072   9.265  1.3400  0.1655  1.0234
11560SOL     OW36932   0.522   8.766   0.584  0.4843 -0.0473  0.0549
11560SOL    HW136933   0.544   8.675   0.604  1.0562  0.4629  2.0292
11560SOL    HW236934   0.573   8.817   0.647 -1.4340  1.5215  0.4371
11561SOL     OW36935   0.018   1.967   5.060 -0.1234  0.5246  0.1316
11561SOL    HW136936  -0.021   1.912   4.992  1.8031 -0.1703 -0.4652
11561SOL    HW236937   0.108   1.981   5.032 -0.1688  2.9864  0.9046
11562SOL     OW36938   6.135   0.080   7.909 -0.0911 -0.1290 -0.3120
11562SOL    HW136939   6.048   0.042   7.898 -1.2236  1.8388  1.1183
11562SOL    HW236940   6.171   0.037   7.986  0.0307 -0.6631 -0.6672
11563SOL     OW36941   2.868   8.027   8.934 -0.5272  0.9188  0.3072
11563SOL    HW136942   2.786   8.033   8.885 -0.4655 -0.8227 -0.0742
11563SOL    HW236943   2.897   8.118   8.943 -2.3258  1.5463  0.1773
11564SOL     OW36944   7.526   3.760   9.918  0.6458  0.8218  0.3634
11564SOL    HW136945   7.556   3.695   9.981  2.7477  1.4409  0.0718
11564SOL    HW236946   7.569   3.842   9.944  2.4969  0.8768 -2.4119
11565SOL     OW36947   2.419   9.070   7.243 -0.0315  0.0436  0.0729
11565SOL    HW136948   2.397   9.150   7.194  0.6111  0.0803 -0.1590
11565SOL    HW236949   2.507   9.085   7.275 -0.4115 -0.0204  1.1791
11566SOL     OW36950   5.315   1.990  10.539 -0.3020  0.1853 -0.3776
11566SOL    HW136951   5.343   2.057  10.476 -1.8352 -0.3034 -1.6402
11566SOL    HW236952   5.224   1.974  10.518 -0.1843 -1.7622  0.4086
11567SOL     OW36953  10.371   2.539   9.755 -0.1579  0.0727  0.8662
11567SOL    HW136954  10.308   2.495   9.812 -0.2713 -0.1263  0.5914
11567SOL    HW236955  10.443   2.564   9.813 -0.4633  0.2538  1.1727
11568SOL     OW36956   0.172   4.875   0.910 -0.4892  0.3677 -0.4186
11568SOL    HW136957   0.153   4.821   0.987 -0.5030 -0.0550 -0.7137
11568SOL    HW236958   0.199   4.812   0.843 -1.6663  0.5948 -1.1438
11569SOL     OW36959  10.180   3.177   1.154  0.3007 -0.2852  0.3016
11569SOL    HW136960  10.118   3.237   1.195  0.1541  1.6530 -2.4813
11569SOL    HW236961  10.206   3.221   1.073  2.8690 -2.4813 -0.2134
11570SOL     OW36962   9.931   6.129   2.121 -0.5685 -0.6254 -0.2753
11570SOL    HW136963   9.864   6.060   2.117 -2.0318  0.5543  1.9718
11570SOL    HW236964   9.886   6.208   2.090 -0.4505  0.2921  1.7364
11571SOL     OW36965   1.252   6.348   0.531  0.3372  0.2261  0.0464
11571SOL    HW136966   1.271   6.268   0.581 -1.7759  0.3990  1.2614
11571SOL    HW236967   1.268   6.419   0.593  0.2259  0.6222 -0.3773
11572SOL     OW36968   4.548   4.454   8.753 -0.4125  0.0261 -0.1981
11572SOL    HW136969   4.501   4.450   8.670  1.2286 -0.2079 -1.1473
11572SOL    HW236970   4.486   4.420   8.817 -1.8632  0.6087 -1.2415
11573SOL     OW36971   1.299   9.799  10.653 -0.5625  0.2983 -0.7716
11573SOL    HW136972   1.364   9.755  10.708  0.7602  1.7494 -1.1373
11573SOL    HW236973   1.217   9.791  10.703  0.1868 -0.2143  0.4169
11574SOL     OW36974   8.946   5.175   5.553 -0.4413  0.3090 -0.3324
11574SOL    HW136975   8.966   5.141   5.641 -1.8681  1.3789  0.4508
11574SOL    HW236976   8.947   5.098   5.497 -0.8663 -0.6242  0.8866
11575SOL     OW36977   3.383   2.671   2.676  0.3223 -0.0395  0.4960
11575SOL    HW136978   3.374   2.578   2.696  1.0179 -0.2131  0.0121
11575SOL    HW236979   3.326   2.714   2.739 -1.9358 -0.9343 -0.7837
11576SOL     OW36980   6.793   5.709   3.634 -0.4577  0.0959  0.2125
11576SOL    HW136981   6.859   5.763   3.677 -0.9826  1.4841 -0.6597
11576SOL    HW236982   6.715   5.764   3.629 -1.0537 -0.7817 -0.6055
11577SOL     OW36983   8.173   1.899   9.747 -0.7824 -0.0791  0.5114
11577SOL    HW136984   8.093   1.947   9.768  0.3077  1.7697  0.6246
11577SOL    HW236985   8.197   1.856   9.830 -0.0377  1.8565  1.3521
11578SOL     OW36986   8.078   6.333   6.263 -0.0342 -0.0697  0.1176
11578SOL    HW136987   8.107   6.256   6.312  0.3246 -0.4905 -0.7334
11578SOL    HW236988   7.996   6.306   6.222 -0.5989  0.4488  0.8692
11579SOL     OW36989   4.228   0.641   4.828  0.4233  0.2682 -0.0474
11579SOL    HW136990   4.158   0.589   4.868  0.8935 -0.0671  0.3567
11579SOL    HW236991   4.208   0.639   4.734 -0.3736  0.5884  0.1040
11580SOL     OW36992   1.113   6.643   3.514  0.1671 -0.4183 -0.2622
11580SOL    HW136993   1.083   6.562   3.555  2.9334 -1.8343 -0.8449
11580SOL    HW236994   1.161   6.689   3.583  0.4236 -0.3032 -0.5176
11581SOL     OW36995   3.252  10.224   8.073  0.4658  0.1647 -0.2298
11581SOL    HW136996   3.234  10.214   7.980 -0.5530  0.6284 -0.0961
11581SOL    HW236997   3.172  10.261   8.110  0.7972 -0.1442  0.8605
11582SOL     OW36998   8.689   6.553   6.470  0.3009  0.1907  0.1504
11582SOL    HW136999   8.599   6.569   6.439  0.6439  2.1071 -0.0166
11582SOL    HW237000   8.744   6.584   6.398  1.1397 -1.4921  0.0131
11583SOL     OW37001   9.220   5.468   8.831 -0.3008 -0.1315 -0.4616
11583SOL    HW137002   9.165   5.540   8.800 -0.8980 -1.1594 -1.9049
11583SOL    HW237003   9.309   5.503   8.827 -0.7089  1.1517  0.7394
11584SOL     OW37004   5.701   9.405   2.124  0.6693  0.7267  0.0238
11584SOL    HW137005   5.737   9.335   2.179 -0.5118  0.6698  0.7721
11584SOL    HW237006   5.719   9.485   2.173 -1.3221  0.5917  1.1044
11585SOL     OW37007   5.731   3.429   0.338 -0.0530  0.3318  0.2376
11585SOL    HW137008   5.719   3.343   0.298 -2.2367  0.1062  1.2157
11585SOL    HW237009   5.762   3.410   0.427 -0.3518  0.5694  0.3934
11586SOL     OW37010   7.774   7.880   2.902  0.4519 -0.0157  0.1373
11586SOL    HW137011   7.824   7.819   2.956 -0.1806 -0.6401  0.0382
11586SOL    HW237012   7.767   7.837   2.817  1.8102  1.1516 -0.6033
11587SOL     OW37013   4.650   6.261   8.533  0.0229 -0.2456  0.2738
11587SOL    HW137014   4.657   6.325   8.462  1.5280 -0.0273  0.5975
11587SOL    HW237015   4.716   6.195   8.513 -0.2373 -0.7217  0.9390
11588SOL     OW37016   7.941   6.165   4.532 -0.1649 -0.3140 -0.0248
11588SOL    HW137017   8.000   6.098   4.568 -0.5976 -0.7619 -0.1502
11588SOL    HW237018   7.978   6.186   4.446 -0.9416 -1.5842 -0.6899
11589SOL     OW37019   2.605   1.528   7.886  0.1743 -0.3552  0.3355
11589SOL    HW137020   2.695   1.506   7.861 -0.5149 -1.3634 -1.4380
11589SOL    HW237021   2.554   1.451   7.862 -1.1111 -0.0180  1.8097
11590SOL     OW37022   5.216  10.014   4.017 -0.0941 -0.3775  0.3150
11590SOL    HW137023   5.170  10.023   3.934  0.6604 -1.8769 -0.3125
11590SOL    HW237024   5.283  10.083   4.016 -1.0276  0.5482  0.3638
11591SOL     OW37025   3.437  10.094   9.197  0.1884 -0.2680 -0.0656
11591SOL    HW137026   3.423  10.098   9.292 -2.6058  1.3574 -0.4436
11591SOL    HW237027   3.399  10.010   9.170  1.6183 -1.0653  0.2598
11592SOL     OW37028   1.535   8.688   4.024  0.5980  0.0473 -0.2082
11592SOL    HW137029   1.459   8.693   4.081 -0.1904 -0.0752 -1.2198
11592SOL    HW237030   1.532   8.600   3.986  1.1739  0.0829 -0.3588
11593SOL     OW37031   2.491   1.360  10.636 -0.3401 -0.5146  0.6402
11593SOL    HW137032   2.520   1.284  10.686 -0.6967  0.3481  2.2255
11593SOL    HW237033   2.396   1.351  10.630 -0.2148 -1.2153 -0.9794
11594SOL     OW37034   5.222   2.311   3.958  0.9074 -0.0407 -0.4285
11594SOL    HW137035   5.223   2.377   3.889 -0.8393  0.5751  0.0775
11594SOL    HW237036   5.146   2.333   4.012  1.5528 -1.1796  1.0383
11595SOL     OW37037   4.777   9.063   9.757 -0.1726 -0.1196 -0.3801
11595SOL    HW137038   4.770   8.990   9.696  0.0158 -1.6680  1.3385
11595SOL    HW237039   4.689   9.073   9.793  0.0078 -0.1499  0.0844
11596SOL     OW37040   3.183   8.415   1.693 -0.0216  0.4754 -0.0876
11596SOL    HW137041   3.196   8.320   1.693  0.6657  0.5057  2.0079
11596SOL    HW237042   3.196   8.441   1.602 -0.5000 -1.4640 -0.7637
11597SOL     OW37043   7.277   1.935   6.310  0.1242 -0.1820 -0.7742
11597SOL    HW137044   7.220   1.996   6.264 -0.6761  0.0856  0.5293
11597SOL    HW237045   7.359   1.936   6.259 -0.5741  0.4028 -1.9253
11598SOL     OW37046   0.040   3.631   6.397  0.0761 -0.2677 -0.3492
11598SOL    HW137047   0.123   3.633   6.444 -0.1787 -0.8869  0.1324
11598SOL    HW237048  -0.024   3.665   6.460 -0.1386 -0.3544 -0.5184
11599SOL     OW37049   9.369  10.513   8.647  0.0050  1.0567  0.1909
11599SOL    HW137050   9.334  10.484   8.731 -0.8326  1.2386 -0.0807
11599SOL    HW237051   9.370  10.609   8.653 -0.8557  1.1133 -0.2926
11600SOL     OW37052   2.862   2.923   6.122  0.0870  0.0072  0.5728
11600SOL    HW137053   2.906   2.935   6.038 -1.1582 -1.0709 -0.2583
11600SOL    HW237054   2.882   3.003   6.170 -2.4682  2.6165 -2.2560
11601SOL     OW37055   3.515   0.328   7.209  0.0764  0.1886  0.2929
11601SOL    HW137056   3.472   0.342   7.125  0.4343  0.5279  0.1627
11601SOL    HW237057   3.443   0.318   7.272 -0.1915 -0.1900 -0.0707
11602SOL     OW37058   3.217   7.609   0.378  0.1067 -0.3515 -0.5497
11602SOL    HW137059   3.299   7.640   0.339  0.1448 -0.1631 -0.3221
11602SOL    HW237060   3.234   7.609   0.472 -0.3159  0.1600 -0.4728
11603SOL     OW37061  10.583   8.672   1.524  0.7283  0.1579  0.5681
11603SOL    HW137062  10.642   8.745   1.540  1.9865 -0.1900 -1.9031
11603SOL    HW237063  10.536   8.697   1.444  0.2923 -1.1783  0.3791
11604SOL     OW37064  10.635   5.801   6.858  0.0298  0.1201  0.0226
11604SOL    HW137065  10.564   5.858   6.887  0.9470  0.8139  0.9598
11604SOL    HW237066  10.661   5.835   6.772 -1.7028 -1.0308 -1.0275
11605SOL     OW37067   8.348   4.143   4.125  0.1738  0.0327 -0.1144
11605SOL    HW137068   8.287   4.202   4.170  0.2752  0.4178 -0.4783
11605SOL    HW237069   8.372   4.079   4.192 -0.7812 -0.2453 -0.0200
11606SOL     OW37070   4.328   7.255   6.770 -0.2024  1.0223  0.2556
11606SOL    HW137071   4.364   7.187   6.714 -0.5763  1.7577 -0.8977
11606SOL    HW237072   4.390   7.262   6.843 -0.7306 -1.3222  1.0231
11607SOL     OW37073  10.571   1.067   2.100  0.4699 -0.2410  0.0698
11607SOL    HW137074  10.542   1.060   2.190  0.1231 -1.1645 -0.1079
11607SOL    HW237075  10.492   1.055   2.048  0.6014  0.6608 -0.3560
11608SOL     OW37076   6.060   0.541   8.639 -0.3189  0.0101  0.1076
11608SOL    HW137077   6.072   0.586   8.555  1.3808  0.2377  0.4256
11608SOL    HW237078   6.029   0.454   8.615  0.4285 -0.0256 -0.7997
11609SOL     OW37079   6.994   6.233   3.500 -0.2741 -0.2388  0.9726
11609SOL    HW137080   6.960   6.224   3.590  0.1101  1.4356  1.3119
11609SOL    HW237081   7.025   6.323   3.495 -0.0401 -0.3913 -0.7828
11610SOL     OW37082  10.270   5.410  10.319 -0.2943 -0.1389 -0.3530
11610SOL    HW137083  10.322   5.339  10.358  1.4880  0.8310 -0.8177
11610SOL    HW237084  10.308   5.422  10.232 -3.0042 -1.0442 -1.7706
11611SOL     OW37085   6.389   7.151   9.020  0.4953  0.4103  0.3716
11611SOL    HW137086   6.446   7.162   8.944 -1.9985 -0.6087 -1.8107
11611SOL    HW237087   6.429   7.080   9.070  1.7836  0.5790 -0.3913
11612SOL     OW37088   6.884   0.445   6.724  0.2196  0.3563  0.1993
11612SOL    HW137089   6.889   0.406   6.811 -0.3336 -2.2211 -0.8298
11612SOL    HW237090   6.792   0.437   6.699  0.2421  1.6597 -0.3887
11613SOL     OW37091   8.690   6.174   4.602 -0.6485 -0.3342 -0.2429
11613SOL    HW137092   8.671   6.263   4.630  0.4644  0.6943 -2.4622
11613SOL    HW237093   8.781   6.159   4.628 -0.0426  0.1384 -1.9377
11614SOL     OW37094   2.231   5.085   5.219  0.1801 -0.3328 -0.3857
11614SOL    HW137095   2.308   5.043   5.180  1.4870  0.6459  0.9845
11614SOL    HW237096   2.206   5.028   5.291  0.9259  0.3568  0.4420
11615SOL     OW37097   7.668   4.199   8.161 -0.0959  0.3150 -0.3213
11615SOL    HW137098   7.650   4.123   8.216 -0.1645  0.3229 -0.3326
11615SOL    HW237099   7.683   4.271   8.223 -1.1843  0.5526 -0.3165
11616SOL     OW37100   7.337  10.166  10.528 -0.0898 -0.3189 -0.1170
11616SOL    HW137101   7.432  10.164  10.524 -0.0861  0.0437 -0.2815
11616SOL    HW237102   7.312  10.084  10.571  0.2189 -1.1968 -1.5410
11617SOL     OW37103   4.874  10.126   9.117 -0.0090 -0.1688 -0.4219
11617SOL    HW137104   4.864  10.113   9.211  2.3076  3.5624  0.5656
11617SOL    HW237105   4.940  10.062   9.091  0.5783 -0.1358  0.9101
11618SOL     OW37106   6.938   5.963   4.371  0.0849 -1.0775 -0.3482
11618SOL    HW137107   6.917   6.032   4.308  1.2354  0.9134  1.3386
11618SOL    HW237108   6.875   5.975   4.442  0.4005 -1.6511  0.0403
11619SOL     OW37109   5.654   3.264   0.963  0.7925  0.1755  0.1331
11619SOL    HW137110   5.591   3.243   0.894  0.0757  0.6989  0.6226
11619SOL    HW237111   5.642   3.194   1.028  2.5323 -1.2031 -0.9309
11620SOL     OW37112   8.790   3.820   6.442 -0.3017  0.0572 -0.1483
11620SOL    HW137113   8.829   3.906   6.422  0.8407 -0.0509  1.3834
11620SOL    HW237114   8.715   3.841   6.497 -0.0426  0.0804  0.1985
11621SOL     OW37115   8.101   8.768   0.302  0.2345 -0.0998 -0.1752
11621SOL    HW137116   8.079   8.804   0.216  0.4840  0.9214  0.1804
11621SOL    HW237117   8.021   8.723   0.329  0.8495 -2.4383 -1.9117
11622SOL     OW37118   5.186   7.686   5.189 -0.4687  0.0392  0.6470
11622SOL    HW137119   5.170   7.617   5.125 -0.0644  0.5565 -0.0193
11622SOL    HW237120   5.200   7.765   5.137 -0.7376  0.5903  1.3932
11623SOL     OW37121   5.149   0.122   5.184  0.5932 -0.6202  0.3393
11623SOL    HW137122   5.065   0.140   5.144 -0.1826 -2.1998  1.1490
11623SOL    HW237123   5.210   0.184   5.143 -0.9238  0.4842 -0.3242
11624SOL     OW37124   5.319   4.662   4.527  0.1284 -0.3027 -0.6118
11624SOL    HW137125   5.347   4.605   4.600  3.3540  0.9381 -0.7340
11624SOL    HW237126   5.314   4.749   4.566 -2.4012 -0.2227 -0.9831
11625SOL     OW37127   1.526   2.108  10.166 -0.4238 -0.5564  0.1976
11625SOL    HW137128   1.498   2.095  10.075 -0.4510 -2.4024  0.4435
11625SOL    HW237129   1.618   2.134  10.159 -0.3925 -0.8038 -0.3546
11626SOL     OW37130   9.528   2.849   4.550 -0.6885  0.5134  0.5952
11626SOL    HW137131   9.514   2.832   4.457 -0.6715  0.3336  0.6252
11626SOL    HW237132   9.452   2.810   4.593 -0.9389  1.0163  0.6181
11627SOL     OW37133   3.871   3.176   6.133  0.1755 -0.2881  0.1255
11627SOL    HW137134   3.874   3.151   6.225  2.5535  3.8526  1.4771
11627SOL    HW237135   3.828   3.262   6.133  1.6941  0.5875 -2.3110
11628SOL     OW37136   3.760   9.192   9.216  0.0717 -0.0998 -0.3015
11628SOL    HW137137   3.709   9.268   9.244 -0.8028  0.1069 -2.3167
11628SOL    HW237138   3.836   9.191   9.275 -0.6524  1.4358  0.7168
11629SOL     OW37139   1.564   2.108   0.232 -0.5794 -0.9363  0.4902
11629SOL    HW137140   1.622   2.061   0.171 -1.4487 -1.3829 -0.0142
11629SOL    HW237141   1.484   2.121   0.182 -0.6552  0.3437  0.9277
11630SOL     OW37142  10.030   9.122   4.570 -0.4372  0.2255  0.6056
11630SOL    HW137143  10.040   9.202   4.520  0.7683 -0.2916 -0.0172
11630SOL    HW237144   9.951   9.135   4.622 -1.1117  1.1912 -0.6399
11631SOL     OW37145   4.809   8.987   1.920 -0.4034  0.5056  0.1133
11631SOL    HW137146   4.838   8.981   2.011  0.5036 -1.8582 -0.2813
11631SOL    HW237147   4.734   8.928   1.914  1.7559 -2.2937 -1.4212
11632SOL     OW37148   9.920   3.550   8.003 -0.4908 -0.1630  0.1245
11632SOL    HW137149   9.894   3.559   8.094 -1.2140 -0.2230 -0.0737
11632SOL    HW237150   9.842   3.518   7.958 -0.3269  0.4565 -0.6270
11633SOL     OW37151   3.217   5.315   7.370  0.1657 -0.0470 -0.2375
11633SOL    HW137152   3.295   5.274   7.334  0.1660  0.5786 -0.9934
11633SOL    HW237153   3.251   5.389   7.421  0.0565  0.5959 -1.0718
11634SOL     OW37154   8.430   3.995   6.214 -0.0791  0.1355 -0.2929
11634SOL    HW137155   8.388   3.975   6.297 -1.1356 -0.8447 -1.0318
11634SOL    HW237156   8.485   3.919   6.196  0.1500  0.3468 -0.4995
11635SOL     OW37157   5.639   2.948   8.710 -0.7718 -0.2275  0.6971
11635SOL    HW137158   5.659   2.862   8.673 -2.6965 -0.1545 -0.6607
11635SOL    HW237159   5.558   2.935   8.758  0.1397  0.3690  2.5047
11636SOL     OW37160   0.396   8.014   9.338 -0.3094  0.1738  0.6721
11636SOL    HW137161   0.470   7.999   9.280 -2.2603  0.2220 -2.0069
11636SOL    HW237162   0.358   8.097   9.308 -1.9923 -0.3082  1.3158
11637SOL     OW37163   5.625   1.741   8.254 -0.5413  0.0632 -0.2747
11637SOL    HW137164   5.588   1.756   8.167 -0.3909 -0.5553 -0.4484
11637SOL    HW237165   5.549   1.720   8.308 -0.4879 -0.8488 -0.5506
11638SOL     OW37166   0.478   8.956   1.471  0.4100  0.1737 -0.5279
11638SOL    HW137167   0.461   8.905   1.551  0.7938 -0.1204 -0.6273
11638SOL    HW237168   0.525   8.895   1.414 -0.3260  0.2154 -1.1911
11639SOL     OW37169   7.049   6.151   5.278  0.2204 -0.6094 -0.1574
11639SOL    HW137170   7.018   6.149   5.188  0.5951  2.0543 -0.4430
11639SOL    HW237171   7.142   6.129   5.273  0.4577  0.4294 -0.5895
11640SOL     OW37172   4.261   2.221   8.208  0.3311 -0.1418 -0.2854
11640SOL    HW137173   4.290   2.275   8.135  1.8709  0.0927  0.4434
11640SOL    HW237174   4.254   2.133   8.171  1.7840 -0.1600 -0.6023
11641SOL     OW37175   7.291   4.430   0.821 -0.1140  0.7092 -0.2140
11641SOL    HW137176   7.386   4.428   0.829 -0.1945  1.3253  1.1252
11641SOL    HW237177   7.259   4.363   0.881 -0.5791  2.0076  1.0490
11642SOL     OW37178   7.089   2.320   8.677 -0.0357  0.4497  0.5313
11642SOL    HW137179   6.998   2.295   8.659  0.5586 -0.9288 -0.8640
11642SOL    HW237180   7.105   2.395   8.621  0.6634 -1.4937 -2.0986
11643SOL     OW37181   0.874   3.660   2.016  0.2044  0.7964  0.5072
11643SOL    HW137182   0.795   3.608   2.031  2.4736 -2.4882  2.2027
11643SOL    HW237183   0.890   3.651   1.922 -0.7836  0.4686  0.3534
11644SOL     OW37184   4.988   9.073   3.261 -0.2038 -0.2125  0.1790
11644SOL    HW137185   5.059   9.017   3.291 -2.0956 -2.6473  0.5121
11644SOL    HW237186   5.000   9.079   3.166  2.0867  2.0114  0.5220
11645SOL     OW37187   0.904   5.788   9.386 -0.0581 -0.0891  0.2260
11645SOL    HW137188   0.940   5.767   9.300 -0.9399  1.6102 -0.6173
11645SOL    HW237189   0.851   5.711   9.409  1.4257 -1.2210  0.0070
11646SOL     OW37190   3.121   4.050   0.930  0.7489  0.1553 -0.2258
11646SOL    HW137191   3.122   4.074   0.838 -0.8851 -0.6700 -0.5043
11646SOL    HW237192   3.126   3.954   0.930 -1.7749 -0.0611  0.3488
11647SOL     OW37193   8.249   8.336   2.741 -0.1021  0.2895 -0.2370
11647SOL    HW137194   8.162   8.302   2.760  0.2929 -1.7781 -1.7060
11647SOL    HW237195   8.234   8.417   2.692 -1.2056 -0.1076 -0.5840
11648SOL     OW37196   6.522   4.356   4.978  0.2531 -0.0325  0.0940
11648SOL    HW137197   6.517   4.359   5.074  0.8206 -0.6599  0.1475
11648SOL    HW237198   6.578   4.430   4.955  0.6672 -0.2788  0.2965
11649SOL     OW37199   1.848   4.122   9.714  0.2263 -0.5601 -0.0545
11649SOL    HW137200   1.855   4.027   9.723 -0.8624 -0.6267  0.2754
11649SOL    HW237201   1.800   4.134   9.632 -0.7456 -0.3424  0.5395
11650SOL     OW37202   1.381   1.719   5.755 -0.1129  0.0876  0.1983
11650SOL    HW137203   1.299   1.686   5.719  0.1494 -0.6197  0.2226
11650SOL    HW237204   1.424   1.762   5.681  0.6497 -1.7925 -0.5121
11651SOL     OW37205   1.407   3.295   9.259 -0.3061 -0.0856  0.5213
11651SOL    HW137206   1.326   3.345   9.271 -0.7311 -0.9564  1.4841
11651SOL    HW237207   1.451   3.300   9.344  1.3854  1.5505 -0.3743
11652SOL     OW37208  10.338   5.847   1.802 -0.6750  0.3268 -0.4396
11652SOL    HW137209  10.297   5.905   1.867 -3.0290 -2.5517  0.9124
11652SOL    HW237210  10.386   5.783   1.855 -0.5351 -0.6171 -1.6597
11653SOL     OW37211   4.470   6.715   6.698  0.2611  0.1004 -0.1744
11653SOL    HW137212   4.431   6.797   6.667 -0.0344 -1.0284 -3.1069
11653SOL    HW237213   4.404   6.677   6.755 -0.9829  0.4509 -1.3294
11654SOL     OW37214   4.751   6.420   5.204  0.1959  0.1559  0.0757
11654SOL    HW137215   4.759   6.379   5.290  1.6591 -0.3149 -0.2535
11654SOL    HW237216   4.799   6.362   5.145 -1.1200  0.2579 -1.1467
11655SOL     OW37217   5.245   7.948   5.613 -0.7463 -0.1882 -0.2297
11655SOL    HW137218   5.330   7.950   5.568  0.7609 -2.1323  2.2677
11655SOL    HW237219   5.244   8.029   5.665  0.5233 -1.0278  1.1841
11656SOL     OW37220  10.526   7.026   4.193  0.0016  0.2118  0.0905
11656SOL    HW137221  10.583   7.098   4.221  0.3311  0.3933 -0.9897
11656SOL    HW237222  10.475   7.063   4.121  0.3223 -0.6863 -0.6227
11657SOL     OW37223   6.588   5.457   0.527  0.5176  0.8427 -0.2149
11657SOL    HW137224   6.648   5.473   0.599  1.8810  0.2544 -1.1815
11657SOL    HW237225   6.626   5.383   0.480 -0.8962  0.5361 -0.9394
11658SOL     OW37226   2.391   4.882   5.129 -0.6575  0.2687  0.2641
11658SOL    HW137227   2.474   4.905   5.087 -1.2979 -0.6041 -1.5871
11658SOL    HW237228   2.400   4.788   5.147 -1.3798  0.0904 -0.2953
11659SOL     OW37229   6.996   0.521   0.828  0.0474 -0.4936  0.4299
11659SOL    HW137230   6.907   0.517   0.862 -0.0814  1.0656  0.3752
11659SOL    HW237231   7.019   0.430   0.808 -0.4996 -1.2665  2.9784
11660SOL     OW37232   0.593   9.238   2.025  0.4775 -0.0676  0.1379
11660SOL    HW137233   0.633   9.272   2.106 -0.3724 -0.6390  0.8099
11660SOL    HW237234   0.590   9.314   1.967  1.8148  0.1764  0.3445
11661SOL     OW37235   2.661   8.097   8.438 -0.4234 -0.6891 -0.8848
11661SOL    HW137236   2.729   8.055   8.385 -0.0508  0.5210 -1.4160
11661SOL    HW237237   2.615   8.155   8.376 -1.0267 -0.4501 -0.2256
11662SOL     OW37238   5.572   8.746   0.133  0.0490 -0.1114 -0.1171
11662SOL    HW137239   5.642   8.809   0.150 -0.5677  0.5169  0.1438
11662SOL    HW237240   5.500   8.774   0.190 -0.4528 -0.6903 -0.4521
11663SOL     OW37241   0.184   5.593   8.731 -0.0149  0.0815 -0.3272
11663SOL    HW137242   0.098   5.558   8.710 -0.7362  0.9992  0.9571
11663SOL    HW237243   0.167   5.664   8.793  1.7640 -0.7482  1.2316
11664SOL     OW37244   9.997   7.600   5.231 -0.0733  0.2412  0.2088
11664SOL    HW137245  10.019   7.514   5.268 -1.4865 -0.1390  0.2224
11664SOL    HW237246  10.075   7.625   5.182  0.2009 -1.2884 -0.2049
11665SOL     OW37247   3.840   8.158   0.559  0.1354  0.3180  0.4066
11665SOL    HW137248   3.753   8.118   0.565  0.1263  0.3161  0.2616
11665SOL    HW237249   3.859   8.159   0.466 -0.5292  2.0783  0.2513
11666SOL     OW37250   4.762   0.792   7.132 -0.7764 -0.2906 -0.1895
11666SOL    HW137251   4.718   0.780   7.216 -1.8225 -0.5084 -0.7560
11666SOL    HW237252   4.733   0.877   7.100  0.3113  0.1953  0.0596
11667SOL     OW37253   7.163   6.008   1.245  0.2049  0.2755 -0.2372
11667SOL    HW137254   7.168   5.951   1.169  0.1604 -0.4988  0.3336
11667SOL    HW237255   7.247   6.055   1.245  0.2371  0.2213 -0.7133
11668SOL     OW37256   2.888   0.880   6.743 -0.5723  0.5314  0.0075
11668SOL    HW137257   2.890   0.791   6.708  0.0213  0.8694 -0.8459
11668SOL    HW237258   2.976   0.894   6.779 -0.5319  0.9228 -0.2396
11669SOL     OW37259   4.741   6.807   6.870  0.0900  0.0259  0.0489
11669SOL    HW137260   4.747   6.899   6.895  3.2662  0.2462 -1.0245
11669SOL    HW237261   4.667   6.803   6.809 -0.8600  1.5969  1.0420
11670SOL     OW37262   2.771   7.675   4.831 -0.4605  0.4565 -0.0138
11670SOL    HW137263   2.706   7.605   4.822  1.7484 -1.4778 -2.0282
11670SOL    HW237264   2.779   7.712   4.743  1.1942  0.5748  0.1579
11671SOL     OW37265   7.519   5.362   9.581 -0.3300  0.9337 -0.2536
11671SOL    HW137266   7.467   5.403   9.512 -2.3035  1.0145  1.1826
11671SOL    HW237267   7.561   5.434   9.627 -0.1261  0.9787 -0.5077
11672SOL     OW37268   2.138   9.778   1.980  0.6767 -0.2155 -0.1308
11672SOL    HW137269   2.080   9.807   1.909  2.4637 -0.4034 -1.7437
11672SOL    HW237270   2.106   9.691   2.003 -1.5541  0.8577  1.2104
11673SOL     OW37271   2.185   3.022  10.614 -0.7203 -0.0903  0.5158
11673SOL    HW137272   2.102   3.068  10.606 -0.3842  0.4893  0.3241
11673SOL    HW237273   2.163   2.940  10.658 -1.5085 -0.2654 -0.1807
11674SOL     OW37274  10.427   3.551   8.258 -0.0118  0.8887  0.1597
11674SOL    HW137275  10.386   3.481   8.309  0.7764  0.5998  0.4051
11674SOL    HW237276  10.379   3.551   8.175  0.0102  0.0248  0.1343
11675SOL     OW37277   1.572   9.533   8.349 -0.0976  0.4742 -0.1023
11675SOL    HW137278   1.615   9.451   8.327 -0.4407  0.4598 -0.7398
11675SOL    HW237279   1.566   9.533   8.444 -1.0862 -0.7371 -0.1520
11676SOL     OW37280  10.220   5.608   0.605  0.3095  0.1029 -0.0066
11676SOL    HW137281  10.232   5.560   0.687  0.6462 -0.0785 -0.1591
11676SOL    HW237282  10.206   5.539   0.540  1.6200  0.1659 -0.3647
11677SOL     OW37283   6.386   0.232   0.316 -0.4485  0.6745 -0.1482
11677SOL    HW137284   6.471   0.188   0.317 -0.4334  0.7039 -0.1289
11677SOL    HW237285   6.378   0.269   0.404 -0.3016  1.0119 -0.2744
11678SOL     OW37286   0.099  10.517   7.368  0.6545 -0.4125 -0.2998
11678SOL    HW137287   0.006  10.498   7.373  0.2599  1.2962 -0.5004
11678SOL    HW237288   0.118  10.519   7.274  0.6333  0.3355 -0.2938
11679SOL     OW37289   0.014   8.912   5.253 -0.2468  0.4495  0.1194
11679SOL    HW137290   0.042   9.003   5.239 -3.9754  1.9356  1.0362
11679SOL    HW237291  -0.075   8.909   5.217 -0.6082 -2.5967  0.9946
11680SOL     OW37292   0.741   7.904   7.793  0.0178 -0.1117 -0.9183
11680SOL    HW137293   0.723   7.998   7.781 -0.3421 -0.1363 -0.5591
11680SOL    HW237294   0.734   7.868   7.704  0.7522  0.2987 -1.1568
11681SOL     OW37295   9.036   5.419   1.193 -0.1903 -0.3685 -0.3113
11681SOL    HW137296   9.096   5.473   1.245 -0.1665  0.2220 -0.9475
11681SOL    HW237297   9.074   5.331   1.198  0.4856 -0.0852 -0.3371
11682SOL     OW37298  10.403   8.515   1.645  0.1292  0.6299 -0.4520
11682SOL    HW137299  10.473   8.566   1.605  1.1769 -1.0582 -0.8910
11682SOL    HW237300  10.344   8.495   1.573  0.6538 -0.2373 -0.6525
11683SOL     OW37301   0.694   2.394   6.971 -0.0172  0.0649 -0.5378
11683SOL    HW137302   0.605   2.359   6.965  0.2903 -0.4847 -2.2789
11683SOL    HW237303   0.728   2.390   6.882  1.7256  0.3624  0.0757
11684SOL     OW37304   1.450   1.500   2.166 -0.6998 -0.5281  0.1594
11684SOL    HW137305   1.419   1.531   2.081 -0.6926  0.9219  0.6667
11684SOL    HW237306   1.372   1.462   2.207 -0.6142 -1.6273 -0.6326
11685SOL     OW37307   1.085   0.024   1.056 -0.3007 -0.2718 -0.0889
11685SOL    HW137308   1.034   0.071   0.991 -0.7259  0.9439  1.0849
11685SOL    HW237309   1.176   0.048   1.039 -0.1266 -1.8506 -1.7062
11686SOL     OW37310   4.275   6.493   6.048 -0.4905  0.4818  0.0430
11686SOL    HW137311   4.287   6.559   5.979 -0.8004 -0.3775 -0.8518
11686SOL    HW237312   4.308   6.535   6.127  1.2144  0.9760 -0.8840
11687SOL     OW37313   5.166   7.642   9.069 -0.0334  0.0561  0.1236
11687SOL    HW137314   5.230   7.712   9.081  1.5734 -1.2766 -0.1581
11687SOL    HW237315   5.138   7.619   9.158  1.1653 -0.4307  0.3978
11688SOL     OW37316   9.971   0.787   9.241 -0.4792  0.3647 -0.3539
11688SOL    HW137317   9.963   0.883   9.241 -2.4795  0.2616  0.3718
11688SOL    HW237318   9.896   0.758   9.293  1.5093 -1.5146  1.6395
11689SOL     OW37319   3.016   3.719   0.302  0.3285  0.5603 -0.2667
11689SOL    HW137320   3.021   3.811   0.328  0.5487  0.6900 -0.7486
11689SOL    HW237321   3.006   3.722   0.207 -1.2119  0.1196 -0.1503
11690SOL     OW37322  10.322  10.292   7.782  0.1767  0.6934 -0.3238
11690SOL    HW137323  10.375  10.368   7.758  1.4825  0.3075  1.1884
11690SOL    HW237324  10.381  10.217   7.776 -0.1841  0.2269  1.2642
11691SOL     OW37325   7.264   8.949   3.421  0.0361 -0.0741  0.0334
11691SOL    HW137326   7.331   9.017   3.429  0.6349 -0.8556  2.3241
11691SOL    HW237327   7.295   8.878   3.477 -1.5672 -1.4256 -0.7175
11692SOL     OW37328   4.047   4.527   3.220 -0.0335 -0.3180  0.1366
11692SOL    HW137329   4.116   4.549   3.158 -0.2252  0.1561  0.0808
11692SOL    HW237330   4.081   4.557   3.305 -0.1615 -0.1007  0.1118
11693SOL     OW37331   8.157   7.700   6.747 -0.7958 -0.5949  0.1413
11693SOL    HW137332   8.167   7.788   6.711  1.0203 -0.5702  0.6122
11693SOL    HW237333   8.105   7.713   6.827 -1.4389 -0.1113 -0.3445
11694SOL     OW37334   5.072   2.802   2.860 -0.1193  0.0202 -0.2048
11694SOL    HW137335   5.056   2.717   2.900  0.9713 -0.6880 -1.2163
11694SOL    HW237336   4.994   2.853   2.882  0.1102 -0.5456  2.1587
11695SOL     OW37337   0.534   7.300   7.473 -0.4784  0.1087 -0.2072
11695SOL    HW137338   0.503   7.225   7.422 -1.3788 -0.5534  1.2464
11695SOL    HW237339   0.566   7.362   7.408 -0.9245 -0.9962 -1.5197
11696SOL     OW37340   8.943   0.803   0.525  0.0190  0.2734  0.2346
11696SOL    HW137341   8.911   0.713   0.512  1.3894 -0.1542 -0.3178
11696SOL    HW237342   8.945   0.813   0.620  2.9419 -1.4986  0.4732
11697SOL     OW37343   8.853   6.753   6.003 -0.1579  0.2088 -0.2113
11697SOL    HW137344   8.915   6.793   5.943 -0.3687  0.0771 -0.5208
11697SOL    HW237345   8.867   6.659   5.993  0.7493  0.2041  0.9504
11698SOL     OW37346   7.508   3.478   3.716 -0.1016 -0.3796 -0.3076
11698SOL    HW137347   7.472   3.485   3.804  1.3699 -0.5942  0.3437
11698SOL    HW237348   7.529   3.385   3.706  2.3535  0.0596  0.2442
11699SOL     OW37349   2.787   5.690   3.511 -0.1475 -0.4231 -0.3750
11699SOL    HW137350   2.823   5.696   3.423  2.0051  0.1940  0.4695
11699SOL    HW237351   2.694   5.672   3.499 -0.1744  0.9841 -2.7825
11700SOL     OW37352   6.165   9.435   7.257 -0.5691 -0.2412  0.8157
11700SOL    HW137353   6.217   9.515   7.270  1.3678 -1.3168  0.0766
11700SOL    HW237354   6.075   9.461   7.278 -0.1575  2.3877 -0.3304
11701SOL     OW37355   6.930   3.859   2.213  0.3946 -0.0195  0.1683
11701SOL    HW137356   6.881   3.788   2.255  0.2629 -0.1307 -0.1674
11701SOL    HW237357   6.906   3.852   2.120  1.2390 -0.2310 -0.0360
11702SOL     OW37358   2.257   2.250  10.418 -0.0723  0.0277 -0.0885
11702SOL    HW137359   2.300   2.288  10.340 -0.2434 -1.2406 -0.8249
11702SOL    HW237360   2.248   2.324  10.478  2.7350  0.4896 -0.0692
11703SOL     OW37361   6.928   6.056  10.593 -0.0939  0.2614  0.2373
11703SOL    HW137362   6.954   5.973  10.632  1.5722  0.7724  0.3131
11703SOL    HW237363   7.008   6.088  10.550 -1.0204  1.2476 -0.8300
11704SOL     OW37364   9.293   9.241   8.679 -0.2114 -0.1958  0.1731
11704SOL    HW137365   9.366   9.259   8.738  0.5997  1.8164 -1.3226
11704SOL    HW237366   9.275   9.325   8.637 -3.8206 -0.4789  0.8865
11705SOL     OW37367   9.531   9.720   9.628  0.1844 -0.7118 -0.0566
11705SOL    HW137368   9.486   9.772   9.561 -1.7901 -0.5870  1.2750
11705SOL    HW237369   9.476   9.730   9.706  3.3078  0.5848  2.1522
11706SOL     OW37370   9.491   2.549   0.461  0.0954 -0.2532 -0.2467
11706SOL    HW137371   9.407   2.541   0.417  0.4942  1.1152 -1.3278
11706SOL    HW237372   9.470   2.586   0.547 -0.6312 -2.4289  0.5910
11707SOL     OW37373   4.602   8.796   1.923 -0.6886 -0.1081 -0.5932
11707SOL    HW137374   4.591   8.724   1.984 -1.4419 -2.1750 -2.9640
11707SOL    HW237375   4.542   8.864   1.954 -2.5727 -1.8924 -0.1313
11708SOL     OW37376   6.505  10.585   0.148  0.0759 -0.0367 -0.5983
11708SOL    HW137377   6.576  10.635   0.107  0.1832 -0.6188 -1.1325
11708SOL    HW237378   6.507  10.613   0.240 -0.2830  1.4165 -1.0058
11709SOL     OW37379   2.340   6.124   4.907  0.3223 -0.2634  0.3703
11709SOL    HW137380   2.429   6.109   4.939 -0.1244 -1.1915  1.2374
11709SOL    HW237381   2.299   6.037   4.910  0.3861 -0.5882 -3.2682
11710SOL     OW37382   1.681   2.947   2.596  0.7224  0.0078 -0.2328
11710SOL    HW137383   1.591   2.917   2.582  0.8154 -0.9833  1.1301
11710SOL    HW237384   1.700   3.002   2.519 -0.7469 -0.4348 -0.9494
11711SOL     OW37385  10.554   6.418   6.377 -0.3952  0.0932  0.1134
11711SOL    HW137386  10.599   6.502   6.378  0.4562 -0.3372  1.7000
11711SOL    HW237387  10.624   6.353   6.376 -1.0477 -0.6176 -1.2860
11712SOL     OW37388   2.111   4.283   8.314  0.2253 -0.4157  0.4455
11712SOL    HW137389   2.032   4.243   8.276  0.0502  0.2001  0.1424
11712SOL    HW237390   2.147   4.335   8.243 -0.9711  2.0487  1.5163
11713SOL     OW37391   9.030   2.786   1.720 -0.3324  0.2863  0.1097
11713SOL    HW137392   9.119   2.751   1.716 -0.0013  1.1211 -0.0106
11713SOL    HW237393   9.004   2.796   1.628 -1.1462 -1.3937  0.1215
11714SOL     OW37394   2.234   6.399   6.850 -0.2011 -0.7371  0.1337
11714SOL    HW137395   2.282   6.474   6.815 -0.4521 -0.3027  0.7026
11714SOL    HW237396   2.221   6.342   6.775 -0.3438 -0.0239 -0.3958
11715SOL     OW37397   1.892   7.294   9.945 -0.6582  0.0752  0.7277
11715SOL    HW137398   1.830   7.249  10.002 -1.4332  1.6172  1.1467
11715SOL    HW237399   1.946   7.346  10.004 -2.3154  2.7300  0.0530
11716SOL     OW37400   7.607   0.240   0.251  0.6301 -0.0367  0.1219
11716SOL    HW137401   7.609   0.334   0.230  0.1605  0.1072  0.6950
11716SOL    HW237402   7.545   0.233   0.323 -0.8748 -1.0600 -1.2041
11717SOL     OW37403  10.261   1.255   0.102  0.1848  0.4806  0.0007
11717SOL    HW137404  10.234   1.265   0.011  1.0781  2.9349 -0.0933
11717SOL    HW237405  10.294   1.166   0.108 -0.1293  0.1794 -2.0136
11718SOL     OW37406  10.115   6.710   4.958  0.2749  0.6336  0.7607
11718SOL    HW137407  10.099   6.656   4.881 -1.5691 -1.3691  2.4331
11718SOL    HW237408  10.154   6.790   4.923  0.7607 -0.7249 -2.0814
11719SOL     OW37409   1.625   8.640  10.523 -0.1286 -0.3197  0.0730
11719SOL    HW137410   1.637   8.630  10.618 -1.2252  0.3629  0.3005
11719SOL    HW237411   1.548   8.697  10.514  0.7049  0.6611 -1.2240
11720SOL     OW37412   9.829   4.075   8.517 -0.7287  0.5280  0.1435
11720SOL    HW137413   9.749   4.122   8.494  0.0411  1.5955 -0.4532
11720SOL    HW237414   9.799   3.990   8.548 -2.0544  0.6718 -0.6689
11721SOL     OW37415  10.117   3.368   3.526 -0.9216  0.2890  0.1942
11721SOL    HW137416  10.176   3.394   3.455 -1.3251 -3.6590 -1.8757
11721SOL    HW237417  10.174   3.330   3.593 -0.8497 -0.6720 -0.3953
11722SOL     OW37418   0.294   4.375   6.698 -0.4174  0.5789  0.5512
11722SOL    HW137419   0.321   4.300   6.644 -1.5708  1.5295 -1.4419
11722SOL    HW237420   0.254   4.335   6.776 -0.7293 -0.8858 -0.3212
11723SOL     OW37421   6.083   3.874   2.292 -0.0665 -0.8008  0.3467
11723SOL    HW137422   6.048   3.860   2.204  0.6846 -0.2852 -0.0425
11723SOL    HW237423   6.106   3.787   2.323  0.0075 -0.9444 -0.1123
11724SOL     OW37424   2.477   6.026   9.041  0.3173 -0.4235 -0.0697
11724SOL    HW137425   2.492   5.984   9.126  1.1515 -0.8903 -0.4293
11724SOL    HW237426   2.385   6.011   9.022 -0.0529  0.2900  1.0640
11725SOL     OW37427   0.025   6.741   4.501 -0.2064 -0.5988 -0.5467
11725SOL    HW137428   0.085   6.814   4.489  0.2739 -0.7805  0.5908
11725SOL    HW237429  -0.018   6.730   4.416 -1.4534  2.0216 -0.3618
11726SOL     OW37430   2.936   6.821   4.065  0.1370  0.6209 -0.2603
11726SOL    HW137431   2.956   6.901   4.114 -0.1694  1.0094 -0.7614
11726SOL    HW237432   2.946   6.751   4.129  0.0889  1.0907  0.2727
11727SOL     OW37433   4.589   5.888   3.199  0.8333 -0.7119  0.0074
11727SOL    HW137434   4.546   5.956   3.252 -0.7358 -2.0940  0.5901
11727SOL    HW237435   4.629   5.830   3.264  0.0471 -1.6860 -0.3656
11728SOL     OW37436  10.538   6.868   0.870  0.2311 -0.4781  0.0931
11728SOL    HW137437  10.483   6.934   0.829 -0.9367 -1.0340  0.7230
11728SOL    HW237438  10.623   6.911   0.883 -0.4601  0.8366  0.3386
11729SOL     OW37439   0.914   6.459   6.431  0.7198 -0.5456  0.1347
11729SOL    HW137440   0.984   6.395   6.446  0.2703 -1.1606 -0.3414
11729SOL    HW237441   0.843   6.430   6.488  1.7129  1.5674  2.6519
11730SOL     OW37442   6.244   7.344   7.294  0.0107  0.4915  0.1721
11730SOL    HW137443   6.322   7.397   7.282 -0.4651  1.0444 -0.5912
11730SOL    HW237444   6.220   7.357   7.386  0.5172  0.7262  0.2747
11731SOL     OW37445   4.376   1.710   9.765  0.4845 -0.5162  0.3638
11731SOL    HW137446   4.441   1.705   9.694 -0.7241 -0.5781 -0.7728
11731SOL    HW237447   4.424   1.681   9.843  1.5260 -1.6380 -0.6427
11732SOL     OW37448   8.619   7.435   2.495  0.1546  0.4595 -0.3208
11732SOL    HW137449   8.635   7.467   2.584  1.4320  1.3994 -0.8522
11732SOL    HW237450   8.540   7.482   2.467 -0.9673 -0.7273  0.6961
11733SOL     OW37451   4.913   4.148   0.897 -0.4724  0.7268 -0.1191
11733SOL    HW137452   4.850   4.075   0.891 -1.3155  1.2208  1.8501
11733SOL    HW237453   4.996   4.106   0.916  0.0699  0.0020 -3.4611
11734SOL     OW37454   8.332   7.941   5.186 -0.0994 -0.5412  0.1421
11734SOL    HW137455   8.304   7.878   5.120 -0.3906 -0.8777  0.5794
11734SOL    HW237456   8.415   7.976   5.153 -0.5863 -0.1839 -0.7380
11735SOL     OW37457   9.231   6.454   7.744 -0.2362 -0.3113 -0.4514
11735SOL    HW137458   9.220   6.364   7.714 -0.8729 -0.2915 -0.2735
11735SOL    HW237459   9.326   6.467   7.742  0.0623 -1.7230  1.6672
11736SOL     OW37460   3.904   1.703   8.260  0.0035  0.1486 -0.6251
11736SOL    HW137461   3.852   1.627   8.286 -0.1214  0.2151 -0.6790
11736SOL    HW237462   3.965   1.669   8.194 -0.0339  0.0897 -0.6292
11737SOL     OW37463   9.957   2.291   0.122 -0.1584 -0.0266  0.1812
11737SOL    HW137464   9.884   2.274   0.181 -0.3045  0.4998  0.1600
11737SOL    HW237465   9.919   2.340   0.049  0.2685  0.5360  0.3278
11738SOL     OW37466   9.830   3.552   5.459  0.0967 -0.7737  0.2092
11738SOL    HW137467   9.769   3.546   5.386 -0.8336 -0.3402  0.9263
11738SOL    HW237468   9.787   3.504   5.530  1.1684 -1.5453  0.3756
11739SOL     OW37469   8.658   4.491   0.459  0.2438 -0.2018  0.1088
11739SOL    HW137470   8.692   4.580   0.466 -1.2443  0.3643  0.6664
11739SOL    HW237471   8.669   4.454   0.547  0.2950 -0.3418  0.0431
11740SOL     OW37472   8.097   5.096   1.387 -0.5744 -0.2564 -0.1126
11740SOL    HW137473   8.079   5.170   1.444 -0.3528 -0.2408 -0.0628
11740SOL    HW237474   8.138   5.030   1.444 -0.7297 -0.4011 -0.1651
11741SOL     OW37475   1.526  10.611   8.039 -0.1960 -0.2548 -0.2017
11741SOL    HW137476   1.511  10.645   7.951  3.2909 -2.5262 -1.9343
11741SOL    HW237477   1.454  10.549   8.054 -1.9899  1.6704 -0.4501
11742SOL     OW37478   8.567   0.804   2.875  0.2644 -0.0094  0.0127
11742SOL    HW137479   8.589   0.711   2.875  2.1988  0.3727 -1.8056
11742SOL    HW237480   8.498   0.813   2.809  0.4789 -0.0800 -0.2217
11743SOL     OW37481   9.976   2.392   9.621 -0.5563  0.2329 -0.0076
11743SOL    HW137482   9.932   2.330   9.679 -3.6111  1.0805 -1.2179
11743SOL    HW237483  10.015   2.456   9.680 -0.9253 -0.5774  1.1621
11744SOL     OW37484   0.689   6.755   2.596 -0.2321  0.0989  0.2198
11744SOL    HW137485   0.747   6.831   2.599 -0.6241  0.4220  2.9162
11744SOL    HW237486   0.601   6.793   2.603 -0.7978 -0.4386 -2.7632
11745SOL     OW37487   2.604   2.751   5.409 -0.0810 -0.4466  0.4739
11745SOL    HW137488   2.681   2.772   5.461  0.6884 -0.8213 -0.4907
11745SOL    HW237489   2.636   2.744   5.319 -1.2060 -0.7739  0.0754
11746SOL     OW37490  10.133   4.021   5.569 -0.7506 -0.5561 -0.2100
11746SOL    HW137491  10.211   4.011   5.514 -1.2760 -0.2072 -1.0516
11746SOL    HW237492  10.159   3.988   5.654  1.0001  1.5040  0.1568
11747SOL     OW37493   1.175   2.306   4.388  0.3449  0.0156  0.1631
11747SOL    HW137494   1.177   2.384   4.334 -0.6950  0.3810  0.6302
11747SOL    HW237495   1.120   2.245   4.340 -2.2656  1.0449  1.6664
11748SOL     OW37496   5.336   6.884   3.310 -0.2687 -0.3842 -0.3841
11748SOL    HW137497   5.248   6.878   3.347 -0.4839  0.6719 -0.7031
11748SOL    HW237498   5.386   6.934   3.375 -0.8034  2.0228 -1.7040
11749SOL     OW37499   0.782   1.909   5.896  0.1796 -0.1738  0.5639
11749SOL    HW137500   0.707   1.886   5.840  0.3563  1.7187 -0.5209
11749SOL    HW237501   0.788   2.004   5.890  2.9881 -0.3109  0.1996
11750SOL     OW37502   4.263   8.038   4.604 -0.2304 -0.3925 -0.1624
11750SOL    HW137503   4.241   7.982   4.529  0.4119 -0.7733 -0.0726
11750SOL    HW237504   4.242   7.984   4.681  0.3408 -0.4954 -0.0765
11751SOL     OW37505   7.288   7.013   7.008  0.1966  0.3513  0.3353
11751SOL    HW137506   7.375   6.973   6.997  0.0115 -0.3971  1.4289
11751SOL    HW237507   7.270   7.005   7.101 -0.6959  1.2736  0.2500
11752SOL     OW37508   6.107   4.263   4.531  0.3481  0.2878  0.0908
11752SOL    HW137509   6.119   4.269   4.436  3.2589  3.5532  0.4216
11752SOL    HW237510   6.163   4.190   4.558  0.4767  0.1143 -0.6218
11753SOL     OW37511   7.002   8.006   3.110  0.1566 -0.5633 -0.2572
11753SOL    HW137512   6.958   8.050   3.037 -0.1515  0.0222  0.2670
11753SOL    HW237513   6.961   8.044   3.189  1.0646 -0.5651  0.2312
11754SOL     OW37514   1.956   0.807   5.244 -0.5724 -0.6225 -0.0970
11754SOL    HW137515   2.036   0.772   5.283 -1.1615  0.4032  2.1779
11754SOL    HW237516   1.893   0.735   5.249 -0.7121 -0.4342  1.1631
11755SOL     OW37517   6.550   0.516   2.176  0.1674  0.1458  0.2085
11755SOL    HW137518   6.591   0.522   2.090 -0.4537 -0.1688 -0.1218
11755SOL    HW237519   6.512   0.428   2.178 -0.8561  0.5716  0.3254
11756SOL     OW37520   0.672   0.167   4.223  0.5681  0.1531 -0.0202
11756SOL    HW137521   0.671   0.119   4.140 -2.3985 -1.0680  0.5850
11756SOL    HW237522   0.613   0.241   4.209  0.2385  0.0808  0.9118
11757SOL     OW37523   3.022   9.375   6.887 -0.6003 -0.4774 -0.1344
11757SOL    HW137524   3.004   9.455   6.837 -1.2100 -0.3461  0.2769
11757SOL    HW237525   2.938   9.352   6.926 -0.6321 -1.8263 -0.9509
11758SOL     OW37526   7.276   7.912  10.423  0.2714  0.6685  0.5171
11758SOL    HW137527   7.294   8.000  10.390 -0.3419  0.4782 -0.3331
11758SOL    HW237528   7.184   7.897  10.405  0.9373 -1.1748 -1.8701
11759SOL     OW37529   6.228   1.493   8.922  0.4523  0.1130  0.0924
11759SOL    HW137530   6.234   1.581   8.959  0.0068 -0.4065  1.4591
11759SOL    HW237531   6.138   1.466   8.939  0.3794 -0.3447 -0.9543
11760SOL     OW37532   5.324   3.218   3.997 -0.4452  0.1899  0.3844
11760SOL    HW137533   5.268   3.182   4.067  0.9954 -0.4817  1.2458
11760SOL    HW237534   5.403   3.246   4.042  0.2661  0.3359 -0.9112
11761SOL     OW37535   5.190   8.348   1.976 -0.0405 -0.0781 -0.2868
11761SOL    HW137536   5.144   8.370   2.057 -0.2973 -0.2479 -0.3875
11761SOL    HW237537   5.261   8.412   1.972  0.6855 -0.7986  0.6722
11762SOL     OW37538   9.180   1.960   7.908  0.0005 -0.6362  0.0909
11762SOL    HW137539   9.179   1.891   7.974  0.4471  0.5188  1.3701
11762SOL    HW237540   9.154   2.039   7.956 -0.6163  0.0694 -1.3484
11763SOL     OW37541   9.442   1.509   4.900 -0.6950 -0.7364  0.2590
11763SOL    HW137542   9.411   1.499   4.810  1.2766 -0.7103 -0.4780
11763SOL    HW237543   9.433   1.421   4.938 -1.6983 -0.7091  0.1041
11764SOL     OW37544   6.165   7.947   6.169 -0.2897  0.5209  0.2374
11764SOL    HW137545   6.229   7.882   6.140 -2.0210 -0.0142 -2.7717
11764SOL    HW237546   6.123   7.907   6.246  1.0126 -0.3500  0.5194
11765SOL     OW37547  10.286   5.321   5.134  0.2476  0.1715  0.1956
11765SOL    HW137548  10.211   5.317   5.075 -0.0240  1.0836  0.4605
11765SOL    HW237549  10.357   5.354   5.080 -0.0738  1.2854  0.4240
11766SOL     OW37550  10.421   1.015   6.283  0.0260 -0.4120 -0.3746
11766SOL    HW137551  10.516   1.012   6.291  0.6555  2.4288 -3.8248
11766SOL    HW237552  10.391   1.056   6.364  1.7466 -0.9429  0.5793
11767SOL     OW37553   4.121   9.894   2.062  0.5112  0.1466 -0.0447
11767SOL    HW137554   4.207   9.873   2.098 -0.0142 -0.3376  0.9497
11767SOL    HW237555   4.114   9.989   2.070  0.1989  0.0056  1.6304
11768SOL     OW37556   1.221   0.634   1.253  0.2548 -0.1906 -0.0769
11768SOL    HW137557   1.301   0.597   1.290 -0.5366 -1.8131  0.1389
11768SOL    HW237558   1.193   0.569   1.189 -0.7103  0.5071 -0.3785
11769SOL     OW37559   7.273   0.173   9.507  0.1239 -0.4550  0.5114
11769SOL    HW137560   7.261   0.267   9.517 -0.2566 -0.2388 -1.4425
11769SOL    HW237561   7.356   0.154   9.550 -1.2511  0.1783  3.7164
11770SOL     OW37562   9.657   7.648   0.381 -0.0517 -0.1934 -0.5431
11770SOL    HW137563   9.599   7.573   0.367 -0.5549  0.3092 -1.2391
11770SOL    HW237564   9.744   7.610   0.391 -0.1685 -0.8346 -1.7724
11771SOL     OW37565   9.585   3.363   5.420  0.3809  0.1291  0.1056
11771SOL    HW137566   9.631   3.397   5.344  0.1360  0.4408  0.0932
11771SOL    HW237567   9.496   3.346   5.389  0.1209  0.7997  0.4599
11772SOL     OW37568   2.271   7.000   7.048 -0.0149  0.2324 -0.2811
11772SOL    HW137569   2.260   6.907   7.071  0.8331  0.2563  0.2704
11772SOL    HW237570   2.187   7.040   7.067 -0.6504 -0.5745 -1.2924
11773SOL     OW37571   6.044   1.714   2.674 -0.5142 -0.4580 -0.2091
11773SOL    HW137572   6.010   1.661   2.745 -0.8544 -0.2285 -0.2010
11773SOL    HW237573   6.063   1.651   2.604  0.4021 -0.7588  0.3000
11774SOL     OW37574   1.011   3.515   5.963 -0.2314  0.6918  0.4523
11774SOL    HW137575   1.091   3.554   5.927 -0.8013  1.8745  0.4275
11774SOL    HW237576   1.031   3.502   6.056  1.1118 -2.0304 -0.1155
11775SOL     OW37577   8.947   4.539   7.069  0.3026 -0.1007  0.0345
11775SOL    HW137578   8.994   4.574   7.145 -1.3725  0.6703  0.7777
11775SOL    HW237579   8.974   4.447   7.064  0.6062 -0.1161  1.4533
11776SOL     OW37580   7.610   9.999  10.024 -0.4472  0.0896  0.4099
11776SOL    HW137581   7.525  10.040  10.004 -1.1239 -1.4973 -0.1442
11776SOL    HW237582   7.599   9.908   9.997  1.1078 -0.3924  1.3045
11777SOL     OW37583   3.397   2.639   2.197 -0.3767 -0.5499 -0.5591
11777SOL    HW137584   3.421   2.667   2.109 -2.3220 -1.1984 -1.3525
11777SOL    HW237585   3.347   2.559   2.184 -0.6835 -0.6739  1.1390
11778SOL     OW37586   1.575   1.541   2.449 -0.3036  0.1411  0.1185
11778SOL    HW137587   1.505   1.583   2.399 -1.2021  0.3789  1.5211
11778SOL    HW237588   1.529   1.484   2.511  0.8272 -1.2781 -0.3032
11779SOL     OW37589   8.785   9.283   0.078  0.7889  0.2505  0.5866
11779SOL    HW137590   8.783   9.282   0.174 -2.1153  1.2146  0.6463
11779SOL    HW237591   8.798   9.375   0.055 -0.8092  0.3904  0.1334
11780SOL     OW37592   2.676   3.157   4.645 -0.3357 -0.5603  0.1837
11780SOL    HW137593   2.644   3.077   4.687 -0.4141  0.1504  1.5485
11780SOL    HW237594   2.765   3.168   4.680 -0.0869 -0.3995 -0.4968
11781SOL     OW37595   0.757   0.171   8.390  0.0838  0.0366 -0.1536
11781SOL    HW137596   0.839   0.217   8.407  0.8500 -1.2139 -0.2718
11781SOL    HW237597   0.781   0.104   8.325 -0.7811 -1.0408  0.6035
11782SOL     OW37598   3.569   6.682   0.375  0.3055 -0.2694 -0.1468
11782SOL    HW137599   3.531   6.650   0.456 -2.5048 -1.0160 -1.6263
11782SOL    HW237600   3.603   6.604   0.331  0.8834 -0.0111 -0.1755
11783SOL     OW37601   0.824   7.255   6.903  0.4398  0.2773  0.0204
11783SOL    HW137602   0.880   7.313   6.851 -0.1523  0.3796 -0.5253
11783SOL    HW237603   0.803   7.184   6.842 -0.6347  0.6288 -0.0297
11784SOL     OW37604   9.515   3.456   7.682  0.4092 -0.5412  0.0095
11784SOL    HW137605   9.429   3.493   7.702  0.8414 -0.2283  1.3877
11784SOL    HW237606   9.569   3.532   7.659  0.6067 -0.6108  0.2432
11785SOL     OW37607   9.087   9.116   4.173  0.0614 -0.1422 -0.0654
11785SOL    HW137608   9.086   9.083   4.263 -0.2358  1.2586  0.4710
11785SOL    HW237609   9.061   9.041   4.120  0.7422 -1.1427  0.9496
11786SOL     OW37610   6.739   5.628   9.010 -0.1778 -0.1326 -0.9338
11786SOL    HW137611   6.703   5.688   8.945  0.9770 -0.4769 -1.9378
11786SOL    HW237612   6.808   5.581   8.963 -0.4930 -1.6489  0.0564
11787SOL     OW37613   3.833   1.840   3.077 -0.1046  0.6176 -0.2802
11787SOL    HW137614   3.757   1.819   3.022  0.6844 -0.3730 -1.0228
11787SOL    HW237615   3.809   1.808   3.164 -1.3248  2.1035 -0.0237
11788SOL     OW37616   8.588   4.961   1.956  0.3146 -0.3538 -0.4162
11788SOL    HW137617   8.581   5.057   1.963  2.3794 -0.0710 -1.4356
11788SOL    HW237618   8.623   4.934   2.041  0.8998 -0.0196 -0.5383
11789SOL     OW37619   3.159   7.238   3.445  0.1842 -0.0457 -0.1394
11789SOL    HW137620   3.217   7.239   3.521 -0.2230 -2.1752  0.2800
11789SOL    HW237621   3.076   7.271   3.478  0.5995  1.1620 -0.2539
11790SOL     OW37622   9.900   8.100   6.468 -0.2752  0.4235 -0.1408
11790SOL    HW137623   9.900   8.011   6.503 -1.2277  0.0601 -1.0332
11790SOL    HW237624   9.953   8.150   6.531  1.4255 -1.0299 -0.3427
11791SOL     OW37625   6.884   5.162   5.397  0.2569  0.4539 -0.0116
11791SOL    HW137626   6.875   5.257   5.408  1.6764  0.5934  0.0725
11791SOL    HW237627   6.974   5.149   5.369  0.6265 -1.0003  1.6659
11792SOL     OW37628  10.452   8.893   2.511 -0.5355  0.4282  0.4529
11792SOL    HW137629  10.368   8.901   2.557 -1.2574 -0.7172 -0.6089
11792SOL    HW237630  10.475   8.800   2.518  0.1739  0.5501 -0.0799
11793SOL     OW37631   0.817   8.193   9.048 -0.3484 -0.0354 -0.1370
11793SOL    HW137632   0.813   8.176   8.954 -0.4430 -3.0853  0.3108
11793SOL    HW237633   0.910   8.186   9.069 -0.3456  0.4745  0.0145
11794SOL     OW37634   9.433   5.547   5.432 -0.4983 -1.0435 -0.0562
11794SOL    HW137635   9.504   5.489   5.404  0.7908  0.6260 -0.3566
11794SOL    HW237636   9.470   5.635   5.427 -2.5786 -0.1152 -0.1866
11795SOL     OW37637   7.345   7.332   3.419  0.0468 -0.5217  0.5505
11795SOL    HW137638   7.348   7.243   3.384 -0.0307 -0.5662  0.6568
11795SOL    HW237639   7.254   7.343   3.448  0.2628 -0.6977  1.2947
11796SOL     OW37640   0.160   3.525   9.014  0.0221 -0.9020 -0.0366
11796SOL    HW137641   0.120   3.535   8.927  0.0107 -0.4281  0.0214
11796SOL    HW237642   0.152   3.432   9.033 -1.1558 -0.7962  0.0290
11797SOL     OW37643   2.999   3.905   1.183 -0.5625  0.0792 -0.1601
11797SOL    HW137644   3.002   3.829   1.241 -3.2388 -0.6605 -0.8330
11797SOL    HW237645   3.090   3.925   1.165  0.3910 -0.0968  3.6364
11798SOL     OW37646   4.910   1.804   6.818  0.0795  0.3460  0.2996
11798SOL    HW137647   4.894   1.893   6.847  1.5505  1.0493 -0.9022
11798SOL    HW237648   4.992   1.809   6.769  0.2391 -1.6828  0.2565
11799SOL     OW37649   3.274  10.366   8.395 -0.3933 -0.0258 -0.0541
11799SOL    HW137650   3.185  10.332   8.401 -0.1838 -0.4810  0.6540
11799SOL    HW237651   3.264  10.454   8.359 -0.9831 -0.6754 -1.5499
11800SOL     OW37652   2.809   4.543   9.342  0.4469  0.5859  0.2052
11800SOL    HW137653   2.800   4.469   9.282  2.4363  0.5836 -0.1678
11800SOL    HW237654   2.857   4.609   9.291  0.9907  1.0980  1.3434
11801SOL     OW37655   7.694   3.047   6.306 -0.2228 -0.5171  0.1470
11801SOL    HW137656   7.629   3.049   6.377  0.5060  0.0431  0.8239
11801SOL    HW237657   7.722   2.956   6.303 -1.5442 -0.9264 -0.6456
11802SOL     OW37658   6.593   6.681  10.403  0.0357  0.3745 -0.4038
11802SOL    HW137659   6.674   6.721  10.436  1.5181 -1.5546 -1.4710
11802SOL    HW237660   6.618   6.645  10.318 -1.4238 -1.9455  0.0771
11803SOL     OW37661   5.115   5.189   8.126  0.5795  0.9062 -0.5069
11803SOL    HW137662   5.197   5.224   8.093  0.0265  1.3192 -1.4923
11803SOL    HW237663   5.050   5.255   8.102 -0.3108 -0.2236 -1.2891
11804SOL     OW37664   5.906   2.766   8.899 -0.1852 -0.0816  0.4360
11804SOL    HW137665   5.836   2.801   8.953  1.0091  2.6818  0.3535
11804SOL    HW237666   5.861   2.724   8.826 -1.7578 -0.0192  1.3273
11805SOL     OW37667   1.709   2.019   8.504 -0.2485 -0.1178 -0.4311
11805SOL    HW137668   1.646   2.058   8.565  0.4571  0.5239 -0.0946
11805SOL    HW237669   1.656   1.989   8.430 -1.0591 -0.4637  0.2807
11806SOL     OW37670   0.428   6.858   9.645  0.5513 -0.2222  0.1307
11806SOL    HW137671   0.464   6.811   9.720  0.6378 -0.1531  0.1330
11806SOL    HW237672   0.454   6.806   9.569  2.1996  0.7548 -0.0208
11807SOL     OW37673   8.693   0.899   2.411 -0.3641 -0.0480  0.8636
11807SOL    HW137674   8.669   0.992   2.412 -0.0532  0.0724 -0.8599
11807SOL    HW237675   8.776   0.895   2.458  0.8624  0.9472 -1.1141
11808SOL     OW37676   9.191   0.253   8.913  0.2612  0.0665  0.1857
11808SOL    HW137677   9.109   0.204   8.912 -0.7246  1.6561  0.2677
11808SOL    HW237678   9.229   0.239   8.826 -1.6511  1.7665 -1.0109
11809SOL     OW37679   3.281   4.011   5.694  0.8051 -0.0819 -0.1540
11809SOL    HW137680   3.254   3.956   5.621  0.9646 -1.6513  0.9287
11809SOL    HW237681   3.374   3.994   5.704  0.6564 -0.3894  0.8162
11810SOL     OW37682   6.146   4.999   4.266 -0.3625  0.4889  0.7228
11810SOL    HW137683   6.143   5.069   4.332  0.4859  2.0089 -0.7668
11810SOL    HW237684   6.099   5.035   4.191 -1.2078 -1.1653  0.4249
11811SOL     OW37685   1.547   0.123  10.646  0.3686  0.1163  0.0644
11811SOL    HW137686   1.510   0.171  10.720 -0.4145 -0.9589  0.4072
11811SOL    HW237687   1.510   0.166  10.569  0.4093  0.6358  0.3321
11812SOL     OW37688   0.122   6.084   0.936  0.2455 -0.2108 -0.4035
11812SOL    HW137689   0.156   6.101   0.849  2.4934 -0.2526  0.4081
11812SOL    HW237690   0.149   6.160   0.988 -0.9247 -0.2565  0.3134
11813SOL     OW37691   8.286   5.863   4.910  0.4295  0.4225 -0.4362
11813SOL    HW137692   8.293   5.959   4.906 -0.6166  0.5330  0.0302
11813SOL    HW237693   8.297   5.835   4.820  0.0711  1.0506 -0.6875
11814SOL     OW37694   2.784   7.131   1.504  0.2140 -0.2039  0.5023
11814SOL    HW137695   2.727   7.058   1.531 -0.8804  0.3234 -0.2629
11814SOL    HW237696   2.725   7.190   1.456  1.8567 -0.8644 -2.6226
11815SOL     OW37697   3.101   0.457   2.482 -0.3594  0.2565 -0.0130
11815SOL    HW137698   3.063   0.427   2.565  0.6842 -1.5456 -0.1516
11815SOL    HW237699   3.118   0.378   2.432  1.2210  1.1449 -0.9982
11816SOL     OW37700  10.440   5.059   8.252 -0.2163  0.2340  0.1399
11816SOL    HW137701  10.406   5.129   8.197 -0.2502 -0.0879 -0.2482
11816SOL    HW237702  10.479   4.996   8.191 -0.9988 -0.5308  0.4154
11817SOL     OW37703   8.248   2.554   6.852  0.0345  0.0943  0.4644
11817SOL    HW137704   8.184   2.564   6.781 -0.0117 -0.6300  0.3951
11817SOL    HW237705   8.195   2.546   6.931 -0.0248 -1.4873  0.2976
11818SOL     OW37706   6.714   8.788   4.056 -0.0885  0.1959 -0.7084
11818SOL    HW137707   6.726   8.746   3.971 -0.7455 -1.4466 -0.0512
11818SOL    HW237708   6.692   8.879   4.036 -0.5862 -0.2426 -2.3005
11819SOL     OW37709   4.877   1.045  10.343  0.2933  0.3214  0.0533
11819SOL    HW137710   4.952   1.010  10.294  0.5569 -0.3037  0.8931
11819SOL    HW237711   4.801   1.001  10.306  0.5608 -0.6873  0.6767
11820SOL     OW37712  10.362   8.534   4.223  0.1452  0.2732  0.5326
11820SOL    HW137713  10.280   8.496   4.255  0.1538 -0.2677 -0.0778
11820SOL    HW237714  10.412   8.460   4.190  0.2949  0.7739 -0.3802
11821SOL     OW37715   5.263   3.030   2.794  0.0881  0.2558  0.3534
11821SOL    HW137716   5.331   2.987   2.846  1.5161  0.0659 -1.5810
11821SOL    HW237717   5.191   2.966   2.792  0.3889 -0.1322  1.2387
11822SOL     OW37718   8.113   5.460   2.194  0.0109 -0.2235 -0.5984
11822SOL    HW137719   8.075   5.396   2.134 -0.2438  0.5887 -1.3161
11822SOL    HW237720   8.152   5.526   2.137 -0.1163  0.4908  0.1309
11823SOL     OW37721   3.575  10.384   3.058  0.4990 -0.0685  0.3382
11823SOL    HW137722   3.603  10.310   3.004  0.7840 -0.1355  0.5760
11823SOL    HW237723   3.593  10.357   3.148  1.6973  0.7397  0.3657
11824SOL     OW37724   9.295   1.296   1.956 -0.4127  0.3282 -1.2035
11824SOL    HW137725   9.281   1.219   1.901 -1.2931  2.0640 -3.6027
11824SOL    HW237726   9.356   1.350   1.907  0.8755  0.8351  0.8328
11825SOL     OW37727   3.425   4.989  10.041 -0.3841 -0.1154 -0.0071
11825SOL    HW137728   3.408   4.903  10.079  1.4009  0.0059  1.1694
11825SOL    HW237729   3.371   5.049  10.094  2.0665  0.0530  2.5521
11826SOL     OW37730   0.946   0.795   6.159  0.2927 -0.2256 -0.2791
11826SOL    HW137731   0.897   0.727   6.206 -0.2607 -0.4654 -1.1813
11826SOL    HW237732   0.944   0.871   6.218 -1.1641 -0.2393 -0.2852
11827SOL     OW37733   3.592   8.728  10.211  0.1324 -0.7827  0.2713
11827SOL    HW137734   3.662   8.717  10.146  0.4573  0.1262  0.4619
11827SOL    HW237735   3.517   8.758  10.161 -0.1311 -1.7129  0.0748
11828SOL     OW37736   9.437   2.372   3.259  0.2767 -0.1085 -0.0337
11828SOL    HW137737   9.499   2.343   3.327  0.8022  0.7572 -0.1259
11828SOL    HW237738   9.428   2.296   3.201  0.9586 -0.3805  0.2004
11829SOL     OW37739   1.685   5.598   2.677 -0.3286  0.1366 -0.2238
11829SOL    HW137740   1.764   5.619   2.627  1.8547 -1.4527  2.2756
11829SOL    HW237741   1.676   5.503   2.669 -0.2444 -0.0912  1.8196
11830SOL     OW37742   8.240   7.570   7.539  0.0340  0.3284 -0.0754
11830SOL    HW137743   8.268   7.482   7.517  3.3417  0.5749  2.3967
11830SOL    HW237744   8.219   7.567   7.632  0.0795  2.0925  0.0389
11831SOL     OW37745   8.679   1.086   2.750  0.5857  0.3228 -0.3378
11831SOL    HW137746   8.651   1.017   2.810  0.5845 -1.1326 -1.9264
11831SOL    HW237747   8.750   1.046   2.699  1.0306  1.7168 -0.8614
11832SOL     OW37748   5.058   5.895   5.930  0.2941  0.6053 -0.0815
11832SOL    HW137749   5.064   5.948   5.850  0.8961 -2.0281 -1.9061
11832SOL    HW237750   5.146   5.898   5.967  0.3174  0.8466 -0.1497
11833SOL     OW37751   9.785   4.496   3.525  0.2438 -0.1168 -0.6321
11833SOL    HW137752   9.706   4.479   3.473  1.1674  2.4081 -3.1232
11833SOL    HW237753   9.840   4.418   3.512 -0.7482 -0.7715 -1.0023
11834SOL     OW37754  10.170   2.300   0.788 -0.3115  0.2792 -0.1477
11834SOL    HW137755  10.258   2.261   0.784 -0.0101  1.0124 -0.9931
11834SOL    HW237756  10.159   2.343   0.703 -1.2925  0.6257  0.1446
11835SOL     OW37757   2.390   6.634   0.357  0.1079 -0.5452  0.1775
11835SOL    HW137758   2.473   6.586   0.353  0.1697 -0.3818 -0.6254
11835SOL    HW237759   2.408   6.708   0.414 -0.3851 -2.2039  2.6685
11836SOL     OW37760   0.282   9.860   9.483 -1.0051  0.4490  0.5300
11836SOL    HW137761   0.347   9.812   9.535 -1.4446 -0.5845  0.1447
11836SOL    HW237762   0.311   9.951   9.487  0.9861 -0.0911 -0.3564
11837SOL     OW37763   7.318   0.626  10.445  0.3122 -0.2845 -0.0817
11837SOL    HW137764   7.334   0.533  10.462  2.5366  0.2899  1.2789
11837SOL    HW237765   7.241   0.647  10.498 -0.3266 -1.3627 -0.5494
11838SOL     OW37766   3.144   4.208   2.257 -0.2730  0.2395 -0.1256
11838SOL    HW137767   3.093   4.164   2.325 -0.9584 -0.4922 -1.0879
11838SOL    HW237768   3.149   4.299   2.286 -1.5715  0.1855  0.3426
11839SOL     OW37769   3.843   5.833   5.965 -0.0080 -0.0219 -0.0086
11839SOL    HW137770   3.834   5.790   6.050 -1.1919 -2.0508 -1.0945
11839SOL    HW237771   3.920   5.792   5.925 -0.3356 -0.1620 -0.5086
11840SOL     OW37772   5.062   2.937   5.699  0.7439  0.3700 -0.0301
11840SOL    HW137773   5.156   2.932   5.716  0.6457 -0.1097  0.3922
11840SOL    HW237774   5.050   2.887   5.618  0.8596  0.5050 -0.1332
11841SOL     OW37775   1.198   3.792   8.884 -0.1368  0.4576  0.2560
11841SOL    HW137776   1.276   3.834   8.919  1.2943 -2.4578  0.8330
11841SOL    HW237777   1.227   3.752   8.802 -0.3258 -2.5839  1.5668
11842SOL     OW37778   4.996   9.803   9.958  0.2530  0.0335  0.5501
11842SOL    HW137779   5.021   9.754   9.880  0.7668  0.4502  0.4499
11842SOL    HW237780   5.077   9.813  10.007  0.4458  1.9625 -0.0897
11843SOL     OW37781   9.110   6.542   4.671 -0.1030 -0.0305  0.3433
11843SOL    HW137782   9.170   6.489   4.618  0.6648  1.5308 -0.4270
11843SOL    HW237783   9.073   6.605   4.609  0.1005  1.2382  1.4626
11844SOL     OW37784   1.369   8.019   2.377 -0.1562 -0.0176 -0.0428
11844SOL    HW137785   1.391   7.993   2.288  0.4384  1.0450 -0.2263
11844SOL    HW237786   1.280   8.051   2.372  0.4267  1.6026 -0.6242
11845SOL     OW37787   9.450   4.063   1.491 -0.1861  0.1746  0.0433
11845SOL    HW137788   9.524   4.003   1.506 -0.1544  0.2073  0.0191
11845SOL    HW237789   9.476   4.145   1.532 -0.2373  0.1664  0.0917
11846SOL     OW37790   8.310   7.267   6.529  0.7560  0.2894  0.1676
11846SOL    HW137791   8.346   7.265   6.441  0.4056  0.6431  0.0132
11846SOL    HW237792   8.370   7.324   6.578  1.2158 -0.2871  0.2813
11847SOL     OW37793   7.279   0.711   7.688 -0.6843  0.0320 -0.2479
11847SOL    HW137794   7.337   0.757   7.628 -2.6546  0.4811 -1.9584
11847SOL    HW237795   7.301   0.619   7.677 -0.0884  0.2120 -0.6075
11848SOL     OW37796   0.428   5.164   1.917  0.3145  0.5891  0.6391
11848SOL    HW137797   0.392   5.196   1.999 -1.0385 -0.2193  0.3934
11848SOL    HW237798   0.484   5.091   1.942 -0.6520 -0.1089  0.8061
11849SOL     OW37799   2.476   2.183   1.017  0.0645 -0.1263 -0.2693
11849SOL    HW137800   2.484   2.260   0.960  0.3158  0.2060  0.2034
11849SOL    HW237801   2.385   2.185   1.048  0.5398  1.0441  1.1874
11850SOL     OW37802   7.292   3.644   6.430 -0.3293  0.7780 -0.1621
11850SOL    HW137803   7.274   3.673   6.519  0.0162 -0.8501  0.4820
11850SOL    HW237804   7.351   3.710   6.394 -0.5448  1.4989  0.7933
11851SOL     OW37805   3.705   3.368   7.010  0.0359 -0.2746 -0.3010
11851SOL    HW137806   3.783   3.410   6.974  0.7231 -0.9255  0.3978
11851SOL    HW237807   3.736   3.321   7.088 -0.8765 -1.3048 -0.5273
11852SOL     OW37808   8.706   1.526   8.348 -0.3227 -0.3886  0.5034
11852SOL    HW137809   8.781   1.493   8.298 -1.4098 -1.4782 -0.4541
11852SOL    HW237810   8.746   1.575   8.420  1.3227 -1.4241  0.3564
11853SOL     OW37811   9.615   7.841   4.372 -0.0745  0.2591 -0.6278
11853SOL    HW137812   9.708   7.866   4.376 -0.0294 -0.0614  2.6532
11853SOL    HW237813   9.616   7.746   4.361 -0.0678  0.3334 -1.3497
11854SOL     OW37814   2.155  10.228  10.325 -0.2483  0.4473  0.6196
11854SOL    HW137815   2.145  10.323  10.322  0.9418  0.5639 -0.4199
11854SOL    HW237816   2.073  10.196  10.363 -0.6725  1.8779  0.9627
11855SOL     OW37817   9.988   6.876   9.680  0.3382 -0.1158  0.6916
11855SOL    HW137818  10.030   6.936   9.741  0.7019  0.6218 -0.2554
11855SOL    HW237819  10.004   6.914   9.594 -0.4319 -0.9620  0.1517
11856SOL     OW37820   6.938   0.049   4.531  0.4610 -0.2985 -0.0573
11856SOL    HW137821   6.938   0.068   4.625 -0.8615 -0.3933 -0.0240
11856SOL    HW237822   6.846   0.053   4.505  0.7907 -0.4097 -1.3301
11857SOL     OW37823   7.470   0.347   4.471  0.6143  0.6523 -0.4784
11857SOL    HW137824   7.456   0.399   4.551 -0.4144 -1.5359  0.8657
11857SOL    HW237825   7.544   0.291   4.492 -0.8698 -1.3218 -0.2306
11858SOL     OW37826   0.804   8.658   9.194  0.0275  0.2697  0.3275
11858SOL    HW137827   0.894   8.690   9.186  0.5750 -1.3896 -0.5247
11858SOL    HW237828   0.800   8.618   9.281 -0.0739  0.8472  0.5945
11859SOL     OW37829   5.275   9.832   0.190  0.1993  0.6366  0.1214
11859SOL    HW137830   5.270   9.919   0.231  0.8285 -0.2073  2.1298
11859SOL    HW237831   5.247   9.772   0.259 -0.7320 -0.7525 -1.3945
11860SOL     OW37832   0.638   0.737   5.505 -0.0548 -0.4523  0.7858
11860SOL    HW137833   0.566   0.693   5.462 -1.2596  0.1120  2.1442
11860SOL    HW237834   0.695   0.667   5.536  1.1731 -0.8761 -2.1065
11861SOL     OW37835   2.940   8.242  10.216  0.1256  0.3648 -0.2665
11861SOL    HW137836   3.026   8.284  10.219  1.5014 -2.0768 -2.2112
11861SOL    HW237837   2.909   8.257  10.127 -0.9185  0.1747  0.0502
11862SOL     OW37838   1.857   6.436   5.299 -0.1377 -0.7897 -0.6588
11862SOL    HW137839   1.901   6.460   5.217  0.2066 -0.9911 -0.5381
11862SOL    HW237840   1.776   6.394   5.272 -0.7215  0.4445 -0.8720
11863SOL     OW37841   0.432   4.571   8.315 -0.1941 -0.4105 -0.4018
11863SOL    HW137842   0.432   4.666   8.315  0.4792 -0.3631  1.8656
11863SOL    HW237843   0.510   4.547   8.264  2.3536  0.4385  2.7646
11864SOL     OW37844   9.030   1.269   6.021 -0.0699  0.9105 -0.1453
11864SOL    HW137845   9.066   1.208   5.957 -0.1078  2.1042 -1.3370
11864SOL    HW237846   9.096   1.271   6.092  0.4942  0.3864 -0.6487
11865SOL     OW37847   5.669   8.193   8.505  0.1739 -0.0588  0.2428
11865SOL    HW137848   5.705   8.158   8.587  0.5600  2.4168  1.2186
11865SOL    HW237849   5.647   8.284   8.526 -0.2735  0.4727 -2.2607
11866SOL     OW37850   2.699   5.769   6.186  0.2242  0.2166 -0.9944
11866SOL    HW137851   2.646   5.812   6.253  0.0557 -1.2660 -0.1272
11866SOL    HW237852   2.699   5.830   6.112 -0.5284  1.3881 -0.0621
11867SOL     OW37853   4.954   7.542   3.988 -0.3132 -0.3532 -0.3606
11867SOL    HW137854   5.021   7.484   3.951  1.4437  0.2463  1.6723
11867SOL    HW237855   4.993   7.629   3.983 -0.4340 -0.1324  1.8641
11868SOL     OW37856   5.945   1.222   2.006 -0.5385 -0.3707 -0.4598
11868SOL    HW137857   6.011   1.262   1.948 -0.8289  0.2760 -0.3568
11868SOL    HW237858   5.996   1.172   2.069 -0.1370  0.1622 -0.3533
11869SOL     OW37859   3.073   2.878   9.673 -0.2759 -0.0537 -0.5726
11869SOL    HW137860   3.089   2.950   9.612 -2.2644  0.3393 -0.7040
11869SOL    HW237861   3.079   2.919   9.760  3.1554 -0.7298 -0.3285
11870SOL     OW37862   7.908   3.401   1.023 -0.2277 -0.4227  0.1047
11870SOL    HW137863   7.978   3.396   0.957 -1.7599 -1.5351 -1.5333
11870SOL    HW237864   7.953   3.388   1.106  1.8835  1.6168 -0.6068
11871SOL     OW37865   0.850   0.636  10.294 -0.2196 -0.1764  0.0137
11871SOL    HW137866   0.830   0.642  10.387  1.3906  1.5400  0.3076
11871SOL    HW237867   0.913   0.564  10.288  1.6412  1.3340  0.6775
11872SOL     OW37868   3.613   4.194   3.234  0.4442  0.1632  0.3528
11872SOL    HW137869   3.548   4.163   3.296  0.2729  0.1130  0.1474
11872SOL    HW237870   3.576   4.275   3.199  0.2808 -0.1028 -0.1021
11873SOL     OW37871   0.267   7.203  10.242 -0.2280 -0.2844  0.2121
11873SOL    HW137872   0.250   7.212  10.148  0.6305 -3.2324 -0.3206
11873SOL    HW237873   0.347   7.255  10.256  0.3372 -0.7868 -0.9611
11874SOL     OW37874   2.995   9.925   3.363 -0.4415 -0.3834  0.4329
11874SOL    HW137875   3.071   9.961   3.407  0.4543 -0.1842 -1.1978
11874SOL    HW237876   3.027   9.896   3.277 -2.8103  3.3009 -1.9967
11875SOL     OW37877   3.907   1.213   2.806 -0.3874 -0.7606 -0.0513
11875SOL    HW137878   3.863   1.129   2.813  0.3225 -1.1419 -0.0699
11875SOL    HW237879   3.839   1.274   2.776 -0.5789 -1.6081 -1.3699
11876SOL     OW37880   2.688   3.363   5.000  0.0787  0.3221  0.0448
11876SOL    HW137881   2.770   3.374   5.049 -0.4737  0.8923  0.8565
11876SOL    HW237882   2.705   3.288   4.942  0.9904  0.0955  0.5823
11877SOL     OW37883   4.765   4.006  10.578  0.1752 -0.1302  0.0497
11877SOL    HW137884   4.844   4.043  10.618  1.1596 -1.2159 -0.8143
11877SOL    HW237885   4.763   4.045  10.490 -0.9524  0.8400  0.4924
11878SOL     OW37886   0.108   5.835   3.234 -0.1770  0.1969  0.2722
11878SOL    HW137887   0.041   5.770   3.211  1.9218 -1.0592 -3.0731
11878SOL    HW237888   0.184   5.783   3.260  0.8500  1.3761 -0.2468
11879SOL     OW37889   1.763   9.379   7.390  0.4097 -0.2329 -0.2283
11879SOL    HW137890   1.814   9.303   7.363  0.9580  0.2841 -0.6726
11879SOL    HW237891   1.740   9.422   7.308 -1.0182 -0.6209 -0.0610
11880SOL     OW37892   4.465   3.244   5.463 -0.7947  0.0684  0.3064
11880SOL    HW137893   4.500   3.155   5.470  0.5088  0.5604  0.4118
11880SOL    HW237894   4.541   3.300   5.478 -1.7980  1.2059  1.3321
11881SOL     OW37895   9.013   9.677   2.106  0.4751 -0.0227 -0.1779
11881SOL    HW137896   9.028   9.763   2.147  1.2259 -0.6025  0.7971
11881SOL    HW237897   9.101   9.645   2.085  0.2317 -0.8163  0.0139
11882SOL     OW37898  10.401   4.597   7.988 -0.2002 -0.0224  0.7084
11882SOL    HW137899  10.484   4.564   7.954  0.9296  2.2511  1.0630
11882SOL    HW237900  10.387   4.551   8.070  1.3413  0.3757  1.2190
11883SOL     OW37901   6.072   0.872   2.410 -0.6251 -0.1926  0.2496
11883SOL    HW137902   6.023   0.901   2.487 -0.9990 -0.4214  0.1006
11883SOL    HW237903   6.012   0.812   2.365  0.3616 -1.7126  0.8784
11884SOL     OW37904   1.733   0.289   2.768  0.0701 -0.4061  0.2266
11884SOL    HW137905   1.772   0.325   2.688 -0.7053 -1.9035 -0.8750
11884SOL    HW237906   1.807   0.261   2.821  0.5693 -0.6242 -0.5714
11885SOL     OW37907   2.819   1.874   8.642  0.1386  0.0397 -0.4273
11885SOL    HW137908   2.790   1.847   8.729 -0.9601 -0.2965 -0.8826
11885SOL    HW237909   2.891   1.815   8.620  0.8222  0.5134  0.4861
11886SOL     OW37910   9.927   6.655   0.320 -0.1172 -0.7443 -0.7100
11886SOL    HW137911  10.021   6.646   0.306 -0.1421 -1.5612 -0.3767
11886SOL    HW237912   9.911   6.749   0.312  0.7750 -0.5654 -0.4845
11887SOL     OW37913   0.806   4.217   1.134 -0.2577 -0.1586  0.0396
11887SOL    HW137914   0.743   4.250   1.198  2.1970  1.9172  1.5638
11887SOL    HW237915   0.803   4.122   1.144 -1.9324 -0.0186  1.2115
11888SOL     OW37916   1.988   4.595   5.387 -0.0302  0.0276 -0.0664
11888SOL    HW137917   1.911   4.593   5.444  0.3051 -1.4081  0.3923
11888SOL    HW237918   1.959   4.640   5.308 -1.2551 -0.2190  0.2244
11889SOL     OW37919   1.736   2.309   6.722 -0.2001 -0.0564 -0.3559
11889SOL    HW137920   1.789   2.246   6.673 -0.2464  1.2346 -2.2046
11889SOL    HW237921   1.766   2.302   6.812  2.0823 -0.4235 -1.0882
11890SOL     OW37922   5.634   4.216   1.422 -0.0268 -0.4404 -0.1350
11890SOL    HW137923   5.546   4.179   1.431  0.0379 -0.3364  1.0867
11890SOL    HW237924   5.637   4.286   1.487  0.4583  0.5486 -1.1840
11891SOL     OW37925  10.311   8.422   7.485 -0.3207 -0.2456  0.2257
11891SOL    HW137926  10.292   8.491   7.548  1.1051 -0.0081  0.4263
11891SOL    HW237927  10.231   8.370   7.482 -1.2845  1.1686  0.3650
11892SOL     OW37928   3.118   8.734   3.816 -0.6223 -1.0100 -0.0473
11892SOL    HW137929   3.192   8.759   3.872 -1.3114 -0.7589  0.7869
11892SOL    HW237930   3.081   8.657   3.858 -2.4946  0.4418  1.1840
11893SOL     OW37931   7.984   7.921  10.649  0.1008  0.8597  0.1514
11893SOL    HW137932   8.001   7.848  10.707  0.9662 -0.6557 -1.8870
11893SOL    HW237933   8.070   7.958  10.630 -0.2152  1.6550  0.2066
11894SOL     OW37934   0.262  10.420  10.471 -0.1245 -0.1470  0.3427
11894SOL    HW137935   0.250  10.446  10.380 -0.7999 -3.8299 -0.8066
11894SOL    HW237936   0.336  10.472  10.502 -1.1637  2.6976 -1.5803
11895SOL     OW37937   7.447   1.177   6.353 -0.3311  0.0640 -0.0518
11895SOL    HW137938   7.486   1.193   6.439  1.1217  1.9788 -0.9941
11895SOL    HW237939   7.383   1.247   6.342 -0.8142 -0.4181 -0.3798
11896SOL     OW37940   4.178   3.618   4.626  0.2546  0.1652  0.4032
11896SOL    HW137941   4.202   3.531   4.659 -1.9447 -0.8175 -0.3946
11896SOL    HW237942   4.117   3.652   4.691  0.4510  0.7615  0.2814
11897SOL     OW37943   4.628  10.027   6.730  0.7213  0.4010 -0.5946
11897SOL    HW137944   4.617  10.122   6.721  0.1470  0.3880 -0.0366
11897SOL    HW237945   4.589   9.991   6.650 -0.0324  0.5812 -0.3192
11898SOL     OW37946   0.004   9.769   5.084 -0.2629  0.1211  0.1161
11898SOL    HW137947   0.042   9.731   5.163  1.0284 -0.1835 -0.6394
11898SOL    HW237948  -0.033   9.853   5.113  1.0174  0.4456  0.8656
11899SOL     OW37949   5.968   1.648  10.574 -0.3670  0.1890  0.4319
11899SOL    HW137950   6.031   1.592  10.619 -0.5034  0.8883  1.5429
11899SOL    HW237951   6.014   1.731  10.563 -0.7825  0.4182  0.4101
11900SOL     OW37952   1.167   7.727   4.102  0.0628 -0.7457 -0.6281
11900SOL    HW137953   1.232   7.672   4.146  0.1000  0.8095  1.4373
11900SOL    HW237954   1.083   7.697   4.135  0.0600  0.1120  0.2005
11901SOL     OW37955   8.563   5.393   8.148 -0.0419  0.4788  0.0943
11901SOL    HW137956   8.495   5.461   8.142  0.6223  1.1581  0.0724
11901SOL    HW237957   8.525   5.317   8.105 -1.0689  0.6171  0.7291
11902SOL     OW37958   5.914   0.282   7.358  0.0205  0.4166 -0.1907
11902SOL    HW137959   5.822   0.297   7.379 -0.2292 -0.6074 -0.4793
11902SOL    HW237960   5.935   0.199   7.401  1.5854  1.8971  2.1202
11903SOL     OW37961   5.303   8.851   4.789 -0.1211 -0.0534  0.0991
11903SOL    HW137962   5.266   8.931   4.828  2.2168  1.3259 -0.2912
11903SOL    HW237963   5.315   8.792   4.863  0.3802  0.9249  0.8310
11904SOL     OW37964   6.025   0.171   1.743  0.4039 -0.2420  0.2631
11904SOL    HW137965   5.945   0.124   1.766  1.4391 -1.1666  2.2253
11904SOL    HW237966   6.001   0.263   1.747 -0.3634 -0.4771  1.7628
11905SOL     OW37967   4.711   6.605   1.380  0.4036 -0.6549 -0.7441
11905SOL    HW137968   4.806   6.614   1.392  0.3152 -0.0326 -0.4846
11905SOL    HW237969   4.698   6.618   1.286  0.6171 -1.1953 -0.8572
11906SOL     OW37970   3.422   4.809   4.043 -0.0785  0.0299 -0.9653
11906SOL    HW137971   3.505   4.811   4.090 -1.1845  2.2916  1.1257
11906SOL    HW237972   3.436   4.865   3.966 -0.1321  2.1177  0.4527
11907SOL     OW37973   5.995   3.540   1.651  0.4610  0.2560  0.0798
11907SOL    HW137974   6.074   3.532   1.598  0.2037  1.1211 -0.4489
11907SOL    HW237975   6.023   3.513   1.739  1.4244  0.8591 -0.0286
11908SOL     OW37976   3.227   4.632   1.771  0.1199  0.3517 -0.1342
11908SOL    HW137977   3.197   4.596   1.687  0.0280  0.8194 -0.3076
11908SOL    HW237978   3.322   4.630   1.765  0.1377 -0.9585  0.3397
11909SOL     OW37979   7.059   3.596   1.674 -0.1169  0.9333 -0.1218
11909SOL    HW137980   6.994   3.665   1.684  0.0215  0.9807  0.5324
11909SOL    HW237981   7.083   3.598   1.582 -1.0026  0.9432 -0.3596
11910SOL     OW37982   5.302   4.129   2.192  0.0066 -0.1148 -0.0081
11910SOL    HW137983   5.271   4.187   2.123  0.4037 -0.2990 -0.3438
11910SOL    HW237984   5.227   4.120   2.251 -0.3686 -0.0342 -0.4641
11911SOL     OW37985   8.955   9.723   1.153  0.1839 -0.3413 -0.4007
11911SOL    HW137986   9.028   9.701   1.211  0.3327  0.1743 -0.3895
11911SOL    HW237987   8.903   9.787   1.203  0.3300  0.1303 -0.8414
11912SOL     OW37988  10.422   1.149   2.660 -0.1319 -0.0596 -0.4825
11912SOL    HW137989  10.460   1.063   2.641 -2.1564 -0.7516 -1.6888
11912SOL    HW237990  10.367   1.135   2.737 -1.5268 -0.2121 -1.4737
11913SOL     OW37991   1.274   9.640   3.349  0.1289 -0.2383  0.0250
11913SOL    HW137992   1.304   9.549   3.346  0.2132 -0.2834  1.4912
11913SOL    HW237993   1.183   9.636   3.321  0.1677 -0.7471 -0.0459
11914SOL     OW37994   6.739   2.186   4.839  0.1784 -0.0036 -0.3027
11914SOL    HW137995   6.739   2.169   4.745 -1.4270 -1.5545 -0.0798
11914SOL    HW237996   6.784   2.269   4.849 -0.0785  0.4434 -2.4987
11915SOL     OW37997   9.342   6.445   9.011 -0.1276 -0.3010  0.0184
11915SOL    HW137998   9.392   6.399   8.944 -1.1658 -0.2071 -0.8515
11915SOL    HW237999   9.393   6.524   9.029  0.8694 -1.0064  0.3821
11916SOL     OW38000   1.356   0.449   1.648 -0.0053 -0.1888 -0.6452
11916SOL    HW138001   1.428   0.430   1.588  0.7757  1.0240 -0.1220
11916SOL    HW238002   1.322   0.362   1.671  0.6481 -0.7424 -1.6551
11917SOL     OW38003   7.474   5.890   1.746  0.1534 -0.3162 -0.7634
11917SOL    HW138004   7.413   5.816   1.747 -2.5615  1.7723  1.1569
11917SOL    HW238005   7.542   5.867   1.810  0.6802 -2.0491 -1.8721
11918SOL     OW38006  10.450   2.381   9.226 -0.3129  0.3356 -0.1482
11918SOL    HW138007  10.474   2.361   9.317  1.6754  0.6418 -0.5735
11918SOL    HW238008  10.418   2.471   9.229 -0.5380  0.2434  0.2962
11919SOL     OW38009   2.751   9.932   3.890  0.6331 -0.5661  0.2293
11919SOL    HW138010   2.772   9.897   3.803  0.0783  0.6138 -0.4023
11919SOL    HW238011   2.813  10.003   3.903 -0.3595  0.3608  0.0485
11920SOL     OW38012   9.785   4.086   3.337 -0.0890  0.1226 -0.9739
11920SOL    HW138013   9.845   4.161   3.331  1.8758 -1.4316 -2.2990
11920SOL    HW238014   9.804   4.048   3.423 -1.5127  1.3970 -0.0417
11921SOL     OW38015  10.457   4.757   3.256  0.4494 -0.0057 -0.0413
11921SOL    HW138016  10.447   4.788   3.166 -0.7489 -1.3184 -0.4012
11921SOL    HW238017  10.386   4.799   3.304 -0.7080 -1.4926 -0.3682
11922SOL     OW38018   2.207   2.123   0.239  0.1134  0.5232  0.5782
11922SOL    HW138019   2.238   2.211   0.218 -0.4373  0.4946 -0.4167
11922SOL    HW238020   2.115   2.135   0.263  0.0381  0.2207  0.4475
11923SOL     OW38021   3.702   5.353   9.773  0.7857 -0.1285  0.5916
11923SOL    HW138022   3.684   5.280   9.831  0.6925  0.6714  1.5929
11923SOL    HW238023   3.704   5.430   9.830  1.3082  0.6022 -0.3691
11924SOL     OW38024   3.641   7.753   7.156  0.2150 -0.1161 -0.0110
11924SOL    HW138025   3.559   7.779   7.199  0.7435  2.1300 -0.2562
11924SOL    HW238026   3.710   7.797   7.205  1.2890 -1.6890 -0.0295
11925SOL     OW38027   3.090   8.792  10.149 -0.3469 -0.1161 -0.2296
11925SOL    HW138028   3.038   8.866  10.181  3.3405  2.0902  1.2759
11925SOL    HW238029   3.083   8.797  10.054 -2.7015  0.0810 -0.1178
11926SOL     OW38030   9.037   0.289   2.370 -0.3535 -0.3275 -0.1222
11926SOL    HW138031   8.958   0.340   2.354 -0.2155 -0.2071 -0.4454
11926SOL    HW238032   9.107   0.355   2.373 -0.1864 -0.4883 -0.4515
11927SOL     OW38033   2.432   4.452   8.851 -0.1110 -0.3220 -0.0525
11927SOL    HW138034   2.409   4.531   8.803  0.6167  0.0226  0.1579
11927SOL    HW238035   2.374   4.452   8.927 -0.4480 -0.2511 -0.3078
11928SOL     OW38036   5.189   2.364   8.273 -0.1489  0.0004 -0.2081
11928SOL    HW138037   5.154   2.452   8.257  0.0253 -0.0482 -0.8700
11928SOL    HW238038   5.283   2.373   8.260 -0.3551 -0.7862 -2.7008
11929SOL     OW38039   9.814   0.086   2.224  0.1527 -0.3890  0.0930
11929SOL    HW138040   9.793   0.094   2.131  2.4365  1.5524 -0.3838
11929SOL    HW238041   9.742   0.129   2.269  0.6811  1.8860 -1.0838
11930SOL     OW38042   2.694   8.871   2.257  0.1053  0.7457 -0.1384
11930SOL    HW138043   2.739   8.888   2.340  0.4556  1.6887 -0.5077
11930SOL    HW238044   2.602   8.893   2.274 -0.4449 -1.9164  0.8448
11931SOL     OW38045   1.990   9.206   4.091 -0.5107  0.5146 -0.1291
11931SOL    HW138046   2.018   9.218   4.001 -0.3951  1.1147 -0.0142
11931SOL    HW238047   1.984   9.294   4.127  1.1982  0.2184  0.9854
11932SOL     OW38048   2.676   1.985   1.062  0.4871  0.4670  0.2497
11932SOL    HW138049   2.735   2.000   1.136  1.5010 -0.1959 -0.4061
11932SOL    HW238050   2.609   2.053   1.071  1.2524  1.1305  1.1054
11933SOL     OW38051   9.229   6.393   6.572  0.0932 -0.9216  0.6748
11933SOL    HW138052   9.272   6.466   6.616  1.4853 -2.4722  2.0552
11933SOL    HW238053   9.136   6.416   6.572  0.4511  0.6584  1.4099
11934SOL     OW38054   8.327   7.490   6.745 -0.6261  0.0620  0.3235
11934SOL    HW138055   8.256   7.426   6.751 -1.4126  0.8008 -0.7665
11934SOL    HW238056   8.287   7.574   6.767 -0.1086  0.4943 -0.3241
11935SOL     OW38057   1.642   2.410   4.115 -0.5689  0.2938 -0.0833
11935SOL    HW138058   1.585   2.375   4.183  0.2494  0.1187  0.5180
11935SOL    HW238059   1.595   2.487   4.082 -1.4951 -0.2649 -0.1114
11936SOL     OW38060   8.315   3.669   2.536 -0.3640  0.1705 -0.0759
11936SOL    HW138061   8.305   3.578   2.564 -0.9376  0.1500 -0.3382
11936SOL    HW238062   8.404   3.693   2.563 -0.0027 -0.6398 -0.5014
11937SOL     OW38063   0.484   0.888   4.290  0.1894 -0.0699  0.5136
11937SOL    HW138064   0.437   0.835   4.226  0.6304  0.8590 -0.6197
11937SOL    HW238065   0.573   0.853   4.290  0.5802  0.8859 -0.5196
11938SOL     OW38066   7.555   0.569   6.390  0.0248 -0.2555 -0.1597
11938SOL    HW138067   7.648   0.591   6.388 -0.2888  1.1396 -0.5225
11938SOL    HW238068   7.533   0.565   6.483  0.0535  1.3071 -0.0547
11939SOL     OW38069   1.076   4.298   9.064  0.0283  0.6578  0.6449
11939SOL    HW138070   1.056   4.209   9.034 -0.8356  0.1277  2.6895
11939SOL    HW238071   1.057   4.298   9.157  1.8736  2.4710  1.0999
11940SOL     OW38072   5.547   6.958   8.220  0.0722  0.1672  0.2181
11940SOL    HW138073   5.537   7.007   8.301  2.0388 -2.0975  1.9784
11940SOL    HW238074   5.641   6.939   8.215 -0.2563 -1.2937 -1.6519
11941SOL     OW38075   6.000   5.911   9.003 -0.5154 -0.5727  0.1210
11941SOL    HW138076   6.083   5.938   8.964 -0.3765 -0.9758  0.1310
11941SOL    HW238077   5.985   5.822   8.970  0.5674 -1.7219  2.4316
11942SOL     OW38078   5.486   9.123   7.909 -0.7257 -0.4434 -0.3287
11942SOL    HW138079   5.494   9.129   8.004  0.8418  3.7446 -0.5000
11942SOL    HW238080   5.575   9.107   7.878 -1.0343 -0.6618 -1.1264
11943SOL     OW38081   3.274   0.514   4.576  0.2343 -0.0946 -0.0661
11943SOL    HW138082   3.222   0.535   4.498  0.4091 -0.3306 -0.2464
11943SOL    HW238083   3.223   0.448   4.622  0.9137 -1.1950 -0.8434
11944SOL     OW38084   0.134   9.483   0.848 -0.0954  1.0852 -0.5815
11944SOL    HW138085   0.105   9.505   0.937 -0.8638 -1.2579 -0.1948
11944SOL    HW238086   0.055   9.454   0.803  0.8697 -1.6243 -0.7357
11945SOL     OW38087   0.372   3.584   4.112  0.0963 -0.2204 -0.2869
11945SOL    HW138088   0.381   3.520   4.183  0.9010  0.7463  0.5196
11945SOL    HW238089   0.455   3.580   4.065  0.6433  1.0182  0.4955
11946SOL     OW38090   1.517   6.893   0.942 -0.0447  0.1144 -0.7984
11946SOL    HW138091   1.557   6.849   1.016  0.9264  0.2689 -1.2199
11946SOL    HW238092   1.587   6.945   0.903 -0.2832 -0.6745 -2.3711
11947SOL     OW38093   7.043   6.163   8.762  0.9454  0.6907 -0.2510
11947SOL    HW138094   7.105   6.154   8.689  2.3395 -0.6747  1.0371
11947SOL    HW238095   7.084   6.117   8.835 -1.8052 -0.7760  0.5467
11948SOL     OW38096   1.153  10.155   3.335  0.6542  0.6965  0.3157
11948SOL    HW138097   1.106  10.184   3.414 -1.8733 -0.4926 -0.6761
11948SOL    HW238098   1.149  10.060   3.338  0.5425  0.6290 -1.2279
11949SOL     OW38099   5.202   4.279   1.369 -0.4543 -0.5300 -0.3347
11949SOL    HW138100   5.194   4.274   1.274  0.5936 -0.8893 -0.4262
11949SOL    HW238101   5.161   4.362   1.393 -0.5920 -0.3687 -1.1201
11950SOL     OW38102   6.807   9.751   9.792  0.0495 -0.7497 -0.2363
11950SOL    HW138103   6.760   9.827   9.758  0.5373 -1.0264 -1.5938
11950SOL    HW238104   6.838   9.705   9.714  1.6463 -1.1602  0.6078
11951SOL     OW38105   4.678   4.626   5.059  0.0286  0.1072 -0.5523
11951SOL    HW138106   4.694   4.689   4.988 -0.2654  2.4354  1.3328
11951SOL    HW238107   4.614   4.669   5.115 -0.6085 -2.1612  0.5635
11952SOL     OW38108   0.782   7.419   9.374 -0.0414  0.4471 -0.4779
11952SOL    HW138109   0.838   7.351   9.335  2.1711  0.3653  2.4597
11952SOL    HW238110   0.814   7.501   9.336  3.0837  0.5257  1.8579
11953SOL     OW38111   0.262   0.344   7.003  0.0500  0.4140  0.2561
11953SOL    HW138112   0.170   0.369   7.010  0.6803  3.2269  0.0204
11953SOL    HW238113   0.281   0.348   6.909  0.7007  1.1963  0.4063
11954SOL     OW38114   4.283   8.136   5.874  0.2149 -0.0507 -0.5812
11954SOL    HW138115   4.191   8.127   5.901  0.3952 -5.1299 -0.6016
11954SOL    HW238116   4.327   8.176   5.949 -1.8238  2.1365 -0.4253
11955SOL     OW38117   1.844   1.540   1.222 -0.6420  0.1093 -0.0357
11955SOL    HW138118   1.888   1.543   1.137 -1.4546 -0.9382 -0.5197
11955SOL    HW238119   1.892   1.474   1.272  0.1326  1.0673  0.5077
11956SOL     OW38120   6.611   8.306  10.347  0.4321 -0.2311  0.1895
11956SOL    HW138121   6.636   8.399  10.344 -0.8889  0.1471  0.0919
11956SOL    HW238122   6.629   8.279  10.437 -0.4065  0.5093  0.6024
11957SOL     OW38123   2.912   1.859   0.106 -0.5473 -0.1398  0.2472
11957SOL    HW138124   2.883   1.772   0.082 -1.5108 -0.0204  0.9140
11957SOL    HW238125   3.003   1.863   0.078 -0.0483 -1.8622  1.4667
11958SOL     OW38126   8.447   5.716   7.933  0.6633 -0.5059  0.0527
11958SOL    HW138127   8.394   5.795   7.930  1.4697  0.2772  2.7656
11958SOL    HW238128   8.384   5.644   7.938 -0.1188  0.2060  0.6196
11959SOL     OW38129   6.332   7.738   6.270 -0.1781  0.1155 -0.4011
11959SOL    HW138130   6.276   7.695   6.334  1.7620 -2.2451 -0.1481
11959SOL    HW238131   6.382   7.802   6.320 -1.8353  1.4891 -0.4458
11960SOL     OW38132   7.713   9.387   0.689  0.6954 -0.2535 -0.2158
11960SOL    HW138133   7.636   9.391   0.745  0.6051  1.3674 -0.4058
11960SOL    HW238134   7.687   9.331   0.616 -0.2451  0.1282 -0.1802
11961SOL     OW38135   0.976   0.411   6.605  0.5401  0.1698  0.8162
11961SOL    HW138136   1.011   0.470   6.672  2.1309  0.7120 -0.4516
11961SOL    HW238137   0.929   0.468   6.545  1.6640  0.1140 -0.1454
11962SOL     OW38138   8.135  10.290   5.710  0.3911  0.3956 -0.2588
11962SOL    HW138139   8.107  10.373   5.748 -0.0958 -0.0495  0.3762
11962SOL    HW238140   8.139  10.307   5.616  2.6327  1.8005  0.0333
11963SOL     OW38141   4.372   2.935   5.113  0.0297  0.1224 -0.5238
11963SOL    HW138142   4.355   2.920   5.020 -2.2141  0.2399 -0.1901
11963SOL    HW238143   4.288   2.918   5.156  0.7754  0.9316  1.3786
11964SOL     OW38144   7.076   8.821   1.735 -0.3078 -0.0574 -0.0905
11964SOL    HW138145   7.086   8.906   1.691  0.1762 -1.0110 -1.9156
11964SOL    HW238146   7.104   8.838   1.825  1.9143  1.2664 -0.9406
11965SOL     OW38147   0.363   0.680   1.269 -0.1570 -0.6919 -0.5859
11965SOL    HW138148   0.350   0.585   1.275 -1.9761 -0.5896 -2.0354
11965SOL    HW238149   0.456   0.690   1.247  0.5924 -1.9819  1.6751
11966SOL     OW38150   1.157   2.975   9.856 -0.2832 -0.2911  0.0494
11966SOL    HW138151   1.201   2.915   9.917  1.0547  0.8523  0.2675
11966SOL    HW238152   1.135   3.051   9.909 -0.4863  0.0896 -0.5737
11967SOL     OW38153   0.104   1.471   0.079  0.8623 -0.3135  0.3672
11967SOL    HW138154   0.072   1.399   0.134 -1.5827 -2.2064 -3.0897
11967SOL    HW238155   0.148   1.427   0.006  1.7234  1.8882 -0.5248
11968SOL     OW38156   3.224   4.511   5.096  0.2015 -0.7686 -0.2706
11968SOL    HW138157   3.296   4.449   5.109 -1.8015 -2.9998  0.9803
11968SOL    HW238158   3.185   4.486   5.013  1.1020  0.7778 -1.2117
11969SOL     OW38159   5.307   5.381   4.055  0.0377 -0.2795 -0.2666
11969SOL    HW138160   5.355   5.356   4.133  0.1763 -0.7898 -0.5127
11969SOL    HW238161   5.227   5.328   4.058 -0.0370 -0.1749 -0.3832
11970SOL     OW38162  10.182   0.277   3.266 -0.2084  0.4532 -0.2499
11970SOL    HW138163  10.136   0.222   3.329  1.1563 -1.8860 -1.1838
11970SOL    HW238164  10.115   0.302   3.202 -1.0813  0.8330  0.7866
11971SOL     OW38165   3.136  10.540   5.933 -0.1848 -0.7969  0.2038
11971SOL    HW138166   3.167  10.449   5.937  0.3993 -0.5536  2.3791
11971SOL    HW238167   3.043  10.534   5.955 -0.5542 -0.9929 -1.2790
11972SOL     OW38168   2.468   5.899   0.879 -0.0959  0.2379  0.1666
11972SOL    HW138169   2.563   5.887   0.874 -0.2332 -0.5776 -0.9218
11972SOL    HW238170   2.448   5.967   0.815 -0.2856  0.1483  0.1295
11973SOL     OW38171   5.704   0.642   2.640  0.3338  0.0554  0.1320
11973SOL    HW138172   5.662   0.601   2.565  1.2382 -4.9054  1.9106
11973SOL    HW238173   5.797   0.643   2.617  0.5186 -0.7018  0.8003
11974SOL     OW38174   6.389   8.973   9.058 -0.7424  0.0469 -0.7426
11974SOL    HW138175   6.432   8.991   9.142  1.3277 -2.7375 -1.0195
11974SOL    HW238176   6.374   9.059   9.020 -2.7050  1.5025  2.8280
11975SOL     OW38177   9.683   7.372   1.004 -0.2439 -0.0153  0.3666
11975SOL    HW138178   9.761   7.318   1.020 -1.2226 -2.2651 -1.7173
11975SOL    HW238179   9.615   7.332   1.058 -0.6193  0.1107 -0.0095
11976SOL     OW38180   3.816   5.053   0.767 -0.0984 -0.0178 -0.2589
11976SOL    HW138181   3.871   4.985   0.727 -3.3086 -1.1333 -3.2924
11976SOL    HW238182   3.783   5.013   0.848 -0.7308 -1.5697 -1.2379
11977SOL     OW38183   3.631   1.000   3.431 -0.0412  0.4329 -0.3267
11977SOL    HW138184   3.577   1.072   3.402 -0.4749  0.2742  0.0688
11977SOL    HW238185   3.606   0.987   3.523  1.6136  1.2273  0.2739
11978SOL     OW38186   3.104   8.364   1.082 -0.5194 -0.4267  0.4900
11978SOL    HW138187   3.095   8.293   1.019  1.2350 -0.7957  0.6095
11978SOL    HW238188   3.017   8.374   1.120 -1.7263  0.0241 -2.1906
11979SOL     OW38189   1.677   3.470   6.397  0.0974  0.0522  0.9320
11979SOL    HW138190   1.685   3.538   6.330 -0.0817  0.5531  1.4015
11979SOL    HW238191   1.720   3.508   6.474 -1.0378  0.1225  1.5562
11980SOL     OW38192   4.862   3.695   6.850 -0.3760 -0.0227 -0.0193
11980SOL    HW138193   4.888   3.603   6.841  1.0073  0.3048  0.2806
11980SOL    HW238194   4.787   3.705   6.791  0.6504 -0.8879 -1.5564
11981SOL     OW38195   4.312   7.167   5.657  0.6750  0.2111  0.6881
11981SOL    HW138196   4.385   7.218   5.691  1.0306 -0.4442  0.9285
11981SOL    HW238197   4.352   7.105   5.596  0.2933  0.0171  0.6274
11982SOL     OW38198   6.188   9.881   3.504  0.4172 -0.7601  0.5577
11982SOL    HW138199   6.269   9.906   3.547 -0.1170  1.9274  0.1868
11982SOL    HW238200   6.120   9.892   3.570 -0.0408  0.4500 -0.0873
11983SOL     OW38201   1.535   7.007  10.403  0.1436  0.0991  0.1721
11983SOL    HW138202   1.579   7.075  10.455  0.0015  1.2029 -1.0878
11983SOL    HW238203   1.445   7.038  10.394 -0.2233 -0.8390  0.5279
11984SOL     OW38204  10.203  10.264   4.648  0.0760  0.2041 -0.1960
11984SOL    HW138205  10.153  10.182   4.652 -1.6116  1.1885  0.1049
11984SOL    HW238206  10.294  10.237   4.654 -0.4361 -1.6519 -0.0792
11985SOL     OW38207   0.947  10.383   6.922 -0.4857 -0.7020 -0.3524
11985SOL    HW138208   1.004  10.450   6.884  0.1969 -1.4044 -0.5858
11985SOL    HW238209   0.863  10.428   6.933 -0.2069  0.0308 -1.0346
11986SOL     OW38210   7.146   1.093   7.114  0.1755 -0.0809 -0.7321
11986SOL    HW138211   7.144   1.145   7.194  2.0069  0.1810 -0.8267
11986SOL    HW238212   7.222   1.036   7.123 -1.6190 -2.6662 -0.7438
11987SOL     OW38213   4.104   9.496   3.590  0.1819  0.1803  0.3317
11987SOL    HW138214   4.114   9.580   3.546 -1.1876  0.0547 -0.2694
11987SOL    HW238215   4.010   9.490   3.608  0.3228 -1.0498  0.7273
11988SOL     OW38216   2.591   1.244   3.673 -0.3587  0.7632  0.0951
11988SOL    HW138217   2.623   1.161   3.636  0.3586  1.9613 -2.1758
11988SOL    HW238218   2.504   1.254   3.634  0.1095  1.6992 -0.7459
11989SOL     OW38219   2.153   7.529   4.464 -0.1560 -0.3005 -0.3060
11989SOL    HW138220   2.073   7.548   4.416 -0.2466 -0.7781 -0.3542
11989SOL    HW238221   2.159   7.597   4.530 -0.8063 -0.4757 -0.0547
11990SOL     OW38222   7.322   3.130   5.908  0.0095  0.1581  0.4636
11990SOL    HW138223   7.276   3.209   5.936 -1.0372  0.3512 -1.5639
11990SOL    HW238224   7.401   3.163   5.866  1.7070 -0.1372  3.2037
11991SOL     OW38225   2.907   0.603   8.781  0.1532 -0.1100 -0.4816
11991SOL    HW138226   2.950   0.682   8.814  0.7336 -0.4799 -0.3490
11991SOL    HW238227   2.817   0.630   8.766 -0.2843 -0.0157  1.8371
11992SOL     OW38228   5.115   5.785   7.656 -0.1163  0.2941 -0.1779
11992SOL    HW138229   5.113   5.875   7.622 -1.1559 -0.3739 -2.0483
11992SOL    HW238230   5.193   5.781   7.711 -0.0810  2.3530 -0.0107
11993SOL     OW38231   9.512   4.639   4.876 -0.4163  0.5495  0.3315
11993SOL    HW138232   9.554   4.684   4.950 -0.4139 -0.1751  0.7794
11993SOL    HW238233   9.544   4.686   4.799  0.7448  0.4088  0.6984
11994SOL     OW38234   5.126   9.313   4.082 -0.1035  0.0002 -0.1043
11994SOL    HW138235   5.187   9.386   4.099 -0.0659 -0.1772  0.5436
11994SOL    HW238236   5.147   9.285   3.993  1.4825 -0.7166  0.4520
11995SOL     OW38237   0.761  10.084   4.532  0.0704  0.2376  0.1397
11995SOL    HW138238   0.773   9.996   4.497 -0.1069  0.4631 -0.5124
11995SOL    HW238239   0.791  10.079   4.623 -2.0430 -1.0532  0.8170
11996SOL     OW38240  10.343  10.646   1.478  0.0494  0.5148 -0.1633
11996SOL    HW138241  10.276  10.610   1.420  0.8671 -0.2490 -0.6623
11996SOL    HW238242  10.392  10.707   1.423  1.4348 -0.9190 -0.6098
11997SOL     OW38243   9.981   6.492   6.656 -0.7413 -0.4574  0.0428
11997SOL    HW138244  10.057   6.506   6.712  0.0081  0.1787 -1.0923
11997SOL    HW238245   9.953   6.403   6.674 -0.3596 -0.3421  1.2283
11998SOL     OW38246   7.041   0.508   3.847 -0.0007 -0.4783  0.3367
11998SOL    HW138247   7.074   0.458   3.921 -1.6394 -0.6792  0.9702
11998SOL    HW238248   6.947   0.516   3.863  0.1560  2.8746  0.3203
11999SOL     OW38249   8.409   3.761   8.044 -0.1852  0.3132 -0.1886
11999SOL    HW138250   8.493   3.800   8.067  1.0872 -2.0276 -0.5270
11999SOL    HW238251   8.347   3.802   8.103  1.7232 -0.0487  2.2387
12000SOL     OW38252   8.969   0.532   8.690 -0.5041  0.1466  0.2848
12000SOL    HW138253   9.051   0.581   8.680 -1.4529  1.7905  0.2718
12000SOL    HW238254   8.964   0.513   8.784 -1.2330  2.1664  0.7051
12001SOL     OW38255   1.572   2.521   8.051  0.5736  0.4589  0.3227
12001SOL    HW138256   1.519   2.446   8.026 -0.4538  0.8240  1.3169
12001SOL    HW238257   1.542   2.544   8.139 -0.0423  2.7849 -0.3982
12002SOL     OW38258   2.407   3.998   7.647  0.7060  0.7398  0.0988
12002SOL    HW138259   2.501   4.005   7.632  0.4507  2.0284 -1.1343
12002SOL    HW238260   2.376   4.088   7.649 -0.5425  0.3249  0.2636
12003SOL     OW38261   6.461   2.308   8.462 -0.5102  0.2423 -0.2488
12003SOL    HW138262   6.479   2.219   8.432  0.5739  0.8651 -1.5693
12003SOL    HW238263   6.425   2.352   8.385 -1.3916  0.8595  0.4977
12004SOL     OW38264   0.989   0.796   1.416 -0.3735  0.2647  0.1450
12004SOL    HW138265   1.073   0.765   1.382 -0.8603 -0.0728 -0.7926
12004SOL    HW238266   0.928   0.785   1.343 -0.8694  2.1783  0.2026
12005SOL     OW38267   9.694   8.043   0.610  0.0019  0.5550 -0.1036
12005SOL    HW138268   9.789   8.054   0.604 -0.0083  0.1937 -1.1308
12005SOL    HW238269   9.675   8.054   0.703  0.9087  1.6881 -0.0265
12006SOL     OW38270   4.589   3.661   8.466 -0.4223 -0.2510 -0.2421
12006SOL    HW138271   4.540   3.582   8.488 -0.8652 -0.3158 -1.4172
12006SOL    HW238272   4.647   3.674   8.541 -0.2909 -1.7203 -0.0595
12007SOL     OW38273   6.135   2.328   2.428 -0.4029 -0.2289  0.0919
12007SOL    HW138274   6.146   2.311   2.334 -1.4906 -0.2065 -0.0547
12007SOL    HW238275   6.127   2.241   2.468 -0.6047 -0.2223  0.0682
12008SOL     OW38276   4.878   4.694   3.059  0.3317  0.4938 -0.7091
12008SOL    HW138277   4.882   4.700   2.963 -0.4769  2.8387 -0.6547
12008SOL    HW238278   4.926   4.770   3.090  1.0054 -0.5018  0.7946
12009SOL     OW38279   4.064   3.654  10.298 -0.0481  0.0674  0.0903
12009SOL    HW138280   4.002   3.661  10.371 -0.6679 -1.7866 -0.2145
12009SOL    HW238281   4.148   3.632  10.339  0.2307  1.6327  0.4237
12010SOL     OW38282   6.091   2.743   0.114  0.0140 -0.0899  0.1433
12010SOL    HW138283   6.081   2.649   0.103  0.4164 -0.2239  0.8440
12010SOL    HW238284   6.033   2.782   0.048 -0.7627 -0.8218  0.3889
12011SOL     OW38285   0.721   2.412   1.717 -0.0307 -0.0713 -0.3735
12011SOL    HW138286   0.646   2.468   1.697 -0.1658  0.8159  2.2369
12011SOL    HW238287   0.752   2.443   1.802  1.9536 -1.8675 -0.3597
12012SOL     OW38288  10.587   8.587   5.857 -0.4386  0.1678  0.0693
12012SOL    HW138289  10.656   8.561   5.797  0.3317 -0.5288  1.2270
12012SOL    HW238290  10.613   8.675   5.887  1.2357 -0.9679  2.2455
12013SOL     OW38291   3.767   1.948   7.707  0.0506 -0.2678  0.6421
12013SOL    HW138292   3.784   1.859   7.674  0.4675 -0.5195  1.5127
12013SOL    HW238293   3.820   1.955   7.786 -0.7257  0.4192  1.1192
12014SOL     OW38294   9.136   6.248   2.636  0.5835 -0.2001 -0.1907
12014SOL    HW138295   9.073   6.297   2.688  0.7162  2.5657 -2.3821
12014SOL    HW238296   9.222   6.278   2.667  0.7535 -1.2859  0.4128
12015SOL     OW38297   5.907   6.827   3.903  0.0942  0.0785 -0.6288
12015SOL    HW138298   5.864   6.912   3.893  0.3032  0.0512 -1.8762
12015SOL    HW238299   5.876   6.794   3.987 -2.8372 -0.2143 -1.7103
12016SOL     OW38300   2.424   7.457   4.494  0.4640 -0.3188  0.1724
12016SOL    HW138301   2.418   7.379   4.550  0.9727  0.1222  0.8640
12016SOL    HW238302   2.334   7.471   4.464 -0.1424  0.2874  2.0941
12017SOL     OW38303   7.607   9.549  10.228  0.3928  0.7570  0.2655
12017SOL    HW138304   7.648   9.597  10.300  2.8060 -0.0407 -0.4712
12017SOL    HW238305   7.570   9.471  10.269 -0.0558  1.2907  0.9045
12018SOL     OW38306   4.564   4.978   5.534 -0.0577  0.3560 -0.6829
12018SOL    HW138307   4.550   5.047   5.600  1.3430 -1.1036  1.2511
12018SOL    HW238308   4.528   4.899   5.574 -1.1642 -0.1870 -2.6443
12019SOL     OW38309  10.352   2.952   5.350 -0.0759  0.2371 -0.2420
12019SOL    HW138310  10.307   3.029   5.314 -0.4473  0.2609  0.2599
12019SOL    HW238311  10.294   2.922   5.420 -0.6165 -1.3077 -1.3079
12020SOL     OW38312   7.756   1.641   9.266  0.2993  0.5318 -0.1930
12020SOL    HW138313   7.846   1.675   9.261  0.5914  0.2353  2.0198
12020SOL    HW238314   7.766   1.554   9.304 -0.8911  0.2403 -0.5285
12021SOL     OW38315   3.452   1.629   5.876 -0.6673  0.0956  0.0149
12021SOL    HW138316   3.368   1.595   5.904 -0.7183 -0.2064 -0.4964
12021SOL    HW238317   3.447   1.631   5.780  0.7089 -2.0411 -0.1596
12022SOL     OW38318   1.534   7.560   2.843 -0.2730  0.2557  0.1909
12022SOL    HW138319   1.574   7.539   2.759 -0.7767  0.1032 -0.0125
12022SOL    HW238320   1.445   7.587   2.822  0.2223  2.2698  0.4655
12023SOL     OW38321   9.701   9.518   1.397 -0.0480 -0.0522 -0.1588
12023SOL    HW138322   9.733   9.533   1.308  0.1777 -0.4440 -0.1451
12023SOL    HW238323   9.765   9.458   1.436  0.8967  1.5648  0.8997
12024SOL     OW38324   1.000   9.689   6.469  0.1483  0.0441 -0.0717
12024SOL    HW138325   0.949   9.769   6.485 -0.9105 -0.8942  1.4982
12024SOL    HW238326   1.008   9.648   6.555 -0.7521 -2.3684 -1.0590
12025SOL     OW38327   2.583   2.926   4.767  0.0411  0.2943  0.6037
12025SOL    HW138328   2.564   2.974   4.847  0.5681  0.6191  0.5362
12025SOL    HW238329   2.576   2.834   4.792 -1.1224  0.3944  0.6976
12026SOL     OW38330   7.991   0.485   9.362  0.3687 -0.4102 -0.3309
12026SOL    HW138331   7.923   0.550   9.379 -0.2897 -1.1971  0.1085
12026SOL    HW238332   8.041   0.481   9.443  0.5009 -0.3603 -0.4083
12027SOL     OW38333   0.533   0.409   4.209 -0.0601  0.1534  0.2252
12027SOL    HW138334   0.448   0.410   4.164  0.1730  2.8674 -0.3133
12027SOL    HW238335   0.518   0.461   4.288  0.5888 -1.1845  1.2660
12028SOL     OW38336   7.153   3.363   7.806 -0.0344 -0.2007  0.2778
12028SOL    HW138337   7.138   3.449   7.846  2.1531  0.6926 -0.6613
12028SOL    HW238338   7.248   3.353   7.805 -0.2021 -2.1812 -0.6277
12029SOL     OW38339   2.125   8.623   6.217  0.2051 -0.0681 -0.0245
12029SOL    HW138340   2.115   8.706   6.171 -2.1090  0.0390  0.5274
12029SOL    HW238341   2.096   8.557   6.154  0.6820 -0.3175  0.0132
12030SOL     OW38342   3.019   3.548   4.638  0.4797  0.0391  0.5442
12030SOL    HW138343   2.955   3.574   4.704 -1.3947 -1.1604 -0.7089
12030SOL    HW238344   2.972   3.488   4.581  2.8193 -1.1083 -0.3141
12031SOL     OW38345   6.669   7.317   1.385  0.6632 -0.0129  0.2529
12031SOL    HW138346   6.726   7.382   1.427 -1.4297  0.7699  2.0726
12031SOL    HW238347   6.647   7.256   1.455 -0.6264 -0.3650 -0.4252
12032SOL     OW38348   4.445   5.227   1.030 -0.1704  0.3972 -0.7142
12032SOL    HW138349   4.352   5.205   1.028  0.2058 -1.7831  1.3405
12032SOL    HW238350   4.483   5.176   0.959 -0.2591 -0.3704 -0.2165
12033SOL     OW38351  10.382   8.680   1.875 -0.1924 -0.4775 -0.1643
12033SOL    HW138352  10.291   8.660   1.894 -0.6333 -0.2666 -1.9046
12033SOL    HW238353  10.404   8.624   1.800  1.1085 -0.5175  0.2088
12034SOL     OW38354   3.298   3.616   1.210 -0.7041 -0.7321  0.1750
12034SOL    HW138355   3.385   3.590   1.183 -0.3985  2.1233 -2.0342
12034SOL    HW238356   3.242   3.600   1.134 -0.9427  2.3892 -0.4488
12035SOL     OW38357   9.721   7.879   1.740  0.0828 -0.3324 -0.1753
12035SOL    HW138358   9.759   7.926   1.666  1.8834  0.6119  1.2601
12035SOL    HW238359   9.668   7.810   1.700 -1.4589  1.9211 -2.3840
12036SOL     OW38360   6.549   8.782   7.216  0.0399  0.2664  0.2772
12036SOL    HW138361   6.605   8.710   7.187 -0.3160  0.2448 -0.3814
12036SOL    HW238362   6.485   8.740   7.274 -0.6865 -0.1185 -0.7616
12037SOL     OW38363   6.168   2.430   1.506 -0.1489 -0.7139  0.2438
12037SOL    HW138364   6.247   2.469   1.469 -0.3025  0.1074  0.7614
12037SOL    HW238365   6.201   2.359   1.561  0.2363 -0.3622  0.4769
12038SOL     OW38366   5.874   6.179   3.902  0.3392  0.8385 -0.3505
12038SOL    HW138367   5.959   6.146   3.930  0.0262 -0.1014 -0.4728
12038SOL    HW238368   5.819   6.101   3.896 -0.3202  1.3430 -1.0309
12039SOL     OW38369   2.821   4.166   0.509 -0.5475  0.1793  0.0685
12039SOL    HW138370   2.728   4.148   0.524 -0.3240  0.9673  2.9872
12039SOL    HW238371   2.843   4.232   0.575  1.8291  0.9031 -1.3496
12040SOL     OW38372   5.868   1.531   4.523  0.2090  0.5162  0.0130
12040SOL    HW138373   5.902   1.512   4.436 -1.6379 -0.3467 -0.5756
12040SOL    HW238374   5.846   1.624   4.521  1.6899  0.8829  0.1307
12041SOL     OW38375   9.518   7.798   1.433  0.3607  0.6572 -0.3866
12041SOL    HW138376   9.594   7.852   1.410  0.1909  0.7035 -0.8436
12041SOL    HW238377   9.455   7.860   1.470  0.8765  0.4891  0.8220
12042SOL     OW38378   1.079   9.247   2.794  0.5418 -0.4757 -0.2029
12042SOL    HW138379   0.993   9.207   2.807  1.4337 -2.2923  0.4997
12042SOL    HW238380   1.110   9.213   2.710  1.0734 -0.8153  0.1247
12043SOL     OW38381   7.644   0.242   5.851  0.1255 -0.2116 -0.2077
12043SOL    HW138382   7.640   0.338   5.845 -1.2406 -0.1654  0.9177
12043SOL    HW238383   7.734   0.223   5.876  0.1574  0.8692  0.5665
12044SOL     OW38384   9.253   9.568   6.535  0.5798  0.1377  0.1998
12044SOL    HW138385   9.301   9.585   6.616 -2.3137  1.1078  1.8599
12044SOL    HW238386   9.243   9.473   6.532  0.0134  0.1397  1.4613
12045SOL     OW38387   2.108   7.987  10.160 -0.0313 -0.0204 -0.6410
12045SOL    HW138388   2.068   8.004  10.075 -1.1974  0.2883 -0.0434
12045SOL    HW238389   2.041   8.011  10.224  0.6344 -0.7460  0.3605
12046SOL     OW38390   4.561   9.080   2.124  0.1072  0.6601  0.6181
12046SOL    HW138391   4.656   9.082   2.116  0.1765 -2.4110 -0.5157
12046SOL    HW238392   4.545   9.027   2.202 -0.6737  0.1580  0.1222
12047SOL     OW38393   5.421   7.407   4.977 -0.0207 -0.3989  0.1598
12047SOL    HW138394   5.330   7.427   4.955  0.5852  2.6249 -0.1222
12047SOL    HW238395   5.467   7.411   4.893  0.6362  0.0252  0.5257
12048SOL     OW38396   4.327   8.554   1.538  0.2989  0.0319 -0.7374
12048SOL    HW138397   4.401   8.580   1.593 -1.0427  0.9067  0.7599
12048SOL    HW238398   4.263   8.625   1.549 -1.3661 -1.3916 -0.7263
12049SOL     OW38399   6.494  10.303   2.425 -0.0833  0.3985  0.0841
12049SOL    HW138400   6.462  10.223   2.466 -0.2797 -0.0258 -0.8595
12049SOL    HW238401   6.555  10.341   2.488  1.4445 -1.4678 -0.1935
12050SOL     OW38402   8.822   9.523   7.465 -0.1608 -0.3280 -0.2654
12050SOL    HW138403   8.806   9.510   7.558  0.3927 -0.8553 -0.2310
12050SOL    HW238404   8.757   9.587   7.437 -0.2034 -0.0199  0.5230
12051SOL     OW38405   2.916   1.994   5.681 -0.1246  0.2648 -0.1643
12051SOL    HW138406   2.953   2.038   5.605  0.7748 -0.4093 -0.1426
12051SOL    HW238407   2.826   1.974   5.656  0.0349  0.4269 -0.8892
12052SOL     OW38408   5.956   5.595   7.783 -0.0529  0.8323  0.0883
12052SOL    HW138409   6.012   5.532   7.828  0.2555  1.0626  0.0284
12052SOL    HW238410   6.008   5.623   7.707 -0.3649  0.8263 -0.1306
12053SOL     OW38411   7.348   6.720   3.835  0.1892  0.1378  0.0049
12053SOL    HW138412   7.291   6.658   3.791  2.2067 -0.9498 -1.2217
12053SOL    HW238413   7.328   6.805   3.795 -1.2247 -0.0293  0.3137
12054SOL     OW38414   7.632   6.822   5.236  0.6500 -0.1667  0.4282
12054SOL    HW138415   7.701   6.881   5.205  0.5201 -0.5752 -0.6839
12054SOL    HW238416   7.631   6.751   5.172 -1.8957  0.6150 -0.5192
12055SOL     OW38417   8.545  10.079   6.336  0.1506  0.3131  0.1271
12055SOL    HW138418   8.595  10.086   6.417 -1.0737  0.9959  0.8478
12055SOL    HW238419   8.468  10.134   6.350 -0.1748  0.3134 -1.4353
12056SOL     OW38420   0.628   6.913   8.252  0.3372 -0.4162 -0.0873
12056SOL    HW138421   0.605   6.938   8.162 -0.9901 -0.8314  0.1274
12056SOL    HW238422   0.665   6.825   8.243  2.1519  0.3313 -0.4536
12057SOL     OW38423  10.398   5.217   1.954  0.1208  0.3247  0.0206
12057SOL    HW138424  10.364   5.307   1.955 -0.9326 -0.0534 -0.2520
12057SOL    HW238425  10.453   5.213   1.876  1.0250  1.0205  0.6016
12058SOL     OW38426   2.602   1.094   9.958 -0.1381 -0.2405 -0.3600
12058SOL    HW138427   2.633   1.140  10.036  1.7340  1.1061 -1.8040
12058SOL    HW238428   2.507   1.106   9.960 -0.1767 -0.4711  1.8084
12059SOL     OW38429   7.392   9.070   5.108 -0.3384  0.1376 -0.3827
12059SOL    HW138430   7.469   9.051   5.053 -0.7806 -0.6356 -0.7431
12059SOL    HW238431   7.318   9.033   5.060 -0.7229 -0.6674  0.7853
12060SOL     OW38432   3.437   8.071   0.876 -0.1755  0.1548  0.3927
12060SOL    HW138433   3.527   8.046   0.854 -0.0863 -0.4549  1.3599
12060SOL    HW238434   3.441   8.092   0.970 -0.9534  0.5456  0.3420
12061SOL     OW38435   8.575   0.993   4.081  0.0268  0.3223  0.0047
12061SOL    HW138436   8.523   1.052   4.135 -0.3228  1.5369 -1.6101
12061SOL    HW238437   8.583   1.037   3.997  1.9468 -0.7668 -0.4529
12062SOL     OW38438   3.414   1.566   3.130 -0.1140  0.5622  0.2126
12062SOL    HW138439   3.479   1.499   3.109  0.9864  1.4022  0.8421
12062SOL    HW238440   3.462   1.632   3.180 -1.7266  0.5882  1.8440
12063SOL     OW38441   3.990   8.795   8.873  0.2146  0.2178  1.6210
12063SOL    HW138442   4.033   8.737   8.809 -0.4218  1.4769 -0.0308
12063SOL    HW238443   4.036   8.778   8.955  1.8982 -0.5957  0.5756
12064SOL     OW38444   5.022   4.649   9.865 -0.2078 -0.1620 -0.1387
12064SOL    HW138445   5.033   4.695   9.948  1.5729 -0.7079 -0.0520
12064SOL    HW238446   5.094   4.587   9.861 -1.0624 -1.1279 -1.4706
12065SOL     OW38447   3.129   5.879   2.463 -0.1425  0.0535  0.1935
12065SOL    HW138448   3.075   5.954   2.490 -0.5232  0.1804 -0.8688
12065SOL    HW238449   3.066   5.818   2.425  0.3570 -0.1863 -0.2500
12066SOL     OW38450   8.062   1.385   1.000  0.5286  0.3046  0.0386
12066SOL    HW138451   8.076   1.297   0.965  0.1010  0.3286 -0.1976
12066SOL    HW238452   8.045   1.371   1.093  1.1830  0.2015  0.1468
12067SOL     OW38453   3.109   4.689   7.624  1.0869 -0.0748 -0.0252
12067SOL    HW138454   3.127   4.674   7.531 -0.5709  0.1296 -0.4182
12067SOL    HW238455   3.182   4.744   7.654  0.9584  1.0010 -1.5607
12068SOL     OW38456   7.312   1.705   8.334  0.7835  0.2587 -0.6052
12068SOL    HW138457   7.321   1.799   8.322 -2.6877  0.8407  0.3334
12068SOL    HW238458   7.298   1.671   8.245 -1.6045  1.2292 -0.6717
12069SOL     OW38459   4.143   2.552   9.131  0.6382 -0.0105 -0.2063
12069SOL    HW138460   4.102   2.469   9.106 -0.2929 -0.2992  2.0625
12069SOL    HW238461   4.211   2.527   9.193  3.0195  0.6610 -2.3756
12070SOL     OW38462   5.772   0.424   9.437  0.3077 -0.0037 -0.3137
12070SOL    HW138463   5.739   0.477   9.365 -0.3313 -1.0124 -0.7961
12070SOL    HW238464   5.846   0.473   9.471  1.2925  0.0286 -2.3314
12071SOL     OW38465   5.150   0.182   1.215 -0.1192  0.7375  0.5834
12071SOL    HW138466   5.071   0.134   1.240 -0.4245  0.6843 -0.4429
12071SOL    HW238467   5.133   0.272   1.243 -1.8361  1.4025 -2.2160
12072SOL     OW38468   0.464   7.757   5.174 -0.1082  0.3959  0.2653
12072SOL    HW138469   0.462   7.668   5.207 -0.4507  0.9911  1.9481
12072SOL    HW238470   0.503   7.750   5.086  1.4495 -1.1759  1.0367
12073SOL     OW38471   6.724   3.988  10.436  0.5469 -0.4322 -0.5751
12073SOL    HW138472   6.786   4.060  10.422 -1.3888  1.5480  0.3800
12073SOL    HW238473   6.639   4.025  10.411 -0.5353 -2.4133 -0.0377
12074SOL     OW38474  10.087   7.618   4.291 -0.4923 -0.5415 -0.2492
12074SOL    HW138475  10.000   7.578   4.287 -1.0593  0.4546  1.4392
12074SOL    HW238476  10.102   7.651   4.203 -2.7060  1.0393 -0.1209
12075SOL     OW38477  10.228   0.925   0.978 -0.6501 -0.5334  0.2329
12075SOL    HW138478  10.141   0.962   0.992 -0.1014  1.7518 -1.8197
12075SOL    HW238479  10.231   0.906   0.884  0.9335 -0.9352  0.3387
12076SOL     OW38480   8.215   6.614   4.944 -0.0118  0.4483  0.1754
12076SOL    HW138481   8.145   6.654   4.891  2.5876  3.4092 -1.3414
12076SOL    HW238482   8.258   6.554   4.884  0.2174  0.4656  0.3222
12077SOL     OW38483   5.441   4.501   6.188 -0.5001  0.1894 -0.1461
12077SOL    HW138484   5.421   4.591   6.164  0.8863  0.2742 -1.0511
12077SOL    HW238485   5.358   4.454   6.176 -1.1202  1.2512 -0.0817
12078SOL     OW38486   7.850   9.889   8.136 -0.8295  0.1351 -0.1902
12078SOL    HW138487   7.803   9.963   8.098 -0.7754  0.0853 -0.3539
12078SOL    HW238488   7.816   9.882   8.225 -0.4704  0.6632 -0.0122
12079SOL     OW38489   6.740   1.988   2.823  0.0576 -0.2536 -0.0648
12079SOL    HW138490   6.653   2.005   2.789  0.1813 -0.7663 -0.6551
12079SOL    HW238491   6.799   2.035   2.765  0.2528 -0.9103 -0.4072
12080SOL     OW38492   0.265   5.846  10.280  0.6895 -0.3018  0.3023
12080SOL    HW138493   0.322   5.871  10.207  1.2969 -2.5280 -0.0635
12080SOL    HW238494   0.194   5.910  10.278  1.8707  1.0348 -0.8107
12081SOL     OW38495   4.452   3.762   2.547  0.1605 -0.6656  0.2026
12081SOL    HW138496   4.482   3.819   2.618  0.4970 -1.6056  0.8403
12081SOL    HW238497   4.416   3.822   2.481  1.3820  0.3499  0.4129
12082SOL     OW38498   3.937   5.555   7.166 -0.0701 -0.0117  0.0392
12082SOL    HW138499   3.875   5.492   7.203  1.1013 -1.1703  0.1190
12082SOL    HW238500   3.998   5.501   7.116  0.6619  1.1317 -0.3298
12083SOL     OW38501   0.660   2.380   6.421 -0.0799 -0.0581  0.4153
12083SOL    HW138502   0.699   2.462   6.391  1.4667 -0.5863  0.8893
12083SOL    HW238503   0.702   2.312   6.368 -0.2431 -0.6538  1.0264
12084SOL     OW38504   6.491   3.530   0.343 -0.1616 -0.1975 -0.2229
12084SOL    HW138505   6.583   3.541   0.319 -0.0667 -0.3012  0.0786
12084SOL    HW238506   6.445   3.521   0.260  0.0097  0.5227 -0.3944
12085SOL     OW38507  10.215   6.129   7.744  0.2834  0.1164 -0.1874
12085SOL    HW138508  10.179   6.150   7.830  0.6420  0.7820 -0.1928
12085SOL    HW238509  10.141   6.141   7.684  0.1831  0.2361 -0.0421
12086SOL     OW38510   0.466   7.744   7.623 -0.3617 -0.3845 -0.2608
12086SOL    HW138511   0.554   7.719   7.595 -0.8725  0.7294 -3.2819
12086SOL    HW238512   0.447   7.685   7.696  2.2542 -1.7497 -0.5337
12087SOL     OW38513   6.592   8.469   6.108  0.0638 -0.4051  0.4922
12087SOL    HW138514   6.594   8.517   6.191 -0.2556 -1.2134  0.9767
12087SOL    HW238515   6.503   8.435   6.103  0.0745 -0.3368 -0.2009
12088SOL     OW38516   4.273   7.906   9.321  0.2488 -0.0881 -0.3136
12088SOL    HW138517   4.177   7.913   9.323  0.2779  0.2448  0.1575
12088SOL    HW238518   4.291   7.847   9.248 -0.2779  0.5903 -1.0071
12089SOL     OW38519   3.582   4.763   3.146  0.6071 -0.0400 -0.2048
12089SOL    HW138520   3.563   4.739   3.056  1.0365 -0.1914 -0.2582
12089SOL    HW238521   3.616   4.682   3.185  3.5980  0.7963 -0.8056
12090SOL     OW38522   0.521   8.495   5.493 -0.2993 -0.1556  0.1347
12090SOL    HW138523   0.581   8.540   5.552 -0.7191 -1.1729  1.3653
12090SOL    HW238524   0.550   8.404   5.493 -0.6056 -0.2711 -0.8641
12091SOL     OW38525   5.853   8.406   9.490  0.0471  0.5997  0.0045
12091SOL    HW138526   5.941   8.387   9.456  0.5572  0.0431  1.5841
12091SOL    HW238527   5.830   8.489   9.447  1.3733  0.8067 -0.3754
12092SOL     OW38528   0.790   3.975   9.120 -0.6067 -0.3687  0.7424
12092SOL    HW138529   0.723   4.031   9.080 -1.0794 -0.9208  0.7414
12092SOL    HW238530   0.868   3.989   9.067 -0.4329  1.0210  1.3135
12093SOL     OW38531   7.497   6.147   5.466 -0.6736 -0.1664 -0.1072
12093SOL    HW138532   7.460   6.185   5.546  0.9222  0.9611  0.1476
12093SOL    HW238533   7.520   6.057   5.491  3.1005  1.1430  1.9667
12094SOL     OW38534   7.971   0.253   6.704  0.1103  0.4419  0.2063
12094SOL    HW138535   8.009   0.265   6.790  1.1315 -1.6376  0.1137
12094SOL    HW238536   7.888   0.207   6.720  0.1183  0.3865  0.0915
12095SOL     OW38537   0.288   8.144   4.468 -0.0922  0.5518  0.5317
12095SOL    HW138538   0.283   8.153   4.564  1.0958  0.6370  0.5992
12095SOL    HW238539   0.284   8.234   4.436  1.7184  0.7104  0.6467
12096SOL     OW38540   0.442   8.796   4.471 -0.7307  0.7664  0.0363
12096SOL    HW138541   0.365   8.769   4.522 -0.5450 -1.3453 -0.6793
12096SOL    HW238542   0.467   8.881   4.508 -2.4052  0.7249  1.3957
12097SOL     OW38543   5.938   7.968   7.538  0.2292  0.2089  0.2836
12097SOL    HW138544   6.000   7.935   7.473  0.1530 -3.6161  1.8493
12097SOL    HW238545   5.853   7.933   7.509 -0.3874  1.3061  0.7114
12098SOL     OW38546   7.454   7.933   0.627 -0.0486  0.6554  0.0135
12098SOL    HW138547   7.433   7.976   0.710 -1.2481  1.3345 -0.6240
12098SOL    HW238548   7.400   7.977   0.562 -0.6623 -1.2117 -0.8204
12099SOL     OW38549   3.976   6.439   5.099  0.3848 -0.7962 -0.2737
12099SOL    HW138550   4.062   6.429   5.139  0.0374 -1.3044  0.3608
12099SOL    HW238551   3.983   6.519   5.048  0.7637  0.0390  1.0291
12100SOL     OW38552   3.312   6.851   0.666  0.4422  0.1630  0.6831
12100SOL    HW138553   3.399   6.867   0.702  1.0036  0.9045 -0.8702
12100SOL    HW238554   3.268   6.936   0.672 -0.4713 -0.3719  2.1117
12101SOL     OW38555  10.591   4.179   3.917  0.6701  0.0339  0.3976
12101SOL    HW138556  10.564   4.245   3.854 -0.0707  1.8111  2.4496
12101SOL    HW238557  10.669   4.217   3.959 -0.6101  0.4018  2.6265
12102SOL     OW38558   5.083   5.933   4.539 -0.6152 -0.1246  0.2937
12102SOL    HW138559   5.055   5.966   4.454  0.2148  0.9822  0.4224
12102SOL    HW238560   5.005   5.943   4.595 -0.3333  2.0144  0.4132
12103SOL     OW38561   9.838   2.167   0.967  0.1796 -0.3150 -0.5891
12103SOL    HW138562   9.863   2.076   0.951  1.9429  0.4454 -2.6382
12103SOL    HW238563   9.753   2.161   1.010  0.6355 -2.9337  0.1289
12104SOL     OW38564   3.680   0.917   5.622  0.4852 -0.3800  0.1699
12104SOL    HW138565   3.626   0.883   5.550  1.6958 -3.2570  0.5140
12104SOL    HW238566   3.768   0.925   5.585  0.4649  1.5658  0.4099
12105SOL     OW38567   6.910   9.884   9.345 -0.2811  0.4649  0.1511
12105SOL    HW138568   6.916   9.809   9.285 -0.6253  0.2196  0.4225
12105SOL    HW238569   6.824   9.876   9.385  0.4584 -0.1212  1.6737
12106SOL     OW38570   4.240   8.805   0.573  0.1197  0.4000 -0.0780
12106SOL    HW138571   4.272   8.715   0.581 -0.0132  0.4906  2.0758
12106SOL    HW238572   4.148   8.800   0.601 -0.1182  1.1050 -0.6904
12107SOL     OW38573   5.891   6.959   5.135  0.2002  0.3559 -0.2827
12107SOL    HW138574   5.806   6.964   5.179  0.9393 -1.2842  1.4692
12107SOL    HW238575   5.873   6.910   5.054 -0.4019 -0.7170  0.4717
12108SOL     OW38576   6.184   7.545   5.596 -0.1361 -0.3839  0.4178
12108SOL    HW138577   6.235   7.548   5.516  0.8345 -0.2816  1.0234
12108SOL    HW238578   6.171   7.452   5.613 -0.0042 -0.4152  0.3462
12109SOL     OW38579   6.995   0.584   6.405 -0.2192  0.4471  0.6512
12109SOL    HW138580   7.021   0.647   6.337  0.0528  0.6336  0.9230
12109SOL    HW238581   7.064   0.518   6.404  0.0847  0.7494  1.1257
12110SOL     OW38582   6.435   6.016   5.666 -0.1792  0.0591  0.1614
12110SOL    HW138583   6.481   5.982   5.589 -0.7021 -2.8976  1.0237
12110SOL    HW238584   6.503   6.062   5.715  0.9853 -0.9624 -0.4209
12111SOL     OW38585   1.859   2.933   7.919  0.0011  0.3341  0.3585
12111SOL    HW138586   1.935   2.966   7.967  0.2242 -0.2693  0.4361
12111SOL    HW238587   1.832   3.005   7.863  0.0633  0.8694  1.0084
12112SOL     OW38588   4.316   4.940   9.265  0.7344  0.0948 -0.1645
12112SOL    HW138589   4.361   4.855   9.267  0.1645 -0.2792 -1.8681
12112SOL    HW238590   4.372   4.995   9.210  1.1111  0.8664  0.9460
12113SOL     OW38591  10.236   2.784   0.500 -0.1592  0.1197 -0.7285
12113SOL    HW138592  10.180   2.728   0.446 -0.9814  0.2214 -0.0015
12113SOL    HW238593  10.234   2.743   0.587  1.3363 -0.1747 -0.8209
12114SOL     OW38594   2.761   4.069   5.222  0.0914  0.2242  0.0689
12114SOL    HW138595   2.727   4.156   5.241 -2.2873 -0.7589  0.6675
12114SOL    HW238596   2.780   4.032   5.309  0.9204  0.0696 -0.1729
12115SOL     OW38597   4.550   3.592   4.649  0.4012 -0.3415 -1.0673
12115SOL    HW138598   4.525   3.682   4.671 -0.3200 -0.9842  0.8977
12115SOL    HW238599   4.497   3.570   4.572 -1.8901 -0.1736  0.4008
12116SOL     OW38600   7.878   8.337   8.735  0.1643 -0.7083  0.1096
12116SOL    HW138601   7.967   8.345   8.702 -0.4919  1.7305 -1.2976
12116SOL    HW238602   7.885   8.354   8.829  1.2283 -1.0782  0.1103
12117SOL     OW38603   2.142   3.336   0.554 -0.0983  0.5147  0.1484
12117SOL    HW138604   2.133   3.276   0.480  1.3001  1.2135 -0.6204
12117SOL    HW238605   2.103   3.417   0.524  0.1269  0.6841  0.3088
12118SOL     OW38606   7.858   4.933   8.725 -0.1203  0.1521  0.2629
12118SOL    HW138607   7.898   5.020   8.731  0.5533 -0.1733  0.6778
12118SOL    HW238608   7.932   4.873   8.720 -0.5690 -0.4314  0.4525
12119SOL     OW38609  10.147   1.350   6.391 -0.1703 -0.0363  0.1128
12119SOL    HW138610  10.200   1.426   6.366  0.7746 -1.1545 -1.4459
12119SOL    HW238611  10.127   1.364   6.483  0.2433  1.9458 -0.0625
12120SOL     OW38612   6.611   7.719   7.223 -0.1596  0.1602 -0.3385
12120SOL    HW138613   6.667   7.685   7.153  1.2089  0.5444  0.5249
12120SOL    HW238614   6.554   7.783   7.179  0.7050  0.4296 -1.1051
12121SOL     OW38615   1.186   7.141  10.243  0.0463 -0.1722 -0.5268
12121SOL    HW138616   1.231   7.160  10.161  1.8211  0.0392  0.4653
12121SOL    HW238617   1.148   7.225  10.269 -0.4220 -0.2142 -1.0458
12122SOL     OW38618   6.310   6.958   5.060  0.1722  0.0532 -0.4884
12122SOL    HW138619   6.314   6.894   4.989  0.8379 -0.8844  0.3687
12122SOL    HW238620   6.259   6.914   5.129 -0.0429  0.7532 -0.1919
12123SOL     OW38621   0.756   2.646   1.213 -0.2084  0.3287 -0.1470
12123SOL    HW138622   0.839   2.681   1.246 -0.7910  1.5526  0.0444
12123SOL    HW238623   0.782   2.576   1.153  1.0136  1.3389 -0.8497
12124SOL     OW38624   3.659   3.553   2.206 -0.0023  0.1399 -0.4264
12124SOL    HW138625   3.687   3.476   2.255 -1.6303 -1.0689 -1.2859
12124SOL    HW238626   3.673   3.626   2.267 -0.2243 -1.0635  1.1575
12125SOL     OW38627   8.784   6.638   7.982 -0.1213  0.1776 -0.3094
12125SOL    HW138628   8.698   6.599   7.997 -0.3954  1.3372  1.4988
12125SOL    HW238629   8.776   6.684   7.899 -1.7349  1.3997  0.4596
12126SOL     OW38630   4.946   8.268   3.183 -0.9385  0.0962  0.1904
12126SOL    HW138631   4.864   8.275   3.231 -1.5960 -0.6135 -0.7932
12126SOL    HW238632   4.940   8.332   3.112 -0.3662  0.4907  0.4887
12127SOL     OW38633   6.626   2.571   6.184  0.3113  0.9734 -0.0993
12127SOL    HW138634   6.618   2.491   6.132  0.4855  1.6870 -1.2578
12127SOL    HW238635   6.536   2.596   6.205  0.0072  2.1990 -2.4998
12128SOL     OW38636   0.565   6.279   4.632  0.2772  0.2345 -0.4419
12128SOL    HW138637   0.573   6.188   4.662  2.1277  0.7300  0.7387
12128SOL    HW238638   0.540   6.272   4.540  1.4497 -1.5115 -0.6784
12129SOL     OW38639  10.520  10.095   7.795 -0.0283  0.2205 -0.1328
12129SOL    HW138640  10.538  10.058   7.881 -1.3929  2.1053  1.0309
12129SOL    HW238641  10.551  10.185   7.800 -0.7365  0.5611 -1.3999
12130SOL     OW38642  10.141   2.308   5.249 -0.6014  0.0451 -0.0602
12130SOL    HW138643  10.047   2.323   5.239 -0.9790 -2.5791 -1.2878
12130SOL    HW238644  10.162   2.343   5.336 -2.4809  1.5354 -0.1518
12131SOL     OW38645   5.635   4.971   5.005 -0.3701 -0.3630  0.3958
12131SOL    HW138646   5.639   5.021   4.923 -2.8501 -0.5076  0.1205
12131SOL    HW238647   5.688   5.023   5.066  1.5743 -0.2751 -1.2408
12132SOL     OW38648   0.930   4.398   4.558  0.5775  0.6753  0.2806
12132SOL    HW138649   0.876   4.333   4.603 -0.0789  1.1970  0.2661
12132SOL    HW238650   1.004   4.349   4.524  0.1954 -0.0280  0.4534
12133SOL     OW38651   1.940   4.465   8.569  1.1371  0.2694 -0.3568
12133SOL    HW138652   1.893   4.486   8.489 -0.8836 -2.5532 -0.0647
12133SOL    HW238653   2.021   4.423   8.539  0.3637 -0.8332 -0.9438
12134SOL     OW38654   6.093   9.815   4.219  0.2496  0.4527  0.3274
12134SOL    HW138655   6.122   9.724   4.210  1.1686  0.8124 -0.4696
12134SOL    HW238656   6.154   9.854   4.281  0.5125  0.7971 -0.1426
12135SOL     OW38657   0.874   2.859   6.378  0.0524  0.5148 -0.2861
12135SOL    HW138658   0.898   2.937   6.428  0.8776  0.7101 -0.9568
12135SOL    HW238659   0.906   2.876   6.290  0.1579 -0.5400 -0.4717
12136SOL     OW38660   4.358   4.041   0.010 -0.0311  0.5602 -0.3913
12136SOL    HW138661   4.290   3.976  -0.004 -0.0363  0.7345 -1.2165
12136SOL    HW238662   4.429   3.993   0.053  0.2372 -0.1469 -1.5936
12137SOL     OW38663   2.561   4.607   8.223  0.1768 -0.2074  0.5258
12137SOL    HW138664   2.585   4.684   8.274 -0.5120 -0.1400  0.7675
12137SOL    HW238665   2.556   4.638   8.133  0.7728 -0.1795  0.4975
12138SOL     OW38666   9.519   7.684   2.409  0.2430 -0.3051 -0.1173
12138SOL    HW138667   9.540   7.601   2.450  1.5049  0.0500 -0.0184
12138SOL    HW238668   9.475   7.660   2.328  0.4346 -1.0567 -0.0055
12139SOL     OW38669   4.454  10.618   7.666 -0.2364  0.4109 -0.3259
12139SOL    HW138670   4.514  10.545   7.679 -1.2364 -0.1703  1.3863
12139SOL    HW238671   4.510  10.693   7.645  0.8329 -0.7403 -1.7383
12140SOL     OW38672   1.670   8.925   7.393 -0.5549 -0.1236 -0.3078
12140SOL    HW138673   1.636   8.838   7.412 -0.5951 -0.7553 -2.8940
12140SOL    HW238674   1.748   8.909   7.339 -0.6514  1.4115 -0.9554
12141SOL     OW38675   3.434   3.095   7.763  0.0274 -0.2425  0.3138
12141SOL    HW138676   3.464   3.055   7.845 -2.3637  0.0180  1.3924
12141SOL    HW238677   3.450   3.189   7.775  1.5537 -0.3714 -0.4143
12142SOL     OW38678   6.476   5.068   5.805  0.4040 -0.0228 -0.1189
12142SOL    HW138679   6.500   4.978   5.785  1.2361  0.3748 -0.9927
12142SOL    HW238680   6.555   5.107   5.842 -0.4262 -0.0810  1.8107
12143SOL     OW38681  10.464   3.581   3.333 -0.2289  0.0953  0.2753
12143SOL    HW138682  10.459   3.674   3.357  0.8908 -0.1056  1.3877
12143SOL    HW238683  10.548   3.552   3.369 -1.7683 -2.0339  2.4460
12144SOL     OW38684   5.264  10.117   9.837 -0.6003  0.0248 -0.3165
12144SOL    HW138685   5.193  10.085   9.780 -0.2141 -1.5991  0.0450
12144SOL    HW238686   5.236  10.093   9.925 -1.0109  2.1788  0.1817
12145SOL     OW38687   6.958   9.895   1.537 -0.2343 -0.3191 -0.2524
12145SOL    HW138688   7.016   9.972   1.532 -0.1088 -0.3685  0.3503
12145SOL    HW238689   6.980   9.855   1.620 -1.6824  0.0934  0.3571
12146SOL     OW38690   0.025   9.814   9.008 -0.1015  0.1158 -0.0095
12146SOL    HW138691   0.097   9.804   9.070 -0.4523 -1.8168  0.1438
12146SOL    HW238692   0.067   9.822   8.923  0.3341  0.9078  0.2779
12147SOL     OW38693  10.011  10.175   3.678  0.5364 -0.5150  0.1199
12147SOL    HW138694   9.918  10.186   3.698  0.4565  0.1347 -0.5676
12147SOL    HW238695  10.021  10.081   3.661  0.2502 -0.7884  1.3389
12148SOL     OW38696   0.603   8.857   0.278  0.1438 -0.3846  0.0366
12148SOL    HW138697   0.619   8.951   0.289  1.8118 -0.7538  0.9764
12148SOL    HW238698   0.608   8.821   0.366 -1.2766 -1.2735 -0.2110
12149SOL     OW38699  10.573   1.809   6.404 -0.8539  0.3508 -0.0776
12149SOL    HW138700  10.572   1.743   6.335  0.8188  0.4489 -0.2385
12149SOL    HW238701  10.604   1.762   6.481 -1.5994  0.5126  0.3354
12150SOL     OW38702  10.215   3.747   5.818 -0.2153  0.4817 -0.4092
12150SOL    HW138703  10.268   3.821   5.789  1.8910 -0.2585  1.2665
12150SOL    HW238704  10.181   3.708   5.738  0.0678  2.2386 -1.4148
12151SOL     OW38705   9.380   9.749   9.837  0.1275  0.1918  0.6160
12151SOL    HW138706   9.288   9.771   9.854  0.5923  3.4609 -0.3667
12151SOL    HW238707   9.429   9.799   9.903  1.2740  0.6980 -0.5764
12152SOL     OW38708   8.054   8.794   0.944 -0.0481 -0.0024 -0.3707
12152SOL    HW138709   8.013   8.783   0.859 -0.2019 -0.5554 -0.2325
12152SOL    HW238710   8.017   8.875   0.979  0.7598  0.7658 -1.2364
12153SOL     OW38711   4.475   3.290   6.970  0.1045  0.3687 -0.5062
12153SOL    HW138712   4.444   3.370   6.929 -0.3349  0.2357 -0.4337
12153SOL    HW238713   4.495   3.316   7.060  0.5558  0.5364 -0.6520
12154SOL     OW38714  10.097   6.586   9.996 -0.5992  0.0311 -0.0965
12154SOL    HW138715  10.153   6.535   9.937 -1.5585 -1.8439  0.5459
12154SOL    HW238716  10.158   6.646  10.040  0.6071 -0.6593 -0.7526
12155SOL     OW38717   1.155   9.922   2.627 -0.6262  0.4527  0.2123
12155SOL    HW138718   1.225   9.986   2.641  0.5384 -0.0107 -2.6877
12155SOL    HW238719   1.175   9.851   2.688  2.6067 -0.4358 -1.6000
12156SOL     OW38720   2.736   3.239   0.132  0.2710  0.2133 -0.7214
12156SOL    HW138721   2.697   3.228   0.046 -0.6015 -2.4706 -0.0627
12156SOL    HW238722   2.780   3.156   0.150  0.8966  0.9003  1.1847
12157SOL     OW38723   6.750   3.602   5.297  0.4671 -0.1422  0.1844
12157SOL    HW138724   6.757   3.519   5.344  0.1712 -0.2138  0.1063
12157SOL    HW238725   6.656   3.611   5.279  0.1492  1.3294  2.1960
12158SOL     OW38726   8.673   3.399   5.099  0.0864  0.0581 -0.1642
12158SOL    HW138727   8.593   3.429   5.056  0.5565  0.2987 -0.8848
12158SOL    HW238728   8.716   3.480   5.129 -0.7266 -0.1385  1.7067
12159SOL     OW38729   6.799   6.254   9.899 -0.1104 -0.0379 -0.3321
12159SOL    HW138730   6.732   6.302   9.948  0.7916 -1.0331  2.0570
12159SOL    HW238731   6.767   6.163   9.900  0.3974 -0.2223 -0.7493
12160SOL     OW38732   2.413   4.592   4.117  0.0295  0.5225 -0.3135
12160SOL    HW138733   2.334   4.579   4.171 -1.4200  0.3401 -2.3645
12160SOL    HW238734   2.391   4.665   4.059  1.4851  0.6338 -0.7653
12161SOL     OW38735   4.253   6.909   7.176  0.0761  0.0208  0.2117
12161SOL    HW138736   4.209   6.940   7.097 -0.3658  1.0119  0.8313
12161SOL    HW238737   4.346   6.905   7.152  0.1255  1.6350  0.0431
12162SOL     OW38738   3.641   9.627   9.781 -0.4637 -0.7367 -0.3932
12162SOL    HW138739   3.593   9.617   9.863  0.1951 -1.1620 -0.0437
12162SOL    HW238740   3.692   9.546   9.774  0.9980  0.1220 -0.2112
12163SOL     OW38741   8.084   6.417   5.147  0.1336  0.4187  0.5238
12163SOL    HW138742   8.124   6.377   5.070 -1.6009 -0.0085 -0.1908
12163SOL    HW238743   8.063   6.506   5.120 -1.6256 -0.1135  0.0490
12164SOL     OW38744   4.905   2.542   3.048  0.0704  0.6405 -0.1506
12164SOL    HW138745   4.850   2.620   3.039  2.2170  2.4604  1.3235
12164SOL    HW238746   4.858   2.486   3.110 -0.6091  1.6587  0.2728
12165SOL     OW38747   8.322   7.392   9.138 -0.0733 -0.4829 -0.0697
12165SOL    HW138748   8.271   7.322   9.179  0.9046 -1.5261 -0.5453
12165SOL    HW238749   8.305   7.382   9.044 -0.3997  0.3204 -0.0984
12166SOL     OW38750  10.547   6.306   0.467  0.3042  0.2310 -0.3756
12166SOL    HW138751  10.501   6.252   0.531  1.1092 -1.2119 -0.9479
12166SOL    HW238752  10.638   6.304   0.495  1.0960 -2.3339 -2.6845
12167SOL     OW38753   1.007   4.620   5.972 -0.0982  0.1958  0.1257
12167SOL    HW138754   0.944   4.689   5.949 -0.6523  0.1960  1.5346
12167SOL    HW238755   0.955   4.540   5.971  0.5800 -0.2613 -1.6601
12168SOL     OW38756   7.916   3.422   6.196  0.1879 -0.1432 -0.0364
12168SOL    HW138757   7.879   3.502   6.157  0.6762 -0.8084 -1.9811
12168SOL    HW238758   8.003   3.414   6.156  0.6979 -0.9426  1.1748
12169SOL     OW38759   4.031   5.244   6.705 -0.1147  0.0538  0.1701
12169SOL    HW138760   3.995   5.179   6.765  0.3257 -0.0759  0.2914
12169SOL    HW238761   3.999   5.215   6.619 -2.7254  1.5436  0.5341
12170SOL     OW38762   7.966   9.972   1.713  0.3402 -0.5332  0.5402
12170SOL    HW138763   8.025  10.014   1.775 -1.0599 -0.7302  2.0707
12170SOL    HW238764   7.979   9.878   1.726 -1.4115 -0.6250  2.1045
12171SOL     OW38765  10.523   8.087   6.624  0.1770 -0.2169  0.5390
12171SOL    HW138766  10.510   7.993   6.635  0.7540 -0.5093 -0.9364
12171SOL    HW238767  10.614   8.096   6.595  0.0252  0.7561  0.3063
12172SOL     OW38768   1.264   0.668   1.799 -0.3454 -0.2477 -0.4521
12172SOL    HW138769   1.177   0.685   1.762 -0.8573 -1.8974 -0.1100
12172SOL    HW238770   1.292   0.586   1.758 -1.0162 -2.2628  2.7843
12173SOL     OW38771   2.265   4.234   7.603 -0.3251 -0.1400  0.0315
12173SOL    HW138772   2.293   4.237   7.512  0.3847  0.8328  0.2710
12173SOL    HW238773   2.198   4.302   7.611  0.7075  0.8509  0.5717
12174SOL     OW38774   9.143   9.736   4.850  0.0274 -0.3003  0.3075
12174SOL    HW138775   9.170   9.645   4.842  1.3570  0.1770 -1.2344
12174SOL    HW238776   9.172   9.777   4.769 -1.9628  1.1670  0.2535
12175SOL     OW38777   8.176   7.593   7.805  0.2962 -0.9625 -0.1834
12175SOL    HW138778   8.201   7.676   7.847  1.0566  0.2690 -2.8488
12175SOL    HW238779   8.082   7.602   7.790  0.4065 -0.4963 -0.6160
12176SOL     OW38780   3.516   8.191   5.602 -0.3103 -0.4615 -0.0356
12176SOL    HW138781   3.467   8.264   5.640  0.8181  0.2797  0.0358
12176SOL    HW238782   3.561   8.151   5.677 -0.9161 -1.2521 -0.0729
12177SOL     OW38783   0.497   8.990   4.234 -0.1678  0.2465  0.6388
12177SOL    HW138784   0.537   8.931   4.169  1.5040 -0.1301  1.9509
12177SOL    HW238785   0.441   8.932   4.286 -1.5688  0.5621 -0.4361
12178SOL     OW38786   9.227   6.276   7.501 -0.0485 -0.3528  0.0943
12178SOL    HW138787   9.221   6.212   7.431  2.5426  0.2989 -0.8319
12178SOL    HW238788   9.160   6.342   7.479 -0.9414 -1.3795 -0.3645
12179SOL     OW38789   8.036   2.525   5.329 -0.4974 -0.2502 -0.4054
12179SOL    HW138790   8.007   2.434   5.337 -1.1612  0.1091  1.7203
12179SOL    HW238791   7.969   2.567   5.274 -2.0620 -0.3049  1.3840
12180SOL     OW38792   6.623   9.271   2.941  0.3398 -0.0470  0.0510
12180SOL    HW138793   6.680   9.324   2.997  1.6647  0.9243 -2.1143
12180SOL    HW238794   6.679   9.201   2.908 -0.1641 -0.0835 -0.7629
12181SOL     OW38795   6.768  10.174   6.840 -0.4111 -0.3495  0.1897
12181SOL    HW138796   6.853  10.204   6.872 -0.1786  0.8375 -1.4374
12181SOL    HW238797   6.787  10.093   6.794 -0.4327 -0.9352  1.1763
12182SOL     OW38798   2.148   0.066   6.939 -0.1198  0.1157 -0.0824
12182SOL    HW138799   2.196   0.066   7.022 -0.5978 -1.6999  0.2454
12182SOL    HW238800   2.114   0.155   6.930  1.2915  0.7848  0.8455
12183SOL     OW38801   7.380   9.254   1.489  0.2243  0.9571 -0.0686
12183SOL    HW138802   7.433   9.284   1.563  0.4293  0.1392  0.1279
12183SOL    HW238803   7.430   9.281   1.412  1.8053 -1.1869  0.0971
12184SOL     OW38804   9.711   5.255   1.466  0.3190 -0.5038 -0.5624
12184SOL    HW138805   9.622   5.277   1.495  0.4508 -0.0954 -0.4553
12184SOL    HW238806   9.767   5.316   1.513  0.4520  0.9864 -2.5190
12185SOL     OW38807   0.992  10.054   3.651 -0.2049  0.3660  0.0235
12185SOL    HW138808   0.964   9.983   3.594  0.1336 -0.6386  1.0554
12185SOL    HW238809   1.087  10.045   3.657 -0.2399  0.3866  0.7924
12186SOL     OW38810  10.119   8.531   9.168 -0.0110 -0.4639  0.1354
12186SOL    HW138811  10.185   8.515   9.235 -0.5873 -0.5152  0.7000
12186SOL    HW238812  10.144   8.474   9.095 -0.3452 -1.7355  0.9772
12187SOL     OW38813   9.902   3.142   8.040  0.0429 -0.6737 -0.0506
12187SOL    HW138814   9.908   3.160   7.947 -0.3536  1.3184  0.2732
12187SOL    HW238815   9.891   3.047   8.046  1.1490 -0.9562 -1.9609
12188SOL     OW38816   8.951   9.025   6.282 -0.5627  0.1206 -0.0261
12188SOL    HW138817   9.003   9.003   6.205 -1.1079 -0.9505 -0.1057
12188SOL    HW238818   8.887   9.089   6.251  0.8588  1.7301  0.1465
12189SOL     OW38819   9.533   4.912   0.678  0.0136  0.2533  0.1172
12189SOL    HW138820   9.532   4.989   0.734  0.9441  3.0499 -3.3720
12189SOL    HW238821   9.622   4.877   0.687 -0.1104  0.1382  0.9607
12190SOL     OW38822   6.267   4.040   4.651 -0.6031 -0.5179 -0.1684
12190SOL    HW138823   6.327   4.097   4.699  0.2838 -1.1592 -0.4773
12190SOL    HW238824   6.305   3.952   4.660 -0.6141 -0.7178 -1.7043
12191SOL     OW38825   1.281   2.478   6.363 -0.7237  0.9346 -0.3071
12191SOL    HW138826   1.374   2.498   6.350 -0.3098 -0.6915 -0.1083
12191SOL    HW238827   1.252   2.444   6.278  0.1291 -2.9085  0.7164
12192SOL     OW38828   5.637   2.607   5.123 -0.3008  0.0868 -0.2969
12192SOL    HW138829   5.610   2.526   5.081 -1.2013 -1.1892  2.5006
12192SOL    HW238830   5.716   2.584   5.172 -0.2261  1.0621  0.0670
12193SOL     OW38831  10.523   1.494   1.212 -0.2764  0.0938  0.5234
12193SOL    HW138832  10.492   1.578   1.179 -0.1851 -0.1235 -0.1515
12193SOL    HW238833  10.565   1.453   1.136 -2.6418 -1.6826  0.0379
12194SOL     OW38834   6.252   9.833   1.969  0.5795  0.5257  0.3633
12194SOL    HW138835   6.301   9.871   2.042 -0.3582  0.6544  0.9456
12194SOL    HW238836   6.266   9.893   1.896  0.4477  1.1161  0.8136
12195SOL     OW38837   2.483   6.937   7.659 -0.7894  1.1055  0.4377
12195SOL    HW138838   2.478   6.896   7.573  0.9361  3.4735 -0.9327
12195SOL    HW238839   2.401   6.914   7.703 -0.8211 -1.8752 -0.9871
12196SOL     OW38840   9.475   1.123   0.121  0.4756 -0.1710 -0.2717
12196SOL    HW138841   9.426   1.119   0.039  1.1244  1.1676 -0.7588
12196SOL    HW238842   9.454   1.041   0.166  0.7165 -1.3149 -2.1281
12197SOL     OW38843   8.023   1.908   3.967 -0.2028 -0.1043  0.2277
12197SOL    HW138844   7.986   1.934   4.052 -1.3830  2.9509 -1.0787
12197SOL    HW238845   8.108   1.951   3.963 -0.2322 -0.0838 -0.2206
12198SOL     OW38846   7.661  10.010   3.062  0.2060  0.1605 -0.1757
12198SOL    HW138847   7.573  10.026   3.096 -0.6670 -2.3034 -1.0804
12198SOL    HW238848   7.694   9.937   3.113  0.6117 -0.7158 -1.6141
12199SOL     OW38849   0.210   9.406   1.714  0.2025  0.5700  0.1865
12199SOL    HW138850   0.233   9.494   1.744  0.1660  1.3082 -1.8150
12199SOL    HW238851   0.266   9.348   1.765  1.9964  1.9233 -0.1234
12200SOL     OW38852  10.586   2.998   8.121  0.2286  0.0866  0.3386
12200SOL    HW138853  10.492   2.984   8.132  0.0422  0.8236 -0.2629
12200SOL    HW238854  10.620   2.912   8.095 -0.0490 -0.5157  1.8913
12201SOL     OW38855   4.235   2.208  10.211 -0.5449 -0.0175 -0.2036
12201SOL    HW138856   4.298   2.276  10.188 -0.8697  0.5555  0.5571
12201SOL    HW238857   4.161   2.255  10.248 -1.2798 -0.7075 -0.7359
12202SOL     OW38858   3.669  10.349   9.812  0.3645 -0.2094  0.1638
12202SOL    HW138859   3.599  10.415   9.815  0.3389 -0.2715  1.7207
12202SOL    HW238860   3.748  10.397   9.834  0.2195 -0.8063  2.1657
12203SOL     OW38861   6.915   5.404   0.633 -0.2623  0.2069 -0.1283
12203SOL    HW138862   6.927   5.466   0.561  0.2746  1.7632  1.2464
12203SOL    HW238863   6.999   5.360   0.642 -0.0775  0.6124  0.1013
12204SOL     OW38864   1.474   3.841   0.032  0.3560  0.8388 -0.5918
12204SOL    HW138865   1.490   3.919  -0.022  2.3155  2.3027  1.8781
12204SOL    HW238866   1.549   3.785   0.014 -0.2172  0.2234 -1.1245
12205SOL     OW38867   1.854   4.803   5.266 -0.2207 -0.6320  0.4761
12205SOL    HW138868   1.859   4.886   5.219  0.2239 -1.2796 -0.6535
12205SOL    HW238869   1.763   4.774   5.252 -0.2129 -0.6120  0.3798
12206SOL     OW38870   4.259   5.423   8.006 -0.1231 -0.4771  0.0496
12206SOL    HW138871   4.329   5.487   7.994 -1.8927  1.4622 -0.4885
12206SOL    HW238872   4.283   5.350   7.948  1.2209  0.3147 -0.4269
12207SOL     OW38873   2.707   6.746   3.444  0.1858  0.6542 -0.1294
12207SOL    HW138874   2.798   6.754   3.414  1.0012 -0.8811  1.7329
12207SOL    HW238875   2.661   6.707   3.369  1.2556  0.6192 -0.7891
12208SOL     OW38876  10.054   5.663   4.910 -0.2479  0.3251 -0.2194
12208SOL    HW138877   9.999   5.627   4.840 -0.7759  0.2268  0.2420
12208SOL    HW238878  10.041   5.758   4.905 -0.3004  0.3168 -0.2404
12209SOL     OW38879   4.132   9.591   8.483 -0.4261  0.0639  0.2669
12209SOL    HW138880   4.149   9.580   8.577 -0.2981  0.3013  0.2712
12209SOL    HW238881   4.150   9.505   8.446  1.5485  0.4933  0.1515
12210SOL     OW38882   0.615   0.483  10.173 -0.7146 -0.2716  0.2707
12210SOL    HW138883   0.596   0.526  10.089 -0.0590  0.7082  0.6010
12210SOL    HW238884   0.587   0.547  10.239 -1.9536 -1.3537  0.8227
12211SOL     OW38885   9.663  10.579   2.838  0.3176  0.0938  0.3818
12211SOL    HW138886   9.624  10.505   2.792  0.1666  0.7398 -0.5612
12211SOL    HW238887   9.634  10.569   2.928 -2.0937  0.5381 -0.2751
12212SOL     OW38888  10.638   9.158   2.203  0.2451  0.1209  0.8908
12212SOL    HW138889  10.637   9.062   2.206 -1.0043  0.0823 -0.0571
12212SOL    HW238890  10.731   9.180   2.200  0.5480 -1.0943  0.5374
12213SOL     OW38891   3.731   0.901   3.819 -0.4741 -0.1266  0.0984
12213SOL    HW138892   3.664   0.900   3.750  1.2546  0.2757 -1.6914
12213SOL    HW238893   3.758   0.992   3.826 -0.3697 -0.2211  1.0767
12214SOL     OW38894   5.193   8.517   7.743  0.2840  0.1619  0.6548
12214SOL    HW138895   5.281   8.480   7.734 -0.2237 -0.9816  0.2639
12214SOL    HW238896   5.169   8.500   7.834  0.4434  0.4189  0.7448
12215SOL     OW38897   3.282   2.912   3.539 -0.5564 -0.1057 -0.7177
12215SOL    HW138898   3.345   2.947   3.602  0.6301 -1.4736 -1.0837
12215SOL    HW238899   3.197   2.944   3.569  0.2008  0.8907  0.4231
12216SOL     OW38900   4.058   0.923   1.769  0.2977 -0.1791 -0.2780
12216SOL    HW138901   3.965   0.934   1.790  0.4189  0.4364 -0.0564
12216SOL    HW238902   4.058   0.902   1.675  0.0794  2.6789 -1.0135
12217SOL     OW38903   7.140   9.654   5.822  0.3229 -0.0535  0.1617
12217SOL    HW138904   7.194   9.623   5.749  1.4537  2.5490 -0.2228
12217SOL    HW238905   7.202   9.677   5.890 -0.2892  2.0727  0.0823
12218SOL     OW38906   3.636   8.805   0.619  0.0196 -0.4911 -0.2204
12218SOL    HW138907   3.575   8.833   0.551 -0.1649 -0.5224 -0.0697
12218SOL    HW238908   3.698   8.877   0.627 -1.2834  0.5427  1.1620
12219SOL     OW38909   1.854   9.169   2.882 -0.2514 -0.0974  0.0753
12219SOL    HW138910   1.907   9.117   2.943 -0.0915  0.4651  0.4260
12219SOL    HW238911   1.884   9.143   2.795  0.4591  0.0599  0.2677
12220SOL     OW38912   7.729   2.398   7.264  0.5786  0.3023  0.5770
12220SOL    HW138913   7.687   2.415   7.180  0.5185 -2.1844  0.0109
12220SOL    HW238914   7.661   2.416   7.329 -0.6780 -1.3703 -0.1842
12221SOL     OW38915   4.550   9.934   3.236  0.2088  0.3105  0.4305
12221SOL    HW138916   4.606   9.903   3.165  0.4344  0.4714  0.5360
12221SOL    HW238917   4.547  10.029   3.223 -0.8171  0.2180 -0.1451
12222SOL     OW38918   0.936   8.935   5.929  0.2150 -0.1233 -0.4616
12222SOL    HW138919   1.016   8.955   5.881 -0.7824  1.5928 -1.5363
12222SOL    HW238920   0.872   8.914   5.861 -1.0373  1.6168  0.0805
12223SOL     OW38921  10.179   9.141   7.325  0.8262 -0.1399  0.1848
12223SOL    HW138922  10.231   9.086   7.266  0.0318 -1.8482  0.9860
12223SOL    HW238923  10.233   9.219   7.339  2.1649 -0.8476 -0.7429
12224SOL     OW38924   9.649   7.450   9.205  0.5289  0.1385  0.1222
12224SOL    HW138925   9.728   7.455   9.260 -0.2965 -0.0150  1.3702
12224SOL    HW238926   9.667   7.379   9.144  0.4915 -1.4241  1.8592
12225SOL     OW38927   0.042   8.540   4.344  0.1542 -0.5165  0.0852
12225SOL    HW138928  -0.038   8.488   4.332  0.3420 -0.6460 -0.6226
12225SOL    HW238929   0.011   8.622   4.382 -0.4533 -0.1535 -1.1467
12226SOL     OW38930   6.559   2.650   9.239  0.0180  0.2824 -0.2888
12226SOL    HW138931   6.532   2.735   9.204 -1.0484 -0.0016 -0.1944
12226SOL    HW238932   6.575   2.596   9.162 -0.0833  0.3340 -0.3466
12227SOL     OW38933   2.099   1.849   0.980 -0.5067 -0.0591  0.2992
12227SOL    HW138934   2.009   1.872   0.956 -0.8366 -0.6776  0.9130
12227SOL    HW238935   2.151   1.871   0.902 -0.8167  2.4167  0.7099
12228SOL     OW38936   1.516   1.158   0.462 -0.2842 -0.2825  0.2129
12228SOL    HW138937   1.536   1.227   0.399 -0.0260  0.5601  1.1885
12228SOL    HW238938   1.602   1.128   0.493 -0.4196  0.0804  0.9652
12229SOL     OW38939   6.797   1.121  10.566 -0.3002  0.0914 -0.8081
12229SOL    HW138940   6.765   1.167  10.644  0.5832 -0.4122 -0.1242
12229SOL    HW238941   6.885   1.158  10.552  0.2318 -1.0296 -0.5320
12230SOL     OW38942   5.819   9.545   9.644  0.5379 -0.5899 -0.3223
12230SOL    HW138943   5.772   9.569   9.563  0.5745 -1.0678 -0.4867
12230SOL    HW238944   5.810   9.622   9.700 -0.5561 -0.7060 -0.3014
12231SOL     OW38945   8.974   3.826   4.751 -0.0754 -0.4439  0.4170
12231SOL    HW138946   8.986   3.764   4.823  1.4220 -1.7577 -0.8644
12231SOL    HW238947   9.034   3.795   4.683 -1.3740  0.7646 -1.3831
12232SOL     OW38948   5.940  10.317   0.647 -0.7935  0.1121 -0.5572
12232SOL    HW138949   5.922  10.288   0.737 -1.0626  1.1599 -0.2587
12232SOL    HW238950   5.858  10.301   0.600 -0.2987 -1.5147 -0.9285
12233SOL     OW38951   7.272   0.723   0.231 -0.8043  0.4182 -0.1534
12233SOL    HW138952   7.275   0.641   0.281 -0.7684  1.3665  1.4745
12233SOL    HW238953   7.217   0.703   0.155  3.8174 -2.8421 -3.2281
12234SOL     OW38954   0.758   3.638   9.628  0.5162  0.3372  0.1118
12234SOL    HW138955   0.772   3.714   9.684  0.6064  1.3108 -1.1930
12234SOL    HW238956   0.817   3.571   9.663 -0.5262  0.3842  2.0976
12235SOL     OW38957   7.308   7.914   4.467  0.3783  0.0969  0.4149
12235SOL    HW138958   7.341   7.852   4.531  1.1040 -0.9307 -0.9062
12235SOL    HW238959   7.372   7.912   4.396  0.2285  2.1027  0.1652
12236SOL     OW38960   6.004   5.313   0.383  0.1339 -0.2634 -0.5700
12236SOL    HW138961   6.011   5.407   0.395  1.1998 -0.3525 -0.3527
12236SOL    HW238962   6.021   5.299   0.290  2.4484 -0.4127 -0.1796
12237SOL     OW38963   1.412   3.071   0.203 -0.2175 -0.0041 -0.1456
12237SOL    HW138964   1.453   2.999   0.251  1.2929 -0.0633 -1.4636
12237SOL    HW238965   1.419   3.146   0.262 -0.5772 -0.6000  0.6861
12238SOL     OW38966   3.630   2.099   8.011 -0.4291  0.1297  0.1596
12238SOL    HW138967   3.544   2.131   8.040 -0.6193 -0.1568 -0.0940
12238SOL    HW238968   3.615   2.009   7.985  0.0935 -0.1467  0.7877
12239SOL     OW38969   1.097   3.793   3.482  0.5603 -0.3578  0.0080
12239SOL    HW138970   1.049   3.859   3.432  0.9597 -1.0781 -1.3570
12239SOL    HW238971   1.085   3.820   3.574 -0.3648  0.8624 -0.4397
12240SOL     OW38972   4.079   3.714   8.809 -0.3053 -0.3868  0.4874
12240SOL    HW138973   4.092   3.620   8.826  0.3540 -0.1682  1.2570
12240SOL    HW238974   3.985   3.723   8.796 -0.4267 -1.1048  0.7926
12241SOL     OW38975   4.911   2.398   4.416 -0.0923  0.2172  0.2819
12241SOL    HW138976   4.943   2.323   4.367 -2.9698 -0.9156 -0.0751
12241SOL    HW238977   4.842   2.435   4.361 -0.4475  1.5823  1.5721
12242SOL     OW38978   3.404   3.509   8.940 -0.4209  0.4683 -0.3854
12242SOL    HW138979   3.468   3.484   9.007 -0.3498  0.5506 -0.4222
12242SOL    HW238980   3.405   3.437   8.878 -0.3393  0.4837 -0.4034
12243SOL     OW38981   9.494   5.254   7.802 -0.2784 -0.2050 -0.2318
12243SOL    HW138982   9.550   5.196   7.751  1.5306  1.2204  0.0077
12243SOL    HW238983   9.420   5.274   7.744  0.6817 -0.2587 -1.5126
12244SOL     OW38984   9.652   1.201   9.205  0.0724 -0.2457  0.1484
12244SOL    HW138985   9.747   1.207   9.199  0.0277 -0.2397 -0.7110
12244SOL    HW238986   9.621   1.286   9.173 -0.2137  0.0440  1.1485
12245SOL     OW38987   0.578  10.282   9.923  0.5408  0.3477 -0.2705
12245SOL    HW138988   0.503  10.314   9.873 -0.7304 -0.7776  0.8367
12245SOL    HW238989   0.563  10.314  10.012  0.9553 -0.5345  0.1321
12246SOL     OW38990  10.621   6.804   3.521  0.0513 -0.0293 -0.5832
12246SOL    HW138991  10.640   6.717   3.556 -1.0351  0.2529  0.7732
12246SOL    HW238992  10.683   6.862   3.566  0.1601  0.0366 -0.8131
12247SOL     OW38993   2.258   6.876  10.399 -0.2165 -0.0555  0.5037
12247SOL    HW138994   2.324   6.940  10.374  0.7823 -0.8346  1.0959
12247SOL    HW238995   2.178   6.907  10.356  0.6410  0.5788 -0.7152
12248SOL     OW38996   6.431   1.915   9.688  0.3747 -0.1892  0.1800
12248SOL    HW138997   6.372   1.911   9.762 -1.6063 -0.8057 -1.3584
12248SOL    HW238998   6.480   1.833   9.690 -0.9305 -0.9933 -0.1699
12249SOL     OW38999   1.978   2.554   2.877 -0.7551  0.2444  0.1759
12249SOL    HW139000   2.068   2.552   2.845 -0.9830  1.1672 -0.5639
12249SOL    HW239001   1.924   2.562   2.799 -1.5291 -0.8509  0.5754
12250SOL     OW39002   9.841   0.926  10.029  0.2498 -0.0276  0.0471
12250SOL    HW139003   9.884   0.899   9.947 -0.2909  1.5437 -0.8158
12250SOL    HW239004   9.751   0.945  10.003 -0.1873 -0.4545  1.2259
12251SOL     OW39005   8.580   0.214   3.174  0.2278  0.1040  0.3332
12251SOL    HW139006   8.593   0.309   3.180 -0.5458  0.2800 -0.5396
12251SOL    HW239007   8.486   0.202   3.185  0.2597 -0.5088 -0.0185
12252SOL     OW39008   2.755   8.330   7.700 -0.1330 -0.4933  0.4217
12252SOL    HW139009   2.818   8.326   7.628 -0.2003 -2.3392  0.4062
12252SOL    HW239010   2.808   8.355   7.776 -0.0946  1.6438 -0.2461
12253SOL     OW39011   3.748   2.561   2.088  0.6057  0.5035 -0.0656
12253SOL    HW139012   3.821   2.623   2.089  0.7162  0.4255  1.8293
12253SOL    HW239013   3.684   2.599   2.029  1.1329  1.8588  0.2081
12254SOL     OW39014   2.330   8.752   6.540  0.5706 -0.6864  0.6596
12254SOL    HW139015   2.352   8.823   6.601  1.7150  0.4619 -1.0118
12254SOL    HW239016   2.245   8.778   6.504  0.8699 -0.2940  0.2353
12255SOL     OW39017   2.933   2.857   9.960  0.0717  0.4187  0.0660
12255SOL    HW139018   2.993   2.790   9.991  1.3086  1.4563  0.0048
12255SOL    HW239019   2.954   2.935  10.011 -1.0843  0.8719 -0.1056
12256SOL     OW39020   5.344   3.531   2.550  0.1590  0.0296 -0.0648
12256SOL    HW139021   5.304   3.571   2.473 -2.6557  0.2701  1.3616
12256SOL    HW239022   5.335   3.437   2.535 -0.8055  0.0763  0.1078
12257SOL     OW39023   7.000   6.616   8.638 -0.1528  0.0438  0.8780
12257SOL    HW139024   6.965   6.533   8.605 -0.8615  0.8118 -0.3813
12257SOL    HW239025   7.084   6.592   8.677 -0.3850 -1.2805  0.6228
12258SOL     OW39026  10.152   4.647   0.758  0.6171  0.2150 -0.3491
12258SOL    HW139027  10.059   4.667   0.760  0.5539 -0.0144 -0.8176
12258SOL    HW239028  10.156   4.553   0.739  0.9414  0.5956 -2.5294
12259SOL     OW39029   0.107   2.155   3.767 -0.2053 -0.5894  0.1190
12259SOL    HW139030   0.014   2.171   3.752 -0.0219  1.6153  0.9218
12259SOL    HW239031   0.151   2.220   3.712  0.8437 -1.2206  0.1914
12260SOL     OW39032   3.330   9.085   5.759  0.2435  0.5982 -0.2033
12260SOL    HW139033   3.368   9.128   5.682  0.6753  0.0175 -0.3206
12260SOL    HW239034   3.309   8.997   5.729  1.0207  0.1529  0.5120
12261SOL     OW39035   4.917   5.436   5.338  0.2514  0.0905 -0.2240
12261SOL    HW139036   4.948   5.496   5.406 -0.8271 -0.3168  0.6498
12261SOL    HW239037   4.940   5.349   5.370  2.2451 -0.0008 -1.7156
12262SOL     OW39038   5.330  10.655   1.811  0.5229  0.2845 -0.0695
12262SOL    HW139039   5.419  10.689   1.813  1.1455 -1.1291 -1.4814
12262SOL    HW239040   5.313  10.628   1.901  1.5805  0.4257  0.1848
12263SOL     OW39041   1.315   4.283   2.039  0.1696  0.0100  0.3662
12263SOL    HW139042   1.271   4.233   2.108 -0.7612  1.5997  0.9695
12263SOL    HW239043   1.252   4.350   2.013  1.0568  0.3567 -1.0158
12264SOL     OW39044   7.484   2.042   8.782  0.0663  0.1892  0.6412
12264SOL    HW139045   7.466   2.129   8.746  2.6331 -0.0931 -1.7277
12264SOL    HW239046   7.568   2.052   8.827  1.0627 -1.2454 -0.7905
12265SOL     OW39047   1.708   1.215   3.184  0.2508  0.0207  0.5169
12265SOL    HW139048   1.779   1.279   3.189  0.3196  0.0857 -0.8787
12265SOL    HW239049   1.628   1.267   3.181  0.1965 -0.0228  1.1076
12266SOL     OW39050   2.233  10.022   5.229 -0.1796 -0.7613  0.0435
12266SOL    HW139051   2.180   9.955   5.274  1.7926 -0.6919  2.6757
12266SOL    HW239052   2.307   9.973   5.192  0.4259 -0.2565  0.5746
12267SOL     OW39053   4.469   7.264   8.439 -0.3557 -0.2114  0.2725
12267SOL    HW139054   4.377   7.279   8.460 -0.5616 -0.6430 -0.2989
12267SOL    HW239055   4.516   7.293   8.517 -0.9466  0.3684  0.4221
12268SOL     OW39056  10.235   9.594   5.495  0.6736  0.4272  0.3905
12268SOL    HW139057  10.155   9.553   5.527  0.1173  2.4674  1.8047
12268SOL    HW239058  10.305   9.532   5.517 -0.4631 -1.4553 -0.9894
12269SOL     OW39059   2.738   1.798   7.124  0.1442 -0.5442 -0.0621
12269SOL    HW139060   2.733   1.818   7.217  0.8930 -1.1169  0.1069
12269SOL    HW239061   2.830   1.780   7.107 -0.2124 -2.0999 -0.5567
12270SOL     OW39062   8.235   8.999   6.230  0.1915  0.1887  0.3742
12270SOL    HW139063   8.172   8.937   6.266 -0.6648 -0.2500 -1.7482
12270SOL    HW239064   8.183   9.057   6.175  1.3056  1.4577  0.6070
12271SOL     OW39065   8.326   7.285   8.870  0.3779  0.0828 -0.7090
12271SOL    HW139066   8.404   7.298   8.817 -0.4896  0.0702 -2.0347
12271SOL    HW239067   8.300   7.195   8.853  1.0387 -0.5056  1.1126
12272SOL     OW39068   2.935   6.633   9.425  0.6087  0.7354  0.2313
12272SOL    HW139069   2.990   6.682   9.364  0.9800  2.4395  1.8422
12272SOL    HW239070   2.946   6.678   9.509 -2.4272  0.5196  0.8484
12273SOL     OW39071   5.804   3.020   4.062  0.3523  1.0122 -0.2585
12273SOL    HW139072   5.861   3.047   4.134  1.4648  0.1601 -0.7965
12273SOL    HW239073   5.731   2.975   4.105 -0.2902  2.6597  0.4793
12274SOL     OW39074   7.397   4.794   9.591  0.3669  0.2011  0.0301
12274SOL    HW139075   7.458   4.726   9.619  0.0306 -0.2322 -0.2694
12274SOL    HW239076   7.449   4.850   9.534  1.0718  1.1328  1.5453
12275SOL     OW39077   5.923  10.386   8.051 -0.2341 -0.1275 -0.4777
12275SOL    HW139078   5.986  10.337   8.104  1.1753  1.1802 -0.9085
12275SOL    HW239079   5.861  10.319   8.020  1.6192 -1.6517 -1.0522
12276SOL     OW39080   3.029  10.260   8.435 -0.3795  0.2214 -0.0456
12276SOL    HW139081   2.976  10.321   8.487 -0.4208  0.4167 -0.3133
12276SOL    HW239082   2.976  10.180   8.431 -1.7187  1.1227 -2.1937
12277SOL     OW39083   6.307  10.587  10.619 -0.3805  0.4304 -0.0029
12277SOL    HW139084   6.365  10.588  10.695  0.1155  0.2076 -0.3758
12277SOL    HW239085   6.305  10.496  10.591 -0.4346  0.5374 -0.3570
12278SOL     OW39086   7.473   4.811   3.663  0.2817  0.1596  0.0036
12278SOL    HW139087   7.394   4.857   3.693  0.5341 -0.6066  2.0452
12278SOL    HW239088   7.440   4.734   3.617 -0.1575  0.4216 -0.1234
12279SOL     OW39089   7.947   0.990   2.357 -1.2554  0.5503 -0.1336
12279SOL    HW139090   7.857   0.984   2.325 -1.1862  1.9167 -0.6385
12279SOL    HW239091   8.000   0.953   2.287 -1.3819  0.0284  0.0361
12280SOL     OW39092   6.939   0.685   3.071 -0.1427  0.2794  0.1196
12280SOL    HW139093   6.870   0.751   3.066 -2.5975 -1.9331  1.8460
12280SOL    HW239094   7.005   0.714   3.009 -0.8919  4.4492  0.9834
12281SOL     OW39095   5.607   1.296   9.257  0.9447  0.3196 -0.3948
12281SOL    HW139096   5.591   1.266   9.167  0.5475 -0.4570 -0.0768
12281SOL    HW239097   5.580   1.388   9.256 -1.6690 -0.3490 -0.4394
12282SOL     OW39098   1.333   7.495   3.840 -0.1278  0.2009  0.3124
12282SOL    HW139099   1.325   7.460   3.751 -1.8944  0.7788  0.1990
12282SOL    HW239100   1.256   7.461   3.886  0.3163  0.6010  1.3823
12283SOL     OW39101   6.876   4.204   2.093 -0.1834 -0.4715 -0.0886
12283SOL    HW139102   6.970   4.224   2.100 -0.1461  0.2696 -2.0625
12283SOL    HW239103   6.836   4.249   2.166  0.6528  1.8668 -0.9814
12284SOL     OW39104   8.862   4.575   9.840  0.4875 -0.3357  0.3044
12284SOL    HW139105   8.777   4.618   9.847 -0.0527 -1.3602  0.1383
12284SOL    HW239106   8.896   4.576   9.930 -0.1422 -0.7909  0.5575
12285SOL     OW39107   2.845   1.099   7.678  0.6318 -0.1008  0.2722
12285SOL    HW139108   2.804   1.059   7.754  1.1482 -0.7395  0.2284
12285SOL    HW239109   2.924   1.141   7.712  1.8659 -1.9457 -0.1270
12286SOL     OW39110   8.288   7.298   7.484 -0.7384 -0.4606 -0.3943
12286SOL    HW139111   8.296   7.248   7.403 -1.2960 -0.7762 -0.2553
12286SOL    HW239112   8.316   7.237   7.553 -1.1965 -0.5048 -0.2489
12287SOL     OW39113   3.893  10.108   5.285 -0.2700  0.2927  0.1361
12287SOL    HW139114   3.901  10.203   5.279  1.5985  0.2966  1.5633
12287SOL    HW239115   3.872  10.080   5.196  0.0092  1.9685 -0.4943
12288SOL     OW39116   9.148   5.916   9.765 -0.1886  0.1371 -0.4248
12288SOL    HW139117   9.075   5.855   9.763 -1.5900  1.7265  0.4150
12288SOL    HW239118   9.177   5.916   9.856 -1.9476  2.6143  0.2376
12289SOL     OW39119   9.657   0.575   8.643 -0.2111 -0.1615  0.1080
12289SOL    HW139120   9.740   0.590   8.687 -0.5246 -2.1460  1.5133
12289SOL    HW239121   9.680   0.563   8.550  1.5457 -3.4182  0.8016
12290SOL     OW39122   9.673   9.674   7.459  0.1634  0.3024 -0.5329
12290SOL    HW139123   9.761   9.709   7.472  0.5002  0.2076 -2.2768
12290SOL    HW239124   9.617   9.730   7.512  1.2001  0.7537  0.1199
12291SOL     OW39125   3.723   7.553   5.766 -0.5086  0.4308 -0.1544
12291SOL    HW139126   3.685   7.571   5.680 -1.6015 -1.6535 -0.1672
12291SOL    HW239127   3.742   7.459   5.765  1.3319  0.7164  1.1866
12292SOL     OW39128   6.891   8.809   7.193 -0.3794 -0.3732  0.0477
12292SOL    HW139129   6.802   8.789   7.163 -0.2740 -1.0462  0.1704
12292SOL    HW239130   6.899   8.762   7.275 -1.4248  3.1031  2.3924
12293SOL     OW39131  10.275   4.016   1.007 -0.7254  0.5905  0.5372
12293SOL    HW139132  10.308   4.065   0.931 -0.9617  0.5562  0.4136
12293SOL    HW239133  10.292   3.924   0.985 -1.3923  0.5357  0.2393
12294SOL     OW39134   5.042   7.856   7.023 -0.3414 -0.1264  1.3221
12294SOL    HW139135   5.094   7.916   6.970 -2.4123 -1.0100 -1.9975
12294SOL    HW239136   4.959   7.903   7.038 -1.5341 -1.5926 -0.3227
12295SOL     OW39137   1.844   0.982   0.097 -0.1356 -0.5156 -0.3227
12295SOL    HW139138   1.870   1.002   0.007 -1.2576  0.6624 -0.4159
12295SOL    HW239139   1.836   1.068   0.138  1.2565 -1.0631  1.1886
12296SOL     OW39140   5.034   3.586   3.234 -0.2783  0.3406  0.0464
12296SOL    HW139141   4.943   3.585   3.263 -0.5513  1.0347 -0.7474
12296SOL    HW239142   5.084   3.595   3.315 -0.9421  0.5289  0.4478
12297SOL     OW39143   1.419   0.892   7.992  0.2534  0.6469 -0.2392
12297SOL    HW139144   1.340   0.945   7.992 -0.9557 -1.0306 -2.3113
12297SOL    HW239145   1.388   0.802   7.988  2.2675 -0.1418  0.5328
12298SOL     OW39146   4.339   6.458   3.409  0.1834  0.4364 -0.1907
12298SOL    HW139147   4.271   6.399   3.375 -0.0858 -0.2316  1.4356
12298SOL    HW239148   4.296   6.544   3.414 -0.2335  0.2238 -0.1137
12299SOL     OW39149   6.659   8.310   3.478  0.5796 -0.3004  0.1289
12299SOL    HW139150   6.630   8.241   3.418 -0.7329 -1.0438  1.5090
12299SOL    HW239151   6.582   8.366   3.489  0.3715 -0.8830  1.9896
12300SOL     OW39152   3.744   7.845   5.948  0.2599 -0.4175  0.6554
12300SOL    HW139153   3.797   7.837   6.027  0.2182 -0.7917  0.6466
12300SOL    HW239154   3.667   7.790   5.965  0.7586 -1.3847 -0.0729
12301SOL     OW39155   9.611   7.709   2.678  0.9005  0.1583 -0.3135
12301SOL    HW139156   9.698   7.745   2.695  0.7199  0.8086 -0.7066
12301SOL    HW239157   9.591   7.738   2.589  0.5168 -0.4699 -0.4324
12302SOL     OW39158   3.946   2.131   1.774  0.7221 -0.0426 -0.2020
12302SOL    HW139159   3.950   2.220   1.810  0.7573 -0.4836  0.9347
12302SOL    HW239160   3.893   2.082   1.837  0.4224 -0.7557 -0.9869
12303SOL     OW39161   1.774   7.428   3.880 -0.3124 -0.0326 -0.1571
12303SOL    HW139162   1.793   7.412   3.787 -0.4105  1.3737 -0.4495
12303SOL    HW239163   1.678   7.435   3.883 -0.3825 -1.0250  0.2330
12304SOL     OW39164   9.625   2.578   3.191 -0.3938 -0.5853  0.5563
12304SOL    HW139165   9.606   2.599   3.100 -0.5253  0.1960  0.7634
12304SOL    HW239166   9.574   2.499   3.208  0.6356 -1.5119 -0.4157
12305SOL     OW39167   0.054   8.005   5.547 -0.3213  0.0948  0.0740
12305SOL    HW139168   0.107   7.927   5.563  0.7597  0.9674  0.9003
12305SOL    HW239169   0.086   8.039   5.464 -0.8158 -0.3360 -0.3031
12306SOL     OW39170   3.137   0.519   3.102 -0.2235  0.0282  0.0651
12306SOL    HW139171   3.065   0.551   3.048  1.0708 -0.8373 -2.2951
12306SOL    HW239172   3.103   0.438   3.141 -1.3206  0.8955  1.0183
12307SOL     OW39173   8.011   2.065   4.937  0.2766 -0.1210  0.5289
12307SOL    HW139174   8.101   2.083   4.966 -0.0907  0.2567  1.4997
12307SOL    HW239175   8.019   1.987   4.883  1.2249  0.0433  0.4002
12308SOL     OW39176   2.225   3.604   5.751  0.5091  0.5880 -0.2767
12308SOL    HW139177   2.176   3.556   5.817  0.1405  0.2343 -0.7950
12308SOL    HW239178   2.265   3.677   5.798 -0.8702  1.1410  0.0855
12309SOL     OW39179   8.799   4.188   3.761  0.3993 -0.1565  0.2245
12309SOL    HW139180   8.846   4.253   3.708  0.7688  1.0189  1.8878
12309SOL    HW239181   8.779   4.235   3.842 -0.1335 -1.8839  1.1267
12310SOL     OW39182   2.914   3.241   5.256 -0.2999  0.1316  0.5386
12310SOL    HW139183   2.971   3.249   5.332  1.8117 -1.4723 -0.7698
12310SOL    HW239184   2.922   3.324   5.210 -1.0900  0.8715  1.6942
12311SOL     OW39185  10.292   3.503   4.418 -0.3173  0.2508 -0.1547
12311SOL    HW139186  10.209   3.550   4.413  0.1147  1.1551  0.8056
12311SOL    HW239187  10.351   3.563   4.461  0.2700 -1.1674  1.1158
12312SOL     OW39188   3.014   1.105  10.635 -0.0796  0.1997  0.5408
12312SOL    HW139189   2.970   1.094  10.551 -1.8040 -1.1931  1.5653
12312SOL    HW239190   3.099   1.144  10.612 -0.8925  0.7981 -1.7218
12313SOL     OW39191   1.203   5.027   3.052  0.0301  0.1598 -0.1670
12313SOL    HW139192   1.192   5.028   3.147  0.3884 -1.4811 -0.0951
12313SOL    HW239193   1.269   4.961   3.035 -1.8129 -1.3988 -1.7186
12314SOL     OW39194   2.767   8.252   2.415 -0.1016  0.5920  0.3281
12314SOL    HW139195   2.791   8.343   2.430  0.0070  0.5674  0.3081
12314SOL    HW239196   2.694   8.235   2.475 -0.3573  0.7936  0.0727
12315SOL     OW39197   3.038   6.791   5.624 -0.3063 -0.2743 -0.4534
12315SOL    HW139198   3.002   6.748   5.546 -1.4586  0.7531 -0.5217
12315SOL    HW239199   3.085   6.868   5.590  0.5729 -0.7009 -0.2355
12316SOL     OW39200   3.312   7.417   1.480  0.6649 -0.2990 -0.0882
12316SOL    HW139201   3.297   7.331   1.440 -0.7142  0.2630 -0.8667
12316SOL    HW239202   3.224   7.453   1.492  1.1794  0.6115  1.1399
12317SOL     OW39203   8.547   9.957   5.902  0.2079 -0.2657  0.2669
12317SOL    HW139204   8.468   9.946   5.850 -0.1005  0.7136  0.5047
12317SOL    HW239205   8.528  10.031   5.960  0.8059 -0.8753  1.2726
12318SOL     OW39206   3.435   6.681   5.598 -0.5531  0.6651 -0.5098
12318SOL    HW139207   3.375   6.631   5.542  0.3551  1.2461 -2.0747
12318SOL    HW239208   3.447   6.627   5.675  0.0281 -1.3471 -1.9328
12319SOL     OW39209   9.351   6.092   4.059  0.1640  0.0779 -0.0558
12319SOL    HW139210   9.286   6.118   4.124  0.2261  0.6607 -0.2221
12319SOL    HW239211   9.322   6.133   3.978  0.5168  0.0014 -0.2222
12320SOL     OW39212   7.975   8.419   9.726  0.1486 -0.2214 -0.2866
12320SOL    HW139213   8.069   8.434   9.716  0.2819 -1.0976 -0.3788
12320SOL    HW239214   7.967   8.366   9.805 -0.3736  0.8413  0.3958
12321SOL     OW39215   6.069   5.596   3.811  0.0095  0.2113  1.0563
12321SOL    HW139216   6.055   5.582   3.717  0.3385  0.6698  0.9339
12321SOL    HW239217   6.164   5.588   3.822 -0.0486 -0.0090  1.3785
12322SOL     OW39218   9.518   1.463   2.965 -0.1184 -0.0743 -0.3806
12322SOL    HW139219   9.545   1.457   3.057  0.8511  0.7637 -0.5884
12322SOL    HW239220   9.561   1.389   2.922  1.5935  0.9854 -0.6187
12323SOL     OW39221   9.574   9.039   5.601  0.3426 -0.4745 -0.0175
12323SOL    HW139222   9.596   8.986   5.524  0.1537 -0.9769  0.2733
12323SOL    HW239223   9.567   8.976   5.673  0.7703  0.0208  0.4700
12324SOL     OW39224   4.201   6.358   8.010 -0.8256 -0.0235  0.1132
12324SOL    HW139225   4.109   6.370   7.985 -0.1744  1.3340 -1.9093
12324SOL    HW239226   4.239   6.446   8.005  0.5578 -0.5298  1.0946
12325SOL     OW39227   7.068   5.064   1.057 -0.1546  0.1868 -0.0911
12325SOL    HW139228   7.043   5.099   1.142 -0.9713  0.9308 -0.6138
12325SOL    HW239229   6.985   5.055   1.010  0.2024 -1.0107 -0.5132
12326SOL     OW39230   8.595   7.513   0.305  0.2596 -0.1243 -0.0563
12326SOL    HW139231   8.547   7.447   0.355  1.3753  0.1802  1.4726
12326SOL    HW239232   8.561   7.505   0.216  0.2339 -2.6406  0.1219
12327SOL     OW39233   9.350   4.157   1.227 -0.2845 -0.1443  0.1386
12327SOL    HW139234   9.382   4.104   1.300  0.5917  0.6833  0.3703
12327SOL    HW239235   9.323   4.240   1.266 -1.3957 -0.2916 -0.2620
12328SOL     OW39236   1.005   3.062   2.830  0.4908 -0.1301 -0.2819
12328SOL    HW139237   1.005   2.967   2.834  0.5763 -0.2396 -2.0710
12328SOL    HW239238   1.077   3.084   2.771 -0.7874  0.9155 -1.5219
12329SOL     OW39239   4.554   1.257   1.040  0.3948 -0.0437  0.3477
12329SOL    HW139240   4.513   1.328   1.090 -0.1923 -1.0819  1.3992
12329SOL    HW239241   4.547   1.181   1.097  3.6955 -0.3590  0.5166
12330SOL     OW39242   4.338  10.287   0.449  0.1394 -0.1839 -0.2440
12330SOL    HW139243   4.398  10.360   0.436  0.9359 -0.6815  0.5222
12330SOL    HW239244   4.309  10.295   0.539 -1.3939  0.3529 -0.7513
12331SOL     OW39245   0.662   5.523   3.310  1.0260  0.3291 -0.3873
12331SOL    HW139246   0.585   5.570   3.279  1.1837 -0.4784 -2.1080
12331SOL    HW239247   0.695   5.577   3.383 -1.3806  0.4412  0.7096
12332SOL     OW39248   7.002   8.860   9.449 -0.3433  0.0622 -0.0421
12332SOL    HW139249   6.949   8.856   9.528 -0.7179 -0.9197 -0.3342
12332SOL    HW239250   6.955   8.921   9.392 -0.2925  0.4425  0.3142
12333SOL     OW39251   8.843   4.322  10.166  0.4376  0.6653 -0.0183
12333SOL    HW139252   8.886   4.248  10.209 -0.5224 -0.3712 -0.7809
12333SOL    HW239253   8.889   4.329  10.081 -0.0207  0.3985 -0.2906
12334SOL     OW39254   7.792   4.861  10.506  0.6003  0.3353 -0.0082
12334SOL    HW139255   7.768   4.857  10.599 -0.2042 -0.1692 -0.2265
12334SOL    HW239256   7.823   4.772  10.486 -0.2945  0.1122 -0.4854
12335SOL     OW39257   3.743   3.586   7.194 -0.1114 -0.6777 -0.3603
12335SOL    HW139258   3.782   3.602   7.108  1.3115 -3.1955 -0.2569
12335SOL    HW239259   3.684   3.512   7.180 -0.2822 -0.7567  0.7229
12336SOL     OW39260   0.204  10.423   8.966 -0.0270 -0.0339  0.2239
12336SOL    HW139261   0.205  10.517   8.947  2.0003 -0.0637 -0.0402
12336SOL    HW239262   0.286  10.407   9.014  0.5514 -1.9282 -1.2597
12337SOL     OW39263   3.915   9.402   7.456 -0.3478  0.0178 -0.1170
12337SOL    HW139264   3.907   9.454   7.536 -1.7608 -1.5726  0.8473
12337SOL    HW239265   4.009   9.396   7.440 -0.0889  1.3348  0.7346
12338SOL     OW39266   4.138  10.586   3.259  0.0298  0.0132  0.3134
12338SOL    HW139267   4.055  10.566   3.214  0.4647 -0.0672 -0.4623
12338SOL    HW239268   4.147  10.681   3.252 -0.1293  0.0564  0.6473
12339SOL     OW39269   9.705   8.652  10.620  0.1155 -0.1556  0.2338
12339SOL    HW139270   9.698   8.558  10.641 -0.1979  0.2862  2.4204
12339SOL    HW239271   9.735   8.654  10.530  2.3713 -2.4371  0.7895
12340SOL     OW39272   4.890   1.408   2.328  0.1387 -0.0450  0.5447
12340SOL    HW139273   4.855   1.495   2.345  0.6969 -0.0067  1.5870
12340SOL    HW239274   4.950   1.420   2.254  0.2664  0.4715  0.7291
12341SOL     OW39275   1.190   9.699   6.829  0.3045  0.7137 -0.2785
12341SOL    HW139276   1.271   9.747   6.845  0.7218 -0.3451  0.9199
12341SOL    HW239277   1.215   9.607   6.828 -1.0778  0.2348  1.7905
12342SOL     OW39278   9.520   5.970   2.963  0.0146 -0.9634  0.8720
12342SOL    HW139279   9.545   5.918   2.887 -1.5723  0.6545 -0.8511
12342SOL    HW239280   9.430   5.944   2.982 -0.1503 -0.2017  1.1795
12343SOL     OW39281   0.304   4.197   3.808  0.5228  0.1110 -0.4441
12343SOL    HW139282   0.398   4.195   3.825  0.2689  1.1033  1.3587
12343SOL    HW239283   0.265   4.163   3.889 -0.6627 -1.6237 -1.6843
12344SOL     OW39284   5.732   3.112   8.040  0.2765 -0.1189 -0.1987
12344SOL    HW139285   5.779   3.106   7.957  1.6637  0.3182  0.5219
12344SOL    HW239286   5.771   3.187   8.085  0.5142 -1.1277  1.4032
12345SOL     OW39287   6.904   1.536   9.046  0.1856  0.2165  0.5398
12345SOL    HW139288   6.974   1.583   9.001 -0.5007 -0.4250 -1.2627
12345SOL    HW239289   6.878   1.595   9.117  0.5679  1.7688 -0.5457
12346SOL     OW39290   1.439   2.556   2.550 -0.3716 -0.0438 -0.1607
12346SOL    HW139291   1.535   2.560   2.540 -0.3101  1.3436  0.6736
12346SOL    HW239292   1.409   2.639   2.512 -1.0643  0.3814  1.2721
12347SOL     OW39293   4.732   3.713   9.643 -0.7868  0.0993  0.0471
12347SOL    HW139294   4.782   3.708   9.725 -1.7195  0.6301  0.6639
12347SOL    HW239295   4.708   3.622   9.625  3.3064 -0.8066 -2.1860
12348SOL     OW39296   7.717   7.813   3.384  0.0250 -0.2233  0.5841
12348SOL    HW139297   7.663   7.811   3.306  0.8345  0.5056 -0.0172
12348SOL    HW239298   7.701   7.729   3.428  0.4766 -1.1560 -0.9838
12349SOL     OW39299   8.127   2.908   0.669 -0.4557  0.8668 -0.0387
12349SOL    HW139300   8.051   2.863   0.632 -0.3919  1.3129 -0.7319
12349SOL    HW239301   8.189   2.837   0.688 -1.2263  0.4509  1.0034
12350SOL     OW39302   3.220   2.624   7.431 -0.1040  0.0335  0.2037
12350SOL    HW139303   3.187   2.654   7.347 -0.9524  0.6847  0.7538
12350SOL    HW239304   3.252   2.703   7.475 -1.8812  0.1317  1.4521
12351SOL     OW39305   1.872   2.032   5.806  0.1989  0.5517  0.0740
12351SOL    HW139306   1.878   1.948   5.852  0.2441  1.1158  1.1333
12351SOL    HW239307   1.926   2.091   5.858  1.6592  0.8344 -1.6790
12352SOL     OW39308   6.340   9.276   2.251 -0.1051 -0.3470  0.3207
12352SOL    HW139309   6.355   9.339   2.323  1.8358 -0.8048  0.3870
12352SOL    HW239310   6.268   9.221   2.282 -1.2595  1.2695  0.6402
12353SOL     OW39311  10.502   4.958   9.562 -0.3828 -0.6098 -0.3483
12353SOL    HW139312  10.550   4.913   9.632 -1.7657 -0.4931  0.7144
12353SOL    HW239313  10.569   4.978   9.496  0.5132 -3.0996 -0.2980
12354SOL     OW39314  10.212   8.940   0.447  0.4657 -0.0735 -0.4231
12354SOL    HW139315  10.161   8.861   0.464  1.2247 -0.6243 -0.6392
12354SOL    HW239316  10.229   8.938   0.353 -0.4141  0.9224 -0.6256
12355SOL     OW39317   0.723   9.988  10.460 -0.6875  0.1588 -0.5659
12355SOL    HW139318   0.702   9.895  10.458 -1.1953  0.2524  0.2012
12355SOL    HW239319   0.723  10.011  10.553  0.5233  0.6864 -0.6861
12356SOL     OW39320   0.194   2.637   8.311 -0.2833 -0.2334  0.5611
12356SOL    HW139321   0.254   2.566   8.289  0.3992  0.8133 -1.0786
12356SOL    HW239322   0.235   2.680   8.387 -0.1302 -0.8857  0.8582
12357SOL     OW39323   9.956  10.529   2.325 -0.2322 -0.2326 -0.2469
12357SOL    HW139324   9.915  10.607   2.287 -0.7363 -0.5310 -0.3252
12357SOL    HW239325   9.919  10.523   2.413 -1.0856 -1.0323 -0.6440
12358SOL     OW39326   9.105   5.905   7.686 -0.2013 -0.4277  0.8468
12358SOL    HW139327   9.054   5.936   7.611 -0.6142 -2.9224  0.0039
12358SOL    HW239328   9.068   5.819   7.707  2.2487 -1.3957  1.5799
12359SOL     OW39329   2.848   2.780   8.062 -0.2032  0.0119  0.3180
12359SOL    HW139330   2.861   2.760   8.155  1.5182  1.8565  0.5269
12359SOL    HW239331   2.900   2.714   8.016  0.3069  0.1203  0.7356
12360SOL     OW39332   0.202   5.138   1.049 -0.5997  0.3193  0.2313
12360SOL    HW139333   0.148   5.098   0.981 -0.1141  0.8306 -0.4706
12360SOL    HW239334   0.157   5.117   1.131 -1.0706 -0.4976 -0.2256
12361SOL     OW39335   7.534   7.042   4.012 -0.3015  0.5384 -0.0482
12361SOL    HW139336   7.586   7.120   3.992  0.4110  0.5481  1.6658
12361SOL    HW239337   7.460   7.046   3.951  1.5070  0.6763 -2.3640
12362SOL     OW39338   0.917   0.299   3.977 -0.3933  0.6423 -0.3605
12362SOL    HW139339   0.973   0.351   4.034  0.0377 -0.8274  0.6329
12362SOL    HW239340   0.964   0.215   3.968 -0.4723  0.7927 -2.8630
12363SOL     OW39341   6.789   4.340   3.431 -0.0033  0.4095 -0.2906
12363SOL    HW139342   6.849   4.285   3.483 -1.0133 -0.6952 -0.2491
12363SOL    HW239343   6.834   4.349   3.346  1.3475  1.6706  0.5125
12364SOL     OW39344   0.834   5.499   9.412 -0.0096 -0.3098  0.1246
12364SOL    HW139345   0.925   5.475   9.397  0.6878  2.2889 -0.3150
12364SOL    HW239346   0.818   5.479   9.504  1.5644  0.6943  0.6560
12365SOL     OW39347   0.423   1.748   0.622  0.1099 -0.1624  0.0731
12365SOL    HW139348   0.450   1.824   0.674 -0.4587 -0.7711  1.2951
12365SOL    HW239349   0.350   1.781   0.569  0.6742  0.4577 -0.3352
12366SOL     OW39350   1.386  10.540   1.467 -0.8240 -0.1087 -0.0869
12366SOL    HW139351   1.473  10.580   1.471 -0.2690 -1.3404  1.1734
12366SOL    HW239352   1.390  10.482   1.391 -0.2597 -0.7309  0.4033
12367SOL     OW39353   1.913   3.185   3.810  0.5361 -0.4814  0.2227
12367SOL    HW139354   1.861   3.146   3.740 -0.5384  0.9176  0.2125
12367SOL    HW239355   1.989   3.223   3.766 -0.3794  0.8278 -0.2916
12368SOL     OW39356   4.665   2.519   9.373 -0.2321 -0.4322  0.0564
12368SOL    HW139357   4.679   2.556   9.286 -0.8199  0.6432  0.3978
12368SOL    HW239358   4.752   2.513   9.411 -0.0817  0.1358 -0.1985
12369SOL     OW39359   1.966   5.267   1.715 -0.0240 -0.0287  0.1306
12369SOL    HW139360   1.876   5.237   1.717  0.4913 -1.6348  1.6361
12369SOL    HW239361   2.015   5.192   1.682  0.8836  0.5056  0.2231
12370SOL     OW39362  10.614   9.134   8.024  0.0503 -0.4429  0.9637
12370SOL    HW139363  10.623   9.147   8.119 -0.4759  0.6717  0.8802
12370SOL    HW239364  10.702   9.113   7.994  0.2286 -0.7806  1.6973
12371SOL     OW39365   4.210   2.507   8.301 -0.6183 -0.3391 -0.1688
12371SOL    HW139366   4.202   2.411   8.297 -0.5212 -0.3154 -1.1958
12371SOL    HW239367   4.305   2.522   8.307 -0.6741 -0.3183  0.8363
12372SOL     OW39368   1.687   2.230   7.742  1.1969  0.4645 -0.1308
12372SOL    HW139369   1.754   2.192   7.685  0.6922  0.8182 -0.9950
12372SOL    HW239370   1.732   2.299   7.790  2.5212 -2.0682  2.6065
12373SOL     OW39371   5.619   5.519   4.072 -0.4909  0.1027 -0.1561
12373SOL    HW139372   5.583   5.449   4.017 -0.8420  1.2742 -1.4951
12373SOL    HW239373   5.588   5.600   4.031  2.4410  1.1672 -0.5822
12374SOL     OW39374   5.197   2.436   7.387  0.4656 -0.3699  0.3903
12374SOL    HW139375   5.215   2.362   7.445  1.6652  0.4507  1.1111
12374SOL    HW239376   5.236   2.511   7.431 -0.5624  0.6747 -0.4150
12375SOL     OW39377   0.169   1.048   9.547 -0.4026  0.6911 -0.5881
12375SOL    HW139378   0.099   0.988   9.521 -0.3372 -0.7025  2.0596
12375SOL    HW239379   0.158   1.056   9.642 -1.0855  5.8007 -0.8259
12376SOL     OW39380   8.320   8.655   1.740 -0.1050 -0.2779  0.0237
12376SOL    HW139381   8.310   8.737   1.787 -0.6777  1.2292 -2.5137
12376SOL    HW239382   8.415   8.644   1.730 -0.0493  0.8051 -0.7597
12377SOL     OW39383   2.171   4.356   3.167  0.3571  0.0700  0.1061
12377SOL    HW139384   2.179   4.267   3.133  1.3366  0.5311 -0.9365
12377SOL    HW239385   2.207   4.350   3.256 -0.3661 -0.7399  0.3589
12378SOL     OW39386   5.702   1.678  10.647  0.0629  0.0540 -0.3131
12378SOL    HW139387   5.705   1.675  10.742  0.3992  0.6545 -0.2949
12378SOL    HW239388   5.793   1.686  10.620  0.0150 -0.6931 -0.7134
12379SOL     OW39389   4.668   5.389   6.557 -0.3871 -0.1249  0.5081
12379SOL    HW139390   4.617   5.409   6.636 -1.9109 -0.1414 -0.4224
12379SOL    HW239391   4.737   5.455   6.557  0.7342 -1.1976  2.7469
12380SOL     OW39392   7.320   9.215   0.903 -0.4210 -0.1051 -0.1715
12380SOL    HW139393   7.284   9.131   0.878 -0.0486 -0.7362  1.3060
12380SOL    HW239394   7.261   9.248   0.971 -1.7983  1.8816 -2.1750
12381SOL     OW39395   5.568   5.866   5.831 -0.0368 -0.3397  0.4654
12381SOL    HW139396   5.559   5.795   5.767  0.6843 -0.1276  0.1219
12381SOL    HW239397   5.567   5.822   5.916  0.5236 -0.7702  0.2488
12382SOL     OW39398   2.519   9.163   8.248 -0.1213  0.0482 -0.1659
12382SOL    HW139399   2.599   9.111   8.253  1.1088  1.9212  0.4327
12382SOL    HW239400   2.449   9.099   8.258  1.2821 -1.6234 -0.5308
12383SOL     OW39401   6.431   3.866   9.753 -0.1883 -0.3981  0.2710
12383SOL    HW139402   6.378   3.854   9.832 -2.4407 -0.9327 -1.2340
12383SOL    HW239403   6.372   3.909   9.691  1.3453 -0.4713 -1.3142
12384SOL     OW39404   9.013   0.261   7.407 -0.1443  0.5866 -0.2353
12384SOL    HW139405   8.943   0.325   7.397  0.0273  0.9119  0.5900
12384SOL    HW239406   9.004   0.204   7.330 -1.8640  0.0662  0.3051
12385SOL     OW39407   4.116   9.045   0.035  0.0973 -0.1786  0.2255
12385SOL    HW139408   4.135   8.969  -0.020  0.4697 -0.9085  1.3328
12385SOL    HW239409   4.179   9.111   0.007  0.2980 -0.5455 -0.2056
12386SOL     OW39410   6.201   1.413   5.160 -0.3483  0.0297  0.0730
12386SOL    HW139411   6.157   1.344   5.210  0.9401 -0.0425  1.1609
12386SOL    HW239412   6.278   1.370   5.123 -1.1707  0.1177 -1.9158
12387SOL     OW39413   3.355   4.772   0.029 -0.4465 -0.1941  0.2671
12387SOL    HW139414   3.315   4.842   0.082 -0.4873 -0.1884  0.2292
12387SOL    HW239415   3.441   4.758   0.069 -0.9510 -1.0412  1.1063
12388SOL     OW39416   0.414   5.302   0.892 -0.2166 -0.3165  0.2426
12388SOL    HW139417   0.439   5.255   0.972  2.6357  0.6921  0.0456
12388SOL    HW239418   0.444   5.246   0.821 -2.3090 -0.9723 -0.2211
12389SOL     OW39419   5.248   8.035   1.194 -0.0730  0.1294 -0.3282
12389SOL    HW139420   5.283   7.947   1.205  0.9038  0.5120 -0.3069
12389SOL    HW239421   5.272   8.081   1.274  0.7663  0.8492 -0.9786
12390SOL     OW39422   4.541   8.556   3.783 -0.1867  0.3086  0.2022
12390SOL    HW139423   4.483   8.583   3.712  0.8999  0.2209 -0.7639
12390SOL    HW239424   4.615   8.513   3.739  0.6739  0.5278  1.3566
12391SOL     OW39425   7.044   9.506   2.920  0.2810  0.6239 -0.0283
12391SOL    HW139426   6.964   9.553   2.897  0.2324  1.0510  0.9551
12391SOL    HW239427   7.039   9.495   3.015  0.0898 -1.7634 -0.2507
12392SOL     OW39428   9.354   9.712   0.506 -0.2040 -0.0917  0.1021
12392SOL    HW139429   9.361   9.758   0.422 -1.5269  0.3212  0.2077
12392SOL    HW239430   9.271   9.666   0.502  0.1134 -0.7583  0.8634
12393SOL     OW39431   6.195   0.487   0.874 -0.7276  0.1820  0.1222
12393SOL    HW139432   6.243   0.554   0.923  1.1730 -1.1002  0.0714
12393SOL    HW239433   6.167   0.424   0.941  0.7470 -0.8983 -0.2533
12394SOL     OW39434   0.607   8.165   4.470 -0.9964  0.0249  0.2796
12394SOL    HW139435   0.624   8.230   4.538 -0.4719 -1.0366  1.1815
12394SOL    HW239436   0.513   8.172   4.453 -1.3007 -0.2795  1.7412
12395SOL     OW39437   7.329   4.571   4.793 -0.5418 -0.4747 -0.4626
12395SOL    HW139438   7.270   4.631   4.838  0.8907  1.1873 -0.7161
12395SOL    HW239439   7.273   4.497   4.768 -2.0289  0.0027  1.2211
12396SOL     OW39440   0.135   2.826   3.569 -0.4532 -0.2269  0.0626
12396SOL    HW139441   0.099   2.863   3.650 -1.4208  0.1045 -0.5085
12396SOL    HW239442   0.059   2.814   3.512  0.2171 -0.4849 -0.7937
12397SOL     OW39443   9.647   6.429   8.421 -0.7162 -0.0905 -0.2310
12397SOL    HW139444   9.637   6.334   8.416 -0.0286 -0.1220 -1.3139
12397SOL    HW239445   9.584   6.456   8.488  0.2285 -1.4730  1.3147
12398SOL     OW39446   7.813   0.712  10.307 -0.4232 -0.2481  0.1343
12398SOL    HW139447   7.727   0.692  10.345 -0.6357 -0.1068 -0.2621
12398SOL    HW239448   7.822   0.650  10.235 -0.7952  0.6319 -0.6886
12399SOL     OW39449   5.396   0.127   3.668 -0.5522  0.3921  0.5541
12399SOL    HW139450   5.362   0.043   3.701  0.3689  0.3244  1.3636
12399SOL    HW239451   5.468   0.148   3.726  1.2585  0.2073 -1.4882
12400SOL     OW39452   2.575   3.252   3.393  0.0609  0.0461  0.3415
12400SOL    HW139453   2.599   3.224   3.481 -0.8782  1.1595  0.9659
12400SOL    HW239454   2.630   3.328   3.376 -2.4142  2.2454  1.5436
12401SOL     OW39455   2.383   8.823   8.553 -0.4587 -0.1783 -0.6492
12401SOL    HW139456   2.383   8.919   8.549  1.0846 -0.0547  1.0142
12401SOL    HW239457   2.446   8.802   8.622  0.2808 -2.4449 -1.9313
12402SOL     OW39458   1.969   1.208   7.680 -0.2149 -0.2743 -0.1685
12402SOL    HW139459   1.966   1.127   7.629  0.3083 -0.9608  0.8616
12402SOL    HW239460   1.915   1.269   7.630 -0.6736 -1.2702 -0.9304
12403SOL     OW39461   7.200   1.489   9.927 -0.2699 -0.3771  0.5019
12403SOL    HW139462   7.183   1.395   9.920 -0.1256 -0.4813  1.5110
12403SOL    HW239463   7.295   1.496   9.931 -0.2532 -0.1362 -0.1916
12404SOL     OW39464   3.225   8.297   3.626 -0.2471  0.8403  0.0305
12404SOL    HW139465   3.320   8.292   3.640  0.0405 -2.6731 -2.0414
12404SOL    HW239466   3.188   8.237   3.690 -0.5843 -1.0500 -1.8318
12405SOL     OW39467   7.400   5.494   4.326 -0.3171 -0.2666 -0.3400
12405SOL    HW139468   7.484   5.472   4.284 -0.5413  0.0200 -0.9441
12405SOL    HW239469   7.413   5.471   4.418  0.1425 -1.0232 -0.5843
12406SOL     OW39470  10.314   4.125   6.069 -0.6449  0.0505 -0.0424
12406SOL    HW139471  10.283   4.171   5.991  0.1594  0.3557 -0.1914
12406SOL    HW239472  10.402   4.095   6.045 -1.1717 -1.6224  0.0338
12407SOL     OW39473  10.032   3.669   5.623  0.1903 -0.1169 -0.3628
12407SOL    HW139474   9.961   3.642   5.564  0.7694  0.5864 -1.4225
12407SOL    HW239475  10.085   3.729   5.570  0.5786  0.7680  0.9686
12408SOL     OW39476   8.945   7.687   4.759 -0.4772 -0.5932 -0.2662
12408SOL    HW139477   8.854   7.667   4.781 -0.5336 -0.7050 -0.5824
12408SOL    HW239478   8.962   7.771   4.801 -0.2202 -1.3306  1.1354
12409SOL     OW39479   5.103   8.831   4.590  0.0279  0.2816  0.2366
12409SOL    HW139480   5.062   8.759   4.639 -0.4826  1.2802  1.3129
12409SOL    HW239481   5.187   8.845   4.634  0.9995 -0.8904 -1.1582
12410SOL     OW39482   1.814   7.493   7.751 -0.1103 -0.0143  0.1798
12410SOL    HW139483   1.848   7.562   7.808  0.5579  0.6155 -0.9450
12410SOL    HW239484   1.875   7.420   7.764 -0.5577 -0.2418  1.0345
12411SOL     OW39485   3.779   5.621   8.222 -0.0694 -0.5200 -0.0449
12411SOL    HW139486   3.771   5.700   8.169  1.0730  0.0442  0.5904
12411SOL    HW239487   3.865   5.585   8.200  1.5022  0.9749  2.9806
12412SOL     OW39488   4.998   4.594   3.603 -0.1005  0.0605  0.1476
12412SOL    HW139489   5.094   4.587   3.610 -0.3190 -3.5586  1.2717
12412SOL    HW239490   4.983   4.624   3.513  2.0390  4.1327  0.9204
12413SOL     OW39491   5.007   9.736   0.543 -0.1096  0.8529 -0.1896
12413SOL    HW139492   4.980   9.827   0.533  3.4698  2.0537 -0.2836
12413SOL    HW239493   5.059   9.735   0.623  0.1163 -1.1041 -0.2971
12414SOL     OW39494   3.400   4.341   6.521  0.2294 -0.1679 -0.0959
12414SOL    HW139495   3.369   4.254   6.499 -1.1105  0.3464 -0.3464
12414SOL    HW239496   3.364   4.358   6.608  1.6347 -0.3785  0.5627
12415SOL     OW39497   7.365   3.323   8.833  0.3096  0.0293  0.1126
12415SOL    HW139498   7.434   3.339   8.768  1.4969 -1.1064  1.0336
12415SOL    HW239499   7.286   3.356   8.792  1.5719  2.6243 -0.4728
12416SOL     OW39500   0.654   2.571   0.862 -0.3693  0.2607 -0.8879
12416SOL    HW139501   0.627   2.497   0.917 -0.5802  0.7602 -0.3103
12416SOL    HW239502   0.725   2.536   0.808  0.4374 -0.0158  0.3123
12417SOL     OW39503   7.506   5.198   9.831 -0.0928  0.2869 -0.5051
12417SOL    HW139504   7.519   5.268   9.896  0.9238  0.2363 -0.6432
12417SOL    HW239505   7.592   5.184   9.793 -0.6136  0.0879 -1.6570
12418SOL     OW39506   4.792   7.031   0.467  0.6409 -0.0868  0.1883
12418SOL    HW139507   4.731   7.058   0.535  0.8542 -2.7625  1.5742
12418SOL    HW239508   4.873   7.077   0.488  0.4043 -0.0781  1.1308
12419SOL     OW39509   4.191   6.401   7.323 -0.1885 -0.0801  0.0793
12419SOL    HW139510   4.263   6.360   7.275 -1.4692 -0.9849 -1.1321
12419SOL    HW239511   4.194   6.493   7.297  0.6012 -0.0842  0.1388
12420SOL     OW39512   1.175   0.835   8.282 -0.2230  0.2770  0.3475
12420SOL    HW139513   1.262   0.843   8.322  0.3044  2.1270 -1.0204
12420SOL    HW239514   1.143   0.925   8.276 -2.0769 -0.3348  0.4357
12421SOL     OW39515   3.018   2.223   4.829  0.3254 -0.0695 -0.0063
12421SOL    HW139516   2.966   2.255   4.755  0.0303  0.7410  0.5409
12421SOL    HW239517   3.108   2.245   4.806  0.0569  1.9880  0.7360
12422SOL     OW39518   2.032   0.538   1.063  0.1493  0.8229  0.2917
12422SOL    HW139519   2.127   0.524   1.060 -0.0919 -0.8607 -0.5959
12422SOL    HW239520   2.008   0.519   1.154  0.4339 -0.5759  0.0941
12423SOL     OW39521   0.036   3.283   8.902  0.2315 -0.0959 -0.0450
12423SOL    HW139522  -0.022   3.235   8.960  0.0377 -1.4247 -1.2888
12423SOL    HW239523   0.118   3.233   8.903  0.6806  0.6308  0.1258
12424SOL     OW39524   7.122   5.147   5.248 -0.0028  0.0607  0.1104
12424SOL    HW139525   7.189   5.215   5.250  0.3149 -0.2450 -0.0303
12424SOL    HW239526   7.127   5.110   5.160  0.9632 -1.2508  0.6758
12425SOL     OW39527  10.178   9.496   3.010 -0.2558 -0.0994  0.2592
12425SOL    HW139528  10.095   9.449   3.018 -1.5657  1.8976 -0.8266
12425SOL    HW239529  10.176   9.560   3.081  0.6850 -0.4750  0.6362
12426SOL     OW39530  10.276   3.387   5.846  0.1187 -0.1090 -0.0604
12426SOL    HW139531  10.250   3.460   5.901 -0.5834  0.0609 -0.6117
12426SOL    HW239532  10.265   3.310   5.901 -0.3629  0.0809  0.1110
12427SOL     OW39533   2.254   5.281  10.508  0.3471  0.1544 -0.1656
12427SOL    HW139534   2.283   5.329  10.430  4.0377  1.1641  1.5620
12427SOL    HW239535   2.253   5.190  10.481  0.6403  0.5653 -1.6460
12428SOL     OW39536   3.183   7.867   6.871  0.1523 -0.0270  0.4053
12428SOL    HW139537   3.141   7.805   6.930  0.6469 -0.7096  0.0609
12428SOL    HW239538   3.270   7.881   6.909  0.6314 -0.7999 -0.3689
12429SOL     OW39539   7.043  10.626   3.860  0.4331  0.2061 -0.1325
12429SOL    HW139540   7.060  10.670   3.777  1.0859  1.6937  0.7572
12429SOL    HW239541   7.124  10.577   3.877  0.1249 -0.4794 -0.5748
12430SOL     OW39542   3.852   4.569   3.768  0.4735  0.4950  0.4289
12430SOL    HW139543   3.810   4.655   3.776  1.5278  0.9400  1.6480
12430SOL    HW239544   3.858   4.537   3.859  3.1229  0.6751  0.4006
12431SOL     OW39545   6.840   4.676   6.592  0.3693 -0.3392 -0.6072
12431SOL    HW139546   6.873   4.763   6.614 -1.1037  0.0029  0.3804
12431SOL    HW239547   6.765   4.663   6.650 -1.3642 -0.9885 -2.8503
12432SOL     OW39548   9.111   3.902   9.314 -0.1710 -0.2598  0.0351
12432SOL    HW139549   9.137   3.944   9.396  2.3732  1.0422 -1.3424
12432SOL    HW239550   9.034   3.950   9.286  1.3068  2.0426 -0.3164
12433SOL     OW39551   6.679  10.642   4.467 -0.1606  0.8108  0.0230
12433SOL    HW139552   6.658  10.650   4.374 -0.3501  1.4792  0.1222
12433SOL    HW239553   6.612  10.582   4.501 -0.8189  1.4903 -0.0382
12434SOL     OW39554   6.487   4.670   0.713 -0.6013  0.1496 -0.0186
12434SOL    HW139555   6.413   4.721   0.681 -0.9284 -0.2446  0.1096
12434SOL    HW239556   6.515   4.617   0.639 -0.1631  0.6182 -0.1973
12435SOL     OW39557   8.035   8.725   4.894 -0.3460  0.4899  0.0496
12435SOL    HW139558   8.058   8.753   4.806  0.1260 -0.0450 -0.0033
12435SOL    HW239559   8.119   8.701   4.934 -0.5722  0.5849  0.5925
12436SOL     OW39560   8.505   4.423   4.309  0.2939 -0.3027 -0.6387
12436SOL    HW139561   8.511   4.414   4.214  2.2251 -1.0373 -0.4919
12436SOL    HW239562   8.532   4.514   4.326 -0.2530 -0.1073 -0.7925
12437SOL     OW39563   2.273   0.462  10.581  0.8560  0.3771  0.0714
12437SOL    HW139564   2.253   0.451  10.674  2.8564 -0.2452  0.4816
12437SOL    HW239565   2.207   0.411  10.535 -1.1975  2.0371  1.0154
12438SOL     OW39566   6.642   6.152   5.784 -0.2690  0.4187 -0.1185
12438SOL    HW139567   6.697   6.122   5.857 -0.2340 -0.9892 -0.7031
12438SOL    HW239568   6.695   6.217   5.738 -0.1010  0.9520  0.7973
12439SOL     OW39569   7.356   9.116  10.055  0.2882  0.3135 -0.1596
12439SOL    HW139570   7.330   9.207  10.039 -1.7036 -0.7200 -3.8599
12439SOL    HW239571   7.441   9.108  10.013  0.1746  0.3182 -0.3926
12440SOL     OW39572   1.446   9.867   5.930 -0.0750  0.6400  0.5408
12440SOL    HW139573   1.515   9.803   5.941 -1.2054 -1.2995 -2.4049
12440SOL    HW239574   1.490   9.945   5.896  0.8226 -0.1401 -0.1058
12441SOL     OW39575   6.511   3.836   9.095  0.2519  0.4521 -0.3845
12441SOL    HW139576   6.528   3.753   9.050  1.8338 -0.1737  1.2392
12441SOL    HW239577   6.500   3.811   9.187  2.6462  2.1713  0.4760
12442SOL     OW39578   3.504   4.602   4.704 -0.2067 -0.1410 -0.5462
12442SOL    HW139579   3.509   4.663   4.631 -1.3361  0.7247  0.0585
12442SOL    HW239580   3.423   4.626   4.750  0.3007 -0.8616  0.7989
12443SOL     OW39581   3.020   9.292   1.475  0.3157 -0.1172  0.5409
12443SOL    HW139582   2.978   9.210   1.500 -2.0449  0.3158 -1.5081
12443SOL    HW239583   2.994   9.354   1.543  1.7452 -0.9079  1.8568
12444SOL     OW39584   9.186  10.503   4.419 -0.2446  0.8781 -0.3258
12444SOL    HW139585   9.176  10.411   4.445  0.3220  1.3643  1.7394
12444SOL    HW239586   9.133  10.511   4.339 -0.1536 -1.2731 -0.6588
12445SOL     OW39587   5.568   8.449   9.716  1.1705 -0.7247 -0.1070
12445SOL    HW139588   5.628   8.524   9.720  1.3169 -0.8610  0.3597
12445SOL    HW239589   5.523   8.459   9.632  1.6052 -0.4319 -0.3117
12446SOL     OW39590  10.021   4.542   5.496 -0.2244  0.2029  0.0589
12446SOL    HW139591  10.033   4.447   5.501  0.6406  0.2227 -1.1844
12446SOL    HW239592  10.108   4.577   5.517 -0.9256  0.8198  2.2031
12447SOL     OW39593  10.451   5.983   4.131 -0.3894 -0.0916  0.4064
12447SOL    HW139594  10.393   5.907   4.125 -0.3110 -0.1525  0.4263
12447SOL    HW239595  10.528   5.951   4.177  0.4856 -0.5077 -1.2540
12448SOL     OW39596   3.208   5.962   0.618  0.3593 -0.1364  0.5282
12448SOL    HW139597   3.196   5.953   0.712  1.7860  1.3322  0.9088
12448SOL    HW239598   3.164   6.044   0.596 -0.7248 -0.9108 -0.2659
12449SOL     OW39599   7.788   5.815   5.812  0.1168  0.1034  0.3632
12449SOL    HW139600   7.767   5.845   5.901 -0.1837 -0.1655  0.3868
12449SOL    HW239601   7.857   5.874   5.782  1.4080 -0.8109  1.4079
12450SOL     OW39602   1.825   0.379   2.533  0.1675 -0.2414  0.8718
12450SOL    HW139603   1.886   0.414   2.598  0.3878 -0.1173  0.6022
12450SOL    HW239604   1.876   0.312   2.487 -0.0823 -0.5368  1.0265
12451SOL     OW39605   7.195   4.640  10.155 -0.3226  0.0580  0.1585
12451SOL    HW139606   7.117   4.665  10.206  0.3969 -1.2263  2.0104
12451SOL    HW239607   7.261   4.703  10.181  0.1311 -0.7776  1.1233
12452SOL     OW39608   5.988   9.907   8.388  0.3304  0.1635 -0.1201
12452SOL    HW139609   6.007   9.860   8.307  1.0623 -0.1799  0.2371
12452SOL    HW239610   6.022   9.996   8.373  0.4982  0.0900 -0.1818
12453SOL     OW39611   0.615   3.459   0.876 -0.3134  0.5038 -0.2461
12453SOL    HW139612   0.698   3.416   0.894 -0.8247 -0.1270  0.6870
12453SOL    HW239613   0.625   3.547   0.913 -0.5925 -0.0801  1.2782
12454SOL     OW39614   4.228   2.552   4.603 -0.0761 -0.2423 -0.5681
12454SOL    HW139615   4.229   2.458   4.587  0.3468 -0.3436  0.0108
12454SOL    HW239616   4.172   2.588   4.534  0.0012 -0.8814 -0.9700
12455SOL     OW39617   1.655   5.641   6.238 -0.0234  0.1203 -0.0820
12455SOL    HW139618   1.722   5.581   6.204  0.8906  0.0382  1.7343
12455SOL    HW239619   1.578   5.586   6.250 -0.6270  0.3094 -2.6198
12456SOL     OW39620   8.338   8.748   0.920  0.6814  0.3159  0.3784
12456SOL    HW139621   8.384   8.830   0.938  0.0663  0.6911  0.2943
12456SOL    HW239622   8.245   8.772   0.925  0.4831 -0.5471  1.1798
12457SOL     OW39623   9.367   3.938   3.041 -0.9976  0.0726  0.3544
12457SOL    HW139624   9.299   3.903   2.984  1.1628 -1.6411 -1.3494
12457SOL    HW239625   9.423   3.864   3.061 -0.0235  1.2504  2.3890
12458SOL     OW39626   9.613   7.636   9.433  0.2545 -0.2970 -0.0027
12458SOL    HW139627   9.579   7.552   9.462 -1.8029  0.6930  0.6957
12458SOL    HW239628   9.576   7.649   9.346 -1.7768  1.0212  0.9675
12459SOL     OW39629   4.331   4.379   2.461  0.2008  0.0342 -0.1125
12459SOL    HW139630   4.348   4.382   2.367  2.4396 -4.0777 -0.0807
12459SOL    HW239631   4.415   4.403   2.501  0.5791 -2.2188  0.6089
12460SOL     OW39632   7.730   6.722   4.776  0.0785  0.4168 -0.0569
12460SOL    HW139633   7.707   6.671   4.854 -0.3371 -0.6009 -0.8277
12460SOL    HW239634   7.800   6.672   4.734 -1.5325 -0.5218 -1.7770
12461SOL     OW39635   5.402  10.424   0.638 -0.2615 -0.3969 -0.0234
12461SOL    HW139636   5.407  10.381   0.553  1.1794 -0.9780  0.3330
12461SOL    HW239637   5.308  10.425   0.659 -0.5890 -0.6616 -1.3895
12462SOL     OW39638   4.659   7.149   0.111 -0.1265  0.3676  0.6648
12462SOL    HW139639   4.697   7.213   0.051 -1.1185 -0.9072 -1.4304
12462SOL    HW239640   4.569   7.178   0.124 -1.2186 -1.5037 -1.8816
12463SOL     OW39641   9.252   3.380   6.867 -0.1411  0.3416  0.3127
12463SOL    HW139642   9.230   3.311   6.930  0.2551  0.0728  0.1615
12463SOL    HW239643   9.240   3.461   6.916 -0.5081  0.1652  0.5251
12464SOL     OW39644   7.267  10.397   4.759  0.4939 -0.8430  0.3757
12464SOL    HW139645   7.230  10.472   4.806  1.4289 -0.0723 -0.0759
12464SOL    HW239646   7.223  10.397   4.674 -0.7030 -1.8265  0.9617
12465SOL     OW39647   7.568   4.265   7.913 -0.3919 -0.0249 -0.2066
12465SOL    HW139648   7.485   4.306   7.935 -0.7013 -0.7013 -0.0709
12465SOL    HW239649   7.615   4.259   7.996 -0.6557 -0.6102 -0.0960
12466SOL     OW39650   4.345   2.167   7.463 -0.6891 -0.0505  0.2684
12466SOL    HW139651   4.423   2.169   7.518 -0.8380 -1.8951  0.6034
12466SOL    HW239652   4.323   2.074   7.455 -1.5163  0.2524 -1.7198
12467SOL     OW39653   3.861  10.462   5.429  0.5846 -0.5010  0.7695
12467SOL    HW139654   3.835  10.550   5.400 -0.0736  0.4232  3.8251
12467SOL    HW239655   3.904  10.424   5.353 -2.8089  0.8103 -2.1028
12468SOL     OW39656   9.853  10.423  10.104  0.1358 -0.2292 -0.5070
12468SOL    HW139657   9.881  10.353  10.163  1.3458  0.8310  0.2492
12468SOL    HW239658   9.848  10.382  10.018 -1.4258 -1.7649  0.2576
12469SOL     OW39659   2.082   9.566   3.243  0.2232  0.1610  0.0318
12469SOL    HW139660   2.056   9.487   3.290 -0.9191 -0.2454 -1.2043
12469SOL    HW239661   2.000   9.598   3.204  0.6362  2.0281  0.5914
12470SOL     OW39662   6.321   1.719   1.053 -0.0576 -0.6263  0.0511
12470SOL    HW139663   6.363   1.652   0.999  0.4677  0.1986 -0.5771
12470SOL    HW239664   6.230   1.719   1.023 -0.0630 -1.0512  0.0542
12471SOL     OW39665   3.268   2.100   3.377 -0.2633 -0.8365 -0.8664
12471SOL    HW139666   3.267   2.103   3.472 -0.4503 -1.5850 -0.8333
12471SOL    HW239667   3.177   2.081   3.353  0.0764 -2.3314 -1.1036
12472SOL     OW39668   6.633   9.701   3.137  0.0564 -0.0336  0.0575
12472SOL    HW139669   6.573   9.695   3.063 -1.1440 -2.1467  1.0783
12472SOL    HW239670   6.692   9.773   3.116 -1.5619  0.7849 -1.9501
12473SOL     OW39671   6.837   5.037   7.391  0.6646  0.5007 -0.1327
12473SOL    HW139672   6.766   5.089   7.427  0.1393  0.6278 -1.3109
12473SOL    HW239673   6.915   5.065   7.440  0.0648  1.0028  0.5488
12474SOL     OW39674   9.001   7.225   3.157  0.6164  0.2626 -0.1206
12474SOL    HW139675   8.960   7.200   3.240  3.3879 -1.4776  0.8781
12474SOL    HW239676   8.954   7.175   3.090 -1.4525  1.4529  0.3550
12475SOL     OW39677   0.288   8.318   0.484  0.0414 -0.4586  0.2371
12475SOL    HW139678   0.350   8.389   0.467 -0.2355  0.3183  2.2132
12475SOL    HW239679   0.237   8.310   0.403  0.8157  0.8333 -0.4000
12476SOL     OW39680  10.217   8.665   7.057  0.4341 -0.0679 -0.3545
12476SOL    HW139681  10.126   8.666   7.087  0.3038  0.2386 -0.7417
12476SOL    HW239682  10.265   8.620   7.126 -0.1269 -0.8627 -0.4738
12477SOL     OW39683   8.052   1.516   9.105 -0.2423 -0.2406  0.1273
12477SOL    HW139684   8.032   1.486   9.194  2.2537  0.5155  1.0176
12477SOL    HW239685   8.029   1.609   9.105  0.6040 -0.0238  0.2929
12478SOL     OW39686   1.767   7.830   5.304  0.5962  0.1551  0.4408
12478SOL    HW139687   1.762   7.859   5.395 -0.8207  1.8027 -0.1171
12478SOL    HW239688   1.840   7.879   5.267 -0.1964  1.1467  0.1548
12479SOL     OW39689   0.448   9.905   2.422  0.5876  0.1949 -0.1048
12479SOL    HW139690   0.380   9.949   2.473  1.6218  0.5010  1.0288
12479SOL    HW239691   0.509   9.870   2.486  1.5381 -0.0444 -1.1010
12480SOL     OW39692   4.342   4.445   5.178 -0.0891 -0.0125  0.3165
12480SOL    HW139693   4.380   4.532   5.163  4.0658 -1.7348 -0.3153
12480SOL    HW239694   4.346   4.432   5.272 -0.5971  0.3681  0.3983
12481SOL     OW39695  10.567   4.665   4.866 -0.0177 -0.5398 -0.7961
12481SOL    HW139696  10.543   4.746   4.819  0.3808 -0.6332 -1.1596
12481SOL    HW239697  10.662   4.659   4.856  0.0465 -0.6624 -0.1330
12482SOL     OW39698   1.868   5.126   8.792  0.3647 -0.1284  0.1703
12482SOL    HW139699   1.913   5.121   8.876  2.7437 -1.6850 -1.0771
12482SOL    HW239700   1.836   5.037   8.776  1.3218 -0.2622 -1.2185
12483SOL     OW39701   9.528   0.819   6.542  0.3327  0.0311  0.1660
12483SOL    HW139702   9.523   0.743   6.599  0.7150 -1.0178 -1.1348
12483SOL    HW239703   9.602   0.870   6.575 -0.0703 -0.0365  1.1909
12484SOL     OW39704   3.385   3.150   5.905  0.1957 -0.3744 -0.5816
12484SOL    HW139705   3.297   3.145   5.868  0.6680  1.3896 -2.1005
12484SOL    HW239706   3.409   3.059   5.923 -1.8706 -0.8873 -0.2532
12485SOL     OW39707   4.576   9.805   1.957  0.4398 -0.0502 -0.0867
12485SOL    HW139708   4.615   9.875   1.904  0.3694 -0.0402 -0.1249
12485SOL    HW239709   4.564   9.733   1.896 -2.7552  1.0429 -0.9204
12486SOL     OW39710   2.898   4.910   0.240  0.0455  0.6504  0.4824
12486SOL    HW139711   2.818   4.955   0.267 -1.4209 -1.0560 -0.8457
12486SOL    HW239712   2.891   4.903   0.145  2.3865  1.5043  0.1689
12487SOL     OW39713   1.245   2.199   1.476  0.0117 -0.5984 -0.5152
12487SOL    HW139714   1.302   2.138   1.429  0.3548 -0.6522 -0.0368
12487SOL    HW239715   1.212   2.147   1.550 -0.0513 -0.3410 -0.3626
12488SOL     OW39716   2.861   8.311   9.695  0.0612  0.7031 -0.0771
12488SOL    HW139717   2.909   8.249   9.639  0.5414 -0.9663  2.0284
12488SOL    HW239718   2.871   8.395   9.651  3.5176  0.1600 -0.6511
12489SOL     OW39719   9.666   5.712   3.792 -0.7423 -0.9661 -0.5987
12489SOL    HW139720   9.592   5.758   3.754 -0.4628 -1.0094 -1.2067
12489SOL    HW239721   9.630   5.667   3.869 -0.5938  2.1530  1.4776
12490SOL     OW39722   2.980   2.172  10.035 -0.3574  0.6413 -0.6946
12490SOL    HW139723   2.899   2.157  10.084  0.7098 -1.0248  0.6775
12490SOL    HW239724   2.963   2.138   9.948 -1.3097  0.8548 -0.5977
12491SOL     OW39725   4.236   8.782   0.915  0.5719 -0.2811 -0.1323
12491SOL    HW139726   4.220   8.690   0.939  2.3135 -0.8201 -0.8667
12491SOL    HW239727   4.193   8.792   0.830  1.8763 -0.9819 -0.9105
12492SOL     OW39728   3.496   3.613   3.544 -0.0512  0.3193 -0.3963
12492SOL    HW139729   3.442   3.535   3.562  0.1643  0.2889  0.1364
12492SOL    HW239730   3.476   3.635   3.453  0.4022 -0.7728 -0.7814
12493SOL     OW39731  10.125   6.989   6.617  0.0122 -0.2306 -0.5207
12493SOL    HW139732  10.052   6.966   6.674 -0.3062 -1.3753 -1.3504
12493SOL    HW239733  10.117   7.084   6.605 -0.2175 -0.0541  0.8945
12494SOL     OW39734   7.290  10.057   5.586 -0.3819 -0.5225  0.0916
12494SOL    HW139735   7.199  10.081   5.603 -0.2572 -0.3073  0.4839
12494SOL    HW239736   7.288   9.962   5.574 -0.4024 -0.7997  2.0044
12495SOL     OW39737   1.450   8.116   5.577 -0.2279 -0.1800 -0.1689
12495SOL    HW139738   1.379   8.057   5.603 -1.0440  0.4611 -0.8774
12495SOL    HW239739   1.406   8.199   5.557  0.7241  0.2248 -0.6569
12496SOL     OW39740   7.818   2.195   5.113 -0.3789 -0.1001 -0.5685
12496SOL    HW139741   7.757   2.235   5.052 -0.0696 -0.4297 -1.0994
12496SOL    HW239742   7.877   2.143   5.058  0.4794  0.3334 -0.0771
12497SOL     OW39743   9.361   2.467   9.427  0.0423 -0.2619  0.0845
12497SOL    HW139744   9.319   2.384   9.405 -1.3510  0.2115  0.8661
12497SOL    HW239745   9.331   2.528   9.360  1.0772 -0.3647 -0.4995
12498SOL     OW39746   6.358   8.806   7.414 -0.2795  0.2585  0.2026
12498SOL    HW139747   6.294   8.859   7.367 -0.5402 -0.0186  0.2417
12498SOL    HW239748   6.305   8.744   7.465  0.0281 -0.1768 -0.0045
12499SOL     OW39749   0.994   2.677   3.695 -0.3270 -0.6415 -0.3121
12499SOL    HW139750   0.975   2.714   3.781  1.1858 -0.3881 -0.0601
12499SOL    HW239751   0.909   2.668   3.654 -0.9104  1.5930  0.2593
12500SOL     OW39752   7.739   7.606   4.187 -0.5719 -0.2972 -0.3895
12500SOL    HW139753   7.745   7.637   4.277 -0.7573 -1.0878 -0.0984
12500SOL    HW239754   7.651   7.570   4.180  0.0314 -1.8725 -0.3375
12501SOL     OW39755   2.908   4.934   2.342 -0.2489 -0.0737 -0.1992
12501SOL    HW139756   2.924   4.964   2.431  0.8722 -0.5336 -0.2222
12501SOL    HW239757   2.929   5.010   2.287 -1.8716  0.5178 -0.0468
12502SOL     OW39758   6.467   6.162   2.480 -0.1783  0.6302 -0.0924
12502SOL    HW139759   6.438   6.219   2.409 -2.9365  0.3088  0.6544
12502SOL    HW239760   6.526   6.100   2.437 -0.2477  1.6000 -1.7086
12503SOL     OW39761   9.482   2.370   5.685 -0.2484 -0.2738  0.1897
12503SOL    HW139762   9.530   2.441   5.727 -0.2477 -1.2300  1.8924
12503SOL    HW239763   9.509   2.373   5.594  0.5123  1.2664  0.4362
12504SOL     OW39764   7.051   3.715   9.667  0.7877 -0.2704  0.2884
12504SOL    HW139765   7.127   3.657   9.659  1.2815  0.5456 -1.8283
12504SOL    HW239766   6.993   3.686   9.597  1.6110  2.4631 -1.7071
12505SOL     OW39767   2.730   7.472   2.733  0.0741 -0.8720 -0.1089
12505SOL    HW139768   2.719   7.447   2.825 -2.8497 -0.7662 -0.3402
12505SOL    HW239769   2.720   7.568   2.733 -0.0133 -0.8801 -0.5555
12506SOL     OW39770   2.196   2.816   3.993  0.2676 -0.4586 -0.3130
12506SOL    HW139771   2.245   2.858   3.923  0.4062  1.1087  0.6733
12506SOL    HW239772   2.107   2.850   3.983  0.5395  0.6701  0.9289
12507SOL     OW39773  10.653   7.404   8.855  0.2017 -0.2402 -0.1429
12507SOL    HW139774  10.720   7.471   8.844  1.6538 -1.9644 -2.9958
12507SOL    HW239775  10.676   7.361   8.938  1.7072  0.1967 -0.3107
12508SOL     OW39776   3.641   9.992   6.635 -0.4651 -0.2846 -0.1584
12508SOL    HW139777   3.627   9.900   6.610 -0.7221 -0.1779 -0.4169
12508SOL    HW239778   3.723  10.016   6.592  1.3797 -1.3354  2.5302
12509SOL     OW39779   9.764   9.444   1.818 -0.1389  0.1615  0.1801
12509SOL    HW139780   9.853   9.471   1.839 -0.1034 -1.8565  3.3250
12509SOL    HW239781   9.713   9.525   1.820  1.2971  1.0851  0.3786
12510SOL     OW39782   1.017   3.252   9.443  0.0062 -0.1073  0.0171
12510SOL    HW139783   1.062   3.218   9.365 -0.4136 -1.2707  0.2531
12510SOL    HW239784   0.926   3.263   9.415 -0.0302  0.0123  0.1835
12511SOL     OW39785  10.064   8.469   8.321 -0.3181 -0.4393 -0.5577
12511SOL    HW139786  10.001   8.398   8.313  0.9018 -1.6404  0.1250
12511SOL    HW239787  10.057   8.498   8.412 -0.5489  0.0821 -0.7355
12512SOL     OW39788   1.539   9.263   9.025  0.5590 -0.5888 -0.1210
12512SOL    HW139789   1.530   9.331   9.092 -1.5614 -0.1765 -0.7603
12512SOL    HW239790   1.503   9.184   9.066 -0.2343 -0.4663 -0.5604
12513SOL     OW39791   6.915   9.243   5.326 -0.3775 -0.6255 -0.3164
12513SOL    HW139792   6.877   9.323   5.363 -0.3498 -0.6283 -0.2811
12513SOL    HW239793   6.990   9.275   5.275 -0.3970 -0.6236 -0.3436
12514SOL     OW39794   1.553   9.265   1.385 -0.2063  0.5157 -0.0586
12514SOL    HW139795   1.491   9.290   1.317  1.1046 -0.1432 -1.5606
12514SOL    HW239796   1.564   9.171   1.375 -0.4968  0.2860  1.5333
12515SOL     OW39797   8.393   6.728  10.510 -0.1961  0.5207 -0.0485
12515SOL    HW139798   8.367   6.821  10.513 -0.2505  0.4815  1.9011
12515SOL    HW239799   8.462   6.725  10.444 -0.8477  1.7661 -0.8358
12516SOL     OW39800   7.852   7.182   8.312 -0.3280  0.0646 -0.5390
12516SOL    HW139801   7.773   7.218   8.273  0.1056 -0.3879 -1.8783
12516SOL    HW239802   7.915   7.177   8.240  0.0901 -2.0140 -0.0779
12517SOL     OW39803   6.701   3.859   9.657 -0.1949  0.5938  0.5323
12517SOL    HW139804   6.611   3.847   9.688 -0.2252  0.1798  0.2888
12517SOL    HW239805   6.735   3.770   9.646 -0.0906  0.7347 -0.3394
12518SOL     OW39806   5.123   0.996   7.507 -0.1775  0.3799 -0.0161
12518SOL    HW139807   5.172   0.955   7.436 -0.9557  0.5513 -0.6682
12518SOL    HW239808   5.031   0.977   7.487 -0.4067  0.4675  0.9236
12519SOL     OW39809   9.144   8.783   8.699  0.5020  0.8092  0.1535
12519SOL    HW139810   9.100   8.700   8.681 -0.3003  1.2175  0.2096
12519SOL    HW239811   9.224   8.780   8.646  0.8895 -0.3425  0.7745
12520SOL     OW39812   8.221   2.871   5.334  0.1741  0.7689  0.1125
12520SOL    HW139813   8.138   2.863   5.381  1.1181  0.5244  1.8184
12520SOL    HW239814   8.230   2.965   5.319 -0.5109  0.7787 -0.2840
12521SOL     OW39815   9.548   3.383   1.024 -0.1500  0.4314  0.2700
12521SOL    HW139816   9.489   3.358   0.953 -0.7073 -0.8728  1.1410
12521SOL    HW239817   9.594   3.302   1.047  0.7904  1.0600  0.7127
12522SOL     OW39818   5.338   5.981   4.017  0.0796 -0.5183 -0.6349
12522SOL    HW139819   5.350   6.023   3.931  1.2157 -0.3573 -0.4053
12522SOL    HW239820   5.256   5.932   4.008 -0.2187  0.1212 -1.5629
12523SOL     OW39821  10.427   5.187   5.755 -0.0089  0.1078 -0.4113
12523SOL    HW139822  10.505   5.153   5.713 -0.1552 -0.7760  0.0181
12523SOL    HW239823  10.358   5.178   5.689 -0.4858 -2.2957  0.2971
12524SOL     OW39824   3.235   5.099   6.529 -0.2020  0.2464  0.0930
12524SOL    HW139825   3.173   5.148   6.476 -0.6252  2.0256  2.0954
12524SOL    HW239826   3.182   5.034   6.575  0.1412 -1.1875 -1.4354
12525SOL     OW39827   9.106   7.662   7.089 -0.1179 -0.3836  0.1066
12525SOL    HW139828   9.061   7.690   7.169  0.9621 -1.3820  1.1168
12525SOL    HW239829   9.178   7.724   7.080  0.2820 -0.7929  0.4284
12526SOL     OW39830   3.230   8.119   0.215  0.1458  0.2111  0.0429
12526SOL    HW139831   3.213   8.064   0.291 -0.6579 -0.2393 -0.4463
12526SOL    HW239832   3.149   8.117   0.165  0.5708  0.7197 -0.6954
12527SOL     OW39833   8.310   2.443   1.214 -0.1001  0.1231 -0.1338
12527SOL    HW139834   8.234   2.428   1.270 -0.5993  1.4028 -0.4568
12527SOL    HW239835   8.298   2.381   1.142 -1.1357  0.7006 -0.4735
12528SOL     OW39836   2.472   2.361   5.934  0.0877 -0.2015 -0.0138
12528SOL    HW139837   2.499   2.433   5.991  0.6201 -0.9023  0.6431
12528SOL    HW239838   2.377   2.372   5.926 -0.2948 -1.0405  2.4493
12529SOL     OW39839   0.405   7.396   1.786 -0.2989 -0.4861 -0.0306
12529SOL    HW139840   0.330   7.336   1.788 -1.1654  0.5727  1.1419
12529SOL    HW239841   0.371   7.474   1.741  1.1008 -1.1781 -2.4468
12530SOL     OW39842   7.770   8.774   3.474 -0.5691 -0.0106  0.5301
12530SOL    HW139843   7.816   8.725   3.406 -1.0236  0.2123  0.0491
12530SOL    HW239844   7.840   8.812   3.528 -0.2058 -0.3723  0.3205
12531SOL     OW39845   5.189   1.000   9.457  0.0003 -0.0745 -0.3246
12531SOL    HW139846   5.096   0.978   9.452  0.4629 -2.1038 -0.8735
12531SOL    HW239847   5.202   1.067   9.390 -0.7283 -1.1516 -1.5922
12532SOL     OW39848   7.185   8.152   3.437 -0.0993 -0.2164 -0.7794
12532SOL    HW139849   7.230   8.110   3.510  0.2421  0.0209 -0.8518
12532SOL    HW239850   7.244   8.222   3.410 -0.8612  0.6110 -0.3633
12533SOL     OW39851  10.452   6.922   1.879 -0.7350 -0.2013 -0.0577
12533SOL    HW139852  10.504   7.001   1.895 -1.0267  0.3512 -1.6287
12533SOL    HW239853  10.392   6.917   1.954  1.3648 -0.7434  1.6939
12534SOL     OW39854   5.413   4.263   7.516  0.2195  0.2490  0.1275
12534SOL    HW139855   5.323   4.287   7.538  0.4859  1.1723  0.2838
12534SOL    HW239856   5.450   4.343   7.478  1.0725 -0.0141  0.3830
12535SOL     OW39857   9.245   4.179   2.183  0.3494  0.2104  0.7097
12535SOL    HW139858   9.175   4.129   2.225 -0.9799  0.1944 -1.3866
12535SOL    HW239859   9.325   4.136   2.212 -0.5949 -1.0348  1.5891
12536SOL     OW39860   2.033   4.754   5.657 -0.4141 -0.1782  0.3683
12536SOL    HW139861   2.025   4.777   5.564 -1.4313 -0.9611  0.2459
12536SOL    HW239862   2.010   4.662   5.660 -0.7809 -0.0570  1.4657
12537SOL     OW39863   9.084   1.812   8.521 -0.2618 -0.4491  0.1266
12537SOL    HW139864   9.150   1.742   8.525  2.3053  1.7004 -1.2765
12537SOL    HW239865   9.004   1.770   8.551  1.0805 -4.0107 -0.6752
12538SOL     OW39866   4.555   8.145   2.866 -0.4827 -0.0864 -0.4221
12538SOL    HW139867   4.461   8.130   2.875 -0.3330 -0.2986  0.9823
12538SOL    HW239868   4.575   8.210   2.933  0.5596 -0.9135  0.0919
12539SOL     OW39869   7.931   9.877   5.820 -0.5382  0.0046  0.1812
12539SOL    HW139870   7.975   9.930   5.887  0.0564 -0.6507  0.3241
12539SOL    HW239871   7.844   9.860   5.857 -0.7936  0.9986  0.0640
12540SOL     OW39872   5.081   5.261   4.064  0.1741 -0.1496 -0.1419
12540SOL    HW139873   5.055   5.253   4.155 -0.4920  2.0750 -0.0884
12540SOL    HW239874   5.026   5.197   4.018  1.0216 -1.8131  1.0403
12541SOL     OW39875   3.654   5.389   2.249  0.1377  0.4781  0.3295
12541SOL    HW139876   3.699   5.445   2.185  1.1976 -0.2051  0.4647
12541SOL    HW239877   3.664   5.300   2.215  0.9507  0.0758  1.5703
12542SOL     OW39878   0.037   7.971   4.453  0.1338 -0.7614  0.5383
12542SOL    HW139879   0.129   7.996   4.445  0.1434 -1.3303 -1.7392
12542SOL    HW239880   0.036   7.876   4.438 -0.8835 -0.6427 -0.3103
12543SOL     OW39881   9.010   8.693   2.322  0.3673  0.2364 -0.0197
12543SOL    HW139882   9.104   8.682   2.305  1.0637  1.0265  2.7942
12543SOL    HW239883   8.992   8.630   2.392 -1.2161  0.1916 -0.4377
12544SOL     OW39884   3.241   7.564   7.177 -0.3222  0.8178 -0.1614
12544SOL    HW139885   3.254   7.657   7.157 -2.0813  1.3674  0.9972
12544SOL    HW239886   3.239   7.560   7.272 -2.0435 -0.1149 -0.2076
12545SOL     OW39887   5.557   0.932   5.505 -0.1430 -0.5487  0.2960
12545SOL    HW139888   5.615   0.970   5.571  1.9318 -2.0387 -0.5960
12545SOL    HW239889   5.531   0.848   5.542 -0.4508 -0.5898 -0.0118
12546SOL     OW39890   3.696   0.479   2.818 -0.0366  0.4119  0.3549
12546SOL    HW139891   3.655   0.393   2.827  0.1814  0.4625  2.2269
12546SOL    HW239892   3.714   0.507   2.908  2.5806  1.1382 -0.3036
12547SOL     OW39893   7.897   6.937   8.694  0.7610 -0.5590 -0.3131
12547SOL    HW139894   7.837   6.931   8.769  0.4397  0.0273 -0.5148
12547SOL    HW239895   7.962   6.869   8.710  1.7411  0.7076  1.4230
12548SOL     OW39896   8.434   7.911   5.449  0.5816  0.3476  0.3266
12548SOL    HW139897   8.396   7.907   5.361 -0.2020 -0.2459  0.6851
12548SOL    HW239898   8.386   7.980   5.494  1.5423  1.2261  0.0439
12549SOL     OW39899   1.519   9.542   1.226 -0.2177  0.1255 -0.4150
12549SOL    HW139900   1.553   9.505   1.145 -0.3581 -0.9919  0.0220
12549SOL    HW239901   1.440   9.491   1.245  0.0510  0.0671  0.6489
12550SOL     OW39902  10.167   3.094   5.695  0.2199  0.4887  0.1889
12550SOL    HW139903  10.187   3.142   5.615  0.5236 -1.1405 -0.7591
12550SOL    HW239904  10.252   3.081   5.738  0.2848 -0.0496 -0.0845
12551SOL     OW39905   4.293   8.478   8.959  0.1154 -0.4770 -0.2167
12551SOL    HW139906   4.301   8.488   8.864  0.3859 -0.2351 -0.1662
12551SOL    HW239907   4.380   8.454   8.989  0.4999  1.2961  0.2117
12552SOL     OW39908   4.539   1.644   9.163 -0.5578  0.2273  0.2222
12552SOL    HW139909   4.464   1.659   9.221 -0.6267  0.0668  0.1742
12552SOL    HW239910   4.584   1.569   9.202 -0.8773 -0.1919 -0.2047
12553SOL     OW39911   6.668   0.305   7.196  0.3446 -0.4594 -0.2743
12553SOL    HW139912   6.634   0.229   7.244 -1.9003  1.1329  0.7885
12553SOL    HW239913   6.664   0.279   7.104 -3.6356 -0.5537 -0.2251
12554SOL     OW39914   7.371   7.082  10.146  0.8883 -0.3167 -0.3002
12554SOL    HW139915   7.402   7.049  10.230 -0.5930 -1.1737 -0.0415
12554SOL    HW239916   7.383   7.009  10.086 -2.1132 -1.4022  0.2063
12555SOL     OW39917   8.179   8.726   3.392 -1.0058 -0.4599  0.1507
12555SOL    HW139918   8.186   8.646   3.443 -1.8183 -0.6122  0.0267
12555SOL    HW239919   8.147   8.792   3.454 -1.1157 -0.4265  0.0600
12556SOL     OW39920   0.939   0.923   2.800 -0.2986 -0.0888 -0.0032
12556SOL    HW139921   0.900   0.863   2.863 -0.5678  0.3557  0.2524
12556SOL    HW239922   1.017   0.957   2.843  0.6432 -1.2933 -0.6685
12557SOL     OW39923   2.525   0.678   9.815  0.1620  0.1611  0.8064
12557SOL    HW139924   2.527   0.713   9.905  0.9039  0.9537  0.4932
12557SOL    HW239925   2.607   0.707   9.776 -0.5008  0.4900 -0.3867
12558SOL     OW39926   4.455  10.444   7.112 -0.0919  0.4173 -0.0326
12558SOL    HW139927   4.546  10.416   7.120  0.0020  0.1406 -1.8201
12558SOL    HW239928   4.409  10.368   7.076 -0.2987  1.6752 -2.6024
12559SOL     OW39929   6.823   0.615   2.335  0.4411  0.0250  0.1767
12559SOL    HW139930   6.816   0.709   2.321 -2.1204 -0.1760 -0.3189
12559SOL    HW239931   6.759   0.596   2.404 -0.5854 -1.6065 -1.1553
12560SOL     OW39932   1.399   3.168   7.232  0.2432 -0.2996  0.4922
12560SOL    HW139933   1.366   3.132   7.149  1.1944 -1.2653  0.5078
12560SOL    HW239934   1.493   3.175   7.218  0.4058 -0.4393  1.4851
12561SOL     OW39935   4.380   6.628   7.743  0.7040 -0.3530 -0.3920
12561SOL    HW139936   4.344   6.716   7.743  0.1310 -0.4843  2.4099
12561SOL    HW239937   4.449   6.629   7.678  0.9750  2.2774 -0.1354
12562SOL     OW39938   9.518   8.863   4.055 -0.2050 -0.2966  0.5311
12562SOL    HW139939   9.470   8.942   4.031  0.2959 -0.3814 -0.8444
12562SOL    HW239940   9.554   8.831   3.972  0.9205 -1.0923  1.3001
12563SOL     OW39941   4.549   3.606   5.886 -0.4289 -0.0780 -0.1634
12563SOL    HW139942   4.487   3.674   5.912  0.3217 -0.0620  1.7439
12563SOL    HW239943   4.631   3.654   5.871  0.1747 -0.5454  1.4620
12564SOL     OW39944   3.496   4.237   2.792 -0.0065  0.1469 -0.2434
12564SOL    HW139945   3.434   4.195   2.733 -0.1307 -0.5415  0.3613
12564SOL    HW239946   3.512   4.323   2.753  0.4246 -0.5297 -1.6236
12565SOL     OW39947   8.950  10.023   9.749  0.2730  0.1082  0.2697
12565SOL    HW139948   8.980  10.045   9.661 -0.0259  1.0159  0.3850
12565SOL    HW239949   8.859   9.997   9.738  0.6070 -1.0733  0.1427
12566SOL     OW39950   3.720   7.949   4.280  0.1792  0.5760 -0.2620
12566SOL    HW139951   3.720   7.964   4.374  0.1134 -0.7916 -0.0218
12566SOL    HW239952   3.724   8.036   4.241  0.7925  1.1275  1.0083
12567SOL     OW39953   6.044  10.454   7.603  0.0220  0.4262 -0.1642
12567SOL    HW139954   6.060  10.401   7.681 -2.6400 -1.9258 -1.0451
12567SOL    HW239955   6.120  10.439   7.548 -0.9466 -3.3843 -0.7267
12568SOL     OW39956   0.462   5.244   5.311 -0.4146  0.0670 -0.3966
12568SOL    HW139957   0.510   5.280   5.385  1.7892 -0.1025 -1.6326
12568SOL    HW239958   0.463   5.149   5.325  1.0273 -0.0609 -1.1468
12569SOL     OW39959   7.884   0.459   8.728  0.5497 -0.7505  0.4111
12569SOL    HW139960   7.842   0.534   8.770 -0.1163  0.7416 -2.6165
12569SOL    HW239961   7.861   0.385   8.784  0.1816  1.0727  2.8647
12570SOL     OW39962   2.233   2.491  10.595  0.2597 -0.1120 -0.6352
12570SOL    HW139963   2.258   2.531  10.679  0.5420  0.8406 -1.1503
12570SOL    HW239964   2.158   2.437  10.616 -0.4097  1.0262  0.0430
12571SOL     OW39965   0.649   3.238   9.940 -0.1028  0.2452  0.0582
12571SOL    HW139966   0.683   3.326   9.957 -1.8579  0.9142  0.2711
12571SOL    HW239967   0.685   3.214   9.855  0.3916  1.1527 -0.0022
12572SOL     OW39968   4.103   9.569   6.378 -0.0604  0.2370  0.1039
12572SOL    HW139969   4.020   9.609   6.405  0.4228 -0.3291  2.8011
12572SOL    HW239970   4.150   9.555   6.461  1.5603 -1.9957 -1.0824
12573SOL     OW39971   4.941   8.877   9.319  0.2788  0.1084 -0.3973
12573SOL    HW139972   4.879   8.890   9.391  0.0224 -0.7714 -0.4505
12573SOL    HW239973   5.020   8.844   9.362 -0.8272 -3.3499 -0.7381
12574SOL     OW39974   8.926   1.392   9.305  0.2157 -0.0426  0.0229
12574SOL    HW139975   8.845   1.414   9.259  0.1665  0.3928  0.3099
12574SOL    HW239976   8.994   1.395   9.237 -0.4182 -3.7942 -1.0225
12575SOL     OW39977   2.437   7.975   0.745 -0.3894 -0.0702 -0.0950
12575SOL    HW139978   2.440   8.070   0.759  0.1079  0.0217 -0.7610
12575SOL    HW239979   2.419   7.965   0.652  0.9357 -0.6052 -0.3159
12576SOL     OW39980   2.812   0.211   4.740 -0.4014  0.4583  0.2584
12576SOL    HW139981   2.740   0.253   4.788 -0.7971  1.3344 -1.0409
12576SOL    HW239982   2.769   0.164   4.668  0.1592 -1.0261  0.8468
12577SOL     OW39983   0.802   6.892   6.256 -0.6665  0.5923 -0.0116
12577SOL    HW139984   0.759   6.893   6.170  1.6008  0.4920 -1.2274
12577SOL    HW239985   0.876   6.952   6.246 -0.1756  0.3405  1.7975
12578SOL     OW39986   5.110   3.910   7.951  0.0504  0.3222  0.2128
12578SOL    HW139987   5.203   3.926   7.933  0.1264  0.7505  0.9543
12578SOL    HW239988   5.075   3.996   7.974 -0.1613 -0.0891  1.5123
12579SOL     OW39989   7.515   7.000   0.569 -0.7575  0.5567 -0.0613
12579SOL    HW139990   7.531   7.089   0.600  0.4301 -0.2841  1.9038
12579SOL    HW239991   7.522   6.945   0.647 -1.8413 -1.2479 -1.1482
12580SOL     OW39992   3.701   2.596   4.349  0.7531 -0.0297  0.0127
12580SOL    HW139993   3.612   2.612   4.380  0.9138 -0.5484  0.7632
12580SOL    HW239994   3.756   2.601   4.427  1.4441  0.6419 -0.4911
12581SOL     OW39995   7.594   5.281  10.368  0.0478 -0.4129  0.0631
12581SOL    HW139996   7.654   5.263  10.295  0.9526  1.2238  0.3469
12581SOL    HW239997   7.558   5.195  10.391  1.1647 -1.2329 -1.0810
12582SOL     OW39998   9.015   9.196   6.511  0.3585  0.0991  0.0408
12582SOL    HW139999   8.956   9.271   6.509 -0.3867 -0.4641  0.2443
12582SOL    HW240000   8.991   9.144   6.434  1.3136  0.3836 -0.4706
12583SOL     OW40001   9.228   3.941  10.368 -0.3935 -0.0335  0.2367
12583SOL    HW140002   9.304   3.945  10.310 -1.1813  0.8456 -0.7754
12583SOL    HW240003   9.262   3.904  10.449  0.4725 -2.5084 -1.1617
12584SOL     OW40004   6.492   6.250   3.279 -0.1008  0.2300  0.3979
12584SOL    HW140005   6.566   6.307   3.262 -0.0176  0.1214  0.3937
12584SOL    HW240006   6.473   6.209   3.195  1.0521 -1.1941  0.7882
12585SOL     OW40007   3.820   9.003  10.558 -0.5372  0.0779 -0.0380
12585SOL    HW140008   3.739   8.972  10.516 -0.2293 -1.1839  0.2649
12585SOL    HW240009   3.863   8.924  10.589  1.6993  0.5583 -1.7072
12586SOL     OW40010   9.794   0.491   2.673 -0.8739  0.3185 -0.1034
12586SOL    HW140011   9.789   0.397   2.687 -0.2278  0.3204  0.1709
12586SOL    HW240012   9.840   0.525   2.750 -0.5972  0.7841 -0.4681
12587SOL     OW40013   6.867  10.639   1.167 -0.0146 -0.1942  0.4610
12587SOL    HW140014   6.949  10.671   1.203  2.1872 -1.8303 -2.6379
12587SOL    HW240015   6.840  10.569   1.227  2.8767 -2.0709 -0.1960
12588SOL     OW40016   7.603   5.745   1.473 -0.5342 -0.0078 -0.0034
12588SOL    HW140017   7.653   5.789   1.542 -0.5911  1.1462 -0.6704
12588SOL    HW240018   7.530   5.804   1.455 -2.1782 -1.6273  0.9132
12589SOL     OW40019   0.143   6.681   6.051 -0.0531 -0.1884  0.4172
12589SOL    HW140020   0.127   6.774   6.032  1.3515 -0.1304 -0.6262
12589SOL    HW240021   0.238   6.674   6.061 -0.0205 -1.6837 -0.5889
12590SOL     OW40022   0.422   0.483   4.445  0.2159 -0.1652 -0.1027
12590SOL    HW140023   0.335   0.520   4.463  0.4975  1.0919 -1.1748
12590SOL    HW240024   0.470   0.495   4.527  0.4895  2.5269 -0.5479
12591SOL     OW40025   7.178   7.745   3.625 -0.5835  0.1267  0.0866
12591SOL    HW140026   7.165   7.840   3.628  2.2689  0.6706 -1.3881
12591SOL    HW240027   7.238   7.731   3.552 -0.2415 -2.7355  0.7966
12592SOL     OW40028   5.517   1.413   0.129 -0.0037  0.5050 -0.3695
12592SOL    HW140029   5.568   1.339   0.161 -0.0958 -0.6191 -2.6415
12592SOL    HW240030   5.564   1.490   0.161  1.6593 -0.5022 -0.2569
12593SOL     OW40031   9.787   3.198   5.445  0.1988 -0.3702 -0.1914
12593SOL    HW140032   9.700   3.236   5.457  0.6221  0.6052 -0.1603
12593SOL    HW240033   9.770   3.112   5.405 -0.7508  0.0312 -0.6898
12594SOL     OW40034   1.432   3.476   0.808 -0.5259  0.0790 -0.3818
12594SOL    HW140035   1.347   3.520   0.810 -0.4502  0.2556 -0.7679
12594SOL    HW240036   1.496   3.548   0.808 -0.3823 -0.0478 -0.2994
12595SOL     OW40037   3.256   9.184   9.616  0.1837 -0.2657  0.7132
12595SOL    HW140038   3.339   9.231   9.622 -0.1249  0.5968 -1.0471
12595SOL    HW240039   3.252   9.154   9.526 -2.8074  2.5442 -0.3171
12596SOL     OW40040   0.341   3.937   7.655 -0.0308 -0.6246  0.0799
12596SOL    HW140041   0.358   3.966   7.565  1.4262  3.0385  1.3505
12596SOL    HW240042   0.247   3.918   7.657 -0.4212  0.8138 -1.8624
12597SOL     OW40043   7.888   0.711   2.412 -0.4802  0.2884 -0.0831
12597SOL    HW140044   7.938   0.782   2.451 -1.2017  0.7243  0.0790
12597SOL    HW240045   7.833   0.679   2.484 -0.3978 -0.2087 -0.2399
12598SOL     OW40046  10.411   1.445   2.850 -0.6874  0.0314  0.4731
12598SOL    HW140047  10.458   1.526   2.870  1.2500 -1.2081  1.2860
12598SOL    HW240048  10.417   1.436   2.755  1.5253 -0.4757  0.6074
12599SOL     OW40049   9.944   8.940   6.778 -0.5355 -0.5919 -0.3300
12599SOL    HW140050   9.918   8.932   6.869  0.4155 -0.0567  0.0049
12599SOL    HW240051  10.017   9.003   6.779 -0.5098 -0.5775 -1.4508
12600SOL     OW40052   2.741   4.605   3.770 -0.0224 -0.0539  0.2577
12600SOL    HW140053   2.661   4.587   3.721  1.4747  0.0845 -2.3977
12600SOL    HW240054   2.798   4.530   3.753  0.4288 -0.1929  2.1646
12601SOL     OW40055   3.520   9.038   3.446 -0.5731  0.7449 -0.3371
12601SOL    HW140056   3.536   9.131   3.433  1.2584  0.5031 -0.1358
12601SOL    HW240057   3.607   9.000   3.455 -1.2791 -1.0134 -0.5155
12602SOL     OW40058   6.347   8.613   9.268  0.0930 -0.1151 -0.1400
12602SOL    HW140059   6.344   8.703   9.299 -1.9300 -0.0909 -0.2994
12602SOL    HW240060   6.300   8.563   9.335 -0.5649 -0.7186 -1.0328
12603SOL     OW40061   2.863   8.465   7.916  0.2575 -0.2239  0.1897
12603SOL    HW140062   2.945   8.480   7.869 -0.0546 -0.1103 -0.3397
12603SOL    HW240063   2.886   8.470   8.008  0.6157  1.1774  0.0467
12604SOL     OW40064   9.129   9.589   1.322  0.5928 -0.1081  0.1280
12604SOL    HW140065   9.169   9.565   1.239 -0.6681 -0.8447 -0.2890
12604SOL    HW240066   9.147   9.515   1.380  1.3995  0.3682  0.5142
12605SOL     OW40067   4.396   7.243   3.572 -0.4236 -0.7013 -0.3901
12605SOL    HW140068   4.342   7.273   3.499 -0.0023  0.6066 -0.2045
12605SOL    HW240069   4.485   7.273   3.550 -0.2164 -0.6635  0.4394
12606SOL     OW40070   3.998   2.083   3.938  0.1415  0.2817 -0.1569
12606SOL    HW140071   4.080   2.040   3.916 -0.3844  0.6439 -3.2338
12606SOL    HW240072   4.012   2.175   3.916 -0.3947  0.7983  1.4727
12607SOL     OW40073   4.750   1.990   0.144  0.2400 -0.5736 -0.3263
12607SOL    HW140074   4.801   1.923   0.190  1.2121  0.0038 -0.5216
12607SOL    HW240075   4.684   2.018   0.208  1.2539 -0.1359  0.5734
12608SOL     OW40076   5.576  10.273   5.646 -0.1485 -0.2196  0.6915
12608SOL    HW140077   5.664  10.253   5.614 -0.3115 -0.5607  0.4437
12608SOL    HW240078   5.570  10.229   5.731  0.7158  1.7046  1.7907
12609SOL     OW40079   9.418   2.727   2.751 -0.3907 -0.3334  0.1785
12609SOL    HW140080   9.337   2.695   2.791 -0.4635 -1.2132 -0.6347
12609SOL    HW240081   9.388   2.792   2.687 -0.3230  0.5677  1.0473
12610SOL     OW40082   6.800   0.247   1.418 -0.4320 -0.3935 -0.2397
12610SOL    HW140083   6.779   0.199   1.498 -1.0490  0.1960 -0.0415
12610SOL    HW240084   6.890   0.277   1.430 -1.1208  1.2464  1.0227
12611SOL     OW40085   8.162   4.082   1.560  0.4476  0.3515 -0.2910
12611SOL    HW140086   8.098   4.151   1.542  1.4620  1.1997 -0.6651
12611SOL    HW240087   8.175   4.039   1.475 -1.0213 -1.0688  0.1501
12612SOL     OW40088   8.764   3.916   8.553  0.4843  0.2430  0.4041
12612SOL    HW140089   8.784   3.851   8.486  0.8889 -0.1295  0.8744
12612SOL    HW240090   8.823   3.989   8.534  0.9681 -0.0776  0.6610
12613SOL     OW40091   8.634   0.036   1.339 -0.4658 -0.1759  0.2890
12613SOL    HW140092   8.563   0.036   1.274  0.1391 -1.0166 -0.3873
12613SOL    HW240093   8.705   0.084   1.296  0.9891 -3.1348 -0.9183
12614SOL     OW40094   3.628  10.262   4.466  0.3225 -0.7456  0.1663
12614SOL    HW140095   3.560  10.194   4.467 -1.0453  0.5517  1.4963
12614SOL    HW240096   3.585  10.339   4.428  1.6140 -0.3807 -0.6171
12615SOL     OW40097   3.040   5.899   7.530  0.1982  0.1566  0.0965
12615SOL    HW140098   3.058   5.809   7.555 -0.6877 -0.0411  0.0612
12615SOL    HW240099   3.046   5.949   7.611 -0.1396 -0.0759  0.2681
12616SOL     OW40100   6.291   7.000   7.686  0.1210 -0.3667 -0.0039
12616SOL    HW140101   6.294   7.027   7.778  1.3532 -0.6388  0.0523
12616SOL    HW240102   6.203   6.963   7.674  0.0026 -0.4605  1.1002
12617SOL     OW40103   4.387   1.298   1.381  0.0959 -0.2053  0.2567
12617SOL    HW140104   4.404   1.289   1.474  0.3928 -0.0982  0.2144
12617SOL    HW240105   4.424   1.219   1.341 -0.0069 -0.2385  0.2264
12618SOL     OW40106   4.690   1.307   5.619 -0.6600  0.6034 -0.3940
12618SOL    HW140107   4.636   1.246   5.669 -0.6754  1.9010  1.2626
12618SOL    HW240108   4.764   1.254   5.589 -0.2013 -0.0755  1.7671
12619SOL     OW40109   3.204   6.137   5.853  0.1821 -0.0582 -0.3804
12619SOL    HW140110   3.192   6.229   5.829 -0.6036 -0.2966 -0.9728
12619SOL    HW240111   3.292   6.115   5.821  1.5939  1.2320  2.3324
12620SOL     OW40112   7.866   1.592   3.116 -0.2134 -0.2670  0.2796
12620SOL    HW140113   7.811   1.656   3.162 -0.1420  0.2860 -0.3952
12620SOL    HW240114   7.875   1.628   3.028  2.0010  0.1469  0.6178
12621SOL     OW40115   3.462   5.559   8.881 -0.1512 -0.0197  0.1226
12621SOL    HW140116   3.407   5.554   8.959 -0.7638 -2.9249 -0.3760
12621SOL    HW240117   3.403   5.590   8.812 -1.1607 -2.6936 -0.3108
12622SOL     OW40118   0.971   3.210   7.339 -0.4824 -0.4669  0.4601
12622SOL    HW140119   0.994   3.296   7.302 -1.4537  0.4108  1.7768
12622SOL    HW240120   1.034   3.150   7.300 -0.5014  0.6261 -1.4219
12623SOL     OW40121   7.610   3.089   3.318  0.5044  0.2510 -0.6620
12623SOL    HW140122   7.563   3.030   3.378 -0.5765 -0.4855 -2.1602
12623SOL    HW240123   7.579   3.176   3.341  1.8006  0.2546  1.3095
12624SOL     OW40124   8.185   5.927   6.154 -0.5874  0.0795  0.3115
12624SOL    HW140125   8.119   5.975   6.104  0.6751  2.0934  0.5115
12624SOL    HW240126   8.217   5.860   6.093 -0.4852  1.2037 -0.9014
12625SOL     OW40127   3.991   3.136   2.108 -0.0429  0.0217 -0.2192
12625SOL    HW140128   4.084   3.136   2.085  0.0667  2.7946 -0.0819
12625SOL    HW240129   3.946   3.135   2.024  0.1602  0.8221 -0.3396
12626SOL     OW40130   7.834  10.392   8.855  0.1022 -0.2284 -0.3414
12626SOL    HW140131   7.861  10.432   8.773  1.6230  0.5827  0.5140
12626SOL    HW240132   7.739  10.384   8.847  0.1039  0.7572 -1.7674
12627SOL     OW40133   1.800   6.686   8.431  0.1153  0.3688  0.3631
12627SOL    HW140134   1.879   6.733   8.457  0.6561 -0.7287  0.7926
12627SOL    HW240135   1.832   6.617   8.373 -0.6678  0.5796 -0.3241
12628SOL     OW40136   9.960   9.078   7.745  0.2222  0.2811 -0.1310
12628SOL    HW140137   9.890   9.014   7.732  0.6277 -0.2073  0.0661
12628SOL    HW240138  10.030   9.048   7.687  0.2182  0.8463 -0.4293
12629SOL     OW40139   7.678   1.354   3.050 -0.1211  0.3907  0.3782
12629SOL    HW140140   7.598   1.378   3.097 -1.0683 -0.5299 -0.6824
12629SOL    HW240141   7.686   1.421   2.982  0.0377  0.5068  0.5110
12630SOL     OW40142   0.337   6.562   1.053  0.7042  0.4479 -0.2522
12630SOL    HW140143   0.290   6.618   0.991  0.2740  0.8040  0.3859
12630SOL    HW240144   0.375   6.622   1.117  1.1890  0.0884 -0.1910
12631SOL     OW40145   2.275   9.019   8.252 -0.5073  0.3774 -0.0013
12631SOL    HW140146   2.235   8.951   8.198 -0.6468 -0.6214  1.3039
12631SOL    HW240147   2.241   9.002   8.340  0.7764  1.0936  0.6581
12632SOL     OW40148  10.432   6.533   1.254  0.7918 -0.5453 -0.1675
12632SOL    HW140149  10.396   6.562   1.338  1.8485 -0.3836  0.2487
12632SOL    HW240150  10.418   6.606   1.195  0.2452 -0.5722 -0.0787
12633SOL     OW40151   8.575   4.830   2.884 -0.4704 -0.0848  0.1913
12633SOL    HW140152   8.508   4.762   2.876 -0.8943  0.0388  2.1825
12633SOL    HW240153   8.534   4.899   2.935  0.8974  0.3942  0.6978
12634SOL     OW40154   7.477   8.412  10.429 -0.7525  0.1536 -0.3787
12634SOL    HW140155   7.559   8.459  10.414 -0.9050  0.6410  0.2694
12634SOL    HW240156   7.439   8.454  10.506 -0.2669 -1.8654  1.0469
12635SOL     OW40157   5.801  10.139   5.947  0.0143  0.3708 -0.4726
12635SOL    HW140158   5.833  10.085   6.019 -0.7182  0.7488  0.1540
12635SOL    HW240159   5.708  10.119   5.942 -0.8258  3.2526  1.3464
12636SOL     OW40160   2.240   5.198   7.156  0.0698  0.1334  0.0121
12636SOL    HW140161   2.196   5.275   7.120  1.1098 -0.3476 -2.5001
12636SOL    HW240162   2.289   5.232   7.230 -0.3691  1.6845 -0.3653
12637SOL     OW40163  10.018   6.185   7.551 -0.5015  0.3456 -0.2835
12637SOL    HW140164   9.927   6.213   7.542 -0.3416  0.4994 -1.5425
12637SOL    HW240165  10.031   6.119   7.483  0.3552  0.4004 -0.1911
12638SOL     OW40166   6.799   4.756   4.281 -0.3561 -0.5826 -0.8496
12638SOL    HW140167   6.801   4.851   4.271  0.1247 -0.7493 -2.9014
12638SOL    HW240168   6.852   4.739   4.358  2.2224  0.6765 -2.2132
12639SOL     OW40169   3.736   8.254   8.210  0.4512 -0.1301  0.5255
12639SOL    HW140170   3.733   8.348   8.192 -1.8318 -0.1307  0.6152
12639SOL    HW240171   3.813   8.223   8.162  0.6203  1.6079 -0.4058
12640SOL     OW40172   2.341   9.960   5.623  0.2121  0.3377 -0.0215
12640SOL    HW140173   2.255   9.933   5.590 -0.3761  3.2493 -1.1213
12640SOL    HW240174   2.322  10.025   5.691  1.5405  0.6041  0.1268
12641SOL     OW40175   6.663   4.947   8.065 -0.0421  0.0871 -0.4133
12641SOL    HW140176   6.681   4.854   8.053 -0.3936 -0.0427  0.0506
12641SOL    HW240177   6.726   4.991   8.008  0.3711 -0.4203 -0.3529
12642SOL     OW40178   3.310  10.280   7.661 -0.0233 -0.2696 -0.7849
12642SOL    HW140179   3.280  10.325   7.582  0.2430 -0.9592 -1.2915
12642SOL    HW240180   3.351  10.199   7.629  0.5631 -0.3122  0.0218
12643SOL     OW40181   8.238   9.166   7.201  0.2396  0.3311 -0.3889
12643SOL    HW140182   8.278   9.157   7.114 -0.6590 -0.5593 -0.7384
12643SOL    HW240183   8.193   9.251   7.198 -0.7686 -0.2007 -1.2412
12644SOL     OW40184   2.701   9.268   2.414 -0.2781 -0.3986  0.1497
12644SOL    HW140185   2.656   9.295   2.333  1.7276  1.1014 -0.5317
12644SOL    HW240186   2.764   9.202   2.385 -0.2977 -0.6557  0.6851
12645SOL     OW40187  10.075   8.424   2.546 -0.1579  0.1170  0.0033
12645SOL    HW140188  10.095   8.511   2.510 -1.1729  0.2894 -0.1780
12645SOL    HW240189  10.033   8.378   2.473  1.2384 -0.8763 -0.2070
12646SOL     OW40190  10.560   5.709   2.622 -0.9030 -0.4405  0.2365
12646SOL    HW140191  10.586   5.672   2.707 -2.1487  0.8230  1.2160
12646SOL    HW240192  10.483   5.659   2.596 -1.1537 -0.1311  0.3782
12647SOL     OW40193   2.572   5.682   3.924 -0.1051  0.2013  0.1449
12647SOL    HW140194   2.630   5.756   3.907  1.1938 -0.5671  1.0542
12647SOL    HW240195   2.486   5.722   3.934  0.2676  1.3950 -1.0631
12648SOL     OW40196   9.116   6.207   5.942  0.2619  0.1606  0.4180
12648SOL    HW140197   9.119   6.246   6.030 -0.5985  3.1510 -0.7602
12648SOL    HW240198   9.189   6.144   5.942  2.0115  1.9903  2.4586
12649SOL     OW40199   7.204   1.534   1.192 -0.0761 -0.1452 -0.2656
12649SOL    HW140200   7.217   1.462   1.255 -1.0655  0.0020  0.1151
12649SOL    HW240201   7.275   1.596   1.212  0.2190 -0.5684  0.0291
12650SOL     OW40202   5.229   2.007   5.120  0.0526  0.2438 -0.5001
12650SOL    HW140203   5.150   2.000   5.173 -0.5169  1.3190 -1.1762
12650SOL    HW240204   5.214   1.948   5.046 -0.1949  0.5572 -0.7049
12651SOL     OW40205   9.910   4.018   7.485  0.3495 -0.2799 -0.1497
12651SOL    HW140206   9.976   3.963   7.443  0.5176 -1.1343  1.1848
12651SOL    HW240207   9.912   4.101   7.436  1.4007 -0.8038 -1.0082
12652SOL     OW40208   3.649   4.883   4.885 -0.1213 -0.0176  0.3758
12652SOL    HW140209   3.691   4.963   4.853 -0.6034  0.6107  1.2543
12652SOL    HW240210   3.555   4.898   4.873 -0.1965 -0.6590  0.0968
12653SOL     OW40211   8.927   5.883   6.121 -0.3019  0.3528  0.1347
12653SOL    HW140212   8.885   5.963   6.154  0.8010  1.6692 -1.4360
12653SOL    HW240213   9.020   5.905   6.119 -0.0846 -0.5912 -1.2977
12654SOL     OW40214   3.765  10.134   0.899  0.3911 -0.4681  0.2408
12654SOL    HW140215   3.775  10.206   0.962 -0.2069  0.1095 -0.3054
12654SOL    HW240216   3.670  10.122   0.892  0.2858  1.1849 -2.4071
12655SOL     OW40217   6.489   8.064   8.533 -0.1614 -0.2292  0.6540
12655SOL    HW140218   6.498   8.159   8.520  0.1153 -0.1426  1.4337
12655SOL    HW240219   6.473   8.054   8.627  0.9644 -1.0294  0.7851
12656SOL     OW40220   7.910   8.464   1.184 -0.3955  0.3421 -0.1282
12656SOL    HW140221   7.969   8.492   1.115 -0.9161 -1.5950 -1.4449
12656SOL    HW240222   7.955   8.390   1.225 -1.1289 -0.0263  0.0261
12657SOL     OW40223   9.938   1.014   4.793 -0.4606  0.2218  0.3265
12657SOL    HW140224   9.898   0.967   4.720  1.3831  0.0268 -0.6253
12657SOL    HW240225   9.886   0.989   4.870 -0.4490 -2.2089 -0.3846
12658SOL     OW40226   0.923   2.980   1.398  0.2647  0.5516  0.0746
12658SOL    HW140227   0.938   3.039   1.324  1.0437 -2.6952 -2.5911
12658SOL    HW240228   0.828   2.980   1.409  0.0353  0.3375 -1.6682
12659SOL     OW40229   2.891   7.814   3.278 -0.4092 -1.0346  0.0141
12659SOL    HW140230   2.911   7.728   3.315  0.1863 -1.3610 -1.0088
12659SOL    HW240231   2.940   7.817   3.196  0.2300  0.6175  0.4121
12660SOL     OW40232   3.691   2.068   9.010  0.0259 -0.0990 -0.7694
12660SOL    HW140233   3.639   2.147   9.007 -1.3087 -0.9542 -0.7902
12660SOL    HW240234   3.634   2.002   9.050  1.0619 -1.0868 -0.8388
12661SOL     OW40235   0.549   3.865  10.039  0.3438  0.5754  0.3112
12661SOL    HW140236   0.505   3.946  10.062  0.0828  0.8224 -1.0148
12661SOL    HW240237   0.603   3.887   9.963  1.3415 -0.1645  0.7731
12662SOL     OW40238   3.395   9.294   8.246 -0.0558  0.1445  0.0640
12662SOL    HW140239   3.451   9.351   8.299 -0.2932  1.6697 -1.2311
12662SOL    HW240240   3.307   9.330   8.257 -0.2695 -0.1860 -0.5005
12663SOL     OW40241   3.993   8.026   7.187 -0.2357  0.1375 -0.2225
12663SOL    HW140242   3.927   7.993   7.249  0.2004 -0.0673  0.1394
12663SOL    HW240243   4.075   8.026   7.237  0.2687 -0.7254 -1.0041
12664SOL     OW40244   6.392   7.860   5.422 -0.4516 -0.4043 -0.8003
12664SOL    HW140245   6.450   7.866   5.346 -1.1591 -0.7197 -1.3760
12664SOL    HW240246   6.358   7.771   5.419  0.6449 -0.9110  0.7458
12665SOL     OW40247   2.110   0.278   2.719  0.3291 -0.3217 -0.5662
12665SOL    HW140248   2.186   0.229   2.751 -0.5558 -1.0464  0.5080
12665SOL    HW240249   2.039   0.253   2.778 -0.5435  1.0229 -1.0019
12666SOL     OW40250   0.523   8.615   1.667  0.2311  0.2617  0.4633
12666SOL    HW140251   0.550   8.658   1.748  0.6297  0.2163  0.3596
12666SOL    HW240252   0.445   8.661   1.639  0.5322  0.7769  0.4673
12667SOL     OW40253   4.183   4.600   7.704  0.0425  0.2136  0.0496
12667SOL    HW140254   4.130   4.586   7.783 -0.6444  1.2765 -0.2031
12667SOL    HW240255   4.159   4.688   7.675  0.3561 -0.1266 -1.2925
12668SOL     OW40256   2.351   4.121   8.612 -0.1560  0.5291 -0.1133
12668SOL    HW140257   2.436   4.149   8.576 -0.0780 -0.2409 -0.5380
12668SOL    HW240258   2.374   4.067   8.687 -0.2825  0.6526  0.0138
12669SOL     OW40259   6.600   3.372   2.931  0.8035  0.5627  0.4299
12669SOL    HW140260   6.649   3.331   3.002 -0.4838  0.1777  1.1315
12669SOL    HW240261   6.661   3.373   2.857  2.0871  0.7500  1.4603
12670SOL     OW40262   4.055   0.429   3.684  0.0967 -0.7883 -0.1898
12670SOL    HW140263   4.044   0.513   3.639 -0.2832 -0.9606 -0.4211
12670SOL    HW240264   3.969   0.412   3.724  0.0169 -1.3138 -0.5731
12671SOL     OW40265   3.059   7.516   9.525  0.4816 -0.2365  0.2439
12671SOL    HW140266   2.976   7.473   9.544  0.2487  0.2767  0.4036
12671SOL    HW240267   3.039   7.580   9.456  0.9657 -0.8606 -0.4947
12672SOL     OW40268   5.377   2.863   0.503 -0.1906 -0.3794 -0.0538
12672SOL    HW140269   5.281   2.862   0.501 -0.3989  0.7421  3.1669
12672SOL    HW240270   5.401   2.943   0.455 -1.0686  0.5803  1.0233
12673SOL     OW40271   9.158   2.349   5.650 -0.0458 -0.1391  0.4063
12673SOL    HW140272   9.236   2.357   5.705 -0.7237 -0.6831  1.4711
12673SOL    HW240273   9.187   2.379   5.564  0.9187  1.1729  1.1495
12674SOL     OW40274   0.061   2.892   9.324 -0.7937  0.1293  0.3824
12674SOL    HW140275  -0.032   2.907   9.307 -0.3561  2.0652 -0.6762
12674SOL    HW240276   0.106   2.940   9.255  1.0092 -0.1678  1.2801
12675SOL     OW40277   7.865   2.830   6.284 -0.4613 -0.4335  0.0458
12675SOL    HW140278   7.946   2.849   6.332 -1.2763  1.9335  0.6113
12675SOL    HW240279   7.822   2.762   6.336 -0.3019  0.5416  1.5222
12676SOL     OW40280   9.423   6.270   6.446  0.0621  0.0645 -0.1331
12676SOL    HW140281   9.354   6.312   6.497  0.0542 -0.7992  0.6037
12676SOL    HW240282   9.504   6.311   6.477  0.1010 -0.7877  0.9507
12677SOL     OW40283   5.023   3.049   3.831 -0.3430  0.0137  0.1579
12677SOL    HW140284   5.037   2.959   3.799  0.2283 -0.4514  1.6600
12677SOL    HW240285   5.091   3.062   3.896 -0.6955  1.4063  0.2634
12678SOL     OW40286   3.408   3.072   2.363  0.2197  0.4464  0.4881
12678SOL    HW140287   3.428   3.159   2.400 -1.2597  1.1318 -0.2545
12678SOL    HW240288   3.426   3.081   2.270 -0.4712  0.1168  0.3204
12679SOL     OW40289   4.955   9.478   9.550 -0.5171 -0.1659  0.1469
12679SOL    HW140290   4.980   9.537   9.479 -1.5779 -0.3151 -0.3581
12679SOL    HW240291   4.877   9.517   9.588 -1.7618 -1.6429 -0.7568
12680SOL     OW40292   6.215   9.614   3.432  0.1192 -0.2268  0.4042
12680SOL    HW140293   6.126   9.582   3.417  0.2858 -1.0014  0.9756
12680SOL    HW240294   6.202   9.697   3.479 -0.3066 -0.3615  0.5372
12681SOL     OW40295   6.129   1.283   6.479 -0.0268  0.2178 -0.8833
12681SOL    HW140296   6.067   1.278   6.552 -0.8506  0.8258 -1.5195
12681SOL    HW240297   6.132   1.195   6.443  0.3190 -0.0670 -0.1899
12682SOL     OW40298   2.533   5.934   6.473  0.3864  0.3512 -0.6488
12682SOL    HW140299   2.460   5.993   6.493 -0.7284 -0.4871 -2.0563
12682SOL    HW240300   2.504   5.886   6.395  2.1616 -0.5106 -0.8167
12683SOL     OW40301   8.524   7.196   7.687 -0.0491  0.0257 -0.4820
12683SOL    HW140302   8.544   7.115   7.640 -0.7507 -0.0414 -0.6675
12683SOL    HW240303   8.500   7.167   7.775  0.6322  0.1052 -0.2653
12684SOL     OW40304   1.169   3.408   9.280 -0.6854  0.1426  0.5346
12684SOL    HW140305   1.103   3.436   9.216 -1.3538 -3.1861 -0.4445
12684SOL    HW240306   1.132   3.432   9.365 -1.9482  0.6404 -0.1345
12685SOL     OW40307   7.254   9.993   7.993 -0.3221 -0.0644 -0.0360
12685SOL    HW140308   7.224   9.920   7.940  0.2170  0.6522 -1.3649
12685SOL    HW240309   7.270  10.064   7.931  0.5006  0.7508  1.0559
12686SOL     OW40310   9.835   4.104   6.620 -0.6939 -0.1389  0.2496
12686SOL    HW140311   9.764   4.109   6.684 -1.7723  1.9815 -0.9991
12686SOL    HW240312   9.792   4.085   6.537  0.3008  0.3186 -0.3894
12687SOL     OW40313   1.348   9.275   0.828 -0.2625  0.0721 -0.4134
12687SOL    HW140314   1.349   9.366   0.798  0.2230  0.5757  1.0326
12687SOL    HW240315   1.438   9.245   0.815  0.0914  0.4632  0.9292
12688SOL     OW40316   7.383   0.461   4.217 -0.0742  0.3145  0.0068
12688SOL    HW140317   7.320   0.428   4.153 -0.2225  0.3696  0.1218
12688SOL    HW240318   7.371   0.405   4.294 -0.6794  0.9378  0.3834
12689SOL     OW40319   0.051   2.359   8.619 -0.2084 -0.4708 -0.3837
12689SOL    HW140320  -0.035   2.392   8.592  0.6624  1.3073 -1.1261
12689SOL    HW240321   0.069   2.405   8.701 -0.3409 -1.5586  0.2795
12690SOL     OW40322   2.944   7.169   3.920  0.7538 -0.4522 -0.1669
12690SOL    HW140323   2.870   7.156   3.979  0.8944 -0.1343  0.0814
12690SOL    HW240324   2.910   7.227   3.851  0.6295 -0.7130 -0.3277
12691SOL     OW40325   6.690   6.509   5.988 -0.2970 -0.3628  0.0253
12691SOL    HW140326   6.681   6.604   5.979  1.4573 -0.0256  1.1941
12691SOL    HW240327   6.608   6.480   6.029 -0.4076  0.8365  0.7002
12692SOL     OW40328   3.805   4.006   3.294 -0.5966  0.0107 -0.1834
12692SOL    HW140329   3.735   4.064   3.264 -0.4276 -0.5214 -1.6884
12692SOL    HW240330   3.874   4.015   3.228  0.1309 -0.6170  0.4659
12693SOL     OW40331   0.919   4.657   6.539 -0.1178 -0.3898  0.1815
12693SOL    HW140332   0.910   4.696   6.626  0.2234  0.4029 -0.1331
12693SOL    HW240333   0.951   4.728   6.483 -0.7531 -0.7685 -0.6955
12694SOL     OW40334   1.552   6.065   2.385  0.3194 -0.0632 -0.1208
12694SOL    HW140335   1.551   6.086   2.291 -0.4453 -1.6770 -0.5101
12694SOL    HW240336   1.596   5.980   2.390 -0.9634 -0.7094  0.7999
12695SOL     OW40337   9.481   9.279   8.870  0.0900  0.1589 -0.1498
12695SOL    HW140338   9.566   9.313   8.899 -0.8182  1.9795  0.5578
12695SOL    HW240339   9.463   9.205   8.927 -0.1162  1.6026  1.7596
12696SOL     OW40340   1.374   1.826   3.547 -0.0225  0.1413  0.6530
12696SOL    HW140341   1.326   1.750   3.515  1.3492 -1.1753  1.5902
12696SOL    HW240342   1.453   1.829   3.493 -0.1015  0.9698  0.5676
12697SOL     OW40343   6.139   5.409   9.422  0.3359  0.6722 -0.2351
12697SOL    HW140344   6.191   5.479   9.462 -0.2380  0.5992  0.6776
12697SOL    HW240345   6.111   5.446   9.338 -0.9189  2.0305  0.7174
12698SOL     OW40346   7.120   6.042   2.058 -0.4748  0.2044  0.0082
12698SOL    HW140347   7.214   6.056   2.045 -0.4685  1.3941  1.1256
12698SOL    HW240348   7.115   5.980   2.130 -0.5633 -0.9400 -0.9490
12699SOL     OW40349   8.854   2.679   3.268 -0.2803  0.1182 -0.5752
12699SOL    HW140350   8.894   2.621   3.333 -1.1969  1.9907  1.7977
12699SOL    HW240351   8.784   2.627   3.229 -0.3215 -0.7602  0.6342
12700SOL     OW40352   7.659   5.298   0.172 -0.3887 -0.3634  0.0831
12700SOL    HW140353   7.686   5.275   0.261  2.1324  0.9089 -0.2651
12700SOL    HW240354   7.570   5.330   0.183  0.5383  1.7760  2.5742
12701SOL     OW40355   1.748   2.202  10.026  0.5000  0.1728  0.6518
12701SOL    HW140356   1.797   2.165   9.952  0.3000 -2.2174  1.6212
12701SOL    HW240357   1.811   2.261  10.069  1.0819  0.4871 -0.5863
12702SOL     OW40358   9.965   4.324  10.142  0.4399  0.0879 -0.3694
12702SOL    HW140359   9.975   4.314  10.048  1.7902  1.3469 -0.4063
12702SOL    HW240360  10.055   4.337  10.174  0.1275 -1.4039  1.2439
12703SOL     OW40361   3.801   6.964   5.997 -0.4429  0.3952 -0.0620
12703SOL    HW140362   3.782   7.038   6.054 -0.7085  0.1148  0.2156
12703SOL    HW240363   3.720   6.914   5.994 -0.7124  0.8635 -1.3858
12704SOL     OW40364   2.649   1.001  10.646 -0.0455  0.3079 -0.1916
12704SOL    HW140365   2.726   0.990  10.701  0.2612  1.9007 -0.2537
12704SOL    HW240366   2.595   1.065  10.692 -1.2149 -0.5534 -0.3015
12705SOL     OW40367   0.485   9.026   3.293 -0.4174  0.7781 -0.0131
12705SOL    HW140368   0.433   9.101   3.322 -1.7415 -0.3723  0.7332
12705SOL    HW240369   0.452   9.005   3.206  0.8495  1.8164 -0.7796
12706SOL     OW40370   3.062   2.871   1.080 -0.6281  0.2770 -0.4755
12706SOL    HW140371   2.982   2.919   1.062 -1.5548 -0.6895  0.8795
12706SOL    HW240372   3.106   2.863   0.995 -1.0918  2.2940 -0.9643
12707SOL     OW40373   3.318   7.646   3.878 -0.4634 -0.4983  0.1921
12707SOL    HW140374   3.297   7.715   3.941  0.0984  0.1118 -0.2696
12707SOL    HW240375   3.338   7.569   3.931  0.1272  0.0414  0.7716
12708SOL     OW40376   0.649   6.417   5.223  0.3846 -0.1711  0.3100
12708SOL    HW140377   0.683   6.501   5.253  1.0772 -0.3999  0.1877
12708SOL    HW240378   0.679   6.354   5.288  1.3491 -0.5740 -0.5098
12709SOL     OW40379   8.829  10.342   1.831 -0.2035 -0.0373 -0.1319
12709SOL    HW140380   8.899  10.329   1.895 -0.9654 -3.5275  0.2081
12709SOL    HW240381   8.815  10.437   1.829  2.1101  0.4782  2.3423
12710SOL     OW40382   6.659   7.460   4.906  0.5959 -0.4212  0.0182
12710SOL    HW140383   6.683   7.463   4.999 -0.9565  0.5506  0.4190
12710SOL    HW240384   6.742   7.446   4.861  1.4615 -0.3579  1.5183
12711SOL     OW40385   1.273   2.576   0.177  0.0826  0.3559  0.0298
12711SOL    HW140386   1.199   2.530   0.217  0.3020  0.0394  0.0745
12711SOL    HW240387   1.351   2.536   0.217  0.2848  0.4926 -0.2234
12712SOL     OW40388   7.271   1.258   4.948  0.3852  0.2145 -0.1082
12712SOL    HW140389   7.203   1.303   4.998 -1.4874  2.2995 -4.1360
12712SOL    HW240390   7.344   1.320   4.945 -0.0670  0.7079 -1.1135
12713SOL     OW40391   7.207   6.061   4.353  0.2367  0.3718 -0.2418
12713SOL    HW140392   7.193   6.140   4.405 -0.5592 -0.2404  0.4851
12713SOL    HW240393   7.149   5.996   4.391  2.8736 -1.4369  0.9801
12714SOL     OW40394   3.339   6.555   1.247  0.2644  0.4581  0.0877
12714SOL    HW140395   3.374   6.552   1.336  0.6571  1.3238 -0.0338
12714SOL    HW240396   3.362   6.642   1.215 -0.6097  0.4548 -0.5666
12715SOL     OW40397   4.893   6.618   7.034  0.0717  0.1013  0.5564
12715SOL    HW140398   4.916   6.668   7.112  0.1896 -0.7200  1.0603
12715SOL    HW240399   4.834   6.675   6.985  1.2513  1.2647  0.4468
12716SOL     OW40400   1.293   3.404   2.933  0.3307 -0.0611  0.2646
12716SOL    HW140401   1.362   3.341   2.914 -0.3449 -0.5556 -0.6886
12716SOL    HW240402   1.259   3.378   3.018  1.7436  0.6068  1.0656
12717SOL     OW40403   0.036  10.274   5.937 -0.0053  0.1089  0.2659
12717SOL    HW140404  -0.016  10.230   5.870 -0.1230  0.4804  0.1107
12717SOL    HW240405  -0.028  10.312   5.997  0.0501  1.0973 -0.2654
12718SOL     OW40406   0.638   7.286   1.150 -0.0102  0.2536  0.1570
12718SOL    HW140407   0.606   7.252   1.233 -0.3693 -1.9925 -0.8439
12718SOL    HW240408   0.671   7.373   1.171 -0.4202 -0.1152  2.5660
12719SOL     OW40409   9.683   7.715   4.846 -0.0738  0.2303  0.0509
12719SOL    HW140410   9.611   7.771   4.874 -1.0560 -1.1725  0.4406
12719SOL    HW240411   9.654   7.626   4.865  0.9539 -0.5170 -1.5782
12720SOL     OW40412   6.983   8.168   4.872  0.0358 -0.0290 -0.2854
12720SOL    HW140413   6.931   8.247   4.888 -1.6006 -1.4591  2.1278
12720SOL    HW240414   6.920   8.105   4.835 -0.0286 -1.6934  2.4024
12721SOL     OW40415   7.577   8.815   2.367  0.3106  0.1765 -0.5077
12721SOL    HW140416   7.544   8.760   2.296  0.3913  0.3952 -0.7152
12721SOL    HW240417   7.670   8.827   2.347 -0.0151  1.6019 -1.2682
12722SOL     OW40418   8.361   3.827   6.853  0.2357  0.6420 -0.6854
12722SOL    HW140419   8.268   3.843   6.833 -0.1595 -0.9336 -0.2984
12722SOL    HW240420   8.386   3.756   6.794  0.2640 -1.1144  1.3204
12723SOL     OW40421   1.510   6.151   7.759 -0.0139 -0.5232 -0.0699
12723SOL    HW140422   1.546   6.107   7.682  1.4609 -0.7843  0.7319
12723SOL    HW240423   1.512   6.244   7.736  0.6457 -0.5806 -0.2647
12724SOL     OW40424   9.145   0.782   9.259  0.0184 -0.1668 -0.2236
12724SOL    HW140425   9.155   0.736   9.176  0.0606 -0.4723 -0.0510
12724SOL    HW240426   9.054   0.811   9.260 -0.1261 -0.6224 -0.1412
12725SOL     OW40427   2.586   3.247  10.548 -0.0080  0.8427 -0.3004
12725SOL    HW140428   2.584   3.292  10.464 -1.0364  1.0269 -0.1851
12725SOL    HW240429   2.499   3.261  10.586 -0.6543 -1.8349 -0.5807
12726SOL     OW40430   9.410   6.816   0.943 -0.6245  0.3137 -0.2613
12726SOL    HW140431   9.429   6.724   0.926 -0.3654  0.5087 -1.1386
12726SOL    HW240432   9.471   6.842   1.012 -1.1013 -0.3139  0.3996
12727SOL     OW40433   2.551   6.963   9.593 -0.4559  0.3800  0.0943
12727SOL    HW140434   2.535   6.918   9.676  0.0058 -1.5929 -0.8289
12727SOL    HW240435   2.646   6.975   9.591 -0.5735  1.4248  0.3232
12728SOL     OW40436   4.490  10.619   5.125 -0.5832  0.0151  0.3141
12728SOL    HW140437   4.427  10.549   5.104 -0.0601 -1.1444  2.2827
12728SOL    HW240438   4.447  10.668   5.195 -0.0214  0.2734  0.4785
12729SOL     OW40439   4.604   5.713   1.322 -0.0875 -0.1278 -0.5684
12729SOL    HW140440   4.655   5.632   1.324  1.3870  0.7921  0.7966
12729SOL    HW240441   4.517   5.688   1.354  0.6899 -0.9457  0.9595
12730SOL     OW40442   8.290   4.450   6.437 -0.0099 -0.2418 -0.1468
12730SOL    HW140443   8.234   4.492   6.503  1.9547 -0.4454  1.7489
12730SOL    HW240444   8.359   4.514   6.420  1.2121 -1.4014  0.3173
12731SOL     OW40445   2.811   1.710   0.633 -0.5005 -0.1634  0.3413
12731SOL    HW140446   2.822   1.662   0.551 -0.9713 -0.9218  0.7184
12731SOL    HW240447   2.900   1.721   0.666 -0.3325 -0.1059 -0.1184
12732SOL     OW40448   4.779   4.805   3.532  0.4347 -0.1994  0.2755
12732SOL    HW140449   4.818   4.748   3.466 -1.3758  0.7326 -1.7582
12732SOL    HW240450   4.830   4.886   3.526  0.7415 -0.3731  0.5505
12733SOL     OW40451   3.725   2.830   3.581  0.2878 -0.0046 -0.1338
12733SOL    HW140452   3.690   2.796   3.499  0.2661 -0.5589  0.0978
12733SOL    HW240453   3.738   2.752   3.636 -0.4974  0.4192  0.6889
12734SOL     OW40454   7.312   3.501   0.580 -0.9233  0.2943 -0.1608
12734SOL    HW140455   7.333   3.413   0.609 -1.4697  0.6359  1.3375
12734SOL    HW240456   7.322   3.498   0.484  2.1588 -0.5345  0.0811
12735SOL     OW40457   1.813   0.498   5.741 -0.1952 -0.2202  0.1025
12735SOL    HW140458   1.850   0.456   5.663  1.0358 -0.3372  0.7232
12735SOL    HW240459   1.879   0.563   5.767 -1.9261  2.0100 -0.6882
12736SOL     OW40460   8.088   9.084   9.749  0.0059  0.0412  0.4632
12736SOL    HW140461   8.068   9.040   9.831 -1.1267  0.2094  0.2909
12736SOL    HW240462   8.088   9.014   9.683  3.2535 -0.5074  0.8811
12737SOL     OW40463   6.005   4.856   9.477  0.3359  0.0037 -1.0582
12737SOL    HW140464   5.950   4.784   9.446 -0.4439  0.4719 -0.8218
12737SOL    HW240465   6.072   4.814   9.531  0.1985 -0.5850 -1.3367
12738SOL     OW40466   2.303   4.668   5.901  0.1868 -0.0036  0.0196
12738SOL    HW140467   2.328   4.609   5.829  2.2745 -1.2467  1.6394
12738SOL    HW240468   2.335   4.754   5.874 -0.5573 -0.0853 -1.2263
12739SOL     OW40469   1.629   4.412   3.482  0.1202 -0.6204 -0.6383
12739SOL    HW140470   1.595   4.437   3.396 -0.3471 -1.1368 -0.6158
12739SOL    HW240471   1.614   4.317   3.486 -0.0107 -0.5744  0.0741
12740SOL     OW40472   1.894   1.028   2.846 -0.1452  0.5062  0.2110
12740SOL    HW140473   1.803   1.049   2.867 -1.2427 -1.9825 -1.6633
12740SOL    HW240474   1.910   1.072   2.763 -0.6955 -1.4458 -0.9891
12741SOL     OW40475   9.427   5.432   2.511  0.2462 -0.6631 -0.7675
12741SOL    HW140476   9.500   5.478   2.552 -0.6544 -1.4238  1.8605
12741SOL    HW240477   9.411   5.480   2.429 -1.1683  4.4196  2.0473
12742SOL     OW40478   2.584   5.456   8.676  0.3575  0.2540 -0.6422
12742SOL    HW140479   2.606   5.431   8.766 -2.6923  1.3070  0.5061
12742SOL    HW240480   2.555   5.374   8.636 -3.1529  0.4675  1.0451
12743SOL     OW40481   7.891   7.604   5.986 -0.2606 -0.3998  0.0187
12743SOL    HW140482   7.970   7.599   6.039  1.3764 -2.6413 -2.3787
12743SOL    HW240483   7.883   7.697   5.964  1.9451 -0.1561  0.0511
12744SOL     OW40484   9.052   5.519   9.652 -0.0448 -0.0560 -0.0693
12744SOL    HW140485   9.070   5.545   9.742  1.8268 -0.6861 -0.2196
12744SOL    HW240486   8.960   5.541   9.638 -0.3743  0.0268  1.9946
12745SOL     OW40487   4.216   1.538   2.738 -0.0689  0.0640  0.1673
12745SOL    HW140488   4.225   1.446   2.713 -0.6408  0.1960 -0.5670
12745SOL    HW240489   4.224   1.538   2.833 -0.6749 -0.8289  0.2345
12746SOL     OW40490   1.364   5.793  10.585  0.5502  0.3288  0.6049
12746SOL    HW140491   1.328   5.875  10.617  3.5646  1.4504  1.4226
12746SOL    HW240492   1.389   5.811  10.494  0.9704  0.2395  0.6995
12747SOL     OW40493   2.218   7.546   5.343  0.6566  0.9150  0.6335
12747SOL    HW140494   2.242   7.570   5.253 -1.3196  0.1227 -0.1678
12747SOL    HW240495   2.123   7.551   5.344  0.4680 -1.4431  1.9651
12748SOL     OW40496   0.204   2.993   7.424 -0.0220 -0.9556 -0.1910
12748SOL    HW140497   0.187   3.011   7.517 -1.1164 -3.9594  0.2978
12748SOL    HW240498   0.289   2.949   7.423  0.0028 -0.9041 -0.6446
12749SOL     OW40499   8.703   0.022   5.944  0.7502 -0.1614 -0.5130
12749SOL    HW140500   8.751   0.089   5.992 -1.6475  0.7082  0.8297
12749SOL    HW240501   8.764  -0.052   5.940  1.8855  0.5177  1.9319
12750SOL     OW40502   7.270   5.499   2.619  0.0248  0.1200  0.0667
12750SOL    HW140503   7.231   5.442   2.685  0.0291 -0.1963 -0.1983
12750SOL    HW240504   7.333   5.443   2.574 -1.0418 -0.1054 -1.2086
12751SOL     OW40505   0.626   9.452   6.780  0.2967 -0.0618 -0.3814
12751SOL    HW140506   0.597   9.370   6.739 -1.5069  0.1555  0.3773
12751SOL    HW240507   0.717   9.462   6.751  0.1696 -1.6853 -1.4924
12752SOL     OW40508   2.675   6.296   5.997 -0.1771  0.2884  0.2760
12752SOL    HW140509   2.660   6.386   5.967 -0.1844  0.6276  1.2511
12752SOL    HW240510   2.687   6.246   5.917 -1.5104  0.9166 -0.3517
12753SOL     OW40511  10.507   0.588   8.998  0.4754 -0.3246  0.5040
12753SOL    HW140512  10.440   0.562   9.062 -0.3669  1.2780  0.3194
12753SOL    HW240513  10.473   0.558   8.914 -1.0959  2.2862  0.1236
12754SOL     OW40514   0.288   6.883   2.074 -0.2344 -0.4338  0.1395
12754SOL    HW140515   0.334   6.915   2.152  0.4380  1.7064 -1.0521
12754SOL    HW240516   0.268   6.962   2.024 -0.2371 -1.7666 -2.0878
12755SOL     OW40517   2.686   6.519   1.969  0.6836  0.0348  0.5629
12755SOL    HW140518   2.667   6.444   2.024  0.2498 -1.1805 -1.1584
12755SOL    HW240519   2.633   6.590   2.005  0.6274 -0.6323  1.8390
12756SOL     OW40520   7.894   2.271   9.157 -0.3669 -0.5950  0.5492
12756SOL    HW140521   7.982   2.308   9.157  1.1891 -3.9511  0.6334
12756SOL    HW240522   7.851   2.312   9.082  0.1429  3.1813  2.0433
12757SOL     OW40523   2.005   9.498   1.666  0.1892  0.3252  0.1758
12757SOL    HW140524   1.940   9.539   1.609 -0.0064  1.7979  1.4186
12757SOL    HW240525   2.087   9.501   1.616 -0.2785  0.2340 -0.6047
12758SOL     OW40526   2.383   1.763   7.603 -0.1297 -0.4694  0.6821
12758SOL    HW140527   2.342   1.683   7.636  2.7050 -1.8016  1.3002
12758SOL    HW240528   2.397   1.817   7.681 -1.2596  0.2972  0.3794
12759SOL     OW40529   5.056  10.384  10.325 -0.0518  0.4331 -0.4157
12759SOL    HW140530   4.977  10.436  10.315 -1.3347 -1.3274  0.0467
12759SOL    HW240531   5.101  10.421  10.401 -1.2712  0.4580  0.3026
12760SOL     OW40532   9.286  10.300   8.392  0.2365  0.0686  0.5464
12760SOL    HW140533   9.227  10.354   8.444  0.7751  0.8047  0.4005
12760SOL    HW240534   9.303  10.351   8.313 -0.0132 -0.7408 -0.0457
12761SOL     OW40535   5.399   6.815   2.327  0.2508 -0.2433 -0.0553
12761SOL    HW140536   5.403   6.719   2.328  1.3650 -0.2325 -1.0039
12761SOL    HW240537   5.489   6.842   2.345  0.0524  0.6186 -0.3303
12762SOL     OW40538   6.176   5.351   7.785  0.1808 -0.3986  0.0979
12762SOL    HW140539   6.209   5.419   7.844  2.5771  0.1985 -1.7319
12762SOL    HW240540   6.171   5.272   7.838 -1.0083  0.7897  1.8553
12763SOL     OW40541   2.758   6.429   0.103  0.3688  0.7916  0.6364
12763SOL    HW140542   2.851   6.435   0.081  0.1576 -1.3181 -1.2766
12763SOL    HW240543   2.713   6.452   0.021 -0.6711 -1.1509  0.6133
12764SOL     OW40544   1.092   0.409   2.443 -0.4637 -0.7584  0.0212
12764SOL    HW140545   1.046   0.426   2.526 -1.1669  0.8076 -0.6493
12764SOL    HW240546   1.132   0.493   2.420  1.6537 -1.7558 -0.1101
12765SOL     OW40547   1.940   9.131   4.736  0.0823 -0.0133  0.3050
12765SOL    HW140548   1.959   9.078   4.659 -2.5394 -0.0022 -0.4472
12765SOL    HW240549   1.955   9.222   4.708 -1.3137  0.0274 -0.4048
12766SOL     OW40550   6.877   0.720   3.505 -0.0443  0.1071  0.0927
12766SOL    HW140551   6.795   0.726   3.457  0.8441  0.2707 -1.4794
12766SOL    HW240552   6.868   0.784   3.575 -0.9698  0.6785 -0.5184
12767SOL     OW40553   3.542   4.162   0.004 -0.6624 -0.6645 -0.4016
12767SOL    HW140554   3.581   4.098   0.063  1.1612  1.3146  0.7190
12767SOL    HW240555   3.610   4.230  -0.005 -2.6855  1.4073 -1.0078
12768SOL     OW40556   8.294   4.754   2.943 -0.3338  0.2250 -0.4744
12768SOL    HW140557   8.260   4.733   2.856 -0.4346  0.6692 -0.5444
12768SOL    HW240558   8.249   4.835   2.968 -0.1506  0.2147 -0.0968
12769SOL     OW40559   7.939   5.975   7.817  0.5726 -0.4178  0.4570
12769SOL    HW140560   7.844   5.965   7.811  0.6314 -0.2925 -1.6445
12769SOL    HW240561   7.952   6.060   7.859 -0.2722 -0.0159 -0.0631
12770SOL     OW40562   7.537   5.415   1.247  0.0013  0.1857  0.0113
12770SOL    HW140563   7.470   5.356   1.213  0.4454 -0.4147  0.1661
12770SOL    HW240564   7.539   5.487   1.184  0.2896 -0.5467 -0.8337
12771SOL     OW40565   4.334   0.667   2.278 -0.0433 -0.8229  0.2056
12771SOL    HW140566   4.368   0.685   2.190  0.3308 -0.7674  0.3583
12771SOL    HW240567   4.284   0.586   2.269  0.6206 -1.2273  0.0920
12772SOL     OW40568  10.632   7.718   1.877  0.0532  0.2565 -0.4039
12772SOL    HW140569  10.656   7.625   1.884  0.8423  0.5272  0.6085
12772SOL    HW240570  10.545   7.717   1.837  1.1175 -0.8148 -2.9533
12773SOL     OW40571   7.735   4.458   7.600 -0.4235 -0.1237  0.1870
12773SOL    HW140572   7.695   4.371   7.606  1.7499 -1.0990  1.6528
12773SOL    HW240573   7.762   4.478   7.689 -2.3912  2.8927  0.2396
12774SOL     OW40574   1.201   2.506   5.322 -0.0696  0.3756  0.1840
12774SOL    HW140575   1.191   2.485   5.230 -1.8388  1.9022 -0.0550
12774SOL    HW240576   1.258   2.583   5.323  2.1393 -1.1835  0.6304
12775SOL     OW40577   3.353   8.641   4.877  0.2444 -0.1918 -0.2298
12775SOL    HW140578   3.376   8.594   4.958  1.6589 -1.3119 -1.2337
12775SOL    HW240579   3.291   8.583   4.833  1.4301 -0.8220 -1.1253
12776SOL     OW40580   1.500   5.476   1.806 -0.2636 -0.3840  0.1584
12776SOL    HW140581   1.406   5.474   1.823 -0.3785 -0.3969 -0.4550
12776SOL    HW240582   1.524   5.568   1.812 -0.1398 -0.4740  1.2071
12777SOL     OW40583   7.864   2.440   4.629  0.1054  0.1470  0.2094
12777SOL    HW140584   7.782   2.391   4.630  0.1974 -0.0060  0.3790
12777SOL    HW240585   7.928   2.379   4.666 -0.1259  1.0162  2.1511
12778SOL     OW40586   9.750   9.896   5.303 -0.5164  0.3146 -0.3997
12778SOL    HW140587   9.699   9.840   5.244 -0.7299  0.8972 -0.7739
12778SOL    HW240588   9.726   9.867   5.390  0.2554 -0.9711 -0.5770
12779SOL     OW40589   9.346   5.011   2.207  0.3218 -0.5337 -0.4673
12779SOL    HW140590   9.361   5.079   2.273  1.7248 -0.0810 -1.2055
12779SOL    HW240591   9.251   5.002   2.203  0.1365  0.9004  0.1532
12780SOL     OW40592   0.762  10.103   7.516 -0.4306 -0.0838 -0.2142
12780SOL    HW140593   0.706  10.034   7.553  0.5437  0.5601  2.7449
12780SOL    HW240594   0.707  10.180   7.514 -0.2343  0.1209  1.0162
12781SOL     OW40595   9.759   5.664   6.765 -0.3742  0.0682 -0.9201
12781SOL    HW140596   9.851   5.667   6.791  0.1392  1.1325 -2.6439
12781SOL    HW240597   9.750   5.581   6.718  0.0456  0.4779 -1.7592
12782SOL     OW40598   1.539   9.521   6.329 -0.0538  0.1458 -0.9941
12782SOL    HW140599   1.481   9.445   6.334 -0.7647  0.7406  0.8200
12782SOL    HW240600   1.616   9.495   6.380  1.2463 -0.5316 -3.1470
12783SOL     OW40601   6.107   5.662   4.192 -0.1282  0.6215  0.3121
12783SOL    HW140602   6.164   5.588   4.171  0.3496  1.4965 -1.7295
12783SOL    HW240603   6.020   5.634   4.163 -0.0364  0.6678 -0.0134
12784SOL     OW40604   5.900   2.258   4.717 -0.4801  0.0615  0.4059
12784SOL    HW140605   5.901   2.345   4.677 -1.3245  0.2590  0.7845
12784SOL    HW240606   5.809   2.229   4.709 -0.5608 -0.1118  1.7134
12785SOL     OW40607   4.890   2.780   7.163 -0.4402 -0.0792 -0.6658
12785SOL    HW140608   4.897   2.772   7.068 -0.2502 -0.1463 -0.6466
12785SOL    HW240609   4.818   2.720   7.186  0.6539 -1.4132 -0.5845
12786SOL     OW40610   3.913   8.264   1.917  0.8178  0.1119  0.4434
12786SOL    HW140611   3.923   8.328   1.988  1.4391 -0.1743  0.6202
12786SOL    HW240612   3.895   8.316   1.839 -1.0799  0.3873  1.0055
12787SOL     OW40613   0.676   0.772   4.026 -1.0319 -0.1773 -0.5321
12787SOL    HW140614   0.669   0.856   3.981 -0.8357 -0.0939 -0.4092
12787SOL    HW240615   0.610   0.716   3.984 -2.2702  0.5045  0.4300
12788SOL     OW40616   5.855   0.799   0.663  0.0321 -0.2018  0.3206
12788SOL    HW140617   5.847   0.752   0.746  1.4443 -0.6188  0.2533
12788SOL    HW240618   5.947   0.789   0.639  0.1930  1.9193 -0.1167
12789SOL     OW40619  10.250   4.125   2.277  0.3296  0.1738 -0.1697
12789SOL    HW140620  10.277   4.039   2.312  2.9459  0.8937 -0.1810
12789SOL    HW240621  10.295   4.188   2.333  1.7203  1.4328 -2.5627
12790SOL     OW40622   6.960   1.479   7.361 -0.6210  0.5148 -0.5792
12790SOL    HW140623   7.047   1.444   7.339 -1.6696 -3.0034  0.1649
12790SOL    HW240624   6.911   1.476   7.279 -1.2201 -1.7081 -0.2058
12791SOL     OW40625   0.066   3.507   1.458  0.2867  0.2277 -0.9336
12791SOL    HW140626   0.082   3.545   1.371  1.1143  1.1224 -0.4094
12791SOL    HW240627   0.100   3.418   1.452  1.4044  0.6571 -1.1957
12792SOL     OW40628   1.461   4.769   6.056 -0.0894  0.1725 -0.3999
12792SOL    HW140629   1.369   4.759   6.079 -1.0010  0.3317 -3.5150
12792SOL    HW240630   1.494   4.836   6.117 -1.3203 -1.5207  2.3010
12793SOL     OW40631   5.384   3.919   7.920 -0.0966  0.1552 -0.0154
12793SOL    HW140632   5.404   4.000   7.874  1.4227 -0.3378 -0.2589
12793SOL    HW240633   5.447   3.916   7.992  0.8791 -1.5279 -0.8962
12794SOL     OW40634   0.854   1.069   8.095 -0.1697  0.3638 -0.5584
12794SOL    HW140635   0.886   1.046   8.007  0.9057  0.3663 -0.1843
12794SOL    HW240636   0.763   1.095   8.081  0.0749  0.6756 -1.7311
12795SOL     OW40637   3.786   5.794   1.114  0.9835  0.4446  0.1582
12795SOL    HW140638   3.854   5.859   1.135  1.2444  0.6383 -1.1981
12795SOL    HW240639   3.705   5.845   1.108  0.7967  0.3011  1.1831
12796SOL     OW40640   1.785   0.465   8.823  0.2247 -0.7000  0.2425
12796SOL    HW140641   1.866   0.417   8.807  0.3929 -0.3989  0.1949
12796SOL    HW240642   1.809   0.557   8.814 -0.0923 -0.6048  0.3619
12797SOL     OW40643   8.351   9.262   8.976  1.0453 -0.5170  0.5307
12797SOL    HW140644   8.365   9.271   9.070 -0.9134 -2.0085  1.0194
12797SOL    HW240645   8.342   9.168   8.961 -2.0314 -0.1697 -0.5383
12798SOL     OW40646  10.487   4.111   9.922  0.7407  0.3838 -0.5652
12798SOL    HW140647  10.549   4.085   9.853  0.8610 -0.0393 -0.2993
12798SOL    HW240648  10.485   4.036   9.982  1.2937  1.0912  0.3585
12799SOL     OW40649   1.534   6.333   0.325 -0.7758 -0.7022 -0.0877
12799SOL    HW140650   1.465   6.294   0.271 -1.1941 -0.7841  0.4954
12799SOL    HW240651   1.527   6.288   0.409 -0.2230 -0.4784  0.0822
12800SOL     OW40652   4.247   7.605   9.804 -0.1935  0.1204 -0.0756
12800SOL    HW140653   4.184   7.654   9.751  0.4860  0.5923 -0.4628
12800SOL    HW240654   4.245   7.648   9.889 -0.2883  0.2228 -0.1296
12801SOL     OW40655   3.413   9.693   2.818  0.0745  0.4983  0.0270
12801SOL    HW140656   3.329   9.715   2.858 -1.3701 -0.6167 -2.1682
12801SOL    HW240657   3.397   9.698   2.723  3.1184  2.4694 -0.5559
12802SOL     OW40658   0.904   1.668   2.134  0.0791 -0.4231 -0.4100
12802SOL    HW140659   0.861   1.596   2.088  0.0956 -0.2018 -0.7715
12802SOL    HW240660   0.871   1.747   2.091 -0.8227 -0.1503  0.7094
12803SOL     OW40661   8.912   1.324   8.786 -0.1697 -0.4253  0.2010
12803SOL    HW140662   8.857   1.246   8.793  0.9020 -1.2134  0.0810
12803SOL    HW240663   8.977   1.314   8.855 -1.0892  1.2726  1.3677
12804SOL     OW40664   8.537  10.043   2.257 -0.2925  0.0792  0.3573
12804SOL    HW140665   8.457  10.077   2.297 -0.3608  1.0236 -0.5490
12804SOL    HW240666   8.516  10.034   2.165 -0.4269 -2.9293  0.5890
12805SOL     OW40667   6.219   1.878   9.513 -0.6299 -0.3409 -0.0950
12805SOL    HW140668   6.299   1.907   9.556 -1.0928  0.4056  0.2872
12805SOL    HW240669   6.248   1.814   9.449  0.1884 -0.6724  0.5873
12806SOL     OW40670   5.253   3.469   3.818 -0.0170 -0.3482 -0.7619
12806SOL    HW140671   5.251   3.386   3.866  0.4479 -0.7580 -1.4254
12806SOL    HW240672   5.301   3.448   3.738 -0.4521  0.4143 -1.2263
12807SOL     OW40673   5.169   0.839   3.413 -0.3168 -0.5739 -0.1620
12807SOL    HW140674   5.255   0.870   3.384 -0.0154 -0.7015  0.5730
12807SOL    HW240675   5.184   0.809   3.502 -1.0661 -0.8780 -0.1384
12808SOL     OW40676   5.594  10.582   5.427 -0.5936 -0.1970 -0.3730
12808SOL    HW140677   5.525  10.609   5.366 -1.0266 -0.9966 -0.2521
12808SOL    HW240678   5.597  10.651   5.493 -0.7286  0.2392 -0.8191
12809SOL     OW40679   9.715   8.104   9.842  0.0325  0.3870 -0.1155
12809SOL    HW140680   9.773   8.058   9.903 -0.2401  1.7903  1.2580
12809SOL    HW240681   9.631   8.060   9.850  0.0328  0.4811  0.4332
12810SOL     OW40682   0.705   1.443   7.450  0.6353 -0.6610  0.7414
12810SOL    HW140683   0.770   1.396   7.503  0.9900 -1.1683 -0.1304
12810SOL    HW240684   0.638   1.469   7.513  0.6299 -1.9958  1.3190
12811SOL     OW40685   4.032   7.250   7.997  0.8620  0.4019 -0.2055
12811SOL    HW140686   4.120   7.262   7.962  1.4513 -2.1146  0.2544
12811SOL    HW240687   3.996   7.177   7.947 -1.2691  1.7513 -0.8056
12812SOL     OW40688   1.711   0.941   3.186  0.3995 -0.1065  0.4579
12812SOL    HW140689   1.728   1.031   3.160 -0.4876 -0.1504 -0.3362
12812SOL    HW240690   1.758   0.931   3.269  0.3174  1.1574  0.6814
12813SOL     OW40691   1.739   9.825   9.912  0.1784 -0.5070  0.1196
12813SOL    HW140692   1.700   9.810   9.826 -0.0809 -0.9615  0.3147
12813SOL    HW240693   1.808   9.760   9.920 -0.6212 -1.2925  0.7624
12814SOL     OW40694   8.579   8.126   0.290  0.2999 -0.7410  0.4104
12814SOL    HW140695   8.567   8.137   0.384 -2.2881  0.5935  0.0035
12814SOL    HW240696   8.638   8.197   0.265 -1.3221  0.7564  0.6545
12815SOL     OW40697   1.975   5.686   4.928  0.3883  0.1429 -0.3271
12815SOL    HW140698   2.063   5.722   4.940  0.8256 -0.9376 -0.0854
12815SOL    HW240699   1.970   5.616   4.993  0.1054 -1.1338 -1.6599
12816SOL     OW40700   6.167   8.305   4.117 -0.3837  0.1873 -0.2995
12816SOL    HW140701   6.230   8.327   4.186 -0.9928 -1.6649  0.9397
12816SOL    HW240702   6.221   8.268   4.047  0.1609  1.2994 -0.4942
12817SOL     OW40703   2.679   1.439   0.847 -0.0366  0.7368  0.3191
12817SOL    HW140704   2.772   1.430   0.869 -0.7527 -1.2044  3.1466
12817SOL    HW240705   2.647   1.508   0.905 -0.6964  0.0642  0.7832
12818SOL     OW40706   6.675   5.389   5.852 -0.3148  0.4466 -0.2359
12818SOL    HW140707   6.636   5.440   5.781 -0.2859 -0.5287 -0.9820
12818SOL    HW240708   6.603   5.371   5.912 -1.2381 -1.8143 -1.8806
12819SOL     OW40709   9.561   1.119   1.356 -0.2157 -0.4593  0.3681
12819SOL    HW140710   9.519   1.036   1.380  0.2559 -0.6746  0.4586
12819SOL    HW240711   9.626   1.134   1.425  1.7861 -1.5202 -1.2057
12820SOL     OW40712   4.716   3.828   3.450  1.0003  0.0802 -0.4904
12820SOL    HW140713   4.684   3.916   3.430 -0.3141 -0.3062 -0.1731
12820SOL    HW240714   4.766   3.838   3.531 -2.2556 -0.0078  1.6921
12821SOL     OW40715   0.922   7.652   5.649  0.0075  0.2803 -0.1301
12821SOL    HW140716   0.990   7.682   5.709  0.1151 -0.2284  0.0118
12821SOL    HW240717   0.844   7.642   5.705  0.1923 -0.5068 -0.0009
12822SOL     OW40718   8.874   7.562   5.433 -0.3368 -0.1759  0.0192
12822SOL    HW140719   8.955   7.525   5.468 -1.1131 -1.0073  1.0103
12822SOL    HW240720   8.901   7.642   5.388  1.2007 -1.1379 -0.8574
12823SOL     OW40721   3.089   8.737   7.601 -0.0439 -0.2681 -0.3468
12823SOL    HW140722   2.999   8.706   7.609 -0.2331  0.1978 -0.6665
12823SOL    HW240723   3.122   8.696   7.521 -0.6401  1.1757 -1.3687
12824SOL     OW40724   4.653   8.543   2.675 -0.1817 -0.0753  0.2268
12824SOL    HW140725   4.629   8.610   2.610 -0.9228  0.3620  0.9269
12824SOL    HW240726   4.739   8.570   2.706 -0.5901  0.7374  0.7056
12825SOL     OW40727   2.411   9.583   9.212 -0.3359  0.1147 -0.0510
12825SOL    HW140728   2.401   9.661   9.267  0.2411  0.8341 -0.9312
12825SOL    HW240729   2.495   9.546   9.238  0.6618  1.3000 -1.4283
12826SOL     OW40730   7.523   6.427   9.127 -0.9088 -0.0256  0.1291
12826SOL    HW140731   7.479   6.431   9.042  0.5749  0.1117 -0.6648
12826SOL    HW240732   7.553   6.336   9.134 -0.3515  0.1613  0.1554
12827SOL     OW40733   3.655   4.433   0.202  0.4142 -0.0122 -0.4387
12827SOL    HW140734   3.674   4.419   0.109 -1.0213 -2.7445 -0.4088
12827SOL    HW240735   3.736   4.406   0.247  0.5600 -0.2348 -0.8276
12828SOL     OW40736   5.298   7.363   6.544  0.5832 -0.5269  0.4272
12828SOL    HW140737   5.359   7.373   6.471 -0.1701 -5.3649 -1.2160
12828SOL    HW240738   5.352   7.337   6.618  0.9428  0.0532  0.3731
12829SOL     OW40739   5.672   0.512   8.232 -0.1481  0.3049 -0.4733
12829SOL    HW140740   5.753   0.490   8.278 -0.8906  1.3883  1.4935
12829SOL    HW240741   5.680   0.605   8.212 -0.8597  0.4139 -0.2985
12830SOL     OW40742   9.129   3.249   6.647 -0.1253  0.2156  0.0939
12830SOL    HW140743   9.182   3.303   6.706 -0.3616  1.2864 -0.6323
12830SOL    HW240744   9.163   3.161   6.657  0.8960  0.6618  0.6452
12831SOL     OW40745   2.209   7.359   1.582 -0.0569 -0.8230 -0.2612
12831SOL    HW140746   2.130   7.390   1.627  1.4432 -0.5508  2.3941
12831SOL    HW240747   2.176   7.311   1.506 -2.7766 -0.8081  0.7949
12832SOL     OW40748   9.926   9.693   0.838  0.4310 -0.2713 -0.3190
12832SOL    HW140749  10.020   9.672   0.842  0.4857  0.1506  2.2834
12832SOL    HW240750   9.923   9.788   0.849 -0.3214 -0.3384  0.0985
12833SOL     OW40751  10.179   1.959   3.073 -0.2033 -0.0566  0.0344
12833SOL    HW140752  10.110   2.017   3.040 -0.9181 -1.0254 -0.2216
12833SOL    HW240753  10.221   2.009   3.143 -1.1200  0.5819  0.1451
12834SOL     OW40754   8.511   7.533  10.321  0.4408 -0.2727 -0.2663
12834SOL    HW140755   8.438   7.493  10.368  0.0945 -0.7028 -1.1524
12834SOL    HW240756   8.558   7.584  10.388  0.4034 -1.4721  0.7019
12835SOL     OW40757   7.778   3.603   7.289 -0.4709  0.0219 -0.1047
12835SOL    HW140758   7.783   3.511   7.318 -1.2550  0.9259  3.3407
12835SOL    HW240759   7.781   3.598   7.193  0.3025 -3.5271 -0.0322
12836SOL     OW40760   2.079   6.693   7.710  0.3352 -0.2437  0.5182
12836SOL    HW140761   2.141   6.680   7.638  1.5722 -0.2145  1.5462
12836SOL    HW240762   2.021   6.617   7.705  0.8635 -0.6238 -0.0525
12837SOL     OW40763  10.571   6.797   5.814 -0.0868  0.0626  0.2921
12837SOL    HW140764  10.654   6.823   5.853 -0.2594  0.2168  0.5643
12837SOL    HW240765  10.522   6.758   5.887  0.2995 -1.3462 -0.1787
12838SOL     OW40766   5.874   0.335   1.495  0.4322 -0.3992  0.1777
12838SOL    HW140767   5.941   0.339   1.563  1.1655 -1.6282 -0.4266
12838SOL    HW240768   5.848   0.426   1.482  1.9358  0.1139  0.4888
12839SOL     OW40769   2.540   6.110   1.921 -0.3097  0.1084  0.2657
12839SOL    HW140770   2.461   6.058   1.904  0.1459 -0.3609 -0.4577
12839SOL    HW240771   2.610   6.045   1.926 -0.1148  0.3891  2.0831
12840SOL     OW40772   1.282   5.547   7.318  0.2793 -0.6438  0.1821
12840SOL    HW140773   1.249   5.637   7.315  0.2731 -0.6660 -0.7124
12840SOL    HW240774   1.376   5.554   7.301  0.1660 -0.8469 -0.6078
12841SOL     OW40775   8.312   5.269   2.826  0.5212  0.4118 -0.0443
12841SOL    HW140776   8.235   5.214   2.812 -0.4954  1.6781  0.3717
12841SOL    HW240777   8.298   5.308   2.912  1.4450  0.9444 -0.1278
12842SOL     OW40778   1.693   2.655   2.182 -0.3241  0.0433  1.2115
12842SOL    HW140779   1.631   2.703   2.128  0.0525  0.6618  1.3145
12842SOL    HW240780   1.698   2.568   2.143 -2.5147 -0.5766  2.1901
12843SOL     OW40781   5.184   6.383   7.198 -0.3778 -0.0913 -0.0537
12843SOL    HW140782   5.091   6.363   7.194 -0.3402 -1.2320  2.4781
12843SOL    HW240783   5.224   6.302   7.230  1.1186  1.1309  1.3735
12844SOL     OW40784   7.620   4.204   5.620  0.3554 -0.1903  0.2925
12844SOL    HW140785   7.606   4.110   5.621  0.9598 -0.3094 -0.9489
12844SOL    HW240786   7.539   4.241   5.657  0.9843 -1.2343  2.9856
12845SOL     OW40787   7.413   5.946   5.858 -0.0981  0.5043 -0.1965
12845SOL    HW140788   7.384   5.856   5.877 -0.0801  0.4459 -0.4356
12845SOL    HW240789   7.422   5.987   5.944  0.1748  0.1868 -0.0692
12846SOL     OW40790   6.916   9.093   4.256 -0.1417  0.6309 -0.5188
12846SOL    HW140791   6.957   9.071   4.173  0.7403 -2.3023  0.5816
12846SOL    HW240792   6.963   9.171   4.286  1.6798 -0.0994 -1.3214
12847SOL     OW40793   3.561   3.372   6.714  0.3699  0.0903 -0.3265
12847SOL    HW140794   3.504   3.392   6.641 -0.8207 -0.7274  0.3364
12847SOL    HW240795   3.507   3.388   6.792  0.5555 -1.9286  0.2942
12848SOL     OW40796   5.636   4.456   0.971  0.2178 -0.1000 -0.1929
12848SOL    HW140797   5.621   4.391   1.040  1.3187  0.0621  0.2131
12848SOL    HW240798   5.687   4.525   1.013 -2.0003  1.6923 -0.2644
12849SOL     OW40799   2.801   3.839   1.572 -0.0084  0.5690  0.0877
12849SOL    HW140800   2.820   3.932   1.568 -0.7864  0.7002 -0.7634
12849SOL    HW240801   2.722   3.828   1.520 -0.8605 -0.3323  1.5197
12850SOL     OW40802   1.895   7.556   9.662 -0.1660  0.2364 -0.2504
12850SOL    HW140803   1.952   7.480   9.648 -0.6421  0.1381 -1.8631
12850SOL    HW240804   1.808   7.519   9.676 -0.4155  0.4588 -1.1287
12851SOL     OW40805   9.508   8.290   8.228  0.1811 -0.2777  0.0634
12851SOL    HW140806   9.511   8.198   8.256 -1.7833 -0.5532 -0.5446
12851SOL    HW240807   9.471   8.288   8.140  1.8768  0.9843 -0.7396
12852SOL     OW40808   1.981  10.200   9.350 -0.4794 -0.0221  0.3640
12852SOL    HW140809   1.921  10.136   9.388 -0.3589 -0.1362  0.3614
12852SOL    HW240810   1.941  10.222   9.265 -0.4244 -0.2333  0.2829
12853SOL     OW40811   5.653   8.853   2.414  0.3480  0.0020  0.7215
12853SOL    HW140812   5.561   8.829   2.411  0.5784 -0.8710 -0.0366
12853SOL    HW240813   5.670   8.874   2.506 -1.0785  2.2415  0.5587
12854SOL     OW40814   8.356   8.345   9.965  0.5601 -0.9311  0.0174
12854SOL    HW140815   8.265   8.358   9.992  0.2767 -0.5918 -1.0337
12854SOL    HW240816   8.358   8.256   9.929 -0.0071 -0.0971 -2.2845
12855SOL     OW40817   1.914   2.553   8.713  0.4135  0.0735 -0.2081
12855SOL    HW140818   1.923   2.460   8.733  1.7952 -0.0169 -1.0982
12855SOL    HW240819   1.846   2.557   8.646  0.5365 -0.3278 -0.3568
12856SOL     OW40820   7.468   5.502  10.269 -0.6160 -0.0957  0.0568
12856SOL    HW140821   7.521   5.431  10.305 -2.7723 -1.1322  1.3875
12856SOL    HW240822   7.467   5.569  10.337 -0.1354  0.3988 -0.4154
12857SOL     OW40823   5.484   4.016   9.261 -0.0745 -1.3584 -0.2675
12857SOL    HW140824   5.444   4.103   9.255  2.4409 -0.2166 -2.5669
12857SOL    HW240825   5.423   3.958   9.216  0.0057  0.0100 -2.2572
12858SOL     OW40826   1.762   1.698   2.685 -0.1672 -0.2121 -0.5682
12858SOL    HW140827   1.766   1.740   2.771  0.2773  1.1676 -1.2339
12858SOL    HW240828   1.717   1.615   2.701 -1.3141  0.6122  0.7760
12859SOL     OW40829  10.151   1.945   0.508  0.1668 -0.5998  0.1397
12859SOL    HW140830  10.149   2.037   0.481  1.0645 -1.3079 -2.7055
12859SOL    HW240831  10.085   1.903   0.454 -1.4646 -1.4399  2.6185
12860SOL     OW40832   2.484   3.545   1.417  0.0250 -1.0904  0.2766
12860SOL    HW140833   2.444   3.580   1.496 -1.2545  0.8828 -1.1543
12860SOL    HW240834   2.567   3.593   1.409 -0.7586  0.1806 -0.5712
12861SOL     OW40835   3.006   5.976   4.930 -0.0842  0.6400 -0.0466
12861SOL    HW140836   3.038   6.066   4.941  0.4449  0.4193  0.2445
12861SOL    HW240837   2.973   5.952   5.016 -0.6401  0.7079 -0.2370
12862SOL     OW40838   2.462   4.562  10.404 -0.1246  0.0411  0.1100
12862SOL    HW140839   2.402   4.623  10.447 -0.6871 -0.2498 -0.2506
12862SOL    HW240840   2.409   4.485  10.387  0.5790 -0.5499  0.5540
12863SOL     OW40841   7.792   0.191   8.777 -0.2044  0.5021 -0.0674
12863SOL    HW140842   7.862   0.179   8.713  1.6054  0.9020  1.7123
12863SOL    HW240843   7.719   0.227   8.727  0.6087 -0.5641 -2.1219
12864SOL     OW40844   1.814   3.912   6.566  1.0057 -0.0585  0.6494
12864SOL    HW140845   1.807   3.939   6.475 -0.9185 -1.2108  0.4057
12864SOL    HW240846   1.898   3.947   6.595  0.5686  2.4281 -0.8376
12865SOL     OW40847   5.304   5.130   6.929  0.1540  0.5788 -0.0939
12865SOL    HW140848   5.283   5.102   7.019  1.3746  0.3618  0.1467
12865SOL    HW240849   5.224   5.115   6.880  0.0259 -1.0925  0.5601
12866SOL     OW40850   1.291   4.172   5.858 -0.2563  0.2559  0.0912
12866SOL    HW140851   1.213   4.135   5.899 -0.7194  1.1618  0.0549
12866SOL    HW240852   1.269   4.180   5.766  0.7044 -1.5650 -0.3414
12867SOL     OW40853   0.274   0.337  10.464  0.1302 -0.0446  0.1629
12867SOL    HW140854   0.254   0.389  10.542  0.5773 -0.3375  0.4798
12867SOL    HW240855   0.369   0.336  10.460  0.1879  2.5839 -2.1520
12868SOL     OW40856   5.509   6.963   5.672  0.5031 -0.2096 -0.4375
12868SOL    HW140857   5.533   6.893   5.612 -0.8831 -1.1580  0.0736
12868SOL    HW240858   5.423   6.992   5.641  0.1431 -0.1484  0.6085
12869SOL     OW40859   0.736   4.135   2.322 -0.0492 -0.0176 -0.2250
12869SOL    HW140860   0.718   4.049   2.284  0.7327 -0.3848  0.2281
12869SOL    HW240861   0.794   4.178   2.259  0.9963 -0.5079  0.3911
12870SOL     OW40862   7.918   5.134   0.063  0.1968  0.4083 -0.0765
12870SOL    HW140863   7.851   5.194   0.094  1.2093  0.6826  1.6780
12870SOL    HW240864   7.961   5.182  -0.008  0.3193  1.3418  0.6145
12871SOL     OW40865   7.873   9.556   2.850 -0.4085 -0.3821 -0.6636
12871SOL    HW140866   7.885   9.462   2.839 -2.5797 -0.6438 -1.3357
12871SOL    HW240867   7.783   9.572   2.821 -0.3361  1.7960  0.1304
12872SOL     OW40868   9.018  10.060   1.809  0.4914 -0.1830  0.2830
12872SOL    HW140869   9.107  10.033   1.784  0.9682  1.6165 -0.0951
12872SOL    HW240870   9.002  10.139   1.758 -1.4347 -0.5882  0.1949
12873SOL     OW40871   3.752   8.404   5.123  0.2459 -0.2304  0.1220
12873SOL    HW140872   3.691   8.361   5.183 -0.1847  1.5105  0.9657
12873SOL    HW240873   3.711   8.394   5.037 -2.0047  2.0578  0.8134
12874SOL     OW40874   0.159   1.856   2.851  0.2880 -0.3966  0.5293
12874SOL    HW140875   0.148   1.800   2.928  1.2086 -0.3961  0.6738
12874SOL    HW240876   0.144   1.945   2.884 -0.0720 -0.4601  0.5399
12875SOL     OW40877   3.035   3.719   0.028  0.1702  0.5356 -0.5202
12875SOL    HW140878   3.116   3.769   0.038 -0.6301  1.7454  0.0426
12875SOL    HW240879   3.002   3.743  -0.059 -1.1205  2.4030  0.4346
12876SOL     OW40880   7.184   4.549   2.803 -0.8031  0.5524  0.4032
12876SOL    HW140881   7.223   4.636   2.804 -1.4018  0.8267  0.9509
12876SOL    HW240882   7.258   4.489   2.806 -0.2435  0.9682 -2.1792
12877SOL     OW40883   1.508   1.104   4.476 -0.1373 -0.0183  0.0373
12877SOL    HW140884   1.552   1.064   4.401  0.6372  1.5629 -0.3967
12877SOL    HW240885   1.577   1.116   4.541 -0.7907 -1.3209  1.0317
12878SOL     OW40886   6.938   2.767   9.785  0.1556 -0.3478 -0.1988
12878SOL    HW140887   6.953   2.829   9.714  0.1356  0.1054  0.1854
12878SOL    HW240888   7.021   2.762   9.832  0.5518 -1.6048 -0.9811
12879SOL     OW40889   8.523   6.013  10.626  0.2456  0.0572 -0.4525
12879SOL    HW140890   8.602   5.960  10.628  1.3744  1.6989  1.0485
12879SOL    HW240891   8.513   6.044  10.716 -0.7103  1.8781 -1.1469
12880SOL     OW40892   8.876   3.475   4.080 -0.0964  0.1025  0.1683
12880SOL    HW140893   8.863   3.411   4.150 -2.4243 -1.0287 -1.1901
12880SOL    HW240894   8.970   3.489   4.078  0.3194 -1.9712  1.6533
12881SOL     OW40895   7.386   5.862   8.675  0.3362 -0.1425  0.6009
12881SOL    HW140896   7.339   5.792   8.630  3.0088 -1.4327 -0.3965
12881SOL    HW240897   7.387   5.835   8.767 -2.6822  1.0654  1.0933
12882SOL     OW40898   2.149   9.153   0.290 -0.3294  0.4146 -0.2002
12882SOL    HW140899   2.076   9.156   0.352 -0.3339 -1.8411 -0.0414
12882SOL    HW240900   2.225   9.178   0.343 -0.4041 -1.0471  0.6574
12883SOL     OW40901   2.136   2.849   4.439 -0.5152 -0.4711 -0.2363
12883SOL    HW140902   2.193   2.788   4.486 -1.6871  0.2209  2.2704
12883SOL    HW240903   2.052   2.804   4.432 -1.1925  0.5013  1.0457
12884SOL     OW40904   8.665   8.863   7.403 -0.0803  0.1182  0.3608
12884SOL    HW140905   8.734   8.833   7.343 -0.5768 -2.1128  0.8117
12884SOL    HW240906   8.587   8.869   7.347  0.0615  0.7773  0.2313
12885SOL     OW40907   4.218   7.912  10.530  0.3741 -0.4867 -0.1331
12885SOL    HW140908   4.171   7.830  10.546 -0.9889  0.4829  1.0034
12885SOL    HW240909   4.218   7.957  10.615 -1.2074  1.8570 -1.2790
12886SOL     OW40910   0.742   5.164   3.996 -0.4160 -0.0875  0.8123
12886SOL    HW140911   0.779   5.252   3.997 -0.1514 -0.1965  1.6700
12886SOL    HW240912   0.756   5.131   4.085  2.3122 -2.1586 -0.2476
12887SOL     OW40913   3.616   5.635   1.964  0.3276 -0.7710  0.0527
12887SOL    HW140914   3.565   5.558   1.989 -0.1339 -0.5212 -0.1123
12887SOL    HW240915   3.599   5.645   1.870  0.8334 -0.7998 -0.0428
12888SOL     OW40916   8.820   5.207   7.229  0.7302  0.1736 -0.4402
12888SOL    HW140917   8.787   5.124   7.195 -0.8058  0.7221 -0.3506
12888SOL    HW240918   8.763   5.273   7.191  2.4513  1.2888 -1.1675
12889SOL     OW40919   5.396   3.506   7.953  0.6111  0.3453  0.2779
12889SOL    HW140920   5.316   3.503   7.900  1.0615  1.3578 -0.4996
12889SOL    HW240921   5.419   3.414   7.967  0.0381  0.0508 -0.6270
12890SOL     OW40922   5.536   9.424   7.938 -0.1133  0.5126 -0.4290
12890SOL    HW140923   5.466   9.447   8.000  0.6932 -2.4017  1.7929
12890SOL    HW240924   5.600   9.376   7.991  1.7981 -0.1329 -3.1185
12891SOL     OW40925   5.099   6.076   7.253 -0.1733 -0.0298 -0.1635
12891SOL    HW140926   5.137   5.993   7.282  0.1717  0.4467  0.8087
12891SOL    HW240927   5.034   6.097   7.320 -1.1783 -0.1274 -1.0693
12892SOL     OW40928  10.075   2.374   1.621  0.3073 -0.2106 -0.5024
12892SOL    HW140929  10.134   2.376   1.546  0.6234 -0.3726 -0.2611
12892SOL    HW240930  10.033   2.460   1.621  1.5902  0.4429  0.1521
12893SOL     OW40931   8.114   5.335   8.125 -0.0090 -0.1577 -0.4872
12893SOL    HW140932   8.068   5.360   8.045 -1.2724  1.5528  0.7047
12893SOL    HW240933   8.069   5.383   8.195  2.6172  0.3869  0.9649
12894SOL     OW40934   7.679   4.268   2.418 -0.2087  0.2131 -0.2604
12894SOL    HW140935   7.608   4.242   2.476 -0.4126 -1.0719 -1.0492
12894SOL    HW240936   7.667   4.214   2.340  0.2995  1.6075 -1.3369
12895SOL     OW40937   5.039   7.574   3.447 -0.5864  0.3611 -0.3634
12895SOL    HW140938   5.091   7.553   3.525 -1.0284  0.9151  0.0824
12895SOL    HW240939   5.064   7.664   3.425  0.5676 -0.2422 -1.6935
12896SOL     OW40940   0.626   4.220   8.606 -0.2603  0.1919 -0.0819
12896SOL    HW140941   0.692   4.290   8.608 -0.8662  0.7678  0.2887
12896SOL    HW240942   0.653   4.160   8.675 -0.6833  0.9630  0.7787
12897SOL     OW40943   8.148   7.968   2.321  0.5880  0.2356 -0.8595
12897SOL    HW140944   8.132   8.056   2.356  2.9196  0.3982 -0.0391
12897SOL    HW240945   8.242   7.954   2.332  0.0589 -3.1019  0.7302
12898SOL     OW40946   6.563   9.824   4.662 -0.1082  0.1130  0.1661
12898SOL    HW140947   6.645   9.803   4.706  0.4218  2.1855  0.2676
12898SOL    HW240948   6.496   9.817   4.731  0.1417 -0.4623  0.3545
12899SOL     OW40949   8.921   6.990   1.430 -0.2167  0.3070  0.0582
12899SOL    HW140950   8.852   6.963   1.490 -0.1628  0.4051  0.1647
12899SOL    HW240951   8.994   7.015   1.487  0.3825 -1.0518 -0.0604
12900SOL     OW40952   1.292   6.024   2.028 -0.2171  0.5622 -0.3909
12900SOL    HW140953   1.298   6.119   2.017  1.8009  0.3903 -1.1239
12900SOL    HW240954   1.383   5.993   2.025 -0.7274 -1.2830  0.9715
12901SOL     OW40955   2.170   4.757   9.980 -0.1071  0.2443  0.2303
12901SOL    HW140956   2.159   4.764  10.075 -0.2028  0.9954  0.1627
12901SOL    HW240957   2.203   4.668   9.967  1.3241  0.6159  1.1000
12902SOL     OW40958   6.256   2.273   9.494 -0.0883 -1.0320 -0.1315
12902SOL    HW140959   6.312   2.338   9.452  1.8595 -3.2067 -1.1298
12902SOL    HW240960   6.293   2.263   9.582 -1.5779  0.4998  0.7270
12903SOL     OW40961   6.974   5.896   4.051  0.4344 -1.0099 -0.6332
12903SOL    HW140962   6.951   5.871   3.962 -1.7032 -0.0151 -0.4236
12903SOL    HW240963   6.904   5.860   4.105  1.6813 -1.5819  0.6834
12904SOL     OW40964   7.462   5.309   1.976 -0.2554  0.7288  0.4654
12904SOL    HW140965   7.407   5.244   2.020  0.0583 -1.5085 -2.1798
12904SOL    HW240966   7.424   5.318   1.889  1.4989  1.8124 -0.2435
12905SOL     OW40967   5.735   1.090   0.977  0.0630 -0.0659 -0.0977
12905SOL    HW140968   5.666   1.111   0.914 -0.3348  3.9959  1.3631
12905SOL    HW240969   5.702   1.013   1.024 -1.6775 -0.4856 -1.8843
12906SOL     OW40970   1.011   8.726   4.496 -0.7132  0.3648 -0.0025
12906SOL    HW140971   1.015   8.645   4.445  0.6348  2.1988 -3.1004
12906SOL    HW240972   1.075   8.713   4.567 -0.4610 -1.2378 -0.4891
12907SOL     OW40973   3.040   9.950   4.697 -0.5605 -0.2039 -0.3664
12907SOL    HW140974   3.091  10.022   4.659  0.5792 -1.8593 -2.1049
12907SOL    HW240975   2.950   9.970   4.673 -0.1399  0.1128 -1.7840
12908SOL     OW40976   3.584   7.238   3.599  0.1847  0.5266 -0.2148
12908SOL    HW140977   3.594   7.327   3.563 -1.9688  0.7063 -0.4816
12908SOL    HW240978   3.614   7.181   3.528 -0.3608  0.9987 -0.8430
12909SOL     OW40979   9.416   1.490   8.864 -0.1154  0.3672 -0.1706
12909SOL    HW140980   9.430   1.408   8.911  3.4053  1.6900  1.4410
12909SOL    HW240981   9.364   1.465   8.787 -1.2158 -2.8836  1.4516
12910SOL     OW40982   9.160   5.473   2.286  0.3628 -0.8925 -0.0628
12910SOL    HW140983   9.151   5.379   2.270  1.5789 -0.8388 -1.2770
12910SOL    HW240984   9.255   5.489   2.281  0.2623  0.2447  1.1102
12911SOL     OW40985  10.299   8.868   0.888  0.0384 -0.1952 -0.1164
12911SOL    HW140986  10.376   8.873   0.832 -0.3256 -2.5418 -0.9359
12911SOL    HW240987  10.327   8.907   0.971  1.4196  0.8730 -1.0444
12912SOL     OW40988  10.390   6.853   8.976 -0.5838 -0.1188 -0.3759
12912SOL    HW140989  10.379   6.926   9.037  0.4806 -0.3682  0.1435
12912SOL    HW240990  10.419   6.895   8.894  0.7165  0.0128  0.1244
12913SOL     OW40991   3.177   2.782  10.090  0.1614 -0.6204  0.1011
12913SOL    HW140992   3.268   2.752  10.092  0.1301 -0.8517 -1.2166
12913SOL    HW240993   3.182   2.875  10.070  0.1109 -0.6817 -0.2092
12914SOL     OW40994   5.040   5.807   2.422 -0.6774 -0.3072 -0.1196
12914SOL    HW140995   5.001   5.777   2.340 -1.2529  0.7877 -0.2596
12914SOL    HW240996   4.966   5.830   2.477 -0.3073 -1.2475  0.8179
12915SOL     OW40997   0.504   3.918   1.998 -0.3710  0.0193  0.1747
12915SOL    HW140998   0.509   3.850   1.931 -0.1098  0.0796  0.1336
12915SOL    HW240999   0.436   3.887   2.058 -0.2669 -0.2720  0.1449
12916SOL     OW41000   2.880   0.256   7.089  0.3358 -0.0053 -0.3676
12916SOL    HW141001   2.825   0.244   7.166 -0.2518 -0.9272 -0.9202
12916SOL    HW241002   2.939   0.181   7.089  0.9939  0.5041 -0.2830
12917SOL     OW41003   4.815   2.216   9.523  0.0198  0.3135 -0.2694
12917SOL    HW141004   4.864   2.134   9.517 -0.1938  0.1142  0.5667
12917SOL    HW241005   4.808   2.232   9.617 -1.8384  0.1442 -0.3451
12918SOL     OW41006   6.804   9.245   3.465 -0.8623  0.0018 -0.1985
12918SOL    HW141007   6.840   9.212   3.383 -0.4453  1.8697 -0.8359
12918SOL    HW241008   6.860   9.206   3.533  0.5779  0.5714 -0.9946
12919SOL     OW41009   3.560   1.029   0.677  0.1589 -0.6601  0.1256
12919SOL    HW141010   3.586   0.946   0.637 -1.7354 -0.7551 -1.0165
12919SOL    HW241011   3.486   1.006   0.733  1.2054 -0.1065  1.8042
12920SOL     OW41012   6.726   7.578   7.641  0.0213  0.1894  0.1049
12920SOL    HW141013   6.657   7.563   7.705  1.0039  0.9323  1.3854
12920SOL    HW241014   6.800   7.608   7.693  1.2507 -0.3949 -1.2573
12921SOL     OW41015   4.143   1.088   1.958  0.4618 -0.4443  0.2737
12921SOL    HW141016   4.149   1.016   1.895  1.0363 -0.7822  0.7143
12921SOL    HW241017   4.069   1.140   1.927  1.0305 -0.3272 -0.9847
12922SOL     OW41018   2.531  10.590   8.374 -0.1964 -0.0464  0.5126
12922SOL    HW141019   2.443  10.609   8.406 -0.2082  1.4820 -0.3371
12922SOL    HW241020   2.589  10.615   8.447 -0.3353  1.6335  0.1038
12923SOL     OW41021  10.157   5.422   1.087  0.8067 -0.0063 -0.0492
12923SOL    HW141022  10.085   5.427   1.023  1.6632 -0.2626 -1.0679
12923SOL    HW241023  10.136   5.347   1.141 -0.5519  0.9215  0.7663
12924SOL     OW41024   6.746   1.202   7.782 -0.9009 -0.0951 -0.4081
12924SOL    HW141025   6.786   1.129   7.735  1.7087  0.7390  0.3442
12924SOL    HW241026   6.686   1.160   7.844 -0.2610 -1.5306 -0.7065
12925SOL     OW41027   0.327   2.749   7.708 -0.0883 -0.0806 -0.4099
12925SOL    HW141028   0.373   2.768   7.626  2.1639 -0.9864  0.5472
12925SOL    HW241029   0.246   2.706   7.682  0.1886  0.3965 -2.1696
12926SOL     OW41030   4.469   2.398   8.822 -0.3719 -0.3933  0.3870
12926SOL    HW141031   4.555   2.357   8.811 -0.2663 -0.3754  1.1021
12926SOL    HW241032   4.419   2.334   8.872  0.1776  0.8161  2.6095
12927SOL     OW41033   6.314   7.303   4.713 -0.2264  0.6194 -0.2212
12927SOL    HW141034   6.290   7.308   4.805  1.9172 -2.9593  0.7476
12927SOL    HW241035   6.374   7.376   4.699 -0.4732  1.1262  1.2423
12928SOL     OW41036  10.108   7.776   0.344 -0.1239 -0.2852  0.0231
12928SOL    HW141037  10.125   7.682   0.332  1.5512  0.1902 -1.7384
12928SOL    HW241038  10.133   7.816   0.261  1.3602  1.9958  1.4583
12929SOL     OW41039   4.926  10.055  10.090  0.3044  0.1480  0.2042
12929SOL    HW141040   4.991  10.075  10.157  1.0090 -2.6710  0.5219
12929SOL    HW241041   4.948   9.966  10.062 -0.8685  0.6615 -2.7363
12930SOL     OW41042   8.734   8.222   1.779 -0.3523 -0.0224  0.5894
12930SOL    HW141043   8.711   8.172   1.858 -0.9833  0.8528  0.9773
12930SOL    HW241044   8.769   8.156   1.719  1.7148 -0.4759  2.1821
12931SOL     OW41045   8.393   7.558   2.413  0.0079  0.0488  0.2991
12931SOL    HW141046   8.300   7.582   2.413  0.1051  0.4752 -0.6444
12931SOL    HW241047   8.436   7.627   2.361  0.8461 -0.1563  0.7009
12932SOL     OW41048   7.082   0.364   4.871 -0.1763  0.0824  0.9131
12932SOL    HW141049   7.062   0.371   4.777  2.2216 -0.8012  0.2509
12932SOL    HW241050   7.015   0.418   4.914 -0.8612  1.1781 -1.3466
12933SOL     OW41051   2.521  10.454   7.156 -0.3297 -0.0023 -0.3032
12933SOL    HW141052   2.454  10.452   7.088  0.0743  1.9135 -0.8220
12933SOL    HW241053   2.474  10.435   7.237 -1.4813  1.0451 -0.6887
12934SOL     OW41054   5.099   9.463   6.866  0.3380  0.0832  0.4002
12934SOL    HW141055   5.129   9.374   6.852  0.8305  0.5119 -1.5368
12934SOL    HW241056   5.170   9.505   6.915 -0.5682 -0.9356  2.7576
12935SOL     OW41057   1.441   9.117   6.729 -0.0658 -0.0244  0.1529
12935SOL    HW141058   1.459   9.054   6.798 -0.5373 -2.4097 -1.7863
12935SOL    HW241059   1.526   9.132   6.688 -0.1030 -0.0954  0.0502
12936SOL     OW41060   7.923   1.222   3.546 -0.3606  0.1512 -0.4550
12936SOL    HW141061   7.966   1.306   3.528  0.7609 -0.2491  0.2725
12936SOL    HW241062   7.912   1.221   3.641 -1.1906 -0.1558 -0.5441
12937SOL     OW41063   2.360   0.722   5.040  0.2121 -0.1911  0.3190
12937SOL    HW141064   2.385   0.641   4.994  0.0915 -0.9136  1.4938
12937SOL    HW241065   2.282   0.753   4.994  0.7244 -0.2971 -0.6423
12938SOL     OW41066   0.520   6.497   3.492  0.6846 -0.5832 -0.3247
12938SOL    HW141067   0.587   6.497   3.560 -0.2319 -0.6886  0.5986
12938SOL    HW241068   0.440   6.523   3.537 -0.2566 -2.1456 -1.0337
12939SOL     OW41069   9.906   5.228   4.635 -0.6270 -0.9048  0.2385
12939SOL    HW141070   9.921   5.166   4.707 -2.1304 -1.1742  0.3684
12939SOL    HW241071   9.992   5.262   4.614 -0.2677  0.4500  3.3290
12940SOL     OW41072   4.857   4.081   8.975  0.7747  0.3356 -0.1614
12940SOL    HW141073   4.813   4.117   8.898 -0.4852 -0.0118  0.3686
12940SOL    HW241074   4.792   4.085   9.044  1.4845 -0.4855  0.5850
12941SOL     OW41075   6.111   7.932   5.096 -0.2761  0.5424 -0.3811
12941SOL    HW141076   6.081   8.005   5.042  0.2836  1.0018 -0.0847
12941SOL    HW241077   6.050   7.930   5.170 -0.1216  0.8933 -0.2428
12942SOL     OW41078   1.700   8.990   1.106 -0.1997  0.3235 -0.3024
12942SOL    HW141079   1.709   8.983   1.201  1.4946 -2.2287 -0.5352
12942SOL    HW241080   1.613   8.954   1.087  0.2804 -1.1398  0.1697
12943SOL     OW41081  10.066   8.167   0.999 -0.4060 -0.4685  0.7614
12943SOL    HW141082  10.093   8.168   0.907  0.9198 -2.1016  1.0840
12943SOL    HW241083   9.975   8.139   0.997 -0.7802  0.7506 -0.1074
12944SOL     OW41084   9.826   6.108  10.446 -0.0334  0.3755 -0.0006
12944SOL    HW141085   9.890   6.179  10.442 -0.8774  1.0963 -1.6894
12944SOL    HW241086   9.800   6.094  10.355  0.3177 -2.3292  0.2359
12945SOL     OW41087   3.904   4.994   3.856 -0.6985 -0.0344 -0.4064
12945SOL    HW141088   3.979   4.948   3.892  0.0376  0.8744 -0.7357
12945SOL    HW241089   3.942   5.058   3.795 -1.8204 -0.6938 -1.8664
12946SOL     OW41090   1.657  10.654  10.014 -0.4619 -0.5492  0.6591
12946SOL    HW141091   1.718  10.725  10.034 -0.9124  0.4498 -1.2785
12946SOL    HW241092   1.689  10.619   9.931 -2.0513 -0.5290  0.0113
12947SOL     OW41093   6.916   5.481   2.138 -0.0167  0.3239  0.7982
12947SOL    HW141094   6.846   5.443   2.084 -0.0411  0.3960  0.7792
12947SOL    HW241095   6.989   5.492   2.078 -0.0854  0.5219  0.7506
12948SOL     OW41096   5.585   0.807   7.525 -0.4819  0.1374  0.2313
12948SOL    HW141097   5.588   0.748   7.449 -1.0410 -0.7743  0.8823
12948SOL    HW241098   5.670   0.850   7.526  0.8052 -2.2579  0.9353
12949SOL     OW41099   2.243  10.469   0.515  0.3211  0.2075  0.1623
12949SOL    HW141100   2.306  10.540   0.526 -0.0103  0.3026  1.5314
12949SOL    HW241101   2.167  10.510   0.474  0.5902  0.3901 -0.1568
12950SOL     OW41102   2.077   9.666   9.454 -0.6115 -0.1799 -0.2520
12950SOL    HW141103   2.160   9.624   9.476  0.6366  1.2405 -2.0012
12950SOL    HW241104   2.054   9.630   9.368 -1.7346 -0.3847  0.1073
12951SOL     OW41105  10.521   1.875   8.919  0.1082  0.0799  0.3448
12951SOL    HW141106  10.598   1.820   8.903  0.4161  1.0789 -2.0312
12951SOL    HW241107  10.554   1.948   8.971 -0.1801 -1.5261  2.9892
12952SOL     OW41108   3.851   5.062   3.302 -0.0829  0.0129  0.8511
12952SOL    HW141109   3.862   5.051   3.396 -0.6429 -1.0128  0.7995
12952SOL    HW241110   3.764   5.028   3.283  0.7789 -1.6658 -0.3272
12953SOL     OW41111   6.686   0.112  10.102  0.5039  0.4774 -0.2196
12953SOL    HW141112   6.644   0.112  10.016  0.0122  0.7043  0.0191
12953SOL    HW241113   6.645   0.185  10.149 -0.3892 -0.6274  0.7763
12954SOL     OW41114   5.817   3.383   0.605 -0.3341 -0.2911  0.1874
12954SOL    HW141115   5.844   3.470   0.634 -0.1473 -0.3255  0.1162
12954SOL    HW241116   5.723   3.380   0.625  0.1636 -1.1130  2.8244
12955SOL     OW41117   1.711   4.630   9.899  0.0482 -0.0233 -0.2022
12955SOL    HW141118   1.619   4.618   9.923  0.4145  0.6551  1.6395
12955SOL    HW241119   1.760   4.599   9.974  1.3647 -0.5601 -1.2428
12956SOL     OW41120   3.176   2.764   2.317  0.3292 -0.3796 -0.4380
12956SOL    HW141121   3.125   2.768   2.236  0.5853 -1.0367 -0.6349
12956SOL    HW241122   3.262   2.731   2.290  1.3016  1.8732 -0.3142
12957SOL     OW41123   0.605   5.103  10.330  0.0474 -0.3187  0.5384
12957SOL    HW141124   0.615   5.144  10.244  1.4768  1.5996  1.5284
12957SOL    HW241125   0.580   5.175  10.388 -1.4266 -1.6798  1.6583
12958SOL     OW41126   1.622   7.796   4.679 -0.1260 -0.1562  0.4918
12958SOL    HW141127   1.549   7.746   4.644  0.1330  0.3418 -0.8236
12958SOL    HW241128   1.696   7.735   4.676  0.5175  0.6169 -2.4192
12959SOL     OW41129   1.414   4.116   1.617  0.6796 -0.1447  0.0022
12959SOL    HW141130   1.362   4.078   1.687  0.1055  0.1475 -0.2604
12959SOL    HW241131   1.495   4.145   1.660 -1.0745  3.3414  1.3425
12960SOL     OW41132   5.066   8.402   4.089  0.0285 -0.2230 -0.1119
12960SOL    HW141133   5.155   8.370   4.077  0.7839  1.4170  0.7450
12960SOL    HW241134   5.011   8.324   4.085  1.7138 -1.5763  1.4380
12961SOL     OW41135   1.846   5.578   7.491  0.0882 -0.5760  0.4008
12961SOL    HW141136   1.772   5.564   7.551  0.0769 -0.2273  0.4703
12961SOL    HW241137   1.907   5.632   7.540 -0.6410  1.1063 -0.4452
12962SOL     OW41138   6.451   8.645   9.571  0.3306 -0.2963  0.5578
12962SOL    HW141139   6.362   8.670   9.593 -0.4769 -2.0023 -0.5899
12962SOL    HW241140   6.501   8.661   9.651 -1.1673 -0.0506  1.4680
12963SOL     OW41141   6.773   1.552   8.061 -0.2050  0.5561  0.3059
12963SOL    HW141142   6.754   1.602   8.141  1.1465  1.4129  0.1282
12963SOL    HW241143   6.719   1.593   7.994 -0.9017  0.2130  0.6418
12964SOL     OW41144   1.519   9.689   0.617  0.1466 -0.4901 -0.7106
12964SOL    HW141145   1.446   9.652   0.667  0.4298  0.6031  0.5622
12964SOL    HW241146   1.490   9.686   0.526 -0.9405 -1.2894 -0.3553
12965SOL     OW41147   4.382   3.449   5.610 -0.2688  0.5090 -0.0827
12965SOL    HW141148   4.415   3.446   5.700 -0.7517  0.1558  0.0875
12965SOL    HW241149   4.408   3.365   5.572 -1.2917  0.0609  0.1735
12966SOL     OW41150   9.184   6.419   1.664 -0.5164 -0.3698 -0.0240
12966SOL    HW141151   9.091   6.427   1.641 -0.3342  1.1186 -0.3010
12966SOL    HW241152   9.231   6.454   1.589  0.3415 -2.0445 -0.3197
12967SOL     OW41153   5.748   5.205   4.842  0.1260  0.0522 -0.7858
12967SOL    HW141154   5.790   5.196   4.757 -0.5458  0.5730 -1.1770
12967SOL    HW241155   5.678   5.269   4.829 -0.1089  0.0017  0.1091
12968SOL     OW41156   2.227   5.952   8.978 -0.1555  0.1206 -0.1847
12968SOL    HW141157   2.156   6.010   9.007  0.1804  0.0096  0.9208
12968SOL    HW241158   2.204   5.866   9.014  0.4850  0.0647  0.1136
12969SOL     OW41159   4.403   6.620   6.436  0.2325  0.3884 -0.5406
12969SOL    HW141160   4.358   6.556   6.491  0.9694  0.1452 -0.2040
12969SOL    HW241161   4.418   6.695   6.494  3.4498 -0.8916  0.5084
12970SOL     OW41162   0.086   6.016  10.175  0.3709 -0.4926 -0.1853
12970SOL    HW141163   0.026   6.042  10.244 -0.8987 -0.1651 -1.3799
12970SOL    HW241164   0.110   6.097  10.132 -1.0864 -0.9060 -1.8888
12971SOL     OW41165   7.605   5.564   6.327 -0.4674  0.2958  0.1279
12971SOL    HW141166   7.572   5.607   6.406 -1.9092 -0.9601  0.2410
12971SOL    HW241167   7.529   5.520   6.290  0.3657  0.1706 -1.5272
12972SOL     OW41168   2.794   8.595   6.218 -0.3807  0.2861  0.3473
12972SOL    HW141169   2.707   8.561   6.200  0.1044  0.9021 -5.0580
12972SOL    HW241170   2.779   8.683   6.253 -1.9480  0.1732  0.0216
12973SOL     OW41171   5.119   6.184   2.986  0.0279 -0.5569 -0.1831
12973SOL    HW141172   5.161   6.215   3.066 -2.0227  1.9170  0.0724
12973SOL    HW241173   5.167   6.226   2.916 -1.1361  1.3263  0.0604
12974SOL     OW41174   8.903   1.605   7.453  0.2735 -0.7665 -0.2248
12974SOL    HW141175   8.817   1.564   7.465 -0.8320  1.2239 -0.8125
12974SOL    HW241176   8.921   1.599   7.360 -0.3331  0.7695 -0.4779
12975SOL     OW41177   6.418   5.950   6.060 -0.3169  0.0947  0.5327
12975SOL    HW141178   6.456   6.023   6.109 -1.1139  0.6966  0.2771
12975SOL    HW241179   6.360   5.906   6.122  1.3265 -1.3072  1.1639
12976SOL     OW41180   7.572   4.558   4.323 -0.7101  0.0468 -0.0702
12976SOL    HW141181   7.562   4.525   4.234 -0.8737  0.1081 -0.0746
12976SOL    HW241182   7.664   4.582   4.330 -0.3112 -1.4603  0.2792
12977SOL     OW41183   1.182   0.543   8.578 -0.0760  0.5806  0.5100
12977SOL    HW141184   1.100   0.591   8.562 -0.3078  0.2423  0.6829
12977SOL    HW241185   1.177   0.517   8.670 -0.3906 -0.5934  0.1755
12978SOL     OW41186   1.368   5.638   8.302  0.0947  0.2911 -0.2545
12978SOL    HW141187   1.331   5.559   8.341 -0.7577  1.2763  1.0169
12978SOL    HW241188   1.442   5.606   8.249  0.6380 -1.2178  1.3158
12979SOL     OW41189   2.053   0.927   0.580 -0.0327 -0.2450  0.4557
12979SOL    HW141190   2.062   0.896   0.670  0.7649  0.1318  0.5159
12979SOL    HW241191   2.066   0.849   0.526 -1.8403 -0.7417  0.6748
12980SOL     OW41192   0.126   2.866   6.967 -0.1933 -0.2168 -0.6298
12980SOL    HW141193   0.219   2.859   6.948 -0.3913 -2.6517 -1.0070
12980SOL    HW241194   0.115   2.828   7.054 -0.7154  1.0093 -0.1397
12981SOL     OW41195   9.784   2.254   5.840 -0.1938 -0.2976 -0.1969
12981SOL    HW141196   9.810   2.325   5.781 -0.9775  0.6459  0.5664
12981SOL    HW241197   9.853   2.252   5.907  0.6951 -1.3670 -1.0988
12982SOL     OW41198   9.643   1.064   4.540 -0.1473 -0.3604  0.4343
12982SOL    HW141199   9.714   1.120   4.509 -0.1917 -1.0688 -1.0243
12982SOL    HW241200   9.606   1.111   4.615 -1.6130  2.7178 -1.9990
12983SOL     OW41201   4.621   2.745   4.311  0.3366  0.0807 -0.1219
12983SOL    HW141202   4.602   2.815   4.248  0.5769  1.9479  1.7953
12983SOL    HW241203   4.574   2.770   4.390  0.2700 -2.0710  0.5854
12984SOL     OW41204   8.390   0.225   4.100 -0.1673 -0.1151 -0.1484
12984SOL    HW141205   8.446   0.148   4.102  0.3698  0.2743  1.5729
12984SOL    HW241206   8.313   0.198   4.050  1.2585 -0.8330 -2.1126
12985SOL     OW41207   5.091   7.618   1.706  0.1407  0.2556 -0.2620
12985SOL    HW141208   5.112   7.543   1.649  2.6127 -0.3532  1.3111
12985SOL    HW241209   5.147   7.606   1.782 -1.3103  2.3592  1.2262
12986SOL     OW41210   9.025   6.667   7.584  0.2876 -0.1603  0.2928
12986SOL    HW141211   8.950   6.708   7.628 -0.1872 -0.5290 -0.1663
12986SOL    HW241212   9.101   6.714   7.618 -0.1231 -0.0287  1.0385
12987SOL     OW41213   3.301   2.370   2.273 -0.2656 -0.0001  0.0792
12987SOL    HW141214   3.270   2.334   2.356  0.0834  0.0594  0.2379
12987SOL    HW241215   3.391   2.396   2.291 -0.1406 -0.1197 -0.3582
12988SOL     OW41216   0.389   1.334  10.241  0.0555 -0.4684  0.8171
12988SOL    HW141217   0.422   1.418  10.208  0.0375 -0.7019  0.1984
12988SOL    HW241218   0.297   1.350  10.259  0.0960 -0.3027  0.8832
12989SOL     OW41219   1.832   8.106   1.957  0.4021 -0.1300 -0.1262
12989SOL    HW141220   1.819   8.157   2.036 -0.7754 -1.8370  0.8516
12989SOL    HW241221   1.923   8.123   1.932 -0.3247  3.6046 -0.8163
12990SOL     OW41222   9.360   4.440   2.306  0.6534 -0.0568  0.1079
12990SOL    HW141223   9.295   4.370   2.303  0.1478  0.4319 -0.6870
12990SOL    HW241224   9.441   4.398   2.279  0.1772 -0.1641 -1.2293
12991SOL     OW41225   8.353   8.356   2.436  0.2545 -0.2113  0.3077
12991SOL    HW141226   8.308   8.272   2.439  1.9612 -1.2685 -1.5142
12991SOL    HW241227   8.290   8.416   2.397 -0.8736 -0.6710  1.3443
12992SOL     OW41228   6.323   4.189   1.397  0.9760 -0.0862 -0.1338
12992SOL    HW141229   6.346   4.261   1.455  1.1554 -1.5651  1.7539
12992SOL    HW241230   6.406   4.144   1.380  0.6248 -0.9764  0.3881
12993SOL     OW41231   3.151   7.436  10.217 -0.3757  0.1127  0.0277
12993SOL    HW141232   3.070   7.441  10.267  0.1975  1.0130  0.9116
12993SOL    HW241233   3.150   7.515  10.162 -1.3555 -1.2447 -1.9800
12994SOL     OW41234   3.509   3.683   5.062 -0.4874 -1.0219  0.3282
12994SOL    HW141235   3.565   3.609   5.086 -0.8182 -1.0652  0.9800
12994SOL    HW241236   3.534   3.703   4.972  1.5734 -0.1632  1.0151
12995SOL     OW41237   9.469   6.453   5.046 -0.0729 -0.0155  0.2153
12995SOL    HW141238   9.448   6.470   4.954 -0.4343  2.5664  0.6853
12995SOL    HW241239   9.561   6.480   5.055 -0.2100  0.2889  0.7243
12996SOL     OW41240   1.370  10.228   3.794  0.4935 -0.7332  0.0133
12996SOL    HW141241   1.332  10.290   3.857 -1.2701 -0.3158 -1.3840
12996SOL    HW241242   1.436  10.279   3.747  1.3149 -0.8477  1.0156
12997SOL     OW41243   7.851   3.962   4.870  0.2639  0.2952  0.6105
12997SOL    HW141244   7.923   4.016   4.836  1.5309 -0.6024  1.7526
12997SOL    HW241245   7.776   3.984   4.814  0.5884  3.5083  1.2515
12998SOL     OW41246   3.486  10.080   6.259 -0.5643 -0.6940 -0.2958
12998SOL    HW141247   3.410  10.030   6.287  0.1834 -1.7848 -0.1650
12998SOL    HW241248   3.528  10.108   6.340 -0.7059 -0.2678 -0.3669
12999SOL     OW41249   7.601   7.298   3.940 -0.4049  0.3189  0.1609
12999SOL    HW141250   7.583   7.378   3.891  1.1035  0.7378  0.2412
12999SOL    HW241251   7.583   7.321   4.031  2.1824  1.3389  0.4977
13000SOL     OW41252   1.887   0.898   3.402  0.4793 -0.6589  0.0817
13000SOL    HW141253   1.806   0.854   3.425  1.1144 -2.0907 -0.3228
13000SOL    HW241254   1.956   0.836   3.424  1.3425 -0.4033 -1.6858
13001SOL     OW41255   8.588   2.302   9.624  0.2282  0.2593  0.1365
13001SOL    HW141256   8.631   2.237   9.568 -0.8741 -0.9236  0.6199
13001SOL    HW241257   8.495   2.282   9.617 -0.1950  2.0939 -0.0455
13002SOL     OW41258   2.824   0.990   9.339  0.5451 -0.2764  0.3369
13002SOL    HW141259   2.761   1.034   9.397  0.0347  1.8711 -1.6918
13002SOL    HW241260   2.773   0.968   9.261  1.2072 -3.1181  0.6151
13003SOL     OW41261   1.187   1.157   5.574  0.0826  0.8209 -0.2352
13003SOL    HW141262   1.282   1.153   5.566  0.1172  0.8809  0.1380
13003SOL    HW241263   1.170   1.158   5.668 -0.3666 -1.0043 -0.2549
13004SOL     OW41264   0.873   6.809   4.199  0.0014 -0.5998  0.3273
13004SOL    HW141265   0.956   6.786   4.157  0.5149 -0.1600  1.0585
13004SOL    HW241266   0.859   6.741   4.264 -0.3493 -0.8188  0.0211
13005SOL     OW41267   6.756   1.473   8.801 -0.0222  0.3581 -0.6060
13005SOL    HW141268   6.691   1.406   8.781  1.0134 -0.2975 -1.9296
13005SOL    HW241269   6.769   1.466   8.896  0.6663 -1.9264 -0.8030
13006SOL     OW41270   3.812   8.869   5.153  0.3626  0.2887 -0.1656
13006SOL    HW141271   3.801   8.882   5.059  0.0643 -0.9309 -0.3138
13006SOL    HW241272   3.868   8.791   5.160 -0.4888 -0.2643  0.6571
13007SOL     OW41273   8.846   7.760   9.577 -0.0039  0.5218  0.8150
13007SOL    HW141274   8.841   7.671   9.543  0.4703  0.0729  1.8945
13007SOL    HW241275   8.824   7.752   9.670 -1.7007  1.7899  0.5754
13008SOL     OW41276   9.003   4.517   4.855 -0.1505  0.0960 -0.2066
13008SOL    HW141277   8.971   4.607   4.845  0.4171  0.2468 -0.7262
13008SOL    HW241278   9.096   4.523   4.836 -0.2083 -0.6986 -0.7758
13009SOL     OW41279   3.965   3.484   9.538  0.4711  0.6171  0.5262
13009SOL    HW141280   3.893   3.506   9.597 -0.0133 -1.4117  0.7779
13009SOL    HW241281   4.043   3.482   9.593  0.1594 -0.3933  0.9607
13010SOL     OW41282   4.124   5.130   3.260  0.9951 -0.0202  0.0495
13010SOL    HW141283   4.202   5.083   3.288  1.5485  0.7875 -0.0979
13010SOL    HW241284   4.051   5.076   3.290  1.5991 -0.4975  0.6891
13011SOL     OW41285   3.902   8.035   4.543  0.6144 -0.1362 -0.4902
13011SOL    HW141286   3.897   8.003   4.633  2.5935  0.0097 -0.2803
13011SOL    HW241287   3.844   8.111   4.541  1.1188  0.3103  0.8714
13012SOL     OW41288   8.115   8.435   0.371  0.5682  0.1341 -0.0438
13012SOL    HW141289   8.174   8.449   0.445  1.6009  1.9874 -1.1369
13012SOL    HW241290   8.035   8.481   0.394 -0.6504 -2.5613  1.5370
13013SOL     OW41291   3.319   8.570   9.476 -0.2914 -0.6233  0.3471
13013SOL    HW141292   3.375   8.500   9.443  0.7627  0.4297 -0.1970
13013SOL    HW241293   3.358   8.593   9.561  1.5864  1.6173 -1.0005
13014SOL     OW41294   3.463   3.969   0.774  0.2226 -0.2090 -0.2202
13014SOL    HW141295   3.421   3.955   0.689 -1.9968  0.2545  0.7256
13014SOL    HW241296   3.442   3.890   0.824  0.5084  0.0225  0.2678
13015SOL     OW41297   9.310  10.564   6.256  0.2206 -0.5862  0.0276
13015SOL    HW141298   9.296  10.552   6.162  0.5177  1.3290 -0.3001
13015SOL    HW241299   9.222  10.555   6.294  0.2321 -2.3581 -0.2657
13016SOL     OW41300   7.037   7.184   7.247 -0.0418  0.3939  0.2525
13016SOL    HW141301   7.131   7.199   7.261  0.3184 -0.3559 -1.2431
13016SOL    HW241302   7.006   7.264   7.206 -0.2363  0.9416  1.4241
13017SOL     OW41303   0.509   5.173   0.369  0.4936 -0.2458  0.0537
13017SOL    HW141304   0.589   5.158   0.320 -0.5864  1.4838 -2.4274
13017SOL    HW241305   0.529   5.245   0.428  1.1773 -0.8520  0.5724
13018SOL     OW41306   5.412   3.384   7.526 -0.2265  0.1992  0.1873
13018SOL    HW141307   5.490   3.345   7.488 -0.2155  0.1934  0.2155
13018SOL    HW241308   5.427   3.479   7.521 -0.9465  0.2589 -1.3485
13019SOL     OW41309   6.964   5.711   1.787 -0.0853 -0.1796  0.4883
13019SOL    HW141310   6.930   5.794   1.822 -2.4936 -0.7025 -0.4293
13019SOL    HW241311   7.009   5.671   1.861 -0.0450  1.3403  1.3246
13020SOL     OW41312   3.594   3.405   5.151 -0.0595  0.1810  0.2389
13020SOL    HW141313   3.522   3.396   5.214  0.4483  0.2313  0.8437
13020SOL    HW241314   3.658   3.340   5.179 -0.8463 -1.5435 -1.7183
13021SOL     OW41315   0.394   3.890   8.714  0.5895 -0.1094 -0.4622
13021SOL    HW141316   0.427   3.921   8.629  0.0322  0.4516 -0.4826
13021SOL    HW241317   0.443   3.941   8.779 -0.0660  0.5746 -0.4885
13022SOL     OW41318   0.342   5.045   8.919 -0.8048  0.1360  0.7765
13022SOL    HW141319   0.333   5.139   8.901  2.0977  0.4381  0.4268
13022SOL    HW241320   0.410   5.039   8.985  2.4319 -1.7921 -2.3546
13023SOL     OW41321   4.696   3.404   5.601  0.2800  0.1017  0.1290
13023SOL    HW141322   4.657   3.386   5.686  1.1872 -0.2057  0.4958
13023SOL    HW241323   4.754   3.479   5.616 -1.0988  1.3859 -0.6961
13024SOL     OW41324   4.707   0.538   9.021  0.0783  0.2066  0.0554
13024SOL    HW141325   4.659   0.458   9.042 -0.2374  0.3511 -0.1139
13024SOL    HW241326   4.721   0.533   8.926  0.7983 -0.0573  0.1716
13025SOL     OW41327   4.597   4.911   8.768 -0.0770 -0.1866 -0.2046
13025SOL    HW141328   4.530   4.975   8.792  0.9715  0.4998  1.0787
13025SOL    HW241329   4.590   4.903   8.673 -0.8130  1.2058 -0.2987
13026SOL     OW41330   7.730  10.449   7.260  0.1885 -0.2942  0.1504
13026SOL    HW141331   7.711  10.363   7.298 -0.7412 -0.6800 -1.0944
13026SOL    HW241332   7.694  10.512   7.322 -0.6801 -0.8814  0.2538
13027SOL     OW41333   8.878   0.682   6.321  0.1250  0.4131  0.0077
13027SOL    HW141334   8.862   0.695   6.414  0.2459 -0.2791  0.1282
13027SOL    HW241335   8.791   0.688   6.281 -0.0507 -0.2500  0.2854
13028SOL     OW41336   8.678   3.656   2.877 -0.3373  0.9644  0.2714
13028SOL    HW141337   8.615   3.701   2.932 -0.9117 -0.0823  0.4934
13028SOL    HW241338   8.683   3.567   2.913 -0.4023  0.3822 -1.0798
13029SOL     OW41339   8.125   8.901   2.446  0.0901 -0.1265  0.5568
13029SOL    HW141340   8.219   8.890   2.440  0.1189  0.3733 -0.0027
13029SOL    HW241341   8.113   8.991   2.477 -0.2105  0.6582 -1.6339
13030SOL     OW41342   9.956   3.893   1.628 -0.4920 -0.2134  0.4891
13030SOL    HW141343  10.045   3.870   1.602  0.7668  1.3153  3.0217
13030SOL    HW241344   9.939   3.842   1.707 -1.2287  0.6481  0.9146
13031SOL     OW41345   0.857   5.677   0.452 -0.0813  0.0596 -0.3912
13031SOL    HW141346   0.769   5.705   0.425  0.6417  1.7290 -1.1694
13031SOL    HW241347   0.861   5.697   0.545 -1.0971 -1.6824  0.0788
13032SOL     OW41348   7.769   1.803   8.787 -0.1440  0.2735 -0.1336
13032SOL    HW141349   7.737   1.779   8.700  1.9362 -0.0250 -0.8661
13032SOL    HW241350   7.739   1.893   8.800 -0.5639  0.2802 -1.1066
13033SOL     OW41351   2.912   0.821   1.992 -0.0965  0.0470 -0.0627
13033SOL    HW141352   2.910   0.731   2.025  0.1794 -1.0792 -2.8535
13033SOL    HW241353   2.999   0.853   2.015 -1.0220  0.6304  3.1735
13034SOL     OW41354   7.656   0.228   7.748 -0.1143  0.7692 -0.2333
13034SOL    HW141355   7.744   0.244   7.715  0.1972 -0.4724 -0.0383
13034SOL    HW241356   7.667   0.161   7.816 -1.1674  0.8192  0.0044
13035SOL     OW41357   5.747   2.011   4.659 -0.2682  0.1397  0.0815
13035SOL    HW141358   5.728   1.919   4.674 -0.3663 -0.1018 -1.3783
13035SOL    HW241359   5.680   2.041   4.598  0.6485  0.7547 -0.6767
13036SOL     OW41360   3.460   0.521   4.192  0.2841  0.3893  0.0524
13036SOL    HW141361   3.475   0.594   4.133 -2.7072 -0.3358 -1.8113
13036SOL    HW241362   3.545   0.504   4.232  1.3446  4.0761 -0.3095
13037SOL     OW41363   2.428   7.856   2.774  0.4516 -0.1246  0.3364
13037SOL    HW141364   2.344   7.811   2.763  0.2293  0.6505 -1.3905
13037SOL    HW241365   2.423   7.894   2.862 -1.3140  0.5063  0.0045
13038SOL     OW41366  10.147   6.131   5.243  0.1613 -0.1794  0.6760
13038SOL    HW141367  10.235   6.111   5.275 -1.1627 -1.7425  3.7866
13038SOL    HW241368  10.130   6.066   5.176  2.3914  2.0855 -2.3613
13039SOL     OW41369   6.923   0.528   5.716  0.7293 -0.2406 -0.4227
13039SOL    HW141370   6.949   0.599   5.657  0.4249 -0.5837 -0.9890
13039SOL    HW241371   6.831   0.512   5.694  0.3472  0.2117  0.7695
13040SOL     OW41372   3.333   5.460   1.566 -0.3121 -0.3659  0.5452
13040SOL    HW141373   3.343   5.511   1.485 -3.1786  0.0041  0.3439
13040SOL    HW241374   3.245   5.479   1.596  0.1657 -1.6373  3.0274
13041SOL     OW41375   3.913   5.713   7.724  0.0275  0.6243  0.1664
13041SOL    HW141376   3.915   5.704   7.629  1.6574  1.3104  0.1090
13041SOL    HW241377   3.834   5.666   7.751  1.3941 -2.7379 -1.1975
13042SOL     OW41378   8.797   8.744   7.633 -0.1132 -0.1530 -0.0636
13042SOL    HW141379   8.749   8.664   7.653  0.7653 -0.6185  0.2499
13042SOL    HW241380   8.743   8.788   7.568 -0.1951 -1.4287 -0.9008
13043SOL     OW41381   0.119   7.850  10.269  0.1503 -0.7155 -0.9736
13043SOL    HW141382   0.109   7.943  10.248  0.8247 -0.2661  0.5448
13043SOL    HW241383   0.120   7.806  10.184  1.8700  0.8796 -1.8627
13044SOL     OW41384   8.975   7.873   0.793  0.7802  0.0656  0.0617
13044SOL    HW141385   8.937   7.793   0.758  0.8791  0.6218 -1.3897
13044SOL    HW241386   9.015   7.916   0.717  1.6327  0.9837  0.9961
13045SOL     OW41387   9.095   8.085  10.333  0.3596 -0.4147  0.0833
13045SOL    HW141388   9.066   8.013  10.388 -2.5087  0.1846 -0.5070
13045SOL    HW241389   9.035   8.085  10.259  1.3240  1.5516 -0.7755
13046SOL     OW41390   6.254   3.922   8.308 -0.0962 -0.3701 -0.8914
13046SOL    HW141391   6.309   3.844   8.306  0.5467  0.0167  0.3112
13046SOL    HW241392   6.234   3.935   8.401 -3.0478 -1.0105 -1.3454
13047SOL     OW41393   7.282   7.612   4.945  0.2372  0.0273  0.1352
13047SOL    HW141394   7.305   7.704   4.933  0.0830  0.2376  1.3154
13047SOL    HW241395   7.203   7.614   4.999  0.1962 -0.7965  0.1140
13048SOL     OW41396   9.245   7.205   1.838 -0.1862 -1.1287 -0.3020
13048SOL    HW141397   9.227   7.180   1.929 -0.6070 -1.1027 -0.3756
13048SOL    HW241398   9.193   7.284   1.825  0.5212 -0.6603 -0.3143
13049SOL     OW41399   7.619   1.725   0.992 -0.1769 -0.2307  0.2826
13049SOL    HW141400   7.661   1.667   0.928  1.9103  0.7224  0.7256
13049SOL    HW241401   7.622   1.812   0.952 -2.2150 -0.1739  0.1345
13050SOL     OW41402   3.216   0.790   0.510 -0.0778 -0.2629  0.2280
13050SOL    HW141403   3.163   0.754   0.439 -1.4514  0.0140  1.0802
13050SOL    HW241404   3.169   0.765   0.590  0.7162  0.5841  0.9828
13051SOL     OW41405   3.000   1.477   1.173  0.4681  0.0556 -0.1526
13051SOL    HW141406   3.088   1.469   1.211 -0.9873 -1.7338  3.2422
13051SOL    HW241407   2.973   1.566   1.192  0.6919 -0.1001  0.9466
13052SOL     OW41408   6.199  10.568  10.387  0.2975  0.0210  0.1586
13052SOL    HW141409   6.128  10.629  10.370 -1.9904 -2.2834  0.7378
13052SOL    HW241410   6.217  10.578  10.481  0.0407 -0.0634  0.2182
13053SOL     OW41411   6.497   1.760   4.638  0.1006  0.6008  0.6194
13053SOL    HW141412   6.477   1.718   4.554 -0.2944  0.6472  0.6896
13053SOL    HW241413   6.585   1.796   4.626 -0.0789  0.8793  0.1248
13054SOL     OW41414   9.267   3.229   2.954 -0.3353 -0.0729  0.4145
13054SOL    HW141415   9.218   3.176   3.018  1.3931 -0.1051  1.7816
13054SOL    HW241416   9.320   3.165   2.906  2.2667  0.3442  2.5219
13055SOL     OW41417   6.126   4.214   2.070 -0.3490 -0.8455 -0.1183
13055SOL    HW141418   6.146   4.204   2.163  0.6416 -2.9499 -0.5087
13055SOL    HW241419   6.099   4.306   2.061  3.0673  0.4958  1.5965
13056SOL     OW41420   3.996   8.838   0.680  0.2801 -0.0120  0.1666
13056SOL    HW141421   3.935   8.907   0.656  1.6128  1.4242  0.7891
13056SOL    HW241422   3.982   8.825   0.773  1.3228  0.7750  0.4523
13057SOL     OW41423   8.954   9.234   9.252  0.7827  0.3161  0.2653
13057SOL    HW141424   8.976   9.152   9.296  1.8926  0.6965  0.4419
13057SOL    HW241425   8.888   9.274   9.308  1.0653  0.0744  0.7777
13058SOL     OW41426   3.641   5.523   1.172 -0.2131  0.2983  0.0045
13058SOL    HW141427   3.561   5.563   1.137 -0.2453 -0.1144 -0.4011
13058SOL    HW241428   3.712   5.576   1.137 -0.2832  0.3559 -0.0492
13059SOL     OW41429   4.746   1.833   3.009  0.4106 -0.0377 -0.1880
13059SOL    HW141430   4.663   1.839   2.962 -1.0520  3.6193  2.3587
13059SOL    HW241431   4.806   1.890   2.960 -0.1676  1.2384  0.5158
13060SOL     OW41432   3.094   9.088   6.144  0.1877 -0.1949 -0.0277
13060SOL    HW141433   3.033   9.049   6.207  0.3850 -1.3424 -0.5260
13060SOL    HW241434   3.038   9.121   6.074  0.0537 -0.0031  0.1662
13061SOL     OW41435   9.196   3.387   4.805 -0.2506  0.1470  0.1040
13061SOL    HW141436   9.113   3.402   4.850 -0.5442 -1.9603  0.3803
13061SOL    HW241437   9.172   3.383   4.712 -0.0285  2.0702 -0.0613
13062SOL     OW41438   1.537   7.336  10.247 -0.0632 -0.0876 -0.2103
13062SOL    HW141439   1.551   7.312  10.339  0.2664  0.4434 -0.1173
13062SOL    HW241440   1.486   7.417  10.250  0.3264  0.1729 -0.4812
13063SOL     OW41441   3.506   9.906   2.942  0.1296  0.1698  0.3030
13063SOL    HW141442   3.466   9.832   2.896  0.9888 -0.9268  1.2694
13063SOL    HW241443   3.581   9.868   2.989  1.9236  2.0065 -0.8767
13064SOL     OW41444   3.894   9.676   2.443  0.7204  0.4115 -0.1458
13064SOL    HW141445   3.855   9.697   2.358 -0.1915 -1.7563 -0.3282
13064SOL    HW241446   3.972   9.731   2.448 -0.6965  2.6573 -1.1097
13065SOL     OW41447   6.047   4.139   5.288  0.1865 -0.3430 -0.2998
13065SOL    HW141448   6.122   4.197   5.273  0.1264  0.1871  1.2551
13065SOL    HW241449   5.975   4.199   5.311 -0.0702 -0.9947  0.6190
13066SOL     OW41450   1.273  10.588   6.884 -0.3735 -0.0625 -0.3730
13066SOL    HW141451   1.244  10.623   6.800 -0.2551 -0.8041 -0.7225
13066SOL    HW241452   1.218  10.634   6.949 -2.6886 -1.7247 -1.0256
13067SOL     OW41453   3.210   6.279   5.437 -0.5479  0.0660 -0.2191
13067SOL    HW141454   3.230   6.355   5.382  1.8036  0.3158  0.8694
13067SOL    HW241455   3.212   6.204   5.376  0.0435  0.5519 -0.8106
13068SOL     OW41456   8.636   8.779   2.630 -0.2980  0.0200 -0.0517
13068SOL    HW141457   8.678   8.799   2.547  1.1041  1.1808  0.8824
13068SOL    HW241458   8.572   8.849   2.643 -0.4443 -0.1024 -0.1215
13069SOL     OW41459   4.221   8.175   9.833  0.0153 -0.1095 -0.2373
13069SOL    HW141460   4.128   8.193   9.838  0.0794 -0.0565  0.9293
13069SOL    HW241461   4.233   8.136   9.746 -0.5585  2.7836 -1.7166
13070SOL     OW41462   1.363   7.600   6.114  0.4380 -0.0095  0.3661
13070SOL    HW141463   1.303   7.628   6.045 -0.4085 -0.2960  0.9629
13070SOL    HW241464   1.437   7.660   6.108 -0.1263  0.6552 -0.0917
13071SOL     OW41465   0.574   9.431   1.485  0.0429  0.2828  0.1667
13071SOL    HW141466   0.639   9.384   1.536 -1.9553 -0.5064  2.1512
13071SOL    HW241467   0.532   9.364   1.431 -0.7091  0.3300  0.6781
13072SOL     OW41468   7.061   5.331   7.287 -0.3361  0.0493  0.2120
13072SOL    HW141469   7.090   5.416   7.253  0.8558 -0.6356 -0.5407
13072SOL    HW241470   7.039   5.281   7.209 -1.2990 -0.2591  0.6698
13073SOL     OW41471   7.381   1.239   8.000 -0.7015 -0.0944 -0.1021
13073SOL    HW141472   7.422   1.197   7.924  0.2489  0.7112 -0.0526
13073SOL    HW241473   7.294   1.199   8.005  0.2100 -2.1847  0.0403
13074SOL     OW41474   6.859   0.525  10.525 -0.0503  0.3714  0.4621
13074SOL    HW141475   6.774   0.547  10.561 -0.2780 -0.4774  0.4565
13074SOL    HW241476   6.850   0.538  10.431  0.3099  1.8185  0.6028
13075SOL     OW41477   4.631   9.273   3.251  0.2098  0.0322  0.1824
13075SOL    HW141478   4.669   9.327   3.182 -0.9722  0.9528  0.2322
13075SOL    HW241479   4.655   9.317   3.332  0.2350 -0.1665  0.2833
13076SOL     OW41480   1.791   3.057   8.286  0.4423 -0.4980 -0.2771
13076SOL    HW141481   1.706   3.037   8.326  0.2355  0.2095 -0.3555
13076SOL    HW241482   1.838   2.973   8.287 -0.0346 -0.7661  0.2976
13077SOL     OW41483   1.126   1.213   5.820 -0.3570  0.3269  0.2481
13077SOL    HW141484   1.157   1.257   5.899  0.6086  1.3751 -0.6879
13077SOL    HW241485   1.063   1.273   5.782  1.0956  1.0527 -1.1277
13078SOL     OW41486   1.249   6.993   5.065  0.1060 -0.2042  0.4496
13078SOL    HW141487   1.208   7.073   5.098  0.4446 -0.2899  1.0849
13078SOL    HW241488   1.304   7.021   4.993  0.9876  0.2727  1.2981
13079SOL     OW41489   9.490   5.594  10.304 -0.1562  0.1223 -0.0032
13079SOL    HW141490   9.399   5.568  10.323  0.7735 -2.3001  1.7215
13079SOL    HW241491   9.518   5.532  10.236 -0.1070  1.6322 -1.4031
13080SOL     OW41492   0.932   3.162   1.186 -0.2192  0.5002  0.1176
13080SOL    HW141493   0.927   3.086   1.127  0.1226  1.0381 -0.6133
13080SOL    HW241494   1.003   3.216   1.149 -0.8958  1.4930  0.2509
13081SOL     OW41495   6.438   9.544   8.803  0.6437 -0.0588 -0.0387
13081SOL    HW141496   6.407   9.614   8.745  1.0151  0.5912  0.5311
13081SOL    HW241497   6.366   9.482   8.806  0.1083  0.5516 -0.1459
13082SOL     OW41498   6.455   2.157   6.688 -0.1882  0.9475 -0.2429
13082SOL    HW141499   6.383   2.100   6.663 -1.5385  1.7859  1.5096
13082SOL    HW241500   6.448   2.165   6.784  1.4689  2.0574 -0.1594
13083SOL     OW41501   8.359   0.555   3.544  0.7503 -0.0659 -0.0229
13083SOL    HW141502   8.424   0.572   3.476 -0.3318 -2.2286 -1.7442
13083SOL    HW241503   8.402   0.495   3.605  1.4814  1.3100  0.8640
13084SOL     OW41504   6.629   3.000   3.131 -0.0488  0.2502 -0.1749
13084SOL    HW141505   6.680   2.954   3.064 -0.0458  0.4885 -0.3363
13084SOL    HW241506   6.663   2.967   3.214 -0.4703 -0.5013 -0.2948
13085SOL     OW41507  10.242   0.873   0.718  0.2266 -0.0720  0.5524
13085SOL    HW141508  10.310   0.937   0.695 -1.6183  1.4252 -0.9934
13085SOL    HW241509  10.219   0.832   0.635 -1.1442 -0.1427  0.9440
13086SOL     OW41510   8.684   5.099   8.244  0.3414  0.5449  0.4731
13086SOL    HW141511   8.647   5.090   8.157  1.8610 -0.1554 -0.1364
13086SOL    HW241512   8.619   5.060   8.302  0.9998 -2.7335 -0.7813
13087SOL     OW41513   5.064   6.658   5.841  0.0550 -0.2724 -0.3977
13087SOL    HW141514   5.061   6.637   5.747 -1.5270 -0.1934 -0.3966
13087SOL    HW241515   5.099   6.579   5.882  1.6979  0.0384 -1.1174
13088SOL     OW41516   0.903   1.679   7.610  0.0019  0.1938  0.4561
13088SOL    HW141517   0.849   1.722   7.676  0.3059  0.7801  0.3260
13088SOL    HW241518   0.901   1.586   7.634  0.0538  0.3943  1.2506
13089SOL     OW41519   9.331   1.269   9.017  0.4185 -0.5703  0.2720
13089SOL    HW141520   9.326   1.302   9.107  0.6702  0.0071  0.0781
13089SOL    HW241521   9.295   1.180   9.022 -1.7076  0.2438  0.5362
13090SOL     OW41522   7.150   2.033   4.374  0.8712 -0.0498  0.1498
13090SOL    HW141523   7.095   1.979   4.317  1.6281 -1.8988  1.0690
13090SOL    HW241524   7.231   1.984   4.383  1.5865  1.2407  1.0950
13091SOL     OW41525   6.581   1.805   1.192  0.1821  0.7939 -0.8329
13091SOL    HW141526   6.584   1.883   1.246  0.3971  0.5182 -0.4408
13091SOL    HW241527   6.489   1.793   1.170  0.1663  1.2308 -1.0056
13092SOL     OW41528   0.541   1.922   1.656 -0.1288  0.3678  0.7999
13092SOL    HW141529   0.565   1.844   1.707 -1.8236 -0.2202  0.7416
13092SOL    HW241530   0.449   1.937   1.676  0.0292  2.0980  0.4357
13093SOL     OW41531   8.732   6.761   9.460  0.5121 -0.0335 -0.0057
13093SOL    HW141532   8.749   6.801   9.375  3.2304 -0.4346  0.2698
13093SOL    HW241533   8.801   6.796   9.517  0.3785 -1.8404  1.3444
13094SOL     OW41534   4.390   0.162   1.764 -0.4498  0.0263 -0.1000
13094SOL    HW141535   4.390   0.176   1.859 -1.7534  0.3160 -0.1212
13094SOL    HW241536   4.318   0.217   1.732 -1.6664 -1.9384 -0.9382
13095SOL     OW41537  10.281   4.902   3.407  0.0133  0.1567 -0.2380
13095SOL    HW141538  10.265   4.988   3.368 -1.5835  0.2712  0.5930
13095SOL    HW241539  10.204   4.850   3.384  0.2426 -0.5711  0.5818
13096SOL     OW41540  10.164   4.664   4.854 -0.3891  0.1448  0.1213
13096SOL    HW141541  10.181   4.657   4.948  1.6772 -0.1148 -0.2235
13096SOL    HW241542  10.092   4.604   4.838  0.1016 -0.8210  1.3550
13097SOL     OW41543   7.057   5.148   3.826 -0.5223  0.5459  0.0026
13097SOL    HW141544   7.021   5.174   3.911 -0.8951  2.1561 -0.6029
13097SOL    HW241545   7.128   5.210   3.809  0.5940 -0.7365 -0.1795
13098SOL     OW41546   2.693   0.489   6.891  0.0584  0.1297  0.0014
13098SOL    HW141547   2.703   0.397   6.919 -0.5555 -0.1433 -0.6470
13098SOL    HW241548   2.779   0.528   6.907  0.6153 -0.8076 -0.6013
13099SOL     OW41549   8.249  10.428   1.728 -0.5663  0.1131 -0.0086
13099SOL    HW141550   8.229  10.404   1.818 -1.0155  1.2185  0.2083
13099SOL    HW241551   8.294  10.352   1.692 -0.4208 -0.3601  1.1315
13100SOL     OW41552   0.465   8.320   2.719  0.0469 -0.1184  0.3140
13100SOL    HW141553   0.436   8.234   2.690 -0.8485  0.6771 -1.2943
13100SOL    HW241554   0.534   8.302   2.783  0.0207 -2.0127 -0.1322
13101SOL     OW41555   7.967   6.451   5.628 -0.2671 -0.2339 -0.6261
13101SOL    HW141556   7.973   6.496   5.713 -1.4614 -3.7662  1.5436
13101SOL    HW241557   7.873   6.442   5.612 -0.0504  0.3704 -2.3770
13102SOL     OW41558   5.461   3.392   3.310 -0.2881  0.0084  0.3020
13102SOL    HW141559   5.448   3.480   3.275  3.0218  0.5626  0.1375
13102SOL    HW241560   5.422   3.395   3.398 -2.0748  0.9140 -0.4748
13103SOL     OW41561   5.120   7.028   8.891 -0.3596  0.1313 -0.5412
13103SOL    HW141562   5.031   6.993   8.891  0.0504 -1.0468  1.3030
13103SOL    HW241563   5.133   7.061   8.802 -2.1623 -0.9091 -1.2342
13104SOL     OW41564   2.375   3.886   9.659 -0.2247 -0.0991 -0.1263
13104SOL    HW141565   2.281   3.872   9.655 -0.1661 -0.4819 -0.2247
13104SOL    HW241566   2.409   3.844   9.580  0.0248  0.0799 -0.1183
13105SOL     OW41567   3.924   5.515   9.398 -0.1267  0.0739  0.5301
13105SOL    HW141568   3.849   5.550   9.350 -2.0365 -1.9850  1.7813
13105SOL    HW241569   3.908   5.540   9.489 -0.2956 -1.8299  1.0755
13106SOL     OW41570   4.313  10.210   8.207 -0.1887 -0.3500 -0.6625
13106SOL    HW141571   4.376  10.198   8.277  0.2661 -0.6369 -1.1091
13106SOL    HW241572   4.228  10.208   8.250  0.0583 -1.0515 -0.1896
13107SOL     OW41573   6.714   4.257   1.837  0.2444  0.6093  0.1640
13107SOL    HW141574   6.726   4.295   1.750  0.5314 -1.1768 -0.6315
13107SOL    HW241575   6.620   4.265   1.854  0.0042  0.0471 -0.7893
13108SOL     OW41576   0.578   3.643   3.961 -0.0448  0.5533  0.2879
13108SOL    HW141577   0.556   3.586   3.887 -1.2027  2.7004 -1.1218
13108SOL    HW241578   0.639   3.707   3.924  0.2389  0.9930  1.4957
13109SOL     OW41579   0.802   8.030   2.596  0.0489 -0.5483  0.4159
13109SOL    HW141580   0.794   8.106   2.539  0.5829 -1.0450 -0.3415
13109SOL    HW241581   0.870   8.053   2.659  1.0458 -0.8200 -0.5319
13110SOL     OW41582   7.261   8.579   1.273  0.9097  0.4725  0.5065
13110SOL    HW141583   7.182   8.581   1.219 -0.3967 -2.1156  2.1171
13110SOL    HW241584   7.245   8.645   1.341 -0.5947 -0.9944  1.6499
13111SOL     OW41585  10.104   3.858   9.298 -0.6890  0.1468  0.4981
13111SOL    HW141586  10.041   3.883   9.230 -0.2338  1.7135  0.6298
13111SOL    HW241587  10.144   3.940   9.325  0.3443 -0.6602  1.4846
13112SOL     OW41588   5.712   4.728   2.125 -0.3690  0.2215 -0.1562
13112SOL    HW141589   5.691   4.693   2.211  0.4092 -0.3609 -0.1977
13112SOL    HW241590   5.638   4.701   2.069 -0.9044  0.6552  0.3242
13113SOL     OW41591   0.301   1.094   2.835 -0.0769  0.3096  0.5351
13113SOL    HW141592   0.335   1.176   2.871  3.6992 -0.6302 -0.4686
13113SOL    HW241593   0.284   1.114   2.743 -2.5801  0.7690  1.0229
13114SOL     OW41594   0.789   0.078   5.027 -0.3388 -0.0039 -0.1090
13114SOL    HW141595   0.763   0.019   4.956  1.1743  0.2703 -0.9440
13114SOL    HW241596   0.715   0.078   5.087 -0.4337 -2.7002 -0.1067
13115SOL     OW41597   3.647   0.084   2.265 -0.9116  0.4222 -0.2372
13115SOL    HW141598   3.721   0.142   2.250 -1.1084  0.5236 -0.8579
13115SOL    HW241599   3.652   0.062   2.358 -1.1994  1.9424  0.1596
13116SOL     OW41600   8.642   8.464   3.581 -0.0661 -0.2169 -0.0881
13116SOL    HW141601   8.674   8.456   3.492 -2.1800 -2.5986 -0.7557
13116SOL    HW241602   8.675   8.386   3.626 -0.2698  0.1798  0.7757
13117SOL     OW41603   9.235   8.728   3.697 -0.4831 -0.0905 -0.0794
13117SOL    HW141604   9.256   8.662   3.763 -0.8027  0.6881  0.8223
13117SOL    HW241605   9.245   8.811   3.742  0.4491  0.5197 -1.3516
13118SOL     OW41606   9.379   5.742   9.337  0.2838  0.5397  0.1870
13118SOL    HW141607   9.350   5.825   9.299 -1.6450 -0.0654  0.2650
13118SOL    HW241608   9.415   5.693   9.263 -0.6869  0.5479 -0.3041
13119SOL     OW41609   2.128   7.694   3.682  0.2694 -0.2335  0.5900
13119SOL    HW141610   2.138   7.749   3.759 -1.8966  0.4214  0.4771
13119SOL    HW241611   2.118   7.756   3.609  0.7375 -0.8227  0.0088
13120SOL     OW41612   5.650   5.658   6.702  0.1791  0.0653  0.0154
13120SOL    HW141613   5.640   5.737   6.754  0.4176  0.4394 -0.5032
13120SOL    HW241614   5.693   5.596   6.761  3.8603  1.6407 -0.7848
13121SOL     OW41615   5.845   7.766   3.559 -0.4962  0.0661  0.2178
13121SOL    HW141616   5.856   7.673   3.539 -1.0737 -0.0081  0.2268
13121SOL    HW241617   5.826   7.806   3.474 -1.0304  0.0498  0.3241
13122SOL     OW41618   4.440   2.564   1.035 -0.5721  0.2221 -0.3221
13122SOL    HW141619   4.532   2.548   1.013 -0.8130 -1.0170 -0.4751
13122SOL    HW241620   4.434   2.659   1.043  1.0400  0.2659  1.0817
13123SOL     OW41621   0.038   1.357   7.119  0.0707  0.0079 -0.3791
13123SOL    HW141622   0.121   1.345   7.166  0.2630 -2.1678 -1.2040
13123SOL    HW241623   0.038   1.289   7.052 -2.7198 -0.5081  0.0524
13124SOL     OW41624   0.312   5.281   7.485  0.1961  0.2850 -0.0715
13124SOL    HW141625   0.233   5.247   7.528  0.2961 -0.6021 -0.5747
13124SOL    HW241626   0.318   5.372   7.516 -3.3381  1.8602 -3.1523
13125SOL     OW41627  10.276   7.104   9.407  0.1465 -0.4134  0.1941
13125SOL    HW141628  10.296   7.079   9.498  0.5595 -0.2071  0.1655
13125SOL    HW241629  10.342   7.058   9.355  0.4974  0.2028  0.0820
13126SOL     OW41630   1.263   0.544   2.915  0.0974  0.4143 -0.4329
13126SOL    HW141631   1.347   0.574   2.951 -0.2835  1.0040 -0.0170
13126SOL    HW241632   1.287   0.475   2.853  0.7236 -1.8698  2.1508
13127SOL     OW41633   9.035  10.341   7.433  1.0834 -0.3375 -0.6677
13127SOL    HW141634   8.945  10.317   7.454  0.8567  0.5382 -0.6266
13127SOL    HW241635   9.072  10.261   7.394 -0.2381 -0.1998 -2.3475
13128SOL     OW41636   3.468   0.856   2.014  0.2151 -0.0992 -0.3730
13128SOL    HW141637   3.488   0.883   2.104  1.7733 -1.9504 -0.0893
13128SOL    HW241638   3.514   0.920   1.959  0.7942 -0.0165  0.1886
13129SOL     OW41639   1.918   2.635   6.044  0.7331  0.4148  0.3376
13129SOL    HW141640   2.012   2.654   6.041  0.6260  1.3322  1.7926
13129SOL    HW241641   1.899   2.596   5.959  2.0295  2.1342 -0.8304
13130SOL     OW41642   1.338   3.842   3.108  0.0183 -0.3928 -0.2604
13130SOL    HW141643   1.280   3.917   3.113  1.3814  0.6645  0.1862
13130SOL    HW241644   1.402   3.865   3.040  2.3880  0.3349  2.0285
13131SOL     OW41645   5.538   5.316   6.856 -0.0225  0.0407  0.1820
13131SOL    HW141646   5.461   5.365   6.883 -1.9514 -0.1939 -4.0554
13131SOL    HW241647   5.508   5.226   6.847  0.6835 -0.0805 -1.4278
13132SOL     OW41648   1.697   4.100   2.137  0.5441 -0.3239  0.1975
13132SOL    HW141649   1.654   4.117   2.053 -0.1762  0.6875  0.7564
13132SOL    HW241650   1.756   4.174   2.149  1.1428 -0.8088  0.2736
13133SOL     OW41651   2.811   9.638   1.912  0.5838 -0.5850 -0.2203
13133SOL    HW141652   2.892   9.670   1.873  0.5038 -0.3176 -0.1711
13133SOL    HW241653   2.818   9.543   1.907  1.1291 -0.5771  0.2453
13134SOL     OW41654   7.267   1.724   4.081 -0.3305 -0.3941  1.0045
13134SOL    HW141655   7.262   1.820   4.084 -0.1487 -0.3429 -0.0268
13134SOL    HW241656   7.324   1.705   4.006 -1.8324 -1.3297  0.0410
13135SOL     OW41657   5.589   9.683   4.230 -0.0952 -0.4221 -0.8724
13135SOL    HW141658   5.681   9.704   4.248 -0.2902 -0.6487  0.4369
13135SOL    HW241659   5.561   9.631   4.305 -1.3156 -0.3290 -1.2511
13136SOL     OW41660   0.647   8.860   7.758 -0.2120  0.5178  0.0957
13136SOL    HW141661   0.689   8.938   7.722 -0.6534  1.3971  1.3834
13136SOL    HW241662   0.718   8.796   7.764 -0.2488  0.0750 -2.8478
13137SOL     OW41663   8.921   9.620   8.187 -0.1907 -0.2830  0.4517
13137SOL    HW141664   9.004   9.625   8.233  0.3922  0.6540 -0.6601
13137SOL    HW241665   8.857   9.597   8.255  0.8568 -0.3456  1.4406
13138SOL     OW41666   4.328   9.416   1.042  0.5233 -0.1113  0.0481
13138SOL    HW141667   4.351   9.483   0.978  0.9772 -0.4861 -0.1886
13138SOL    HW241668   4.293   9.465   1.116  0.8730  0.3909 -0.1087
13139SOL     OW41669   6.635   4.523   9.591 -0.0109 -0.2929 -0.2162
13139SOL    HW141670   6.717   4.512   9.545  0.2355 -0.9531  0.3583
13139SOL    HW241671   6.650   4.596   9.650 -0.3883  0.6752 -1.2966
13140SOL     OW41672   3.090   6.281   1.375  0.7627  1.0412  0.6784
13140SOL    HW141673   3.106   6.375   1.369 -1.1738  1.7059  3.8020
13140SOL    HW241674   3.117   6.258   1.463 -1.0091 -0.8171  0.8127
13141SOL     OW41675   9.856   6.652   4.082  0.3028  0.3072  0.0212
13141SOL    HW141676   9.932   6.635   4.027  1.4547  0.4586  1.5056
13141SOL    HW241677   9.865   6.744   4.108 -0.8641  0.5829 -0.4497
13142SOL     OW41678   9.625   9.763   8.227 -0.0888  0.1633 -0.1942
13142SOL    HW141679   9.652   9.830   8.291 -1.5616  0.5156  0.0946
13142SOL    HW241680   9.706   9.718   8.205  0.6283  0.7063  1.1555
13143SOL     OW41681   8.134  10.334   3.157 -0.1237  0.3032 -0.0033
13143SOL    HW141682   8.064  10.283   3.197 -1.9770  0.2640 -2.9223
13143SOL    HW241683   8.087  10.401   3.106  1.9889  0.5920 -1.6853
13144SOL     OW41684   3.970   0.304   0.480 -0.8543  0.0030  0.1509
13144SOL    HW141685   3.935   0.388   0.511 -0.8649  1.0016 -2.3658
13144SOL    HW241686   4.000   0.260   0.560  0.2430  2.8724  1.4492
13145SOL     OW41687   6.795   3.502   3.202  0.1840  0.3705  0.4980
13145SOL    HW141688   6.802   3.505   3.297 -1.2576  3.6473  0.6108
13145SOL    HW241689   6.749   3.420   3.184  2.7545 -1.6434  2.3253
13146SOL     OW41690   4.647   0.326   0.095  0.1697 -0.3876 -0.4084
13146SOL    HW141691   4.643   0.291   0.185 -0.0646  0.0287 -0.2555
13146SOL    HW241692   4.640   0.420   0.106 -0.0765 -0.3504 -0.8831
13147SOL     OW41693   3.864   6.457   3.588  0.2225 -0.3223 -0.0134
13147SOL    HW141694   3.868   6.363   3.602 -0.1777 -0.2454  0.6239
13147SOL    HW241695   3.852   6.466   3.493 -1.2703 -0.9608  0.0865
13148SOL     OW41696   0.719   0.956   0.245 -0.3388  0.0440  0.2207
13148SOL    HW141697   0.745   0.879   0.195  0.1037 -1.6118  2.8405
13148SOL    HW241698   0.774   1.027   0.210  0.5863 -1.2229 -0.9785
13149SOL     OW41699   1.473   9.222   4.539  0.5073 -0.5148  0.6479
13149SOL    HW141700   1.560   9.199   4.509  0.6866  0.7803  0.1151
13149SOL    HW241701   1.424   9.241   4.459  0.6209  1.7137  1.0522
13150SOL     OW41702   7.355   0.527   2.039  0.1668 -0.3090  0.0082
13150SOL    HW141703   7.362   0.451   1.982  2.1175 -1.1155  1.1984
13150SOL    HW241704   7.386   0.600   1.987  1.7108 -0.9955 -0.0733
13151SOL     OW41705   6.696   0.792   9.739 -0.2957  0.0388  0.1785
13151SOL    HW141706   6.661   0.840   9.815 -0.0944  0.3464  0.0784
13151SOL    HW241707   6.620   0.778   9.683 -0.5640 -0.7217  0.7128
13152SOL     OW41708   9.397   5.611   3.062 -0.2902  0.7571 -0.0205
13152SOL    HW141709   9.389   5.691   3.010 -1.1008  0.7813  0.1182
13152SOL    HW241710   9.338   5.549   3.019  0.3699  0.2138 -0.1558
13153SOL     OW41711   9.243   6.133   0.945 -0.0478  0.1705 -0.4068
13153SOL    HW141712   9.195   6.201   0.897  0.3694  0.7564 -0.0124
13153SOL    HW241713   9.175   6.087   0.995 -0.1996  1.1562  0.3449
13154SOL     OW41714   8.494   4.626   2.121 -0.2691 -0.0391 -0.0042
13154SOL    HW141715   8.470   4.699   2.179 -2.0817 -0.8203  0.2971
13154SOL    HW241716   8.589   4.618   2.131 -0.1981  1.4902  0.8928
13155SOL     OW41717   3.794   3.584   4.621 -0.2180 -0.4599 -0.7105
13155SOL    HW141718   3.846   3.660   4.597  1.0457 -1.1243 -0.1491
13155SOL    HW241719   3.833   3.552   4.703 -1.0804 -1.3732 -0.6298
13156SOL     OW41720   2.448   4.791   5.554 -0.0356 -0.9073 -0.7462
13156SOL    HW141721   2.543   4.778   5.552  0.1754 -0.1189  1.6972
13156SOL    HW241722   2.413   4.713   5.510  1.7173 -1.0589 -1.9812
13157SOL     OW41723   1.454   9.585   3.036  0.0518 -0.2618 -0.7472
13157SOL    HW141724   1.514   9.516   3.008  0.7185  0.1795 -0.4519
13157SOL    HW241725   1.368   9.556   3.007  0.3113 -1.2555 -0.5428
13158SOL     OW41726  10.591   9.091   3.769 -0.1116  0.2187  0.6328
13158SOL    HW141727  10.676   9.095   3.813 -0.4345 -0.7606  1.3858
13158SOL    HW241728  10.564   9.182   3.760  0.4633  0.4857  1.4890
13159SOL     OW41729   1.474   0.209   9.018 -0.2591  0.0292 -0.1269
13159SOL    HW141730   1.402   0.219   8.956 -1.4802  0.9148  1.3710
13159SOL    HW241731   1.531   0.284   9.001  0.9089 -1.1773 -1.9668
13160SOL     OW41732   3.057   0.330   0.229 -0.2142 -0.1051  0.2604
13160SOL    HW141733   3.102   0.357   0.309 -0.7243 -0.3628  0.6407
13160SOL    HW241734   3.125   0.328   0.162  0.1142  0.6732  0.5553
13161SOL     OW41735   0.541   2.463   8.261  0.1461 -0.2828  0.2794
13161SOL    HW141736   0.625   2.491   8.297  1.0234 -0.7470 -1.3249
13161SOL    HW241737   0.531   2.372   8.291  0.7495 -0.5839 -0.4114
13162SOL     OW41738   0.904  10.574   2.368  0.3987  0.2528  0.0141
13162SOL    HW141739   0.866  10.530   2.292  0.0026  1.7484 -0.6851
13162SOL    HW241740   0.832  10.582   2.430 -0.2819  2.3233 -0.9697
13163SOL     OW41741   0.368   9.700   5.085  0.6345 -0.1647  0.1714
13163SOL    HW141742   0.368   9.616   5.039  0.4879 -0.0356 -0.0645
13163SOL    HW241743   0.324   9.761   5.025 -1.9182 -0.5541  1.5101
13164SOL     OW41744   8.860   3.222   6.328  0.3021 -0.6799 -0.0678
13164SOL    HW141745   8.867   3.301   6.382  2.3950  0.3392 -1.6812
13164SOL    HW241746   8.943   3.218   6.281  0.2263 -3.8390 -0.1178
13165SOL     OW41747   2.262   7.924   7.284  0.4869  0.3971  0.3163
13165SOL    HW141748   2.178   7.880   7.299  1.7024 -2.0985  0.4508
13165SOL    HW241749   2.325   7.873   7.336  2.5620  0.1952 -2.1910
13166SOL     OW41750   5.689   9.005   6.890 -0.5567 -0.1110  0.1685
13166SOL    HW141751   5.651   9.071   6.948 -2.8863  0.2744 -1.6276
13166SOL    HW241752   5.780   9.000   6.917 -0.7263  2.4555  1.6366
13167SOL     OW41753   6.358   1.653   4.030  0.1919  0.4116  0.3065
13167SOL    HW141754   6.405   1.727   3.992  0.1930  1.0373  1.4922
13167SOL    HW241755   6.394   1.643   4.117  0.6602 -1.4399 -0.0633
13168SOL     OW41756   5.763   2.979   9.159 -0.0784  0.7050  0.0952
13168SOL    HW141757   5.769   3.046   9.090 -2.5356  0.5875 -0.3487
13168SOL    HW241758   5.735   2.900   9.113  0.6870 -0.0605  0.9147
13169SOL     OW41759   0.179   4.682   1.475  0.3859 -0.5089 -0.2360
13169SOL    HW141760   0.162   4.768   1.515  1.2921 -0.9475  1.1646
13169SOL    HW241761   0.265   4.690   1.435  0.5768 -0.8312  0.1039
13170SOL     OW41762   6.402   1.241  10.369 -0.4017 -0.3859  0.2946
13170SOL    HW141763   6.472   1.232  10.305 -1.3419 -0.5096 -0.7442
13170SOL    HW241764   6.439   1.297  10.437  1.1482 -1.5147  0.4419
13171SOL     OW41765   3.078   3.612  10.281 -0.3052  0.1471  0.0618
13171SOL    HW141766   3.138   3.680  10.252 -0.0068 -1.0990 -2.4770
13171SOL    HW241767   3.131   3.557  10.339  0.2073  0.5725  0.0078
13172SOL     OW41768   1.847   4.777   4.171  0.4041 -0.0686 -0.5763
13172SOL    HW141769   1.767   4.829   4.163  0.7226  0.5045 -0.1257
13172SOL    HW241770   1.897   4.797   4.091 -0.3812 -1.3010 -1.4164
13173SOL     OW41771   2.370   0.217   0.398  0.0594  0.0937 -0.5198
13173SOL    HW141772   2.300   0.264   0.445 -1.0985 -1.9519 -0.0273
13173SOL    HW241773   2.378   0.134   0.446  0.8894 -0.8735 -2.2551
13174SOL     OW41774   3.553   2.171   7.738  0.1886 -0.4715  0.5945
13174SOL    HW141775   3.605   2.097   7.769  0.6221 -1.4433 -2.1564
13174SOL    HW241776   3.615   2.226   7.692 -0.6001  0.2775  0.4085
13175SOL     OW41777   0.429   3.183   4.604 -0.1670 -0.0110  0.2256
13175SOL    HW141778   0.525   3.172   4.604 -0.1123 -0.0484 -2.3414
13175SOL    HW241779   0.396   3.101   4.642  0.7944 -0.8046 -0.5673
13176SOL     OW41780   8.498   3.002  10.569 -0.0371 -0.0437  0.2818
13176SOL    HW141781   8.512   2.921  10.521 -1.1794 -0.9289  1.3819
13176SOL    HW241782   8.429   2.982  10.631 -1.5074  2.2118 -0.4787
13177SOL     OW41783   4.732   0.765   4.760  0.4095  0.2840 -0.2741
13177SOL    HW141784   4.758   0.851   4.727  0.8169  0.1501 -0.3034
13177SOL    HW241785   4.636   0.767   4.757  0.4193  0.6650 -0.4558
13178SOL     OW41786   7.039   3.900   2.492  0.4521  0.5196 -0.5095
13178SOL    HW141787   7.026   3.820   2.440  1.3100  0.9505 -1.4252
13178SOL    HW241788   7.091   3.872   2.567 -0.2103  0.0123 -0.2327
13179SOL     OW41789   2.576   6.149   9.592 -0.0002  0.1455 -0.0089
13179SOL    HW141790   2.573   6.059   9.624  0.2110 -0.4896 -1.6928
13179SOL    HW241791   2.634   6.194   9.653 -0.0012 -0.8796  0.7834
13180SOL     OW41792   5.556   4.435   1.651 -0.0162 -0.2294 -0.1675
13180SOL    HW141793   5.557   4.516   1.602  1.8461  1.0009  1.6991
13180SOL    HW241794   5.570   4.462   1.742  0.1333 -2.5909  0.5831
13181SOL     OW41795   9.490   5.737   7.903 -0.0871  0.2979  0.0448
13181SOL    HW141796   9.418   5.693   7.949  1.1742 -3.0397 -0.8455
13181SOL    HW241797   9.448   5.798   7.843 -2.1715 -1.0841  0.0148
13182SOL     OW41798   7.004   0.231   3.483 -0.3510 -0.5751  0.0601
13182SOL    HW141799   6.997   0.319   3.520 -1.9545 -0.3000 -0.7805
13182SOL    HW241800   7.025   0.246   3.390  0.9757 -1.1564  0.2480
13183SOL     OW41801   9.841   5.804   4.398  0.0202  0.0494 -0.1273
13183SOL    HW141802   9.809   5.869   4.461  1.5718 -0.6314  1.4659
13183SOL    HW241803   9.766   5.786   4.341 -0.8431  2.2111  0.2303
13184SOL     OW41804   8.720   6.160   7.225 -0.6369  0.3808  0.2255
13184SOL    HW141805   8.685   6.130   7.142  0.9517  1.3616 -0.8563
13184SOL    HW241806   8.768   6.240   7.204 -1.3612  1.4622  2.3245
13185SOL     OW41807  10.004   4.421   7.888 -0.3338  0.7287  0.1562
13185SOL    HW141808   9.952   4.408   7.809 -0.1097 -2.2896  0.4085
13185SOL    HW241809  10.083   4.465   7.858 -0.1019 -0.6572 -1.4068
13186SOL     OW41810   3.894   9.209   5.035 -0.5053 -0.4001  0.2295
13186SOL    HW141811   3.920   9.235   5.123 -0.5153 -0.2957  0.2019
13186SOL    HW241812   3.798   9.204   5.038 -0.4403 -1.7738  0.6062
13187SOL     OW41813   2.917   2.055   6.765  0.6781 -0.1214 -0.1652
13187SOL    HW141814   2.959   2.131   6.726 -1.5061  1.4587  0.3510
13187SOL    HW241815   2.920   2.072   6.859  0.5074 -0.8677 -0.0207
13188SOL     OW41816  10.403   8.212   0.891 -0.1022  0.4267 -0.0765
13188SOL    HW141817  10.342   8.281   0.865  0.8784  1.3255 -0.0253
13188SOL    HW241818  10.383   8.140   0.830 -1.9942  0.2401  0.6871
13189SOL     OW41819   9.338  10.466   7.403 -0.1368  0.3301 -0.1040
13189SOL    HW141820   9.346  10.468   7.307 -0.6121 -0.8596 -0.1833
13189SOL    HW241821   9.265  10.526   7.422  0.8102  1.5917 -0.3647
13190SOL     OW41822  10.545   5.020  10.405  0.3122  0.0134 -0.2409
13190SOL    HW141823  10.459   5.045  10.371  0.4744  0.1306 -0.5680
13190SOL    HW241824  10.557   4.930  10.376  0.8767  0.4305 -1.3651
13191SOL     OW41825   7.935   2.545   6.068 -0.0556 -0.1793  0.1383
13191SOL    HW141826   8.001   2.555   5.999  0.2663 -1.1696  0.2880
13191SOL    HW241827   7.874   2.617   6.052  0.6975  0.3697 -0.4011
13192SOL     OW41828   6.642   1.591   0.481  0.1293  0.4036  0.3220
13192SOL    HW141829   6.561   1.597   0.430  0.5294 -1.8686 -0.7047
13192SOL    HW241830   6.701   1.653   0.438  0.0378 -0.5062 -1.2121
13193SOL     OW41831   4.919   0.376   0.466 -0.2242 -0.2396 -0.5298
13193SOL    HW141832   4.859   0.450   0.465 -0.3468 -0.3386 -1.0212
13193SOL    HW241833   4.983   0.397   0.534 -1.8168 -0.9598  1.2679
13194SOL     OW41834   3.321   9.879   5.433  0.1497  0.0731 -0.0502
13194SOL    HW141835   3.338   9.969   5.406  1.2204 -0.0974  0.0395
13194SOL    HW241836   3.407   9.843   5.452 -0.4488 -0.2022  2.3865
13195SOL     OW41837   1.004   2.770   4.308  0.3568  0.0975 -0.9861
13195SOL    HW141838   1.056   2.840   4.348 -0.3434  0.9532 -1.5191
13195SOL    HW241839   0.913   2.795   4.324  0.0700 -1.5371  0.2051
13196SOL     OW41840   7.386   3.028   2.823 -0.1890  0.5568 -0.4015
13196SOL    HW141841   7.463   3.030   2.765 -0.4086 -1.2447 -0.8239
13196SOL    HW241842   7.413   3.079   2.899  0.9264  1.1270 -1.1440
13197SOL     OW41843   1.979  10.187  10.534  0.0147  0.1803  0.9066
13197SOL    HW141844   1.952  10.275  10.510 -0.0467  0.0927  0.6472
13197SOL    HW241845   2.069  10.196  10.565  0.1855  0.2598  0.3958
13198SOL     OW41846   2.245   2.053   8.739 -0.0499 -0.1137  0.3897
13198SOL    HW141847   2.170   1.994   8.749 -0.1353 -0.0021  0.4106
13198SOL    HW241848   2.289   2.051   8.824  0.7750 -1.2601 -0.0348
13199SOL     OW41849   9.568   6.543   6.280  0.4865 -0.6395 -0.1896
13199SOL    HW141850   9.641   6.482   6.290  0.1942 -1.1222 -0.8845
13199SOL    HW241851   9.575   6.573   6.189 -0.1951 -0.7156 -0.2704
13200SOL     OW41852  10.535   3.527   1.162 -0.9356 -0.1229  0.2356
13200SOL    HW141853  10.490   3.556   1.241 -1.3960  0.3725 -0.2078
13200SOL    HW241854  10.602   3.593   1.146 -1.1656  0.0391 -0.0672
13201SOL     OW41855   1.125  10.116   3.999 -0.0292  0.5380 -0.0235
13201SOL    HW141856   1.199  10.129   3.939  0.5986 -1.2626  0.2907
13201SOL    HW241857   1.066  10.057   3.953 -1.6943  2.4973 -0.5557
13202SOL     OW41858   8.101   5.622   9.308  0.3818 -0.3198 -0.6576
13202SOL    HW141859   8.074   5.709   9.337 -0.0702 -1.1982  1.7527
13202SOL    HW241860   8.038   5.563   9.348  0.4129 -1.7727 -2.6178
13203SOL     OW41861  10.231   5.972   4.865  0.2443 -0.3538 -0.0247
13203SOL    HW141862  10.304   5.947   4.808  0.3012  1.2641 -0.7185
13203SOL    HW241863  10.177   6.030   4.811  0.1214  0.9695  1.4523
13204SOL     OW41864   5.450   5.670   8.176  0.0946 -0.1814  0.2898
13204SOL    HW141865   5.485   5.583   8.196 -2.0056 -1.7390 -2.0200
13204SOL    HW241866   5.475   5.685   8.084 -0.6294  1.0898  0.2773
13205SOL     OW41867   2.523   8.971   0.230 -0.6392 -0.9528  0.1622
13205SOL    HW141868   2.582   8.963   0.304 -0.4247  0.1794  0.1336
13205SOL    HW241869   2.579   8.997   0.157 -1.2438  1.1172  0.3579
13206SOL     OW41870   0.025   1.898   6.058 -0.1831  0.6136  0.3135
13206SOL    HW141871   0.008   1.974   6.001 -2.6137 -0.0774 -0.0250
13206SOL    HW241872   0.050   1.937   6.142 -0.7600  1.8079 -0.0323
13207SOL     OW41873   3.653   3.997  10.416  0.2209 -0.5608 -0.1427
13207SOL    HW141874   3.709   4.011  10.340  0.2463  0.2384  0.0203
13207SOL    HW241875   3.702   4.032  10.490  0.6509 -2.2671  0.4336
13208SOL     OW41876   1.937   2.146   7.562 -0.1798 -0.3674  0.1302
13208SOL    HW141877   1.963   2.096   7.639  0.6451  0.1880  0.2383
13208SOL    HW241878   1.977   2.232   7.576 -1.7894  0.4176  0.0925
13209SOL     OW41879   3.345   3.096   4.404  0.1780  0.7584  0.2393
13209SOL    HW141880   3.389   3.164   4.355  0.5181  1.2665  1.2297
13209SOL    HW241881   3.329   3.026   4.340  0.9175  1.2544 -0.4951
13210SOL     OW41882   6.369   5.385   1.322  0.2482 -0.1739  0.1344
13210SOL    HW141883   6.423   5.416   1.249  1.1080 -0.6344  0.5627
13210SOL    HW241884   6.385   5.449   1.392 -0.0279 -0.1249  0.1533
13211SOL     OW41885   2.518   2.594   6.105 -0.7383 -0.0500  0.4680
13211SOL    HW141886   2.554   2.682   6.116  0.0613  0.0354 -2.1353
13211SOL    HW241887   2.431   2.598   6.146 -0.7209  1.9554  0.3771
13212SOL     OW41888   5.031   0.507   5.236 -0.7119 -0.0500 -0.2534
13212SOL    HW141889   5.001   0.457   5.160 -1.6590  1.4794 -0.9231
13212SOL    HW241890   4.961   0.569   5.254 -0.3933 -0.2053  1.7351
13213SOL     OW41891   5.715   7.504   5.817 -0.2354 -0.3058 -0.4433
13213SOL    HW141892   5.638   7.486   5.762 -0.5298 -0.2674 -0.0533
13213SOL    HW241893   5.710   7.438   5.886  0.4478 -0.7145 -0.7727
13214SOL     OW41894   2.215   6.007   2.743 -0.1101 -0.3534 -0.0901
13214SOL    HW141895   2.127   6.032   2.715  0.1991 -0.4930 -1.2293
13214SOL    HW241896   2.268   6.086   2.730  0.2565 -0.7233 -0.9442
13215SOL     OW41897   1.230   0.272   0.451  0.1245  0.3569  0.3053
13215SOL    HW141898   1.232   0.366   0.468  0.9288  0.1294  1.6487
13215SOL    HW241899   1.288   0.235   0.518  1.0038 -0.9528 -1.1166
13216SOL     OW41900   8.377   1.466   3.519  0.2606 -0.4508 -0.1593
13216SOL    HW141901   8.456   1.435   3.474  0.5031  0.6552 -0.5225
13216SOL    HW241902   8.313   1.396   3.504  0.9307 -1.0018 -0.5396
13217SOL     OW41903   9.241   7.690   7.826  0.4505  0.4901  0.3652
13217SOL    HW141904   9.201   7.622   7.771  1.3959 -0.0125  0.2607
13217SOL    HW241905   9.198   7.682   7.911 -2.0474  2.2018 -0.6219
13218SOL     OW41906   1.624   7.086   3.399 -0.0389 -0.0768 -0.1749
13218SOL    HW141907   1.689   7.056   3.462  0.3172  1.8182  0.4344
13218SOL    HW241908   1.546   7.034   3.417  0.0418  0.4400  1.8848
13219SOL     OW41909   5.866   2.754  10.601  0.8448  0.2114 -0.2261
13219SOL    HW141910   5.798   2.687  10.597  0.3327  0.7943 -1.5647
13219SOL    HW241911   5.916   2.743  10.520  1.2956  0.8972 -0.0511
13220SOL     OW41912   4.952   8.394   2.922  0.3542 -0.9688 -0.4803
13220SOL    HW141913   5.017   8.327   2.905  1.3080 -0.3228  0.4853
13220SOL    HW241914   5.002   8.475   2.931 -0.5698 -0.4554  0.2965
13221SOL     OW41915   2.718  10.507   4.645  0.5693 -0.7585 -0.8566
13221SOL    HW141916   2.764  10.430   4.678 -1.5643 -2.1367 -0.8813
13221SOL    HW241917   2.658  10.472   4.579 -0.7808  0.8636 -0.5479
13222SOL     OW41918   3.668   0.089   9.294 -0.2536  0.0296 -0.0932
13222SOL    HW141919   3.762   0.069   9.288 -0.2652  0.4992 -2.6835
13222SOL    HW241920   3.661   0.142   9.373  1.7732  0.5110 -0.1717
13223SOL     OW41921   3.401   5.207   5.567 -0.3418 -0.4195 -0.0770
13223SOL    HW141922   3.396   5.281   5.506  2.6362  0.3969  0.5212
13223SOL    HW241923   3.312   5.170   5.566 -1.4782  2.0353 -1.7547
13224SOL     OW41924   4.668   4.057   2.562  0.4663 -0.8653 -0.0282
13224SOL    HW141925   4.715   4.132   2.597 -1.0891  0.4666 -0.6984
13224SOL    HW241926   4.705   3.982   2.609  1.8745  0.3156  0.8431
13225SOL     OW41927   5.558   9.082  10.150  0.3585  0.7433 -0.1435
13225SOL    HW141928   5.481   9.116  10.105 -0.9158  1.3726  2.3673
13225SOL    HW241929   5.624   9.151  10.141  0.2466  0.7203 -1.2608
13226SOL     OW41930   2.352  10.374   4.821 -0.1361 -0.1475  0.3847
13226SOL    HW141931   2.402  10.455   4.806 -0.0653 -0.3634 -0.6297
13226SOL    HW241932   2.269  10.404   4.858  0.1226  0.3384  0.5955
13227SOL     OW41933   3.234   0.263   8.800 -0.0341  0.2212  0.1173
13227SOL    HW141934   3.257   0.331   8.736 -0.2469  1.6610  1.4995
13227SOL    HW241935   3.242   0.181   8.752 -0.8808  1.2782 -1.9698
13228SOL     OW41936   0.545   2.031   8.376 -0.3649 -0.2461 -0.5204
13228SOL    HW141937   0.617   2.072   8.329 -0.7746  1.5974  0.3658
13228SOL    HW241938   0.586   1.989   8.452 -0.2245  1.0753  0.1581
13229SOL     OW41939   5.830   9.531   6.735  0.1990 -0.1201  0.3583
13229SOL    HW141940   5.813   9.437   6.741  0.4475 -0.1823  0.1498
13229SOL    HW241941   5.792   9.557   6.651  0.5386 -0.1285  0.1998
13230SOL     OW41942   7.493   9.966   1.879 -0.0601 -0.3491 -0.3433
13230SOL    HW141943   7.487  10.008   1.965 -1.1899 -0.3547 -0.4045
13230SOL    HW241944   7.407   9.980   1.840  0.2743 -0.8052 -1.2663
13231SOL     OW41945   3.253   4.812   1.196 -0.5273  0.4692  0.1299
13231SOL    HW141946   3.344   4.793   1.170 -0.7959 -0.2232 -0.3591
13231SOL    HW241947   3.212   4.725   1.203 -1.1295  0.7721  0.4288
13232SOL     OW41948   2.761   7.201   2.956  0.1704  0.1428 -0.3310
13232SOL    HW141949   2.711   7.168   3.031  2.0857 -1.0336  0.5304
13232SOL    HW241950   2.757   7.296   2.963  1.5492  0.1066  2.2587
13233SOL     OW41951   5.249   9.548   8.735 -0.1477  0.1587 -0.4797
13233SOL    HW141952   5.315   9.617   8.725  0.8959 -0.8911 -0.9606
13233SOL    HW241953   5.284   9.491   8.804 -2.1179  1.3305  1.6340
13234SOL     OW41954   8.279   2.727   6.588 -0.1946 -0.7098  0.1800
13234SOL    HW141955   8.303   2.719   6.681 -0.3650  0.4071  0.3353
13234SOL    HW241956   8.184   2.741   6.590  0.1116  1.9068  0.0440
13235SOL     OW41957   4.540   5.338   3.839  0.3483  0.1944  0.4058
13235SOL    HW141958   4.450   5.367   3.855  0.9665  1.9612  0.9243
13235SOL    HW241959   4.543   5.250   3.875 -1.7885 -0.8636 -1.7452
13236SOL     OW41960   2.791   7.937   8.597  0.0615 -0.1939  0.3035
13236SOL    HW141961   2.769   8.021   8.557 -1.0399 -1.0601 -1.0276
13236SOL    HW241962   2.710   7.908   8.639  0.4810 -0.5183  0.9133
13237SOL     OW41963  10.140   8.302   5.234 -0.2806 -0.1782  0.3367
13237SOL    HW141964  10.111   8.229   5.290 -0.2721 -0.4013  0.0491
13237SOL    HW241965  10.148   8.376   5.295 -1.8795  0.0134  0.3758
13238SOL     OW41966   6.511   1.793   7.894 -0.6315 -0.3790 -0.2824
13238SOL    HW141967   6.560   1.875   7.897 -1.5071  0.2190 -1.4661
13238SOL    HW241968   6.549   1.745   7.821  1.1813 -1.9487  1.5662
13239SOL     OW41969   1.447   2.218   7.912 -0.3786 -0.2959 -0.0646
13239SOL    HW141970   1.374   2.200   7.853  0.5445 -0.8771 -1.0777
13239SOL    HW241971   1.524   2.223   7.854  0.3283  0.7359  0.9131
13240SOL     OW41972   9.097   7.433   7.786 -0.8622 -0.0204 -0.2374
13240SOL    HW141973   9.029   7.490   7.820 -1.1249  0.3422 -1.3479
13240SOL    HW241974   9.112   7.462   7.696  1.7103  0.8051  0.3607
13241SOL     OW41975   7.815   2.271  10.403  0.2676 -0.9288  0.1774
13241SOL    HW141976   7.816   2.367  10.399  0.0460 -0.9153  0.3754
13241SOL    HW241977   7.821   2.251  10.497  1.6751 -1.1404  0.0573
13242SOL     OW41978  10.439   4.020   4.533  0.4587 -0.2120 -0.4044
13242SOL    HW141979  10.452   4.079   4.607 -0.6767  1.1115 -1.2228
13242SOL    HW241980  10.527   3.998   4.504  0.9568 -1.1396  1.5841
13243SOL     OW41981   9.714   3.395   9.999 -0.3956  0.4045  0.3277
13243SOL    HW141982   9.798   3.435   9.978 -0.1261 -0.2001  0.2421
13243SOL    HW241983   9.650   3.463   9.979 -0.0413  0.3853 -0.9953
13244SOL     OW41984   3.897   9.207   6.639 -0.4827 -0.2536  0.5047
13244SOL    HW141985   3.888   9.216   6.544 -0.5473 -0.4344  0.4928
13244SOL    HW241986   3.854   9.123   6.659  0.1757 -0.5721  0.6004
13245SOL     OW41987   3.742   3.677   3.697 -0.4580 -0.3803 -0.5725
13245SOL    HW141988   3.753   3.617   3.772  0.7924 -1.0139 -1.2241
13245SOL    HW241989   3.670   3.639   3.647 -2.8267  1.2425  1.3696
13246SOL     OW41990   3.482   0.242   7.973  0.1279  0.2523  0.3981
13246SOL    HW141991   3.540   0.183   7.925  0.5059  0.2641  0.8308
13246SOL    HW241992   3.397   0.196   7.975 -0.1979  0.7283 -1.1896
13247SOL     OW41993   9.810   6.744   0.016 -0.2023 -0.4203  0.6468
13247SOL    HW141994   9.897   6.704   0.022  1.3342  2.5151 -0.4307
13247SOL    HW241995   9.809   6.812   0.083 -1.4092  0.0860  0.1496
13248SOL     OW41996   0.408   1.685   3.803 -0.3891 -0.0951  0.0358
13248SOL    HW141997   0.406   1.589   3.800 -1.2595 -0.2164  2.4123
13248SOL    HW241998   0.319   1.711   3.777 -0.3193  0.0397 -0.0654
13249SOL     OW41999   2.119   4.998   2.035 -0.1616  0.0964  0.4455
13249SOL    HW142000   2.210   4.971   2.047 -0.1710  0.6154  1.8231
13249SOL    HW242001   2.080   4.990   2.122 -0.5904  2.9114  0.5891
13250SOL     OW42002   3.297   5.236   6.753 -0.9357  0.4335 -0.5137
13250SOL    HW142003   3.372   5.294   6.738  1.8366 -2.3374  1.4266
13250SOL    HW242004   3.278   5.198   6.667  1.2847 -0.2797 -0.7395
13251SOL     OW42005   0.830   5.085   3.236  0.1039  0.4565 -0.0764
13251SOL    HW142006   0.859   5.112   3.149 -0.8080 -2.9552 -1.6154
13251SOL    HW242007   0.760   5.146   3.258  1.8537  2.7820 -0.6281
13252SOL     OW42008   0.249   5.962   1.792 -0.4725  0.1027 -0.4031
13252SOL    HW142009   0.197   5.883   1.776 -0.6885  0.1543  0.0184
13252SOL    HW242010   0.339   5.937   1.773 -0.3341 -0.6861  1.1281
13253SOL     OW42011   3.836   3.459   2.051  0.0054 -0.8114 -0.6260
13253SOL    HW142012   3.923   3.487   2.079 -0.0457  1.0292 -2.1313
13253SOL    HW242013   3.776   3.504   2.111  0.0368 -0.9393 -0.4971
13254SOL     OW42014   0.502   0.586   0.326 -0.1349  0.5079  0.0826
13254SOL    HW142015   0.494   0.604   0.233 -3.0422 -0.7011 -0.0033
13254SOL    HW242016   0.441   0.648   0.368  0.3342  0.3171  1.0854
13255SOL     OW42017   0.652   3.586   0.082  0.4989  0.1053 -0.1033
13255SOL    HW142018   0.627   3.666   0.036  0.0588 -1.1937 -2.2888
13255SOL    HW242019   0.634   3.516   0.020  0.6529 -1.7429  1.8024
13256SOL     OW42020   6.299   2.998   3.715 -0.1898 -0.1127  0.4402
13256SOL    HW142021   6.260   2.987   3.629  1.0334 -2.7475  0.1323
13256SOL    HW242022   6.288   3.092   3.735  0.2146  0.7503 -2.8889
13257SOL     OW42023   7.846   9.675   4.091 -0.0376  0.0665  0.1311
13257SOL    HW142024   7.883   9.639   4.010  1.0188  2.6219 -0.6341
13257SOL    HW242025   7.921   9.711   4.137 -0.9270  0.6313  1.1781
13258SOL     OW42026   1.722   6.151   4.482 -0.0799  0.2266 -0.0175
13258SOL    HW142027   1.648   6.095   4.507 -0.9202  1.7172  1.0127
13258SOL    HW242028   1.690   6.200   4.406  0.2961  0.0216 -0.3099
13259SOL     OW42029   9.377   6.327   7.942  0.1708  0.3866 -0.0812
13259SOL    HW142030   9.453   6.385   7.951 -0.6395  1.4000  0.4482
13259SOL    HW242031   9.305   6.385   7.918 -0.4343 -0.5666 -0.6261
13260SOL     OW42032   5.481   0.941   4.242  0.2922 -0.2678 -0.5777
13260SOL    HW142033   5.495   0.969   4.151  0.8490 -0.7822 -0.6606
13260SOL    HW242034   5.542   0.995   4.293 -0.7803  0.7704 -0.3772
13261SOL     OW42035   5.177   6.317   5.755  0.2410 -0.1647  0.3630
13261SOL    HW142036   5.134   6.366   5.684 -2.9658  2.2559  3.6192
13261SOL    HW242037   5.127   6.235   5.761  0.3680 -0.2708  0.0053
13262SOL     OW42038   6.713   1.707   8.656 -0.8126 -0.3241 -0.3931
13262SOL    HW142039   6.779   1.694   8.588 -1.2029 -0.8881 -0.6704
13262SOL    HW242040   6.718   1.629   8.710  0.4917  0.7317  1.1161
13263SOL     OW42041   4.167   9.536   3.888  0.7056 -0.2154  0.0498
13263SOL    HW142042   4.162   9.484   3.968 -0.6760 -0.0259  0.1178
13263SOL    HW242043   4.183   9.472   3.819 -0.9157 -0.7675  0.1419
13264SOL     OW42044  10.284   2.831   3.557  0.1626 -0.5765 -0.3907
13264SOL    HW142045  10.277   2.912   3.609  1.1329 -0.7417  0.0156
13264SOL    HW242046  10.195   2.795   3.558 -0.2152  0.3193 -0.3095
13265SOL     OW42047   9.206   9.135   1.532 -0.5391  0.2365 -0.0636
13265SOL    HW142048   9.144   9.139   1.605 -0.2358  0.1201  0.2062
13265SOL    HW242049   9.292   9.132   1.575 -0.3225  0.8689 -0.4367
13266SOL     OW42050   4.240   7.344   3.995 -0.3560 -0.1679 -0.0397
13266SOL    HW142051   4.330   7.375   4.003 -0.4647  0.3339 -0.6978
13266SOL    HW242052   4.208   7.381   3.913 -1.8058  1.3295  1.1123
13267SOL     OW42053   1.511  10.243  10.412  0.4232  0.0070 -0.0120
13267SOL    HW142054   1.558  10.161  10.393  0.7916  0.6098 -1.9051
13267SOL    HW242055   1.581  10.305  10.432  0.2152  0.1519  0.2635
13268SOL     OW42056   7.530   5.937   8.273 -0.1409  0.3484  0.0126
13268SOL    HW142057   7.536   5.845   8.246  2.9702  0.6042 -0.5064
13268SOL    HW242058   7.540   5.986   8.192 -1.3440  1.1955  0.3486
13269SOL     OW42059   6.845   3.778   8.946 -0.4267 -0.2485 -0.4329
13269SOL    HW142060   6.844   3.737   9.033  0.0131  0.1208 -0.2482
13269SOL    HW242061   6.803   3.863   8.959  2.0347  0.9854  0.0438
13270SOL     OW42062   6.714   9.082   4.033 -0.0628  0.5460 -0.2731
13270SOL    HW142063   6.781   9.116   4.093  0.8475  0.3656 -1.1694
13270SOL    HW242064   6.635   9.131   4.055  0.2491  0.4725  1.0807
13271SOL     OW42065   2.421   1.422   9.665  0.0335  0.6578 -0.2607
13271SOL    HW142066   2.325   1.430   9.659  0.1082  2.1511  0.1400
13271SOL    HW242067   2.451   1.511   9.679  1.4592  0.1308  0.1781
13272SOL     OW42068  10.554   8.261   0.071 -0.4109  0.1963  0.1192
13272SOL    HW142069  10.471   8.305   0.087 -0.0828  1.3811 -1.2534
13272SOL    HW242070  10.620   8.325   0.096  0.0775  0.5359 -1.9145
13273SOL     OW42071  10.337   7.798   1.582  0.3733  0.2027  0.0027
13273SOL    HW142072  10.345   7.718   1.635  1.0337  1.1209  1.3451
13273SOL    HW242073  10.403   7.788   1.514  0.2340 -0.5398 -0.0300
13274SOL     OW42074   7.254   8.001   5.350 -0.0171 -0.3659 -0.4673
13274SOL    HW142075   7.272   7.912   5.318 -1.3840 -1.5375  1.7350
13274SOL    HW242076   7.290   8.058   5.283 -1.0343 -2.5916 -3.1215
13275SOL     OW42077   6.877   6.261   2.860  0.4570 -0.5515  0.1660
13275SOL    HW142078   6.903   6.214   2.939 -1.8199 -1.7041  0.3283
13275SOL    HW242079   6.893   6.199   2.788  0.9164 -0.1494 -0.0872
13276SOL     OW42080   2.339   8.002   7.859 -0.3834 -0.1028 -0.1352
13276SOL    HW142081   2.405   7.960   7.914  1.7259  2.2889 -0.6605
13276SOL    HW242082   2.303   8.072   7.913 -1.2986 -0.3240 -0.4382
13277SOL     OW42083   5.569   2.614   1.014 -0.0307  0.1966  0.5685
13277SOL    HW142084   5.612   2.550   1.071  0.2046 -2.4221 -2.3084
13277SOL    HW242085   5.640   2.652   0.962 -0.4247  1.4210  0.8723
13278SOL     OW42086   1.642   0.734   1.535 -0.1002  0.2052 -0.1836
13278SOL    HW142087   1.631   0.649   1.579 -1.2071  0.2111 -0.4241
13278SOL    HW242088   1.659   0.711   1.443 -1.1305  0.2468 -0.3925
13279SOL     OW42089   1.470   9.649   9.994 -0.2356  0.1972  0.5432
13279SOL    HW142090   1.506   9.632  10.081  0.2136 -1.4109  0.0744
13279SOL    HW242091   1.538   9.619   9.934  0.5174  3.4857 -0.4508
13280SOL     OW42092   2.445  10.215   3.756  0.3829  0.4540 -0.2890
13280SOL    HW142093   2.354  10.214   3.726  0.2828  0.2869  0.0186
13280SOL    HW242094   2.453  10.298   3.804  0.1974  0.1398  0.2844
13281SOL     OW42095   4.956   3.374   6.792  0.6034  0.7014  0.3221
13281SOL    HW142096   4.888   3.308   6.783 -0.1707  1.3590  1.1815
13281SOL    HW242097   5.028   3.329   6.836  0.9757 -0.1496 -1.0990
13282SOL     OW42098   4.452   5.261   8.378 -0.5911 -0.7973  0.7297
13282SOL    HW142099   4.445   5.208   8.457 -0.7114 -0.8960  0.6528
13282SOL    HW242100   4.546   5.263   8.359 -0.5749 -0.8813  0.8021
13283SOL     OW42101   2.947   7.620   0.356 -0.3174 -0.6934  0.2590
13283SOL    HW142102   2.925   7.638   0.265  1.7096  0.7417 -0.0426
13283SOL    HW242103   3.043   7.625   0.358 -0.2228 -2.2050  2.1966
13284SOL     OW42104   5.061   6.701   6.834 -0.1756  0.3062 -0.1430
13284SOL    HW142105   5.048   6.680   6.926 -0.8479 -1.0271 -0.5041
13284SOL    HW242106   5.089   6.618   6.795  0.3564  0.9198 -1.0839
13285SOL     OW42107   6.465   9.689   2.928 -0.0466 -0.0214  0.2235
13285SOL    HW142108   6.380   9.676   2.969  0.6113  0.2306  1.7393
13285SOL    HW242109   6.449   9.680   2.834 -2.2106  2.5583  0.2592
13286SOL     OW42110   4.496   4.471   3.963 -0.0931 -0.5049  0.7707
13286SOL    HW142111   4.428   4.405   3.945 -0.5208  0.4621 -1.5829
13286SOL    HW242112   4.454   4.554   3.942  0.7064  0.4971  2.8865
13287SOL     OW42113  10.544   2.587   7.230 -0.3396 -0.2459  0.4377
13287SOL    HW142114  10.479   2.636   7.181 -0.4978 -1.0252 -0.1577
13287SOL    HW242115  10.552   2.504   7.183  1.7800  0.1933 -0.0764
13288SOL     OW42116   1.467   5.089   4.291  0.7010 -0.2702 -0.5038
13288SOL    HW142117   1.497   5.005   4.257  1.7655 -1.2602  2.5754
13288SOL    HW242118   1.547   5.131   4.324 -0.2942  0.2813  1.3294
13289SOL     OW42119   4.159   8.034   1.680 -0.1561 -0.3570  0.1564
13289SOL    HW142120   4.084   8.054   1.736  0.2244  0.1302  0.5065
13289SOL    HW242121   4.203   8.119   1.668  0.2177 -0.5990 -0.2178
13290SOL     OW42122   6.970   7.709   0.486 -0.2297 -0.3296 -0.4471
13290SOL    HW142123   7.056   7.709   0.527  0.0958  1.0854 -1.0529
13290SOL    HW242124   6.987   7.688   0.394 -0.5745 -0.4295 -0.4897
13291SOL     OW42125   2.507   4.826   4.554  0.2594 -0.3944  0.5561
13291SOL    HW142126   2.462   4.865   4.630 -0.1128 -0.6314  0.4587
13291SOL    HW242127   2.461   4.862   4.478  1.6031  1.0445  0.3839
13292SOL     OW42128   0.659   2.318   7.593 -0.0668  0.5471 -0.5303
13292SOL    HW142129   0.585   2.292   7.647 -0.0221  0.1240 -0.6648
13292SOL    HW242130   0.729   2.257   7.615  0.2537  0.9568 -0.3881
13293SOL     OW42131   6.661   0.141   6.962  0.0289 -0.1501 -0.2907
13293SOL    HW142132   6.750   0.112   6.983 -0.3799  0.3196  2.5553
13293SOL    HW242133   6.610   0.060   6.959  0.0621 -0.2413  1.0298
13294SOL     OW42134   5.272   8.844   5.217 -0.1310 -0.4490 -0.0902
13294SOL    HW142135   5.329   8.905   5.265  0.7375  0.2904 -1.9684
13294SOL    HW242136   5.184   8.863   5.250  0.4285 -0.0211  1.2367
13295SOL     OW42137   1.401   7.476   7.841  0.4789  0.3228 -0.5787
13295SOL    HW142138   1.324   7.455   7.788 -0.0952  1.3074 -0.1707
13295SOL    HW242139   1.368   7.475   7.931  1.1461 -0.0700 -0.3287
13296SOL     OW42140   2.357   1.551   5.037  0.4274  0.0840 -0.1448
13296SOL    HW142141   2.373   1.543   4.943  0.0904 -1.6584 -0.0738
13296SOL    HW242142   2.337   1.462   5.066 -1.5444  0.8944  1.2025
13297SOL     OW42143   1.696   0.499   0.389  0.1929  0.0453  0.0510
13297SOL    HW142144   1.678   0.588   0.357  2.8227  0.9287  0.7967
13297SOL    HW242145   1.671   0.502   0.481 -1.0870 -0.4785 -0.2557
13298SOL     OW42146   7.533   8.361   4.813 -0.3238  0.2439 -0.1709
13298SOL    HW142147   7.565   8.342   4.902 -0.5003  2.0158  0.2946
13298SOL    HW242148   7.457   8.418   4.826  1.4291  3.0885 -1.4824
13299SOL     OW42149   6.473   1.694   5.100  0.7215 -0.1581  0.2821
13299SOL    HW142150   6.406   1.685   5.032  0.5753  0.0608  0.3987
13299SOL    HW242151   6.536   1.624   5.080  1.2430  0.5700 -0.7255
13300SOL     OW42152   6.147   5.492   6.825 -0.4962 -0.1466  0.3448
13300SOL    HW142153   6.070   5.436   6.829 -0.9709  0.5516  1.5311
13300SOL    HW242154   6.111   5.581   6.819  0.2381  0.0822 -1.4261
13301SOL     OW42155  10.540   4.104   9.619  0.2509 -0.5616  0.0351
13301SOL    HW142156  10.543   4.199   9.605 -1.3535 -0.5323 -0.3576
13301SOL    HW242157  10.581   4.067   9.541 -0.8902 -0.2094 -0.7606
13302SOL     OW42158   9.365   9.544   5.384  0.2222  0.3363  0.3132
13302SOL    HW142159   9.371   9.639   5.388 -0.1200  0.5153 -1.9839
13302SOL    HW242160   9.447   9.516   5.343 -0.3807 -0.1729 -0.5842
13303SOL     OW42161   3.168   6.950   6.788 -0.3072  0.0629  0.1153
13303SOL    HW142162   3.247   7.002   6.804 -1.2135  1.4074  0.4157
13303SOL    HW242163   3.172   6.928   6.695  0.7371 -0.4526  0.2693
13304SOL     OW42164   4.478   0.355   8.776  0.3966  0.6048 -0.5380
13304SOL    HW142165   4.537   0.430   8.769  1.9966 -0.2624  2.0764
13304SOL    HW242166   4.474   0.337   8.870 -1.3363 -1.5066 -0.9459
13305SOL     OW42167   6.358   3.442   0.124  0.4353 -0.3192 -0.2407
13305SOL    HW142168   6.380   3.372   0.061  1.0779  1.6266 -2.3376
13305SOL    HW242169   6.265   3.430   0.141  1.1029 -3.6806  2.2146
13306SOL     OW42170   6.114   2.213   3.406 -0.4345  0.7416 -0.2369
13306SOL    HW142171   6.036   2.173   3.368 -0.1987 -0.4471  0.4803
13306SOL    HW242172   6.141   2.280   3.343 -0.7297 -0.3763 -1.5791
13307SOL     OW42173   1.474   1.294   3.860  0.1748  0.2116 -0.9109
13307SOL    HW142174   1.476   1.385   3.830 -1.0417  0.2020 -1.0525
13307SOL    HW242175   1.424   1.248   3.793  0.8124 -0.5803 -0.8541
13308SOL     OW42176   0.554  10.370  10.190 -0.2676  0.2830  0.0359
13308SOL    HW142177   0.568  10.292  10.244 -0.9221 -0.1585 -0.4091
13308SOL    HW242178   0.548  10.442  10.253 -0.5967 -0.1628  0.5268
13309SOL     OW42179   9.914   8.375   2.778 -0.5571 -0.4289 -0.0903
13309SOL    HW142180   9.950   8.395   2.865  0.3597  0.4036 -0.6403
13309SOL    HW242181   9.980   8.409   2.717 -0.9889 -1.3807 -1.1119
13310SOL     OW42182   4.832   1.327  10.269  0.5127  0.4389  0.3247
13310SOL    HW142183   4.906   1.327  10.329 -0.6707 -2.7146  1.9889
13310SOL    HW242184   4.760   1.288  10.318 -1.1012 -0.4569 -2.5017
13311SOL     OW42185   8.702   5.982   2.357 -1.1379 -0.3022  0.0775
13311SOL    HW142186   8.625   5.948   2.313 -0.7448 -0.4276 -0.5346
13311SOL    HW242187   8.764   5.909   2.357 -0.2767  0.3636 -1.2697
13312SOL     OW42188   2.636   5.801   1.434 -0.4786  0.7539  0.0378
13312SOL    HW142189   2.689   5.879   1.420 -0.8345  0.7250 -1.6607
13312SOL    HW242190   2.675   5.758   1.510  2.4827  0.3077 -1.5756
13313SOL     OW42191   7.311   2.650   9.607  0.0094  0.2334  0.1927
13313SOL    HW142192   7.274   2.587   9.545 -0.9394  0.0568  0.9165
13313SOL    HW242193   7.384   2.603   9.648 -0.5284 -0.3218  0.5352
13314SOL     OW42194   7.282   2.070   5.865  0.1151  0.2510  0.0880
13314SOL    HW142195   7.242   2.031   5.943  0.3406  0.4665  0.3125
13314SOL    HW242196   7.353   2.009   5.842  0.6998  0.7144  0.6530
13315SOL     OW42197   3.804   0.589   7.787  0.3621 -0.2476 -0.4400
13315SOL    HW142198   3.738   0.637   7.836  0.9533  0.5734 -0.4142
13315SOL    HW242199   3.848   0.535   7.853  0.5598  0.1745 -0.2184
13316SOL     OW42200   5.074  10.629   9.384 -0.0546  0.1454  0.1899
13316SOL    HW142201   5.079  10.722   9.363 -0.6482 -0.2217 -1.7744
13316SOL    HW242202   4.983  10.615   9.412 -0.2934 -0.0298 -0.6387
13317SOL     OW42203   9.539   3.651   1.787 -0.1141  0.2825  0.3434
13317SOL    HW142204   9.629   3.682   1.792 -0.3045  1.0056 -0.4652
13317SOL    HW242205   9.527   3.630   1.694 -0.0761 -1.9891  0.7956
13318SOL     OW42206   2.468  10.447   8.123  0.1375  0.2370 -0.4776
13318SOL    HW142207   2.495  10.501   8.197 -1.2508 -0.8465  0.8818
13318SOL    HW242208   2.435  10.366   8.163 -0.5760 -0.4077 -2.2807
13319SOL     OW42209   4.825   1.015   4.028 -0.3412 -0.5137 -0.2215
13319SOL    HW142210   4.756   0.958   4.061  0.1500 -0.7853  0.3723
13319SOL    HW242211   4.855   0.973   3.948 -0.5365 -0.6522 -0.2226
13320SOL     OW42212   6.777   7.144   3.582 -0.3362 -0.6670  0.7732
13320SOL    HW142213   6.861   7.145   3.538 -0.6698 -0.3630  0.1317
13320SOL    HW242214   6.713   7.130   3.513 -0.6842 -3.1534  1.5010
13321SOL     OW42215   9.757   6.577   1.672 -0.3796 -0.4160  0.2423
13321SOL    HW142216   9.682   6.523   1.648 -0.5095  0.4571 -1.4247
13321SOL    HW242217   9.821   6.515   1.707 -0.6440 -1.6419 -1.3392
13322SOL     OW42218   0.892   7.505   8.860  0.2020 -0.1496  0.0291
13322SOL    HW142219   0.854   7.432   8.910 -0.0964 -0.3873 -0.5319
13322SOL    HW242220   0.986   7.502   8.879 -0.0456  0.4484  1.4428
13323SOL     OW42221   0.389   2.328   4.037 -0.0372  0.3113  0.1829
13323SOL    HW142222   0.485   2.324   4.041 -0.0379  0.4805  0.3869
13323SOL    HW242223   0.360   2.268   4.106 -0.0798  0.2171  0.0841
13324SOL     OW42224   8.960   2.201   3.037 -0.0493  0.1921 -0.4687
13324SOL    HW142225   8.907   2.271   3.000 -0.6311  0.3630  0.6538
13324SOL    HW242226   9.026   2.246   3.090  0.0719 -0.0794 -0.3855
13325SOL     OW42227   9.273   0.296   5.884 -0.1126  0.2336 -0.2478
13325SOL    HW142228   9.359   0.299   5.927 -0.6521 -1.7421  1.1475
13325SOL    HW242229   9.292   0.267   5.795  0.6695 -0.5557  0.1550
13326SOL     OW42230   8.608   1.611   0.578  0.0855 -0.0603 -0.4399
13326SOL    HW142231   8.569   1.669   0.513 -2.1414  1.3887  1.9978
13326SOL    HW242232   8.574   1.643   0.661  3.0973 -1.5796  1.5163
13327SOL     OW42233   2.561   3.157   6.062  0.5151 -0.2565  0.1470
13327SOL    HW142234   2.483   3.193   6.019  0.2094  0.5983  1.3634
13327SOL    HW242235   2.575   3.213   6.138  1.2139 -1.5439  1.0110
13328SOL     OW42236   8.507   0.679   8.785 -0.4542 -0.6612  0.3132
13328SOL    HW142237   8.538   0.646   8.700 -1.0897 -1.3377  0.3316
13328SOL    HW242238   8.488   0.600   8.835 -0.6314 -0.2590  0.8822
13329SOL     OW42239   8.068   3.332   9.970 -0.3034 -0.2376 -1.0817
13329SOL    HW142240   8.091   3.342   9.877  3.0792 -0.8992 -0.4564
13329SOL    HW242241   8.127   3.393  10.016 -0.9617 -0.8934  0.7205
13330SOL     OW42242   0.709   5.687   7.569 -0.4819  0.4355  0.0959
13330SOL    HW142243   0.681   5.690   7.661  0.5187 -0.7179  0.4591
13330SOL    HW242244   0.629   5.663   7.522 -0.3427 -2.5035  1.0924
13331SOL     OW42245   6.076   2.971   5.193  0.5768 -0.3410 -0.8481
13331SOL    HW142246   6.139   3.011   5.133 -0.1025  1.0874 -0.6560
13331SOL    HW242247   6.130   2.934   5.264  1.2313  0.4340 -0.9287
13332SOL     OW42248  10.385   8.179   2.236  0.0144 -0.1291  0.4089
13332SOL    HW142249  10.299   8.135   2.234  0.0404 -0.1755 -1.2229
13332SOL    HW242250  10.443   8.119   2.190  1.1745 -0.5262  2.3143
13333SOL     OW42251   5.404   6.792   8.663 -0.7206 -0.2914 -0.0790
13333SOL    HW142252   5.332   6.776   8.724 -0.6984  0.8747  0.2828
13333SOL    HW242253   5.478   6.813   8.720 -0.5962  0.4028 -0.4904
13334SOL     OW42254   2.523   1.096   2.135  0.1029  0.5139  0.1712
13334SOL    HW142255   2.613   1.068   2.149 -0.4839 -2.7318 -1.6572
13334SOL    HW242256   2.500   1.062   2.049 -3.2215  0.2287  1.0373
13335SOL     OW42257   0.955   7.042   9.480 -0.2834 -0.1134  0.1874
13335SOL    HW142258   0.931   7.057   9.572 -0.8341 -0.1073  0.0491
13335SOL    HW242259   0.884   6.989   9.445 -0.3476  0.3269 -0.3738
13336SOL     OW42260   7.430   5.762   8.920 -0.3101 -0.2415  0.4304
13336SOL    HW142261   7.459   5.745   9.009 -1.4337 -0.4665  0.7691
13336SOL    HW242262   7.428   5.675   8.879 -1.1042 -0.3223  0.6135
13337SOL     OW42263   8.536   1.913   0.614 -0.0084  0.3633  0.0417
13337SOL    HW142264   8.445   1.915   0.645 -0.1839 -0.9530 -0.3247
13337SOL    HW242265   8.580   1.979   0.667 -0.4905 -1.1539  2.5387
13338SOL     OW42266   6.766   9.524   3.508  0.6547  0.1267 -0.2974
13338SOL    HW142267   6.778   9.430   3.497  0.5393 -0.3252  2.6295
13338SOL    HW242268   6.676   9.534   3.537  1.2113  0.9147  1.2424
13339SOL     OW42269   2.556   9.606   0.889  0.1476 -0.4514  0.4151
13339SOL    HW142270   2.633   9.578   0.939  0.3570  0.8990  0.8917
13339SOL    HW242271   2.481   9.578   0.942  0.3644  1.6265  1.9534
13340SOL     OW42272   9.990   8.812   6.536 -0.4366 -1.1243  0.6657
13340SOL    HW142273  10.052   8.863   6.484 -0.2541 -1.5829  0.4295
13340SOL    HW242274   9.956   8.874   6.601 -0.0141 -0.7761  0.5566
13341SOL     OW42275   7.560  10.356   3.758  0.5189 -0.1207  0.1451
13341SOL    HW142276   7.648  10.337   3.723 -0.0833 -0.8653 -1.0287
13341SOL    HW242277   7.548  10.450   3.745  0.5099 -0.2995 -1.2170
13342SOL     OW42278   3.918   8.543   3.519  0.1487  0.2691  0.4998
13342SOL    HW142279   3.888   8.608   3.456  0.8455  0.5179  0.4194
13342SOL    HW242280   4.013   8.546   3.513  0.1872 -1.2833 -0.0423
13343SOL     OW42281   4.230   1.125   3.010  0.4905  0.1766 -0.2909
13343SOL    HW142282   4.200   1.147   3.098  0.4711 -0.2086 -0.1995
13343SOL    HW242283   4.316   1.166   3.002  1.0536 -0.8494  0.3704
13344SOL     OW42284   4.072   9.508   8.070  0.1662  0.0441 -0.6252
13344SOL    HW142285   4.147   9.467   8.113  0.7497  0.4747 -1.2218
13344SOL    HW242286   4.065   9.463   7.986  0.2025  0.4868 -0.8703
13345SOL     OW42287   0.760   6.303   4.996 -0.1833 -0.6598  0.1805
13345SOL    HW142288   0.762   6.210   5.019  0.1800 -0.5006  0.7892
13345SOL    HW242289   0.747   6.348   5.079  0.9837 -0.0947  0.0737
13346SOL     OW42290   4.989   3.879  10.114 -0.0922 -0.3592  0.2457
13346SOL    HW142291   4.990   3.968  10.081 -0.8130 -0.7757 -0.9672
13346SOL    HW242292   5.024   3.886  10.203  4.9800  0.4595 -1.4293
13347SOL     OW42293   7.205   3.450   9.485  0.4348 -0.3017  0.6682
13347SOL    HW142294   7.216   3.363   9.446  1.3343 -0.6239  1.5941
13347SOL    HW242295   7.259   3.508   9.431 -1.8886  0.1832 -1.3479
13348SOL     OW42296   0.398   2.869   9.280  0.2141  0.1432 -0.0914
13348SOL    HW142297   0.366   2.954   9.251  1.4385  1.2365  1.6091
13348SOL    HW242298   0.339   2.806   9.238 -0.8487  1.8078 -1.2270
13349SOL     OW42299   8.750   9.563   3.331 -0.3566 -0.1443 -0.3091
13349SOL    HW142300   8.668   9.583   3.378 -0.0136  0.4108  0.0683
13349SOL    HW242301   8.722   9.515   3.254 -0.9658 -0.8274  0.3211
13350SOL     OW42302   3.403   8.428   4.690 -0.0308 -0.4343  0.5928
13350SOL    HW142303   3.396   8.343   4.647  0.6647 -0.5382  0.6647
13350SOL    HW242304   3.497   8.447   4.689 -0.2083  0.4650  0.3209
13351SOL     OW42305  10.146   2.836   6.300 -0.6641  0.6957  0.2106
13351SOL    HW142306  10.062   2.791   6.305 -0.8758  1.2071  3.4271
13351SOL    HW242307  10.207   2.777   6.344 -0.1614  1.9487  1.2289
13352SOL     OW42308   5.595   7.629   3.186  0.0609  0.0349 -0.1634
13352SOL    HW142309   5.610   7.666   3.272  0.4730  0.7697 -0.5393
13352SOL    HW242310   5.502   7.608   3.184 -0.4654  2.2167 -0.3768
13353SOL     OW42311   6.563   8.528   2.703  0.6956 -0.1194  0.1641
13353SOL    HW142312   6.513   8.490   2.631  2.2636  1.3930 -1.8850
13353SOL    HW242313   6.528   8.617   2.712  0.4001 -0.3481  1.4231
13354SOL     OW42314   2.812   4.673   9.072 -0.1180  0.1176 -0.7256
13354SOL    HW142315   2.813   4.667   8.976 -1.5153 -2.0519 -0.6764
13354SOL    HW242316   2.719   4.676   9.095  0.1167 -1.2938  0.5875
13355SOL     OW42317   9.926   7.891   3.847 -0.3647  0.1165 -0.7235
13355SOL    HW142318   9.878   7.934   3.776 -2.3728 -1.4889 -0.4176
13355SOL    HW242319   9.885   7.805   3.855 -1.1039  0.6455  3.1615
13356SOL     OW42320   9.674   8.691   9.676  0.2366 -0.3935 -0.8193
13356SOL    HW142321   9.641   8.634   9.745  0.9974  0.5060  0.3222
13356SOL    HW242322   9.759   8.654   9.652 -1.1776 -2.3853 -3.3725
13357SOL     OW42323   7.013   3.200   8.966  0.3759 -0.0025 -0.7852
13357SOL    HW142324   7.032   3.280   9.016  2.9615  1.3553 -3.6085
13357SOL    HW242325   7.070   3.134   9.005 -0.7631 -0.1550  0.6921
13358SOL     OW42326   8.281   2.517   7.260 -0.4234  0.2614 -0.6360
13358SOL    HW142327   8.306   2.529   7.352  1.2071  1.6720 -1.1955
13358SOL    HW242328   8.188   2.498   7.262 -0.3826  0.1238  1.3226
13359SOL     OW42329  10.616   8.207   2.790 -0.1020 -0.6130 -0.2513
13359SOL    HW142330  10.575   8.141   2.734  1.7154 -0.3635 -1.9669
13359SOL    HW242331  10.707   8.179   2.797  0.5933  1.4293 -0.6310
13360SOL     OW42332   9.700   6.962   7.978  0.0719 -0.5198 -0.5450
13360SOL    HW142333   9.673   6.946   8.069 -0.1412  0.4115 -0.4299
13360SOL    HW242334   9.752   7.043   7.983  1.9440 -1.6421 -0.9402
13361SOL     OW42335   1.875   3.475   9.183  0.1153 -0.4579  0.1685
13361SOL    HW142336   1.920   3.398   9.217 -1.3470 -1.6307 -0.4076
13361SOL    HW242337   1.823   3.507   9.257 -0.0847 -0.6720  0.1223
13362SOL     OW42338   3.074   4.401   5.294 -0.3886  0.2327 -0.1621
13362SOL    HW142339   3.108   4.445   5.216 -1.3257 -1.9028 -1.8630
13362SOL    HW242340   3.122   4.318   5.297 -0.2268  0.3596  1.6823
13363SOL     OW42341   4.102   1.273   1.424  0.4972 -0.1840 -0.0845
13363SOL    HW142342   4.183   1.319   1.403  0.9823 -0.6330  0.7415
13363SOL    HW242343   4.080   1.224   1.344  0.1248  1.2070 -0.8778
13364SOL     OW42344   1.420   9.638   7.427  0.1108 -0.0906  0.1001
13364SOL    HW142345   1.364   9.715   7.436 -0.4504 -0.4455 -0.2811
13364SOL    HW242346   1.485   9.648   7.496 -0.6681  0.1287  0.8224
13365SOL     OW42347   8.622   0.701   5.515  0.7263  0.1765 -0.3114
13365SOL    HW142348   8.619   0.789   5.478 -1.4441 -0.4528 -1.8258
13365SOL    HW242349   8.542   0.694   5.568  0.8630 -0.8885 -0.2246
13366SOL     OW42350   0.911   1.734   0.396  0.1029  0.3487  0.2525
13366SOL    HW142351   0.816   1.734   0.388 -0.1672 -1.9209  2.3111
13366SOL    HW242352   0.929   1.783   0.477  0.8646  2.1154 -0.9213
13367SOL     OW42353  10.443   3.466   2.138 -0.3713  0.2035 -0.8823
13367SOL    HW142354  10.406   3.438   2.221  1.7498  3.1252  1.2551
13367SOL    HW242355  10.375   3.520   2.098 -0.5243  0.9136  0.2791
13368SOL     OW42356   6.893  10.387   3.867  0.9514  0.0484 -0.3559
13368SOL    HW142357   6.803  10.409   3.842 -0.2115 -0.6707  2.7101
13368SOL    HW242358   6.940  10.470   3.864 -0.5065  0.9375  0.4557
13369SOL     OW42359   9.222   7.478   5.938  0.0456 -0.0627  0.7930
13369SOL    HW142360   9.253   7.537   6.007  0.8552 -1.1031  1.3537
13369SOL    HW242361   9.180   7.406   5.986 -0.2313 -0.3239  0.1597
13370SOL     OW42362   7.372   7.790   7.661  0.4506 -0.0263  0.1569
13370SOL    HW142363   7.283   7.769   7.688 -0.3416  1.4252 -1.2455
13370SOL    HW242364   7.415   7.821   7.741  0.1481 -1.9558  1.1355
13371SOL     OW42365   9.679   8.016   2.338 -0.2077 -0.1114  0.0356
13371SOL    HW142366   9.751   8.053   2.388  0.9281 -0.6652 -1.1279
13371SOL    HW242367   9.718   7.940   2.293 -1.1997  0.2844 -1.5646
13372SOL     OW42368   0.726   8.505   7.144 -0.2601 -0.5207  0.5278
13372SOL    HW142369   0.772   8.569   7.090  1.1682 -2.3157 -0.4948
13372SOL    HW242370   0.796   8.455   7.186 -1.3071 -1.9269  0.6543
13373SOL     OW42371   2.889   8.174   7.192  0.2338 -0.7161 -0.5215
13373SOL    HW142372   2.832   8.118   7.245  0.3879  1.2549  1.9265
13373SOL    HW242373   2.839   8.191   7.113 -1.9712 -0.3193  0.8634
13374SOL     OW42374   6.660   8.432   7.892  0.2462  0.4752 -0.3375
13374SOL    HW142375   6.673   8.360   7.954  1.2546  0.7104 -0.2636
13374SOL    HW242376   6.578   8.473   7.921  1.6544  1.7869  2.0852
13375SOL     OW42377   3.805   6.256   1.854 -0.3623 -0.5901  0.1458
13375SOL    HW142378   3.755   6.175   1.842 -1.9840  0.4944 -0.6510
13375SOL    HW242379   3.759   6.303   1.923  1.1198 -0.7177  1.2825
13376SOL     OW42380   4.570   4.075   6.897 -0.2673 -0.0887  0.2116
13376SOL    HW142381   4.580   4.120   6.981  1.1538 -1.4824  0.8340
13376SOL    HW242382   4.634   4.117   6.839  1.5507 -1.6582  0.9877
13377SOL     OW42383   9.285   9.188   6.891 -0.8943  0.1802  0.0921
13377SOL    HW142384   9.224   9.213   6.961  0.2188  0.2162  1.0977
13377SOL    HW242385   9.247   9.110   6.852 -2.4321  1.1712 -0.4530
13378SOL     OW42386   3.008  10.076   2.948  0.3020 -0.1576  0.0314
13378SOL    HW142387   3.089  10.081   2.898  0.1531  0.6113 -0.1476
13378SOL    HW242388   2.957  10.152   2.919 -0.2731 -0.3527  0.5038
13379SOL     OW42389   6.089   0.357  10.448 -0.0569 -0.2416  0.3175
13379SOL    HW142390   6.090   0.287  10.513 -1.2899 -1.2347 -0.6830
13379SOL    HW242391   5.997   0.378  10.435  0.1157 -0.3606 -1.3785
13380SOL     OW42392   0.408   3.349   5.803 -0.0690  0.1276  0.2677
13380SOL    HW142393   0.324   3.351   5.848 -0.8221 -0.9587 -1.0267
13380SOL    HW242394   0.473   3.338   5.873 -1.0524  0.1236  1.2030
13381SOL     OW42395   5.354   8.238   1.376 -0.0077 -0.5872  0.1884
13381SOL    HW142396   5.429   8.226   1.317  1.1138  0.0790  1.4232
13381SOL    HW242397   5.369   8.175   1.446 -1.3880 -1.4497 -0.2689
13382SOL     OW42398   4.923   4.469   4.945  0.0451 -0.0720  0.0514
13382SOL    HW142399   4.859   4.407   4.909 -0.6309 -0.3630  1.6914
13382SOL    HW242400   4.879   4.510   5.019  1.3254  0.6399  0.4598
13383SOL     OW42401   9.276   2.796   7.308  0.3333  0.3218 -0.4192
13383SOL    HW142402   9.236   2.719   7.349  0.4113  0.4479 -0.1051
13383SOL    HW242403   9.360   2.806   7.353  0.5442  0.2918 -0.8079
13384SOL     OW42404  10.241   0.831   4.065 -0.1556 -0.4383  0.0199
13384SOL    HW142405  10.280   0.896   4.007  0.0264 -0.8968 -0.3699
13384SOL    HW242406  10.153   0.817   4.030 -0.3458 -0.1072  0.3459
13385SOL     OW42407   6.759   6.587   8.363  0.2808 -0.0909 -0.2116
13385SOL    HW142408   6.689   6.539   8.318  0.0746 -2.0187  1.9300
13385SOL    HW242409   6.828   6.521   8.376  2.7677  1.8388 -2.5753
13386SOL     OW42410   4.706   0.380   8.370  0.2464 -0.0202  0.3823
13386SOL    HW142411   4.617   0.358   8.399 -0.8663  1.7442 -1.4553
13386SOL    HW242412   4.762   0.319   8.418 -1.6865  0.4165  3.4815
13387SOL     OW42413   5.052   2.881   7.676  0.6468 -0.3835  0.6762
13387SOL    HW142414   5.020   2.830   7.751 -1.1345 -1.1312 -0.5364
13387SOL    HW242415   5.026   2.831   7.599  0.5757  1.3837 -0.5169
13388SOL     OW42416   2.988   4.013   9.843  0.9367 -0.1868  0.5334
13388SOL    HW142417   3.038   3.991   9.765 -0.3841  1.5965 -0.9130
13388SOL    HW242418   2.984   4.109   9.843 -2.1836 -0.2192  0.6959
13389SOL     OW42419   0.184   1.732   4.423  0.3071 -0.2305 -0.1250
13389SOL    HW142420   0.098   1.697   4.447  1.3324 -2.0271  1.2807
13389SOL    HW242421   0.243   1.656   4.429  2.0570  1.0125 -0.6352
13390SOL     OW42422   7.538   5.624   4.803 -0.3397 -0.2923  0.0086
13390SOL    HW142423   7.534   5.659   4.714  0.0857 -1.1332 -0.3505
13390SOL    HW242424   7.448   5.596   4.821 -0.5081  0.2303 -0.0079
13391SOL     OW42425   2.785   1.090   0.734  0.0439 -0.0299 -0.2702
13391SOL    HW142426   2.704   1.060   0.694  0.3368  0.4608 -1.2483
13391SOL    HW242427   2.799   1.178   0.698  0.1295  0.5869  1.1800
13392SOL     OW42428   7.657   3.681  10.183  0.1557  0.0882 -0.3753
13392SOL    HW142429   7.569   3.717  10.194 -0.1582 -0.8550  0.3611
13392SOL    HW242430   7.663   3.613  10.250  1.6625  0.5365 -0.0377
13393SOL     OW42431   0.446   4.099  10.215  0.3638  0.0600 -0.1860
13393SOL    HW142432   0.438   4.181  10.167  1.2176  0.0528 -0.3672
13393SOL    HW242433   0.356   4.072  10.233  0.0692  0.8245 -0.4793
13394SOL     OW42434   7.434   3.848   4.977 -0.0458 -0.2373  0.5171
13394SOL    HW142435   7.378   3.771   4.965  0.5469 -0.5227 -0.5802
13394SOL    HW242436   7.424   3.897   4.896 -0.8434  1.1469  1.4287
13395SOL     OW42437   7.659   6.396   1.508 -0.0994  0.3544 -0.5471
13395SOL    HW142438   7.631   6.377   1.418 -2.8027 -0.1145  0.2864
13395SOL    HW242439   7.629   6.320   1.559  3.4454 -0.5187  0.5047
13396SOL     OW42440   5.733   3.406   3.322  1.0047  0.0639  0.0210
13396SOL    HW142441   5.641   3.419   3.303  1.0857 -0.4946 -0.8359
13396SOL    HW242442   5.749   3.456   3.402 -0.1201 -0.1515  0.3948
13397SOL     OW42443   3.623   9.893   5.723 -0.0654  0.2005  0.2651
13397SOL    HW142444   3.695   9.948   5.692 -0.0151  1.0276  1.8012
13397SOL    HW242445   3.580   9.864   5.642  1.9690 -0.3428 -0.7104
13398SOL     OW42446   7.344   8.187   4.537  0.0046  0.1044  0.6400
13398SOL    HW142447   7.349   8.145   4.623  3.4356 -1.3913 -0.1257
13398SOL    HW242448   7.304   8.122   4.480  1.9251 -0.7942  0.2361
13399SOL     OW42449   3.121   3.030   3.729 -0.4370  0.3869  0.0113
13399SOL    HW142450   3.199   3.080   3.755  0.6343 -0.6640 -1.1067
13399SOL    HW242451   3.050   3.095   3.729  0.0194  1.0188  2.7942
13400SOL     OW42452   0.182   4.066   3.318  0.3591 -0.4525 -0.4123
13400SOL    HW142453   0.121   3.995   3.340 -0.7170  0.4758 -0.3023
13400SOL    HW242454   0.253   4.058   3.381 -1.3097  0.4783  1.7101
13401SOL     OW42455   2.272   2.111   3.669 -0.6103  0.4580  0.3482
13401SOL    HW142456   2.342   2.158   3.624  1.0563 -0.6330  1.7059
13401SOL    HW242457   2.206   2.178   3.688  0.3711  1.6524 -0.3344
13402SOL     OW42458   4.559   6.180   4.252 -0.8801 -0.3806  0.5130
13402SOL    HW142459   4.476   6.226   4.241 -0.3239  0.4504 -0.3735
13402SOL    HW242460   4.567   6.127   4.173 -0.4587 -0.2679  0.4777
13403SOL     OW42461  10.651   0.638   5.107 -0.2642 -0.6399  0.0173
13403SOL    HW142462  10.726   0.671   5.157  1.0445 -0.4211 -1.9666
13403SOL    HW242463  10.642   0.547   5.134  1.3279 -0.9317 -0.3267
13404SOL     OW42464   2.729   0.737   9.063  0.4126  0.3045 -0.8653
13404SOL    HW142465   2.691   0.667   9.116 -0.2228  0.5100 -1.0404
13404SOL    HW242466   2.814   0.754   9.103 -0.8375  1.8254  1.3205
13405SOL     OW42467   1.715   7.531   3.174  0.4758 -0.3215  0.5743
13405SOL    HW142468   1.767   7.450   3.178  0.3744 -0.3676  1.0680
13405SOL    HW242469   1.703   7.556   3.265 -1.6124 -1.1201  0.5787
13406SOL     OW42470   4.031   9.013   1.141  0.4126  0.3245 -0.5332
13406SOL    HW142471   4.105   9.041   1.087 -0.5914 -0.3511 -2.3685
13406SOL    HW242472   4.041   8.919   1.149  1.3230  0.5663  1.7664
13407SOL     OW42473   4.441   0.044   7.954  1.0182  0.4708 -0.0170
13407SOL    HW142474   4.444  -0.025   8.020  1.5938  0.4848 -0.0276
13407SOL    HW242475   4.467   0.000   7.873 -1.7677 -0.0926 -0.7380
13408SOL     OW42476   4.313   1.945   0.992  0.0587 -0.5993  0.4888
13408SOL    HW142477   4.360   1.922   1.072  0.7415 -2.5752 -0.4069
13408SOL    HW242478   4.350   1.886   0.926 -0.2615  1.1865 -1.3617
13409SOL     OW42479   4.972   3.137   6.608  0.1577 -0.4370  0.3775
13409SOL    HW142480   4.889   3.090   6.615 -0.0757  0.0983  1.4702
13409SOL    HW242481   5.029   3.095   6.673  1.0579 -1.3874 -0.9853
13410SOL     OW42482  10.119   8.691   6.237 -0.4142 -0.3809  0.5113
13410SOL    HW142483  10.134   8.784   6.217  1.2683 -0.8997 -0.8705
13410SOL    HW242484  10.026   8.677   6.219 -0.4762  0.8194 -0.1809
13411SOL     OW42485   9.426   7.431   1.695 -0.0579 -0.1454 -0.6057
13411SOL    HW142486   9.472   7.367   1.750  0.8823  0.9337 -0.0998
13411SOL    HW242487   9.496   7.481   1.653 -0.7781  0.7557 -0.7636
13412SOL     OW42488   3.797   7.753   7.575 -0.3145  0.6312 -0.7360
13412SOL    HW142489   3.860   7.702   7.626  0.0416  1.1779 -0.6248
13412SOL    HW242490   3.754   7.689   7.519 -0.7309  0.0033  0.2698
13413SOL     OW42491   2.081   4.872   4.070  0.1823  0.3672 -0.1773
13413SOL    HW142492   2.150   4.813   4.040  1.1938  1.7257 -0.6037
13413SOL    HW242493   2.125   4.955   4.086 -1.2898  1.1696 -0.0732
13414SOL     OW42494   0.854   3.975   7.693 -0.8577 -0.2504  0.1664
13414SOL    HW142495   0.846   3.892   7.740 -1.5160  0.0949  0.6802
13414SOL    HW242496   0.857   4.041   7.762 -0.5492  0.1715 -0.2441
13415SOL     OW42497   6.364   4.784   6.838 -0.2592  0.8220 -0.7636
13415SOL    HW142498   6.399   4.842   6.905  2.6063 -1.3748 -0.1415
13415SOL    HW242499   6.307   4.724   6.885  1.3424 -0.3897 -0.2538
13416SOL     OW42500   7.021   6.887  10.627  0.4518 -0.3515  0.0402
13416SOL    HW142501   7.081   6.890  10.701  1.0951 -2.3603 -0.3498
13416SOL    HW242502   7.071   6.845  10.557 -0.8069 -0.3321 -0.9038
13417SOL     OW42503   6.989   0.724   8.715  0.0029 -0.3009  0.1708
13417SOL    HW142504   7.069   0.718   8.767  0.5406  2.4219 -0.1865
13417SOL    HW242505   7.017   0.758   8.631 -1.5144  1.0668  0.1508
13418SOL     OW42506   6.320   2.208   4.010 -0.1037  0.1615 -0.7269
13418SOL    HW142507   6.403   2.256   4.005  0.0180 -0.0517 -0.8340
13418SOL    HW242508   6.255   2.273   4.032  0.2965  0.1116  0.6642
13419SOL     OW42509   5.961   1.562   7.732 -0.5230 -0.5260 -0.1360
13419SOL    HW142510   6.022   1.613   7.785  0.2583  0.3586 -1.8312
13419SOL    HW242511   5.892   1.536   7.794 -0.2073  1.3745  1.0816
13420SOL     OW42512   4.546   9.219  10.285  0.1753  0.2442 -0.2322
13420SOL    HW142513   4.613   9.163  10.323 -0.8535  0.5188  2.1708
13420SOL    HW242514   4.463   9.179  10.311 -0.5767  1.9660  0.1543
13421SOL     OW42515   7.404   5.589   7.980 -0.0290 -0.6312 -0.2972
13421SOL    HW142516   7.377   5.537   7.905 -0.5776  0.0519 -0.5823
13421SOL    HW242517   7.338   5.658   7.987  0.0201 -0.6700  0.7992
13422SOL     OW42518   7.580   0.660   8.273  0.2489 -0.2291 -0.2139
13422SOL    HW142519   7.547   0.645   8.184  0.7943 -1.1193 -0.2837
13422SOL    HW242520   7.537   0.740   8.301  1.2954  0.9842 -1.8827
13423SOL     OW42521   8.895  10.061   2.809  0.5637 -0.6674  0.5809
13423SOL    HW142522   8.865  10.042   2.720 -1.6391 -0.1326  1.1614
13423SOL    HW242523   8.850   9.997   2.864  1.5797 -0.7268  1.3680
13424SOL     OW42524   5.724   4.699   5.986  0.0517  0.8789 -0.6220
13424SOL    HW142525   5.763   4.612   5.996  0.0934  1.0324  0.7149
13424SOL    HW242526   5.717   4.711   5.892  0.3284 -0.4501 -0.8364
13425SOL     OW42527   3.844  10.548   1.570 -0.0228 -0.4111  0.1792
13425SOL    HW142528   3.791  10.475   1.540  0.3336 -0.0250 -1.5085
13425SOL    HW242529   3.785  10.598   1.627 -0.8835 -0.9667 -0.1967
13426SOL     OW42530   5.753   3.638   2.850 -0.3749  0.5673 -0.7299
13426SOL    HW142531   5.847   3.645   2.833 -0.2566  0.6765 -0.0725
13426SOL    HW242532   5.720   3.578   2.783  0.2885 -0.0418 -0.5213
13427SOL     OW42533   0.467   5.607   5.488 -0.2116  0.2324 -0.3071
13427SOL    HW142534   0.425   5.626   5.404 -2.7408 -0.6271  0.6528
13427SOL    HW242535   0.533   5.675   5.499 -1.2980  1.6307 -2.0144
13428SOL     OW42536   0.085   2.289   2.451  0.4500 -0.2830 -0.2489
13428SOL    HW142537   0.117   2.310   2.363 -0.1507  0.5721 -0.2724
13428SOL    HW242538   0.082   2.193   2.453 -2.5798 -0.3664 -2.3060
13429SOL     OW42539   6.578   2.278   8.715 -0.4591 -0.1603  0.6736
13429SOL    HW142540   6.546   2.256   8.628  0.0618 -0.3896  0.5362
13429SOL    HW242541   6.645   2.346   8.699  1.5712 -2.0638  0.6258
13430SOL     OW42542   6.979   1.516   6.559  0.1538 -0.3824 -0.6624
13430SOL    HW142543   6.891   1.479   6.569  0.3980 -1.0571 -0.8932
13430SOL    HW242544   7.021   1.459   6.494  1.2606 -1.0110  0.5372
13431SOL     OW42545   1.577   3.215   2.860  0.2693  0.4524 -0.0425
13431SOL    HW142546   1.530   3.148   2.908  0.6155 -1.2739 -1.9758
13431SOL    HW242547   1.665   3.215   2.897 -0.0339  0.6488  0.6941
13432SOL     OW42548   9.816   5.666   7.141 -0.4180 -0.4831  0.4527
13432SOL    HW142549   9.878   5.707   7.202 -1.2987  1.4937  0.1188
13432SOL    HW242550   9.871   5.623   7.076  0.6806  1.6760 -0.1438
13433SOL     OW42551   8.329   5.326   4.016  0.1476  0.2954 -0.6598
13433SOL    HW142552   8.266   5.293   3.952  1.9912 -1.2719 -1.7987
13433SOL    HW242553   8.355   5.248   4.065  1.8461  0.7217 -0.8320
13434SOL     OW42554   5.877  10.633   7.961  0.2061 -0.5580 -0.3004
13434SOL    HW142555   5.855  10.701   8.025 -0.3497 -1.1503  0.1533
13434SOL    HW242556   5.880  10.552   8.012 -0.4233 -1.0691 -1.0396
13435SOL     OW42557   5.871   6.580   6.057 -0.4615 -0.1974 -0.0921
13435SOL    HW142558   5.949   6.617   6.016 -1.0668  1.2058 -0.0455
13435SOL    HW242559   5.881   6.600   6.150 -0.2881 -1.1424  0.1020
13436SOL     OW42560   7.843   9.365   9.461 -0.7000 -0.0516 -0.2250
13436SOL    HW142561   7.828   9.321   9.544 -0.4370  0.5008  0.1258
13436SOL    HW242562   7.834   9.458   9.481 -0.2139  0.1132 -0.7242
13437SOL     OW42563   9.758   9.055   1.875 -0.3354 -0.6034  0.1139
13437SOL    HW142564   9.765   9.120   1.805 -1.3110  0.2731  0.7951
13437SOL    HW242565   9.768   9.106   1.956  2.7182 -1.8316  0.6589
13438SOL     OW42566   3.391   7.604   8.738 -0.0103  0.4644 -0.8449
13438SOL    HW142567   3.470   7.552   8.754 -0.2838  0.8492  2.5513
13438SOL    HW242568   3.332   7.579   8.810 -1.2394  3.3564 -0.7274
13439SOL     OW42569   7.412   7.328   5.900 -0.1009  0.4217  0.1895
13439SOL    HW142570   7.400   7.377   5.981 -0.5673  1.2900 -0.3901
13439SOL    HW242571   7.466   7.253   5.925  2.0186  2.0575  0.7967
13440SOL     OW42572   6.701   6.565  10.130  0.2462  0.5960 -0.2723
13440SOL    HW142573   6.661   6.518  10.057  2.0988  0.6091 -1.3653
13440SOL    HW242574   6.716   6.653  10.096 -1.2179  1.3933  1.0277
13441SOL     OW42575   5.343   3.517   9.645  0.3790 -0.1299  0.3250
13441SOL    HW142576   5.350   3.428   9.680 -0.4255 -0.8849 -1.3342
13441SOL    HW242577   5.277   3.559   9.700 -1.1672 -1.4172 -0.4540
13442SOL     OW42578   8.310   3.043   4.100  0.1225  0.5395 -0.2700
13442SOL    HW142579   8.389   2.990   4.102  0.6623  1.2002 -2.0890
13442SOL    HW242580   8.322   3.101   4.025 -1.9683  0.8396 -0.4280
13443SOL     OW42581   7.344  10.584   5.981 -0.2517 -0.1773 -0.3848
13443SOL    HW142582   7.339  10.646   5.908 -0.4231  1.1536  0.7204
13443SOL    HW242583   7.259  10.592   6.024  0.8490  1.2778  1.6786
13444SOL     OW42584   3.944   1.084   2.185  0.4474  0.6680 -0.2399
13444SOL    HW142585   4.005   1.089   2.259 -0.4428  0.7075  0.5111
13444SOL    HW242586   3.999   1.093   2.107  1.4906 -0.0858  0.3910
13445SOL     OW42587   1.209   6.468   0.209  0.2343  0.6998  0.4975
13445SOL    HW142588   1.262   6.405   0.258  0.3759  2.0450  2.1619
13445SOL    HW242589   1.171   6.417   0.137  2.7964 -0.6018 -0.0779
13446SOL     OW42590   2.687   9.646   8.452  0.5829  0.4165  1.1684
13446SOL    HW142591   2.715   9.671   8.541  0.5535 -2.0338  1.9475
13446SOL    HW242592   2.768   9.617   8.410  0.3781  0.3310  0.8379
13447SOL     OW42593   3.643   3.061   0.749  0.2982  0.4400 -0.2529
13447SOL    HW142594   3.650   3.014   0.832 -4.5348  0.2960  0.3475
13447SOL    HW242595   3.733   3.065   0.716  2.3814 -0.1016  4.5612
13448SOL     OW42596   1.142   2.231   3.057  0.0573  0.2117 -0.1708
13448SOL    HW142597   1.237   2.240   3.054  0.0545  1.0159  1.0497
13448SOL    HW242598   1.123   2.152   3.007  1.6664 -1.9110  2.2902
13449SOL     OW42599   0.487   0.596   6.515 -0.1168 -0.3488 -0.1523
13449SOL    HW142600   0.547   0.536   6.558  0.2898  1.4962  2.0436
13449SOL    HW242601   0.530   0.618   6.432  0.7637 -1.3294  0.0255
13450SOL     OW42602   2.276   8.013   9.408  0.2155 -0.1694  0.2777
13450SOL    HW142603   2.263   8.104   9.381  0.4253 -0.0309  0.6339
13450SOL    HW242604   2.367   7.994   9.387  0.6148  0.1952  1.5921
13451SOL     OW42605   8.277   4.845   4.560  0.3916 -0.5310  0.0105
13451SOL    HW142606   8.194   4.873   4.600  0.6054  0.2402 -0.0855
13451SOL    HW242607   8.314   4.924   4.522  1.5510 -0.7065  0.7124
13452SOL     OW42608   0.334   0.809   9.950 -0.2452 -0.1391 -0.1196
13452SOL    HW142609   0.429   0.815   9.954 -0.2847  1.1400 -0.8451
13452SOL    HW242610   0.315   0.776   9.862 -0.5241  1.2292 -0.5882
13453SOL     OW42611   6.005   2.668   7.580  0.2542  0.1381 -0.3941
13453SOL    HW142612   5.982   2.759   7.599  0.8952 -0.0057  1.2247
13453SOL    HW242613   6.064   2.674   7.505  3.0055  1.4362  1.6782
13454SOL     OW42614   1.639   0.964   2.508  0.0446  0.2172  0.3785
13454SOL    HW142615   1.576   0.983   2.439 -0.1068  0.2152  0.5145
13454SOL    HW242616   1.724   0.979   2.468  0.0406 -1.5567 -0.3668
13455SOL     OW42617   3.061   5.625   9.653  0.3574  0.5159  0.0644
13455SOL    HW142618   3.096   5.707   9.688  0.8448  0.1231  0.5050
13455SOL    HW242619   3.137   5.567   9.646 -0.1947 -0.3803  1.1331
13456SOL     OW42620   9.792  10.420   7.021 -0.3133  0.3556  0.2822
13456SOL    HW142621   9.806  10.480   7.094  1.1208  0.7680 -0.3014
13456SOL    HW242622   9.739  10.349   7.058  2.2745 -0.6517  2.3670
13457SOL     OW42623   4.535   0.168   5.715  0.1062  0.8024 -0.3455
13457SOL    HW142624   4.586   0.091   5.688  1.5320  1.1630  1.1840
13457SOL    HW242625   4.578   0.241   5.671 -1.4884  0.7487 -2.1173
13458SOL     OW42626   2.904   3.212   9.952 -0.1360  0.1564 -0.1065
13458SOL    HW142627   2.922   3.305   9.940  0.7904  0.4290  2.6199
13458SOL    HW242628   2.908   3.174   9.864  1.2568  2.3843 -1.0711
13459SOL     OW42629   8.867   0.636   5.556 -0.4594 -0.1159 -0.4972
13459SOL    HW142630   8.772   0.628   5.549 -0.4796 -2.8306  1.3812
13459SOL    HW242631   8.881   0.727   5.583 -2.6842 -0.1105  0.9166
13460SOL     OW42632   7.646   5.077   5.641 -0.4795 -0.2534  0.6133
13460SOL    HW142633   7.562   5.092   5.598 -0.1044 -2.4208 -1.0401
13460SOL    HW242634   7.648   4.983   5.658  1.5531 -0.2379  0.7204
13461SOL     OW42635   7.945   5.073   3.845 -0.4433 -0.4614 -0.1185
13461SOL    HW142636   8.015   5.008   3.853  0.3288  0.5368  2.7138
13461SOL    HW242637   7.875   5.040   3.901 -1.1708 -0.1528 -0.8272
13462SOL     OW42638   1.091   2.418   3.959 -0.0750  0.7859  0.5483
13462SOL    HW142639   1.157   2.479   3.925 -0.3730  2.0227  2.0850
13462SOL    HW242640   1.118   2.333   3.925  1.1477  1.5627 -0.5282
13463SOL     OW42641   2.563   4.461   1.900  0.3442  0.1797  0.6543
13463SOL    HW142642   2.473   4.494   1.905  0.5096  0.6084  0.8995
13463SOL    HW242643   2.557   4.370   1.927 -0.4794 -0.7044 -2.2038
13464SOL     OW42644   7.191   7.302   6.439  0.2327  0.3560  0.2707
13464SOL    HW142645   7.280   7.271   6.453 -0.6121 -1.5657  1.7378
13464SOL    HW242646   7.201   7.373   6.374  2.7414 -0.0690  0.0789
13465SOL     OW42647   4.781   9.784   0.286  0.1114 -0.3649 -0.5319
13465SOL    HW142648   4.751   9.703   0.245  3.4113 -1.4018 -1.1808
13465SOL    HW242649   4.803   9.841   0.212  0.5501  0.0087 -0.1206
13466SOL     OW42650   4.100   5.970   4.750 -0.0033  0.0906  0.6346
13466SOL    HW142651   4.150   6.037   4.705  1.1942 -0.5504  0.9568
13466SOL    HW242652   4.102   5.894   4.691  1.9137 -0.8846  1.8638
13467SOL     OW42653   3.856   5.532   3.461 -0.1034 -0.3082  0.1579
13467SOL    HW142654   3.872   5.564   3.550 -0.1805  1.8593 -0.5332
13467SOL    HW242655   3.933   5.479   3.440  1.1693  1.2520  0.6514
13468SOL     OW42656   8.600   0.222   1.534  0.1344  0.1898 -0.4270
13468SOL    HW142657   8.593   0.162   1.460  0.2600 -1.1449  0.6112
13468SOL    HW242658   8.518   0.213   1.581 -0.5281  2.0757 -1.1128
13469SOL     OW42659   5.510   4.589   3.538  0.3605  0.0983 -0.3274
13469SOL    HW142660   5.450   4.541   3.482  0.6814  0.5716 -1.0877
13469SOL    HW242661   5.529   4.670   3.490 -0.6698  1.3038  1.1971
13470SOL     OW42662   8.802   1.621  10.025  0.0534 -0.2610  0.2452
13470SOL    HW142663   8.738   1.595  10.090 -1.4630  0.3758 -0.9377
13470SOL    HW242664   8.806   1.716  10.031 -2.3751  0.1429 -2.5128
13471SOL     OW42665   2.842   5.463   0.454 -0.2598 -0.2530 -0.3695
13471SOL    HW142666   2.765   5.493   0.406 -0.4462  0.4641  0.3407
13471SOL    HW242667   2.903   5.537   0.449  0.0531 -0.4975 -0.2195
13472SOL     OW42668   7.250   5.299   1.068 -0.4063 -0.3577  0.1561
13472SOL    HW142669   7.194   5.223   1.053 -1.0267 -0.1678  1.3641
13472SOL    HW242670   7.237   5.321   1.160  0.9959  0.2431  0.2404
13473SOL     OW42671   7.499   6.608   2.436  0.6218 -0.6209 -0.0693
13473SOL    HW142672   7.548   6.534   2.400 -1.6181 -1.5993 -1.3356
13473SOL    HW242673   7.491   6.589   2.529  0.7742 -1.5758 -0.2394
13474SOL     OW42674   7.481  10.431   2.665  0.1335 -0.0067 -0.3115
13474SOL    HW142675   7.475  10.517   2.623 -2.5947  0.2806  0.4710
13474SOL    HW242676   7.525  10.376   2.601 -2.0194  0.9166 -2.7420
13475SOL     OW42677   9.644   8.659   4.175  0.1716 -0.7173 -0.7522
13475SOL    HW142678   9.613   8.654   4.265  3.5038  3.2632  0.9472
13475SOL    HW242679   9.604   8.739   4.140  0.3237 -1.2428 -2.2195
13476SOL     OW42680   8.175   2.980   5.639  0.2883  0.1643 -0.2575
13476SOL    HW142681   8.222   3.037   5.577  1.4404  0.0501  0.4859
13476SOL    HW242682   8.237   2.910   5.659  0.1202  0.4483  1.3778
13477SOL     OW42683   4.565   0.803   6.775 -0.2850  0.5671  0.4509
13477SOL    HW142684   4.529   0.815   6.687 -0.0572  1.9056  0.5294
13477SOL    HW242685   4.657   0.781   6.761  0.0938  2.0898  0.3561
13478SOL     OW42686   6.862   9.601   5.866  0.2594  0.3241 -0.1007
13478SOL    HW142687   6.953   9.621   5.844  0.1798 -0.6710 -1.4700
13478SOL    HW242688   6.859   9.506   5.877 -0.6197  0.3324 -0.1502
13479SOL     OW42689   5.344   9.471   0.784  0.0099 -0.3664 -0.0684
13479SOL    HW142690   5.318   9.551   0.828  2.3861 -1.3202  3.4707
13479SOL    HW242691   5.426   9.493   0.740  0.4266 -0.6878  0.5270
13480SOL     OW42692   5.118   9.558   7.304  0.0657  0.3927 -0.1151
13480SOL    HW142693   5.206   9.522   7.292 -0.1755 -1.0452  1.8737
13480SOL    HW242694   5.132   9.635   7.361  0.0603  0.2302  0.1086
13481SOL     OW42695   2.646   1.323   6.787  0.4059  0.1175 -0.6915
13481SOL    HW142696   2.610   1.371   6.712  0.7101  0.4396 -0.6381
13481SOL    HW242697   2.575   1.319   6.850  0.0605 -0.3888 -1.0992
13482SOL     OW42698   2.312   7.373   2.891 -0.0475  0.2970  0.7145
13482SOL    HW142699   2.374   7.441   2.916 -1.4990  1.4984  1.2286
13482SOL    HW242700   2.242   7.380   2.955 -0.9985 -0.6222 -0.1794
13483SOL     OW42701   0.775   6.118   0.852 -0.0647 -0.0650 -0.1178
13483SOL    HW142702   0.680   6.119   0.867 -0.2460 -0.3833 -1.1781
13483SOL    HW242703   0.785   6.090   0.761  1.0829 -0.9814  0.2691
13484SOL     OW42704   2.477   2.212   9.127  0.2300 -0.6976  0.0613
13484SOL    HW142705   2.410   2.267   9.087 -0.2076 -0.5496  0.9686
13484SOL    HW242706   2.475   2.236   9.220  1.7161 -0.5060  0.0644
13485SOL     OW42707   6.016   8.916   7.747 -0.0420  0.0784 -0.0015
13485SOL    HW142708   5.994   8.921   7.654  0.2868 -0.0680 -0.0873
13485SOL    HW242709   6.108   8.892   7.749  0.3257  1.4355  0.3579
13486SOL     OW42710  10.475   4.630  10.069  0.1885  0.0682  0.2978
13486SOL    HW142711  10.416   4.664  10.002 -0.5659 -1.4265  0.1620
13486SOL    HW242712  10.502   4.544  10.036  1.9752  0.4453  0.6516
13487SOL     OW42713   1.105   9.241  10.552 -0.3995 -0.4844  0.1287
13487SOL    HW142714   1.014   9.255  10.578 -1.3245  0.0211 -3.0107
13487SOL    HW242715   1.141   9.330  10.543  1.0569 -0.6627  3.0475
13488SOL     OW42716   9.015   4.778   4.702 -0.1894 -0.0143 -0.6330
13488SOL    HW142717   9.096   4.742   4.665  0.1614 -1.6617  1.5662
13488SOL    HW242718   9.043   4.846   4.763 -0.4058 -0.8574  0.4318
13489SOL     OW42719   8.022   6.860   8.072 -0.1795 -0.2876 -0.0663
13489SOL    HW142720   7.978   6.847   8.156 -1.3386  1.2261 -0.3812
13489SOL    HW242721   8.103   6.810   8.079  0.5366  1.0720  2.5893
13490SOL     OW42722   7.749   6.959   0.772  0.4621  0.3715  0.5086
13490SOL    HW142723   7.784   6.946   0.860  1.3622 -0.7581  0.0078
13490SOL    HW242724   7.748   7.054   0.760  0.8021  0.5117  1.5505
13491SOL     OW42725   7.591   5.941   0.256 -0.3370 -0.0202  0.1708
13491SOL    HW142726   7.555   5.886   0.326 -0.5308 -1.9500 -1.3676
13491SOL    HW242727   7.515   5.976   0.211 -0.2914 -1.0267 -0.7361
13492SOL     OW42728   2.570   9.992   5.446  0.8947 -0.4996  0.4398
13492SOL    HW142729   2.533   9.935   5.378  0.3562  0.3343  0.0165
13492SOL    HW242730   2.509   9.984   5.520  0.4190  0.0649  0.1199
13493SOL     OW42731   4.730   5.302   8.319  0.0715  0.2262  0.0481
13493SOL    HW142732   4.781   5.221   8.327 -0.0748  0.0698 -0.5378
13493SOL    HW242733   4.794   5.367   8.291  0.1111  0.2132  0.1084
13494SOL     OW42734   1.232   6.333   7.839  0.1462 -0.4116 -0.3245
13494SOL    HW142735   1.318   6.373   7.825 -1.3895  3.8944  0.9447
13494SOL    HW242736   1.175   6.376   7.776 -1.4772 -1.5770  0.2885
13495SOL     OW42737   2.760   2.336   9.708 -0.7522 -0.4057 -0.1368
13495SOL    HW142738   2.717   2.396   9.647  1.3403  1.5379  0.1489
13495SOL    HW242739   2.812   2.278   9.652 -0.5710 -0.0880 -0.2989
13496SOL     OW42740   0.832   3.462   2.492 -0.0397 -0.1062  0.2395
13496SOL    HW142741   0.913   3.435   2.534  1.1581  2.6675 -0.1104
13496SOL    HW242742   0.858   3.495   2.407 -1.3190  2.0198  0.6006
13497SOL     OW42743   9.742   2.969   3.452  0.2879 -0.4623 -0.2975
13497SOL    HW142744   9.774   3.046   3.498 -0.9542  0.0292 -0.2105
13497SOL    HW242745   9.807   2.953   3.384  0.0117  1.3815 -1.0747
13498SOL     OW42746   2.164   9.568   9.995 -0.1972 -0.2814 -0.1802
13498SOL    HW142747   2.164   9.529   9.907 -1.0291  1.7136 -1.1194
13498SOL    HW242748   2.072   9.569  10.020  0.0842 -1.3925  1.0259
13499SOL     OW42749   9.298  10.085   5.752 -0.2395  0.3322  0.3930
13499SOL    HW142750   9.374  10.123   5.707  0.9175  0.2887  2.1945
13499SOL    HW242751   9.333  10.055   5.835 -1.6676 -2.3221  0.1305
13500SOL     OW42752   4.775   2.366   3.199 -0.1050  0.0716  0.4138
13500SOL    HW142753   4.686   2.382   3.166 -0.6474 -1.0754  1.2349
13500SOL    HW242754   4.781   2.419   3.278  0.3669  1.0262 -0.2428
13501SOL     OW42755   6.318   1.799   4.855  0.4328  0.3706  0.0264
13501SOL    HW142756   6.373   1.843   4.790  1.9878 -1.3761  0.0659
13501SOL    HW242757   6.268   1.735   4.804 -0.9976  1.3798  0.1136
13502SOL     OW42758   6.954   2.377   0.669 -0.3839 -0.0909  0.2085
13502SOL    HW142759   6.874   2.406   0.626 -0.7600  0.1859  1.0717
13502SOL    HW242760   6.924   2.322   0.741  0.2347 -0.5989  0.0875
13503SOL     OW42761   5.904  10.392  10.577  0.1423  0.3063 -0.0062
13503SOL    HW142762   5.920  10.308  10.620  0.1674 -1.0564 -2.4857
13503SOL    HW242763   5.946  10.383  10.491 -2.1981  1.8009 -1.4020
13504SOL     OW42764   6.876   2.064   1.287 -0.0765  0.6936  0.5898
13504SOL    HW142765   6.951   2.014   1.255 -0.2678 -0.7197  2.2524
13504SOL    HW242766   6.891   2.153   1.253  0.8541 -0.1724 -1.4856
13505SOL     OW42767   8.209   0.250   6.008  0.2679  0.4514 -0.0467
13505SOL    HW142768   8.169   0.166   6.032  1.3015 -0.2770 -0.7365
13505SOL    HW242769   8.292   0.225   5.967  0.5912  1.8245 -0.2679
13506SOL     OW42770   2.945   4.902   3.281 -0.7955 -0.7268  0.1842
13506SOL    HW142771   2.920   4.919   3.190 -1.8221 -1.7661  0.2456
13506SOL    HW242772   2.944   4.807   3.289  0.7843 -0.7084  0.9008
13507SOL     OW42773   9.630   0.158   4.149  0.1309  0.1513  0.0992
13507SOL    HW142774   9.700   0.118   4.097 -0.4521  0.8393 -1.2481
13507SOL    HW242775   9.550   0.117   4.117 -0.1435 -0.4642  1.4788
13508SOL     OW42776   7.597   9.764   1.349  0.1279 -0.3546  0.0259
13508SOL    HW142777   7.560   9.773   1.437  0.0780 -1.2881  0.1173
13508SOL    HW242778   7.662   9.834   1.343 -0.5418  0.3193  0.4475
13509SOL     OW42779   9.927   5.540   1.346  0.3395  0.8148 -0.2877
13509SOL    HW142780   9.997   5.600   1.322  1.3432  0.0933  0.7210
13509SOL    HW242781   9.969   5.454   1.350 -1.1320 -0.0701 -2.0554
13510SOL     OW42782   0.506   2.210   7.814 -0.5490 -0.2417 -0.1048
13510SOL    HW142783   0.424   2.251   7.842  0.0477  1.8548 -1.2173
13510SOL    HW242784   0.480   2.150   7.744 -1.4378 -1.8951  1.5489
13511SOL     OW42785   0.036   1.099   3.608  0.2793  0.0393  0.6072
13511SOL    HW142786  -0.014   1.119   3.687  0.8590  2.8498  0.3577
13511SOL    HW242787   0.028   1.177   3.553  2.2521 -0.6798 -0.8480
13512SOL     OW42788   2.149   4.532  10.341 -0.0752 -0.5157 -0.3395
13512SOL    HW142789   2.128   4.481  10.419  0.6718  1.1787  1.0293
13512SOL    HW242790   2.126   4.474  10.268 -1.6079 -1.8202  1.0955
13513SOL     OW42791   1.890   4.231   7.799  0.6015  0.3987 -0.2562
13513SOL    HW142792   1.807   4.257   7.757 -0.1133 -0.7639  0.3684
13513SOL    HW242793   1.864   4.165   7.863  1.9269  0.6670  0.5879
13514SOL     OW42794   4.157  10.208   0.648  0.4028  0.3273 -0.2621
13514SOL    HW142795   4.146  10.136   0.587  1.6359  1.3563 -1.7664
13514SOL    HW242796   4.097  10.276   0.618  1.4698  1.0817 -0.7601
13515SOL     OW42797  10.231   8.641   3.089  0.0416  0.1168 -0.2274
13515SOL    HW142798  10.299   8.629   3.156 -0.7069  1.4468  0.8296
13515SOL    HW242799  10.188   8.723   3.114  0.2017  1.0432 -2.7717
13516SOL     OW42800   2.457   2.349   8.141 -0.0086  0.0810  0.6936
13516SOL    HW142801   2.515   2.425   8.139 -0.1750  0.2194 -1.9697
13516SOL    HW242802   2.370   2.385   8.128  0.1672 -0.6113 -3.8148
13517SOL     OW42803   2.780   1.102   4.448  0.1810  0.0171 -0.4205
13517SOL    HW142804   2.809   1.192   4.459 -1.1500  0.3582  0.5243
13517SOL    HW242805   2.723   1.104   4.372  1.8518 -0.4904 -1.7535
13518SOL     OW42806   3.095   9.671   8.935 -0.1927  0.0740  0.1549
13518SOL    HW142807   3.105   9.684   9.029  1.6782 -4.0764  0.7120
13518SOL    HW242808   3.108   9.578   8.921 -0.6430  0.4379 -4.2530
13519SOL     OW42809   6.989   6.516   3.487  0.0392 -0.1217  0.3789
13519SOL    HW142810   6.894   6.508   3.491  0.0885 -0.7418  0.3891
13519SOL    HW242811   7.004   6.583   3.420 -0.3670 -1.2218 -0.8554
13520SOL     OW42812   0.917   5.286   2.911 -0.6095 -0.1830  0.2169
13520SOL    HW142813   0.988   5.270   2.849 -0.9763  1.1883 -0.6077
13520SOL    HW242814   0.851   5.220   2.889 -1.0013  0.6751 -1.3241
13521SOL     OW42815   3.181   1.346   2.616  0.4000  0.0659 -0.4327
13521SOL    HW142816   3.252   1.307   2.666 -0.1075 -0.4182 -0.0732
13521SOL    HW242817   3.138   1.405   2.677 -0.1390 -0.4246 -0.3246
13522SOL     OW42818   3.186   4.528   1.213  0.1090  0.5985 -0.1882
13522SOL    HW142819   3.181   4.471   1.136 -2.0460  0.7886 -0.2430
13522SOL    HW242820   3.211   4.469   1.284  1.0783  0.2273 -0.8086
13523SOL     OW42821   3.922  10.496   7.997 -0.5440  0.6347 -0.3481
13523SOL    HW142822   3.954  10.428   8.057  0.2174 -0.2936 -1.7554
13523SOL    HW242823   3.830  10.508   8.022  0.3244  2.0756  2.5862
13524SOL     OW42824   6.161   9.517   3.884 -0.0562 -0.3015  0.3904
13524SOL    HW142825   6.235   9.462   3.862 -0.2026 -0.6381  0.7182
13524SOL    HW242826   6.092   9.490   3.824  0.3826  0.7177 -0.6087
13525SOL     OW42827   7.511   3.210   4.467 -0.1798 -0.3212  0.0350
13525SOL    HW142828   7.603   3.204   4.441 -0.0858 -1.1796  0.5261
13525SOL    HW242829   7.499   3.139   4.530 -1.0886  0.0123  0.2550
13526SOL     OW42830   8.505   6.351   0.586  0.6036  0.1704  0.2061
13526SOL    HW142831   8.453   6.380   0.660  0.1462 -0.9087  0.3246
13526SOL    HW242832   8.580   6.306   0.625  0.1090 -0.8316  0.0261
13527SOL     OW42833   7.328  10.058   8.709  0.5694 -0.2561 -0.6747
13527SOL    HW142834   7.274  10.029   8.635  0.0060 -0.5434 -0.1605
13527SOL    HW242835   7.418  10.051   8.677  0.3371 -0.4527 -1.3040
13528SOL     OW42836   1.248   2.699   7.165 -0.1140 -0.2406  0.5027
13528SOL    HW142837   1.169   2.751   7.147 -0.6468 -0.8060  1.1885
13528SOL    HW242838   1.224   2.610   7.141  0.5667 -0.2952  0.0151
13529SOL     OW42839   3.299   2.103   7.367 -0.3464  0.1803  0.2080
13529SOL    HW142840   3.299   2.071   7.457 -0.2388 -0.1900  0.0801
13529SOL    HW242841   3.213   2.141   7.354 -0.5227 -0.1771  0.3262
13530SOL     OW42842   5.211   3.053   1.100 -0.0763 -0.2059 -0.7026
13530SOL    HW142843   5.147   3.045   1.029 -0.6835  2.0473 -0.4864
13530SOL    HW242844   5.276   2.986   1.081 -2.0204 -2.0211 -1.4204
13531SOL     OW42845   5.619   8.852   7.747 -0.1202  0.4524  0.4939
13531SOL    HW142846   5.670   8.931   7.730 -0.2193 -0.0851 -3.0869
13531SOL    HW242847   5.532   8.872   7.713 -0.1764 -1.0999 -0.3782
13532SOL     OW42848   5.308   9.433   9.966 -0.1359  0.6717  0.0573
13532SOL    HW142849   5.214   9.416   9.957 -0.0017 -0.8479  1.1798
13532SOL    HW242850   5.349   9.348   9.951  1.2088  1.6067 -1.9016
13533SOL     OW42851   9.383   8.189   7.534 -0.1274  0.1417 -0.2618
13533SOL    HW142852   9.425   8.104   7.518 -0.8436 -0.6130  1.6101
13533SOL    HW242853   9.412   8.214   7.621 -0.8374  1.2825 -0.3285
13534SOL     OW42854   6.963  10.292   2.099  0.0848  0.2040  0.0651
13534SOL    HW142855   7.044  10.339   2.079  0.8451 -1.0612  0.0760
13534SOL    HW242856   6.965  10.215   2.042 -0.0222 -0.9935  1.6110
13535SOL     OW42857   8.187   7.823   2.902 -0.1363  0.0180  0.1366
13535SOL    HW142858   8.268   7.773   2.890  1.0693  1.6569  1.1754
13535SOL    HW242859   8.174   7.826   2.997 -1.1077  0.2756  0.0100
13536SOL     OW42860   7.942   0.299   5.349  0.1212 -0.4269 -0.1681
13536SOL    HW142861   8.004   0.369   5.330  0.3531 -0.4810  0.3546
13536SOL    HW242862   7.965   0.229   5.288  1.1306 -0.7673  0.5506
13537SOL     OW42863   0.195   5.083   3.692  0.8498 -0.5515  0.3652
13537SOL    HW142864   0.218   5.022   3.762  1.2232  1.3266  1.9493
13537SOL    HW242865   0.121   5.132   3.726 -0.0270 -0.6983 -1.2494
13538SOL     OW42866   1.157  10.534   8.685 -0.6159 -0.0772 -0.1622
13538SOL    HW142867   1.089  10.598   8.664 -1.9386  0.1445  3.9098
13538SOL    HW242868   1.111  10.451   8.692  0.1889 -0.5814 -0.7017
13539SOL     OW42869   3.248   4.949   8.286  0.3361 -0.0932  0.4670
13539SOL    HW142870   3.315   4.894   8.326  0.7337 -0.2060 -0.3366
13539SOL    HW242871   3.189   4.887   8.243 -0.7569 -0.0549  1.8258
13540SOL     OW42872   4.911   6.434   3.223  0.3049 -0.9483 -0.5986
13540SOL    HW142873   5.004   6.426   3.244  0.5518 -3.4539 -2.2259
13540SOL    HW242874   4.877   6.497   3.287  3.0605 -0.0733  0.1151
13541SOL     OW42875   4.273  10.254   3.286  0.3046 -0.0687 -0.1784
13541SOL    HW142876   4.268  10.307   3.366 -0.4669 -2.2020  1.2622
13541SOL    HW242877   4.206  10.291   3.229 -0.5811  0.2030  1.0040
13542SOL     OW42878   3.626   7.191   1.639 -0.0748 -0.0789 -0.5055
13542SOL    HW142879   3.676   7.196   1.721 -1.3289  2.2421  0.2124
13542SOL    HW242880   3.611   7.097   1.626  0.5181 -0.5536  1.7108
13543SOL     OW42881   8.411   1.979   9.985  0.0993 -0.1176 -0.5890
13543SOL    HW142882   8.443   1.998  10.074  0.7239 -0.9575 -0.6143
13543SOL    HW242883   8.343   1.913   9.998  0.7518 -0.8420 -0.7832
13544SOL     OW42884   4.104   8.763   1.990  0.1701  0.1396  0.3562
13544SOL    HW142885   4.046   8.835   2.019  0.1552  0.8505 -1.3299
13544SOL    HW242886   4.100   8.767   1.895  0.9569 -1.5039  0.2364
13545SOL     OW42887  10.405   9.453   0.276 -1.0731  0.2333  0.0055
13545SOL    HW142888  10.483   9.440   0.222 -0.0635  0.8373  1.2336
13545SOL    HW242889  10.368   9.365   0.287 -0.4607 -0.0913 -0.4570
13546SOL     OW42890  10.416   0.335   7.274  0.8709  0.1909  0.4328
13546SOL    HW142891  10.335   0.321   7.323 -0.4094 -0.4407 -1.7459
13546SOL    HW242892  10.396   0.306   7.185  3.6647 -0.5001 -0.0630
13547SOL     OW42893   1.774   3.491   4.773 -1.0853 -0.2925  0.5289
13547SOL    HW142894   1.826   3.489   4.692 -1.9594  0.3747 -0.0612
13547SOL    HW242895   1.746   3.582   4.781  0.0039 -0.0666  2.2622
13548SOL     OW42896   4.852  10.010   6.406 -0.0415 -0.6718 -0.0948
13548SOL    HW142897   4.769  10.053   6.389 -0.8804 -1.5418  1.5928
13548SOL    HW242898   4.859   9.943   6.337 -1.9316 -2.1803  1.0910
13549SOL     OW42899   8.323   4.590   4.973 -0.1672  0.8244  0.0374
13549SOL    HW142900   8.232   4.567   4.987 -0.2870  1.5858  0.6162
13549SOL    HW242901   8.364   4.510   4.940 -0.4991 -0.2924  2.1396
13550SOL     OW42902   9.022  10.343   2.698  0.3785  0.2740  1.0501
13550SOL    HW142903   8.959  10.276   2.726  1.0723 -0.3387  1.1723
13550SOL    HW242904   9.000  10.420   2.751  0.0071 -0.0635  1.4001
13551SOL     OW42905   3.668   5.199   4.816 -0.2754 -0.4193  0.3926
13551SOL    HW142906   3.720   5.221   4.894  0.5829  0.9252 -0.5205
13551SOL    HW242907   3.580   5.230   4.838  0.2425  1.1863  0.3541
13552SOL     OW42908   7.048   3.563   4.218 -0.7025  0.1085 -0.1385
13552SOL    HW142909   7.030   3.578   4.311 -1.3193 -0.1354 -0.2140
13552SOL    HW242910   7.038   3.469   4.207  0.6751 -0.0530 -0.1881
13553SOL     OW42911   9.493   4.063   0.101 -0.0517  0.1344 -0.0644
13553SOL    HW142912   9.452   4.028   0.022  1.1786  0.7155 -0.9999
13553SOL    HW242913   9.579   4.093   0.071 -0.1420  1.7459  1.1932
13554SOL     OW42914   6.906   9.657  10.299  0.2417  0.3976 -0.5141
13554SOL    HW142915   6.832   9.653  10.359  1.1411 -0.6862  0.5834
13554SOL    HW242916   6.900   9.743  10.259 -0.7817  0.8920  0.6478
13555SOL     OW42917   9.626   0.641   0.219  0.1241  0.0527  0.2781
13555SOL    HW142918   9.619   0.627   0.124 -1.6597 -0.7572  0.4961
13555SOL    HW242919   9.702   0.588   0.245 -1.9685 -3.4100 -0.0900
13556SOL     OW42920   0.897   7.697   2.472 -0.1191 -0.3891 -0.6306
13556SOL    HW142921   0.991   7.710   2.456 -0.0085  0.1037  0.3448
13556SOL    HW242922   0.891   7.612   2.515 -0.1286 -0.4587 -0.7691
13557SOL     OW42923   5.484   7.955   6.472  0.8225 -0.3958  0.8326
13557SOL    HW142924   5.407   7.898   6.479  0.2260  0.3011  0.2031
13557SOL    HW242925   5.548   7.904   6.423  0.8965 -1.1076  1.6513
13558SOL     OW42926   7.337   3.028   8.644  0.3452 -0.0442  0.2746
13558SOL    HW142927   7.326   3.112   8.688 -0.1911  1.1683 -2.0304
13558SOL    HW242928   7.255   2.981   8.660 -0.2118  0.7579 -0.1832
13559SOL     OW42929   0.692   7.619   7.003  0.4511 -0.2379 -0.3980
13559SOL    HW142930   0.653   7.664   7.078 -2.8626  0.1450 -2.1268
13559SOL    HW242931   0.782   7.649   7.001 -0.3498  2.6914  1.2579
13560SOL     OW42932  10.095   1.672  10.379  0.5286 -0.1310  0.3276
13560SOL    HW142933  10.162   1.604  10.378  0.9432  0.2213  1.6557
13560SOL    HW242934  10.111   1.723  10.299  1.1731 -0.6835  0.0956
13561SOL     OW42935   1.480   1.453   7.963  0.4274  0.1261  0.3600
13561SOL    HW142936   1.539   1.422   7.895  0.9004  2.1414 -0.2201
13561SOL    HW242937   1.537   1.473   8.037  0.0347 -1.1102  1.0150
13562SOL     OW42938  10.212   8.536   5.412  0.0685  0.0372 -0.0122
13562SOL    HW142939  10.217   8.509   5.504 -0.2947  2.1942  0.6969
13562SOL    HW242940  10.290   8.590   5.400 -1.2101  1.9270 -0.1709
13563SOL     OW42941   7.015   3.827   4.885 -0.1487  0.0938 -0.2684
13563SOL    HW142942   7.024   3.917   4.915  0.0390  0.6657 -1.9688
13563SOL    HW242943   7.022   3.775   4.965  2.7345  1.3719  0.4269
13564SOL     OW42944   6.261   2.390  10.253 -0.5211  0.6504  0.1330
13564SOL    HW142945   6.197   2.442  10.301 -1.0458  1.4610 -1.4015
13564SOL    HW242946   6.317   2.454  10.209 -0.8495 -0.0409 -1.3667
13565SOL     OW42947   9.392   2.988   5.051  0.0685 -0.2942 -0.3116
13565SOL    HW142948   9.327   3.032   4.996  1.0861  1.8154  0.1038
13565SOL    HW242949   9.469   2.979   4.995  0.2669 -0.4457 -0.0164
13566SOL     OW42950   0.974   1.823   7.402 -0.0445 -0.2295 -0.1927
13566SOL    HW142951   1.055   1.864   7.434 -1.2212  0.7214  1.7388
13566SOL    HW242952   0.954   1.756   7.467 -1.5481  0.5400  0.2027
13567SOL     OW42953   6.158   0.497   8.895  0.1491 -0.1744  0.0370
13567SOL    HW142954   6.096   0.553   8.849 -1.3521 -0.4518  1.6572
13567SOL    HW242955   6.164   0.418   8.841 -1.2632 -0.3255  0.0818
13568SOL     OW42956   7.505   2.261   3.258 -0.4443  0.2905 -0.2573
13568SOL    HW142957   7.478   2.171   3.241  2.3187 -0.8488  0.7568
13568SOL    HW242958   7.538   2.292   3.174 -0.8349  0.1188 -0.4737
13569SOL     OW42959   0.991   2.454   6.114 -0.7192 -0.1011 -0.1799
13569SOL    HW142960   1.054   2.465   6.043 -0.6951 -2.6637 -0.6518
13569SOL    HW242961   0.910   2.490   6.080 -0.7372 -1.3797 -1.6194
13570SOL     OW42962   6.040   1.925   9.113 -0.2994  0.4640  0.0497
13570SOL    HW142963   5.989   1.857   9.067  0.4434 -0.3849  0.4547
13570SOL    HW242964   6.013   2.007   9.072  0.3046 -0.2552 -1.8966
13571SOL     OW42965   1.709   4.879   8.470  0.4578 -0.5796  0.8573
13571SOL    HW142966   1.745   4.842   8.389  0.2688  1.4670 -0.2216
13571SOL    HW242967   1.720   4.974   8.460  0.5799 -0.2681  3.3243
13572SOL     OW42968   5.451   2.995   1.297  0.3494  0.4479 -0.5038
13572SOL    HW142969   5.467   2.985   1.203 -0.8901  2.5625 -1.0224
13572SOL    HW242970   5.356   3.007   1.303  0.3554 -0.1109  1.0904
13573SOL     OW42971   3.665   7.614   2.382 -0.3425 -0.3457  0.3661
13573SOL    HW142972   3.674   7.580   2.293  0.5723  1.7215 -0.3846
13573SOL    HW242973   3.662   7.535   2.437 -1.6326 -1.6932 -1.5105
13574SOL     OW42974  10.382   9.842   4.799  0.4193 -0.3318  0.1628
13574SOL    HW142975  10.381   9.936   4.814  0.8039  0.0026 -1.6402
13574SOL    HW242976  10.315   9.807   4.859 -2.4864  1.5661 -1.7040
13575SOL     OW42977   1.631   8.640   7.424 -0.0822  0.6196 -0.2707
13575SOL    HW142978   1.544   8.609   7.447 -0.3179 -0.4014 -2.3288
13575SOL    HW242979   1.690   8.585   7.476 -0.6162  0.1364 -0.1629
13576SOL     OW42980   9.095   9.500   5.136 -0.6546  0.2745  0.0788
13576SOL    HW142981   9.003   9.527   5.144 -0.9997 -1.2618  1.8416
13576SOL    HW242982   9.136   9.528   5.217  0.5304  1.0902 -0.7620
13577SOL     OW42983   0.054   5.762   6.073 -0.0189 -0.2126 -0.2814
13577SOL    HW142984   0.053   5.797   5.984  2.0743  1.3042  0.2237
13577SOL    HW242985   0.116   5.817   6.120 -1.4689 -0.6244  2.2953
13578SOL     OW42986   1.958   8.190   1.070 -0.1860 -0.1160 -0.2550
13578SOL    HW142987   2.052   8.179   1.088 -0.2512 -0.1190  0.0884
13578SOL    HW242988   1.915   8.137   1.137 -0.4953  1.6712  1.0349
13579SOL     OW42989   6.465   5.987  10.323  0.0785 -0.2622  0.2626
13579SOL    HW142990   6.530   6.052  10.349 -0.2196 -0.1383  0.7081
13579SOL    HW242991   6.435   5.949  10.405 -0.6139 -0.1168  0.0840
13580SOL     OW42992   7.399   5.496   9.383 -0.2512  0.0711  0.3175
13580SOL    HW142993   7.354   5.570   9.423  1.7893  0.9611  1.1411
13580SOL    HW242994   7.488   5.529   9.367  0.2601 -1.7106 -0.7901
13581SOL     OW42995   0.506   0.949   7.647  0.0507  0.4502 -0.1708
13581SOL    HW142996   0.530   1.006   7.720  1.0813 -1.7141  1.2884
13581SOL    HW242997   0.589   0.922   7.609 -0.3440 -1.0125 -0.0374
13582SOL     OW42998   9.336   7.677   4.758  0.6687 -0.1838 -0.0776
13582SOL    HW142999   9.408   7.648   4.814 -0.3026 -0.2430  1.1836
13582SOL    HW243000   9.360   7.766   4.733  0.3588  0.4760  1.8336
13583SOL     OW43001   8.236   8.684  10.517 -0.1598  0.2861  0.1522
13583SOL    HW143002   8.300   8.739  10.563  0.1430  0.6059 -0.6283
13583SOL    HW243003   8.284   8.604  10.496  0.9767  1.6650 -3.0361
13584SOL     OW43004   7.687   5.474   7.358  0.1600 -0.2307  0.1038
13584SOL    HW143005   7.694   5.380   7.341 -1.4554 -0.2578 -0.6497
13584SOL    HW243006   7.647   5.510   7.279  1.1559  1.1714  0.2033
13585SOL     OW43007  10.087   0.446   2.652  0.3351 -0.5011 -0.1625
13585SOL    HW143008  10.110   0.482   2.738 -0.3660 -1.5501  0.4781
13585SOL    HW243009  10.169   0.410   2.619  0.1722 -2.1824  1.1097
13586SOL     OW43010   0.719   5.640   2.824  0.5095  0.8438  0.1494
13586SOL    HW143011   0.708   5.576   2.895  0.3338  1.8584  1.0616
13586SOL    HW243012   0.630   5.671   2.807  0.6712  1.3234  0.1759
13587SOL     OW43013   1.265   0.970   0.676  0.5853  0.3948 -0.3009
13587SOL    HW143014   1.347   0.961   0.725  0.6390  0.5868 -0.3536
13587SOL    HW243015   1.212   0.895   0.703  0.3617  0.8516  0.5375
13588SOL     OW43016   5.588   9.889   5.482  0.0884  0.2469  0.0763
13588SOL    HW143017   5.548   9.920   5.401  0.6021  0.6787 -0.0194
13588SOL    HW243018   5.522   9.905   5.549  0.6139  2.3866  0.1793
13589SOL     OW43019   5.410   5.303   1.562 -0.6347 -0.5344  0.3720
13589SOL    HW143020   5.364   5.265   1.487  0.9698 -1.4649 -0.1917
13589SOL    HW243021   5.410   5.398   1.545  0.1212 -0.7635 -1.0910
13590SOL     OW43022   2.512   6.641   9.654 -0.5971 -0.4396 -0.3198
13590SOL    HW143023   2.495   6.603   9.568  0.2337  0.8014 -1.0570
13590SOL    HW243024   2.429   6.682   9.679 -0.8789 -0.9166 -0.4583
13591SOL     OW43025   2.800   7.284   4.466  0.2971  0.3285  0.5614
13591SOL    HW143026   2.744   7.209   4.444 -0.6813  0.9682  0.8269
13591SOL    HW243027   2.765   7.356   4.413 -0.3512  1.2119  2.1424
13592SOL     OW43028   5.299   6.591   7.301 -0.2055  0.0974  0.1813
13592SOL    HW143029   5.267   6.507   7.267 -1.4193  0.6253 -0.0350
13592SOL    HW243030   5.394   6.581   7.304 -0.2369 -0.8073 -1.1069
13593SOL     OW43031   9.448   1.764   1.633 -0.2558  0.0787 -0.5908
13593SOL    HW143032   9.492   1.752   1.549  1.7537 -2.3675  0.6571
13593SOL    HW243033   9.378   1.699   1.633 -0.6468  0.4966 -0.5934
13594SOL     OW43034   1.571   8.965   7.893 -0.4709 -0.2589 -0.2711
13594SOL    HW143035   1.615   9.044   7.926  0.5036 -1.0983  0.5008
13594SOL    HW243036   1.585   8.968   7.798 -3.3497  2.2035 -0.7705
13595SOL     OW43037   2.189   2.520   9.304 -0.0840 -0.1659  0.0954
13595SOL    HW143038   2.104   2.497   9.266  0.2631  0.9091 -1.4128
13595SOL    HW243039   2.228   2.435   9.328 -1.8610 -0.6292  1.5281
13596SOL     OW43040   2.682   5.077   4.075 -0.3626  0.1374 -0.9627
13596SOL    HW143041   2.715   5.136   4.007 -2.1792  2.1970 -0.2006
13596SOL    HW243042   2.730   5.102   4.154 -0.8506  0.3567 -0.7275
13597SOL     OW43043   5.219   9.773   6.839  0.4932  0.4599 -0.4036
13597SOL    HW143044   5.201   9.729   6.756  0.6489 -0.3377 -0.0305
13597SOL    HW243045   5.154   9.843   6.845  0.3808  0.4178 -1.1206
13598SOL     OW43046  10.206   1.709   8.802 -0.2822  0.2799  0.3306
13598SOL    HW143047  10.113   1.714   8.783 -0.5119  0.7696  1.4930
13598SOL    HW243048  10.223   1.785   8.857  1.0046  0.7250 -0.6191
13599SOL     OW43049   4.982   1.293   4.465 -0.0068  0.1573 -0.3667
13599SOL    HW143050   5.042   1.357   4.503 -0.7701  1.1761 -0.8237
13599SOL    HW243051   4.988   1.308   4.371 -0.2829 -0.3675 -0.4661
13600SOL     OW43052   0.781   4.080   9.609 -0.0167  0.3889  0.3998
13600SOL    HW143053   0.704   4.094   9.664 -0.3284  1.3753 -0.2734
13600SOL    HW243054   0.749   4.024   9.538  0.1022  0.0716  0.5963
13601SOL     OW43055   3.598   9.171   1.918 -0.6275  0.3999 -0.0146
13601SOL    HW143056   3.509   9.149   1.946 -0.1356  0.0428  1.3395
13601SOL    HW243057   3.623   9.246   1.972  0.0958  0.1360  0.0365
13602SOL     OW43058   9.606   9.790   9.058  0.0286  0.4440  0.4889
13602SOL    HW143059   9.635   9.853   8.992  0.0581 -0.0786 -0.0053
13602SOL    HW243060   9.663   9.715   9.046 -1.9133 -0.9119 -1.0098
13603SOL     OW43061   8.133   4.544   6.645 -0.7454  0.4945  0.1244
13603SOL    HW143062   8.120   4.635   6.671 -0.5335  0.0503  2.0037
13603SOL    HW243063   8.064   4.496   6.691  1.3224 -0.6818  2.2463
13604SOL     OW43064   1.115   3.283   8.582 -0.6107  0.0894 -0.0980
13604SOL    HW143065   1.176   3.355   8.601 -1.5270  0.6075  1.0078
13604SOL    HW243066   1.168   3.204   8.595  0.3339  0.5301 -1.0570
13605SOL     OW43067   0.292  10.039   0.647 -0.4556  0.4119  0.8647
13605SOL    HW143068   0.344  10.117   0.666 -0.8765  0.3572  2.3278
13605SOL    HW243069   0.282  10.040   0.551  0.1415  1.7578  0.7946
13606SOL     OW43070   5.222   8.559   6.752  0.4068 -0.5455  0.6531
13606SOL    HW143071   5.233   8.464   6.749 -1.1846 -0.7501  0.4084
13606SOL    HW243072   5.152   8.574   6.815 -1.4034  0.2139 -1.3972
13607SOL     OW43073   4.449   6.575   4.971 -0.5838 -0.1211 -0.1955
13607SOL    HW143074   4.528   6.627   4.959  1.5268 -2.4353  2.3191
13607SOL    HW243075   4.399   6.622   5.037 -0.3244  0.3546 -0.3343
13608SOL     OW43076   9.539   3.083   5.613  0.9969 -0.1359 -0.6435
13608SOL    HW143077   9.567   3.149   5.677  1.1759 -0.2290 -0.6243
13608SOL    HW243078   9.553   3.125   5.529 -0.2393  0.3822 -0.6019
13609SOL     OW43079   2.395   3.287   1.532 -0.7243  0.1314  0.2450
13609SOL    HW143080   2.409   3.370   1.487  1.6438  1.0404  2.3860
13609SOL    HW243081   2.456   3.227   1.490 -1.3095 -0.1150 -0.2678
13610SOL     OW43082   5.151   2.612   0.043  0.4071  0.5776  0.4219
13610SOL    HW143083   5.158   2.517   0.052  0.7777  0.4687 -0.8852
13610SOL    HW243084   5.202   2.646   0.116 -1.6902 -0.1842  2.3581
13611SOL     OW43085   8.240   4.700   2.697 -0.1484  0.2633 -0.1904
13611SOL    HW143086   8.150   4.724   2.672 -0.7987 -2.0523 -0.2605
13611SOL    HW243087   8.290   4.706   2.616 -0.3124  1.1082 -0.2450
13612SOL     OW43088   5.214   1.394   6.340 -0.1991 -0.3104  0.4015
13612SOL    HW143089   5.305   1.411   6.366  0.1806 -0.6577 -0.6836
13612SOL    HW243090   5.163   1.412   6.420  0.6803  1.1084  0.6692
13613SOL     OW43091   4.665   6.281   4.669  0.3731 -0.4256  0.1739
13613SOL    HW143092   4.676   6.251   4.759  1.0798  0.7748  0.5030
13613SOL    HW243093   4.750   6.264   4.628 -0.1294 -1.5477 -0.4730
13614SOL     OW43094   2.745   9.576   7.023  0.3801  0.2820  0.3912
13614SOL    HW143095   2.786   9.625   7.094  2.2776 -0.2310 -0.3065
13614SOL    HW243096   2.762   9.485   7.043  1.7995  0.1552 -1.1763
13615SOL     OW43097   9.622   2.612   9.157  0.1803  0.4561  0.6449
13615SOL    HW143098   9.651   2.697   9.123  1.4117 -0.5842 -1.0287
13615SOL    HW243099   9.578   2.634   9.239  1.2284  2.6299  0.7112
13616SOL     OW43100   4.562   7.135   4.461  0.1050 -0.3419  0.1874
13616SOL    HW143101   4.559   7.039   4.456  0.3198 -0.3823  0.7994
13616SOL    HW243102   4.505   7.164   4.390  2.1028 -0.8785 -1.7669
13617SOL     OW43103   3.726   1.427   3.946 -0.2499  0.5615  0.5193
13617SOL    HW143104   3.653   1.373   3.977  0.1392  0.4558  1.2677
13617SOL    HW243105   3.732   1.498   4.010  0.7662  0.1760  0.8681
13618SOL     OW43106   9.798   6.370   0.804  0.2759  0.0522  0.3547
13618SOL    HW143107   9.887   6.335   0.795  0.7617  0.7504  2.0511
13618SOL    HW243108   9.772   6.392   0.714  1.6112 -0.6311 -0.2329
13619SOL     OW43109   2.643   9.778   0.454  0.3336  0.4535  0.8273
13619SOL    HW143110   2.651   9.773   0.549  1.2641 -0.6897  0.7165
13619SOL    HW243111   2.587   9.704   0.431 -1.2954  1.7125  0.6011
13620SOL     OW43112   6.964   3.743   9.182  0.4180  0.4017  0.5257
13620SOL    HW143113   6.959   3.810   9.250  2.2266  0.4816  0.6278
13620SOL    HW243114   7.058   3.726   9.172  0.0575 -1.2898 -0.3153
13621SOL     OW43115   0.672  10.031   0.128  0.0876  0.1273  0.1376
13621SOL    HW143116   0.761   9.998   0.112 -0.3451 -1.3675  0.6692
13621SOL    HW243117   0.640   9.979   0.202 -0.6269  1.8153  1.0849
13622SOL     OW43118   9.143   4.750   8.757 -0.4960  0.2626  1.1490
13622SOL    HW143119   9.118   4.784   8.843 -0.3770  2.3574  0.4100
13622SOL    HW243120   9.069   4.770   8.701  0.5859  1.6048  0.1406
13623SOL     OW43121   6.263   4.770   9.608  0.2517 -0.0078 -0.1209
13623SOL    HW143122   6.353   4.794   9.632 -0.3301 -0.1864  2.4925
13623SOL    HW243123   6.269   4.680   9.578  1.1905  0.5816 -1.8347
13624SOL     OW43124   2.517   4.928   2.434 -0.3407 -0.0548  0.4164
13624SOL    HW143125   2.569   4.915   2.355 -2.8389  0.4194 -1.4153
13624SOL    HW243126   2.553   5.008   2.472 -1.0397  1.5165 -2.0031
13625SOL     OW43127   4.363   4.360   2.815  0.5167  0.7169  0.3996
13625SOL    HW143128   4.332   4.434   2.763  1.3263  0.8190  0.0619
13625SOL    HW243129   4.289   4.299   2.815  1.0836 -0.1239 -2.4305
13626SOL     OW43130   0.032   6.189   8.471 -0.3440 -0.0694  0.0311
13626SOL    HW143131   0.061   6.186   8.562 -1.4070  0.0797  0.3909
13626SOL    HW243132   0.102   6.147   8.421  0.4261  0.2063  0.8683
13627SOL     OW43133   6.446   6.303   8.641 -0.0933  0.1610  0.2584
13627SOL    HW143134   6.377   6.366   8.620 -2.7274 -2.8580 -1.0879
13627SOL    HW243135   6.522   6.356   8.662 -1.9759  3.7251 -1.1141
13628SOL     OW43136   5.469   8.134   0.100 -0.2164  0.3022 -0.0672
13628SOL    HW143137   5.528   8.083   0.156  1.2419  0.0483 -1.7396
13628SOL    HW243138   5.527   8.196   0.055 -1.4965  1.2340 -0.4983
13629SOL     OW43139   1.996   9.246   3.816  0.9701 -0.2978 -0.7799
13629SOL    HW143140   2.001   9.341   3.809 -0.1154 -0.3037 -1.8928
13629SOL    HW243141   2.065   9.214   3.759  1.1298 -0.1845 -0.6518
13630SOL     OW43142   5.539   4.244   9.997  0.2650 -0.0978  0.2197
13630SOL    HW143143   5.509   4.189   9.924  2.6481 -1.4487  0.1779
13630SOL    HW243144   5.594   4.187  10.050 -1.8127  0.6878  3.4910
13631SOL     OW43145   8.795   4.381   0.235 -0.3624  0.3246  0.5189
13631SOL    HW143146   8.852   4.453   0.260 -1.2721  1.7876 -1.3500
13631SOL    HW243147   8.714   4.397   0.283 -1.0244  1.3758 -0.8570
13632SOL     OW43148   4.499  10.450   9.026  0.1374  0.2456 -0.7629
13632SOL    HW143149   4.429  10.389   9.002 -0.4433  0.8696 -0.6930
13632SOL    HW243150   4.470  10.534   8.991  0.2933  0.7502  0.2689
13633SOL     OW43151   8.381   2.563   8.212  0.5365 -0.1539 -0.5686
13633SOL    HW143152   8.465   2.527   8.181  0.9583  0.4308 -0.1302
13633SOL    HW243153   8.317   2.532   8.149  1.1507 -0.2519 -1.1579
13634SOL     OW43154   7.779   0.841   0.897 -0.2483 -0.3645  0.0694
13634SOL    HW143155   7.699   0.850   0.845 -0.8046 -1.3616  0.7152
13634SOL    HW243156   7.772   0.754   0.937  0.2639  0.2686  1.6331
13635SOL     OW43157   5.468   2.582   3.869  0.1943 -0.7278  0.3662
13635SOL    HW143158   5.510   2.668   3.865  0.8990 -1.1112 -0.8772
13635SOL    HW243159   5.531   2.526   3.914 -0.2758 -0.6115  1.1985
13636SOL     OW43160   3.112   1.660   0.561 -0.0246 -0.0246 -0.5023
13636SOL    HW143161   3.094   1.567   0.573 -0.5183  0.3014  1.7872
13636SOL    HW243162   3.193   1.675   0.608 -1.0356  1.0506  0.9839
13637SOL     OW43163   9.846  10.440   8.467  0.2564  0.3924 -0.8062
13637SOL    HW143164   9.758  10.409   8.445  0.6442 -0.3180 -1.3865
13637SOL    HW243165   9.831  10.520   8.519 -0.7106  0.5748 -1.3440
13638SOL     OW43166   2.690   9.565   9.081 -0.8031  0.1109  0.1088
13638SOL    HW143167   2.768   9.510   9.090 -0.9655 -0.4224 -1.4056
13638SOL    HW243168   2.619   9.503   9.067 -1.0346  0.6785 -1.3593
13639SOL     OW43169   3.909   8.074   6.946  0.0935  0.2205 -0.3400
13639SOL    HW143170   3.941   8.043   7.031  1.3381  1.8789 -0.1616
13639SOL    HW243171   3.942   8.010   6.883 -0.5746 -0.8540  0.3646
13640SOL     OW43172  10.583   1.198   5.975  0.1695 -0.6493 -0.2030
13640SOL    HW143173  10.641   1.255   6.027  0.5128 -1.8120  0.7207
13640SOL    HW243174  10.495   1.224   6.001  0.2641  0.6182 -1.0628
13641SOL     OW43175   2.392   0.773   9.542  0.0571  0.2949 -0.4193
13641SOL    HW143176   2.336   0.802   9.614 -1.9390  0.0704 -1.7957
13641SOL    HW243177   2.468   0.833   9.544 -0.2500  0.6605  1.4557
13642SOL     OW43178   3.994   0.708   5.357  0.1931  0.3163  0.1649
13642SOL    HW143179   4.031   0.722   5.270  3.2871  1.7824  1.5765
13642SOL    HW243180   4.027   0.623   5.384 -3.3355 -1.6906 -1.1220
13643SOL     OW43181   6.890   1.724   3.199  0.0232 -0.3436 -1.0439
13643SOL    HW143182   6.825   1.784   3.162  1.2562  2.6027  1.2022
13643SOL    HW243183   6.838   1.650   3.232 -2.1956  1.6112  0.1335
13644SOL     OW43184   0.245   7.819   2.275 -0.3970 -0.2166 -0.4698
13644SOL    HW143185   0.239   7.871   2.195  1.0278 -0.2305 -0.6061
13644SOL    HW243186   0.316   7.757   2.258  0.5481  0.3794  1.1374
13645SOL     OW43187   3.507   4.291   9.886  0.2319  0.2839 -0.1851
13645SOL    HW143188   3.563   4.361   9.920 -0.2676  0.4814  0.2488
13645SOL    HW243189   3.509   4.302   9.791  0.9615  0.2574 -0.1758
13646SOL     OW43190   2.019   7.783   9.743 -0.1195 -0.0767  0.2508
13646SOL    HW143191   1.965   7.704   9.745  0.7351 -0.6593  1.5505
13646SOL    HW243192   2.080   7.769   9.671 -2.3701  1.0989 -2.0156
13647SOL     OW43193   4.567   6.106   3.984  0.1462 -0.2008 -0.6485
13647SOL    HW143194   4.501   6.055   3.938 -0.1999 -1.6621  1.3758
13647SOL    HW243195   4.530   6.195   3.988 -2.3472 -1.1963  1.4346
13648SOL     OW43196   2.969   0.415   7.872 -0.2350 -0.2656  0.1423
13648SOL    HW143197   3.046   0.411   7.816 -0.8455 -1.1348 -0.6787
13648SOL    HW243198   3.002   0.440   7.958  0.7883  0.6149 -0.4908
13649SOL     OW43199   8.744   5.431   1.444  0.0344  0.3111  0.0170
13649SOL    HW143200   8.790   5.515   1.454 -0.6391  0.7651 -0.6380
13649SOL    HW243201   8.743   5.415   1.350 -1.6091  0.5853 -0.0431
13650SOL     OW43202   7.296   3.192   2.583 -0.4285  0.5449 -0.4002
13650SOL    HW143203   7.341   3.108   2.594  0.6743  1.1631 -0.0451
13650SOL    HW243204   7.325   3.244   2.658 -0.6666  1.4372 -0.9235
13651SOL     OW43205   8.508   6.696   5.500 -0.3141  0.2117  0.4149
13651SOL    HW143206   8.567   6.622   5.482  2.1012  1.8748  1.0502
13651SOL    HW243207   8.426   6.672   5.456  0.6516 -2.4249 -0.1443
13652SOL     OW43208   5.162  10.027   0.967  0.2458  0.2317  0.1921
13652SOL    HW143209   5.069  10.011   0.950 -0.2190  2.3876  0.3380
13652SOL    HW243210   5.207   9.983   0.895 -0.6669 -2.6581  1.2337
13653SOL     OW43211   9.447   2.097   9.129  0.6345 -0.6644 -0.5793
13653SOL    HW143212   9.452   2.192   9.116 -0.2939 -0.5453 -0.1105
13653SOL    HW243213   9.388   2.086   9.203 -0.6673 -1.6742 -1.7255
13654SOL     OW43214   5.807   7.341   3.371 -0.1033  0.8947  0.1902
13654SOL    HW143215   5.802   7.372   3.280  0.1484  0.4140  0.0089
13654SOL    HW243216   5.724   7.297   3.385 -0.6017  1.9169  0.5565
13655SOL     OW43217   5.882   3.938   1.227 -0.2685 -0.1622 -0.0036
13655SOL    HW143218   5.834   4.013   1.193  0.8164  1.0584  1.0242
13655SOL    HW243219   5.962   3.976   1.265  1.3129 -2.0480 -1.2327
13656SOL     OW43220   1.371   8.250   8.734  0.3107  0.8349 -0.2235
13656SOL    HW143221   1.292   8.300   8.752  1.0116  1.8006  0.2437
13656SOL    HW243222   1.378   8.188   8.807 -1.4239 -1.1268 -1.6074
13657SOL     OW43223   3.941   3.650   7.822  0.1593  0.0008  0.4140
13657SOL    HW143224   4.019   3.695   7.856  0.3784 -0.7093  0.8780
13657SOL    HW243225   3.975   3.568   7.787 -0.1746  0.3816 -0.8335
13658SOL     OW43226   9.801   6.685   5.813 -0.1798 -0.0290 -0.4616
13658SOL    HW143227   9.794   6.647   5.901  0.8182  1.0993  0.1465
13658SOL    HW243228   9.795   6.780   5.828  0.8000  0.2191 -1.5084
13659SOL     OW43229   9.100   0.925   2.724  0.7391  0.6178  0.0857
13659SOL    HW143230   9.160   0.862   2.764  0.9244  0.7109 -0.0485
13659SOL    HW243231   9.154   0.978   2.666  0.4521  0.4101 -0.3784
13660SOL     OW43232   9.055   0.002   1.582 -0.2973  0.3469  0.6688
13660SOL    HW143233   8.988   0.020   1.648  0.1863  0.5686  1.1031
13660SOL    HW243234   9.138   0.010   1.629  0.0590  0.6338  0.0065
13661SOL     OW43235   0.322  10.371   4.620  0.3903 -0.6823 -0.3320
13661SOL    HW143236   0.390  10.435   4.603  0.5505 -1.0896 -1.2958
13661SOL    HW243237   0.260  10.416   4.678  0.6610  0.2173 -0.7284
13662SOL     OW43238   7.732   6.571   1.773 -0.3866  0.4485  0.4488
13662SOL    HW143239   7.781   6.647   1.741 -0.8202  0.3149 -0.5526
13662SOL    HW243240   7.646   6.579   1.732 -1.1088  0.4933  1.9206
13663SOL     OW43241   8.183   2.374  10.472  0.5165  0.3498 -0.2960
13663SOL    HW143242   8.205   2.465  10.493  0.8119  0.0337  0.7905
13663SOL    HW243243   8.221   2.323  10.543  1.0298 -0.7075 -1.3010
13664SOL     OW43244   0.013   1.922   7.399 -0.3921 -0.3395  0.2196
13664SOL    HW143245   0.021   1.830   7.425  2.3619 -0.1800  0.1853
13664SOL    HW243246   0.002   1.969   7.482  1.2965 -0.4649  0.5457
13665SOL     OW43247   9.404   0.940   6.264  0.3750 -0.6645  0.5867
13665SOL    HW143248   9.317   0.978   6.261  0.4929 -0.4342  0.0594
13665SOL    HW243249   9.406   0.891   6.346  0.2327  0.4676  1.2768
13666SOL     OW43250   8.655   5.568   5.222  0.7511 -0.2617  0.2815
13666SOL    HW143251   8.590   5.586   5.154 -0.6916 -1.7468  1.1816
13666SOL    HW243252   8.715   5.642   5.218 -0.7618  0.9823 -0.8683
13667SOL     OW43253   3.282   9.481   3.348  0.6183 -0.5647  0.1686
13667SOL    HW143254   3.295   9.436   3.432  1.1633 -2.3790 -0.8194
13667SOL    HW243255   3.190   9.507   3.349  1.2124  1.9693  2.4291
13668SOL     OW43256   9.399   2.028   9.692  0.1837  0.0407 -0.5813
13668SOL    HW143257   9.343   2.105   9.681 -0.5729 -0.7967 -3.3292
13668SOL    HW243258   9.354   1.975   9.757 -0.9441  0.4955 -0.9675
13669SOL     OW43259   0.320   6.572   4.938  0.2963  0.3724  0.6242
13669SOL    HW143260   0.308   6.534   4.851  0.2879  1.0745  0.3066
13669SOL    HW243261   0.369   6.506   4.986  2.1405  0.7800 -0.5574
13670SOL     OW43262   0.691   9.480   9.142  0.0152 -0.5539 -0.2795
13670SOL    HW143263   0.616   9.534   9.117 -1.0372 -1.5543  0.6697
13670SOL    HW243264   0.767   9.528   9.107 -0.9752  0.9249 -0.4909
13671SOL     OW43265   8.441   6.544   1.372  0.1342  0.0656 -0.5535
13671SOL    HW143266   8.386   6.576   1.444  1.2950  0.5830  0.1387
13671SOL    HW243267   8.431   6.609   1.303 -0.3677 -0.0149 -0.5592
13672SOL     OW43268   8.060   1.819   8.927 -0.1699  0.1368  0.2605
13672SOL    HW143269   7.988   1.767   8.891  0.6057 -0.0647 -1.0664
13672SOL    HW243270   8.017   1.890   8.973 -1.2403  0.5456 -1.2837
13673SOL     OW43271   2.496   3.260   8.614  0.1153  0.4367  0.6985
13673SOL    HW143272   2.525   3.310   8.537  0.4027 -0.9826 -0.1700
13673SOL    HW243273   2.571   3.205   8.636 -0.6838 -0.6999  0.6667
13674SOL     OW43274   8.792   3.453   1.770 -0.2109  0.1872  0.4596
13674SOL    HW143275   8.730   3.459   1.843 -2.2012  1.7482 -1.2606
13674SOL    HW243276   8.873   3.492   1.805 -1.5126  2.1321  1.4810
13675SOL     OW43277   4.871   9.422   1.484 -0.1556 -0.8260 -0.5163
13675SOL    HW143278   4.942   9.358   1.485  0.4530 -0.1668 -0.5118
13675SOL    HW243279   4.814   9.394   1.412  1.5756  0.1671 -2.3777
13676SOL     OW43280   5.193   0.364   9.856 -0.2842 -0.9676  0.3753
13676SOL    HW143281   5.287   0.358   9.836 -0.5340  0.5590 -1.4654
13676SOL    HW243282   5.149   0.338   9.775 -1.4669 -1.0145  1.0099
13677SOL     OW43283   0.464   6.290   4.367 -0.1934 -0.4765  0.6398
13677SOL    HW143284   0.380   6.272   4.326 -0.8469  0.4540  1.5437
13677SOL    HW243285   0.499   6.366   4.320  0.3027 -1.0364  0.0717
13678SOL     OW43286   5.129   7.107   9.155 -0.2435 -0.1132 -0.2274
13678SOL    HW143287   5.137   7.073   9.066  0.8942  0.5244 -0.3887
13678SOL    HW243288   5.037   7.094   9.177 -0.3686 -1.0064 -1.1926
13679SOL     OW43289   3.752   2.816   6.298 -0.1917 -0.5189  0.0292
13679SOL    HW143290   3.677   2.839   6.243 -0.1530  1.8286  0.8501
13679SOL    HW243291   3.725   2.838   6.387  2.2554  3.1500  0.1216
13680SOL     OW43292   6.420   5.397   6.847  0.5166  0.5467  0.0538
13680SOL    HW143293   6.469   5.438   6.919 -0.1565  0.3600  0.6334
13680SOL    HW243294   6.334   5.438   6.850 -0.3710 -1.2543  1.0209
13681SOL     OW43295   6.253   5.820   3.433  0.1179 -0.3959 -0.1955
13681SOL    HW143296   6.212   5.812   3.347 -0.8357 -0.4843  0.2545
13681SOL    HW243297   6.345   5.797   3.418  0.0483 -0.0313 -1.2558
13682SOL     OW43298   7.816   9.801   7.031 -0.1732 -0.1857  0.4498
13682SOL    HW143299   7.823   9.846   7.115  3.0886  0.7992 -0.1983
13682SOL    HW243300   7.786   9.868   6.970 -1.9634 -0.7516  0.6550
13683SOL     OW43301   1.693   5.742   3.170  0.0135  0.1542 -0.0028
13683SOL    HW143302   1.665   5.650   3.176 -0.0268  0.2372  2.0272
13683SOL    HW243303   1.625   5.790   3.218  1.2291  0.9322  0.9984
13684SOL     OW43304   2.815   7.303   3.586  0.0768 -0.1926  0.1335
13684SOL    HW143305   2.726   7.303   3.621  0.0218  2.7324  0.2930
13684SOL    HW243306   2.823   7.220   3.540 -2.1981 -1.1916  1.3584
13685SOL     OW43307   3.358   4.006   7.767 -0.5480 -0.1546  0.0903
13685SOL    HW143308   3.292   3.937   7.769 -1.4260  0.6278  2.4168
13685SOL    HW243309   3.429   3.973   7.822  0.5381 -0.5087 -1.4589
13686SOL     OW43310   7.833   8.229   4.756 -0.1497  0.2526 -0.1349
13686SOL    HW143311   7.795   8.313   4.782 -0.2373  0.3572 -0.5935
13686SOL    HW243312   7.817   8.172   4.831  0.0455  0.6858  0.2405
13687SOL     OW43313   8.746   1.833   6.265  0.6586  0.0379 -0.1211
13687SOL    HW143314   8.814   1.891   6.231  2.3621 -1.3577  0.7608
13687SOL    HW243315   8.723   1.777   6.190  1.0912 -0.0433 -0.1936
13688SOL     OW43316   9.623   0.234  10.513 -0.4345 -0.1216 -0.3362
13688SOL    HW143317   9.634   0.141  10.495 -0.4049 -0.0565 -0.6635
13688SOL    HW243318   9.597   0.238  10.605 -2.2669 -0.5781 -0.7974
13689SOL     OW43319   6.048   2.861   3.980 -0.6289 -0.4077  0.7318
13689SOL    HW143320   6.104   2.922   3.932  1.4657 -2.1924  0.7573
13689SOL    HW243321   5.964   2.907   3.987 -0.2853  0.9792 -2.3587
13690SOL     OW43322   1.387   2.017   9.042  0.3118  0.0286 -0.2597
13690SOL    HW143323   1.369   2.082   8.973 -0.9921 -0.7868 -0.7335
13690SOL    HW243324   1.300   1.988   9.069  0.8757 -1.5150 -0.0454
13691SOL     OW43325   4.357   1.125   2.116  0.1912  0.3625 -0.1745
13691SOL    HW143326   4.403   1.201   2.079 -1.0779  0.6454 -1.2770
13691SOL    HW243327   4.276   1.120   2.065 -0.2906 -1.0295  0.6848
13692SOL     OW43328  10.573   2.399   5.778 -0.5188 -0.1485  0.2418
13692SOL    HW143329  10.552   2.487   5.748 -1.6571 -0.7810 -0.8715
13692SOL    HW243330  10.660   2.382   5.742 -0.2270  0.5571  0.5850
13693SOL     OW43331   4.756   6.848   1.199 -0.3457 -0.0270  0.2092
13693SOL    HW143332   4.805   6.904   1.139 -0.3428  0.6533  0.8333
13693SOL    HW243333   4.715   6.782   1.142 -1.7917  1.6324 -0.7724
13694SOL     OW43334   6.089   0.954   7.641 -0.7451 -0.6278  0.2039
13694SOL    HW143335   6.122   0.994   7.560  1.2109 -2.4468  0.0276
13694SOL    HW243336   6.166   0.944   7.696 -1.6676 -1.5466  1.3622
13695SOL     OW43337   5.310   2.270   5.318 -0.2413  0.4485 -0.1377
13695SOL    HW143338   5.245   2.213   5.359  1.0233 -2.3890 -1.7620
13695SOL    HW243339   5.386   2.266   5.377  0.0331 -0.0049 -0.5163
13696SOL     OW43340   9.935   0.317  10.024  0.2292  0.2301 -0.0731
13696SOL    HW143341   9.917   0.297  10.116 -1.5137  0.1006 -0.4127
13696SOL    HW243342   9.880   0.393  10.005  0.6893  0.3497 -0.9748
13697SOL     OW43343   4.704   9.182   4.555 -0.0888 -0.0789 -0.1170
13697SOL    HW143344   4.667   9.126   4.623  0.6844  0.4289  0.7446
13697SOL    HW243345   4.798   9.164   4.556 -0.2211 -1.1679 -2.1097
13698SOL     OW43346  10.279   9.221   3.139  1.2578 -0.4627  0.4131
13698SOL    HW143347  10.325   9.298   3.172  0.5179  0.7887 -1.3088
13698SOL    HW243348  10.349   9.160   3.114  1.9583  0.5491 -0.1987
13699SOL     OW43349   0.232   2.314   2.201 -0.3805 -0.0724  0.3122
13699SOL    HW143350   0.328   2.312   2.196 -0.0982 -0.5843  3.6451
13699SOL    HW243351   0.203   2.253   2.133  1.5168  1.2987 -1.8745
13700SOL     OW43352   8.951   4.689   7.866 -0.2379  0.1970 -0.2636
13700SOL    HW143353   8.949   4.603   7.824  0.3414  0.3346 -0.5809
13700SOL    HW243354   8.905   4.747   7.806  0.9023  0.4697 -0.9050
13701SOL     OW43355   9.560   5.460   9.625  0.5415 -0.2455 -0.3310
13701SOL    HW143356   9.467   5.436   9.632 -0.0001  1.3706 -1.3720
13701SOL    HW243357   9.577   5.510   9.705  0.4444 -0.3455 -0.2472
13702SOL     OW43358   6.451   9.539   0.521 -0.0700 -0.1834 -0.3457
13702SOL    HW143359   6.359   9.560   0.505  0.3719  2.9701  0.5887
13702SOL    HW243360   6.500   9.609   0.478  1.8412 -1.0879  0.2466
13703SOL     OW43361  10.272   2.350   1.362 -0.0402 -0.3921 -0.8413
13703SOL    HW143362  10.310   2.436   1.375 -0.3392 -0.1440 -1.5506
13703SOL    HW243363  10.346   2.293   1.340  0.2394 -0.4591  0.2537
13704SOL     OW43364   5.403   9.212   1.839  0.0027 -0.0702  0.5541
13704SOL    HW143365   5.400   9.193   1.745 -1.7278  0.9019  0.3715
13704SOL    HW243366   5.371   9.132   1.880  1.2328 -0.6804  0.3799
13705SOL     OW43367   3.320   0.510   8.690  0.3325  0.3118  0.1219
13705SOL    HW143368   3.364   0.564   8.755  2.1900  0.2560 -1.0212
13705SOL    HW243369   3.245   0.562   8.662 -0.0491  0.6660  1.7040
13706SOL     OW43370   9.783   8.300   0.541 -0.3695 -0.4391  0.7052
13706SOL    HW143371   9.738   8.354   0.476 -1.9100  0.6925  2.6112
13706SOL    HW243372   9.722   8.294   0.615  1.6289 -0.9062  2.4279
13707SOL     OW43373   1.177   0.186  10.058  0.5225  0.1290  0.2467
13707SOL    HW143374   1.260   0.194  10.011  0.2003 -1.8844 -0.7919
13707SOL    HW243375   1.152   0.276  10.077  1.1258  1.0653 -2.7287
13708SOL     OW43376   3.392   8.462   2.308  0.1116 -0.2237 -0.2545
13708SOL    HW143377   3.439   8.448   2.391 -0.2472  1.2058  0.2084
13708SOL    HW243378   3.439   8.407   2.245  1.0991 -0.4533  0.6469
13709SOL     OW43379   0.850   1.427   8.199 -0.0050 -0.4250  0.2365
13709SOL    HW143380   0.756   1.431   8.217 -0.1530 -2.0849 -0.0065
13709SOL    HW243381   0.858   1.454   8.108 -0.5648 -2.5984 -0.5014
13710SOL     OW43382   4.078   8.612   2.977 -0.5509  0.4429  0.7520
13710SOL    HW143383   4.025   8.595   2.899 -0.0749 -0.6544  0.6507
13710SOL    HW243384   4.087   8.707   2.979 -0.3358  0.4773 -0.6970
13711SOL     OW43385   2.746   0.483   1.782  0.1218 -0.0860  0.0652
13711SOL    HW143386   2.826   0.435   1.806  0.4709  0.0636 -0.7544
13711SOL    HW243387   2.677   0.418   1.785  0.1513 -0.0884  1.3975
13712SOL     OW43388   7.209  10.432   4.006  0.4749  0.1424 -0.0916
13712SOL    HW143389   7.292  10.478   4.023 -0.0144  1.0168 -0.0293
13712SOL    HW243390   7.231  10.367   3.940  1.2994  0.1021  0.2044
13713SOL     OW43391   8.136  10.608   4.421 -0.1530 -0.0243  0.4236
13713SOL    HW143392   8.196  10.549   4.376 -0.5281  0.1252 -0.2744
13713SOL    HW243393   8.049  10.574   4.402 -0.4414  1.3425 -0.8634
13714SOL     OW43394   1.586   2.603   9.228 -0.0330 -0.1182  0.5754
13714SOL    HW143395   1.593   2.508   9.230  0.3774 -0.3013 -2.8527
13714SOL    HW243396   1.493   2.621   9.239  0.0994 -0.7057  3.1657
13715SOL     OW43397   2.003   8.287   2.479  0.0434 -0.5346  0.4901
13715SOL    HW143398   1.945   8.340   2.535 -1.0315 -0.6462 -0.4695
13715SOL    HW243399   2.044   8.225   2.539 -1.8145 -1.2935  1.0537
13716SOL     OW43400   3.326   8.030   0.476 -0.7069  0.2359 -0.2877
13716SOL    HW143401   3.309   7.947   0.432 -0.1696  1.1561 -2.3258
13716SOL    HW243402   3.268   8.028   0.552 -0.1574 -2.3070  0.1775
13717SOL     OW43403   7.544   3.408   2.409 -0.3634 -0.1436 -0.0623
13717SOL    HW143404   7.502   3.476   2.461 -0.0612 -1.2670  1.7599
13717SOL    HW243405   7.636   3.411   2.436 -0.4835 -1.7434  0.6637
13718SOL     OW43406   5.007   3.508   4.606 -0.3624 -0.1774 -0.0000
13718SOL    HW143407   5.017   3.553   4.690  0.7488 -0.0287 -0.1990
13718SOL    HW243408   5.062   3.430   4.615 -1.5669 -1.0527  0.0168
13719SOL     OW43409   1.470   9.326   3.954 -0.0386 -0.0607  0.1004
13719SOL    HW143410   1.411   9.390   3.914  0.0710  0.1404  0.2562
13719SOL    HW243411   1.457   9.246   3.903  0.0911  0.1880 -0.3303
13720SOL     OW43412   2.744  10.243   8.701  0.1591  0.1603  0.5738
13720SOL    HW143413   2.781  10.319   8.654  0.9480  0.8950  2.3089
13720SOL    HW243414   2.807  10.224   8.770 -1.0080 -0.8224  1.4164
13721SOL     OW43415   5.381   5.450   4.975 -0.2673  0.3083 -0.0971
13721SOL    HW143416   5.305   5.408   4.934  0.4585 -0.3613 -0.8097
13721SOL    HW243417   5.452   5.435   4.913  0.3902  1.1657  0.4288
13722SOL     OW43418   1.592   2.433   0.613 -0.0727  0.3376  0.4952
13722SOL    HW143419   1.506   2.411   0.576  0.0892 -0.2925  0.4820
13722SOL    HW243420   1.648   2.449   0.537  0.7611 -2.8022  0.3091
13723SOL     OW43421   4.347   2.961   9.720 -0.1977  0.3795  0.4783
13723SOL    HW143422   4.437   2.973   9.689 -0.1529  0.8711  0.7894
13723SOL    HW243423   4.293   3.001   9.652 -0.3919 -2.4853 -1.2098
13724SOL     OW43424   9.457   9.966  10.483  0.1462  1.2827 -0.5156
13724SOL    HW143425   9.511  10.041  10.510  0.8743  1.0947 -1.4332
13724SOL    HW243426   9.512   9.890  10.498 -0.0177  1.0534 -1.0860
13725SOL     OW43427   1.935   7.048   4.468 -0.3734 -0.1125 -0.0409
13725SOL    HW143428   1.996   7.107   4.513 -1.5484  1.0145  0.1267
13725SOL    HW243429   1.978   6.963   4.470  1.5065  0.7665 -0.5124
13726SOL     OW43430   4.079   2.529   7.385  0.3421 -0.1286 -0.1843
13726SOL    HW143431   4.086   2.434   7.399  0.9696 -0.1165 -0.3540
13726SOL    HW243432   3.987   2.549   7.401 -0.3882 -1.1778 -2.6482
13727SOL     OW43433   7.617   4.817   4.618 -0.0426  0.3465 -0.2366
13727SOL    HW143434   7.673   4.880   4.574 -0.2122  1.0428  0.5085
13727SOL    HW243435   7.634   4.830   4.711  0.5356 -1.2977 -0.0674
13728SOL     OW43436   8.855   5.187   9.877 -0.1593  0.6581 -0.4041
13728SOL    HW143437   8.777   5.229   9.912 -0.8232 -0.5347 -0.4188
13728SOL    HW243438   8.838   5.175   9.784  0.1308  0.5951 -0.4525
13729SOL     OW43439  10.262   5.328  10.607 -0.0240  0.0203 -0.3109
13729SOL    HW143440  10.343   5.323  10.657 -0.1586 -0.6594 -0.1489
13729SOL    HW243441  10.232   5.418  10.620 -0.3884 -0.3048  1.3689
13730SOL     OW43442   4.786   6.642   8.532 -0.3279  0.8338 -0.8001
13730SOL    HW143443   4.870   6.604   8.508 -0.2133  1.4677 -1.4260
13730SOL    HW243444   4.770   6.709   8.466 -1.3862  0.6336 -0.7677
13731SOL     OW43445   4.763   5.876   3.016  0.4340  0.1107  0.0083
13731SOL    HW143446   4.850   5.895   3.051  0.0771 -0.5925  1.3483
13731SOL    HW243447   4.703   5.896   3.088 -0.5270  0.5319 -0.8755
13732SOL     OW43448   1.119   5.178   1.867 -0.2783 -0.4255  0.0258
13732SOL    HW143449   1.083   5.125   1.796 -0.5624 -1.3326  0.8322
13732SOL    HW243450   1.042   5.220   1.907 -0.1977 -0.4681  0.2299
13733SOL     OW43451   8.097   5.208   6.227 -0.6646 -0.1293 -0.1566
13733SOL    HW143452   8.125   5.281   6.171 -0.6824  0.7139  0.8953
13733SOL    HW243453   8.165   5.202   6.294 -1.8887  0.5452  1.1861
13734SOL     OW43454   6.448   0.400   1.128 -0.5306  0.1459 -0.0395
13734SOL    HW143455   6.442   0.311   1.163 -1.3891 -0.2947 -1.2449
13734SOL    HW243456   6.527   0.400   1.074 -1.0382 -0.1873 -0.8033
13735SOL     OW43457   7.822   6.493   3.790  0.6016 -0.2896 -0.0995
13735SOL    HW143458   7.865   6.568   3.750  1.0284  0.4751  1.6764
13735SOL    HW243459   7.743   6.529   3.832  0.5486 -0.9078  0.3559
13736SOL     OW43460  10.475   2.869   8.396  0.1210 -0.4544 -0.5988
13736SOL    HW143461  10.479   2.963   8.412  0.7092 -0.7094  0.8790
13736SOL    HW243462  10.395   2.857   8.344  0.3689  0.9097 -1.3366
13737SOL     OW43463   6.574   4.113   0.062 -0.3847  0.2191  0.2265
13737SOL    HW143464   6.664   4.139   0.044  0.3195 -2.5116 -0.7253
13737SOL    HW243465   6.528   4.126  -0.020 -0.2781 -0.4511  0.0511
13738SOL     OW43466   4.925   4.862   4.668 -0.2667 -0.1894 -0.0278
13738SOL    HW143467   4.964   4.825   4.589 -1.0180 -0.3988 -0.3103
13738SOL    HW243468   4.885   4.944   4.638 -1.1969 -0.6300 -0.0298
13739SOL     OW43469   1.449   9.745   3.768  0.8012 -0.2861  0.0989
13739SOL    HW143470   1.414   9.771   3.853  1.5354  1.0980  0.0026
13739SOL    HW243471   1.377   9.698   3.726 -1.3185  3.0282 -0.3802
13740SOL     OW43472   9.420   5.509   2.243  0.1980  0.8278 -0.2674
13740SOL    HW143473   9.515   5.511   2.241  0.4380 -2.7191  0.7642
13740SOL    HW243474   9.396   5.444   2.177 -1.1213 -1.5108  2.3224
13741SOL     OW43475   4.953   5.740   1.879 -0.4073  0.1630 -0.1576
13741SOL    HW143476   4.913   5.825   1.900 -0.0224  0.3454 -0.1638
13741SOL    HW243477   4.894   5.702   1.813 -0.3308  0.6305 -0.5033
13742SOL     OW43478   1.527   4.721  10.283 -0.5679  0.3706 -0.8971
13742SOL    HW143479   1.610   4.749  10.245 -1.1187 -0.1783 -2.6355
13742SOL    HW243480   1.525   4.761  10.369  0.7561  1.7496 -1.4574
13743SOL     OW43481   2.932   4.643   8.009 -0.1996  0.0814 -0.2879
13743SOL    HW143482   2.862   4.707   8.020  0.5731  0.9913 -0.5380
13743SOL    HW243483   2.917   4.606   7.922 -1.1762 -0.7580  0.2134
13744SOL     OW43484   7.680   6.937   3.540 -0.1944 -0.5063  0.2171
13744SOL    HW143485   7.659   6.977   3.625 -0.3811 -0.4485  0.1451
13744SOL    HW243486   7.775   6.945   3.533 -0.0894 -1.1971  0.7616
13745SOL     OW43487   6.356   6.975   0.433 -0.5080  0.0212  0.2527
13745SOL    HW143488   6.294   6.937   0.370 -1.0185  1.8752 -0.4360
13745SOL    HW243489   6.367   7.066   0.404  0.6585  0.4219  1.8082
13746SOL     OW43490   2.513   0.689   0.142  0.3917  0.2069  0.3224
13746SOL    HW143491   2.564   0.761   0.180  2.9072  0.4459 -3.0894
13746SOL    HW243492   2.579   0.631   0.105 -1.7499 -1.8557 -0.4245
13747SOL     OW43493   1.270   0.099   8.811  0.6998 -0.3378 -0.0930
13747SOL    HW143494   1.262   0.031   8.743  0.8527 -0.4857  0.0365
13747SOL    HW243495   1.190   0.091   8.862  1.6555 -1.9038  1.2835
13748SOL     OW43496   7.737   3.635   9.489  0.2295 -0.2419  0.2546
13748SOL    HW143497   7.732   3.604   9.579 -1.1640  0.6664  0.5310
13748SOL    HW243498   7.720   3.729   9.495  1.1133  0.0116 -0.8623
13749SOL     OW43499   9.495   3.408   3.217  0.1217  0.4074  0.2474
13749SOL    HW143500   9.402   3.391   3.230  0.2142  0.3261  0.8170
13749SOL    HW243501   9.523   3.451   3.298  1.0195 -1.3666  0.9533
13750SOL     OW43502   4.073   1.578   8.549 -0.2011 -0.7541 -0.1023
13750SOL    HW143503   4.004   1.645   8.551 -2.3144 -2.7738  0.1990
13750SOL    HW243504   4.139   1.609   8.611 -0.6068  1.4925 -0.7231
13751SOL     OW43505   1.033   5.462   5.930  0.1295  0.1181 -0.1356
13751SOL    HW143506   1.083   5.542   5.946 -0.8211  0.9855 -1.2862
13751SOL    HW243507   1.031   5.454   5.834 -1.6373 -0.0600 -0.1117
13752SOL     OW43508   9.585  10.259   7.219 -0.2098  0.6924  0.3309
13752SOL    HW143509   9.518  10.199   7.186  1.7388 -1.3771 -0.0696
13752SOL    HW243510   9.616  10.218   7.299  0.5353  1.6741  0.5633
13753SOL     OW43511   5.066   9.664   1.329 -0.2511  0.0062  0.4217
13753SOL    HW143512   5.071   9.747   1.375  1.1872  0.7541 -0.9527
13753SOL    HW243513   4.987   9.622   1.362  0.6317  0.4933  3.4588
13754SOL     OW43514  10.077   5.335   7.981  0.0741  0.3530 -0.7900
13754SOL    HW143515  10.034   5.418   7.959 -0.2392  0.7297  1.1076
13754SOL    HW243516  10.019   5.268   7.945 -0.8074  0.9117 -0.4545
13755SOL     OW43517   3.497   9.564   7.064  0.0160 -0.1422  0.0030
13755SOL    HW143518   3.521   9.482   7.108 -0.5553 -0.3747 -0.1079
13755SOL    HW243519   3.564   9.626   7.092 -0.0721 -0.4022  0.8340
13756SOL     OW43520   6.333   5.652   4.770 -0.1073  0.5098  0.0760
13756SOL    HW143521   6.348   5.582   4.707 -0.4373  2.0404 -1.8103
13756SOL    HW243522   6.325   5.608   4.855  1.7337 -1.5051 -0.7238
13757SOL     OW43523   4.820   4.047   1.505 -0.0432  0.5266  0.8226
13757SOL    HW143524   4.911   4.018   1.501 -0.8107 -2.2078  1.3867
13757SOL    HW243525   4.820   4.132   1.460  2.4953 -0.0735 -0.4984
13758SOL     OW43526   1.327   5.795   9.314 -0.1483  0.2334  0.0789
13758SOL    HW143527   1.411   5.818   9.352 -0.2614  0.4244  0.2150
13758SOL    HW243528   1.325   5.840   9.230 -0.1887  0.3687  0.1530
13759SOL     OW43529   1.329   7.545  10.219  0.0650 -0.2566  0.4146
13759SOL    HW143530   1.248   7.507  10.252  0.2503 -0.0282  1.1422
13759SOL    HW243531   1.302   7.626  10.176 -0.2375 -0.8072 -0.4721
13760SOL     OW43532   7.966   5.054   6.499  0.2846  0.4983 -0.1284
13760SOL    HW143533   7.921   4.971   6.481  3.7693 -1.2965 -1.4022
13760SOL    HW243534   7.933   5.114   6.432  0.1588 -0.8852 -1.3446
13761SOL     OW43535   7.468   2.002   3.170  0.1322  0.4669  0.5130
13761SOL    HW143536   7.490   1.988   3.078 -1.6472  0.7907 -0.0040
13761SOL    HW243537   7.504   1.925   3.215 -0.0611 -0.3238 -0.6449
13762SOL     OW43538   8.699   9.657   0.768 -0.0420 -0.1379  0.3573
13762SOL    HW143539   8.757   9.729   0.794  1.8066 -1.1729 -0.6536
13762SOL    HW243540   8.618   9.700   0.742  0.3805  1.4207  1.4446
13763SOL     OW43541  10.381   6.460   3.984  0.5925 -0.2312 -0.3120
13763SOL    HW143542  10.339   6.517   3.919  1.3585 -0.0617 -0.6779
13763SOL    HW243543  10.309   6.414   4.026  0.1484 -2.0399 -2.8376
13764SOL     OW43544   1.537   3.635  10.092  0.5411  0.2006  0.4502
13764SOL    HW143545   1.498   3.720  10.071 -0.5090 -0.8091 -2.0365
13764SOL    HW243546   1.466   3.572  10.079  1.5340 -1.1693  1.4034
13765SOL     OW43547   1.864   0.490  10.014  0.0802 -0.6645  0.1674
13765SOL    HW143548   1.875   0.395  10.004  0.1474 -0.5144 -1.4602
13765SOL    HW243549   1.952   0.523  10.027  0.4981 -0.5279 -2.5235
13766SOL     OW43550   4.985   7.820   1.430  0.2716  0.3097  0.1170
13766SOL    HW143551   4.977   7.799   1.337  0.4578 -2.4747  0.6353
13766SOL    HW243552   4.910   7.776   1.470  1.2889 -0.2380  1.4920
13767SOL     OW43553   1.270   2.809   4.003  0.2795 -1.1470  0.3428
13767SOL    HW143554   1.234   2.731   3.962 -0.3852 -0.0055 -1.3634
13767SOL    HW243555   1.304   2.862   3.930  0.8872  0.0791  1.4560
13768SOL     OW43556   8.585   9.661   2.258  0.1311  0.1242 -0.7271
13768SOL    HW143557   8.593   9.716   2.180  2.8577  1.2122  0.2150
13768SOL    HW243558   8.647   9.590   2.244 -0.8876 -0.8707 -0.4031
13769SOL     OW43559   7.470   9.288   7.502  0.1669 -0.2475 -0.5701
13769SOL    HW143560   7.561   9.317   7.500  0.5717 -1.0586  2.1336
13769SOL    HW243561   7.448   9.285   7.595 -2.5891 -0.2632 -1.1479
13770SOL     OW43562   6.406   6.849   3.150  0.9146 -0.4589 -0.1366
13770SOL    HW143563   6.346   6.797   3.098  0.0449 -0.2910  0.6705
13770SOL    HW243564   6.392   6.939   3.120  2.6590 -0.6677 -1.7699
13771SOL     OW43565   0.393   7.864   2.844 -0.1238  0.2643  0.0921
13771SOL    HW143566   0.467   7.925   2.854  1.7689 -1.7890 -0.6104
13771SOL    HW243567   0.398   7.808   2.922 -1.1626  0.2798  0.1814
13772SOL     OW43568   2.688   4.572   2.511  0.7739 -0.6254  0.4180
13772SOL    HW143569   2.652   4.587   2.599 -0.6291 -1.6366  0.0594
13772SOL    HW243570   2.771   4.619   2.511  0.3620  0.1889  1.9654
13773SOL     OW43571   0.646   5.516   2.122 -0.4167  0.4093 -0.6146
13773SOL    HW143572   0.678   5.437   2.077 -0.7614  0.1880 -0.4712
13773SOL    HW243573   0.640   5.491   2.214  1.9745  1.3704 -0.1099
13774SOL     OW43574   2.345   3.521   5.355  0.1918  0.4945 -0.2624
13774SOL    HW143575   2.313   3.456   5.418  1.6961 -0.3161 -0.3090
13774SOL    HW243576   2.343   3.477   5.271  1.0658  0.5581 -0.3218
13775SOL     OW43577   1.085   7.264   7.016 -0.1353 -0.2000 -0.2214
13775SOL    HW143578   1.087   7.355   6.987  1.7203 -0.5690 -1.4416
13775SOL    HW243579   1.011   7.225   6.970 -0.9603  0.6858  0.3357
13776SOL     OW43580   4.256   2.244   4.809 -0.0929  0.4989  0.2170
13776SOL    HW143581   4.177   2.250   4.755 -0.8353 -1.8409  0.9414
13776SOL    HW243582   4.269   2.333   4.842 -2.7107  0.8730  0.4682
13777SOL     OW43583   9.241   1.734   9.462  0.2688  0.0895  0.3160
13777SOL    HW143584   9.270   1.676   9.532  0.4257 -2.2358 -1.5464
13777SOL    HW243585   9.321   1.761   9.418  0.0758 -0.1124 -0.1730
13778SOL     OW43586   4.986   5.126   1.488 -0.0835 -0.4991 -0.4176
13778SOL    HW143587   4.943   5.211   1.500  1.4457 -0.0167  2.6761
13778SOL    HW243588   4.919   5.071   1.447 -1.8390  1.5695 -0.5416
13779SOL     OW43589   7.958   7.982   1.338 -0.0696 -0.1631 -0.0309
13779SOL    HW143590   7.878   8.015   1.297 -0.1713  0.1115  0.3755
13779SOL    HW243591   7.933   7.897   1.373 -0.4872  0.3635  0.9982
13780SOL     OW43592   9.880  10.025   9.119 -0.1277  0.7145  0.0147
13780SOL    HW143593   9.830   9.994   9.043 -1.9112  0.6838  1.1436
13780SOL    HW243594   9.966  10.045   9.084 -0.7208  0.1361 -1.9065
13781SOL     OW43595   8.166   2.121   8.004  0.3945  0.0726  0.3824
13781SOL    HW143596   8.204   2.040   8.038 -0.3929  0.0165  1.1344
13781SOL    HW243597   8.240   2.182   7.999  0.7058 -0.2342  1.2075
13782SOL     OW43598   5.960   1.374   7.497  0.0608 -0.3872  0.5507
13782SOL    HW143599   5.954   1.457   7.544 -1.5133  0.4479 -1.0349
13782SOL    HW243600   5.954   1.307   7.566  1.5595  0.7571  1.8730
13783SOL     OW43601   8.251   0.816   4.029 -0.5946  0.0292  0.1625
13783SOL    HW143602   8.345   0.816   4.011 -0.9206  0.0217 -1.7313
13783SOL    HW243603   8.226   0.908   4.023 -0.6645  0.0702  0.9958
13784SOL     OW43604   8.451   6.272   2.364  0.2866 -0.4376 -0.5947
13784SOL    HW143605   8.445   6.207   2.434  0.8510  1.6417  1.5149
13784SOL    HW243606   8.364   6.271   2.322 -0.9777 -0.0238  1.8270
13785SOL     OW43607   2.691   4.601   9.590  0.3317  0.1832 -0.1804
13785SOL    HW143608   2.696   4.505   9.588 -0.5838  0.1172  0.2538
13785SOL    HW243609   2.735   4.628   9.509  0.0422 -0.6308 -0.6315
13786SOL     OW43610   5.431   1.335   6.580  0.7759 -0.3379 -0.3581
13786SOL    HW143611   5.398   1.381   6.657  1.5425  0.3275 -0.4103
13786SOL    HW243612   5.443   1.245   6.609 -1.8711 -0.8314 -0.5816
13787SOL     OW43613   2.319  10.431   5.227 -0.1099  0.9777 -0.0569
13787SOL    HW143614   2.225  10.442   5.243 -0.6713  0.6300 -2.6602
13787SOL    HW243615   2.335  10.337   5.241 -0.0912  1.0702  0.5712
13788SOL     OW43616   7.273   7.565   4.370 -0.1078 -0.0571 -0.2118
13788SOL    HW143617   7.301   7.589   4.458 -0.6268  1.1794 -0.3592
13788SOL    HW243618   7.185   7.530   4.381  0.3074 -1.0953 -0.1038
13789SOL     OW43619   7.096  10.257   1.780  0.4398 -0.3363 -0.1243
13789SOL    HW143620   7.190  10.256   1.799  0.4301 -2.5687  0.0104
13789SOL    HW243621   7.077  10.169   1.747 -1.8909 -0.4388  1.3125
13790SOL     OW43622   6.164   6.085   4.819 -0.0322 -0.2219  0.2252
13790SOL    HW143623   6.173   6.058   4.910  1.4785  0.8733  0.4392
13790SOL    HW243624   6.242   6.051   4.775  0.1082  0.6907 -0.2643
13791SOL     OW43625   0.935   9.290   5.247  0.2806  0.0209 -0.1284
13791SOL    HW143626   0.847   9.291   5.284 -0.3455 -0.3078 -1.5440
13791SOL    HW243627   0.924   9.324   5.159  1.3418 -1.3299 -0.8203
13792SOL     OW43628   0.755   5.470   8.064 -0.3542 -0.1840  0.0922
13792SOL    HW143629   0.669   5.428   8.074  0.4113 -1.8498 -0.0684
13792SOL    HW243630   0.804   5.412   8.006  1.4855 -0.2210  1.5761
13793SOL     OW43631   2.319   0.904   7.873  0.1504  0.6793 -0.3365
13793SOL    HW143632   2.293   0.975   7.932 -1.9299  0.6889 -1.1698
13793SOL    HW243633   2.245   0.844   7.873  1.2111 -0.6665 -0.9014
13794SOL     OW43634   4.404   9.020   5.906 -0.2047  0.1919 -0.3584
13794SOL    HW143635   4.334   8.977   5.857  0.1299 -3.4311  1.9298
13794SOL    HW243636   4.362   9.048   5.987  0.4244  0.5173 -0.1404
13795SOL     OW43637   2.483   2.724   7.580 -0.3179 -0.0593  0.2344
13795SOL    HW143638   2.464   2.811   7.545  1.1067  1.1399  2.1861
13795SOL    HW243639   2.540   2.684   7.514  0.9720  1.4768  0.3305
13796SOL     OW43640   1.208   2.826   8.125 -0.1040 -0.1367 -0.3920
13796SOL    HW143641   1.182   2.852   8.036 -2.3723 -1.9716 -0.3617
13796SOL    HW243642   1.283   2.768   8.112  2.7396  3.2461 -0.6706
13797SOL     OW43643   1.992   4.353   2.746  0.3560  0.5924  0.1920
13797SOL    HW143644   1.958   4.340   2.657 -1.2714 -0.3626  0.9140
13797SOL    HW243645   1.935   4.420   2.783  1.4058  1.4270  0.3580
13798SOL     OW43646   1.766   2.185   2.469  0.1861 -0.0524 -0.1474
13798SOL    HW143647   1.780   2.092   2.487  0.7669  0.1690  0.5939
13798SOL    HW243648   1.753   2.189   2.374  0.6545 -0.8295 -0.2537
13799SOL     OW43649   0.425   4.329  10.053 -0.0134 -0.0469 -0.5209
13799SOL    HW143650   0.392   4.282   9.977 -0.4358  0.0683 -0.4140
13799SOL    HW243651   0.478   4.400  10.016  0.8389 -0.7550 -0.6735
13800SOL     OW43652   7.889   8.564   2.290  0.1552  0.7113  0.1251
13800SOL    HW143653   7.808   8.513   2.286 -0.3343  1.2225  2.0957
13800SOL    HW243654   7.860   8.652   2.317  1.3455  0.8930  0.9075
13801SOL     OW43655   7.018   9.099   3.640 -0.0740 -0.2628  0.2817
13801SOL    HW143656   7.069   9.020   3.621 -0.1608 -0.4216  0.6956
13801SOL    HW243657   6.949   9.069   3.700 -0.1703  0.1070  0.3560
13802SOL     OW43658   9.094  10.095   1.416 -0.6022 -0.3398  0.3994
13802SOL    HW143659   9.132  10.047   1.489  0.0909  1.3638  1.2315
13802SOL    HW243660   9.151  10.077   1.342 -0.7710 -1.3476  0.5103
13803SOL     OW43661  10.232   4.144   7.939  0.0856  0.2054  0.2225
13803SOL    HW143662  10.316   4.185   7.959  0.3009 -0.5836  0.9719
13803SOL    HW243663  10.166   4.209   7.966  0.4426  0.6427  0.0466
13804SOL     OW43664   9.496   9.149   8.214 -0.1618 -0.2393 -0.6928
13804SOL    HW143665   9.512   9.100   8.294  0.7706 -1.0413 -1.3505
13804SOL    HW243666   9.526   9.091   8.144  0.8577  1.2174 -1.5098
13805SOL     OW43667   1.481   1.557   3.738 -0.0921 -0.1820 -0.1155
13805SOL    HW143668   1.487   1.606   3.656 -2.3870  0.7119  0.1629
13805SOL    HW243669   1.459   1.623   3.804  0.4324 -1.0790  0.9862
13806SOL     OW43670   7.364   9.526   0.229 -0.5318 -0.2818 -0.1532
13806SOL    HW143671   7.375   9.503   0.137  2.0347  0.3195 -0.0767
13806SOL    HW243672   7.347   9.620   0.228 -2.4476 -0.5972 -0.0630
13807SOL     OW43673   5.947   6.564   5.339 -0.2602 -0.1067  0.2537
13807SOL    HW143674   5.939   6.511   5.260 -0.5218  2.2242 -1.3858
13807SOL    HW243675   6.023   6.529   5.384 -0.4337 -1.8426 -0.7240
13808SOL     OW43676   4.021   2.816   9.770 -0.4862  0.0498  0.4164
13808SOL    HW143677   4.025   2.894   9.824 -1.6605  1.8396 -1.9042
13808SOL    HW243678   4.029   2.848   9.680 -1.3440 -2.4515 -0.6540
13809SOL     OW43679   2.563   8.804   3.419  0.4099  0.0357  0.2106
13809SOL    HW143680   2.520   8.724   3.389 -0.6895 -0.1294  2.0538
13809SOL    HW243681   2.657   8.785   3.412  0.1747 -1.3551  0.4470
13810SOL     OW43682   8.968   4.849   8.074 -0.0867 -0.2262 -0.9412
13810SOL    HW143683   8.951   4.769   8.024  1.2497  0.3788 -2.4491
13810SOL    HW243684   8.886   4.898   8.070 -0.7315 -1.2524 -0.4969
13811SOL     OW43685   7.089   2.654   6.310  0.0831  0.4239 -0.1665
13811SOL    HW143686   7.020   2.720   6.322 -0.1466  0.3376 -0.9906
13811SOL    HW243687   7.170   2.705   6.305 -0.0967  0.6584 -0.8331
13812SOL     OW43688   6.161  10.072   9.765  0.2794  0.7793 -0.6515
13812SOL    HW143689   6.105  10.039   9.696  0.9437  0.1011 -0.8840
13812SOL    HW243690   6.220   9.999   9.786  1.3451  1.5807 -0.7153
13813SOL     OW43691   0.221   3.793   3.710 -0.2160  0.1952  0.0166
13813SOL    HW143692   0.280   3.727   3.745 -1.4825 -1.1041 -0.2235
13813SOL    HW243693   0.277   3.868   3.692  1.0314 -0.2869  1.6172
13814SOL     OW43694  10.474   6.274   1.189 -0.3014 -0.4449  0.5734
13814SOL    HW143695  10.446   6.357   1.230 -0.9715  0.1593 -1.0292
13814SOL    HW243696  10.516   6.300   1.108 -1.4610 -1.7040 -0.4866
13815SOL     OW43697   6.089   4.823   5.201  0.6239  0.1171 -0.1455
13815SOL    HW143698   6.079   4.901   5.256  0.1074 -0.1434  0.1367
13815SOL    HW243699   6.000   4.790   5.190  0.9729 -1.4855  1.2905
13816SOL     OW43700   3.199   3.008   2.769  0.0052 -0.0764 -0.3171
13816SOL    HW143701   3.212   3.032   2.677  1.3754 -2.9919 -1.0130
13816SOL    HW243702   3.282   3.029   2.812 -0.2870  0.3514  0.0519
13817SOL     OW43703   7.277   7.955   1.101  0.0737  0.0443 -0.4665
13817SOL    HW143704   7.346   7.892   1.082 -0.2590  0.0124 -1.7015
13817SOL    HW243705   7.225   7.914   1.169  0.4897 -0.5318 -0.4852
13818SOL     OW43706   9.963   0.682   9.922  0.1463 -0.4065 -0.0133
13818SOL    HW143707   9.886   0.639   9.885 -0.9132  1.2292  0.1821
13818SOL    HW243708   9.952   0.675  10.017 -1.5580  2.6072  0.1478
13819SOL     OW43709   3.753   1.114  10.133  0.0740 -0.2325  0.0362
13819SOL    HW143710   3.764   1.138  10.041  1.8144  1.5011  0.6170
13819SOL    HW243711   3.688   1.176  10.166  0.3377 -0.0587  0.2342
13820SOL     OW43712   6.600   8.604   5.863 -0.3825 -0.2023  0.7846
13820SOL    HW143713   6.632   8.544   5.930 -2.6783 -1.2916  1.0183
13820SOL    HW243714   6.559   8.676   5.912 -1.1103 -0.4592  0.5728
13821SOL     OW43715   9.266   8.146   0.410  0.1418 -0.1642 -0.2514
13821SOL    HW143716   9.259   8.069   0.466  0.2509 -0.1697 -0.2455
13821SOL    HW243717   9.358   8.171   0.415 -0.1940  0.9771  1.1120
13822SOL     OW43718   3.952   1.223   2.449 -0.3859 -0.0711  0.0037
13822SOL    HW143719   3.900   1.199   2.525 -0.4427  0.6115  0.1912
13822SOL    HW243720   3.889   1.228   2.377 -0.2708 -1.0873 -0.1721
13823SOL     OW43721   0.222   8.868   3.222  0.1142 -0.3089  0.0930
13823SOL    HW143722   0.133   8.833   3.214 -0.4477  1.1297 -0.2283
13823SOL    HW243723   0.254   8.872   3.132  0.4167 -0.5671  0.1859
13824SOL     OW43724   1.569   3.473   3.894 -0.2752 -0.2102  0.5549
13824SOL    HW143725   1.617   3.472   3.811  0.8707  0.5502  1.1755
13824SOL    HW243726   1.491   3.526   3.876 -0.1813 -0.2902 -0.1151
13825SOL     OW43727   3.742   2.567  10.493  0.0145  0.2480 -0.1243
13825SOL    HW143728   3.694   2.487  10.472  1.8837 -0.9250 -0.1350
13825SOL    HW243729   3.694   2.636  10.448 -1.9978 -0.7523  0.3798
13826SOL     OW43730   0.713   3.677   7.594 -0.3836 -0.0071 -0.9312
13826SOL    HW143731   0.732   3.697   7.686 -0.2666 -1.4278 -0.6198
13826SOL    HW243732   0.679   3.587   7.596 -0.8016  0.1062 -2.2320
13827SOL     OW43733   3.617   9.803   9.359 -0.0363  0.4321 -0.0472
13827SOL    HW143734   3.604   9.737   9.427  1.0304 -1.2544 -1.4143
13827SOL    HW243735   3.683   9.862   9.395  0.6009 -0.5017  0.3326
13828SOL     OW43736   3.117   6.953   8.735 -0.0654 -0.2877 -0.1013
13828SOL    HW143737   3.176   6.965   8.809 -0.9486  1.5546  0.3559
13828SOL    HW243738   3.045   6.901   8.770 -0.2684  0.2045  0.2135
13829SOL     OW43739   7.993   8.802   7.413 -0.1940  0.4964  0.0124
13829SOL    HW143740   8.021   8.726   7.362  1.8718  2.2196 -1.6253
13829SOL    HW243741   8.057   8.808   7.484 -0.8989  0.2123  0.6837
13830SOL     OW43742   4.753   8.698   8.923 -0.3756  0.3630 -0.7430
13830SOL    HW143743   4.715   8.786   8.926 -0.7485  0.1912 -0.2673
13830SOL    HW243744   4.715   8.658   8.845 -0.3040  0.5746 -0.8887
13831SOL     OW43745   5.141   7.493   5.021  0.2837  0.8039 -0.1227
13831SOL    HW143746   5.056   7.452   5.032  1.4758 -1.6250  0.9506
13831SOL    HW243747   5.142   7.526   4.931 -1.2235 -0.4906 -0.6445
13832SOL     OW43748   1.001   1.814   9.431 -0.1215 -0.2530 -0.1497
13832SOL    HW143749   0.986   1.874   9.504  1.9185 -0.1183  0.2046
13832SOL    HW243750   0.942   1.740   9.449 -0.9738  0.5894  0.6374
13833SOL     OW43751   0.802   3.355   1.652 -0.5483 -0.3247 -0.9179
13833SOL    HW143752   0.881   3.302   1.664 -0.3595 -0.0912 -1.1149
13833SOL    HW243753   0.811   3.391   1.564 -0.5684  0.2081 -0.7043
13834SOL     OW43754   7.869   6.305   4.052 -0.2895  0.2514  0.1508
13834SOL    HW143755   7.894   6.369   3.985 -0.8718  1.1436  0.7642
13834SOL    HW243756   7.833   6.231   4.002  1.2835 -0.0366 -0.6144
13835SOL     OW43757   6.902   6.355   9.479  0.1763  0.2824  0.3220
13835SOL    HW143758   6.880   6.307   9.559 -2.0932 -0.5752 -0.7410
13835SOL    HW243759   6.981   6.404   9.502  1.2052 -2.0448  2.2341
13836SOL     OW43760   3.423   4.586   3.882 -0.0981  0.1832 -0.2068
13836SOL    HW143761   3.374   4.505   3.896  0.5034 -0.0614  0.4838
13836SOL    HW243762   3.392   4.645   3.950 -0.3043  0.4388 -0.5153
13837SOL     OW43763   7.446   4.016   9.215  0.1958  0.0102 -0.6373
13837SOL    HW143764   7.431   4.108   9.236  0.0127  0.2823 -1.8702
13837SOL    HW243765   7.487   4.017   9.129  2.4668 -0.9709  0.3611
13838SOL     OW43766   2.162   2.793   0.942  0.3645 -0.7444  0.0176
13838SOL    HW143767   2.134   2.834   1.023 -0.8497 -0.6636 -0.4263
13838SOL    HW243768   2.251   2.826   0.928  0.0893  0.2962  0.6202
13839SOL     OW43769   0.009   2.630   7.468  0.2445  0.9123  0.8828
13839SOL    HW143770   0.096   2.589   7.472 -0.6752 -1.1359  1.4578
13839SOL    HW243771  -0.037   2.581   7.399 -0.1196  2.7726 -0.2837
13840SOL     OW43772   9.462   9.355   1.533 -0.1445  0.3551 -0.3328
13840SOL    HW143773   9.439   9.368   1.441 -0.8183 -1.2099 -0.4236
13840SOL    HW243774   9.552   9.323   1.531  0.2064  1.3029 -0.3547
13841SOL     OW43775   5.331   3.243   7.093  0.6709 -0.1994 -0.6527
13841SOL    HW143776   5.392   3.173   7.116  0.9624  0.0302 -0.7286
13841SOL    HW243777   5.383   3.324   7.099  0.5757 -0.0682 -1.4362
13842SOL     OW43778   8.336   0.160   2.757  0.1559 -0.1632 -0.0695
13842SOL    HW143779   8.304   0.149   2.668  0.3311 -0.0502 -0.1465
13842SOL    HW243780   8.303   0.245   2.784  0.7264  0.1347 -0.2938
13843SOL     OW43781   7.139   2.996   4.279  0.3689  0.6397 -0.0493
13843SOL    HW143782   7.157   3.008   4.373 -0.2903  0.2118  0.1394
13843SOL    HW243783   7.136   2.901   4.267  0.8311  0.6877 -0.5847
13844SOL     OW43784   9.160   9.591   3.333  0.1668  0.3023  0.7558
13844SOL    HW143785   9.213   9.598   3.412  1.2908  1.4283 -0.0656
13844SOL    HW243786   9.213   9.632   3.265 -0.9570 -0.2722 -0.5017
13845SOL     OW43787  10.063   2.428   4.194  0.2110  0.0931  0.1764
13845SOL    HW143788  10.009   2.356   4.161  0.7357 -1.5039  2.5335
13845SOL    HW243789  10.148   2.387   4.213  0.5623  1.3526  1.4792
13846SOL     OW43790   4.623   0.631   5.655  0.2487  0.1370  0.1105
13846SOL    HW143791   4.564   0.564   5.620  1.3913  0.3116 -2.3745
13846SOL    HW243792   4.589   0.713   5.621  0.8257  0.4416  0.2524
13847SOL     OW43793   6.667   2.374   7.997 -0.3732 -0.2932  0.1019
13847SOL    HW143794   6.756   2.350   7.971  0.3564  0.7027  1.5680
13847SOL    HW243795   6.646   2.450   7.944  1.1706  1.8274  2.3123
13848SOL     OW43796  10.194   7.504   8.811 -0.4525 -0.2586 -0.0858
13848SOL    HW143797  10.189   7.577   8.749  1.1121  0.6517  0.7906
13848SOL    HW243798  10.157   7.539   8.892 -1.1901 -0.9918 -0.0932
13849SOL     OW43799   0.125   3.717   4.202 -0.3912  0.0578 -0.2857
13849SOL    HW143800   0.208   3.673   4.186  0.0883  0.4970  0.9165
13849SOL    HW243801   0.073   3.655   4.252  0.0783  0.6241  0.9309
13850SOL     OW43802   1.666   2.985  10.611  0.0577  0.0476  0.4765
13850SOL    HW143803   1.665   2.933  10.530  1.0770  0.9677 -0.1599
13850SOL    HW243804   1.580   2.970  10.651 -1.1022  0.8262 -1.5875
13851SOL     OW43805   5.430   2.667   6.771 -0.3282  0.1363  0.3436
13851SOL    HW143806   5.520   2.638   6.786  0.6451  1.2340 -2.7256
13851SOL    HW243807   5.426   2.754   6.810  0.5591  0.8540 -1.1055
13852SOL     OW43808   2.241   5.936   1.522 -0.3930  0.6299  0.0775
13852SOL    HW143809   2.200   5.953   1.607  0.3396 -1.2031  0.8407
13852SOL    HW243810   2.193   5.861   1.486  1.5193 -0.8705  0.5083
13853SOL     OW43811   6.108   1.899   5.030 -0.6335  0.1591  0.6591
13853SOL    HW143812   6.050   1.941   4.967 -1.2050 -0.3887  0.8081
13853SOL    HW243813   6.194   1.901   4.990 -1.1651 -1.1281 -0.6095
13854SOL     OW43814   9.165   2.736   5.251 -0.2448 -0.4203  0.2552
13854SOL    HW143815   9.173   2.824   5.290 -1.7018  0.5176 -1.4160
13854SOL    HW243816   9.083   2.702   5.285 -1.3440  0.2542 -1.5692
13855SOL     OW43817   1.023   1.241   5.365 -0.1127  0.1069 -0.1172
13855SOL    HW143818   1.017   1.330   5.401  0.1210 -0.0775  0.3776
13855SOL    HW243819   1.099   1.202   5.409  0.0973 -0.1634 -0.7162
13856SOL     OW43820   5.222   9.934   1.692  0.3391  0.5349  0.6775
13856SOL    HW143821   5.181   9.914   1.607 -0.3738  1.5736  0.7594
13856SOL    HW243822   5.150   9.962   1.747  0.7044 -0.7347  1.8490
13857SOL     OW43823   5.056   8.998   3.916  0.1202  0.5599  0.0365
13857SOL    HW143824   5.007   8.930   3.962 -0.6543  0.9968 -0.1229
13857SOL    HW243825   5.142   8.996   3.957 -0.6301  1.1569  1.7733
13858SOL     OW43826   4.431   0.058   0.311  0.3653  0.4567  0.1842
13858SOL    HW143827   4.381   0.006   0.248  0.5671  0.1915  0.2419
13858SOL    HW243828   4.374   0.132   0.331  0.6630  1.0349 -1.0041
13859SOL     OW43829   0.043   9.583   7.104  0.4748 -0.9711 -0.3262
13859SOL    HW143830   0.057   9.652   7.039  0.3530  1.0669  1.6817
13859SOL    HW243831  -0.052   9.576   7.112  0.4905 -0.7405  0.0913
13860SOL     OW43832   4.590   8.800   3.387 -0.4710 -0.0307  0.3675
13860SOL    HW143833   4.637   8.869   3.341 -0.8624 -1.1603 -1.9153
13860SOL    HW243834   4.605   8.817   3.480  2.1642  1.1976 -0.1992
13861SOL     OW43835   7.654   2.977   2.181  0.3712  0.8156  0.5436
13861SOL    HW143836   7.589   3.047   2.194 -0.2198  0.3016  0.4280
13861SOL    HW243837   7.627   2.934   2.100  0.8303  0.5637  0.5225
13862SOL     OW43838   6.113   0.764   6.546  0.3589 -0.0138 -0.1878
13862SOL    HW143839   6.204   0.758   6.574 -0.0302 -1.5902  0.8899
13862SOL    HW243840   6.096   0.858   6.540  1.5615  0.3402  1.3319
13863SOL     OW43841   6.566   6.139   2.095  0.0851  0.0261  0.2565
13863SOL    HW143842   6.599   6.223   2.127  1.1807 -0.0252 -0.6748
13863SOL    HW243843   6.584   6.141   2.001  0.3469 -1.3538  0.2580
13864SOL     OW43844   4.546   3.102  10.610 -0.4268  0.5065 -0.0057
13864SOL    HW143845   4.453   3.125  10.598 -0.2554  0.8295 -0.7714
13864SOL    HW243846   4.575   3.156  10.683 -0.7610  0.6248  0.0414
13865SOL     OW43847   3.817   9.893   7.243  0.2981 -0.3459 -0.9234
13865SOL    HW143848   3.822   9.801   7.270 -1.2003 -0.0379  0.4980
13865SOL    HW243849   3.824   9.889   7.147  1.2540 -1.8417 -0.8284
13866SOL     OW43850   3.015   8.076   0.057 -0.2936  0.0142 -0.5137
13866SOL    HW143851   3.030   8.023  -0.022 -0.9134  0.4716 -0.9512
13866SOL    HW243852   2.958   8.023   0.111 -1.5118  0.5006 -1.2726
13867SOL     OW43853   6.642   5.590   2.551 -0.2395  0.2007 -0.0627
13867SOL    HW143854   6.658   5.589   2.457 -0.7427 -0.2973 -0.1478
13867SOL    HW243855   6.729   5.597   2.590  0.0721 -0.7572 -0.5454
13868SOL     OW43856   2.928   4.727   4.882 -0.8199 -0.2116 -0.1229
13868SOL    HW143857   2.900   4.677   4.805  0.5794 -1.2762  0.0081
13868SOL    HW243858   2.899   4.675   4.956 -0.6046 -0.0997  0.0401
13869SOL     OW43859   9.858   4.853   6.827 -0.3704 -0.2304  0.1157
13869SOL    HW143860   9.764   4.871   6.813 -0.3417 -0.3418 -0.2144
13869SOL    HW243861   9.900   4.883   6.746  0.0637  1.2255  0.8370
13870SOL     OW43862   0.691   5.262   6.393  0.1770  0.0083 -0.8260
13870SOL    HW143863   0.649   5.338   6.353 -0.5532  0.4743  0.7479
13870SOL    HW243864   0.768   5.246   6.339 -0.1120  1.3466 -1.6819
13871SOL     OW43865   2.787   9.292   3.912 -0.1473  0.2555  0.4002
13871SOL    HW143866   2.694   9.270   3.914 -0.0223 -0.5166 -0.9248
13871SOL    HW243867   2.800   9.335   3.827  0.7896 -0.1241  0.3337
13872SOL     OW43868   3.899   3.710   4.010 -0.3186 -0.1939 -0.1143
13872SOL    HW143869   3.852   3.627   3.998 -2.0399  0.1648  3.0672
13872SOL    HW243870   3.991   3.684   4.017 -0.4937 -1.4701 -1.9143
13873SOL     OW43871   0.718   9.568   3.125 -0.1656 -0.6061  0.7373
13873SOL    HW143872   0.718   9.663   3.132  0.3708 -0.6220  1.0007
13873SOL    HW243873   0.658   9.549   3.053  0.5435 -0.0165 -0.0255
13874SOL     OW43874   8.187   2.243   1.044  0.3415 -0.8533 -0.8409
13874SOL    HW143875   8.192   2.148   1.040  1.3588 -1.0476  2.1890
13874SOL    HW243876   8.096   2.262   1.065  0.6288 -1.4365  1.2020
13875SOL     OW43877  10.154   1.449   0.529 -0.1248 -0.1229 -0.8254
13875SOL    HW143878  10.197   1.441   0.444  0.1646  1.7569 -0.8967
13875SOL    HW243879  10.210   1.508   0.579  0.1197 -1.7624  0.9979
13876SOL     OW43880   8.846   0.966   5.173 -0.4419 -0.2882  0.2167
13876SOL    HW143881   8.842   0.871   5.183  0.8354 -0.3570  0.2658
13876SOL    HW243882   8.790   0.985   5.098 -0.9967 -1.0405  0.4392
13877SOL     OW43883   3.056   1.651   8.652  0.5495  0.5881  0.5744
13877SOL    HW143884   3.069   1.675   8.743  2.8831 -0.6277  0.6444
13877SOL    HW243885   3.137   1.677   8.609 -0.3704  0.8224 -1.1073
13878SOL     OW43886   0.152   5.745   9.716  0.1436 -0.2934  0.3337
13878SOL    HW143887   0.119   5.805   9.783  0.5565  0.3979 -0.0709
13878SOL    HW243888   0.164   5.662   9.762  0.2812  0.1346  1.0817
13879SOL     OW43889   7.797   2.749   0.095  0.2749 -0.0604  0.0092
13879SOL    HW143890   7.863   2.785   0.154 -0.6045 -1.5512  2.0074
13879SOL    HW243891   7.715   2.787   0.125 -0.3980 -2.0413  0.8615
13880SOL     OW43892   3.226   3.493   6.142  0.0330 -0.4460 -0.5340
13880SOL    HW143893   3.192   3.466   6.227 -0.8237 -0.0655 -0.7488
13880SOL    HW243894   3.302   3.437   6.128 -1.2420 -2.2387 -0.6247
13881SOL     OW43895   5.431   6.095   5.758  0.0723 -0.0035 -0.1566
13881SOL    HW143896   5.475   6.023   5.803 -1.9982 -2.4416 -1.7420
13881SOL    HW243897   5.467   6.094   5.669  0.0090  0.9086 -0.1980
13882SOL     OW43898   9.131   3.188   1.656  0.1194 -0.4282 -0.3255
13882SOL    HW143899   9.177   3.179   1.740 -0.8852  1.7057  0.5322
13882SOL    HW243900   9.188   3.245   1.604 -0.1810 -0.1228 -0.3272
13883SOL     OW43901   7.844   7.599   5.680 -0.0566  0.3872 -0.1955
13883SOL    HW143902   7.780   7.665   5.707  0.3260  1.6042 -2.0308
13883SOL    HW243903   7.911   7.601   5.748 -0.9411  0.5622  0.7012
13884SOL     OW43904   8.660  10.491   7.105  0.2638  0.1025  0.2346
13884SOL    HW143905   8.730  10.481   7.170 -0.3379 -2.0624  0.6396
13884SOL    HW243906   8.597  10.550   7.146  1.2019  1.0058  0.4186
13885SOL     OW43907   4.339   1.197   4.932 -0.4934  0.0280  0.0357
13885SOL    HW143908   4.321   1.230   5.020  0.4574  0.5845  0.0420
13885SOL    HW243909   4.378   1.111   4.946  0.5895  0.5363  0.2233
13886SOL     OW43910   1.758   3.644   5.307 -0.4412  0.4173 -0.1326
13886SOL    HW143911   1.750   3.736   5.333 -0.5501  0.4255 -0.1940
13886SOL    HW243912   1.753   3.645   5.212  0.2236  0.4128 -0.1718
13887SOL     OW43913   1.490   3.045   8.102 -0.9309 -0.0891 -0.8214
13887SOL    HW143914   1.584   3.050   8.084 -0.6890 -0.4912  0.2673
13887SOL    HW243915   1.470   2.952   8.103 -1.1249 -0.0438 -0.0060
13888SOL     OW43916   8.289   1.853   7.990  0.3983 -0.0017  0.4282
13888SOL    HW143917   8.202   1.825   7.962 -0.0345 -0.7571  2.3804
13888SOL    HW243918   8.280   1.869   8.083  2.6823 -1.5790  1.0029
13889SOL     OW43919   8.348   5.363   5.091 -0.7473 -0.6925  0.3236
13889SOL    HW143920   8.354   5.430   5.159  0.3579 -0.8117  0.3591
13889SOL    HW243921   8.296   5.293   5.131  0.6505 -1.1627  1.4146
13890SOL     OW43922  10.409   5.940   0.128 -0.6631  0.1653  0.0299
13890SOL    HW143923  10.444   6.014   0.179  0.2321  0.2771 -0.7084
13890SOL    HW243924  10.342   5.901   0.184 -1.1412  1.5285  0.4342
13891SOL     OW43925   9.924   9.225  10.551  0.3768  0.4842  0.3040
13891SOL    HW143926   9.969   9.165  10.610 -0.4642  0.4433  0.9194
13891SOL    HW243927   9.841   9.244  10.595  0.3325  1.5453 -0.2182
13892SOL     OW43928   1.483   0.561   4.878 -0.4659 -0.1215  0.3682
13892SOL    HW143929   1.525   0.478   4.856  0.6526  0.4182  0.3684
13892SOL    HW243930   1.421   0.577   4.807 -0.2723 -0.6709  0.0694
13893SOL     OW43931  10.450   6.986   9.227  0.1061 -0.6130 -0.0183
13893SOL    HW143932  10.445   7.075   9.191 -1.0724 -0.0517  1.4099
13893SOL    HW243933  10.542   6.963   9.221  0.5421  0.9760  0.1831
13894SOL     OW43934   9.395   1.554   1.328  0.1933 -0.0087 -0.5958
13894SOL    HW143935   9.471   1.605   1.353  0.0584 -0.1055  0.0440
13894SOL    HW243936   9.320   1.605   1.359 -0.0118  0.1794 -1.3911
13895SOL     OW43937   9.698   7.976   7.727 -0.3062 -0.7801  0.0524
13895SOL    HW143938   9.717   7.902   7.785  1.8635  0.6658  1.3685
13895SOL    HW243939   9.603   7.975   7.718 -0.6569 -1.8484  2.6739
13896SOL     OW43940   7.341   9.588   7.579 -0.3661 -0.4082  0.2473
13896SOL    HW143941   7.318   9.569   7.488 -0.4481 -1.3960  0.4640
13896SOL    HW243942   7.289   9.526   7.630  0.1517 -0.2856  0.9318
13897SOL     OW43943   3.677   6.012   8.738  0.4268  0.1947 -0.2651
13897SOL    HW143944   3.665   5.960   8.659  0.1239 -1.0719  0.5860
13897SOL    HW243945   3.593   6.055   8.752  0.3606  0.1133 -0.4146
13898SOL     OW43946   8.063  10.353   2.360 -0.2571  0.1641 -0.0744
13898SOL    HW143947   8.029  10.432   2.403 -2.2015 -0.4163 -0.4500
13898SOL    HW243948   8.024  10.354   2.273  0.3479 -0.7985 -0.3746
13899SOL     OW43949   5.893   0.586   6.899 -0.0567  0.2569 -0.5052
13899SOL    HW143950   5.939   0.565   6.818 -1.3329  1.4275 -1.5928
13899SOL    HW243951   5.944   0.542   6.968  2.0414  0.6128 -1.7310
13900SOL     OW43952   4.017   1.240   7.432 -0.1392  0.0720  0.2318
13900SOL    HW143953   4.083   1.293   7.387  0.6156  0.8259  2.1135
13900SOL    HW243954   4.047   1.150   7.422 -0.0623  0.2034 -0.8502
13901SOL     OW43955   3.384   2.225   3.655  0.1208 -0.2350 -0.7700
13901SOL    HW143956   3.308   2.266   3.699  0.6611  1.1980 -1.1021
13901SOL    HW243957   3.435   2.299   3.623  1.3659 -1.1970 -1.0773
13902SOL     OW43958   9.203   4.572  10.078 -0.9545 -0.0262  0.4121
13902SOL    HW143959   9.109   4.567  10.094 -0.9723 -1.5075 -0.0123
13902SOL    HW243960   9.212   4.630  10.002 -1.5746 -0.3629  0.0779
13903SOL     OW43961   2.186   7.371   8.171  0.3797 -0.1396 -0.2201
13903SOL    HW143962   2.223   7.361   8.259  0.5434  1.3187 -0.0873
13903SOL    HW243963   2.258   7.351   8.112  0.3500 -0.8400 -0.0275
13904SOL     OW43964   1.079   7.398   4.623  0.3398  0.3671 -0.1741
13904SOL    HW143965   1.032   7.466   4.672  1.5134 -0.0194  1.5877
13904SOL    HW243966   1.077   7.429   4.532 -1.4499  1.3955  0.1571
13905SOL     OW43967   2.552   5.409   6.618  0.3851  0.1976  0.5082
13905SOL    HW143968   2.512   5.353   6.685 -0.7939 -1.8493 -1.7357
13905SOL    HW243969   2.646   5.404   6.635  0.1851 -1.2203  1.3643
13906SOL     OW43970   8.404   6.340   3.159 -0.0602 -0.6788  0.0268
13906SOL    HW143971   8.463   6.266   3.143 -0.0363 -0.8569  0.8851
13906SOL    HW243972   8.451   6.416   3.126  1.2409 -0.6273  1.8292
13907SOL     OW43973   6.902   3.170   0.989  0.6446 -0.1043  0.4417
13907SOL    HW143974   6.981   3.209   0.951 -0.3395  1.2653 -0.2901
13907SOL    HW243975   6.856   3.244   1.029 -1.4265 -0.4276 -1.2055
13908SOL     OW43976   5.336   6.374   3.740 -0.5532  0.5837 -0.2616
13908SOL    HW143977   5.320   6.415   3.825  2.5698 -0.7883  1.1346
13908SOL    HW243978   5.345   6.447   3.679  2.2331  2.0089  1.6418
13909SOL     OW43979   0.844   3.091   3.716  0.0532  0.2913 -0.1548
13909SOL    HW143980   0.799   3.142   3.784  1.0072  0.1502  0.6078
13909SOL    HW243981   0.935   3.088   3.745  0.6605  0.9384 -1.8814
13910SOL     OW43982   7.297   3.983   0.719 -0.5666  0.6585 -0.1681
13910SOL    HW143983   7.234   4.053   0.703  0.4642  1.5477 -0.3933
13910SOL    HW243984   7.379   4.028   0.739 -0.1084 -0.4775  0.6164
13911SOL     OW43985   5.835   1.113  10.333 -0.2171  0.2730 -0.6242
13911SOL    HW143986   5.838   1.048  10.404  0.9801  1.1254  0.1448
13911SOL    HW243987   5.810   1.194  10.376  2.7071  1.3259 -0.6800
13912SOL     OW43988   8.354   3.172   5.074 -0.2005 -0.3122  0.2981
13912SOL    HW143989   8.413   3.143   5.143 -0.5144 -0.3214  0.5662
13912SOL    HW243990   8.305   3.094   5.050  0.0139 -0.3423 -0.0414
13913SOL     OW43991   5.134   2.312   0.017  0.5020  0.0356 -0.4819
13913SOL    HW143992   5.074   2.250  -0.025  0.3474  0.0270 -0.2506
13913SOL    HW243993   5.197   2.256   0.063  0.3583  0.0487 -0.2673
13914SOL     OW43994   7.743   9.412   4.617 -0.2441  0.5540 -0.1558
13914SOL    HW143995   7.679   9.396   4.687 -0.5282 -0.1095 -0.5550
13914SOL    HW243996   7.691   9.452   4.547  0.1447  1.7459  0.1999
13915SOL     OW43997   5.597   3.115   4.351  0.7892  0.1148  0.4251
13915SOL    HW143998   5.579   3.040   4.294  0.5065  0.4582  0.0575
13915SOL    HW243999   5.691   3.111   4.366  0.8439 -0.0619  0.0453
13916SOL     OW44000   4.789   1.073   0.457 -0.2396 -0.0567  0.6119
13916SOL    HW144001   4.716   1.022   0.493  0.3360 -0.5493  1.0988
13916SOL    HW244002   4.843   1.010   0.410 -0.8902  0.5565 -1.0168
13917SOL     OW44003   2.684   1.324  10.414  0.1040  0.6983  0.8362
13917SOL    HW144004   2.626   1.331  10.338  2.5091 -0.4717 -1.2766
13917SOL    HW244005   2.632   1.356  10.487 -2.7846  0.7364 -1.0658
13918SOL     OW44006   1.311   0.758  10.303  0.4419  0.4545  0.4558
13918SOL    HW144007   1.319   0.666  10.278  3.0869  0.4467  1.0058
13918SOL    HW244008   1.360   0.765  10.385  1.7892  2.6327 -0.4403
13919SOL     OW44009   7.818   7.739   5.439  0.1705  0.3820  0.5373
13919SOL    HW144010   7.851   7.700   5.520 -3.2474 -0.8994  1.4824
13919SOL    HW244011   7.806   7.666   5.380 -1.5361  0.6621  0.5027
13920SOL     OW44012   4.648   1.965   5.720  0.8836  0.7720 -0.2648
13920SOL    HW144013   4.616   2.045   5.678 -0.7452  0.0392 -0.4940
13920SOL    HW244014   4.576   1.903   5.712  1.7952 -0.4639  0.6633
13921SOL     OW44015   3.249   7.422   0.949  0.2793  0.1680 -0.4967
13921SOL    HW144016   3.258   7.328   0.964  0.5697  0.0972 -1.0862
13921SOL    HW244017   3.339   7.455   0.947  0.2086  0.3518 -0.9198
13922SOL     OW44018   6.327   4.936   1.543 -0.0449  0.3445 -0.2679
13922SOL    HW144019   6.287   4.857   1.507 -1.0652  1.2759 -1.2690
13922SOL    HW244020   6.294   5.007   1.487  2.1902  1.2953 -0.4599
13923SOL     OW44021   7.316   3.621   2.105 -0.3610  0.1233 -1.0381
13923SOL    HW144022   7.233   3.600   2.148 -0.0664  1.1713  0.1004
13923SOL    HW244023   7.354   3.537   2.082 -1.1060 -0.4118 -0.3476
13924SOL     OW44024   2.791   3.504   0.808  0.7195 -0.5842  0.1560
13924SOL    HW144025   2.822   3.489   0.719  0.5762  0.2666 -0.0515
13924SOL    HW244026   2.850   3.572   0.842  0.9304 -1.0761  0.8015
13925SOL     OW44027   0.148   6.448   8.473 -0.1381 -0.6732 -0.3604
13925SOL    HW144028   0.093   6.372   8.455  1.3230 -1.6803 -0.8017
13925SOL    HW244029   0.152   6.495   8.390  0.0826 -0.9007 -0.4824
13926SOL     OW44030   4.903   3.079   5.880  0.0036 -0.1724 -0.3026
13926SOL    HW144031   4.836   3.017   5.908  0.6637 -0.4573  0.6801
13926SOL    HW244032   4.951   3.033   5.811 -0.4902 -0.1509 -0.6677
13927SOL     OW44033   3.182   9.945   8.885  0.0853  0.2296 -0.9286
13927SOL    HW144034   3.159   9.861   8.926  0.7904  0.3608 -0.2353
13927SOL    HW244035   3.138  10.011   8.939 -0.0099  0.3391 -1.1396
13928SOL     OW44036   4.887   2.399   0.240  0.1290  0.2025 -0.1607
13928SOL    HW144037   4.886   2.306   0.264 -1.2114  0.1419 -0.3724
13928SOL    HW244038   4.939   2.403   0.160 -0.3104 -0.4574 -0.4821
13929SOL     OW44039   0.060   3.699   2.450  0.2948 -0.5528  0.1954
13929SOL    HW144040   0.066   3.649   2.369  0.4969  0.5512 -0.4914
13929SOL    HW244041  -0.008   3.654   2.500 -0.6686 -0.5931 -1.0784
13930SOL     OW44042   3.457   1.539   8.403 -0.0478  0.2682 -0.0641
13930SOL    HW144043   3.443   1.529   8.497  1.2541  0.9789  0.2223
13930SOL    HW244044   3.393   1.479   8.363 -0.3100 -0.3803  1.2691
13931SOL     OW44045   5.145   1.135   6.897 -0.4936  0.9064  0.0512
13931SOL    HW144046   5.174   1.051   6.931  0.5681  1.0811 -0.3919
13931SOL    HW244047   5.216   1.196   6.919  0.0402  1.1059 -2.0486
13932SOL     OW44048   3.926   2.536   6.095  1.0074 -0.0130  0.6440
13932SOL    HW144049   3.951   2.611   6.148  1.3247  0.2957  0.0738
13932SOL    HW244050   3.830   2.541   6.088  0.8251 -0.7309  2.1513
13933SOL     OW44051   4.250  10.283   2.432  0.4519  0.0011 -0.1550
13933SOL    HW144052   4.288  10.266   2.518 -0.4763  1.5195  0.5965
13933SOL    HW244053   4.319  10.328   2.384  0.6116  0.0867  0.1534
13934SOL     OW44054   7.964   6.526   5.942 -0.1174  0.3739 -0.1422
13934SOL    HW144055   7.894   6.587   5.967  0.8160  1.2135  0.5191
13934SOL    HW244056   8.044   6.576   5.955  0.5639 -0.0283 -2.3715
13935SOL     OW44057   1.172   8.411   8.197  0.1839  0.4397 -0.7863
13935SOL    HW144058   1.173   8.443   8.106  0.9806 -0.2261 -1.0214
13935SOL    HW244059   1.261   8.426   8.228  0.3669 -0.8264 -0.6571
13936SOL     OW44060   3.611   0.559   3.067 -0.1845 -0.3336 -0.0573
13936SOL    HW144061   3.565   0.625   3.118  1.1847  0.0299  0.7691
13936SOL    HW244062   3.551   0.485   3.062 -2.1173  1.2579 -1.7570
13937SOL     OW44063   7.540  10.417   5.229 -0.1389  0.4741  0.2301
13937SOL    HW144064   7.483  10.403   5.153  1.3972  0.0677 -0.8978
13937SOL    HW244065   7.551  10.330   5.267  1.6339  0.0825 -1.0283
13938SOL     OW44066   6.686   5.447   1.304  0.3592 -0.1029  0.6899
13938SOL    HW144067   6.667   5.534   1.268  0.9695 -0.3870 -0.3626
13938SOL    HW244068   6.780   5.435   1.289 -0.3816 -2.7408 -3.4730
13939SOL     OW44069   9.160   2.611   8.537  0.0624 -0.1732 -0.1992
13939SOL    HW144070   9.131   2.531   8.581  0.4058 -2.1236 -3.2249
13939SOL    HW244071   9.081   2.647   8.498  0.0167  0.7021  0.6440
13940SOL     OW44072   9.282   9.841   8.496 -0.5863  0.2759  0.0568
13940SOL    HW144073   9.322   9.766   8.453 -0.8469  0.6448 -0.8363
13940SOL    HW244074   9.192   9.841   8.465 -0.2489  1.7268 -0.9869
13941SOL     OW44075   9.142   4.576   9.523  0.7168 -0.4541  0.3067
13941SOL    HW144076   9.150   4.636   9.597  0.9095  0.7278 -0.6340
13941SOL    HW244077   9.049   4.559   9.515  0.5887  0.2938  0.1571
13942SOL     OW44078   2.650   6.905   6.206  0.1829 -0.0496 -0.3925
13942SOL    HW144079   2.651   6.810   6.191 -1.1702  0.0205 -1.0442
13942SOL    HW244080   2.616   6.914   6.295  0.7754 -0.1777 -0.1445
13943SOL     OW44081   1.593   4.616   2.463 -0.4519  0.6602  0.4390
13943SOL    HW144082   1.612   4.524   2.444 -0.7728 -0.0371  3.0988
13943SOL    HW244083   1.629   4.630   2.551 -3.6528  1.9690  1.6861
13944SOL     OW44084   4.195   1.399   8.230 -0.2411 -0.1979 -0.3181
13944SOL    HW144085   4.120   1.388   8.289  0.0401  1.4503  0.3785
13944SOL    HW244086   4.156   1.405   8.143 -0.8329 -0.3445 -0.0689
13945SOL     OW44087   3.370   1.152   1.182  0.0623  0.0547 -0.3447
13945SOL    HW144088   3.310   1.114   1.117  0.4502 -1.8350  0.3439
13945SOL    HW244089   3.439   1.086   1.191  1.2138  1.3231  0.3228
13946SOL     OW44090   1.911   4.666   0.384 -0.4981  0.3373 -0.0275
13946SOL    HW144091   1.879   4.675   0.294  2.3262  0.4849 -1.1233
13946SOL    HW244092   1.957   4.582   0.386 -1.4587 -0.1992  1.6411
13947SOL     OW44093   2.564   8.845   5.457  0.2253 -0.1413 -0.4282
13947SOL    HW144094   2.512   8.764   5.454  0.8565 -0.6592  1.2044
13947SOL    HW244095   2.631   8.833   5.390 -0.7063 -0.2130 -1.3658
13948SOL     OW44096   0.949   8.145   5.405 -0.2166 -0.5117 -0.0018
13948SOL    HW144097   1.005   8.166   5.480  0.1172  0.1375 -0.4308
13948SOL    HW244098   0.888   8.080   5.440 -1.0347  0.8671  1.2747
13949SOL     OW44099   6.040  10.129   4.887 -0.4754  0.3623  0.2098
13949SOL    HW144100   5.993  10.048   4.906 -0.8038  0.5452  0.1725
13949SOL    HW244101   6.126  10.116   4.928 -0.3790 -0.1680 -0.1449
13950SOL     OW44102   6.972   9.660   7.164 -0.0976 -0.1202 -0.6999
13950SOL    HW144103   7.002   9.712   7.238  0.5297 -1.8047  0.2586
13950SOL    HW244104   6.893   9.617   7.195  0.7262 -1.6371 -0.6167
13951SOL     OW44105   4.156   9.906   9.305 -0.2023 -0.0654 -0.3385
13951SOL    HW144106   4.218   9.916   9.233 -0.0504  0.4407 -0.1442
13951SOL    HW244107   4.081   9.960   9.279  0.8116  2.1005  0.9352
13952SOL     OW44108   8.434   6.595   2.763  0.6207 -0.2632 -0.0860
13952SOL    HW144109   8.381   6.598   2.842  1.7314 -0.2863  0.6908
13952SOL    HW244110   8.410   6.673   2.714  0.7782  0.4020  0.8688
13953SOL     OW44111   6.707   3.836   7.139 -0.5205  0.7263 -0.1645
13953SOL    HW144112   6.667   3.922   7.154  0.0289  1.3906 -2.2520
13953SOL    HW244113   6.633   3.779   7.117 -0.7555  0.9627  0.0034
13954SOL     OW44114   4.272  10.525   1.349 -0.1988 -0.2876  0.2383
13954SOL    HW144115   4.217  10.546   1.274  2.0672  3.4948 -0.6144
13954SOL    HW244116   4.218  10.546   1.425 -0.6885  1.4023 -0.5284
13955SOL     OW44117   0.217   2.015   5.814  0.1540 -0.1048  0.5584
13955SOL    HW144118   0.211   2.000   5.720  1.0230 -0.8262  0.6043
13955SOL    HW244119   0.292   1.963   5.842  0.8374  1.2549  1.4052
13956SOL     OW44120   5.290  10.060   0.345 -0.2947  0.7285 -0.0093
13956SOL    HW144121   5.249  10.033   0.427 -0.9462 -0.6458 -0.7394
13956SOL    HW244122   5.238  10.135   0.316 -0.9458  0.3638  0.1708
13957SOL     OW44123   3.209   8.907   2.116  0.4717  0.2563  0.4648
13957SOL    HW144124   3.259   8.839   2.162 -0.5421 -0.7069  0.1641
13957SOL    HW244125   3.130   8.863   2.086  0.2509  1.3337 -0.5966
13958SOL     OW44126  10.223  10.168   2.500  0.7114  0.2406  0.0585
13958SOL    HW144127  10.254  10.084   2.465 -0.6623 -0.2539 -0.0220
13958SOL    HW244128  10.159  10.199   2.436  2.2809  2.1388 -0.6954
13959SOL     OW44129   1.437   7.342   5.832 -0.3284  0.0866  0.2152
13959SOL    HW144130   1.460   7.267   5.887 -0.9705  0.1227  0.5362
13959SOL    HW244131   1.497   7.411   5.862 -0.9678  0.2417  1.2020
13960SOL     OW44132  10.577   3.198   0.515  0.7024  0.5941 -0.8930
13960SOL    HW144133  10.545   3.269   0.459  0.9007 -0.1344 -1.9677
13960SOL    HW244134  10.606   3.131   0.453  0.5890 -0.3929  0.1086
13961SOL     OW44135   9.929  10.526   2.996 -0.1544 -0.4633 -0.1476
13961SOL    HW144136   9.945  10.519   2.902  0.1415  2.7093 -0.4436
13961SOL    HW244137  10.016  10.523   3.036 -0.2388 -1.2576 -0.0185
13962SOL     OW44138   5.038   1.240   3.071  0.0415 -0.5070 -0.3381
13962SOL    HW144139   5.003   1.309   3.128 -0.3934 -1.3732  0.4726
13962SOL    HW244140   5.129   1.265   3.057  0.5828 -0.9832  1.9319
13963SOL     OW44141   7.382   7.342   4.631  0.8797  0.2730 -0.4962
13963SOL    HW144142   7.476   7.357   4.617  0.9607  0.5307  0.2797
13963SOL    HW244143   7.362   7.265   4.578  1.3711  0.6470 -1.2437
13964SOL     OW44144   3.151   9.732   0.633  0.3298  0.3234 -0.3982
13964SOL    HW144145   3.214   9.717   0.562  1.7613  1.8105  0.4878
13964SOL    HW244146   3.203   9.725   0.713 -0.0068  3.8786  0.2941
13965SOL     OW44147   9.515   1.589   6.457  0.0749  0.0533  0.1869
13965SOL    HW144148   9.482   1.673   6.489 -0.3060 -0.2848  0.7001
13965SOL    HW244149   9.604   1.608   6.428 -0.9630  1.2965 -2.5260
13966SOL     OW44150   4.801   6.435   2.016  0.3124 -0.3913 -0.5808
13966SOL    HW144151   4.747   6.356   2.010  0.2833 -0.4637  0.3935
13966SOL    HW244152   4.751   6.494   2.072  0.4963  0.1796 -1.0215
13967SOL     OW44153   6.295   2.045   2.500  0.0963  0.1317  0.0134
13967SOL    HW144154   6.201   2.064   2.501  0.0171 -0.1419  1.7975
13967SOL    HW244155   6.301   1.954   2.471 -0.2582 -0.0904  0.6144
13968SOL     OW44156   6.429   0.337   2.552 -0.1818  0.2010 -0.8395
13968SOL    HW144157   6.419   0.293   2.636 -1.6081  1.7723 -0.1095
13968SOL    HW244158   6.519   0.320   2.526 -0.0049 -1.1367  0.5167
13969SOL     OW44159   8.011   6.492   8.034  0.4219 -0.3730  0.5516
13969SOL    HW144160   7.925   6.530   8.054  0.3916 -0.3328  0.3411
13969SOL    HW244161   8.073   6.549   8.078  0.2290 -1.7048  2.7347
13970SOL     OW44162   1.389   5.129   8.075 -0.6915  0.1894 -0.1406
13970SOL    HW144163   1.317   5.152   8.133 -0.2947  2.0208 -0.3065
13970SOL    HW244164   1.427   5.213   8.049  1.9407 -0.7003  0.5095
13971SOL     OW44165   7.875   5.691   5.518 -1.0642  0.0229  0.0336
13971SOL    HW144166   7.823   5.611   5.529  0.0105 -0.5201  1.4091
13971SOL    HW244167   7.866   5.737   5.602 -0.1277  0.3990 -0.0596
13972SOL     OW44168   9.577   4.655   3.286  0.1842  0.1549 -0.2046
13972SOL    HW144169   9.595   4.569   3.324 -0.7734 -0.2207 -0.5701
13972SOL    HW244170   9.482   4.663   3.290  0.0402  0.1029 -2.4649
13973SOL     OW44171  10.258   7.399   6.141  0.3746  0.2211  0.1761
13973SOL    HW144172  10.273   7.304   6.145  0.0636  0.1855  0.6662
13973SOL    HW244173  10.221   7.414   6.055 -0.2035 -0.1980  0.3469
13974SOL     OW44174   3.017  10.411   4.196 -0.6418 -0.0289  0.1496
13974SOL    HW144175   3.065  10.386   4.118 -3.3983 -0.5487 -1.5112
13974SOL    HW244176   3.084  10.420   4.264  1.8018  0.0331 -2.1295
13975SOL     OW44177   0.354  10.162   7.550 -0.3853  0.7208 -0.2684
13975SOL    HW144178   0.285  10.157   7.485 -0.0614  1.1660 -0.6563
13975SOL    HW244179   0.311  10.141   7.633 -0.5027 -1.2788 -0.8026
13976SOL     OW44180   1.024   8.762   0.162 -0.2129  0.0491  0.5546
13976SOL    HW144181   0.970   8.736   0.087 -0.3331 -2.5257  1.4585
13976SOL    HW244182   0.980   8.841   0.195  0.5605  2.0576 -2.7241
13977SOL     OW44183  10.264   9.434   2.635  0.1876 -0.7013  0.1730
13977SOL    HW144184  10.252   9.442   2.730  0.5683  1.0557  0.0927
13977SOL    HW244185  10.284   9.341   2.622 -1.9885 -1.4555  1.5586
13978SOL     OW44186   9.274   4.121   5.969 -0.0822 -0.2079 -0.3688
13978SOL    HW144187   9.178   4.120   5.964 -0.1166 -0.4764  0.2437
13978SOL    HW244188   9.303   4.077   5.888 -0.4289  1.3602 -1.3879
13979SOL     OW44189   3.982   9.669   1.994 -0.3326  0.8581  0.2810
13979SOL    HW144190   3.998   9.704   1.906  2.3002 -0.7890 -0.0188
13979SOL    HW244191   4.033   9.726   2.051  0.8530 -0.1301  0.2521
13980SOL     OW44192   3.483   4.871   5.710 -0.0913  0.4975 -0.0208
13980SOL    HW144193   3.566   4.918   5.717  0.7383 -0.7784 -0.9263
13980SOL    HW244194   3.441   4.883   5.796  1.6581  0.0303  0.9475
13981SOL     OW44195   9.745   1.624   4.325  0.5253  0.3386  0.1938
13981SOL    HW144196   9.801   1.659   4.255 -0.0228  0.2672 -0.2879
13981SOL    HW244197   9.766   1.677   4.401  0.4073  1.0854 -0.2814
13982SOL     OW44198   0.502   5.415   1.897  0.5657 -0.3174  0.3438
13982SOL    HW144199   0.490   5.443   1.988  0.8249 -2.6638  1.1565
13982SOL    HW244200   0.512   5.320   1.902  1.9692 -0.3692 -2.0046
13983SOL     OW44201   1.835   2.698   7.746 -0.2211  0.5472  0.0632
13983SOL    HW144202   1.906   2.665   7.691 -1.2971  1.1652 -1.8286
13983SOL    HW244203   1.794   2.619   7.781  1.1532  0.1759  0.9012
13984SOL     OW44204   6.510   7.277   1.968  0.1169 -0.2971  0.5377
13984SOL    HW144205   6.568   7.253   2.040  0.8298 -0.4361 -0.0637
13984SOL    HW244206   6.533   7.216   1.898  1.6882  1.7637 -0.8844
13985SOL     OW44207   3.293   4.169   3.234 -0.2435  0.0128  0.0733
13985SOL    HW144208   3.320   4.233   3.168 -0.4345  1.1454  1.0768
13985SOL    HW244209   3.247   4.102   3.183 -1.7013  1.5896 -0.8215
13986SOL     OW44210   1.885  10.492   1.527 -0.3378  0.0102 -0.2025
13986SOL    HW144211   1.888  10.554   1.599  3.8925 -1.3344  1.0815
13986SOL    HW244212   1.937  10.532   1.457  1.3921 -1.3859  0.1859
13987SOL     OW44213   4.623   8.743   0.814 -0.2936 -0.7415  0.1686
13987SOL    HW144214   4.622   8.692   0.734 -0.7033 -1.5872  0.7036
13987SOL    HW244215   4.586   8.828   0.789 -0.2500 -0.9354 -0.5672
13988SOL     OW44216   2.755   9.351   3.650 -0.2614 -0.5908  0.0310
13988SOL    HW144217   2.738   9.441   3.677 -1.1257 -0.7869  0.1769
13988SOL    HW244218   2.730   9.349   3.557 -0.1124 -0.6455 -0.0078
13989SOL     OW44219   2.932   8.992   0.708  0.6167  0.1887 -0.2650
13989SOL    HW144220   2.841   8.979   0.682  0.6933  0.3173 -0.6099
13989SOL    HW244221   2.932   9.075   0.756  0.1850 -0.8729  1.6518
13990SOL     OW44222   4.557   4.445   9.579 -0.6271  0.0641 -0.4014
13990SOL    HW144223   4.615   4.493   9.637 -1.1294 -0.4441  0.5344
13990SOL    HW244224   4.528   4.511   9.515 -0.2221  0.6722  0.0277
13991SOL     OW44225   5.597  10.391   2.051 -0.1985 -0.3196 -0.1801
13991SOL    HW144226   5.578  10.308   2.008  0.3154 -0.7130  0.3308
13991SOL    HW244227   5.677  10.422   2.009  0.6279 -0.9886  0.8574
13992SOL     OW44228   6.454   9.149   6.976 -0.4023 -0.6211 -0.6307
13992SOL    HW144229   6.479   9.241   6.969  0.1166 -0.5808  1.2481
13992SOL    HW244230   6.362   9.151   7.001  0.2010 -0.4947  1.8084
13993SOL     OW44231   2.972   0.278   2.657  0.2094  0.2650 -0.1378
13993SOL    HW144232   2.971   0.318   2.745  0.8477 -0.5191  0.2380
13993SOL    HW244233   3.032   0.203   2.666 -0.9180 -0.7456 -0.8327
13994SOL     OW44234   6.395   4.269   9.172  0.4049  0.7859 -0.1379
13994SOL    HW144235   6.414   4.270   9.266  1.1603 -0.6712 -0.2496
13994SOL    HW244236   6.474   4.303   9.131  0.2339  1.0270 -0.2679
13995SOL     OW44237   2.504   7.627   1.911  0.0334  0.0046  0.0045
13995SOL    HW144238   2.517   7.613   2.005  0.7633  0.4313 -0.0208
13995SOL    HW244239   2.526   7.542   1.871 -0.0091 -0.0965  0.1945
13996SOL     OW44240   5.375   3.505   5.038  0.4847  0.0741 -0.6336
13996SOL    HW144241   5.317   3.577   5.062  2.1379  1.9887 -2.0779
13996SOL    HW244242   5.381   3.509   4.943  1.2863 -1.4628 -0.6830
13997SOL     OW44243   3.179   3.637   8.509 -0.1822 -0.1044 -0.0255
13997SOL    HW144244   3.232   3.700   8.558 -0.3563  1.0046 -1.2006
13997SOL    HW244245   3.151   3.572   8.574  1.6377 -0.0739  0.8269
13998SOL     OW44246   9.308  10.383   7.902 -0.5447  0.1873 -0.0001
13998SOL    HW144247   9.295  10.475   7.876 -0.0695 -0.1780 -1.7018
13998SOL    HW244248   9.293  10.334   7.821  1.0360 -1.0891  0.4368
13999SOL     OW44249   1.475  10.103   6.757  0.2351 -0.3041 -0.0787
13999SOL    HW144250   1.500  10.193   6.738 -0.8796  0.0678  0.1210
13999SOL    HW244251   1.538  10.074   6.823 -0.6098  1.0367  1.4042
14000SOL     OW44252   6.126   6.812   6.180 -0.4573  0.4568 -0.0583
14000SOL    HW144253   6.079   6.779   6.257  0.6332 -0.4896  0.2203
14000SOL    HW244254   6.111   6.907   6.182 -0.6841  0.4147  1.1567
14001SOL     OW44255   4.289   7.486   0.331  0.0684  0.0344 -0.6508
14001SOL    HW144256   4.307   7.580   0.321 -0.0393 -0.0529 -1.9139
14001SOL    HW244257   4.216   7.482   0.392  1.9384  0.5875  1.7964
14002SOL     OW44258   2.920   0.732   5.654 -0.3936  0.1774  0.5974
14002SOL    HW144259   2.885   0.792   5.720 -1.6879 -0.0132  0.1020
14002SOL    HW244260   3.011   0.719   5.680  0.6457  4.0489 -0.5080
14003SOL     OW44261   4.435   8.973   3.861  0.0866 -0.0326  0.9101
14003SOL    HW144262   4.387   8.898   3.896  1.8610 -1.1747  1.0487
14003SOL    HW244263   4.466   9.020   3.939  0.2285 -0.0031  0.8359
14004SOL     OW44264   7.009   9.210   0.828  0.5411  0.2229  0.1659
14004SOL    HW144265   6.917   9.189   0.844 -0.1200  2.0503 -0.9074
14004SOL    HW244266   7.015   9.224   0.734  2.5022 -2.1928 -0.1719
14005SOL     OW44267   0.038   8.694   5.095 -0.3973  0.0413  0.0183
14005SOL    HW144268  -0.057   8.692   5.082 -0.1860  2.6365 -3.2525
14005SOL    HW244269   0.054   8.776   5.142  0.2523  0.3381 -0.6904
14006SOL     OW44270   6.024   1.997   5.526 -0.5191 -0.3692  0.1733
14006SOL    HW144271   6.068   1.973   5.444 -0.5837  0.7566 -0.2003
14006SOL    HW244272   6.092   1.993   5.593 -0.4536 -1.2348  0.0707
14007SOL     OW44273   2.497   0.765  10.067 -0.2427  0.1621  0.5203
14007SOL    HW144274   2.567   0.809  10.117  0.7953  1.9684 -2.2979
14007SOL    HW244275   2.418   0.813  10.090  0.3226  1.3674  0.0421
14008SOL     OW44276   3.545   1.997   0.969 -0.1003 -0.7739  0.8296
14008SOL    HW144277   3.566   1.916   1.016  0.1168 -1.8273 -1.0168
14008SOL    HW244278   3.624   2.018   0.919 -0.4693  0.0780  0.5860
14009SOL     OW44279   4.117   9.752   4.756 -0.5344  0.0761 -0.1235
14009SOL    HW144280   4.138   9.844   4.736  0.3904  0.8867  3.7206
14009SOL    HW244281   4.197   9.704   4.735 -0.1599  0.5823  0.1157
14010SOL     OW44282   8.767   6.015   3.677  0.1602 -0.2464  0.2258
14010SOL    HW144283   8.683   6.025   3.632  0.3911  0.4516 -0.0733
14010SOL    HW244284   8.802   5.933   3.643 -0.1330 -0.2399 -0.1089
14011SOL     OW44285   9.075   6.173   1.735 -0.8912 -0.1758  0.3297
14011SOL    HW144286   9.129   6.101   1.704 -2.3448 -1.6434  1.0672
14011SOL    HW244287   9.120   6.252   1.705  0.3189 -1.3951 -1.2005
14012SOL     OW44288  10.384   5.298   3.299  0.1331  0.3140 -0.3342
14012SOL    HW144289  10.321   5.348   3.351 -0.6194 -1.9976  1.1550
14012SOL    HW244290  10.443   5.260   3.365  0.5236 -0.9171 -1.3592
14013SOL     OW44291   3.162   2.651   5.355 -0.1404  0.1214 -0.3443
14013SOL    HW144292   3.221   2.705   5.302  0.8395 -0.1151  0.4739
14013SOL    HW244293   3.190   2.667   5.445 -0.3110 -1.1822 -0.0380
14014SOL     OW44294   2.061   4.193   4.835 -0.6492  0.2263  0.5316
14014SOL    HW144295   2.086   4.215   4.925  0.6404 -0.2193  0.3109
14014SOL    HW244296   2.095   4.265   4.782  0.1810 -0.3645  0.2300
14015SOL     OW44297   9.122   0.831   8.443  0.4395  0.0829  0.5726
14015SOL    HW144298   9.176   0.909   8.431  0.4296 -0.1585 -1.3659
14015SOL    HW244299   9.153   0.770   8.377 -1.1419 -0.6578  0.4708
14016SOL     OW44300   7.349   9.734   9.128  0.0623 -0.5241 -0.0277
14016SOL    HW144301   7.340   9.819   9.085  0.0403 -0.9393 -0.8635
14016SOL    HW244302   7.387   9.677   9.061 -0.0957 -1.2205  0.4646
14017SOL     OW44303   1.207   2.499   9.017 -0.1447  0.0188  0.1796
14017SOL    HW144304   1.119   2.528   9.038 -0.4341  0.6235 -1.6688
14017SOL    HW244305   1.262   2.577   9.030  0.2165 -0.4436  1.6597
14018SOL     OW44306   5.160   0.402   7.632  0.0888 -0.9797 -0.1869
14018SOL    HW144307   5.157   0.483   7.684  0.4134 -0.6502 -0.6679
14018SOL    HW244308   5.222   0.422   7.561 -0.1489 -1.5114 -0.5466
14019SOL     OW44309  10.225   7.480   7.333 -0.2489 -0.1591 -0.5514
14019SOL    HW144310  10.307   7.437   7.359 -0.2590  0.1102 -0.0516
14019SOL    HW244311  10.229   7.484   7.238  0.8115  0.7830 -0.4923
14020SOL     OW44312   9.510   5.465   7.036 -0.2150  0.3608 -0.0947
14020SOL    HW144313   9.426   5.448   6.993 -1.9179  0.5975  2.8679
14020SOL    HW244314   9.497   5.546   7.084  1.3276 -0.1632  1.3164
14021SOL     OW44315   1.228   9.451   2.558  0.2861 -0.3431 -0.0107
14021SOL    HW144316   1.144   9.490   2.584  0.3076 -0.3580  0.0815
14021SOL    HW244317   1.209   9.358   2.549 -0.3354 -0.0539 -2.4679
14022SOL     OW44318   2.236   0.536   7.263 -0.1463  0.1830 -0.0581
14022SOL    HW144319   2.328   0.559   7.250  0.1607  0.3414  2.0531
14022SOL    HW244320   2.231   0.505   7.353 -1.3929 -3.8363 -1.2629
14023SOL     OW44321   3.128   4.550   8.762  0.7707 -0.1078 -0.0868
14023SOL    HW144322   3.113   4.607   8.687  0.3857 -0.5152 -0.3258
14023SOL    HW244323   3.061   4.482   8.754  2.4232 -1.7053 -0.8911
14024SOL     OW44324  10.552   0.848  10.104  0.2971 -0.1828 -0.0924
14024SOL    HW144325  10.511   0.923  10.061  0.7150 -1.2950 -2.6536
14024SOL    HW244326  10.640   0.878  10.127 -0.6568  1.0994  2.0744
14025SOL     OW44327   1.418   8.700   5.444  0.0700  0.3435  0.3286
14025SOL    HW144328   1.447   8.788   5.468 -0.2945  0.3036  0.9237
14025SOL    HW244329   1.342   8.714   5.388 -0.2257  0.3981  0.7458
14026SOL     OW44330   9.299   2.922   8.952 -0.5707  0.1761  1.1049
14026SOL    HW144331   9.297   2.984   8.879  1.2219  0.4804  1.2707
14026SOL    HW244332   9.237   2.853   8.926  0.1282  0.1866 -0.7817
14027SOL     OW44333  10.508   0.393   9.855 -0.5757  0.0131 -0.0007
14027SOL    HW144334  10.570   0.460   9.884 -1.7815  0.7190  1.0228
14027SOL    HW244335  10.426   0.414   9.900 -1.4518 -1.1650 -0.9695
14028SOL     OW44336   0.419   0.347   1.941  0.3597  0.1211  0.5540
14028SOL    HW144337   0.348   0.377   1.998 -1.4430 -0.0814 -1.4828
14028SOL    HW244338   0.418   0.252   1.948 -1.1422 -0.0421 -1.1595
14029SOL     OW44339   6.048   8.565   2.877 -0.2550  0.2293 -1.1286
14029SOL    HW144340   5.982   8.501   2.902  0.1508  0.5390  0.8654
14029SOL    HW244341   6.111   8.565   2.948 -0.2669  2.8732 -1.0025
14030SOL     OW44342   4.912   1.687   0.864  0.4457 -0.0597  0.1387
14030SOL    HW144343   4.954   1.620   0.918  0.8644 -0.1575 -0.3011
14030SOL    HW244344   4.838   1.643   0.823 -1.1593  0.5230  2.2077
14031SOL     OW44345   5.177   8.068   7.848 -0.6048  0.0752 -0.1328
14031SOL    HW144346   5.244   8.135   7.862 -0.1312 -0.1945 -1.0341
14031SOL    HW244347   5.109   8.088   7.913  0.8495 -0.3559  1.5883
14032SOL     OW44348   6.209   4.517   0.433  0.1493 -0.3020  1.0848
14032SOL    HW144349   6.138   4.484   0.379 -0.8158  3.3281 -0.1196
14032SOL    HW244350   6.168   4.538   0.517  0.2684 -0.1228  1.0986
14033SOL     OW44351  10.040   2.591  10.475 -0.0539 -0.4197  0.2599
14033SOL    HW144352  10.001   2.648  10.409  0.4422 -0.7400 -0.3186
14033SOL    HW244353   9.965   2.549  10.518 -0.3591 -0.7701 -0.6057
14034SOL     OW44354   8.054   6.247   1.403  0.4351 -0.3316 -0.1445
14034SOL    HW144355   8.127   6.185   1.408  0.4714 -0.3600 -0.8978
14034SOL    HW244356   7.988   6.211   1.462  0.9770 -0.3775  0.4466
14035SOL     OW44357   5.810   0.930   6.777 -0.7171 -0.3939 -0.6247
14035SOL    HW144358   5.786   0.891   6.693 -1.8192 -0.3218 -0.3686
14035SOL    HW244359   5.743   0.897   6.838  0.0596 -0.4372  0.2163
14036SOL     OW44360  10.183  10.319   1.054  0.3440  0.1023 -0.0854
14036SOL    HW144361  10.108  10.362   1.014 -0.0233  0.4174  0.9156
14036SOL    HW244362  10.231  10.281   0.980 -1.4703 -1.2110 -0.6468
14037SOL     OW44363   5.230   7.120   4.037  0.0469  0.0226 -0.4438
14037SOL    HW144364   5.213   7.211   4.010  0.2912  0.4131  0.6667
14037SOL    HW244365   5.145   7.077   4.028 -0.5954  0.9015  0.9845
14038SOL     OW44366   2.518   5.215   8.584 -0.0480 -0.2591 -0.1817
14038SOL    HW144367   2.531   5.125   8.552  1.2593  0.5146 -2.0232
14038SOL    HW244368   2.449   5.250   8.527  0.1743  0.2121 -0.1630
14039SOL     OW44369   2.705   6.045   0.089 -0.0744  0.2013  0.5357
14039SOL    HW144370   2.612   6.062   0.102 -0.7005 -0.4569 -2.3623
14039SOL    HW244371   2.709   5.953   0.063  0.8700  1.0448 -2.7582
14040SOL     OW44372   1.506   3.279   6.037 -0.6755  0.0879 -0.3237
14040SOL    HW144373   1.576   3.341   6.021 -0.8867 -0.0551 -1.9569
14040SOL    HW244374   1.470   3.304   6.123  1.4838 -0.0017  0.6682
14041SOL     OW44375   6.120  10.537   9.662 -0.4172  0.5019  0.3823
14041SOL    HW144376   6.124  10.603   9.732  0.0326  0.2512  0.6002
14041SOL    HW244377   6.158  10.458   9.702 -1.9041 -0.1992  0.4635
14042SOL     OW44378   7.459   5.231   2.266  0.3823  0.3912 -0.0282
14042SOL    HW144379   7.522   5.160   2.276 -1.1661 -1.5174 -2.6537
14042SOL    HW244380   7.503   5.295   2.210  1.0182  0.5221  0.6043
14043SOL     OW44381   2.297   6.313   8.479 -0.4568 -0.2299 -0.1228
14043SOL    HW144382   2.212   6.308   8.436  0.1633 -1.0102 -1.3405
14043SOL    HW244383   2.327   6.222   8.484  0.8094  0.1141 -0.8415
14044SOL     OW44384   7.460   7.131   8.209  0.1818 -0.1623 -0.6141
14044SOL    HW144385   7.413   7.061   8.163  0.5517 -2.0328  1.6306
14044SOL    HW244386   7.442   7.115   8.302  2.2929  1.2450  0.1208
14045SOL     OW44387   7.741   4.203   1.461 -0.1719  0.1563 -0.0957
14045SOL    HW144388   7.799   4.161   1.397  0.1955 -0.0611  0.3789
14045SOL    HW244389   7.774   4.293   1.466 -1.0332  0.5612 -1.2021
14046SOL     OW44390   7.406   9.858   5.829 -0.2705 -0.4817 -0.5155
14046SOL    HW144391   7.383   9.948   5.807  1.8975  0.4450  0.6642
14046SOL    HW244392   7.361   9.840   5.911 -0.3610 -0.3126 -0.5289
14047SOL     OW44393   2.506   7.725   8.283  0.4370  0.3326 -0.4482
14047SOL    HW144394   2.501   7.630   8.273  0.7809  0.0322  1.7016
14047SOL    HW244395   2.595   7.741   8.314 -0.0188  1.1859  0.4591
14048SOL     OW44396   0.967   6.341   1.164 -0.0769 -0.6837 -0.0445
14048SOL    HW144397   0.871   6.337   1.168 -0.0104 -2.5200  1.0432
14048SOL    HW244398   0.989   6.428   1.197 -1.3867  0.3581 -1.7232
14049SOL     OW44399   2.394  10.358   6.267 -0.4586 -0.8701  0.0069
14049SOL    HW144400   2.342  10.424   6.221 -1.3298  0.5374  2.7703
14049SOL    HW244401   2.353  10.274   6.243 -1.2348 -0.1788 -1.2302
14050SOL     OW44402   2.619   1.658   7.577  0.2927  0.0369  0.2023
14050SOL    HW144403   2.635   1.625   7.665 -0.3567 -1.7859 -0.2997
14050SOL    HW244404   2.539   1.710   7.585 -1.3014 -2.2729  0.3024
14051SOL     OW44405   5.720   0.513   3.992  0.3264 -0.1121 -0.3108
14051SOL    HW144406   5.701   0.545   4.080 -2.3670 -0.3500 -0.7471
14051SOL    HW244407   5.797   0.563   3.965  0.6705  0.6090  1.8144
14052SOL     OW44408   2.126   1.068   8.737 -0.4891  0.6042 -0.4499
14052SOL    HW144409   2.153   0.985   8.699  1.7037  0.7964  0.5421
14052SOL    HW244410   2.070   1.044   8.811 -1.3415  0.1011 -1.2402
14053SOL     OW44411   7.584   8.853   3.897 -0.2956  0.1829 -0.1940
14053SOL    HW144412   7.627   8.790   3.955 -0.6437 -0.3776 -0.5468
14053SOL    HW244413   7.515   8.804   3.853 -0.3444  0.7188 -0.7361
14054SOL     OW44414   6.695   2.881   5.978 -0.0483  0.3942  0.1465
14054SOL    HW144415   6.653   2.904   5.895 -1.2355  0.4154  0.7178
14054SOL    HW244416   6.661   2.945   6.040  0.6456  0.2409  0.6999
14055SOL     OW44417   1.861   8.375   3.359 -0.9587 -0.1725  0.2409
14055SOL    HW144418   1.938   8.339   3.314 -2.5492 -2.9093 -0.5059
14055SOL    HW244419   1.886   8.377   3.452  0.0380 -0.9275  0.0004
14056SOL     OW44420   5.122   1.367   6.074  0.0782  0.0521  0.2686
14056SOL    HW144421   5.078   1.451   6.064  0.7253  0.5132  1.1651
14056SOL    HW244422   5.161   1.371   6.161  1.2128 -0.6508 -0.1865
14057SOL     OW44423  10.511  10.268   5.710 -0.1677  0.8132 -0.2788
14057SOL    HW144424  10.442  10.246   5.773  1.4447  0.0909  1.3520
14057SOL    HW244425  10.512  10.194   5.649 -0.1321  0.2940  0.3362
14058SOL     OW44426   9.951   1.857   1.982 -0.3014 -0.0077  0.1875
14058SOL    HW144427   9.919   1.920   2.047 -0.7206  1.3770 -1.3159
14058SOL    HW244428   9.918   1.889   1.899 -1.5469 -2.8993 -0.5499
14059SOL     OW44429   7.569   4.061   9.625 -0.0473 -0.1613 -0.8360
14059SOL    HW144430   7.538   4.138   9.578  1.1370  0.6648 -0.3101
14059SOL    HW244431   7.497   4.036   9.682 -0.2605  0.8624 -0.6460
14060SOL     OW44432   9.258   7.806   8.506  0.3336  0.5058 -0.5547
14060SOL    HW144433   9.202   7.762   8.442  0.1487 -1.3670  0.8161
14060SOL    HW244434   9.197   7.849   8.566  0.4788  1.2892 -0.9551
14061SOL     OW44435   8.802   2.279   6.451 -0.0188 -0.0008  0.2550
14061SOL    HW144436   8.866   2.216   6.481  2.2773  0.5176 -3.0377
14061SOL    HW244437   8.823   2.360   6.499  2.4337  0.3664 -1.2690
14062SOL     OW44438  10.386   6.853   5.381 -0.2852  0.0422  0.1736
14062SOL    HW144439  10.388   6.820   5.471 -1.5037 -0.4326  0.0489
14062SOL    HW244440  10.293   6.854   5.359 -0.0465  0.8022 -0.8504
14063SOL     OW44441   3.980   7.051   2.286  0.0074  0.1856 -0.0257
14063SOL    HW144442   3.988   6.958   2.308 -0.3580  0.5131  1.6804
14063SOL    HW244443   4.007   7.057   2.195  0.4320 -1.5339 -0.0453
14064SOL     OW44444   5.825   7.146   7.578  0.2999  0.3094  0.3914
14064SOL    HW144445   5.793   7.129   7.667 -1.1263 -0.2376 -0.2022
14064SOL    HW244446   5.751   7.125   7.521  1.9088 -1.6964 -1.1102
14065SOL     OW44447   7.340   0.989   8.880 -0.1258 -0.5979  0.2420
14065SOL    HW144448   7.294   1.045   8.943 -0.7888 -0.9586  0.0959
14065SOL    HW244449   7.376   1.049   8.816  0.8086 -0.2041  1.1174
14066SOL     OW44450   8.887   8.775  10.172 -1.0429  0.2794 -0.1922
14066SOL    HW144451   8.945   8.785  10.248 -0.2506 -1.4291 -0.5204
14066SOL    HW244452   8.838   8.694  10.189 -0.3158 -0.5532 -1.7897
14067SOL     OW44453   3.374   1.650   4.976 -0.0809  0.1986  0.2191
14067SOL    HW144454   3.376   1.699   4.894 -1.3374 -0.4853 -0.2438
14067SOL    HW244455   3.321   1.703   5.035 -0.0899  0.1695  0.2375
14068SOL     OW44456   3.108   3.836   2.251  0.6126 -0.0071 -0.6681
14068SOL    HW144457   3.029   3.887   2.231  0.4413  1.6092  3.1628
14068SOL    HW244458   3.179   3.884   2.209  0.0938  1.7680  0.3718
14069SOL     OW44459   8.451   2.483   0.297  0.6010 -0.0276  0.5270
14069SOL    HW144460   8.486   2.450   0.380 -0.3282 -0.8981  0.6018
14069SOL    HW244461   8.359   2.456   0.298  0.3450  0.7715 -0.3727
14070SOL     OW44462   9.318   8.745   9.661 -0.4313 -0.6859 -0.2989
14070SOL    HW144463   9.245   8.804   9.681  1.1136  0.5967  2.0450
14070SOL    HW244464   9.343   8.766   9.572 -1.6178  0.3078 -0.4155
14071SOL     OW44465   0.578   0.716   1.029 -0.0476  0.0581  0.0701
14071SOL    HW144466   0.597   0.653   1.098 -0.7882  0.5162  0.7017
14071SOL    HW244467   0.654   0.711   0.971  0.2379 -0.8790  0.5003
14072SOL     OW44468   2.803   8.782   1.883  0.1995  0.3848  0.4866
14072SOL    HW144469   2.853   8.811   1.807 -1.7926 -1.9281 -1.9311
14072SOL    HW244470   2.740   8.852   1.899 -0.2852  0.3308 -1.0041
14073SOL     OW44471   7.046   0.183   6.178  0.1297 -0.1038  0.4000
14073SOL    HW144472   6.990   0.200   6.254  0.6393  1.8853  0.3869
14073SOL    HW244473   7.008   0.237   6.108  1.7319  0.9321  0.2657
14074SOL     OW44474   8.461   7.313   1.613  0.0060 -0.1736 -0.0787
14074SOL    HW144475   8.550   7.284   1.596  0.2392  1.1449 -1.3336
14074SOL    HW244476   8.414   7.234   1.637  1.1440 -1.1780 -1.0206
14075SOL     OW44477  10.618   8.489   9.259  0.0520  0.0036  0.0203
14075SOL    HW144478  10.666   8.516   9.337  0.3485  1.6748 -0.7063
14075SOL    HW244479  10.600   8.571   9.213 -2.0790 -0.7349 -0.5479
14076SOL     OW44480   5.452   4.595   3.821 -0.1571 -0.0562  0.4222
14076SOL    HW144481   5.538   4.554   3.831  0.2380 -0.0824 -2.3514
14076SOL    HW244482   5.442   4.609   3.727 -4.3823 -2.5684  0.2402
14077SOL     OW44483   4.096   1.857   2.342  0.1665  0.2274  0.0859
14077SOL    HW144484   4.080   1.794   2.412 -0.6558 -0.4116 -0.6424
14077SOL    HW244485   4.131   1.804   2.270  1.0435  0.8778  0.0231
14078SOL     OW44486   2.134   5.243   6.241  0.6172  0.2043  0.1172
14078SOL    HW144487   2.051   5.196   6.243  0.1544  0.9348 -1.0175
14078SOL    HW244488   2.139   5.287   6.326 -0.7632  1.1605 -0.2721
14079SOL     OW44489   0.460   5.838   1.691 -0.1140 -1.3210 -0.5787
14079SOL    HW144490   0.506   5.760   1.721 -0.9276 -1.4367  0.4180
14079SOL    HW244491   0.429   5.815   1.603 -0.1529 -2.0362 -0.3835
14080SOL     OW44492  10.474   9.467   9.606 -0.3652  0.1098  0.2199
14080SOL    HW144493  10.554   9.483   9.555 -1.2059 -0.5844 -1.3856
14080SOL    HW244494  10.506   9.446   9.694  1.1645  0.7638 -0.1362
14081SOL     OW44495   7.245   9.479   3.968 -0.0622  0.2794  0.1484
14081SOL    HW144496   7.325   9.487   3.918  0.3089 -1.5184  0.3795
14081SOL    HW244497   7.202   9.400   3.934  0.6124 -1.5380  3.0664
14082SOL     OW44498   8.228   4.244   7.810 -0.0709 -0.0840  0.0446
14082SOL    HW144499   8.179   4.162   7.805 -0.4523  0.1460  0.0588
14082SOL    HW244500   8.246   4.255   7.904  0.1211 -0.2330  0.0266
14083SOL     OW44501   3.930   0.064   9.401 -0.4073  0.1853 -0.0202
14083SOL    HW144502   3.924   0.109   9.485 -0.8201 -1.2994  0.7747
14083SOL    HW244503   4.023   0.052   9.386 -0.3513 -0.3774  0.7085
14084SOL     OW44504   0.068   9.953   0.474 -0.4198  0.3854  0.2100
14084SOL    HW144505   0.008  10.021   0.505  0.4659  0.8946  0.8369
14084SOL    HW244506   0.043   9.875   0.523 -0.4571  0.6338  0.5851
14085SOL     OW44507   4.807   3.756   5.915 -0.0224 -0.8449  0.6130
14085SOL    HW144508   4.853   3.794   5.840 -0.8301  0.5068  0.7580
14085SOL    HW244509   4.848   3.796   5.992 -1.2029  0.1595  0.7545
14086SOL     OW44510   9.263   8.840   9.392 -0.2249 -0.4845  0.3824
14086SOL    HW144511   9.323   8.909   9.364 -1.9352  1.1770  0.5947
14086SOL    HW244512   9.240   8.794   9.311  0.0604 -0.0697  0.0588
14087SOL     OW44513   4.423   3.023   8.530 -0.1809  0.2035  0.3627
14087SOL    HW144514   4.331   3.036   8.507 -0.1094 -0.5556 -0.4004
14087SOL    HW244515   4.421   2.987   8.619 -0.5994  0.4529  0.4568
14088SOL     OW44516   8.109   8.013  10.204 -0.2261  0.2619 -0.1089
14088SOL    HW144517   8.177   8.080  10.209  0.3366 -0.3679  1.4778
14088SOL    HW244518   8.131   7.961  10.127  0.9645  0.2324  0.2274
14089SOL     OW44519   9.142   1.179   5.046 -0.0171  0.5681 -0.3916
14089SOL    HW144520   9.165   1.243   5.113 -0.8436  0.5917 -0.1208
14089SOL    HW244521   9.214   1.182   4.984 -0.9754  3.2795 -1.5132
14090SOL     OW44522   3.666  10.102   3.139 -0.1060 -0.1517 -0.1553
14090SOL    HW144523   3.681  10.027   3.197  0.7118 -1.4256 -1.9088
14090SOL    HW244524   3.628  10.064   3.060  2.1941  0.9299 -1.8950
14091SOL     OW44525   1.711   3.948   5.365  0.0504  0.1645 -0.2568
14091SOL    HW144526   1.734   4.012   5.432  0.7443 -0.0900 -0.2442
14091SOL    HW244527   1.676   4.000   5.293  3.3923  0.9676 -1.5102
14092SOL     OW44528   2.840   5.152   6.975 -0.4657 -0.2408  0.1755
14092SOL    HW144529   2.841   5.057   6.963 -0.6825 -0.1724 -0.3934
14092SOL    HW244530   2.915   5.183   6.925  0.1411 -0.1845  1.0814
14093SOL     OW44531   3.338   6.644   6.303 -0.3194  0.4859 -0.2643
14093SOL    HW144532   3.252   6.628   6.341 -0.3132  1.8606  0.3898
14093SOL    HW244533   3.320   6.687   6.219 -0.2806  0.1484 -0.4462
14094SOL     OW44534  10.161   1.542   8.358  0.5268 -0.1782 -0.5488
14094SOL    HW144535  10.096   1.473   8.373  0.4506  0.0821  0.3710
14094SOL    HW244536  10.224   1.503   8.298 -0.1137 -0.6705 -0.9065
14095SOL     OW44537   7.758   3.785   7.895  0.4760  0.3635  0.5718
14095SOL    HW144538   7.729   3.704   7.936  0.1414 -0.3512 -1.0073
14095SOL    HW244539   7.804   3.757   7.816 -0.2632  1.7120 -0.3866
14096SOL     OW44540   3.915   7.967   9.686  0.0445  0.5234 -0.3734
14096SOL    HW144541   3.849   7.898   9.696  0.8239 -0.5973 -2.3558
14096SOL    HW244542   3.878   8.026   9.620 -0.8569  2.4106  1.6899
14097SOL     OW44543   0.923   2.943   1.045 -1.0728  0.0391  0.0314
14097SOL    HW144544   0.965   2.877   1.100 -0.8236  1.2317  1.3179
14097SOL    HW244545   0.851   2.897   1.002 -1.0198 -1.0249  1.0421
14098SOL     OW44546   6.997   0.491   3.572  0.1799  0.7327 -0.0633
14098SOL    HW144547   6.964   0.580   3.555  2.0976  1.5380  0.1714
14098SOL    HW244548   7.026   0.493   3.663  0.0925 -0.1864 -0.0115
14099SOL     OW44549   6.519   4.017   8.366 -0.0331 -0.0212 -0.0033
14099SOL    HW144550   6.454   3.946   8.368 -1.5323  1.2666 -0.8402
14099SOL    HW244551   6.467   4.097   8.376  1.7894  0.9329  2.7754
14100SOL     OW44552   0.577   3.403   6.855  0.1598  0.2195 -0.3100
14100SOL    HW144553   0.619   3.452   6.925 -0.5323  1.3071 -0.6355
14100SOL    HW244554   0.632   3.325   6.843  0.5398  0.2466  1.1118
14101SOL     OW44555   9.691   1.146   8.152 -0.4515 -0.8435  0.4950
14101SOL    HW144556   9.752   1.073   8.166 -0.8138 -1.3747 -0.5848
14101SOL    HW244557   9.746   1.216   8.116 -0.6819 -1.8761 -2.0928
14102SOL     OW44558   1.434   6.275   1.754 -0.2267 -0.1411  0.3431
14102SOL    HW144559   1.456   6.184   1.734  0.8536  0.0973  0.3834
14102SOL    HW244560   1.507   6.307   1.806  0.1001  1.1517 -0.8308
14103SOL     OW44561   6.518   3.479   8.701  0.1823  0.0760 -0.1172
14103SOL    HW144562   6.468   3.397   8.706  0.4439 -0.1525 -1.0046
14103SOL    HW244563   6.581   3.464   8.630  0.2415  1.0477 -0.2784
14104SOL     OW44564   3.729   0.648   8.962  0.7289 -0.5036 -0.8330
14104SOL    HW144565   3.725   0.740   8.988  0.1818 -0.5256 -0.8296
14104SOL    HW244566   3.637   0.620   8.957  0.8743 -0.8987 -1.3685
14105SOL     OW44567   1.686   1.930   0.626 -0.8147  0.2168  0.0833
14105SOL    HW144568   1.651   1.943   0.538 -0.9944 -0.6720  0.0153
14105SOL    HW244569   1.664   1.840   0.647 -0.8379  0.4499  1.0750
14106SOL     OW44570   8.786   1.228  10.015  0.1264  0.0637  0.1071
14106SOL    HW144571   8.707   1.279  10.001 -1.2183 -1.7993  0.6394
14106SOL    HW244572   8.825   1.266  10.094 -0.0534  1.1729 -0.3193
14107SOL     OW44573   6.814   9.384   9.631  0.5087 -0.4469 -0.5071
14107SOL    HW144574   6.866   9.368   9.710 -0.0874 -1.1091 -0.2292
14107SOL    HW244575   6.864   9.447   9.581 -0.6957  2.8203  2.0195
14108SOL     OW44576   8.078   5.773   2.530 -0.1464 -0.2473  0.9119
14108SOL    HW144577   8.111   5.791   2.442  0.2980  0.4980  1.2235
14108SOL    HW244578   7.986   5.801   2.527 -0.1906 -0.4286  0.6190
14109SOL     OW44579   1.245   1.952   9.515  1.6551  0.0903 -0.4148
14109SOL    HW144580   1.173   1.909   9.467  0.4000 -0.7483  2.0562
14109SOL    HW244581   1.308   1.882   9.531  2.2833  0.4686 -1.1467
14110SOL     OW44582   4.537   1.041   1.211  0.6419 -0.5135 -0.1236
14110SOL    HW144583   4.492   0.957   1.222  0.1911 -0.1460  1.0194
14110SOL    HW244584   4.630   1.019   1.221  0.5011 -0.8363  0.5676
14111SOL     OW44585   6.853   7.030   2.665  0.1225  0.0802 -0.1873
14111SOL    HW144586   6.780   6.975   2.694 -0.1076  1.3170  1.7308
14111SOL    HW244587   6.920   6.967   2.637 -1.3639 -1.0889 -1.3079
14112SOL     OW44588   3.064   0.448   0.482 -0.3026  0.2201 -0.4866
14112SOL    HW144589   3.015   0.511   0.430 -0.7788  0.0764 -0.2145
14112SOL    HW244590   2.998   0.392   0.522 -0.0077  0.9341  1.0570
14113SOL     OW44591   7.081   1.712   0.891  0.0492 -0.0748  0.4511
14113SOL    HW144592   7.156   1.726   0.949  1.4583 -0.0495 -1.3212
14113SOL    HW244593   7.089   1.779   0.824 -1.3123 -0.3804 -0.0532
14114SOL     OW44594   6.504   3.301   7.758 -0.3519  0.2486 -0.3354
14114SOL    HW144595   6.470   3.365   7.696 -1.0768 -0.6249 -0.8697
14114SOL    HW244596   6.489   3.340   7.844 -2.1511  0.1743 -0.5860
14115SOL     OW44597   8.423   0.495   0.629 -0.4542 -0.2875  0.1229
14115SOL    HW144598   8.407   0.501   0.723  0.3572  1.9308  0.1842
14115SOL    HW244599   8.494   0.431   0.621 -0.7680 -0.7557  0.9787
14116SOL     OW44600   8.560   6.962  10.422 -0.1023 -0.4689 -0.6988
14116SOL    HW144601   8.497   6.989  10.354  0.8835 -0.4848 -1.6472
14116SOL    HW244602   8.644   6.994  10.390  1.0220 -3.7201 -1.4186
14117SOL     OW44603   4.176   9.856   8.800  0.1660  0.1795  0.3206
14117SOL    HW144604   4.122   9.915   8.852  0.9179 -0.0190  1.3599
14117SOL    HW244605   4.248   9.910   8.768  0.8312 -0.1418  1.2359
14118SOL     OW44606   0.673   4.727   8.204 -0.6578  0.1619 -0.3894
14118SOL    HW144607   0.755   4.776   8.216 -1.3727  1.4693 -0.6487
14118SOL    HW244608   0.654   4.735   8.111 -0.8376 -0.5645 -0.4215
14119SOL     OW44609   5.995   1.312   0.798  0.1876 -0.6227  0.5043
14119SOL    HW144610   5.917   1.366   0.787 -0.2519 -1.3812 -0.1686
14119SOL    HW244611   6.001   1.298   0.893 -0.4817 -0.5404  0.5633
14120SOL     OW44612   9.017   4.376   3.767  0.0744  0.5734 -0.2515
14120SOL    HW144613   9.034   4.338   3.853 -0.1904 -0.8123 -0.7846
14120SOL    HW244614   8.949   4.442   3.783 -0.7461 -0.4203  0.4531
14121SOL     OW44615   3.114   9.484   4.802 -0.1740  0.0790 -0.0475
14121SOL    HW144616   3.135   9.576   4.818  0.1724 -0.2302  1.4712
14121SOL    HW244617   3.019   9.480   4.805 -0.1731  0.3157  0.3209
14122SOL     OW44618   0.903   0.563   3.528 -0.2232 -0.0464 -0.0388
14122SOL    HW144619   0.972   0.553   3.593 -0.5683 -2.5154  0.0534
14122SOL    HW244620   0.943   0.532   3.446 -0.8113 -0.2324 -0.2601
14123SOL     OW44621   8.423   9.618   8.604 -0.2353 -0.2540  0.1472
14123SOL    HW144622   8.465   9.563   8.537 -0.0330 -0.5141  0.4812
14123SOL    HW244623   8.337   9.638   8.569 -0.4689 -1.1380  0.1956
14124SOL     OW44624   1.896  10.529   2.747 -0.2082 -0.0825  0.3711
14124SOL    HW144625   1.832  10.534   2.818 -0.3192 -1.1925  0.3593
14124SOL    HW244626   1.853  10.571   2.673 -1.3303 -1.6312  0.0910
14125SOL     OW44627   3.581   3.935   7.887 -0.4563  0.3082  0.3743
14125SOL    HW144628   3.649   3.933   7.819 -1.6713 -2.2606 -0.9173
14125SOL    HW244629   3.629   3.943   7.969  1.1432  2.0772 -0.6384
14126SOL     OW44630   0.446   6.240  10.007  0.2330 -0.0914  0.2020
14126SOL    HW144631   0.512   6.282  10.062 -0.2827  0.0617  0.7058
14126SOL    HW244632   0.484   6.155   9.984  0.7423  0.1304  0.2187
14127SOL     OW44633  10.287   4.501   6.545 -0.1683 -0.6618 -0.1885
14127SOL    HW144634  10.210   4.545   6.508  1.3879  1.4830 -1.0399
14127SOL    HW244635  10.360   4.532   6.492  1.3158 -2.6642  0.5913
14128SOL     OW44636   1.949   6.746   9.532  0.2878 -0.2814 -0.5337
14128SOL    HW144637   1.980   6.664   9.494  0.1036 -0.6051  0.0000
14128SOL    HW244638   1.924   6.723   9.621  0.2838  0.3687 -0.3627
14129SOL     OW44639   2.356  10.002   8.734 -0.6907  0.9134  0.2278
14129SOL    HW144640   2.448   9.986   8.710 -0.5359  2.0402 -0.0194
14129SOL    HW244641   2.361  10.071   8.800 -1.4077  2.3125 -1.0970
14130SOL     OW44642   1.413   2.230   8.592 -0.3204 -0.2891 -0.4517
14130SOL    HW144643   1.505   2.251   8.605 -0.0425 -1.5961 -0.1355
14130SOL    HW244644   1.381   2.203   8.678 -1.6988  2.5089  0.0140
14131SOL     OW44645  10.522   9.904   1.440  0.3257 -0.4071 -1.0425
14131SOL    HW144646  10.514   9.825   1.386 -0.3839 -1.5610  0.6843
14131SOL    HW244647  10.475   9.883   1.521  2.1740  0.8862  0.4534
14132SOL     OW44648   4.243   8.982   7.955 -0.0217 -0.2046 -0.0671
14132SOL    HW144649   4.220   8.997   7.864 -0.6952 -2.0064 -0.2359
14132SOL    HW244650   4.333   8.951   7.953  0.2077  0.4368 -0.0322
14133SOL     OW44651   7.405   0.003   7.971 -0.1035 -0.0696  0.0558
14133SOL    HW144652   7.390   0.019   8.064 -0.5084 -0.0803 -0.0037
14133SOL    HW244653   7.500   0.004   7.961 -0.0370 -0.6073  0.5656
14134SOL     OW44654   4.217  10.415   3.524 -0.5889  0.7197 -0.0198
14134SOL    HW144655   4.180  10.492   3.480 -0.1857 -0.9154 -3.6273
14134SOL    HW244656   4.154  10.394   3.593 -2.3428  2.4636 -0.9674
14135SOL     OW44657   4.325   2.215   3.991  0.3155 -0.3721  0.1908
14135SOL    HW144658   4.280   2.131   3.979  0.1938 -0.2441 -0.2423
14135SOL    HW244659   4.329   2.254   3.904  1.2443 -0.3657  0.2193
14136SOL     OW44660   4.338   0.345   2.769 -0.2248 -0.0981 -0.1524
14136SOL    HW144661   4.304   0.429   2.741 -0.1816 -0.1884 -0.4767
14136SOL    HW244662   4.398   0.366   2.841 -1.7718 -0.0242  1.1677
14137SOL     OW44663   4.631   1.634   0.597  0.0132  0.0383  0.0738
14137SOL    HW144664   4.583   1.571   0.543 -0.7546 -0.3449  1.1548
14137SOL    HW244665   4.659   1.583   0.673  3.0204  0.0102 -0.9204
14138SOL     OW44666   8.046   7.361   1.714  0.2094 -0.5076 -0.2142
14138SOL    HW144667   8.102   7.361   1.791 -1.7324 -0.7513  1.2873
14138SOL    HW244668   8.044   7.270   1.685 -0.0131 -0.6363  0.2001
14139SOL     OW44669   2.190   5.740   3.126 -0.1244 -0.6222 -0.0526
14139SOL    HW144670   2.112   5.711   3.079 -0.9010  1.0600  0.1375
14139SOL    HW244671   2.230   5.805   3.067  0.3512 -0.4457  0.4541
14140SOL     OW44672   2.542   4.465   0.834  0.0685 -0.0262 -0.1639
14140SOL    HW144673   2.555   4.473   0.740  0.6040 -0.3542 -0.1254
14140SOL    HW244674   2.576   4.377   0.855  0.3161  0.1973  0.3891
14141SOL     OW44675   6.309   6.760   6.874 -0.1823  0.4121 -0.5805
14141SOL    HW144676   6.395   6.765   6.832  0.0132  0.8029 -0.1468
14141SOL    HW244677   6.264   6.689   6.828  1.0201 -1.0045  0.3295
14142SOL     OW44678   7.691   7.935   7.271  0.0325 -0.1748  0.3582
14142SOL    HW144679   7.755   7.995   7.308  0.9387 -1.1123  0.3636
14142SOL    HW244680   7.620   7.933   7.335  2.1060 -2.7382  2.8615
14143SOL     OW44681  10.484   8.783   8.831  0.2046 -0.6668  0.1088
14143SOL    HW144682  10.393   8.753   8.829  0.0400 -0.1784  0.2586
14143SOL    HW244683  10.507   8.797   8.739 -1.0405  2.6750  0.1643
14144SOL     OW44684   3.984   3.185   9.314 -0.3271 -0.3453  0.0151
14144SOL    HW144685   4.058   3.142   9.358 -0.1084 -0.8285 -0.7953
14144SOL    HW244686   3.907   3.155   9.363 -0.0800 -0.7713  0.1564
14145SOL     OW44687   4.729  10.200   0.525  0.2493 -0.6002 -0.6278
14145SOL    HW144688   4.651  10.153   0.498 -0.6363  0.2820  0.3022
14145SOL    HW244689   4.733  10.276   0.467 -1.4090  1.0587  1.2809
14146SOL     OW44690   9.002   7.483   4.949 -0.1146 -0.4320 -0.0191
14146SOL    HW144691   9.005   7.558   4.889 -0.5409 -0.5770 -0.2229
14146SOL    HW244692   8.961   7.518   5.028  0.6063 -0.1947  0.2606
14147SOL     OW44693   8.015   8.037   6.179  0.3501  0.3994  0.2622
14147SOL    HW144694   7.989   8.129   6.187 -0.3686  0.2452 -0.1873
14147SOL    HW244695   8.001   8.001   6.266 -0.1157  0.5366  0.2479
14148SOL     OW44696   4.653  10.395   1.492  0.4551 -0.1110 -0.1441
14148SOL    HW144697   4.596  10.471   1.504  0.8900  0.1240  0.5271
14148SOL    HW244698   4.710  10.396   1.569  1.4371 -0.2763 -0.8583
14149SOL     OW44699   4.038   4.669   0.671  0.1430  0.0031 -0.2649
14149SOL    HW144700   3.992   4.752   0.660  0.7088  0.5251  1.1249
14149SOL    HW244701   4.117   4.678   0.618  1.8258  1.6832  2.2994
14150SOL     OW44702   8.394   3.705   4.284  0.6677 -0.2145 -0.6567
14150SOL    HW144703   8.358   3.658   4.209 -0.8617 -1.4383  0.7740
14150SOL    HW244704   8.451   3.641   4.327 -1.1784 -0.7453  1.1288
14151SOL     OW44705   7.018   1.031   8.680  0.0220 -0.1083 -0.1848
14151SOL    HW144706   7.082   1.101   8.691  0.2462 -0.0310 -1.7778
14151SOL    HW244707   6.955   1.046   8.751  1.2723  0.3302  0.8744
14152SOL     OW44708   3.514   0.579   6.561  0.4752  0.4041 -0.2441
14152SOL    HW144709   3.549   0.538   6.482  0.5217 -0.0465  0.0134
14152SOL    HW244710   3.421   0.559   6.560  0.3574  0.9291 -0.5076
14153SOL     OW44711   1.535   0.585   0.602  0.3162  0.7980  0.3184
14153SOL    HW144712   1.600   0.547   0.661 -1.8923 -1.0561  1.7521
14153SOL    HW244713   1.467   0.618   0.661 -2.1319 -1.3865 -1.0649
14154SOL     OW44714   4.554   0.029   1.591 -0.5152 -0.2225 -0.1039
14154SOL    HW144715   4.640   0.067   1.604 -1.0097  1.9463 -2.4432
14154SOL    HW244716   4.494   0.090   1.633 -0.9765 -2.0471  2.0960
14155SOL     OW44717   4.524   5.726   8.361  0.0486  0.2144 -0.8782
14155SOL    HW144718   4.490   5.798   8.414 -1.5238  0.2812 -1.8830
14155SOL    HW244719   4.538   5.655   8.423 -2.0554  0.1767 -0.3630
14156SOL     OW44720   6.029   6.633   4.382  0.7005  0.0909 -0.8792
14156SOL    HW144721   6.096   6.574   4.347 -0.4840 -1.2580 -0.9369
14156SOL    HW244722   6.071   6.673   4.459  1.1062 -1.8059 -0.0625
14157SOL     OW44723   8.545   3.524   2.677  0.3598 -0.0104  0.2965
14157SOL    HW144724   8.514   3.445   2.722  0.0663  0.2083  0.4750
14157SOL    HW244725   8.598   3.570   2.742 -0.7837  0.7520  0.7051
14158SOL     OW44726   0.756   8.323   3.220  0.6562  0.0532 -0.0490
14158SOL    HW144727   0.785   8.302   3.308 -1.1752 -1.6067  0.2071
14158SOL    HW244728   0.671   8.364   3.231  0.0495 -0.8736 -1.0664
14159SOL     OW44729   9.727   5.146   8.112 -0.4472  0.7522 -0.2143
14159SOL    HW144730   9.700   5.189   8.194  0.0858  1.7088 -0.5300
14159SOL    HW244731   9.682   5.062   8.115  2.1697 -0.7341  2.6872
14160SOL     OW44732   7.482   2.050   2.884 -0.3289  0.0761 -0.5581
14160SOL    HW144733   7.445   2.138   2.895 -0.6784  0.0648 -1.5187
14160SOL    HW244734   7.572   2.066   2.857  0.2394  0.1082  1.2652
14161SOL     OW44735   9.290   9.291   6.542  0.2615 -0.2184 -0.5401
14161SOL    HW144736   9.210   9.272   6.591 -0.2571  3.0798  0.1335
14161SOL    HW244737   9.360   9.281   6.606 -0.2821  2.7066  0.6360
14162SOL     OW44738   6.867   4.493  10.233 -0.2087 -0.1170  0.1669
14162SOL    HW144739   6.787   4.499  10.286 -1.1781  2.3683 -1.3889
14162SOL    HW244740   6.935   4.528  10.290 -0.5924 -0.5039  0.8801
14163SOL     OW44741   4.253   4.284   0.270  0.0173 -0.1850  0.7869
14163SOL    HW144742   4.178   4.232   0.301  0.1015 -0.4820  0.4993
14163SOL    HW244743   4.320   4.271   0.336 -0.3481  0.4703  1.2935
14164SOL     OW44744   2.881   2.719   8.327  0.1553  0.2570 -0.2507
14164SOL    HW144745   2.882   2.657   8.400 -0.3576 -1.9591 -2.0164
14164SOL    HW244746   2.948   2.783   8.349  0.0428 -0.3391  2.1166
14165SOL     OW44747   1.140   3.978   7.418 -0.0166  0.2824  0.4691
14165SOL    HW144748   1.143   4.043   7.488  0.3951  1.1067 -0.2882
14165SOL    HW244749   1.221   3.992   7.368 -0.8806  0.5977 -0.9165
14166SOL     OW44750   5.492   8.449   5.316  0.0253  0.2186 -0.3691
14166SOL    HW144751   5.533   8.518   5.370 -0.1139  0.4811 -0.5985
14166SOL    HW244752   5.444   8.396   5.379 -0.8933  1.0616 -0.3305
14167SOL     OW44753   2.910   1.164  10.354 -0.0004  0.1898 -0.2940
14167SOL    HW144754   2.915   1.174  10.259  0.4403 -0.2228 -0.3183
14167SOL    HW244755   2.837   1.221  10.380 -1.8633 -1.6245 -1.1706
14168SOL     OW44756   0.819   6.204   5.694  0.0584  0.4275 -0.1649
14168SOL    HW144757   0.788   6.155   5.770  1.3867  0.7001  0.5686
14168SOL    HW244758   0.788   6.294   5.710 -0.5430  0.2854 -0.4721
14169SOL     OW44759   1.726   6.282   1.849 -0.3082  0.4069  0.4984
14169SOL    HW144760   1.747   6.189   1.857 -1.5902  0.0637  0.0486
14169SOL    HW244761   1.792   6.326   1.904  2.3815 -0.4775 -1.7781
14170SOL     OW44762   4.920   2.844   3.498  0.5183 -0.3894  0.0757
14170SOL    HW144763   4.829   2.816   3.502  0.1309  0.6754 -0.7078
14170SOL    HW244764   4.924   2.902   3.422  1.3942  1.1536  1.2399
14171SOL     OW44765   7.558   4.330  10.335 -0.0025 -0.1840  0.1990
14171SOL    HW144766   7.497   4.367  10.271 -0.5830  1.0619  1.3961
14171SOL    HW244767   7.641   4.375  10.318 -0.0733 -0.0861  0.1072
14172SOL     OW44768   4.864   8.247   9.094 -0.6803  0.5040 -0.0932
14172SOL    HW144769   4.819   8.294   9.023 -1.5765  2.0575  1.4271
14172SOL    HW244770   4.899   8.317   9.150 -1.7692 -0.6267  2.0999
14173SOL     OW44771   7.619   3.766   0.598 -0.0072  0.0889 -0.1497
14173SOL    HW144772   7.610   3.713   0.677 -0.9204 -1.5784 -1.2986
14173SOL    HW244773   7.544   3.742   0.544  0.7119  0.9855 -1.6329
14174SOL     OW44774   0.673   5.779   9.814 -0.2130  0.5540  0.3376
14174SOL    HW144775   0.618   5.737   9.748  0.3237  2.5532 -1.4720
14174SOL    HW244776   0.763   5.762   9.785  0.0750  0.3602  1.2989
14175SOL     OW44777   0.170   4.861   8.282  0.2879  0.2481  0.1943
14175SOL    HW144778   0.260   4.862   8.252 -0.1968 -0.0136 -1.3349
14175SOL    HW244779   0.149   4.953   8.297 -0.1385  0.6631 -2.5221
14176SOL     OW44780   2.414   4.898   3.436 -0.6989 -0.2206  0.1482
14176SOL    HW144781   2.339   4.843   3.414 -0.6017  0.1862 -1.3075
14176SOL    HW244782   2.382   4.957   3.505 -1.5091 -0.5129  0.0320
14177SOL     OW44783   7.302  10.214   9.676  0.4162  0.2800 -0.3404
14177SOL    HW144784   7.315  10.119   9.670  0.2721  0.2115  0.3936
14177SOL    HW244785   7.380  10.246   9.722  1.3606  0.7660 -2.1768
14178SOL     OW44786   2.813   2.768   1.594 -0.1054 -0.8435 -0.3810
14178SOL    HW144787   2.816   2.831   1.665  0.1713  0.8858 -1.8452
14178SOL    HW244788   2.766   2.693   1.630  2.0536 -1.0441  2.3328
14179SOL     OW44789   8.754   5.394   1.184 -0.3238  0.2865 -0.3935
14179SOL    HW144790   8.847   5.410   1.171 -0.3852  0.9437 -0.0612
14179SOL    HW244791   8.718   5.390   1.095 -0.3813  2.5276 -0.5139
14180SOL     OW44792   2.564   7.580   9.765 -0.2332 -0.0855 -0.1574
14180SOL    HW144793   2.598   7.603   9.852 -0.4322 -1.6811  0.3623
14180SOL    HW244794   2.469   7.591   9.773 -0.2565 -0.2890 -0.1557
14181SOL     OW44795   4.335   8.454   8.328  0.0804  0.3037  0.2586
14181SOL    HW144796   4.247   8.486   8.309  0.6748  0.9055 -1.6906
14181SOL    HW244797   4.376   8.445   8.243  2.3598  1.3429  1.1737
14182SOL     OW44798   7.083   8.044   4.445  0.0918 -0.2368 -0.0526
14182SOL    HW144799   7.011   7.980   4.450 -0.0631 -0.0080  0.7156
14182SOL    HW244800   7.162   7.991   4.453 -0.0035 -0.4195 -0.2708
14183SOL     OW44801   7.143   0.092   4.174 -0.0977  0.1787  0.6023
14183SOL    HW144802   7.102   0.008   4.151  0.4981  0.0573 -0.0441
14183SOL    HW244803   7.078   0.158   4.149  0.5737  0.0669 -1.6764
14184SOL     OW44804   5.746   0.300   4.256  0.4510 -0.2083  0.1477
14184SOL    HW144805   5.653   0.319   4.245  0.4387  0.5892  1.4056
14184SOL    HW244806   5.785   0.318   4.170 -0.3254  0.9440  0.0160
14185SOL     OW44807   3.152   6.632   0.718 -0.3733 -0.7895 -0.0235
14185SOL    HW144808   3.203   6.712   0.731 -0.8030 -0.5709  0.3629
14185SOL    HW244809   3.196   6.566   0.772 -1.2822 -0.2562  1.4312
14186SOL     OW44810   2.801  10.426   9.435  0.1020 -0.0041  0.4875
14186SOL    HW144811   2.850  10.371   9.373  0.0889 -0.3206  0.7521
14186SOL    HW244812   2.862  10.495   9.460  0.1426  0.0659  0.2019
14187SOL     OW44813   3.824   6.258   3.828 -0.5296 -0.1677  0.0409
14187SOL    HW144814   3.774   6.177   3.837 -0.4746 -0.3161 -0.8550
14187SOL    HW244815   3.789   6.316   3.895 -0.4799 -0.9762  0.7791
14188SOL     OW44816   0.560   9.302   2.480 -0.1880 -0.3742 -0.3262
14188SOL    HW144817   0.501   9.238   2.518  1.6887 -2.0466 -0.0501
14188SOL    HW244818   0.577   9.269   2.392 -0.1533  0.4235 -0.6210
14189SOL     OW44819   6.673   1.746   7.273 -0.2202 -0.1398  0.1964
14189SOL    HW144820   6.763   1.761   7.300  0.4155 -0.5370 -1.5557
14189SOL    HW244821   6.679   1.729   7.179 -2.2521  0.9694 -0.1911
14190SOL     OW44822   8.972   5.844   1.649 -0.7233  0.3896 -0.4349
14190SOL    HW144823   8.938   5.797   1.726 -0.7505  0.2498 -0.5321
14190SOL    HW244824   8.938   5.795   1.574 -1.1879  0.8724 -0.5432
14191SOL     OW44825   7.532   9.064   4.866  0.0102 -0.3446 -0.5054
14191SOL    HW144826   7.484   8.984   4.843 -0.2547 -0.2668 -0.2234
14191SOL    HW244827   7.623   9.044   4.844  0.1046 -1.0884  0.5165
14192SOL     OW44828   9.649   6.874   8.941  0.1569  0.0006  0.8077
14192SOL    HW144829   9.703   6.952   8.931  1.9655 -1.3850 -1.1788
14192SOL    HW244830   9.597   6.870   8.861 -0.5080 -0.4248  1.2482
14193SOL     OW44831   8.707   4.370   5.627  0.0202 -0.1521  0.4764
14193SOL    HW144832   8.685   4.429   5.698  0.1149 -0.7090  0.9793
14193SOL    HW244833   8.738   4.290   5.670 -0.8104 -0.8467 -0.1645
14194SOL     OW44834   9.240  10.642  10.048 -0.5773 -0.0228 -0.0286
14194SOL    HW144835   9.241  10.640   9.952  0.3194 -0.6138 -0.0206
14194SOL    HW244836   9.166  10.588  10.073 -0.0822 -0.8809 -0.3822
14195SOL     OW44837  10.124   7.287   8.599 -0.1827  0.1276  0.0940
14195SOL    HW144838  10.169   7.304   8.516 -1.1296 -1.5582 -0.8194
14195SOL    HW244839  10.165   7.348   8.661 -0.2875  2.3204 -1.8462
14196SOL     OW44840  10.360   7.866   2.413  0.2079  0.5904  0.2657
14196SOL    HW144841  10.426   7.860   2.343 -1.8176 -0.8167 -1.6492
14196SOL    HW244842  10.380   7.792   2.471  0.8139  0.6802  0.1774
14197SOL     OW44843   0.508   3.675   0.660  0.4388 -0.0292 -0.2182
14197SOL    HW144844   0.532   3.680   0.567 -0.7331 -1.6542 -0.6528
14197SOL    HW244845   0.414   3.657   0.659  0.3709  0.1623  1.3027
14198SOL     OW44846   0.428   3.253   0.901 -0.7370  0.1091 -0.0851
14198SOL    HW144847   0.485   3.325   0.875 -0.5254  0.2118  0.6350
14198SOL    HW244848   0.430   3.192   0.827  0.2992  0.1146 -0.0703
14199SOL     OW44849   8.763   7.968   1.496 -0.1823 -0.8297 -0.4446
14199SOL    HW144850   8.679   7.933   1.468 -2.0575  0.8184  2.5065
14199SOL    HW244851   8.756   8.063   1.481  1.1184 -0.6618 -0.1383
14200SOL     OW44852   9.392   0.591   3.151  0.3009 -0.4873 -0.3918
14200SOL    HW144853   9.306   0.626   3.176  0.9886  2.0460 -1.2789
14200SOL    HW244854   9.384   0.573   3.058  0.9680  0.6534 -0.6875
14201SOL     OW44855   8.401   1.748   3.516  0.6669 -0.3237  0.5604
14201SOL    HW144856   8.465   1.765   3.448  2.7562 -1.1291  2.2161
14201SOL    HW244857   8.379   1.656   3.506  0.8783 -0.4110  0.8690
14202SOL     OW44858   4.113   0.445   9.813 -0.0503  0.2769 -0.0758
14202SOL    HW144859   4.030   0.480   9.846 -0.8121 -0.8768 -0.6811
14202SOL    HW244860   4.180   0.493   9.861 -1.0403  1.9807 -0.3055
14203SOL     OW44861   7.748   3.162   2.902  0.3602 -0.2227 -0.0948
14203SOL    HW144862   7.843   3.158   2.897  0.4184  0.3616  0.3938
14203SOL    HW244863   7.722   3.209   2.823  0.4140 -1.0824 -0.6317
14204SOL     OW44864  10.117   5.760   2.839 -0.1735 -0.5154 -0.6201
14204SOL    HW144865  10.206   5.737   2.868  0.4167 -2.5645 -3.6097
14204SOL    HW244866  10.123   5.852   2.813  0.4450 -0.0027  1.1608
14205SOL     OW44867  10.174   4.098   4.885  0.3610  0.2616 -0.2124
14205SOL    HW144868  10.134   4.131   4.965 -0.2337  2.7524 -1.4447
14205SOL    HW244869  10.246   4.042   4.915 -0.1828  0.6872  2.0344
14206SOL     OW44870   8.539   1.976   5.614 -0.4403  0.0302  0.3169
14206SOL    HW144871   8.504   2.054   5.570 -0.7787  0.3330  1.1121
14206SOL    HW244872   8.475   1.956   5.682  0.1438 -0.3538  0.7567
14207SOL     OW44873   5.743   3.835   3.044 -0.0465 -0.2840 -0.4717
14207SOL    HW144874   5.726   3.772   2.974  0.0696 -0.0117 -0.7505
14207SOL    HW244875   5.707   3.918   3.011 -0.4931 -0.2769  0.0304
14208SOL     OW44876   5.614   1.708   9.058 -0.0128  0.6072 -0.1593
14208SOL    HW144877   5.581   1.776   9.117 -2.4069 -1.6964  1.4358
14208SOL    HW244878   5.709   1.722   9.055  0.1940  1.2828  3.8328
14209SOL     OW44879   2.416   6.262   3.330  0.3431 -0.0946  0.5245
14209SOL    HW144880   2.510   6.281   3.336 -0.0008  1.6002  1.2852
14209SOL    HW244881   2.379   6.300   3.410 -1.3286  1.6788 -0.9724
14210SOL     OW44882   2.631   7.939   1.275 -0.2604  0.4085  0.3228
14210SOL    HW144883   2.629   7.875   1.204  0.8830  0.1974  0.4635
14210SOL    HW244884   2.722   7.940   1.305  0.0857  3.0835 -0.5434
14211SOL     OW44885   9.238   2.216   4.077  0.0164 -0.1295 -0.8459
14211SOL    HW144886   9.187   2.241   4.154  0.1728  1.4377 -1.2117
14211SOL    HW244887   9.304   2.155   4.109  0.1463  0.5834  0.2866
14212SOL     OW44888   8.058   0.030   6.020  0.4429  0.8851  0.1542
14212SOL    HW144889   7.988   0.091   6.044  0.0135  0.4373  0.0733
14212SOL    HW244890   8.033  -0.052   6.063  0.4519  0.4778 -0.6069
14213SOL     OW44891   9.966   5.164   4.292 -0.3436  0.3981  0.0930
14213SOL    HW144892  10.059   5.173   4.274 -0.0897 -0.2075  0.9934
14213SOL    HW244893   9.957   5.189   4.384 -1.2989  1.7521 -0.3340
14214SOL     OW44894   1.411   4.091   9.830 -0.4826 -0.0641  0.6024
14214SOL    HW144895   1.430   4.163   9.890  0.6013  1.6706 -1.6572
14214SOL    HW244896   1.410   4.013   9.886  1.9297  1.2207  2.6666
14215SOL     OW44897   3.647   8.986   4.299 -1.0277  0.5402 -0.5075
14215SOL    HW144898   3.608   8.987   4.387 -0.7241 -1.2680 -0.3131
14215SOL    HW244899   3.633   9.075   4.266 -1.1256  1.2746  1.3704
14216SOL     OW44900   3.709   7.857   3.757 -0.3121  0.0587  0.3112
14216SOL    HW144901   3.781   7.820   3.706 -0.6178 -0.6100  0.3543
14216SOL    HW244902   3.718   7.819   3.844 -0.5918  0.1330  0.3754
14217SOL     OW44903   3.878   0.226   2.471  0.7041 -0.5390  0.1783
14217SOL    HW144904   3.831   0.269   2.399  0.0807 -1.1107  0.2335
14217SOL    HW244905   3.931   0.159   2.429 -0.4734 -1.5932  0.3235
14218SOL     OW44906   6.479   5.140   1.326 -0.2471  0.2166  0.2985
14218SOL    HW144907   6.554   5.182   1.369 -0.8186  0.9424  0.6062
14218SOL    HW244908   6.412   5.208   1.324  0.0043  0.5056 -2.4687
14219SOL     OW44909   7.457   8.410   8.510  0.2915 -0.4369 -0.7415
14219SOL    HW144910   7.543   8.392   8.472  0.4755 -0.3981 -0.3506
14219SOL    HW244911   7.477   8.450   8.595 -0.0960 -1.8517  0.0518
14220SOL     OW44912   5.640   1.932   8.736 -0.5013  0.2825 -0.4014
14220SOL    HW144913   5.643   1.956   8.644 -0.4540 -0.3439 -0.5664
14220SOL    HW244914   5.698   1.856   8.743  0.2609  0.9041  0.3252
14221SOL     OW44915   0.562   6.939   7.586 -0.0419 -0.3818  0.2311
14221SOL    HW144916   0.522   6.986   7.513  0.8186 -1.2076 -0.8033
14221SOL    HW244917   0.595   7.009   7.643  0.7895  0.3132 -1.0362
14222SOL     OW44918   1.339   1.219   8.857  0.3016  0.2224  0.4004
14222SOL    HW144919   1.255   1.265   8.853  0.3423  0.2832  0.2197
14222SOL    HW244920   1.398   1.281   8.900  0.3169  0.2799  0.2976
14223SOL     OW44921  10.102   3.595   2.719 -0.0408 -0.2604 -0.2652
14223SOL    HW144922  10.129   3.560   2.804  1.8286  1.8800  0.1197
14223SOL    HW244923  10.032   3.657   2.740 -2.6930 -2.8141 -0.8513
14224SOL     OW44924   0.130   6.953   5.303 -0.0207  0.2276  0.5823
14224SOL    HW144925   0.128   6.984   5.212 -0.3945 -0.0302  0.4957
14224SOL    HW244926   0.218   6.973   5.334 -0.0128  0.6605  0.2827
14225SOL     OW44927   7.129   6.958   1.437 -0.1360  0.0576  0.6550
14225SOL    HW144928   7.097   6.892   1.376 -0.6105  0.2283  0.7128
14225SOL    HW244929   7.083   7.039   1.412 -0.6302  0.0454  1.4716
14226SOL     OW44930   9.416   2.250   7.775  0.0414 -0.1179  0.2585
14226SOL    HW144931   9.428   2.220   7.684 -0.3255  1.8945 -0.4945
14226SOL    HW244932   9.385   2.172   7.821 -0.1046 -1.1145 -1.4194
14227SOL     OW44933   9.631  10.604  10.570  0.2145  0.4078  0.1851
14227SOL    HW144934   9.684  10.525  10.559  1.7029  1.5798 -2.1198
14227SOL    HW244935   9.643  10.629  10.661  1.9046 -0.5868  0.2755
14228SOL     OW44936   1.560   7.354   0.818 -0.3356  0.1674  0.8777
14228SOL    HW144937   1.622   7.391   0.881  0.2531 -0.2046  0.5260
14228SOL    HW244938   1.580   7.399   0.736  0.4314 -0.9433  0.4275
14229SOL     OW44939   7.459   8.571   1.917 -0.9585  0.4627 -0.0612
14229SOL    HW144940   7.440   8.480   1.893 -0.6654  0.4185 -0.1282
14229SOL    HW244941   7.554   8.573   1.928 -0.9509  0.7913 -0.1832
14230SOL     OW44942  10.024   8.978   9.437  0.1234 -0.9620  0.1306
14230SOL    HW144943   9.945   8.928   9.416  0.5780 -1.1457 -1.1710
14230SOL    HW244944  10.092   8.912   9.450  0.1008 -0.8004  1.2218
14231SOL     OW44945   5.919   6.509   8.816  0.3876 -0.0471 -0.4037
14231SOL    HW144946   6.004   6.536   8.852  0.1429 -0.0830  0.2214
14231SOL    HW244947   5.900   6.426   8.860  0.9641 -1.0967 -2.0428
14232SOL     OW44948   9.939   9.228   2.666 -0.2231  0.6288  0.3776
14232SOL    HW144949   9.984   9.293   2.612 -0.7296  1.9307  1.4685
14232SOL    HW244950   9.848   9.257   2.668 -0.8805 -1.2297 -0.7055
14233SOL     OW44951   8.487   9.217   8.495  0.3394 -0.1514 -0.1274
14233SOL    HW144952   8.516   9.236   8.406 -0.8596  0.0288 -0.4938
14233SOL    HW244953   8.391   9.214   8.489  0.2864 -1.3161  0.9191
14234SOL     OW44954   8.661   0.051   8.037 -0.1992 -0.6402 -0.6417
14234SOL    HW144955   8.639   0.025   8.127 -0.3970 -0.9855 -0.7853
14234SOL    HW244956   8.638   0.143   8.032  1.2673 -0.2033  0.1312
14235SOL     OW44957   9.522   6.785  10.147 -0.7922 -0.1295  0.0374
14235SOL    HW144958   9.432   6.818  10.143 -0.1239  1.7561 -0.9993
14235SOL    HW244959   9.544   6.785  10.240 -2.1417 -1.5511  0.4013
14236SOL     OW44960   9.359   0.680   1.571  0.1629 -0.0691 -0.1813
14236SOL    HW144961   9.266   0.660   1.581 -0.2610  1.3899 -0.8931
14236SOL    HW244962   9.403   0.595   1.580 -1.3144 -0.9521 -0.8803
14237SOL     OW44963   2.863   4.622   5.115  0.1190  0.6041 -0.1218
14237SOL    HW144964   2.831   4.544   5.160 -0.1908  0.6691 -0.2307
14237SOL    HW244965   2.950   4.637   5.153  1.8576 -1.9630 -2.6061
14238SOL     OW44966   0.176   1.553   8.278  0.7418  0.0971  0.0491
14238SOL    HW144967   0.191   1.635   8.231  1.5183 -0.2348 -0.3080
14238SOL    HW244968   0.104   1.572   8.338  0.8099  0.9925 -0.1401
14239SOL     OW44969   9.893   3.222   3.446  0.4420 -0.4541  0.1850
14239SOL    HW144970   9.841   3.298   3.420  0.6626 -0.6011 -0.7135
14239SOL    HW244971   9.964   3.259   3.499 -0.5122 -0.2464  1.3456
14240SOL     OW44972   3.374   7.102   9.315 -0.1876 -0.2263  0.0413
14240SOL    HW144973   3.427   7.069   9.388  1.5517  0.3189 -0.9128
14240SOL    HW244974   3.367   7.196   9.332 -0.1833 -0.1763 -0.2335
14241SOL     OW44975  10.480   2.832   3.829  0.2397 -0.0595  0.5483
14241SOL    HW144976  10.390   2.812   3.852  0.5027 -0.9836  0.8359
14241SOL    HW244977  10.522   2.746   3.818  1.2756  0.3278  1.2129
14242SOL     OW44978   1.095   1.220   3.956  0.3418 -0.1510  0.4973
14242SOL    HW144979   1.009   1.260   3.946 -0.4343 -1.9361 -0.3529
14242SOL    HW244980   1.097   1.190   4.047 -0.0341 -0.3065  0.4562
14243SOL     OW44981   9.200  10.207   8.073  0.4326 -0.1295 -0.2969
14243SOL    HW144982   9.240  10.270   8.014 -0.2297  0.4887 -0.0989
14243SOL    HW244983   9.166  10.259   8.145  2.3358 -0.9776  1.3030
14244SOL     OW44984   8.729   5.017   8.653  0.6265 -0.1849  0.0895
14244SOL    HW144985   8.650   4.982   8.610  0.0767 -0.4287  1.2527
14244SOL    HW244986   8.724   5.111   8.637 -0.4129 -0.0763  0.9282
14245SOL     OW44987   0.658   5.200   4.738  0.7280 -0.3016 -0.3425
14245SOL    HW144988   0.629   5.291   4.737  0.6297 -0.3208  0.1777
14245SOL    HW244989   0.589   5.153   4.691  0.0066 -0.3092  0.6698
14246SOL     OW44990   6.653   0.784   2.508  0.0079 -0.1415  0.0205
14246SOL    HW144991   6.582   0.842   2.480 -0.4870 -0.6213  0.2556
14246SOL    HW244992   6.645   0.782   2.604  0.7289  0.2880  0.0967
14247SOL     OW44993   1.863   1.105   4.377  0.4606 -0.4630  0.5390
14247SOL    HW144994   1.878   1.200   4.380  0.8362 -0.5212  0.5172
14247SOL    HW244995   1.879   1.081   4.285  0.4281 -0.5560  0.5577
14248SOL     OW44996   5.370   9.134   9.360 -0.2127  0.1411 -0.1411
14248SOL    HW144997   5.388   9.042   9.340 -0.0207 -0.0070  0.6879
14248SOL    HW244998   5.327   9.132   9.445  0.6663  0.8826  0.3349
14249SOL     OW44999   0.841   7.730   0.594  0.2737 -0.0650 -0.1555
14249SOL    HW145000   0.898   7.741   0.670 -0.5767 -0.6507  0.5744
14249SOL    HW245001   0.760   7.776   0.617 -0.0795 -0.4568 -0.6029
14250SOL     OW45002  10.008   8.936   8.866 -0.6944  0.8109 -0.1067
14250SOL    HW145003   9.979   8.997   8.798  0.3800 -0.2290 -1.5637
14250SOL    HW245004  10.094   8.969   8.892 -0.2729  0.1544 -0.6355
14251SOL     OW45005   9.128   2.826   9.755  0.2904 -0.1595 -0.0696
14251SOL    HW145006   9.166   2.889   9.694  1.3893 -1.3716 -0.6766
14251SOL    HW245007   9.053   2.872   9.793  1.5533  1.8259  0.1553
14252SOL     OW45008   0.009   6.154   6.087  0.3207 -0.6524  0.7377
14252SOL    HW145009   0.084   6.113   6.130  1.8702 -0.5353 -1.6591
14252SOL    HW245010   0.030   6.247   6.087 -0.6295 -0.4244  1.4542
14253SOL     OW45011   6.686   9.744   2.465  0.1765 -0.0877  0.3972
14253SOL    HW145012   6.774   9.775   2.443  0.7827 -0.9210  1.5627
14253SOL    HW245013   6.670   9.672   2.405  0.4508 -0.1938  0.4515
14254SOL     OW45014   7.926   0.255   7.702  0.3535  0.1795 -0.4877
14254SOL    HW145015   7.970   0.319   7.647 -0.0057  0.0371 -0.9462
14254SOL    HW245016   7.987   0.181   7.707 -0.5834 -0.8223 -2.6959
14255SOL     OW45017   0.397   3.397   4.315 -0.0508 -0.2025  0.3010
14255SOL    HW145018   0.337   3.331   4.351  0.1589  0.4733  1.9474
14255SOL    HW245019   0.484   3.358   4.326 -0.0580 -0.5291 -0.6851
14256SOL     OW45020   6.513   3.003   5.398  0.1081 -0.0779 -0.3108
14256SOL    HW145021   6.517   3.069   5.328 -0.7263  0.3469  0.0304
14256SOL    HW245022   6.515   3.054   5.479  1.6657 -0.5951  0.0188
14257SOL     OW45023   8.299   3.913   2.666 -0.6287  0.0843 -0.3284
14257SOL    HW145024   8.221   3.961   2.694 -1.1083  0.1588 -1.7378
14257SOL    HW245025   8.265   3.843   2.610  0.3778  0.8798 -1.9996
14258SOL     OW45026   0.324   3.582   4.509 -0.7086  0.0604  0.2416
14258SOL    HW145027   0.275   3.523   4.566  0.2403 -1.2444 -0.2360
14258SOL    HW245028   0.340   3.530   4.430 -0.5539  1.2561 -0.5411
14259SOL     OW45029   9.844   8.752   6.155  0.1842 -0.6986  0.3971
14259SOL    HW145030   9.776   8.685   6.146 -1.3827  0.8590  0.0510
14259SOL    HW245031   9.797   8.834   6.144  2.3660  0.4130 -1.2695
14260SOL     OW45032   1.171   7.809   6.402 -0.4204 -0.0960 -0.1793
14260SOL    HW145033   1.252   7.829   6.449 -0.5677  0.2900 -0.0882
14260SOL    HW245034   1.145   7.892   6.362 -0.8108 -0.2022 -0.1502
14261SOL     OW45035   6.925  10.299   6.580 -0.5076  0.7158  0.0786
14261SOL    HW145036   6.882  10.321   6.497 -0.4449  0.5307 -0.0028
14261SOL    HW245037   6.885  10.216   6.607  0.5117  0.0071 -0.5118
14262SOL     OW45038   0.842   9.563   0.138  0.1307 -0.2448 -0.2107
14262SOL    HW145039   0.883   9.612   0.210  1.1843 -1.2796 -0.0632
14262SOL    HW245040   0.892   9.588   0.061 -2.3152  2.4941 -1.0760
14263SOL     OW45041   6.956   2.625   2.234  0.0409  0.0720 -0.2798
14263SOL    HW145042   6.881   2.576   2.198  0.2759 -1.7508  1.4771
14263SOL    HW245043   6.917   2.681   2.301  0.1531 -0.3966  0.1849
14264SOL     OW45044   4.799   8.635   7.771 -0.2193  0.0274 -0.3925
14264SOL    HW145045   4.786   8.637   7.866 -1.9328 -0.5947 -0.5924
14264SOL    HW245046   4.846   8.717   7.752  0.1687  0.1448  0.9807
14265SOL     OW45047   5.438  10.648   0.759  0.4106  0.7821  0.3193
14265SOL    HW145048   5.394  10.719   0.712 -2.0223 -0.7845  0.0393
14265SOL    HW245049   5.450  10.580   0.693  0.6474  0.0867  1.0631
14266SOL     OW45050   6.445   4.459   2.579  0.6916 -0.2935  0.0165
14266SOL    HW145051   6.401   4.455   2.494 -1.1307  0.6811  0.8493
14266SOL    HW245052   6.413   4.382   2.626  0.7731 -0.2101  0.2105
14267SOL     OW45053  10.282   2.694   5.800 -0.7197  0.6918  0.6175
14267SOL    HW145054  10.241   2.753   5.864 -0.1732 -0.5604  2.1974
14267SOL    HW245055  10.251   2.607   5.824  1.5173 -0.1141  0.8360
14268SOL     OW45056   1.268   2.192  10.253  1.0538  0.1147 -0.1271
14268SOL    HW145057   1.247   2.139  10.330  0.2801  0.1964 -0.2751
14268SOL    HW245058   1.352   2.159  10.223  1.8961  0.7953  1.3843
14269SOL     OW45059   8.131   0.229   9.132 -0.0174  0.0628  0.0345
14269SOL    HW145060   8.171   0.230   9.045  1.0925  2.1493  0.5067
14269SOL    HW245061   8.037   0.222   9.115 -0.0274  2.6410 -1.5197
14270SOL     OW45062   2.694   9.718   1.269  0.1464 -0.0541 -0.6814
14270SOL    HW145063   2.734   9.742   1.185 -1.7794 -0.0740 -1.6511
14270SOL    HW245064   2.670   9.626   1.258 -2.4940  0.6255 -1.1495
14271SOL     OW45065   9.821   6.440   9.823  0.0251 -0.3932  0.4892
14271SOL    HW145066   9.732   6.463   9.852  0.4618  1.9000  0.1864
14271SOL    HW245067   9.878   6.490   9.880  1.1012 -0.8412 -0.1685
14272SOL     OW45068   2.282   8.133   8.099  0.3476 -0.1132  0.2533
14272SOL    HW145069   2.200   8.149   8.054  1.9827  0.9253 -2.6666
14272SOL    HW245070   2.266   8.056   8.153 -3.5771  2.2704  2.9368
14273SOL     OW45071   7.612   0.872   1.751 -1.0073 -0.3559  0.1783
14273SOL    HW145072   7.706   0.859   1.738 -0.8487 -0.3677  1.2537
14273SOL    HW245073   7.578   0.887   1.663 -0.0667 -0.7680 -0.2724
14274SOL     OW45074   0.425   1.406   2.600 -0.2880 -0.1889 -0.5719
14274SOL    HW145075   0.514   1.439   2.602 -0.4567  0.2608  0.7135
14274SOL    HW245076   0.434   1.311   2.591  0.3913 -0.2899  0.8022
14275SOL     OW45077   1.098   9.781   3.868 -0.7281  0.6886 -0.1524
14275SOL    HW145078   1.152   9.834   3.809  0.4328 -0.1447  0.1127
14275SOL    HW245079   1.115   9.691   3.841 -2.2179  0.4139 -0.2245
14276SOL     OW45080   2.073   5.896   6.472  0.1063 -0.0277 -0.1344
14276SOL    HW145081   2.142   5.923   6.412  1.0650 -0.3029  0.8295
14276SOL    HW245082   2.009   5.852   6.416  0.0618  1.3657 -1.2380
14277SOL     OW45083   2.130   7.729   6.272  0.1698 -0.0505 -0.4036
14277SOL    HW145084   2.218   7.699   6.252 -0.3815 -0.3879 -2.5671
14277SOL    HW245085   2.134   7.825   6.262  0.6652  0.1286  1.2368
14278SOL     OW45086   3.347   0.634   7.659 -0.1592  0.2049  0.3498
14278SOL    HW145087   3.440   0.653   7.665  0.2648 -1.7690  0.5912
14278SOL    HW245088   3.305   0.705   7.706  1.3081  0.4191  1.3890
14279SOL     OW45089   4.908  10.380   9.710  0.8182  0.4399  0.3223
14279SOL    HW145090   4.964  10.428   9.649  0.4314 -0.3403 -0.6750
14279SOL    HW245091   4.860  10.318   9.655 -0.8710  0.9274  1.1593
14280SOL     OW45092   1.909   9.405   8.817  0.3101  0.3419  0.6815
14280SOL    HW145093   1.927   9.494   8.788  2.6511  0.0255  0.9809
14280SOL    HW245094   1.984   9.354   8.786 -0.1676 -1.2016  1.9479
14281SOL     OW45095   6.282   8.089   2.733 -0.4525  0.6760 -0.0516
14281SOL    HW145096   6.304   8.181   2.744  1.7598  0.0947  0.9444
14281SOL    HW245097   6.258   8.081   2.640  0.0352  2.1112 -0.3259
14282SOL     OW45098   3.090   5.314   1.924 -0.1329  0.1559 -0.1680
14282SOL    HW145099   3.012   5.273   1.885 -1.1053  1.7609  0.0002
14282SOL    HW245100   3.084   5.406   1.898  1.6452  0.3379 -0.0064
14283SOL     OW45101   0.231   3.525   8.493  0.4416 -0.0168  0.0720
14283SOL    HW145102   0.190   3.490   8.414  0.0806  0.3324  0.0979
14283SOL    HW245103   0.171   3.502   8.564  0.4273  0.2584  0.1511
14284SOL     OW45104   9.184   7.929   9.588  0.4220 -0.0756 -0.1097
14284SOL    HW145105   9.249   7.948   9.655  1.8536  2.2295 -1.9693
14284SOL    HW245106   9.171   8.012   9.543 -1.2006 -1.2796 -2.0623
14285SOL     OW45107   1.970   5.321   7.200  0.0942 -0.1083 -0.0451
14285SOL    HW145108   2.026   5.398   7.203 -1.4777  1.0679  0.8889
14285SOL    HW245109   1.950   5.302   7.292 -1.2498 -0.2983 -0.3519
14286SOL     OW45110  10.206   8.407   2.932 -0.2265  0.2596 -0.3947
14286SOL    HW145111  10.295   8.374   2.942 -0.5762 -0.1888  1.8882
14286SOL    HW245112  10.199   8.479   2.996 -1.2537  0.8475 -1.1264
14287SOL     OW45113   0.746   1.112   2.201 -0.2279  0.1204  0.7559
14287SOL    HW145114   0.754   1.081   2.110  0.8339 -0.2413  0.9615
14287SOL    HW245115   0.657   1.146   2.206 -0.2038  0.4335 -0.5124
14288SOL     OW45116   4.507   4.933   2.756  0.0458  0.6171 -0.0554
14288SOL    HW145117   4.433   4.929   2.815  0.6878  1.3650  0.8296
14288SOL    HW245118   4.471   4.968   2.674 -0.8001 -0.1968 -0.0444
14289SOL     OW45119   5.568   1.559   4.333  0.2630 -0.1926  0.1664
14289SOL    HW145120   5.610   1.643   4.315 -1.4967  0.1213 -3.3801
14289SOL    HW245121   5.474   1.579   4.337 -0.0195 -1.4603  3.6420
14290SOL     OW45122   6.502   1.462   6.879 -0.0346 -0.2303 -0.4343
14290SOL    HW145123   6.507   1.373   6.844 -1.4875 -0.4852 -0.0414
14290SOL    HW245124   6.461   1.452   6.965 -2.6910  1.0414 -1.4425
14291SOL     OW45125   1.181   1.287  10.147 -0.3728  0.4821 -0.1185
14291SOL    HW145126   1.208   1.281  10.239 -0.3199  0.3745 -0.1410
14291SOL    HW245127   1.173   1.196  10.118  1.2836  0.4822 -0.6997
14292SOL     OW45128  10.519   1.831   5.264 -0.3408  0.4521 -0.2791
14292SOL    HW145129  10.511   1.903   5.326  1.9313 -0.8781  1.7827
14292SOL    HW245130  10.584   1.861   5.200  2.3103 -0.4030  1.8404
14293SOL     OW45131   7.030   4.516   6.239  0.0244  0.0123  0.4541
14293SOL    HW145132   6.955   4.563   6.275 -0.2582  0.5708 -0.7952
14293SOL    HW245133   7.070   4.578   6.178  0.0306 -1.1371 -0.7476
14294SOL     OW45134   5.493  10.419   9.937  0.6009  0.1779  0.4612
14294SOL    HW145135   5.522  10.497   9.891  0.5999 -1.1705 -2.0356
14294SOL    HW245136   5.405  10.403   9.904  1.6099 -2.3776 -1.4260
14295SOL     OW45137   6.468   1.216   6.742  0.2148 -0.0961  0.6969
14295SOL    HW145138   6.475   1.169   6.659  2.0072  0.9437  0.1842
14295SOL    HW245139   6.386   1.186   6.780 -1.6014  0.7069 -2.2713
14296SOL     OW45140  10.331   9.801   8.735  0.2177 -0.0360 -0.3774
14296SOL    HW145141  10.322   9.712   8.700  3.3146 -0.5249 -0.2515
14296SOL    HW245142  10.306   9.858   8.662 -1.0889 -0.9906 -0.7077
14297SOL     OW45143   7.763  10.430   9.946 -0.0660 -0.4886  0.1796
14297SOL    HW145144   7.771  10.511   9.996 -1.1754 -1.2730  1.7006
14297SOL    HW245145   7.760  10.458   9.855  0.9478  1.0641  0.5865
14298SOL     OW45146   6.304   0.801   2.513  0.1483 -0.1526 -0.2310
14298SOL    HW145147   6.348   0.726   2.473  0.4600  0.7396 -1.6257
14298SOL    HW245148   6.236   0.825   2.451  1.3276  1.9441 -0.8045
14299SOL     OW45149   1.908   7.622   2.724 -0.0537 -0.0823 -0.3430
14299SOL    HW145150   1.948   7.650   2.642  2.4374  1.2914  1.2161
14299SOL    HW245151   1.923   7.695   2.784 -2.6019 -0.6555  1.1490
14300SOL     OW45152   0.768  10.381   7.247  0.6350  0.1078  0.5703
14300SOL    HW145153   0.737  10.386   7.337  0.7594  1.7040  0.5523
14300SOL    HW245154   0.697  10.419   7.195  0.6447 -0.6245  0.0037
14301SOL     OW45155   4.422   5.674   4.920  0.0313  0.3283 -0.2035
14301SOL    HW145156   4.346   5.619   4.900 -0.1524  0.5393 -0.0824
14301SOL    HW245157   4.427   5.675   5.015  1.5983 -1.6316 -0.1982
14302SOL     OW45158   9.760   7.251   2.762  0.0706  0.1125 -0.4390
14302SOL    HW145159   9.781   7.217   2.849  0.3209 -0.1333 -0.5957
14302SOL    HW245160   9.693   7.318   2.779 -0.2698 -0.3013 -0.1095
14303SOL     OW45161   0.631   0.140   2.986  0.1691 -0.0051  0.1142
14303SOL    HW145162   0.592   0.091   2.914 -0.8674  1.8876 -0.6796
14303SOL    HW245163   0.724   0.114   2.985  0.0741 -0.4116 -1.5762
14304SOL     OW45164   3.839   5.057   9.378 -0.0502  0.4531 -0.0665
14304SOL    HW145165   3.923   5.044   9.424 -0.1883  2.6604  0.9575
14304SOL    HW245166   3.821   4.973   9.337  2.9599  0.0485 -0.8260
14305SOL     OW45167  10.570   7.234   4.669 -0.0895 -0.1430  0.2632
14305SOL    HW145168  10.548   7.187   4.588  0.8602  2.0294 -1.3606
14305SOL    HW245169  10.485   7.256   4.707 -0.5696 -0.5665 -0.5318
14306SOL     OW45170   4.417   2.390  10.148  0.1264  0.0115  0.3729
14306SOL    HW145171   4.421   2.485  10.162 -0.2460  0.2200 -0.7785
14306SOL    HW245172   4.491   2.371  10.091 -0.0963 -0.2980  0.1813
14307SOL     OW45173   3.093   5.254   1.343 -0.1023 -0.3207  0.0497
14307SOL    HW145174   3.050   5.246   1.428 -0.4793 -0.4193 -0.1482
14307SOL    HW245175   3.106   5.348   1.331 -0.4826 -0.2748  0.0002
14308SOL     OW45176   7.999   4.026   6.254  0.2801 -1.1017  0.1893
14308SOL    HW145177   8.028   4.113   6.282 -0.3511 -0.9397  0.3520
14308SOL    HW245178   8.017   4.023   6.160 -1.3351 -0.1175 -0.1766
14309SOL     OW45179   3.473   7.236   1.255 -0.2712  1.1296 -0.4964
14309SOL    HW145180   3.550   7.293   1.262 -0.0487  0.6639  1.3211
14309SOL    HW245181   3.453   7.212   1.346 -1.8305  0.2625 -1.0405
14310SOL     OW45182   9.094   7.412   4.362  0.3863  0.2707 -0.0472
14310SOL    HW145183   9.141   7.329   4.360 -0.1410 -0.0638  0.8032
14310SOL    HW245184   9.044   7.409   4.444 -1.7127  0.2642 -1.2506
14311SOL     OW45185   5.233   9.660   1.773  0.1807  0.3976 -0.3979
14311SOL    HW145186   5.204   9.743   1.734  0.0915  0.7770  0.4567
14311SOL    HW245187   5.224   9.673   1.867 -1.2974 -1.1345 -0.2777
14312SOL     OW45188   7.952   1.485  10.582  0.3973  0.5851 -1.2073
14312SOL    HW145189   7.924   1.473  10.673  1.6334  0.7314 -0.7932
14312SOL    HW245190   7.939   1.399  10.541 -0.4430  0.5957 -0.9955
14313SOL     OW45191   5.633   3.251   9.608 -0.0799  0.2201 -0.0330
14313SOL    HW145192   5.597   3.340   9.612  0.0949  0.3519 -1.0096
14313SOL    HW245193   5.725   3.264   9.586 -0.0588 -0.2060 -0.1993
14314SOL     OW45194   3.047   5.899   1.365  0.0132 -0.2376  0.3732
14314SOL    HW145195   3.111   5.949   1.416  0.8689 -1.4186  0.4921
14314SOL    HW245196   2.963   5.918   1.406  0.2442  1.4508  0.1308
14315SOL     OW45197   1.576   0.258   0.399 -0.2592  0.3762  0.4505
14315SOL    HW145198   1.530   0.234   0.318  0.6082 -0.2546  0.1245
14315SOL    HW245199   1.624   0.338   0.376 -1.2240  1.0825  0.8154
14316SOL     OW45200   9.336   3.970   8.526 -0.5984 -0.0339 -0.1460
14316SOL    HW145201   9.256   3.933   8.565  0.7083 -1.2044  1.5656
14316SOL    HW245202   9.350   4.052   8.575 -0.2117 -0.3342  0.2472
14317SOL     OW45203   1.545   3.328   9.533 -0.3991 -0.0667 -0.9169
14317SOL    HW145204   1.500   3.389   9.591  1.7759 -0.2048  1.0589
14317SOL    HW245205   1.542   3.244   9.578  1.9441 -0.0310 -0.5612
14318SOL     OW45206  10.289   4.377   3.848 -0.5562 -0.6106 -0.1307
14318SOL    HW145207  10.370   4.401   3.803  0.4037 -1.0327  1.3126
14318SOL    HW245208  10.220   4.415   3.794  0.6357  0.4469 -0.9715
14319SOL     OW45209   7.315   8.136   3.065  0.2282 -0.0539  0.3426
14319SOL    HW145210   7.232   8.092   3.081  0.8570 -0.6190  2.2779
14319SOL    HW245211   7.375   8.101   3.131  2.0344  0.3181 -0.9996
14320SOL     OW45212   4.720   1.876   1.331 -0.0020 -0.0047 -0.1452
14320SOL    HW145213   4.810   1.887   1.301 -0.0633  0.0239 -0.3237
14320SOL    HW245214   4.728   1.835   1.417  0.1524 -1.7692 -0.9514
14321SOL     OW45215   9.978   9.676   0.071  0.3198  0.2568  0.8330
14321SOL    HW145216   9.989   9.596   0.122 -0.2744  0.1816  0.8514
14321SOL    HW245217   9.900   9.718   0.107  0.2347  0.5010  0.3800
14322SOL     OW45218   4.426   8.453   6.452  0.3031 -0.0186  0.2069
14322SOL    HW145219   4.399   8.364   6.476  1.0978 -0.5877 -0.9188
14322SOL    HW245220   4.345   8.495   6.423 -0.2457 -0.0576  1.6243
14323SOL     OW45221   0.875   4.782   9.816  0.1446 -0.0274 -0.3672
14323SOL    HW145222   0.894   4.839   9.742  2.5079 -0.9046 -0.5241
14323SOL    HW245223   0.862   4.842   9.890 -2.0267  0.8426 -1.3650
14324SOL     OW45224   7.129   5.617   9.838  0.2777 -0.6798 -0.4074
14324SOL    HW145225   7.077   5.697   9.837  0.2420 -0.6954 -1.3451
14324SOL    HW245226   7.159   5.608   9.928  0.9106  0.7899 -0.4512
14325SOL     OW45227   8.909   1.518   7.192 -0.2722 -0.1155 -0.5815
14325SOL    HW145228   8.964   1.442   7.210  0.1504  0.3749  0.2417
14325SOL    HW245229   8.845   1.486   7.128  0.6532 -0.8185 -1.1786
14326SOL     OW45230   2.435   6.509   5.233 -0.2774 -0.0422  0.4384
14326SOL    HW145231   2.471   6.425   5.262  1.3556  0.2561 -0.6105
14326SOL    HW245232   2.478   6.574   5.288  1.6965  0.4029 -1.5058
14327SOL     OW45233   7.360   7.884   2.849 -0.9821 -0.1726 -0.0596
14327SOL    HW145234   7.292   7.859   2.912 -1.8874  2.4494  0.1502
14327SOL    HW245235   7.409   7.953   2.894 -0.1391  0.1190 -1.3818
14328SOL     OW45236   3.416   5.919   8.077  0.4800  0.7588  0.2099
14328SOL    HW145237   3.349   5.987   8.076 -0.1443  0.1724  0.7659
14328SOL    HW245238   3.418   5.888   8.167  2.2974  1.5099  0.4805
14329SOL     OW45239   1.934   2.517   5.797  0.0156  0.2105  0.2294
14329SOL    HW145240   1.862   2.565   5.757 -1.8263 -2.4307  0.1010
14329SOL    HW245241   1.966   2.459   5.728  1.9768  0.9388  0.4514
14330SOL     OW45242   0.494   8.084   1.619 -0.1733 -0.2612 -0.7754
14330SOL    HW145243   0.575   8.134   1.613  0.3519 -1.1791 -1.6709
14330SOL    HW245244   0.444   8.109   1.541 -1.4449  1.3946  0.4842
14331SOL     OW45245   2.079   0.519   2.956  0.5184 -0.0697  0.1162
14331SOL    HW145246   1.995   0.551   2.989  0.4167 -0.5931  0.3874
14331SOL    HW245247   2.087   0.431   2.994  1.5295  0.2561  0.7050
14332SOL     OW45248  10.369   8.963   9.769  0.0186 -0.7970 -0.4269
14332SOL    HW145249  10.398   8.872   9.758  3.6689  0.2504 -0.4559
14332SOL    HW245250  10.281   8.964   9.730 -0.2256 -4.2821 -0.3437
14333SOL     OW45251   1.624   7.546   8.014  0.7688 -0.2189 -0.8530
14333SOL    HW145252   1.605   7.501   7.931  1.2987 -1.5382 -0.2879
14333SOL    HW245253   1.684   7.617   7.989  2.2037 -1.5653 -1.4361
14334SOL     OW45254   3.980   2.211   5.858  0.4509 -0.0633  0.2157
14334SOL    HW145255   3.941   2.189   5.773  0.0118 -0.4496  0.5082
14334SOL    HW245256   4.038   2.137   5.878  1.0790  0.3512 -0.0618
14335SOL     OW45257   3.322   0.992   0.377  0.2851  0.2028 -0.0074
14335SOL    HW145258   3.347   1.043   0.455  3.9665 -0.8297 -0.2944
14335SOL    HW245259   3.278   0.914   0.413  0.7240  0.3872  0.9862
14336SOL     OW45260   5.414   8.375   8.159 -0.2776  0.2708 -0.1947
14336SOL    HW145261   5.382   8.436   8.226 -1.1396  0.5487 -0.8361
14336SOL    HW245262   5.461   8.308   8.209 -2.0597 -0.2865  0.8669
14337SOL     OW45263  10.559   5.588   3.481 -0.0713  0.6786  0.2147
14337SOL    HW145264  10.636   5.611   3.532 -0.1174  1.8350 -0.1986
14337SOL    HW245265  10.586   5.602   3.390  0.3929 -2.4709 -0.2454
14338SOL     OW45266   1.738   3.399   0.922 -0.1002 -0.4616  0.2355
14338SOL    HW145267   1.768   3.318   0.883  0.5838  0.0060 -0.2221
14338SOL    HW245268   1.642   3.395   0.916 -0.1367 -1.7270  1.2510
14339SOL     OW45269   8.281   5.049   2.458 -0.3523 -0.0463  0.0862
14339SOL    HW145270   8.207   4.990   2.443  0.0565 -0.6330  0.3161
14339SOL    HW245271   8.248   5.136   2.435 -0.8523 -0.4145 -0.6270
14340SOL     OW45272   3.537   9.354   7.240  0.3496  0.6556  0.4201
14340SOL    HW145273   3.509   9.264   7.227 -0.0308  1.1076 -2.5221
14340SOL    HW245274   3.471   9.392   7.298 -0.2227 -0.5670  0.6067
14341SOL     OW45275   1.876   4.023  10.592 -0.1432 -1.0337 -0.0929
14341SOL    HW145276   1.969   4.009  10.573 -0.1527 -1.5695  0.2495
14341SOL    HW245277   1.861   3.977  10.675  0.1493  2.0819  1.8601
14342SOL     OW45278   9.112   2.960   7.917  0.0166  0.0202  0.1912
14342SOL    HW145279   9.083   2.885   7.967  1.3082  0.3051  1.4312
14342SOL    HW245280   9.130   3.028   7.982 -0.1484  1.0750 -0.8180
14343SOL     OW45281   1.405  10.064   5.499  0.0273  0.8198  0.4056
14343SOL    HW145282   1.468  10.133   5.518  0.6436  0.3171  0.2381
14343SOL    HW245283   1.351  10.099   5.428 -0.1427  1.4064  0.8174
14344SOL     OW45284   3.982   0.551   4.920  0.3272  0.6520 -0.0679
14344SOL    HW145285   3.915   0.616   4.944  1.9022  1.6864  1.8313
14344SOL    HW245286   3.943   0.502   4.848 -3.3316 -0.2088  2.2511
14345SOL     OW45287   8.703   5.785   2.611  0.1898  0.1419  0.4648
14345SOL    HW145288   8.770   5.816   2.550  0.4488  0.0781  0.7155
14345SOL    HW245289   8.720   5.691   2.620 -1.4725 -0.4199 -1.4199
14346SOL     OW45290   6.843   3.404   3.454  0.0227 -0.2285 -0.3161
14346SOL    HW145291   6.893   3.328   3.425 -0.1703  0.1000 -1.5932
14346SOL    HW245292   6.782   3.370   3.519  0.7500 -0.9422  0.0023
14347SOL     OW45293  10.212   1.904   4.014  0.5657  0.3784  0.2399
14347SOL    HW145294  10.306   1.899   3.996  0.4286 -1.0159 -0.1610
14347SOL    HW245295  10.207   1.947   4.100  1.5870  0.0375  0.4907
14348SOL     OW45296   8.914   0.867   5.716 -0.1473  0.6059  0.3493
14348SOL    HW145297   9.002   0.860   5.754 -0.0749 -0.1795  0.0362
14348SOL    HW245298   8.864   0.797   5.758 -0.3290  0.3479 -0.2900
14349SOL     OW45299   7.884  10.542   7.058 -0.4324 -0.1667 -0.3736
14349SOL    HW145300   7.932  10.621   7.085 -2.9069  1.4952 -0.4591
14349SOL    HW245301   7.830  10.520   7.134 -1.5076 -0.3022 -1.1470
14350SOL     OW45302   3.487   5.723   1.057 -0.2302 -0.1678  0.5093
14350SOL    HW145303   3.488   5.818   1.066 -2.4497 -0.1106  0.7015
14350SOL    HW245304   3.406   5.704   1.008  0.5517 -1.9170 -0.2037
14351SOL     OW45305   0.971   9.684   7.128  0.2851 -0.6442 -0.0521
14351SOL    HW145306   0.936   9.680   7.039  1.0465 -2.5906 -0.3347
14351SOL    HW245307   0.898   9.657   7.184  0.2328 -0.9624 -0.2669
14352SOL     OW45308   4.792  10.384   0.329  0.4377 -0.2440 -0.3549
14352SOL    HW145309   4.724  10.441   0.294 -0.5545 -1.5065 -0.5494
14352SOL    HW245310   4.841  10.355   0.252  1.8183  1.3570 -0.1469
14353SOL     OW45311   4.871   4.196   4.780 -0.6903 -0.5127 -0.0064
14353SOL    HW145312   4.959   4.159   4.777 -0.8148 -0.8066 -0.0686
14353SOL    HW245313   4.872   4.265   4.714 -0.9873 -1.5975 -1.1909
14354SOL     OW45314   9.002   1.384   0.720 -0.1871  0.3268  0.2981
14354SOL    HW145315   9.022   1.475   0.744 -2.4289  0.7817  0.7212
14354SOL    HW245316   9.016   1.334   0.801 -0.7826  0.6377  0.6005
14355SOL     OW45317   7.930   9.297   3.357  0.4098  0.6587  0.0228
14355SOL    HW145318   7.957   9.346   3.279  2.3488 -2.3292 -1.3738
14355SOL    HW245319   7.835   9.289   3.350  0.6858 -1.2038 -3.2122
14356SOL     OW45320   8.972   9.915   0.637  0.1427  0.2605 -0.0195
14356SOL    HW145321   8.986   9.959   0.554 -1.7990  0.3522 -0.3339
14356SOL    HW245322   8.970   9.821   0.615 -0.7240  0.3039 -0.1447
14357SOL     OW45323   1.044   5.510   4.761  0.3311  0.0934 -0.7408
14357SOL    HW145324   1.019   5.466   4.843 -1.4522 -0.1566 -1.3636
14357SOL    HW245325   0.984   5.584   4.755  0.5266  0.1747 -1.7533
14358SOL     OW45326   7.307   3.493   0.294 -0.0581  0.3253  0.7881
14358SOL    HW145327   7.239   3.430   0.269  1.4207 -1.4812  1.0389
14358SOL    HW245328   7.304   3.560   0.226 -0.8403 -0.7052 -0.2474
14359SOL     OW45329   0.231   9.161   6.476 -0.9260 -0.9224  0.6138
14359SOL    HW145330   0.234   9.253   6.451 -0.1958 -1.7513 -2.8662
14359SOL    HW245331   0.143   9.149   6.512 -0.4213  1.4314  2.9637
14360SOL     OW45332   0.135  10.393   0.995  0.4918  0.1669  0.0030
14360SOL    HW145333   0.056  10.447   0.990 -0.2022 -0.6762  1.2406
14360SOL    HW245334   0.114  10.315   0.943 -0.4852 -1.1621  2.2249
14361SOL     OW45335   3.788  10.631   8.809  0.2028  0.4596  0.5729
14361SOL    HW145336   3.738  10.675   8.878 -0.7033  0.8035 -0.2697
14361SOL    HW245337   3.742  10.548   8.795  0.1485  0.5615  0.1264
14362SOL     OW45338   6.895   5.571   7.247  0.2608 -0.0343 -0.2182
14362SOL    HW145339   6.866   5.576   7.337 -0.0961 -0.5601 -0.2975
14362SOL    HW245340   6.983   5.609   7.247  0.3810 -0.3087  0.4068
14363SOL     OW45341   2.403   3.245   2.696 -0.5776 -0.5014  0.7021
14363SOL    HW145342   2.348   3.180   2.652  0.6575 -0.0724 -1.5732
14363SOL    HW245343   2.393   3.325   2.645  2.8404 -0.6426 -0.4424
14364SOL     OW45344   8.141   7.135   4.181  0.3572  0.1073 -0.0126
14364SOL    HW145345   8.184   7.196   4.240 -1.6919 -0.9854  2.8506
14364SOL    HW245346   8.063   7.182   4.150 -0.0065 -0.2372  0.3651
14365SOL     OW45347   5.901   9.238   9.066  0.9362 -0.2530 -0.2963
14365SOL    HW145348   5.969   9.172   9.081  0.3447 -0.8263 -0.0757
14365SOL    HW245349   5.854   9.206   8.989  2.8541  1.7613 -2.4652
14366SOL     OW45350  10.455   8.034   4.594 -0.0313 -0.0003 -0.0402
14366SOL    HW145351  10.527   7.985   4.553 -1.2824 -1.3996 -0.6482
14366SOL    HW245352  10.499   8.105   4.641  1.7095 -0.4940 -0.8205
14367SOL     OW45353   4.488  10.006   4.316 -0.4871  0.0300  0.2337
14367SOL    HW145354   4.456   9.951   4.244 -0.6577 -0.5890  0.7799
14367SOL    HW245355   4.469   9.956   4.395 -1.3342  1.1937  0.8015
14368SOL     OW45356   6.635   2.148  10.159 -0.2561 -0.0529 -0.1182
14368SOL    HW145357   6.576   2.172  10.230  0.1825  3.2836 -0.7371
14368SOL    HW245358   6.577   2.134  10.084 -0.4283  2.6001 -0.5693
14369SOL     OW45359   4.918   7.836   8.441 -0.6945  0.2195 -0.1710
14369SOL    HW145360   4.865   7.773   8.393 -0.7680 -0.2435  0.5012
14369SOL    HW245361   4.927   7.798   8.528  2.1762 -0.5913 -0.7082
14370SOL     OW45362  10.347   1.606   0.661  0.3871  0.0558  0.0485
14370SOL    HW145363  10.404   1.591   0.736  1.3762  1.8612 -0.2758
14370SOL    HW245364  10.405   1.643   0.594 -0.2612 -2.4172 -2.0024
14371SOL     OW45365   7.344   2.972   0.252  0.0099  0.0381 -0.1671
14371SOL    HW145366   7.279   2.940   0.190 -0.8354 -1.2268  1.2897
14371SOL    HW245367   7.296   3.035   0.307  0.3247  0.0041  0.1538
14372SOL     OW45368   1.139   6.156   7.643  0.3809 -0.3445  0.1156
14372SOL    HW145369   1.178   6.177   7.728 -1.0152 -1.5743  1.1113
14372SOL    HW245370   1.210   6.168   7.580  1.5038  0.3917  1.4778
14373SOL     OW45371   8.818   0.534   8.221 -0.5838 -0.3365 -0.0454
14373SOL    HW145372   8.872   0.497   8.290 -0.2709  0.0503 -0.0801
14373SOL    HW245373   8.815   0.627   8.240  2.5487  0.4740 -2.5132
14374SOL     OW45374   9.765   1.997   2.131 -0.0976 -0.2726  0.5031
14374SOL    HW145375   9.733   2.080   2.097  3.0821  0.7277 -0.3826
14374SOL    HW245376   9.810   2.020   2.213  1.2841 -0.9814 -0.0246
14375SOL     OW45377   1.841  10.125   4.776  0.0718 -0.0104  0.0776
14375SOL    HW145378   1.768  10.118   4.837  0.5752  0.0814  0.7035
14375SOL    HW245379   1.846  10.219   4.755 -0.6192 -0.1520 -0.7593
14376SOL     OW45380   2.117   0.039   6.245  0.2615  0.0423  0.2291
14376SOL    HW145381   2.041   0.097   6.239  1.3406  1.4917 -0.1166
14376SOL    HW245382   2.097  -0.019   6.319 -0.1359  2.0368  1.7944
14377SOL     OW45383   1.475   7.321   9.138 -0.0857 -0.1988 -0.2008
14377SOL    HW145384   1.517   7.237   9.157 -0.9761 -0.5190  0.4572
14377SOL    HW245385   1.415   7.333   9.211  1.6973  2.1648  1.0110
14378SOL     OW45386   4.055   3.877   6.962 -0.5476  0.5083 -0.1874
14378SOL    HW145387   4.149   3.897   6.956 -0.4723  0.2416  0.0571
14378SOL    HW245388   4.029   3.912   7.047  0.4734 -3.7437  2.2275
14379SOL     OW45389   3.577   8.158   2.819 -0.0193 -1.1030  0.1407
14379SOL    HW145390   3.553   8.070   2.847  0.7674 -1.7260 -1.0698
14379SOL    HW245391   3.550   8.163   2.727  0.5910 -0.3338 -0.0079
14380SOL     OW45392   7.763   6.916   3.142 -0.3033 -0.3846 -0.5408
14380SOL    HW145393   7.734   6.957   3.060 -1.4561 -1.7105 -0.8291
14380SOL    HW245394   7.715   6.963   3.210 -0.1837 -0.0073 -0.7120
14381SOL     OW45395   8.355   5.030   5.598  0.5657 -0.5551 -0.2296
14381SOL    HW145396   8.300   4.986   5.663  0.5275 -0.7977 -0.4251
14381SOL    HW245397   8.363   5.119   5.630  0.9873 -0.8110  0.3882
14382SOL     OW45398   3.513   3.061   1.847  0.1988  0.2324 -0.2358
14382SOL    HW145399   3.480   3.144   1.814 -1.1129 -0.1086  0.1550
14382SOL    HW245400   3.544   3.014   1.770 -0.1455  0.6036 -0.5995
14383SOL     OW45401   2.284   2.544   6.245 -0.1290  0.3956  0.1939
14383SOL    HW145402   2.220   2.484   6.207 -0.5516  0.5991  0.5714
14383SOL    HW245403   2.244   2.572   6.327  0.5361  0.3716  0.5324
14384SOL     OW45404   3.526   8.326   5.320  0.1304 -0.5810 -0.9738
14384SOL    HW145405   3.458   8.276   5.276 -2.5769  0.9132  1.1606
14384SOL    HW245406   3.519   8.300   5.412 -0.5299  2.6504  0.0039
14385SOL     OW45407   7.324   9.390  10.075  0.1318  0.3947  0.3337
14385SOL    HW145408   7.385   9.407  10.146 -0.7921 -0.8130  1.4694
14385SOL    HW245409   7.252   9.453  10.090 -0.9151 -1.0232  1.5887
14386SOL     OW45410   8.845   3.517  10.633  0.0243 -0.8490 -0.1490
14386SOL    HW145411   8.758   3.558  10.636  0.3090 -0.1016 -1.3686
14386SOL    HW245412   8.884   3.539  10.718 -0.4233  0.0842 -0.1713
14387SOL     OW45413   8.143   7.075   8.768 -0.3984  0.7726  0.1208
14387SOL    HW145414   8.119   7.048   8.857  1.6460 -0.4117  0.3709
14387SOL    HW245415   8.060   7.078   8.721 -1.3027 -0.8042  1.4914
14388SOL     OW45416   8.719   8.122   2.752  0.0363  0.1348  0.4712
14388SOL    HW145417   8.660   8.135   2.677  1.6150 -0.0001 -0.8387
14388SOL    HW245418   8.692   8.189   2.815 -0.6266  0.9789 -0.6686
14389SOL     OW45419   4.487   3.933   0.781 -0.7096 -0.2129  0.2479
14389SOL    HW145420   4.425   3.869   0.744 -1.4069  1.2106 -1.1623
14389SOL    HW245421   4.433   4.008   0.804  0.5308  1.3928 -1.7586
14390SOL     OW45422   0.354   4.038   9.076 -0.2348 -0.4295  0.3271
14390SOL    HW145423   0.410   4.004   9.006  1.0956  0.6028  0.8404
14390SOL    HW245424   0.274   3.986   9.070 -0.0840 -0.5218 -1.8142
14391SOL     OW45425   6.839   2.537   8.488  0.1944 -0.3817 -0.2119
14391SOL    HW145426   6.822   2.591   8.411 -0.5901  0.9994  0.8897
14391SOL    HW245427   6.812   2.449   8.462  0.9264 -0.1764 -1.8447
14392SOL     OW45428   1.791   9.494  10.602  0.4977  0.2731 -0.3219
14392SOL    HW145429   1.766   9.585  10.591  1.2898  0.4427 -0.7436
14392SOL    HW245430   1.853   9.495  10.675  0.1664  0.0052 -0.0286
14393SOL     OW45431   3.511   2.296   8.926 -0.0176  0.1246  0.1018
14393SOL    HW145432   3.440   2.255   8.877 -1.6430  1.5454  1.1584
14393SOL    HW245433   3.563   2.342   8.860  0.2230 -1.2910 -0.7357
14394SOL     OW45434   9.557   4.640   7.001  0.0376 -0.2710 -0.1520
14394SOL    HW145435   9.468   4.624   6.971  0.5077 -1.3291 -1.0650
14394SOL    HW245436   9.574   4.731   6.979 -0.3102 -0.4863 -1.3885
14395SOL     OW45437  10.416   5.784   7.236 -0.4992 -0.6239  0.1832
14395SOL    HW145438  10.434   5.755   7.325  0.2702  0.5363  0.4210
14395SOL    HW245439  10.372   5.869   7.246 -0.5616 -0.5637 -0.5379
14396SOL     OW45440   4.444   4.185   0.463  0.5763 -0.5354  0.1385
14396SOL    HW145441   4.440   4.091   0.446 -0.5703 -0.2024 -1.7200
14396SOL    HW245442   4.408   4.195   0.551  0.2363 -1.8022  0.1587
14397SOL     OW45443   6.533   6.110   3.522  0.7071 -0.3546 -0.0930
14397SOL    HW145444   6.620   6.133   3.490  1.0829 -0.0520  1.1038
14397SOL    HW245445   6.473   6.155   3.462  1.3947  1.5947  0.6043
14398SOL     OW45446   2.559   0.949   9.153  0.4269  0.3726 -0.2966
14398SOL    HW145447   2.626   0.890   9.118  1.3758  0.9600  0.4599
14398SOL    HW245448   2.492   0.952   9.085  0.5447 -1.2333 -0.5371
14399SOL     OW45449   7.480  10.317   0.868 -0.2524  0.3170 -0.0558
14399SOL    HW145450   7.397  10.345   0.830 -1.2424 -0.4233  1.4654
14399SOL    HW245451   7.510  10.246   0.812 -0.2328  1.1008 -1.0651
14400SOL     OW45452   7.839   8.724   9.391 -0.0245  0.7644  0.9009
14400SOL    HW145453   7.872   8.741   9.303 -0.8158  0.2326  0.5012
14400SOL    HW245454   7.745   8.737   9.385 -0.3195 -0.9912  1.2336
14401SOL     OW45455   4.627   5.793   8.107  0.3376  0.1678 -0.0623
14401SOL    HW145456   4.720   5.813   8.116  0.1432  0.4468  1.7835
14401SOL    HW245457   4.597   5.776   8.196 -1.1759 -0.9231 -0.7270
14402SOL     OW45458   9.967   2.585   3.986 -0.2418  0.4446  0.5922
14402SOL    HW145459   9.983   2.677   4.004  0.4885  0.0821  1.9310
14402SOL    HW245460  10.003   2.539   4.062  2.2217 -1.1563 -1.4023
14403SOL     OW45461   2.852   6.337   3.165 -0.1745  0.2804  0.4189
14403SOL    HW145462   2.843   6.398   3.091  1.1956  1.3071  1.0396
14403SOL    HW245463   2.935   6.362   3.206 -0.6255 -0.6340  1.9776
14404SOL     OW45464   2.401   7.840   7.049  0.3765  0.1856 -0.1116
14404SOL    HW145465   2.366   7.886   7.125  0.7475  0.0694  0.1311
14404SOL    HW245466   2.366   7.888   6.973  0.3523  0.5535  0.1343
14405SOL     OW45467   8.047   0.198   4.417  0.1581 -0.1017  0.0712
14405SOL    HW145468   8.092   0.114   4.418  1.0421  0.3119 -1.5633
14405SOL    HW245469   8.034   0.218   4.324 -1.1024  1.0190  0.4484
14406SOL     OW45470   1.180   9.145   2.554 -0.1502 -0.3146  0.2889
14406SOL    HW145471   1.227   9.158   2.472  0.2436 -1.4098  0.3145
14406SOL    HW245472   1.162   9.051   2.556 -1.6384 -0.0390  0.6728
14407SOL     OW45473   1.937   1.339   7.380  0.1498 -0.3324  0.1489
14407SOL    HW145474   1.960   1.247   7.368  0.0856 -0.6548  2.1075
14407SOL    HW245475   1.843   1.343   7.365  0.2226 -0.4873 -0.3665
14408SOL     OW45476   0.458   1.304   1.287  0.3759 -0.0564  0.9525
14408SOL    HW145477   0.392   1.371   1.269 -0.3876 -0.6497  1.5018
14408SOL    HW245478   0.540   1.343   1.256 -0.3789  0.2395 -0.8453
14409SOL     OW45479   9.982   2.116   5.640  0.2291  0.0282 -0.6010
14409SOL    HW145480   9.916   2.124   5.709  0.0602  0.6206 -0.8340
14409SOL    HW245481   9.940   2.151   5.562  1.3986  2.0386 -0.3851
14410SOL     OW45482  10.084   7.448  10.176 -0.3444  0.2199 -0.3246
14410SOL    HW145483  10.019   7.440  10.106 -1.2358 -2.9118  0.6694
14410SOL    HW245484  10.128   7.363  10.177  1.6517  1.1947  1.0717
14411SOL     OW45485   3.852   7.209   0.647 -0.1653  0.1733  0.0987
14411SOL    HW145486   3.839   7.115   0.630 -2.6511  0.7331 -1.8329
14411SOL    HW245487   3.868   7.246   0.560  0.0953  1.6383  0.7515
14412SOL     OW45488   1.736   4.637   7.407  0.0647  0.3157 -0.2536
14412SOL    HW145489   1.670   4.584   7.362  0.6479 -0.6061 -0.0667
14412SOL    HW245490   1.686   4.698   7.461 -0.6293 -0.0945 -0.4236
14413SOL     OW45491   2.443   3.878   4.781 -0.1935 -0.7829 -0.0542
14413SOL    HW145492   2.509   3.947   4.793 -0.0587 -0.9178 -0.0229
14413SOL    HW245493   2.364   3.926   4.753  0.1613 -0.6998 -0.9385
14414SOL     OW45494   0.047   8.646   0.157  0.3076 -0.0808  0.0983
14414SOL    HW145495  -0.045   8.635   0.134  0.6017  0.5554 -1.5804
14414SOL    HW245496   0.047   8.681   0.246 -1.1348  1.2661 -0.3997
14415SOL     OW45497   8.294   3.457  10.582  0.3290  0.6648  0.3091
14415SOL    HW145498   8.336   3.530  10.537 -0.9735  1.6267  0.6078
14415SOL    HW245499   8.365   3.415  10.631  1.5281  0.3592 -1.5740
14416SOL     OW45500   4.347   9.047   4.705  0.1618  0.2018 -0.1015
14416SOL    HW145501   4.288   8.989   4.656  1.2674  1.5565 -3.3033
14416SOL    HW245502   4.290   9.089   4.770 -1.5224 -1.4285 -0.4344
14417SOL     OW45503   6.770   4.296   4.632 -0.0185 -0.1787  0.0217
14417SOL    HW145504   6.756   4.205   4.660  0.4393 -0.7731 -1.5576
14417SOL    HW245505   6.685   4.338   4.645 -0.4663 -1.0463  0.0039
14418SOL     OW45506   0.054   6.173   1.312 -0.4216  0.0531  0.4967
14418SOL    HW145507  -0.038   6.200   1.313  0.4941  3.8695 -0.6013
14418SOL    HW245508   0.094   6.229   1.246  3.2577  0.7002  2.9916
14419SOL     OW45509   4.870  10.553  10.061 -0.0713  0.1897  0.1346
14419SOL    HW145510   4.794  10.569  10.005  0.1918 -0.3931 -0.4041
14419SOL    HW245511   4.895  10.462  10.042  1.2886  0.6420 -0.3456
14420SOL     OW45512   6.054   8.405   8.525 -0.0992 -0.1095  0.3372
14420SOL    HW145513   5.961   8.413   8.505  0.1861  1.1979 -0.6364
14420SOL    HW245514   6.091   8.361   8.449 -0.1063 -1.9640  1.3524
14421SOL     OW45515   7.238  10.439   6.280 -0.3383  0.0565 -0.1237
14421SOL    HW145516   7.177  10.477   6.343 -1.2771 -0.0385 -0.9462
14421SOL    HW245517   7.214  10.479   6.196  0.1326 -0.6676 -0.6138
14422SOL     OW45518   4.806   8.320  10.205  0.4115  0.0828 -0.0855
14422SOL    HW145519   4.820   8.403  10.158  0.6861 -0.0773 -0.2907
14422SOL    HW245520   4.844   8.335  10.291  0.3839  0.1993 -0.0926
14423SOL     OW45521   5.257   5.830   6.126  0.1282  0.2031 -0.0954
14423SOL    HW145522   5.247   5.786   6.210 -0.3675 -2.0000 -1.2497
14423SOL    HW245523   5.290   5.917   6.149  4.2373 -1.6933  2.1457
14424SOL     OW45524  10.133   1.802   5.410  0.6526 -0.2031 -0.7076
14424SOL    HW145525  10.167   1.873   5.465  0.3490  0.2211 -1.0596
14424SOL    HW245526  10.210   1.768   5.365  0.7963 -0.0733 -0.5612
14425SOL     OW45527   4.066   6.691   4.966 -0.8245 -0.0364  0.8397
14425SOL    HW145528   3.993   6.748   4.992 -2.4870 -0.9670 -1.4670
14425SOL    HW245529   4.125   6.748   4.917 -0.6791  0.4250  1.5331
14426SOL     OW45530   5.496   0.660   8.913  0.0386 -0.2008  0.6175
14426SOL    HW145531   5.570   0.608   8.882 -1.3237 -1.4848 -0.6580
14426SOL    HW245532   5.441   0.673   8.835 -0.5452  1.7003  1.2813
14427SOL     OW45533   8.794   9.401   2.860  0.0947 -0.5494  0.1592
14427SOL    HW145534   8.835   9.457   2.794 -0.2391 -1.2314 -0.6448
14427SOL    HW245535   8.772   9.460   2.932  0.6807  0.1657 -0.2339
14428SOL     OW45536   9.591   6.356   1.294 -0.0519 -0.3347  0.3117
14428SOL    HW145537   9.635   6.372   1.211  0.0157  0.4309  0.4948
14428SOL    HW245538   9.540   6.276   1.279  0.3089 -0.4473 -0.3245
14429SOL     OW45539   1.571   0.805  10.047 -0.2391 -0.3182  0.0651
14429SOL    HW145540   1.561   0.747  10.122  0.3479 -0.0387  0.3603
14429SOL    HW245541   1.514   0.766   9.980  1.4682 -2.2545 -0.3588
14430SOL     OW45542   8.276   4.320   8.071 -0.1561 -0.9507 -0.0688
14430SOL    HW145543   8.279   4.415   8.062  1.9240 -0.9786 -0.0422
14430SOL    HW245544   8.221   4.305   8.148 -0.8637  0.2044 -0.3340
14431SOL     OW45545   4.936   0.905   9.783  0.0961 -0.2553 -0.6263
14431SOL    HW145546   4.953   0.811   9.777  1.0854 -0.2481  1.2577
14431SOL    HW245547   4.841   0.911   9.795 -0.1181 -0.9260 -1.8757
14432SOL     OW45548   1.536   8.482   9.695  0.1433 -0.1499 -0.0328
14432SOL    HW145549   1.629   8.460   9.694 -0.0970 -1.2542  0.6001
14432SOL    HW245550   1.523   8.536   9.617  1.1088 -0.8337 -0.6870
14433SOL     OW45551   3.841   9.733   1.129 -0.0747  0.4735 -0.1351
14433SOL    HW145552   3.831   9.638   1.139 -0.4535  0.6388  1.2348
14433SOL    HW245553   3.932   9.751   1.155  0.7000  0.2553 -2.4811
14434SOL     OW45554   9.167   6.463   9.525 -0.0160  0.2982  0.0107
14434SOL    HW145555   9.215   6.412   9.460 -0.7495 -0.2020 -0.1451
14434SOL    HW245556   9.111   6.400   9.569 -2.6644  1.2727 -1.7300
14435SOL     OW45557   7.123   3.551   6.212 -0.0590  0.3312  0.2625
14435SOL    HW145558   7.050   3.508   6.255  0.9146  0.4196  2.0891
14435SOL    HW245559   7.187   3.567   6.281  1.5570  0.5761 -1.1923
14436SOL     OW45560   8.942   4.675  10.114 -0.2079  0.0668  0.0965
14436SOL    HW145561   8.877   4.662  10.183  0.1277 -1.7386  0.1029
14436SOL    HW245562   8.980   4.761  10.134 -1.1230  0.2204  1.3041
14437SOL     OW45563   3.432   7.073   6.141  0.0328  0.7261  0.3223
14437SOL    HW145564   3.524   7.099   6.134  0.1388  0.5014  0.8016
14437SOL    HW245565   3.395   7.132   6.207  0.0383  0.2969  0.7194
14438SOL     OW45566   5.168   4.431   3.033  0.0597  0.3813 -0.4339
14438SOL    HW145567   5.213   4.391   3.107 -0.0653 -1.0476 -1.0882
14438SOL    HW245568   5.230   4.495   2.999  0.3245  0.6840  0.5801
14439SOL     OW45569   5.054   2.609   6.496 -0.8627  0.2863  0.1189
14439SOL    HW145570   5.127   2.561   6.457 -0.6920 -0.7892  1.6797
14439SOL    HW245571   5.024   2.668   6.427  0.1181 -0.7630 -1.2466
14440SOL     OW45572   1.089   0.109   4.196  0.1976 -0.2615  0.1319
14440SOL    HW145573   1.004   0.153   4.202  0.0119 -0.6033  0.0145
14440SOL    HW245574   1.145   0.157   4.257 -0.1495 -0.1924  0.4000
14441SOL     OW45575   1.413   7.993   8.377 -0.2497 -0.2004  0.3334
14441SOL    HW145576   1.370   7.929   8.434 -1.1796 -0.1804 -0.3114
14441SOL    HW245577   1.438   7.943   8.300  0.5790 -0.1296  0.5465
14442SOL     OW45578  10.016   8.593   7.421  0.1355  0.8745 -0.1873
14442SOL    HW145579   9.984   8.575   7.332 -3.5858  1.2702  0.9353
14442SOL    HW245580  10.065   8.675   7.412 -0.4623  1.0922 -1.8426
14443SOL     OW45581   9.968   3.296   1.245  0.3398  0.8386  0.1358
14443SOL    HW145582   9.962   3.336   1.332 -0.3175 -2.3611  1.6976
14443SOL    HW245583   9.878   3.294   1.213  0.1405 -0.6263  0.7260
14444SOL     OW45584   4.446   4.990   3.914 -0.4129 -0.3521  0.2209
14444SOL    HW145585   4.489   4.996   3.828 -2.7846 -0.2588 -1.0271
14444SOL    HW245586   4.514   5.018   3.976  1.7907 -1.6705 -1.4550
14445SOL     OW45587   5.038   8.184   9.495  0.1489  0.6599 -0.0820
14445SOL    HW145588   4.980   8.210   9.424 -0.3931  1.0539  0.4935
14445SOL    HW245589   5.106   8.251   9.496 -1.6182  2.5414  1.8402
14446SOL     OW45590   8.915   7.608   7.881 -0.4184  0.6155 -0.3380
14446SOL    HW145591   8.963   7.681   7.920 -1.2799  0.4395  1.1311
14446SOL    HW245592   8.845   7.649   7.830  0.3636  0.8364 -1.2613
14447SOL     OW45593   8.496   5.441   3.072 -0.1367  0.0657 -0.2633
14447SOL    HW145594   8.464   5.369   3.127 -1.3203  1.0001  0.3032
14447SOL    HW245595   8.419   5.472   3.025  0.2493  1.2803 -0.1282
14448SOL     OW45596   1.631   9.536   3.283  0.6120 -0.5763 -0.3830
14448SOL    HW145597   1.557   9.478   3.268  1.0793 -1.5900  1.0490
14448SOL    HW245598   1.604   9.620   3.245 -1.5411 -0.7288  0.6768
14449SOL     OW45599  10.548   8.011   2.600 -0.4338  0.4381 -0.0365
14449SOL    HW145600  10.477   7.968   2.553 -0.2808  1.0885 -0.8718
14449SOL    HW245601  10.618   8.019   2.536  0.4591 -0.2990  0.8061
14450SOL     OW45602   5.304   4.858   5.095 -0.0474 -0.1993  0.2809
14450SOL    HW145603   5.223   4.908   5.092 -0.5009 -0.9303 -2.3654
14450SOL    HW245604   5.371   4.920   5.065  0.2011  0.0763  1.3695
14451SOL     OW45605   4.036   5.870   4.342  0.1469 -0.8771 -0.0221
14451SOL    HW145606   3.973   5.927   4.298 -0.7293 -1.2912  0.6468
14451SOL    HW245607   3.998   5.783   4.336 -1.2125 -0.6877  3.4434
14452SOL     OW45608   4.644   2.799   3.516 -0.2056  0.4736  0.0705
14452SOL    HW145609   4.559   2.762   3.490  0.4276 -0.7247 -0.3893
14452SOL    HW245610   4.631   2.893   3.512 -1.8978  0.3452  1.2918
14453SOL     OW45611   0.894   6.048   5.503 -0.7579  0.5172  0.3322
14453SOL    HW145612   0.873   6.098   5.582  0.1624  1.5892 -0.0705
14453SOL    HW245613   0.958   6.102   5.457 -1.3081 -0.0603 -1.1776
14454SOL     OW45614   0.194   1.738  10.317 -0.3585 -0.8264 -0.3582
14454SOL    HW145615   0.199   1.651  10.357 -0.4125  0.0663  1.6680
14454SOL    HW245616   0.106   1.770  10.340 -0.8628 -0.7262 -2.2318
14455SOL     OW45617   9.198   8.050   9.882  0.4026  0.5309  0.9765
14455SOL    HW145618   9.204   8.142   9.859 -2.5401  1.0632  1.9936
14455SOL    HW245619   9.243   8.044   9.967  0.6503  1.0148  0.8808
14456SOL     OW45620   9.856   4.710   5.657 -0.0688  0.4850 -0.6022
14456SOL    HW145621   9.927   4.648   5.639 -0.3238  0.8093 -3.2723
14456SOL    HW245622   9.887   4.762   5.730  1.1795 -1.2181  0.1606
14457SOL     OW45623   5.301   7.504   2.451 -0.4825 -0.6353 -0.1956
14457SOL    HW145624   5.341   7.429   2.495 -0.2375 -0.8309 -0.7398
14457SOL    HW245625   5.376   7.561   2.429 -0.6131 -0.4982 -0.2862
14458SOL     OW45626   1.044   3.443   7.248  0.4687  0.4039 -0.4892
14458SOL    HW145627   1.115   3.458   7.185 -1.3172  0.2958 -2.6506
14458SOL    HW245628   1.003   3.528   7.259 -0.4941  0.0336 -1.1077
14459SOL     OW45629   4.743   9.324   6.080  0.3508 -0.6612 -0.4108
14459SOL    HW145630   4.669   9.281   6.123  0.0456 -0.1828 -0.4487
14459SOL    HW245631   4.820   9.296   6.131  0.1439 -1.1450 -0.3596
14460SOL     OW45632   3.143   2.669   3.558  0.4531 -0.0514 -0.0069
14460SOL    HW145633   3.184   2.590   3.522  0.3269  0.1212 -0.5212
14460SOL    HW245634   3.198   2.741   3.527  0.2476  0.1128  0.0123
14461SOL     OW45635   7.682   7.865   4.778 -0.1556 -0.4114  0.5062
14461SOL    HW145636   7.659   7.826   4.863 -0.7665  1.0787  1.0710
14461SOL    HW245637   7.756   7.923   4.797 -0.4880  0.1609  0.0893
14462SOL     OW45638  10.376   8.542   6.058 -0.6884 -0.0208  0.7132
14462SOL    HW145639  10.298   8.577   6.014 -0.2948 -0.8369 -0.7204
14462SOL    HW245640  10.443   8.539   5.989  0.4633  0.1663  1.7897
14463SOL     OW45641   0.340   5.379   8.759  0.4683 -0.1134  0.4977
14463SOL    HW145642   0.296   5.464   8.764  0.5745 -0.1017  1.3396
14463SOL    HW245643   0.300   5.327   8.828  0.8045 -0.5654  0.3581
14464SOL     OW45644   4.406   9.115   6.812  0.1999  0.1334  0.4400
14464SOL    HW145645   4.358   9.062   6.748 -3.3507  2.8852  0.4973
14464SOL    HW245646   4.445   9.186   6.761 -0.1962  0.7442  0.9685
14465SOL     OW45647   6.940   0.916   0.652  0.0735  0.2822 -0.0832
14465SOL    HW145648   6.877   0.843   0.656 -0.2736  0.4918 -1.3665
14465SOL    HW245649   7.003   0.897   0.722 -2.7416  1.3607  3.0665
14466SOL     OW45650   5.441   0.974  10.331  0.4941  0.0197 -0.7114
14466SOL    HW145651   5.503   0.997  10.263  0.0239  0.0075 -1.1505
14466SOL    HW245652   5.440   0.878  10.333  1.8088 -0.0036  0.5258
14467SOL     OW45653   1.094   0.070   5.834 -0.2201 -0.2057  0.0736
14467SOL    HW145654   1.055  -0.016   5.818 -0.4056  0.1470 -1.4813
14467SOL    HW245655   1.078   0.119   5.754  2.3177  0.3800 -0.1584
14468SOL     OW45656   4.389   4.575  10.613  0.2916 -0.1630  0.5135
14468SOL    HW145657   4.346   4.496  10.645  3.7027 -2.7030 -0.6542
14468SOL    HW245658   4.443   4.604  10.686  0.4540 -0.0006  0.3291
14469SOL     OW45659   4.140   7.450   9.463  0.2961  0.0092  0.6783
14469SOL    HW145660   4.073   7.418   9.402  1.0198  0.4097 -0.3546
14469SOL    HW245661   4.103   7.530   9.499  0.7912  1.0715 -1.0371
14470SOL     OW45662   0.763   3.920   9.385 -0.2838  0.4470 -0.0704
14470SOL    HW145663   0.764   3.958   9.297  2.5234 -1.2100 -0.8846
14470SOL    HW245664   0.851   3.883   9.396 -0.5741  0.4636  3.4104
14471SOL     OW45665   9.907   5.678   7.567 -0.0827 -0.1849 -0.4784
14471SOL    HW145666   9.907   5.767   7.603 -1.9123 -2.1573  5.7999
14471SOL    HW245667   9.816   5.661   7.545 -0.0259 -0.9515 -0.1510
14472SOL     OW45668   4.763   5.273   2.721  0.0019 -0.2563  0.6680
14472SOL    HW145669   4.851   5.310   2.727  1.4106 -3.3042  0.7398
14472SOL    HW245670   4.756   5.241   2.631 -1.1038  0.0681  0.6228
14473SOL     OW45671   2.380   9.228  10.377 -0.0523 -0.1941 -0.1529
14473SOL    HW145672   2.341   9.217  10.291  1.4185  1.7764 -1.1343
14473SOL    HW245673   2.378   9.140  10.416 -2.6700 -0.7295 -1.2874
14474SOL     OW45674   8.826   9.915   2.208 -0.1973  0.0470  0.5898
14474SOL    HW145675   8.742   9.960   2.210  0.5632  1.5572  0.1274
14474SOL    HW245676   8.824   9.863   2.128 -0.6583  0.1317  0.5451
14475SOL     OW45677   9.138   9.275   3.638 -0.6618 -0.4068 -0.3970
14475SOL    HW145678   9.215   9.310   3.682 -0.2235  1.5903 -2.5603
14475SOL    HW245679   9.092   9.352   3.604 -1.7933 -1.7193 -2.0444
14476SOL     OW45680   1.531   1.059   5.110 -0.6446 -0.1309 -0.2960
14476SOL    HW145681   1.525   0.998   5.036 -3.0333  1.7746 -1.8482
14476SOL    HW245682   1.595   1.124   5.082  0.3619 -0.7667  0.4712
14477SOL     OW45683   2.434   7.805   4.148 -0.1303  0.4537  0.7954
14477SOL    HW145684   2.418   7.713   4.171  1.5913  0.2872  1.4116
14477SOL    HW245685   2.362   7.853   4.189  0.4991 -0.3232  2.9393
14478SOL     OW45686   1.312   7.030   9.492  0.1526  0.1330 -0.2574
14478SOL    HW145687   1.222   7.058   9.473  0.7062  1.9588 -0.4003
14478SOL    HW245688   1.302   6.946   9.538 -1.5170 -0.8345 -2.2047
14479SOL     OW45689   9.485   1.338   9.928  0.0518 -0.0892  0.1015
14479SOL    HW145690   9.493   1.364   9.837  0.1435  1.7800  0.6208
14479SOL    HW245691   9.562   1.284   9.945  1.5934  1.9628 -0.1429
14480SOL     OW45692   0.128   5.568   1.530 -0.3960 -0.0067 -0.1046
14480SOL    HW145693   0.143   5.477   1.505  2.0109 -0.2349  1.6899
14480SOL    HW245694   0.159   5.620   1.456 -1.7113 -0.6051 -1.1022
14481SOL     OW45695   0.078   0.475   3.650  0.2321 -0.6563 -0.0879
14481SOL    HW145696   0.173   0.484   3.660  0.3516 -0.9343 -0.9420
14481SOL    HW245697   0.048   0.448   3.737  1.1922 -2.5795 -0.2850
14482SOL     OW45698   4.660  10.508   1.806 -0.5410  0.2893  0.0474
14482SOL    HW145699   4.566  10.497   1.796 -0.2415 -0.9214 -1.9517
14482SOL    HW245700   4.677  10.598   1.777 -0.9892  0.2322 -0.3918
14483SOL     OW45701   6.938   4.309   5.597 -0.1048  0.1199  0.1086
14483SOL    HW145702   6.876   4.249   5.555  0.0562  0.2571 -0.3251
14483SOL    HW245703   6.917   4.303   5.690  0.8993 -1.7486  0.2563
14484SOL     OW45704   0.378   3.723   4.936 -0.5199 -0.2689 -0.3841
14484SOL    HW145705   0.387   3.642   4.886 -1.6113  0.1863 -1.3612
14484SOL    HW245706   0.462   3.768   4.925 -0.5798 -0.3949 -1.4360
14485SOL     OW45707   0.481   2.900   1.670  0.1051  0.1382 -0.0154
14485SOL    HW145708   0.525   2.880   1.587  0.1104  4.2082 -1.2008
14485SOL    HW245709   0.545   2.950   1.720 -1.5417  2.1635  0.1844
14486SOL     OW45710   5.203   3.221   1.486  0.4893  0.2359 -0.5118
14486SOL    HW145711   5.284   3.183   1.452 -0.5575 -0.9382 -1.8122
14486SOL    HW245712   5.229   3.306   1.521  2.4064 -0.4499 -0.1716
14487SOL     OW45713  10.408   1.001   5.850 -0.1834 -0.6534 -0.2367
14487SOL    HW145714  10.338   0.966   5.905 -0.8933  0.3790 -0.4508
14487SOL    HW245715  10.448   1.070   5.904  0.9105 -1.4475  0.0135
14488SOL     OW45716   0.661   7.821   3.654 -0.0453  0.2560  0.1881
14488SOL    HW145717   0.684   7.826   3.562 -1.0446 -0.8175 -0.1367
14488SOL    HW245718   0.728   7.873   3.698  0.1270  1.2352 -1.1814
14489SOL     OW45719   7.766   0.983   6.515 -0.0157  0.2557  0.2513
14489SOL    HW145720   7.722   0.910   6.471 -0.0537 -0.2813  1.1385
14489SOL    HW245721   7.702   1.054   6.514 -0.3727 -0.0586  0.2686
14490SOL     OW45722   3.138   5.738   3.386 -0.2799  0.0492 -0.3887
14490SOL    HW145723   3.102   5.717   3.472  1.0233 -1.9475 -0.2767
14490SOL    HW245724   3.064   5.728   3.326 -0.3078 -2.8166 -0.0086
14491SOL     OW45725   1.887   9.816   1.548 -0.1396 -0.0778 -0.1123
14491SOL    HW145726   1.937   9.856   1.477  0.2915  1.1577  0.8564
14491SOL    HW245727   1.816   9.768   1.504  0.7749 -0.2857 -1.4111
14492SOL     OW45728  10.202   3.237   7.417  0.5015 -0.2092 -0.3038
14492SOL    HW145729  10.244   3.157   7.449  0.8378  0.3300  0.6660
14492SOL    HW245730  10.129   3.207   7.364  1.1041 -1.1636 -0.6274
14493SOL     OW45731   2.169   3.979   3.832 -0.3424 -0.3372  0.2397
14493SOL    HW145732   2.159   4.070   3.803  2.4206 -0.2463 -0.7375
14493SOL    HW245733   2.259   3.974   3.864 -0.3320 -2.8100 -0.0090
14494SOL     OW45734   9.906   2.284   1.836 -0.1287 -0.3535 -0.0132
14494SOL    HW145735   9.972   2.320   1.777 -0.1389  1.4554  0.9966
14494SOL    HW245736   9.916   2.190   1.830  4.0211 -0.2122  1.6766
14495SOL     OW45737   2.525   1.895   4.938  0.4775 -0.4716 -0.3710
14495SOL    HW145738   2.468   1.910   4.863  0.6646 -1.9785 -0.8485
14495SOL    HW245739   2.613   1.895   4.901  0.4687 -3.5470 -0.6536
14496SOL     OW45740   3.183   7.606   3.459 -0.0857 -0.9162 -0.2243
14496SOL    HW145741   3.206   7.693   3.429 -0.3728 -1.4212 -2.0252
14496SOL    HW245742   3.265   7.558   3.459 -0.0241 -0.8168  0.1982
14497SOL     OW45743   9.211   3.164   7.029  0.1883 -0.5415 -0.0041
14497SOL    HW145744   9.303   3.161   7.053  0.2154  0.2219  0.0041
14497SOL    HW245745   9.170   3.097   7.083  0.6020 -0.3255  0.5843
14498SOL     OW45746   5.168   6.663   7.580 -0.1010 -0.4073  0.0774
14498SOL    HW145747   5.173   6.630   7.491 -1.3710  0.4790 -0.3618
14498SOL    HW245748   5.257   6.694   7.600 -0.1604  0.9950 -1.5532
14499SOL     OW45749   5.924   5.082   7.879  0.3537 -0.0042  0.4351
14499SOL    HW145750   5.939   5.168   7.917  0.0649  0.3356 -0.1922
14499SOL    HW245751   5.958   5.089   7.790  0.0321 -0.4295  0.2738
14500SOL     OW45752   7.234   9.497   5.602  0.4027 -0.2209  0.5842
14500SOL    HW145753   7.177   9.486   5.526  0.0858  0.2076  0.7570
14500SOL    HW245754   7.280   9.413   5.609  1.0500  0.0232 -0.5751
14501SOL     OW45755  10.407   0.160   3.502 -0.2685  0.1808 -0.3382
14501SOL    HW145756  10.397   0.080   3.553  1.5157 -0.3278 -0.7099
14501SOL    HW245757  10.457   0.219   3.558 -0.0366  0.3595 -0.7215
14502SOL     OW45758   0.639   2.250   5.102 -0.1174  0.3470 -0.2658
14502SOL    HW145759   0.684   2.334   5.111  0.6203  0.1042 -1.4867
14502SOL    HW245760   0.590   2.258   5.020 -2.0374  0.4513  0.8174
14503SOL     OW45761   2.327   3.197   8.052 -0.2923 -0.1764  0.3215
14503SOL    HW145762   2.403   3.139   8.052  0.3536  0.6490 -0.3347
14503SOL    HW245763   2.342   3.257   7.979  0.0146  2.0419  2.0855
14504SOL     OW45764   5.450   0.143   6.049  0.1715  0.1606  0.5975
14504SOL    HW145765   5.456   0.062   6.099 -1.6173 -0.8959 -0.7725
14504SOL    HW245766   5.356   0.163   6.046 -0.2109 -1.0874 -4.0526
14505SOL     OW45767   2.420   1.251   7.869 -0.4617 -1.0623 -0.1084
14505SOL    HW145768   2.421   1.210   7.782  1.2230  1.4747 -1.4242
14505SOL    HW245769   2.347   1.313   7.865 -1.4872 -2.1513  0.9833
14506SOL     OW45770   8.733   3.827   0.946 -0.2155 -0.4761  0.0568
14506SOL    HW145771   8.643   3.857   0.939 -0.4940 -1.4125 -0.6100
14506SOL    HW245772   8.786   3.902   0.918 -0.8483 -0.2818 -0.6616
14507SOL     OW45773   1.171   5.177   8.242 -0.0193 -0.2114  0.5750
14507SOL    HW145774   1.167   5.128   8.324  0.8514  0.5052  1.0689
14507SOL    HW245775   1.087   5.224   8.238 -0.2600 -0.6207  0.8185
14508SOL     OW45776   8.092   4.020   7.867  0.0446 -0.1310 -0.2139
14508SOL    HW145777   8.085   3.928   7.893  0.0313 -0.3207 -0.8655
14508SOL    HW245778   8.004   4.055   7.883  0.7196  0.5382  2.7376
14509SOL     OW45779   8.142   0.433  10.063 -0.4471  0.1531  0.0306
14509SOL    HW145780   8.233   0.403  10.070  0.1821  1.6304 -1.3194
14509SOL    HW245781   8.144   0.523  10.095 -1.8323 -0.3335  1.6819
14510SOL     OW45782   1.538   2.274   6.509 -0.0408 -0.1744 -0.3297
14510SOL    HW145783   1.486   2.196   6.531 -2.0517  1.3515  0.6386
14510SOL    HW245784   1.604   2.279   6.578 -0.4394 -0.5326  0.0840
14511SOL     OW45785   9.351   5.352   0.633 -0.0879 -0.0944 -0.0788
14511SOL    HW145786   9.359   5.422   0.698  1.2678  0.9547 -1.3264
14511SOL    HW245787   9.270   5.373   0.586 -0.1951  0.0929  0.1863
14512SOL     OW45788   4.499   2.366   3.457  0.2815 -0.0046  0.0181
14512SOL    HW145789   4.562   2.296   3.437 -0.9553 -1.0338 -0.4555
14512SOL    HW245790   4.414   2.321   3.463 -0.5266  1.4283 -0.0678
14513SOL     OW45791   8.570   8.284   8.565  0.2144  0.5380 -0.1218
14513SOL    HW145792   8.507   8.281   8.494 -0.0875 -2.6409  0.1334
14513SOL    HW245793   8.520   8.313   8.641 -1.0973 -1.9145  0.0701
14514SOL     OW45794   2.415   4.407   5.142 -0.1937 -0.3868  0.2032
14514SOL    HW145795   2.323   4.434   5.138 -0.4047 -1.0188  0.6462
14514SOL    HW245796   2.413   4.322   5.187  0.7172  0.1215  1.2490
14515SOL     OW45797   5.813   8.366   4.400 -0.4392 -0.0771  0.0852
14515SOL    HW145798   5.895   8.366   4.450 -0.1655 -1.8955 -0.3009
14515SOL    HW245799   5.752   8.416   4.454  1.2394  2.5292 -0.2307
14516SOL     OW45800   2.911   0.421   9.480 -0.5128  0.1724  0.6009
14516SOL    HW145801   2.860   0.461   9.409 -0.3035  0.4807  0.6194
14516SOL    HW245802   2.927   0.493   9.541  0.6686  0.2887  0.1795
14517SOL     OW45803   2.040  10.003   0.466 -0.2407 -0.2525 -0.0638
14517SOL    HW145804   2.122   9.955   0.470  0.2419  0.4055 -1.4007
14517SOL    HW245805   2.037  10.039   0.377 -0.1351  2.9067  1.0705
14518SOL     OW45806   1.451   1.148   5.541  0.1837 -0.6167  0.2632
14518SOL    HW145807   1.508   1.181   5.611 -0.2836 -2.4234  1.5466
14518SOL    HW245808   1.512   1.116   5.474  0.6760  2.8946 -1.2048
14519SOL     OW45809   2.156   2.841   5.257 -0.4440 -0.0298  0.1349
14519SOL    HW145810   2.211   2.766   5.280  1.2141  1.3731  0.9914
14519SOL    HW245811   2.146   2.836   5.162 -1.8875 -2.3028  0.3420
14520SOL     OW45812   5.385   0.385   4.546  0.5835 -0.0184 -0.1628
14520SOL    HW145813   5.445   0.331   4.597  1.1466 -0.5331 -1.3285
14520SOL    HW245814   5.353   0.327   4.478 -1.5341  0.1439  0.6214
14521SOL     OW45815   2.723  10.264   1.650 -0.1444 -0.1298 -0.7564
14521SOL    HW145816   2.767  10.287   1.732  1.3201 -1.5694 -1.0801
14521SOL    HW245817   2.664  10.193   1.674  0.2272 -0.4988 -0.9118
14522SOL     OW45818   0.545   5.602   9.623 -0.1108 -0.2211  0.6389
14522SOL    HW145819   0.580   5.630   9.538 -0.5967 -0.6136  0.3060
14522SOL    HW245820   0.610   5.542   9.657 -0.5847 -1.2081 -0.1299
14523SOL     OW45821   9.700   3.868   5.754  0.1622  0.0888  0.4759
14523SOL    HW145822   9.649   3.820   5.688  0.0487  0.3457  0.3777
14523SOL    HW245823   9.665   3.957   5.752  1.6493  0.6926 -0.7218
14524SOL     OW45824   7.384   3.416   9.971 -0.0682 -0.0555  0.4821
14524SOL    HW145825   7.473   3.394   9.942 -0.5055 -0.3092 -0.7179
14524SOL    HW245826   7.350   3.472   9.902 -0.2137  1.6050  1.8172
14525SOL     OW45827   1.869  10.017   8.279 -0.3829  0.0162  0.1086
14525SOL    HW145828   1.836  10.057   8.360  0.5797  1.3579 -0.1337
14525SOL    HW245829   1.809   9.944   8.263 -1.0010  0.1319  1.6616
14526SOL     OW45830   7.597   0.533   8.934  0.3968  0.4613  0.0805
14526SOL    HW145831   7.665   0.595   8.961  0.0972  0.6023  0.5056
14526SOL    HW245832   7.599   0.537   8.838  1.9158 -0.5429  0.0382
14527SOL     OW45833   7.204   9.046   1.463 -0.1762 -0.0714  0.5179
14527SOL    HW145834   7.278   9.104   1.445 -0.8805  0.3670 -1.0868
14527SOL    HW245835   7.172   9.074   1.549  1.2387 -0.0012  1.0609
14528SOL     OW45836   2.409   3.768   9.987  0.1364 -0.3347 -0.5408
14528SOL    HW145837   2.352   3.846   9.988 -0.6599 -0.8779  1.1310
14528SOL    HW245838   2.467   3.782   9.913  0.3907  2.1387  0.0216
14529SOL     OW45839  10.383   1.513   4.332  0.2639  0.3262  0.0310
14529SOL    HW145840  10.344   1.426   4.320  3.0930 -0.8665 -1.5329
14529SOL    HW245841  10.347   1.566   4.260 -1.3500  0.4672  0.8992
14530SOL     OW45842   2.613   4.702   3.456 -0.1708 -0.3591 -0.2007
14530SOL    HW145843   2.696   4.722   3.414  0.0133 -2.7859 -1.1447
14530SOL    HW245844   2.551   4.762   3.415  1.0653  1.4987  0.5267
14531SOL     OW45845   8.029   1.425   6.765  0.4548 -0.1527 -0.1434
14531SOL    HW145846   8.065   1.352   6.815  0.9082  0.7653  0.9050
14531SOL    HW245847   7.993   1.384   6.686 -1.3297 -1.7846  1.4212
14532SOL     OW45848   7.201   3.339   8.544  0.3429 -0.2229 -0.0457
14532SOL    HW145849   7.111   3.340   8.576 -0.0491 -0.8714 -1.0836
14532SOL    HW245850   7.207   3.418   8.489  0.2076 -0.5211 -0.4922
14533SOL     OW45851   6.741   6.793   5.955  0.0232  0.3438 -0.2276
14533SOL    HW145852   6.789   6.865   5.915  0.5661  0.5811  0.8250
14533SOL    HW245853   6.771   6.791   6.045  0.8439 -1.8857 -0.4868
14534SOL     OW45854   3.171   9.930   7.851  0.4681 -0.1972 -0.2071
14534SOL    HW145855   3.252   9.924   7.902  0.4674 -0.5534 -0.2450
14534SOL    HW245856   3.134  10.014   7.875  1.3143  0.3909 -0.8756
14535SOL     OW45857   9.946   6.661   0.936 -0.1443 -0.4399 -0.3694
14535SOL    HW145858  10.025   6.660   0.882  0.2302 -0.6433  0.1813
14535SOL    HW245859   9.977   6.645   1.025 -0.4689  2.1999  0.2963
14536SOL     OW45860   1.643   1.063   5.371  0.5170 -0.4367 -0.5099
14536SOL    HW145861   1.723   1.115   5.370  0.0015  0.3788 -0.4957
14536SOL    HW245862   1.631   1.036   5.280 -0.8284  2.0674 -1.1772
14537SOL     OW45863   7.794   6.845   0.499 -0.3850  0.8919 -0.4353
14537SOL    HW145864   7.883   6.860   0.533 -0.5619  1.5814 -0.2574
14537SOL    HW245865   7.738   6.897   0.557 -0.8043  1.2467 -1.1527
14538SOL     OW45866   2.148   2.020   1.508  0.7238 -0.0533  0.1140
14538SOL    HW145867   2.146   1.959   1.434  0.9753  0.0395  0.0309
14538SOL    HW245868   2.085   1.983   1.571 -0.4157  0.5272 -0.6565
14539SOL     OW45869   3.516   7.486   0.930  0.5089  0.3920  0.6827
14539SOL    HW145870   3.498   7.575   0.958  1.1696  0.4731  0.8480
14539SOL    HW245871   3.611   7.479   0.929  0.5104  0.1789 -0.8632
14540SOL     OW45872  10.320   2.516   7.669  0.1895 -0.5496 -1.1446
14540SOL    HW145873  10.411   2.508   7.700 -0.6536 -2.9887  1.0181
14540SOL    HW245874  10.299   2.429   7.635 -1.2738  0.0780 -1.9270
14541SOL     OW45875   6.183   3.662   1.473  0.5272 -0.1387  0.0172
14541SOL    HW145876   6.239   3.628   1.404 -1.2956 -0.6317 -1.3037
14541SOL    HW245877   6.146   3.742   1.437 -1.3017 -0.9760 -0.0849
14542SOL     OW45878   7.460   7.119   0.034 -0.1591 -0.1647 -0.1831
14542SOL    HW145879   7.367   7.140   0.024 -0.0619  0.9332  0.9691
14542SOL    HW245880   7.471   7.101   0.127  0.6134 -1.2840 -0.4684
14543SOL     OW45881   6.952   3.767   0.432 -0.2579 -0.3704  0.2902
14543SOL    HW145882   6.918   3.721   0.356  0.0462  1.0448 -0.7436
14543SOL    HW245883   6.912   3.723   0.507 -2.6688 -0.1410 -0.7880
14544SOL     OW45884   0.216   9.135   3.078 -0.2692  0.0772  0.0136
14544SOL    HW145885   0.260   9.183   3.009  0.5567 -1.0241 -0.2444
14544SOL    HW245886   0.234   9.185   3.158  1.7289 -0.5191 -0.0329
14545SOL     OW45887   2.981   2.707  10.294  0.8311  0.4341 -0.1685
14545SOL    HW145888   2.907   2.682  10.239  0.8870  0.6435 -0.3414
14545SOL    HW245889   3.043   2.746  10.234  1.2940 -0.1803 -0.0969
14546SOL     OW45890   7.154   4.793   8.873  0.3352  0.2849  0.0057
14546SOL    HW145891   7.086   4.776   8.938  1.1032 -0.9314  0.5243
14546SOL    HW245892   7.174   4.707   8.836  2.7335  0.3323  1.0403
14547SOL     OW45893   5.300   1.302  10.607  0.5090 -0.1459  0.6532
14547SOL    HW145894   5.326   1.210  10.610 -0.0400 -0.3692 -0.9443
14547SOL    HW245895   5.368   1.347  10.658  2.1194 -1.1457 -0.5382
14548SOL     OW45896   2.587   1.873   8.213  0.0969  0.0021  0.7214
14548SOL    HW145897   2.656   1.903   8.272 -0.5813  1.9263  0.5949
14548SOL    HW245898   2.632   1.846   8.134  0.7792  0.3536  0.9850
14549SOL     OW45899   2.470   7.397   1.523  0.2524 -0.1051 -0.5718
14549SOL    HW145900   2.501   7.487   1.535  0.8886 -0.4143  0.2764
14549SOL    HW245901   2.376   7.401   1.542  0.3521  0.3109 -0.1456
14550SOL     OW45902   8.693   5.965   9.654 -0.8178  0.0045  0.4469
14550SOL    HW145903   8.702   6.050   9.611  2.2373 -0.7930 -0.8097
14550SOL    HW245904   8.635   5.915   9.598  2.7089 -0.8570 -2.8932
14551SOL     OW45905  10.047   7.876   5.312 -0.2314 -0.2313 -0.0318
14551SOL    HW145906  10.000   7.796   5.291 -1.0972  0.1673  0.3372
14551SOL    HW245907  10.079   7.909   5.228  1.0681 -1.5129 -0.0799
14552SOL     OW45908   0.441   3.398   2.189  0.1004 -0.5676 -0.3626
14552SOL    HW145909   0.441   3.362   2.277  0.5692 -1.8353 -0.8531
14552SOL    HW245910   0.365   3.359   2.146 -1.0728  1.2989 -0.0602
14553SOL     OW45911   9.071   5.054   2.455  0.2315 -0.4598  0.3052
14553SOL    HW145912   9.103   4.975   2.500 -2.1602 -0.1974  2.7588
14553SOL    HW245913   9.117   5.126   2.499 -1.2431 -0.2710  1.6222
14554SOL     OW45914   7.621   6.024   0.979  0.2437 -0.2143  0.2175
14554SOL    HW145915   7.668   5.980   0.908  0.5763  1.9066 -0.9632
14554SOL    HW245916   7.678   6.014   1.055  0.8386 -0.8176 -0.2888
14555SOL     OW45917   2.784   6.864   1.726 -0.9288  0.8623  0.2302
14555SOL    HW145918   2.864   6.823   1.760 -0.7749  0.6649 -0.3618
14555SOL    HW245919   2.783   6.951   1.766 -0.3007  0.9452  0.0768
14556SOL     OW45920   7.229   1.526   2.340  0.1047  0.3740 -0.3944
14556SOL    HW145921   7.256   1.549   2.429 -0.9728  0.9885 -0.2082
14556SOL    HW245922   7.135   1.541   2.338 -0.0037 -0.2653 -1.4570
14557SOL     OW45923   5.518   1.181   8.405  0.2680 -0.3069 -1.0224
14557SOL    HW145924   5.585   1.242   8.435 -1.2279  0.6003  0.7102
14557SOL    HW245925   5.464   1.165   8.482 -2.3777  0.1714 -2.6436
14558SOL     OW45926   4.847  10.235   9.498  0.4487 -0.3525 -0.2408
14558SOL    HW145927   4.802  10.266   9.419  2.6877  0.7284 -1.1859
14558SOL    HW245928   4.792  10.163   9.530 -1.8475  0.8202 -1.3313
14559SOL     OW45929   0.378   2.440   9.391  0.0754  0.0607 -0.3074
14559SOL    HW145930   0.347   2.522   9.430 -0.1693 -1.4347  2.9424
14559SOL    HW245931   0.473   2.452   9.381 -0.2689  1.6403 -2.5151
14560SOL     OW45932   6.590   9.355   2.685  0.3543  0.0933 -0.0927
14560SOL    HW145933   6.598   9.361   2.780 -2.9754  1.4161  0.2609
14560SOL    HW245934   6.567   9.444   2.657  1.5730 -0.1842 -2.2264
14561SOL     OW45935   0.639   4.963   7.208  0.0738  0.4773  0.2271
14561SOL    HW145936   0.662   5.037   7.265  0.1909  0.2472  0.4792
14561SOL    HW245937   0.544   4.970   7.197 -0.0321  0.1992  0.9084
14562SOL     OW45938   0.857   6.830   9.769  0.0658 -0.2059 -0.3296
14562SOL    HW145939   0.800   6.790   9.704 -1.6203 -0.4475  1.2213
14562SOL    HW245940   0.889   6.756   9.821  0.2382  0.1065  0.0116
14563SOL     OW45941   8.331   3.455   8.884  0.5998  0.0262 -0.7478
14563SOL    HW145942   8.279   3.469   8.805  0.6220 -0.3531 -0.8321
14563SOL    HW245943   8.386   3.380   8.864  0.4431 -0.2131 -0.2950
14564SOL     OW45944   0.893   5.416   8.515  0.2488  0.1505  0.5707
14564SOL    HW145945   0.813   5.470   8.507 -1.2086 -1.6806  1.9266
14564SOL    HW245946   0.949   5.465   8.575  0.2111  1.4879 -0.4262
14565SOL     OW45947   9.095  10.515   8.134  0.4022 -0.4617 -0.1221
14565SOL    HW145948   9.042  10.586   8.170  0.7309  0.5044 -1.4646
14565SOL    HW245949   9.064  10.437   8.179 -0.1997  0.4806  1.1531
14566SOL     OW45950   4.333   2.880   9.217  0.2561  0.1713  0.6505
14566SOL    HW145951   4.308   2.964   9.177  0.2892 -0.1401 -0.0250
14566SOL    HW245952   4.368   2.828   9.145  0.7348 -0.2374  1.1694
14567SOL     OW45953   2.922   1.542   7.329  0.0595 -0.1705  0.0310
14567SOL    HW145954   2.862   1.468   7.329  0.6384 -0.6531  0.2095
14567SOL    HW245955   2.958   1.545   7.241 -0.1920  0.0872 -0.0625
14568SOL     OW45956   6.571   8.742   5.347  0.0089  0.1571 -0.2654
14568SOL    HW145957   6.586   8.746   5.442  0.1461 -0.4889 -0.2561
14568SOL    HW245958   6.508   8.672   5.336 -0.6208  0.7677 -0.5908
14569SOL     OW45959   6.564   5.426   8.129 -0.5831  1.0183  0.1981
14569SOL    HW145960   6.557   5.472   8.212 -1.1420 -0.1146  0.7912
14569SOL    HW245961   6.659   5.414   8.117 -0.4979  1.2240  0.6408
14570SOL     OW45962   9.021   4.313   7.504  0.5645 -0.2149 -0.5606
14570SOL    HW145963   9.053   4.322   7.414  1.0421  1.2438 -0.2764
14570SOL    HW245964   8.926   4.319   7.496  0.6603  3.1408 -0.7533
14571SOL     OW45965   6.766   0.419   5.064  0.0835 -0.0269 -0.3650
14571SOL    HW145966   6.674   0.408   5.086  0.2315  1.2546  1.1082
14571SOL    HW245967   6.811   0.410   5.148  1.1385  0.9293 -0.8046
14572SOL     OW45968  10.129   8.764   5.008  0.2400  0.4712  0.2063
14572SOL    HW145969  10.127   8.808   4.923  1.7296  2.1548  0.9794
14572SOL    HW245970  10.098   8.675   4.990  0.1009  0.9092 -1.9956
14573SOL     OW45971   3.831  10.349   7.444  0.1262 -0.1571 -0.3409
14573SOL    HW145972   3.835  10.293   7.522 -1.6461 -1.5603 -1.1787
14573SOL    HW245973   3.895  10.418   7.461 -0.1708 -0.4267  2.3423
14574SOL     OW45974   0.215   8.298   4.164  0.5426 -0.1679 -0.2202
14574SOL    HW145975   0.147   8.263   4.107 -0.7181 -1.6025  1.9958
14574SOL    HW245976   0.278   8.226   4.173  1.7564  0.7204 -1.2781
14575SOL     OW45977   3.790   0.971   4.803 -0.4564 -0.2952 -0.1626
14575SOL    HW145978   3.793   1.044   4.740  2.3081 -0.5870 -0.5115
14575SOL    HW245979   3.713   0.921   4.778  0.1933 -0.0502 -2.9784
14576SOL     OW45980   6.003   9.074   7.243  0.0765 -0.2798 -0.0042
14576SOL    HW145981   6.079   9.085   7.186 -1.8088  0.7452 -2.4972
14576SOL    HW245982   5.962   8.994   7.212 -0.2479 -0.4516  0.8588
14577SOL     OW45983   2.044   8.278   5.815 -0.0797 -0.1740  0.0367
14577SOL    HW145984   2.077   8.189   5.831 -0.2876 -0.4888 -1.1821
14577SOL    HW245985   2.122   8.331   5.808  0.0400 -0.1212  1.3634
14578SOL     OW45986   1.235   6.892   7.214  0.2841 -0.1105 -0.8116
14578SOL    HW145987   1.226   6.951   7.139  0.1737 -0.0542 -0.7554
14578SOL    HW245988   1.287   6.818   7.181 -1.3463 -1.0111 -1.4989
14579SOL     OW45989   0.201   1.545   2.674 -0.4800 -0.1786  0.0055
14579SOL    HW145990   0.155   1.513   2.751 -1.2840 -2.2782 -1.2515
14579SOL    HW245991   0.275   1.485   2.664 -0.4922 -0.0526 -0.9437
14580SOL     OW45992   3.344   6.922   4.396  0.0788 -0.7028  0.5269
14580SOL    HW145993   3.410   6.989   4.376  0.9928 -1.8469 -0.4880
14580SOL    HW245994   3.290   6.961   4.464  0.1674  1.3222 -0.4805
14581SOL     OW45995   0.583   1.767   6.917  0.0290 -0.4805  0.1093
14581SOL    HW145996   0.490   1.779   6.934  0.2491  2.9627 -0.4898
14581SOL    HW245997   0.603   1.680   6.953 -3.0489 -0.6782  1.6228
14582SOL     OW45998   7.658   0.434   4.206 -0.2406  0.1344 -0.4115
14582SOL    HW145999   7.570   0.471   4.196 -0.2756  0.0379 -0.4612
14582SOL    HW246000   7.661   0.362   4.143 -0.1546  0.0843 -0.3503
14583SOL     OW46001   8.836   0.616   2.693  0.3914 -0.1442 -0.2712
14583SOL    HW146002   8.878   0.533   2.716 -2.0045 -0.9061  1.7574
14583SOL    HW246003   8.772   0.593   2.626  0.0356  0.1625 -0.0389
14584SOL     OW46004  10.276   2.093   9.304  0.3425  0.2275 -0.4131
14584SOL    HW146005  10.243   2.159   9.243  1.7758  0.6435 -0.7846
14584SOL    HW246006  10.210   2.087   9.372 -0.5678  0.8761 -1.2185
14585SOL     OW46007   0.790  10.062   8.822  0.3610 -0.4629 -0.2113
14585SOL    HW146008   0.711  10.041   8.872  0.0676  0.7768 -0.1106
14585SOL    HW246009   0.767  10.143   8.775  1.1818 -0.7230 -1.0839
14586SOL     OW46010  10.364   7.990   1.803  0.3950  0.5178  0.2175
14586SOL    HW146011  10.359   7.924   1.734 -4.3021  0.8237 -0.0087
14586SOL    HW246012  10.344   7.943   1.884  0.7363  1.0435  0.6149
14587SOL     OW46013   7.978   1.773   5.213 -0.3836 -0.4378  0.0128
14587SOL    HW146014   8.051   1.741   5.265 -0.9624 -0.6324  0.7187
14587SOL    HW246015   7.980   1.868   5.225  1.2974 -0.1416 -2.0337
14588SOL     OW46016  10.307   4.695   4.190 -0.1117 -0.0805 -0.1516
14588SOL    HW146017  10.302   4.660   4.279 -1.9819  0.4117 -0.0204
14588SOL    HW246018  10.267   4.781   4.196  2.2603  1.1730 -0.9615
14589SOL     OW46019   5.719   7.571   7.524 -0.2521 -0.0363 -0.3739
14589SOL    HW146020   5.725   7.661   7.494  0.5581  0.4639  1.1745
14589SOL    HW246021   5.729   7.518   7.445  1.2398  1.1916 -1.0556
14590SOL     OW46022   0.984   4.539   3.947  0.4825  1.0879  0.6395
14590SOL    HW146023   0.961   4.493   4.028  1.7450 -0.3048  0.2305
14590SOL    HW246024   1.036   4.614   3.976  1.2642  0.3760  1.0921
14591SOL     OW46025   3.330   0.003   0.717 -0.2660  0.2357  0.1415
14591SOL    HW146026   3.292   0.050   0.643 -1.3600  1.3980  1.3727
14591SOL    HW246027   3.422   0.026   0.716 -0.5274  1.3159 -0.1022
14592SOL     OW46028   4.090   8.548   5.302 -0.0009  0.0485 -0.5027
14592SOL    HW146029   4.037   8.502   5.368 -0.8387  1.3924 -0.2045
14592SOL    HW246030   4.180   8.536   5.331 -0.2412 -0.8523 -0.0812
14593SOL     OW46031   2.911   5.200   0.399  0.4980  0.1749 -0.0571
14593SOL    HW146032   2.838   5.139   0.386  0.2449  0.5834 -0.6211
14593SOL    HW246033   2.869   5.283   0.424  0.9219 -0.3527  2.7879
14594SOL     OW46034   3.448   7.497   9.170  0.8270 -0.5794 -0.4874
14594SOL    HW146035   3.448   7.565   9.103 -0.6179 -0.7785 -0.7373
14594SOL    HW246036   3.528   7.447   9.153  1.0285  0.0153 -1.3941
14595SOL     OW46037   6.971   3.335   6.357  1.2669  0.4487 -0.5851
14595SOL    HW146038   7.030   3.324   6.431 -0.0781 -0.7206  0.3769
14595SOL    HW246039   6.964   3.248   6.318 -0.4606  0.3465 -0.1318
14596SOL     OW46040   3.275   0.645  10.210  0.0773 -0.2762  0.5157
14596SOL    HW146041   3.350   0.690  10.171 -0.6030  1.2378  0.9178
14596SOL    HW246042   3.202   0.705  10.199 -0.6677 -0.8969  1.8680
14597SOL     OW46043   2.878   7.836  10.423 -0.4412  0.3246 -0.0370
14597SOL    HW146044   2.784   7.853  10.418 -0.2321  1.2215 -1.3114
14597SOL    HW246045   2.913   7.868  10.340  1.0075  0.0583  0.4375
14598SOL     OW46046   9.861   3.938   0.265 -0.2660  0.1662  0.2975
14598SOL    HW146047   9.865   4.010   0.328 -0.9909  2.4443 -2.0734
14598SOL    HW246048   9.857   3.982   0.180  2.4807 -2.7440 -1.5090
14599SOL     OW46049   2.390   8.359   5.309  0.4851  0.4057  0.0108
14599SOL    HW146050   2.484   8.356   5.329  0.3085  1.6947  1.1165
14599SOL    HW246051   2.364   8.267   5.305  1.6410  0.0407  0.4206
14600SOL     OW46052   9.037   4.640   2.748  0.3912 -0.1713 -0.4667
14600SOL    HW146053   9.022   4.564   2.692 -1.8485  0.4458 -0.8082
14600SOL    HW246054   9.022   4.608   2.837 -0.1236 -0.2337 -0.5741
14601SOL     OW46055   0.853   7.158   2.360 -0.1107 -0.5934  0.1994
14601SOL    HW146056   0.870   7.096   2.289 -0.4714 -0.7343  0.2386
14601SOL    HW246057   0.794   7.223   2.322  0.8582  0.1554 -0.0728
14602SOL     OW46058   5.889  10.295   9.951 -0.3187  0.0504  0.0211
14602SOL    HW146059   5.898  10.383   9.986  1.2480  0.9955 -2.5014
14602SOL    HW246060   5.958  10.245   9.993 -0.5741  0.2627  0.7080
14603SOL     OW46061   1.826   5.072   9.570 -0.7829  0.0999 -0.2819
14603SOL    HW146062   1.816   4.988   9.526  2.1579  0.0477 -0.9946
14603SOL    HW246063   1.906   5.064   9.622  0.2891  2.8063 -1.3099
14604SOL     OW46064   3.412   7.969   7.923 -0.3343  0.3773  0.1417
14604SOL    HW146065   3.425   8.061   7.946 -1.5602  0.3829  0.9139
14604SOL    HW246066   3.501   7.935   7.908  0.1604  1.5802  0.2440
14605SOL     OW46067   6.097   0.875  10.283  0.3780  0.2052  0.4621
14605SOL    HW146068   6.036   0.926  10.230  0.7920  0.2916  0.0651
14605SOL    HW246069   6.097   0.788  10.241  2.3995  0.8747 -1.0851
14606SOL     OW46070   6.567   2.068   1.305  0.3318 -0.0582 -0.2866
14606SOL    HW146071   6.554   2.105   1.393  0.1556  0.1788 -0.4098
14606SOL    HW246072   6.659   2.085   1.285 -0.1076  1.7077 -0.9663
14607SOL     OW46073   7.303   4.929   9.885  0.5577  0.1716 -0.0946
14607SOL    HW146074   7.311   4.917   9.791  0.4498 -0.0610 -0.0736
14607SOL    HW246075   7.394   4.930   9.917  0.6228  0.8670 -0.2735
14608SOL     OW46076   3.058   7.495   1.536 -0.4977  0.0703 -0.0210
14608SOL    HW146077   3.026   7.414   1.576  0.0994 -0.3563 -0.3814
14608SOL    HW246078   3.070   7.555   1.610  0.1391 -0.5527  0.4052
14609SOL     OW46079   1.305   4.746   2.288 -0.0945  0.1250  0.0389
14609SOL    HW146080   1.316   4.840   2.274  1.1346  0.0738  0.4951
14609SOL    HW246081   1.385   4.706   2.252 -0.3882 -0.6946  0.2654
14610SOL     OW46082   4.768   8.129   5.652  0.0684 -0.6748 -0.4073
14610SOL    HW146083   4.804   8.143   5.740  0.2187  0.2105 -0.5913
14610SOL    HW246084   4.845   8.122   5.596 -0.0223  0.2675 -0.6688
14611SOL     OW46085   5.918   3.524   4.303  0.0483 -0.5740  0.3909
14611SOL    HW146086   5.997   3.471   4.313  1.8103  2.1077  2.1542
14611SOL    HW246087   5.922   3.557   4.213  1.8200  0.6276  0.8422
14612SOL     OW46088   1.480  10.654   5.571 -0.1802  0.1507 -0.1497
14612SOL    HW146089   1.568  10.649   5.610 -0.3850 -2.4194  0.1184
14612SOL    HW246090   1.420  10.644   5.645 -0.6565 -0.2202 -0.5812
14613SOL     OW46091   3.815   6.597   5.417  0.4314  0.3779  0.9641
14613SOL    HW146092   3.770   6.671   5.458 -0.7556  0.5386 -0.5301
14613SOL    HW246093   3.795   6.606   5.324 -0.7580 -2.4780  0.8575
14614SOL     OW46094   6.817   5.287   9.100 -0.6057 -1.2598 -0.3809
14614SOL    HW146095   6.860   5.331   9.027  1.2293 -2.3252  0.0213
14614SOL    HW246096   6.859   5.322   9.178  0.6292 -3.3652 -0.0314
14615SOL     OW46097   1.322   2.437  10.590  0.8316  0.1936 -0.1582
14615SOL    HW146098   1.388   2.468  10.529  0.5111  0.4337 -0.3846
14615SOL    HW246099   1.327   2.498  10.664  0.8958  0.1806 -0.1515
14616SOL     OW46100   0.591   5.973   2.238  0.1552  0.7656 -0.2956
14616SOL    HW146101   0.589   5.923   2.156  2.9831 -2.2115  1.2204
14616SOL    HW246102   0.656   6.041   2.224  0.2680  0.5814 -0.6718
14617SOL     OW46103   8.567   6.931   2.894 -0.1003 -0.3761 -0.3840
14617SOL    HW146104   8.478   6.931   2.931 -0.1175 -0.0318 -0.4280
14617SOL    HW246105   8.621   6.894   2.964 -0.0876  0.5379  0.1001
14618SOL     OW46106   7.254   3.219   2.168 -0.3830  0.0191  0.8781
14618SOL    HW146107   7.163   3.201   2.189 -0.3309  1.0688  2.1825
14618SOL    HW246108   7.260   3.211   2.073 -2.0326  0.7574  0.6869
14619SOL     OW46109   3.489   4.046   1.608 -0.5405  0.2678  0.0464
14619SOL    HW146110   3.498   4.138   1.581  1.5392 -0.1640 -0.9390
14619SOL    HW246111   3.517   4.045   1.700 -3.4342  1.0379  1.0282
14620SOL     OW46112   9.287   3.632   6.386  0.3703  0.4443 -0.2005
14620SOL    HW146113   9.359   3.645   6.324 -0.1385 -0.7202 -1.0707
14620SOL    HW246114   9.211   3.670   6.342  0.7433  3.5765  1.5743
14621SOL     OW46115   3.426   1.411   0.838  0.3380  0.4858 -0.5444
14621SOL    HW146116   3.423   1.340   0.903  0.2380  1.0956  0.1225
14621SOL    HW246117   3.520   1.428   0.827  0.3571  0.3479 -0.6048
14622SOL     OW46118   5.052   9.468   5.727  0.4615  0.2503  0.1154
14622SOL    HW146119   5.006   9.552   5.724 -0.5997 -0.3429 -2.0973
14622SOL    HW246120   5.136   9.484   5.684  0.0851  0.1023 -0.6902
14623SOL     OW46121   2.930   2.576   1.063 -0.0024  0.2227 -0.1121
14623SOL    HW146122   2.988   2.573   0.987 -0.3447  1.5911 -0.4515
14623SOL    HW246123   2.869   2.647   1.044  0.3624  1.1119  1.7549
14624SOL     OW46124   6.013   5.129   9.455  0.3084  0.2982  0.0970
14624SOL    HW146125   5.996   5.037   9.471 -0.2080  0.7183  2.4648
14624SOL    HW246126   5.952   5.155   9.387 -0.3768 -0.8434  0.2703
14625SOL     OW46127   6.594   0.014   0.405  0.7287  0.3676 -0.1206
14625SOL    HW146128   6.663   0.069   0.442 -0.6119  0.0657  3.2356
14625SOL    HW246129   6.599  -0.068   0.455 -1.5893  0.1065 -0.2126
14626SOL     OW46130   3.199   7.047   1.818  0.1404  0.5907 -0.1497
14626SOL    HW146131   3.227   6.973   1.764 -0.1969  0.0019  0.4689
14626SOL    HW246132   3.245   7.035   1.901  1.1259  1.8205 -0.4861
14627SOL     OW46133   0.292   7.972   7.594  0.2054  0.1279  0.0442
14627SOL    HW146134   0.336   7.891   7.618  0.3617  0.7271  1.9670
14627SOL    HW246135   0.340   8.041   7.641 -0.5836  1.2109 -0.6752
14628SOL     OW46136   8.836   8.992   6.983 -0.3696  0.3794 -0.4841
14628SOL    HW146137   8.832   9.005   6.888  0.5614 -0.9021 -0.7266
14628SOL    HW246138   8.784   8.913   6.998 -0.2298  0.3845  0.0293
14629SOL     OW46139   5.440   9.279   6.681 -0.4070 -0.2027 -0.0689
14629SOL    HW146140   5.403   9.357   6.638  0.1377 -0.0130 -0.1983
14629SOL    HW246141   5.469   9.224   6.608  2.7491  1.1684 -0.0117
14630SOL     OW46142   5.901   8.644   7.993  0.1595 -0.2867 -0.3344
14630SOL    HW146143   5.851   8.590   8.054  0.0098  1.1391  0.8540
14630SOL    HW246144   5.840   8.713   7.967  0.1731 -0.9406 -2.2456
14631SOL     OW46145   9.624   5.354   5.364  0.1159 -0.4840  0.7186
14631SOL    HW146146   9.596   5.263   5.372  0.7944 -0.6988  0.7162
14631SOL    HW246147   9.687   5.366   5.436  0.0336 -0.0193  0.7161
14632SOL     OW46148   8.415   0.769   6.788 -0.6079 -0.1468 -0.1315
14632SOL    HW146149   8.349   0.758   6.857 -0.9721  1.3603 -0.2184
14632SOL    HW246150   8.489   0.808   6.833  0.1299 -1.5026 -0.1115
14633SOL     OW46151   0.730   3.404   7.116  0.0339  0.3594 -0.3035
14633SOL    HW146152   0.747   3.496   7.136 -0.7701  0.6938 -1.0902
14633SOL    HW246153   0.667   3.375   7.181  0.4034  0.3079  0.0393
14634SOL     OW46154   6.465   6.745   7.425  0.0016 -0.3087 -0.4376
14634SOL    HW146155   6.506   6.807   7.485 -1.1252 -0.3087  0.3813
14634SOL    HW246156   6.446   6.795   7.346  0.6543 -0.0619 -0.4399
14635SOL     OW46157   5.871   4.418   9.616  0.6243  0.4176 -0.7201
14635SOL    HW146158   5.834   4.330   9.630  4.0182 -0.9236  0.8590
14635SOL    HW246159   5.883   4.453   9.704 -0.9339  2.7079 -1.3309
14636SOL     OW46160   6.033   8.668   6.828 -0.0827 -0.2233 -0.1108
14636SOL    HW146161   6.070   8.583   6.849  0.9895  0.3662  0.5158
14636SOL    HW246162   6.086   8.700   6.755 -0.7478 -0.2584 -0.6193
14637SOL     OW46163   2.416   3.547  10.563  0.0401 -0.5843  0.2201
14637SOL    HW146164   2.488   3.511  10.511  0.8570  1.7933 -0.4135
14637SOL    HW246165   2.422   3.500  10.647  1.0385 -1.8657 -0.5277
14638SOL     OW46166   6.723   5.663   2.221 -0.8119  0.2701 -0.4418
14638SOL    HW146167   6.660   5.651   2.150 -0.8080  0.1903 -0.4318
14638SOL    HW246168   6.791   5.597   2.203 -1.1871 -0.2669  0.0625
14639SOL     OW46169   9.850   8.606   6.745 -0.1888 -0.8342 -0.9387
14639SOL    HW146170   9.895   8.607   6.829 -1.7179 -1.3416 -0.0724
14639SOL    HW246171   9.876   8.688   6.703  2.0522 -1.4210 -0.8015
14640SOL     OW46172   9.667   3.750   3.282 -0.0760 -0.2725  0.4451
14640SOL    HW146173   9.708   3.684   3.338 -0.9466 -0.5909  0.7267
14640SOL    HW246174   9.639   3.819   3.343  0.7322  0.3201  0.1655
14641SOL     OW46175   1.068   7.362   1.923 -0.4488  0.1019  0.0960
14641SOL    HW146176   1.054   7.278   1.878 -0.2365  0.3042 -0.3609
14641SOL    HW246177   1.147   7.398   1.882 -0.0540  0.1415  0.8701
14642SOL     OW46178   3.153   3.689   3.253 -0.3222 -0.7819 -0.1413
14642SOL    HW146179   3.138   3.711   3.344  0.0249 -3.2892  0.6017
14642SOL    HW246180   3.080   3.632   3.230  0.5213 -1.5997 -0.8771
14643SOL     OW46181   7.306   8.327   9.743 -0.8410  0.3528 -0.4842
14643SOL    HW146182   7.238   8.386   9.711 -2.7317 -1.8018 -0.6944
14643SOL    HW246183   7.290   8.245   9.697  0.2370 -1.0215  1.4586
14644SOL     OW46184   7.818  10.503   9.625 -0.3489 -0.0190  0.1742
14644SOL    HW146185   7.775  10.551   9.554 -1.0753 -0.8400  0.0428
14644SOL    HW246186   7.786  10.414   9.617  0.6272 -0.4329  0.7056
14645SOL     OW46187   6.718   3.778   7.929 -0.1829 -0.1193  0.3474
14645SOL    HW146188   6.713   3.738   8.016 -1.9497 -1.1326 -0.1617
14645SOL    HW246189   6.658   3.726   7.875 -0.1663  1.3197 -1.1461
14646SOL     OW46190   0.329   1.706   7.657 -0.3004  0.5102 -0.0354
14646SOL    HW146191   0.415   1.726   7.619  0.3980  0.9533  1.6908
14646SOL    HW246192   0.348   1.650   7.732 -1.4158  1.2810  0.8778
14647SOL     OW46193   0.027   3.174   5.686  0.1324  0.4952 -0.5839
14647SOL    HW146194   0.051   3.192   5.777 -2.1524 -2.5435  0.8150
14647SOL    HW246195   0.004   3.259   5.649  0.8348  1.7905  1.7642
14648SOL     OW46196   4.226   7.444   8.299 -0.1379  0.2513  0.6236
14648SOL    HW146197   4.272   7.524   8.324 -1.4762  1.2496  0.0444
14648SOL    HW246198   4.290   7.395   8.247  1.0077  0.4942  1.7659
14649SOL     OW46199   8.804   0.047   3.259  0.4425  0.0987  0.4572
14649SOL    HW146200   8.724   0.096   3.237 -0.4792 -1.3665  0.3391
14649SOL    HW246201   8.858   0.053   3.180 -1.5047 -2.5158 -1.2608
14650SOL     OW46202   6.525   6.054   9.605  0.1376 -0.2509 -1.2555
14650SOL    HW146203   6.596   6.055   9.542  0.0359 -0.4444 -1.3723
14650SOL    HW246204   6.555   5.995   9.675  1.1993  1.6410 -0.0272
14651SOL     OW46205   2.815   3.538   1.145 -0.6430 -0.0784  0.4122
14651SOL    HW146206   2.795   3.536   1.239  2.2074  1.3505  1.1695
14651SOL    HW246207   2.773   3.460   1.110 -2.6749 -0.1118  2.6537
14652SOL     OW46208   2.956   1.263   9.406 -0.1875 -0.2177 -0.0069
14652SOL    HW146209   2.875   1.225   9.440 -0.1622 -1.0256 -0.8101
14652SOL    HW246210   2.951   1.250   9.311  0.5040  0.4733 -0.1499
14653SOL     OW46211   4.807   3.063   4.189  0.5135 -0.1167 -0.1306
14653SOL    HW146212   4.802   3.080   4.283 -0.6752 -0.7382 -0.0699
14653SOL    HW246213   4.717   3.044   4.163  0.6292  1.2169 -1.6330
14654SOL     OW46214   7.689   7.662   4.981  0.2013 -0.3893 -0.1109
14654SOL    HW146215   7.776   7.698   4.963  0.4203 -0.0593  1.4222
14654SOL    HW246216   7.702   7.568   4.987  0.1556 -0.4893 -1.3612
14655SOL     OW46217   5.589   0.928   4.745  0.2881 -0.8702 -0.6720
14655SOL    HW146218   5.509   0.889   4.710 -0.6545  1.5244 -1.4025
14655SOL    HW246219   5.654   0.917   4.675 -0.9083  1.7139 -2.3312
14656SOL     OW46220   9.913   6.779   6.962  0.2023 -0.1867 -0.2027
14656SOL    HW146221   9.849   6.782   7.034 -0.2346  1.4782 -0.6049
14656SOL    HW246222   9.964   6.700   6.978 -0.1772 -0.0967  1.6885
14657SOL     OW46223   6.215  10.532   6.253  0.3314  0.1072  0.3268
14657SOL    HW146224   6.308  10.509   6.249  0.1252 -0.7446  0.2200
14657SOL    HW246225   6.183  10.516   6.164 -0.0705 -0.2962  0.5422
14658SOL     OW46226   8.116   8.807   4.657 -0.3488  0.0771 -0.4554
14658SOL    HW146227   8.040   8.806   4.598  0.1554  0.9637 -1.1404
14658SOL    HW246228   8.191   8.799   4.599  0.1075 -0.3772  0.1870
14659SOL     OW46229   6.186  10.535   5.761  0.1081  0.6538 -0.4376
14659SOL    HW146230   6.106  10.570   5.798  1.3464  1.9466  1.1886
14659SOL    HW246231   6.254  10.557   5.825  1.3570 -3.0197 -0.2213
14660SOL     OW46232   3.392   6.545   5.844  0.1365  0.6511 -0.1261
14660SOL    HW146233   3.372   6.461   5.802 -0.9589  1.5358 -1.4611
14660SOL    HW246234   3.310   6.572   5.884  0.7459  0.6223  1.1897
14661SOL     OW46235   3.939   4.987   8.515 -0.1247 -0.0711  0.6260
14661SOL    HW146236   3.896   5.006   8.599 -1.9739 -1.6893  0.1035
14661SOL    HW246237   3.943   4.892   8.511 -0.2343 -0.0354 -1.2030
14662SOL     OW46238   2.271   1.563   6.276 -0.5609  0.2678  0.8565
14662SOL    HW146239   2.243   1.488   6.328 -0.0083 -1.2359 -0.9184
14662SOL    HW246240   2.355   1.536   6.238 -1.4189  0.8664 -1.6127
14663SOL     OW46241   8.038   6.985   9.517 -0.0120  0.4826  0.7519
14663SOL    HW146242   7.953   6.991   9.475  0.2596 -1.1256 -0.0836
14663SOL    HW246243   8.035   6.905   9.568  0.6600  0.9436  1.5548
14664SOL     OW46244   7.614   7.341   3.524 -0.1368 -0.2383  0.3964
14664SOL    HW146245   7.524   7.355   3.495  0.0893  1.6877  0.5239
14664SOL    HW246246   7.647   7.429   3.545  1.9763 -0.8290 -0.2181
14665SOL     OW46247   9.326   2.513   5.187 -0.0951  0.8722 -0.2142
14665SOL    HW146248   9.250   2.571   5.201  0.5892  2.1163 -1.3811
14665SOL    HW246249   9.287   2.427   5.173 -1.2002  1.1780  0.7207
14666SOL     OW46250   6.271   9.165   5.540  0.2635 -0.5209  0.2346
14666SOL    HW146251   6.239   9.170   5.450 -0.8477  1.9599  0.6939
14666SOL    HW246252   6.194   9.139   5.591  0.2942  0.3178  0.7241
14667SOL     OW46253  10.321   5.393   7.770  0.2502  0.0534  0.5411
14667SOL    HW146254  10.395   5.420   7.826 -0.1207 -2.9156  2.7527
14667SOL    HW246255  10.244   5.430   7.813  0.2766  2.5803 -1.3888
14668SOL     OW46256   1.214   4.703   6.150  0.4192 -0.5388 -0.4915
14668SOL    HW146257   1.179   4.785   6.115 -1.7825 -0.2617  2.0188
14668SOL    HW246258   1.171   4.635   6.100  0.9740 -0.2004 -1.4585
14669SOL     OW46259   9.609   0.402   0.593  0.0189 -0.3793 -0.4929
14669SOL    HW146260   9.642   0.336   0.654 -0.6000 -0.9892 -0.8048
14669SOL    HW246261   9.632   0.486   0.633 -0.3173 -0.7712  0.5416
14670SOL     OW46262   1.262   5.112   5.237 -0.2891  0.0292 -0.0754
14670SOL    HW146263   1.291   5.178   5.300  0.1730  0.1093 -0.3611
14670SOL    HW246264   1.314   5.130   5.159 -2.5108  1.4352 -1.3301
14671SOL     OW46265   6.474   0.910   1.429  0.0134 -0.3765 -0.4009
14671SOL    HW146266   6.504   0.882   1.515  1.1068  1.0757 -0.2631
14671SOL    HW246267   6.403   0.849   1.406  0.8233 -1.8190  0.7752
14672SOL     OW46268   3.021   0.356   1.091  0.3104  0.3835  0.0460
14672SOL    HW146269   3.007   0.349   1.185  0.1814  0.0679  0.0056
14672SOL    HW246270   2.940   0.323   1.052  0.6371 -0.1863 -0.1755
14673SOL     OW46271   9.359   4.622   7.911 -0.3142 -0.2500 -0.2892
14673SOL    HW146272   9.333   4.698   7.860 -1.7438 -0.2661  0.3536
14673SOL    HW246273   9.342   4.547   7.853  0.8985 -0.1177 -0.8451
14674SOL     OW46274   0.480   6.686   1.989 -0.2723  0.3770  0.1422
14674SOL    HW146275   0.438   6.675   1.903 -0.7389  0.8477  0.3064
14674SOL    HW246276   0.420   6.742   2.038 -0.8557 -1.2380  1.3743
14675SOL     OW46277   8.941   8.433   4.172 -0.0619 -0.1069  0.0007
14675SOL    HW146278   8.898   8.489   4.236  0.7445 -0.0710  0.5265
14675SOL    HW246279   9.010   8.488   4.134  1.1049 -0.8758  0.9142
14676SOL     OW46280   6.221   3.739   3.995 -0.0368  0.0362 -0.1863
14676SOL    HW146281   6.190   3.692   3.918  1.2690  0.3796 -0.9423
14676SOL    HW246282   6.278   3.677   4.040  2.7830  1.2223 -1.9022
14677SOL     OW46283  10.109   0.871   8.947 -0.0722 -0.2222  0.3201
14677SOL    HW146284  10.093   0.945   8.888 -0.9056  0.8236  1.7796
14677SOL    HW246285  10.198   0.843   8.926  0.0041  0.7415 -0.7423
14678SOL     OW46286   8.817   1.653   8.076  0.0026 -0.2611  0.0127
14678SOL    HW146287   8.819   1.749   8.082 -0.5272 -0.3093  1.1891
14678SOL    HW246288   8.757   1.626   8.145 -1.4868 -1.3598 -1.6387
14679SOL     OW46289   2.880   6.750   4.795 -0.0020  0.2423  0.0704
14679SOL    HW146290   2.866   6.681   4.860  2.5819 -0.9439 -0.5414
14679SOL    HW246291   2.853   6.712   4.712  0.3202  0.3970 -0.1058
14680SOL     OW46292   6.747  10.201   6.156 -0.2455  0.0758  0.1096
14680SOL    HW146293   6.781  10.282   6.194  0.7231  0.9015 -2.3131
14680SOL    HW246294   6.674  10.177   6.212 -0.9534  2.9774  0.5704
14681SOL     OW46295   1.732   5.843   5.598 -0.5478  0.2182 -0.1446
14681SOL    HW146296   1.804   5.794   5.557 -0.2520  0.7158 -0.2306
14681SOL    HW246297   1.691   5.781   5.657  0.2373  0.0543  0.2380
14682SOL     OW46298   7.581   5.581   0.063  0.3076 -0.1972 -0.2581
14682SOL    HW146299   7.660   5.599   0.113  0.2013 -0.3161 -0.0476
14682SOL    HW246300   7.513   5.635   0.104  0.5201  0.7865 -1.1442
14683SOL     OW46301   8.735   2.810   8.205  0.2985 -0.1001 -0.6433
14683SOL    HW146302   8.819   2.830   8.246  0.6717 -2.3710 -0.1782
14683SOL    HW246303   8.733   2.865   8.127  2.1864  0.0765 -0.6154
14684SOL     OW46304   3.335   0.367   6.058  0.4873  0.0096  0.4400
14684SOL    HW146305   3.343   0.272   6.063 -2.8352 -0.3342  1.9588
14684SOL    HW246306   3.300   0.383   5.970  0.6693 -0.2239  0.3238
14685SOL     OW46307   9.177   2.994  10.262  0.1070  0.4523 -0.1680
14685SOL    HW146308   9.089   2.989  10.301 -0.6446 -2.0661 -1.8975
14685SOL    HW246309   9.225   3.052  10.319 -2.3661  1.0003  1.5324
14686SOL     OW46310   6.293   2.528   6.733 -0.2479 -0.5349 -0.1167
14686SOL    HW146311   6.229   2.540   6.803  0.2097 -1.1587  0.4257
14686SOL    HW246312   6.340   2.611   6.729  1.3192 -1.2450  1.9769
14687SOL     OW46313   0.722   7.219   1.877  0.1962 -0.1433 -0.5549
14687SOL    HW146314   0.695   7.169   1.955 -0.5155 -0.0789 -0.7569
14687SOL    HW246315   0.703   7.310   1.899  1.0016 -0.0028 -0.3953
14688SOL     OW46316   6.314   4.605   4.346 -0.6543  0.2189  0.1245
14688SOL    HW146317   6.324   4.512   4.368 -1.1063 -0.0873 -0.9112
14688SOL    HW246318   6.263   4.605   4.265  1.5901  1.2520 -1.3932
14689SOL     OW46319   2.123   1.163  10.149 -0.4581 -0.0406  0.0144
14689SOL    HW146320   2.163   1.076  10.137 -1.1130 -0.6283  1.8270
14689SOL    HW246321   2.138   1.184  10.241 -0.1008  1.9166 -0.4513
14690SOL     OW46322   3.818   7.277   6.665 -0.1905 -0.2636  0.2517
14690SOL    HW146323   3.786   7.325   6.741  0.1905  0.9144 -0.3028
14690SOL    HW246324   3.851   7.345   6.606  0.2122 -1.2047 -0.6399
14691SOL     OW46325   3.781   2.019   0.858  0.2734 -0.5257  0.3646
14691SOL    HW146326   3.799   2.036   0.766  0.5733  0.8198  0.6528
14691SOL    HW246327   3.866   2.002   0.897  0.2982  0.1380  0.6187
14692SOL     OW46328   5.810   6.198   9.269 -0.7881  0.4798  0.4589
14692SOL    HW146329   5.888   6.242   9.236  0.6780 -0.9079  1.9312
14692SOL    HW246330   5.764   6.265   9.319  0.6488  0.7485  1.4608
14693SOL     OW46331   8.027   6.574   9.394 -0.5160  0.1206  0.2727
14693SOL    HW146332   7.974   6.587   9.315  1.2054  3.3631 -0.5151
14693SOL    HW246333   8.103   6.523   9.364  0.1172  1.3155 -0.1948
14694SOL     OW46334   4.941   9.662   3.966  0.2901  0.1879  0.5180
14694SOL    HW146335   5.019   9.688   3.918  0.9168 -1.1325  0.7901
14694SOL    HW246336   4.949   9.706   4.050 -0.1768  1.4827 -0.0792
14695SOL     OW46337   5.231   7.645   5.942  0.1193 -0.7026 -0.4887
14695SOL    HW146338   5.153   7.636   5.888 -0.6247  2.8015 -0.2358
14695SOL    HW246339   5.286   7.708   5.895  0.6019  0.5157  1.5695
14696SOL     OW46340  10.399   7.118   7.734  0.1825 -0.1891  0.0064
14696SOL    HW146341  10.328   7.164   7.780  0.5058  4.0707 -3.0961
14696SOL    HW246342  10.356   7.079   7.657  0.6396 -1.2308  0.2651
14697SOL     OW46343   9.418   3.217   1.482  0.0367  0.0908 -0.0536
14697SOL    HW146344   9.417   3.122   1.476  3.2735 -0.0439 -0.1676
14697SOL    HW246345   9.412   3.235   1.576 -2.0922 -0.0747 -0.1058
14698SOL     OW46346   9.381  10.027   4.320 -0.0132  0.3284  0.4256
14698SOL    HW146347   9.451  10.088   4.297  0.9293 -0.1753  1.7833
14698SOL    HW246348   9.427   9.949   4.351 -1.1959 -0.5790 -0.0611
14699SOL     OW46349   2.866   8.911   6.000  0.8135  0.0052 -0.2239
14699SOL    HW146350   2.862   8.905   6.096  0.1769  0.9537 -0.1842
14699SOL    HW246351   2.940   8.970   5.983  0.7058  0.1138 -0.3117
14700SOL     OW46352   2.432   7.922   3.041  0.7112 -0.4812 -0.2283
14700SOL    HW146353   2.383   7.938   3.121 -1.8766 -0.6973 -1.6332
14700SOL    HW246354   2.523   7.936   3.064  0.1217 -1.1413  2.8660
14701SOL     OW46355   2.526   2.958   6.381 -0.4540 -0.7312  0.3465
14701SOL    HW146356   2.534   2.914   6.296 -1.5736 -0.6103  0.1631
14701SOL    HW246357   2.482   2.894   6.437 -2.1522  0.1155  0.0597
14702SOL     OW46358   2.528   7.331   1.883 -0.0921  0.6275  0.1886
14702SOL    HW146359   2.619   7.362   1.891  0.1829 -0.3376  1.0072
14702SOL    HW246360   2.533   7.260   1.819 -0.6446  1.9407 -1.3507
14703SOL     OW46361   0.248   0.446   6.734 -0.1484  0.3122  0.1877
14703SOL    HW146362   0.250   0.422   6.641  1.0596 -2.1342  0.7480
14703SOL    HW246363   0.249   0.542   6.734  1.1169  0.4009 -2.3372
14704SOL     OW46364   6.151   3.881   7.668  0.2109 -0.3765  0.6680
14704SOL    HW146365   6.245   3.881   7.683  0.6919  1.5803 -1.7325
14704SOL    HW246366   6.137   3.810   7.604 -0.4231 -2.3370  2.8155
14705SOL     OW46367   6.544   1.431   5.413 -0.0539 -0.5642 -0.2700
14705SOL    HW146368   6.582   1.471   5.335 -0.4845  1.1185  0.3414
14705SOL    HW246369   6.451   1.453   5.408 -0.5183 -2.3680 -0.3983
14706SOL     OW46370   2.513   2.256   5.656  0.1477  0.1853 -0.1337
14706SOL    HW146371   2.494   2.345   5.625 -0.6685 -0.1496 -0.6246
14706SOL    HW246372   2.501   2.261   5.751 -2.7949 -0.0564 -0.4195
14707SOL     OW46373   3.667   1.906   5.434  0.1172 -0.2154  0.4239
14707SOL    HW146374   3.594   1.917   5.373  0.1397 -0.2811  0.3848
14707SOL    HW246375   3.628   1.868   5.512  0.1305 -0.3743  0.3545
14708SOL     OW46376   3.022   0.771   7.812  0.4601  0.1962 -0.6156
14708SOL    HW146377   2.972   0.835   7.861 -0.4035 -0.2910 -0.8388
14708SOL    HW246378   3.088   0.739   7.874 -0.4371 -0.2091  0.1582
14709SOL     OW46379  10.370   7.055   5.631  0.0778 -0.3692  0.1469
14709SOL    HW146380  10.335   7.087   5.548 -1.0882  0.1247  0.8053
14709SOL    HW246381  10.465   7.048   5.616  0.0729  1.1545 -0.7387
14710SOL     OW46382   4.640   1.487   2.459 -0.0190  0.0949 -0.2762
14710SOL    HW146383   4.670   1.566   2.415  0.7296 -0.4538 -0.7609
14710SOL    HW246384   4.719   1.434   2.471 -0.4888 -0.5185  0.1783
14711SOL     OW46385   1.550   6.258   4.304  0.1653 -0.4578 -0.1013
14711SOL    HW146386   1.486   6.300   4.360  3.3696  1.5210  2.4259
14711SOL    HW246387   1.507   6.179   4.273 -2.8809 -0.1157  2.7502
14712SOL     OW46388   5.360   3.581   9.997 -0.0435 -0.5102 -0.5072
14712SOL    HW146389   5.310   3.662   9.983 -0.7300 -0.4316  1.9604
14712SOL    HW246390   5.443   3.611  10.034  0.5648 -0.8341 -1.5870
14713SOL     OW46391   3.498  10.136   1.327  0.2873  0.2346  0.0108
14713SOL    HW146392   3.455  10.055   1.355  1.2498 -0.1562  0.4002
14713SOL    HW246393   3.554  10.110   1.254  0.3068  0.6247 -0.1166
14714SOL     OW46394   2.502   1.710   9.906  0.1512  0.0939  0.6299
14714SOL    HW146395   2.484   1.694   9.814  4.1253  2.5942 -0.8159
14714SOL    HW246396   2.463   1.796   9.924 -0.8998 -0.5239  1.4782
14715SOL     OW46397   1.207   3.681   2.841 -0.1769  0.0394  0.1439
14715SOL    HW146398   1.261   3.603   2.829  1.3562  1.0633  0.0656
14715SOL    HW246399   1.229   3.713   2.929 -0.9418  0.2756  0.2598
14716SOL     OW46400   4.027   9.241   0.803 -0.4399 -0.3814 -0.5869
14716SOL    HW146401   4.075   9.180   0.746 -0.2784 -0.2319 -0.6080
14716SOL    HW246402   4.018   9.194   0.886  0.1653 -0.2138 -0.4279
14717SOL     OW46403   8.402   6.956   8.143 -0.1074  0.0988 -0.3901
14717SOL    HW146404   8.411   6.869   8.103 -1.7337  0.5057 -1.7514
14717SOL    HW246405   8.350   6.941   8.222  2.9658 -0.6820  1.6568
14718SOL     OW46406   3.899   7.954   8.576 -0.3580  0.1677 -0.6344
14718SOL    HW146407   3.920   8.033   8.527  1.3615  0.0658 -0.1125
14718SOL    HW246408   3.943   7.883   8.528 -0.2307 -0.1934  0.0031
14719SOL     OW46409   3.444   2.597   5.210 -0.2674  0.1023 -0.1624
14719SOL    HW146410   3.481   2.620   5.295  1.3017 -1.0000 -0.5177
14719SOL    HW246411   3.402   2.678   5.180 -0.0208  0.7721  1.2229
14720SOL     OW46412   8.986   9.305   4.565 -0.5581 -0.3099 -0.5056
14720SOL    HW146413   8.931   9.264   4.631  1.2489 -2.7307 -0.3832
14720SOL    HW246414   8.943   9.389   4.547 -1.3282  0.3189  3.4485
14721SOL     OW46415   3.715   4.294   1.833  0.9953  0.3203 -0.3336
14721SOL    HW146416   3.760   4.264   1.755 -0.6955 -3.3521 -0.0753
14721SOL    HW246417   3.781   4.289   1.903  1.7614  1.0055 -0.9849
14722SOL     OW46418   0.070   1.221  10.018 -0.3114  0.7640 -0.5699
14722SOL    HW146419   0.093   1.242  10.108  0.1348  1.7526 -0.9041
14722SOL    HW246420   0.049   1.305   9.978 -1.3997  0.2444 -1.1503
14723SOL     OW46421  10.640   6.776   3.100 -0.2005  0.0349 -0.1194
14723SOL    HW146422  10.710   6.825   3.144 -0.0913  1.1951 -1.5102
14723SOL    HW246423  10.686   6.724   3.033 -0.6881  1.4738 -1.6379
14724SOL     OW46424   2.711   1.691   9.166 -0.5320  0.3114 -0.1230
14724SOL    HW146425   2.623   1.724   9.184 -0.9380 -0.5716 -0.4619
14724SOL    HW246426   2.737   1.647   9.247 -0.5555  0.2372 -0.1555
14725SOL     OW46427   1.630   6.292  10.443 -0.1946 -0.1092 -0.3565
14725SOL    HW146428   1.632   6.196  10.441 -0.6468 -0.1059 -1.0749
14725SOL    HW246429   1.538   6.315  10.431 -0.0230  0.4264 -0.6828
14726SOL     OW46430   9.163   5.177   1.192  0.1567  0.0775  0.2486
14726SOL    HW146431   9.144   5.125   1.114 -0.0535  0.6913 -0.1210
14726SOL    HW246432   9.253   5.155   1.215  0.8099  1.1238 -1.1669
14727SOL     OW46433   6.429   9.742   9.542 -0.0806 -0.7268 -0.3276
14727SOL    HW146434   6.476   9.733   9.625 -0.7236 -0.6080  0.0538
14727SOL    HW246435   6.456   9.665   9.491  0.5299 -0.6552 -0.1181
14728SOL     OW46436  10.197   3.614   6.047 -0.3367 -0.0495  0.8176
14728SOL    HW146437  10.237   3.682   6.101  1.5429  0.1114 -0.6721
14728SOL    HW246438  10.206   3.647   5.957 -1.0110 -1.4715  0.2006
14729SOL     OW46439   8.006   4.914  10.029  0.1015 -0.6594 -0.2686
14729SOL    HW146440   7.978   4.911  10.120  1.1985  0.0477  0.1062
14729SOL    HW246441   7.994   5.006  10.003 -0.6644 -0.9469 -0.9991
14730SOL     OW46442   6.632   6.346   9.415 -0.2905 -0.3597 -0.0336
14730SOL    HW146443   6.635   6.254   9.387  0.6962 -0.7515  1.2818
14730SOL    HW246444   6.723   6.367   9.437 -0.8187  0.2799  1.6820
14731SOL     OW46445   4.414   3.585   7.370  0.0893 -0.4014  0.1697
14731SOL    HW146446   4.358   3.653   7.331 -0.2347 -1.5776 -1.5326
14731SOL    HW246447   4.493   3.633   7.396 -0.1329  0.6666 -0.9669
14732SOL     OW46448   5.811   8.964   0.625 -0.0677  0.0671  0.7146
14732SOL    HW146449   5.803   9.016   0.705 -0.7577 -2.1001  2.1704
14732SOL    HW246450   5.879   8.899   0.647  1.0341  0.5310 -1.1456
14733SOL     OW46451   0.346   9.669   2.296  0.2830 -0.0551 -0.3424
14733SOL    HW146452   0.311   9.628   2.375  3.0638  1.2713  1.7760
14733SOL    HW246453   0.382   9.752   2.327  0.6651  0.9401 -3.2314
14734SOL     OW46454  10.003   1.458   5.949  0.3840 -0.0970 -0.3674
14734SOL    HW146455  10.079   1.496   5.992 -0.7980  1.4545  0.4808
14734SOL    HW246456  10.021   1.466   5.856  0.7042  1.5261 -0.1934
14735SOL     OW46457   2.485   6.686   5.774 -0.2276 -0.4268  0.2855
14735SOL    HW146458   2.413   6.635   5.813 -1.6864  2.1422  1.1560
14735SOL    HW246459   2.484   6.662   5.681 -1.1102 -1.6493  0.5888
14736SOL     OW46460   3.855   9.237   0.049 -0.4863 -0.0713  0.1728
14736SOL    HW146461   3.864   9.145   0.025  0.2877 -0.3340  1.3929
14736SOL    HW246462   3.936   9.278   0.018 -0.5947  0.0933  0.1039
14737SOL     OW46463   1.069  10.230   5.434 -0.4969  0.2140 -0.1312
14737SOL    HW146464   1.068  10.216   5.529  0.0975  0.1794 -0.1245
14737SOL    HW246465   1.030  10.151   5.397 -0.0687 -0.0823  0.0502
14738SOL     OW46466   5.232   3.084   0.148  0.2346 -0.2596 -0.1856
14738SOL    HW146467   5.238   3.134   0.066 -0.8302  0.7984  0.3429
14738SOL    HW246468   5.239   3.151   0.216 -2.4223 -0.6113  0.5566
14739SOL     OW46469   8.201   6.611   2.924 -0.6096 -0.2480  0.2914
14739SOL    HW146470   8.126   6.620   2.866 -0.3083 -0.3777 -0.1228
14739SOL    HW246471   8.187   6.529   2.970 -0.6470 -0.3477  0.1031
14740SOL     OW46472   0.329   2.238   7.306  0.3965 -0.5838  1.0183
14740SOL    HW146473   0.242   2.248   7.266  1.6408 -1.0597 -2.0766
14740SOL    HW246474   0.365   2.326   7.306  0.8836 -0.7586 -0.2534
14741SOL     OW46475   5.808   4.179   9.800 -0.3854 -0.1228  0.2064
14741SOL    HW146476   5.811   4.105   9.739  1.3724  0.7547 -0.8683
14741SOL    HW246477   5.786   4.139   9.884  0.4631 -1.8952 -0.3495
14742SOL     OW46478   4.382   5.364   4.135 -0.3634  0.5466  0.5898
14742SOL    HW146479   4.433   5.432   4.179  0.4457 -0.2171  0.8547
14742SOL    HW246480   4.411   5.282   4.175  0.4908 -0.2030 -1.4519
14743SOL     OW46481   5.773   0.390   2.296  0.2749  0.2542  0.4679
14743SOL    HW146482   5.762   0.368   2.388  0.8046  3.0419  1.2829
14743SOL    HW246483   5.713   0.331   2.250  0.0524 -1.2487  2.5487
14744SOL     OW46484  10.242   3.733   6.869  0.4919 -0.6612 -0.5986
14744SOL    HW146485  10.174   3.675   6.837  0.2161  0.0290 -1.2952
14744SOL    HW246486  10.206   3.770   6.950  0.6682 -1.4368 -0.1526
14745SOL     OW46487   7.542   7.823   2.650  0.4215 -0.0636 -0.4677
14745SOL    HW146488   7.480   7.855   2.716  1.2129  1.0535 -0.2402
14745SOL    HW246489   7.493   7.827   2.568 -0.5156 -1.2983 -0.0039
14746SOL     OW46490   6.459   1.580   2.254 -0.3998  0.0726  0.1392
14746SOL    HW146491   6.391   1.635   2.215  0.2310 -0.7264 -2.3009
14746SOL    HW246492   6.415   1.537   2.328 -1.9360  1.1359 -0.0992
14747SOL     OW46493   6.256   8.875   9.373  0.3912 -0.1761 -0.8702
14747SOL    HW146494   6.178   8.923   9.399  0.0018 -0.9134 -0.6494
14747SOL    HW246495   6.319   8.890   9.444  0.6962  0.9404 -1.3482
14748SOL     OW46496   6.624   0.928   0.826 -0.0417 -0.1441 -0.1168
14748SOL    HW146497   6.561   0.912   0.896  0.3022  1.3782  0.5885
14748SOL    HW246498   6.616   0.853   0.768 -0.9288 -1.0364  1.1236
14749SOL     OW46499   7.928   8.108   5.336 -0.2130 -0.6086  0.3581
14749SOL    HW146500   8.021   8.086   5.347  0.7238  2.1023 -1.0706
14749SOL    HW246501   7.926   8.164   5.258 -3.0681 -0.5283  0.3827
14750SOL     OW46502   3.315   9.345   6.768  0.1040  0.2776  0.0203
14750SOL    HW146503   3.228   9.307   6.784 -0.0722  0.4017 -0.6125
14750SOL    HW246504   3.370   9.310   6.839 -0.5730  0.5854  0.7078
14751SOL     OW46505   9.831   2.505   9.394  0.0568  0.2573  0.0309
14751SOL    HW146506   9.749   2.550   9.415 -0.0649  0.0513 -0.0062
14751SOL    HW246507   9.861   2.469   9.477 -0.6956 -1.0106 -0.2267
14752SOL     OW46508   2.672   7.230  10.070  0.0886  0.4768 -0.5929
14752SOL    HW146509   2.599   7.219  10.009 -0.4820  3.3890 -0.5756
14752SOL    HW246510   2.739   7.275  10.019  0.8427  0.1648  0.1027
14753SOL     OW46511   8.344   6.208   7.450 -0.4022 -0.1828  0.3678
14753SOL    HW146512   8.251   6.191   7.435 -0.4265  0.2055  0.0698
14753SOL    HW246513   8.348   6.242   7.540 -0.5882  0.1054  0.2685
14754SOL     OW46514   9.904   6.167   4.318  0.1995 -0.3170  0.5748
14754SOL    HW146515   9.972   6.113   4.276 -1.2849 -0.1713 -2.2847
14754SOL    HW246516   9.856   6.105   4.372  0.3887 -1.2511 -0.2735
14755SOL     OW46517   6.865   5.053   9.395  0.1309 -0.2747 -0.5718
14755SOL    HW146518   6.815   5.022   9.471 -0.2229 -2.5860 -1.6380
14755SOL    HW246519   6.864   4.978   9.334  2.1637  0.7626 -1.9863
14756SOL     OW46520   4.736  10.406   7.108 -0.2867  0.0596 -0.0700
14756SOL    HW146521   4.755  10.312   7.107 -0.9314 -0.0850  0.2445
14756SOL    HW246522   4.786  10.442   7.035  0.8751 -0.3419  0.5206
14757SOL     OW46523   4.797  10.244   5.800 -0.0573 -0.0654  0.2019
14757SOL    HW146524   4.716  10.253   5.851 -0.7425 -0.2667 -0.8184
14757SOL    HW246525   4.865  10.281   5.856 -0.9765  0.7817  0.7925
14758SOL     OW46526   1.475  10.619   6.501  0.8369  0.2465  0.0866
14758SOL    HW146527   1.413  10.593   6.433  2.0823 -0.3151 -0.8694
14758SOL    HW246528   1.546  10.662   6.454  1.6578 -0.0088  1.0524
14759SOL     OW46529  10.309  10.014   0.369  0.4523 -0.2315 -0.1139
14759SOL    HW146530  10.315  10.026   0.274 -1.4378 -0.9603 -0.3713
14759SOL    HW246531  10.258   9.933   0.379  1.6519 -0.8340  1.5420
14760SOL     OW46532   0.357   3.402   7.220 -0.0074  0.1581 -0.0453
14760SOL    HW146533   0.360   3.327   7.161 -1.0796 -0.8807  1.1700
14760SOL    HW246534   0.432   3.390   7.278  1.6044  1.6739 -1.6842
14761SOL     OW46535   1.204   6.153   3.151  0.1323 -0.0353 -0.3730
14761SOL    HW146536   1.298   6.159   3.138 -0.0596  2.0123 -1.2162
14761SOL    HW246537   1.168   6.129   3.066 -0.1601  0.0108 -0.2670
14762SOL     OW46538   6.815   6.312   3.967 -0.3997 -0.1697  0.2994
14762SOL    HW146539   6.831   6.303   4.061  0.5575 -1.8225  0.0229
14762SOL    HW246540   6.824   6.406   3.950  2.5720 -0.1364  1.3650
14763SOL     OW46541   1.871   2.760   1.577 -0.3382 -0.4358  0.4174
14763SOL    HW146542   1.843   2.839   1.531 -0.4828 -1.3858 -1.2325
14763SOL    HW246543   1.891   2.789   1.666  2.6018  2.0780 -0.8855
14764SOL     OW46544   0.963   0.189   5.199 -0.1721 -1.0842 -0.1414
14764SOL    HW146545   0.912   0.143   5.133  0.3361 -2.2269  0.2333
14764SOL    HW246546   1.022   0.246   5.149 -1.8107  0.3337 -0.5790
14765SOL     OW46547   1.182   4.572   8.048  0.1350 -0.2584 -0.2616
14765SOL    HW146548   1.217   4.483   8.056  0.9330  0.1664  1.6671
14765SOL    HW246549   1.258   4.626   8.025 -0.6979 -0.2744 -3.4705
14766SOL     OW46550   5.726   3.618   1.700 -0.3162 -0.0323  0.0024
14766SOL    HW146551   5.805   3.586   1.658  0.0130  0.6356  0.1141
14766SOL    HW246552   5.756   3.667   1.776 -0.8403  0.1325  0.1128
14767SOL     OW46553   8.897   5.775   2.384  0.2069  0.0411 -0.3915
14767SOL    HW146554   8.965   5.808   2.324  0.3742 -1.1244 -0.8811
14767SOL    HW246555   8.860   5.700   2.337 -1.0716  0.3536  0.1018
14768SOL     OW46556   8.358   9.121   6.767  0.2165 -0.4076 -0.7644
14768SOL    HW146557   8.349   9.026   6.764  2.5158 -0.6794 -1.2970
14768SOL    HW246558   8.342   9.144   6.858  1.3284 -1.5542 -0.2431
14769SOL     OW46559   1.494   1.471   4.637 -0.2277 -0.0298  0.4123
14769SOL    HW146560   1.408   1.514   4.632 -0.0430  0.2495 -0.9368
14769SOL    HW246561   1.475   1.379   4.655 -0.8042  0.0580  0.2552
14770SOL     OW46562   5.922   1.480   6.723  0.2728  0.0313 -0.7374
14770SOL    HW146563   5.880   1.566   6.725 -0.8674 -0.4939 -0.9447
14770SOL    HW246564   6.009   1.496   6.687 -0.1384  1.0242 -1.3280
14771SOL     OW46565   3.962   6.063   4.964 -0.3646  0.0132 -0.5171
14771SOL    HW146566   3.951   5.979   5.009  0.4840  0.8513  1.3702
14771SOL    HW246567   4.024   6.045   4.894  0.9685 -0.6840  0.7738
14772SOL     OW46568   7.696   2.095   2.186 -0.1995  0.2808  0.5074
14772SOL    HW146569   7.675   2.015   2.139  0.1304  0.0806  0.6927
14772SOL    HW246570   7.773   2.129   2.141 -1.0230  1.1205 -0.3031
14773SOL     OW46571   0.931   7.217   3.434 -0.3969 -0.1878 -0.2912
14773SOL    HW146572   0.878   7.151   3.390 -0.2153 -1.1708  0.9308
14773SOL    HW246573   1.019   7.181   3.434 -0.0435  0.6524 -0.7689
14774SOL     OW46574   3.582   1.396   9.955 -0.8309  0.1351 -0.6042
14774SOL    HW146575   3.553   1.366   9.869 -1.2497 -0.4148 -0.2751
14774SOL    HW246576   3.661   1.448   9.937 -1.6461  1.1340 -1.4432
14775SOL     OW46577   2.445   2.361   1.704 -0.1148 -0.3825  0.3414
14775SOL    HW146578   2.443   2.278   1.656  1.6166 -0.4958  0.3886
14775SOL    HW246579   2.425   2.338   1.794 -1.9354 -0.3855 -0.0376
14776SOL     OW46580   2.100   6.457   1.311 -0.0789 -0.4844 -0.1637
14776SOL    HW146581   2.045   6.453   1.232 -0.6149  1.2374  0.0735
14776SOL    HW246582   2.047   6.414   1.378 -1.1689  1.0850  0.0410
14777SOL     OW46583   0.703   0.901   0.713  1.0452 -0.1314 -0.0987
14777SOL    HW146584   0.617   0.858   0.717  0.6102  0.6632 -0.7092
14777SOL    HW246585   0.695   0.963   0.641  2.0450  0.1563  0.0317
14778SOL     OW46586   9.439   4.169   2.879 -0.2554  0.7525  0.1586
14778SOL    HW146587   9.345   4.181   2.863 -0.4307 -1.7427 -1.2210
14778SOL    HW246588   9.444   4.103   2.948  0.4775  1.1130  0.4558
14779SOL     OW46589   7.701   0.810   9.910  0.6659  0.6775 -0.2391
14779SOL    HW146590   7.664   0.805   9.999  0.4806  1.6245 -0.2566
14779SOL    HW246591   7.664   0.734   9.865 -0.1314  0.8185  0.1627
14780SOL     OW46592   7.213   4.541   8.696  0.3213 -0.3851  0.7623
14780SOL    HW146593   7.154   4.574   8.628  1.5226  0.0445 -0.1140
14780SOL    HW246594   7.156   4.496   8.758 -0.8875 -0.2086 -0.1851
14781SOL     OW46595   7.829   5.608   0.217  0.5533 -0.2973 -0.0211
14781SOL    HW146596   7.820   5.530   0.272 -0.3890 -0.2078 -0.0462
14781SOL    HW246597   7.867   5.674   0.275  1.5795 -0.8322 -0.0609
14782SOL     OW46598   9.668   5.246   6.084 -0.1691 -0.0114 -0.2013
14782SOL    HW146599   9.682   5.318   6.147 -0.8473  0.0019 -0.0565
14782SOL    HW246600   9.734   5.181   6.108 -1.2066 -0.5374  1.3314
14783SOL     OW46601   2.036   4.050   4.512  0.3017 -0.9140 -0.1588
14783SOL    HW146602   1.961   4.072   4.566  1.7091 -0.7454  1.8450
14783SOL    HW246603   2.017   3.963   4.477 -2.4136  0.5310 -2.8164
14784SOL     OW46604   2.733  10.267   5.899 -0.3610  0.2220 -0.5095
14784SOL    HW146605   2.705  10.191   5.949 -0.6583  0.7058  0.0621
14784SOL    HW246606   2.652  10.310   5.872 -0.2079 -0.0423 -1.4281
14785SOL     OW46607   1.743   5.107   7.904 -0.0134 -0.0215  0.4168
14785SOL    HW146608   1.710   5.091   7.992 -2.2794 -0.4445 -0.4519
14785SOL    HW246609   1.800   5.032   7.885  1.1298  0.4649  1.7632
14786SOL     OW46610   1.845   9.454   5.724  0.3244  0.1929 -0.5923
14786SOL    HW146611   1.767   9.507   5.742  0.8891  1.0485 -0.5895
14786SOL    HW246612   1.814   9.386   5.665 -0.3424  0.7823 -0.9467
14787SOL     OW46613   6.714   1.609   1.310  0.0901  0.1723 -0.2069
14787SOL    HW146614   6.801   1.614   1.270  0.2983 -1.4913 -0.0586
14787SOL    HW246615   6.664   1.680   1.270  1.1957  0.4457 -1.1374
14788SOL     OW46616   9.195   8.593   4.848  0.2876  0.0498  1.2475
14788SOL    HW146617   9.112   8.546   4.859 -0.8744  1.8742  0.7538
14788SOL    HW246618   9.181   8.677   4.893  1.6703  0.6233  0.6627
14789SOL     OW46619   2.155   0.220   3.217 -0.2226 -0.5023  0.3871
14789SOL    HW146620   2.207   0.252   3.144  0.1426 -0.7212  0.5486
14789SOL    HW246621   2.113   0.298   3.254 -0.8724 -0.4612 -0.4112
14790SOL     OW46622   4.298   2.986   2.272  0.0567  0.4102  0.4079
14790SOL    HW146623   4.309   3.017   2.182 -0.0472 -0.0114  0.2473
14790SOL    HW246624   4.282   3.066   2.323  0.3980  0.6785  0.0987
14791SOL     OW46625   5.987   5.640   2.177 -0.2824 -0.2608 -0.1451
14791SOL    HW146626   6.011   5.689   2.256 -1.1795 -1.0875  0.6699
14791SOL    HW246627   5.894   5.661   2.164 -0.4012 -0.9283 -0.3830
14792SOL     OW46628   4.581   4.832   7.602  1.2111 -0.0232 -0.1260
14792SOL    HW146629   4.551   4.918   7.631 -1.5391 -0.9933  0.1991
14792SOL    HW246630   4.613   4.790   7.681 -0.5945 -0.4641  0.4123
14793SOL     OW46631  10.426   2.728  10.306  0.3848  0.1196  0.1506
14793SOL    HW146632  10.357   2.701  10.246 -0.5561  1.9502  0.3572
14793SOL    HW246633  10.503   2.679  10.277 -0.4831 -0.4089 -1.3928
14794SOL     OW46634   2.484   5.366   7.629  0.8966  0.0384  0.1862
14794SOL    HW146635   2.488   5.277   7.664 -0.7927 -1.5240 -3.1247
14794SOL    HW246636   2.564   5.376   7.578 -0.5374 -1.1714 -2.5017
14795SOL     OW46637   7.638   3.612   3.251 -0.2432  0.2212  0.1874
14795SOL    HW146638   7.647   3.605   3.156  0.5803 -0.9685  0.3405
14795SOL    HW246639   7.678   3.696   3.273  0.7837 -0.1102 -0.3735
14796SOL     OW46640   0.423   6.565   3.979 -0.4446 -0.4356  0.5823
14796SOL    HW146641   0.379   6.494   3.932 -0.9848 -0.1632  0.6779
14796SOL    HW246642   0.406   6.547   4.072 -0.0817 -0.5062  0.6394
14797SOL     OW46643   8.808   0.527  10.158 -0.0053  0.1111 -0.1701
14797SOL    HW146644   8.719   0.518  10.124  0.7911 -0.7777 -2.2072
14797SOL    HW246645   8.859   0.561  10.084  1.0757  2.2484  1.4320
14798SOL     OW46646   6.341   0.530   1.987  0.1766 -0.0011 -0.1586
14798SOL    HW146647   6.345   0.434   1.996  0.2424 -0.0379 -0.5423
14798SOL    HW246648   6.392   0.563   2.061  0.2025 -0.2656 -0.0559
14799SOL     OW46649   0.237   5.934   7.758 -0.0589  0.1864  0.5685
14799SOL    HW146650   0.329   5.924   7.782 -0.2996 -1.7057  0.8725
14799SOL    HW246651   0.201   5.995   7.823  0.4080 -1.1153  2.0883
14800SOL     OW46652   2.016   4.094   5.603 -0.3894  1.0634  0.1440
14800SOL    HW146653   1.951   4.164   5.612  0.3748  1.8579 -0.3656
14800SOL    HW246654   2.000   4.058   5.516 -1.7407 -0.4275  0.9398
14801SOL     OW46655   7.513   7.529   3.840  0.3491 -0.1683 -0.1431
14801SOL    HW146656   7.455   7.586   3.890  1.0732  0.1818  0.3194
14801SOL    HW246657   7.498   7.553   3.749 -0.8027 -0.6363 -0.0894
14802SOL     OW46658   2.500   0.116   9.054 -0.0767 -0.1519  0.4031
14802SOL    HW146659   2.485   0.025   9.078 -1.5565 -0.4047 -1.3385
14802SOL    HW246660   2.525   0.158   9.137  0.5986 -2.0886  1.2427
14803SOL     OW46661   9.462   2.981   1.828  0.2940 -0.3902  0.5928
14803SOL    HW146662   9.367   2.973   1.823  0.3214  0.0313 -1.7370
14803SOL    HW246663   9.495   2.910   1.773  1.3000  0.0332  0.6272
14804SOL     OW46664   1.247   4.542   5.846  0.5068  0.0070 -0.2394
14804SOL    HW146665   1.263   4.637   5.840  3.0481 -0.2953  0.4273
14804SOL    HW246666   1.186   4.532   5.919  1.1328  1.0815  0.4603
14805SOL     OW46667   3.461  10.619   0.380 -0.1935 -0.0653 -0.1386
14805SOL    HW146668   3.375  10.637   0.344 -0.5428 -0.7998  0.2897
14805SOL    HW246669   3.522  10.656   0.317 -0.8087 -0.2098 -0.8303
14806SOL     OW46670   0.380   9.500   2.053  0.2918 -0.6324  0.2323
14806SOL    HW146671   0.361   9.559   2.127  0.7001  3.3691 -2.4938
14806SOL    HW246672   0.476   9.498   2.049  0.3133  1.0559 -1.3669
14807SOL     OW46673   0.479   0.771   5.114 -0.0537  0.1053 -0.6274
14807SOL    HW146674   0.403   0.800   5.064  0.5541 -1.0827 -2.3262
14807SOL    HW246675   0.537   0.847   5.116  0.4920 -0.1881 -2.9549
14808SOL     OW46676   1.692   8.804   0.849 -0.4267 -0.0731  0.4718
14808SOL    HW146677   1.701   8.728   0.792  0.8183  0.8912 -0.6490
14808SOL    HW246678   1.706   8.879   0.792  0.2845  0.9410  1.9276
14809SOL     OW46679   0.432   9.623  10.192  0.1219  0.2417  0.2145
14809SOL    HW146680   0.433   9.719  10.187 -1.3196  0.3056  0.6506
14809SOL    HW246681   0.375   9.596  10.121  0.2980 -0.2789  0.2689
14810SOL     OW46682   0.270   1.770   5.186 -1.2801  0.2325  0.3378
14810SOL    HW146683   0.220   1.851   5.177  0.0979  0.9360 -1.5914
14810SOL    HW246684   0.354   1.797   5.222 -1.1644 -0.4814  0.6229
14811SOL     OW46685   8.062   4.436   5.122 -0.5472  0.3354  0.5416
14811SOL    HW146686   7.969   4.425   5.101  0.0340  0.6226 -2.6997
14811SOL    HW246687   8.100   4.349   5.107 -0.4668 -0.2556  3.5750
14812SOL     OW46688   3.700   3.692   0.827 -0.3372  0.1492  0.0765
14812SOL    HW146689   3.625   3.742   0.858 -1.0374  1.1756 -2.9092
14812SOL    HW246690   3.661   3.616   0.784  0.4601 -0.2552  0.0608
14813SOL     OW46691   4.159  10.648   2.693  0.4406  0.2469  0.1002
14813SOL    HW146692   4.180  10.678   2.605 -0.6876 -2.1522 -1.0953
14813SOL    HW246693   4.120  10.724   2.736  1.3552  1.5731 -1.3220
14814SOL     OW46694   0.706   6.361  10.059 -0.3374 -0.1296 -0.0155
14814SOL    HW146695   0.753   6.279  10.074 -1.7706 -0.6789  1.8142
14814SOL    HW246696   0.732   6.417  10.133 -2.8268 -0.6090  1.2975
14815SOL     OW46697   8.762  10.593   5.520  0.4723  0.4762 -0.0249
14815SOL    HW146698   8.798  10.621   5.436 -1.2891 -2.2176 -1.7946
14815SOL    HW246699   8.668  10.605   5.511  0.1937 -0.5071  1.3339
14816SOL     OW46700   2.040   0.664   8.371  0.3312 -0.5000  0.7330
14816SOL    HW146701   2.016   0.678   8.280  2.0000 -0.3000  0.2916
14816SOL    HW246702   1.957   0.656   8.417 -0.5826  1.1516 -0.5226
14817SOL     OW46703   3.223   8.318   8.590  0.0571 -0.4270  0.3950
14817SOL    HW146704   3.230   8.346   8.499 -0.3262 -1.6620 -0.0344
14817SOL    HW246705   3.187   8.394   8.635 -0.2291  0.0416 -0.5857
14818SOL     OW46706   7.541   8.310   0.445  0.2429 -0.0038 -0.0307
14818SOL    HW146707   7.578   8.259   0.374  0.1675  1.2405 -0.9877
14818SOL    HW246708   7.561   8.259   0.524  1.0283 -0.9988 -0.8470
14819SOL     OW46709   5.213   1.727   9.290  0.6625  0.1538 -0.3785
14819SOL    HW146710   5.145   1.792   9.273  0.0434 -0.5035 -0.4567
14819SOL    HW246711   5.243   1.699   9.204 -0.6106 -1.2354 -0.4192
14820SOL     OW46712   8.070   3.886   7.179 -0.0293 -0.1947 -0.3693
14820SOL    HW146713   8.074   3.899   7.084  0.4877  2.5101 -0.0606
14820SOL    HW246714   8.109   3.965   7.216 -1.0077 -0.7784  2.1316
14821SOL     OW46715   5.613   6.062   3.222  0.2053 -0.2515 -0.5081
14821SOL    HW146716   5.653   6.115   3.153  0.4473  1.4342  0.8622
14821SOL    HW246717   5.687   6.016   3.262 -0.0570 -2.0885 -1.9973
14822SOL     OW46718   9.287   4.023   2.559 -0.2224 -0.0898  0.0513
14822SOL    HW146719   9.213   4.035   2.500 -1.0153 -1.8157  0.6193
14822SOL    HW246720   9.273   4.087   2.629  0.0431  1.0882 -0.9330
14823SOL     OW46721   3.387   5.840   2.537 -0.3977  0.1138  0.7131
14823SOL    HW146722   3.295   5.831   2.515 -0.4484 -0.8056  1.2336
14823SOL    HW246723   3.399   5.932   2.560 -0.9693  0.4464 -0.2764
14824SOL     OW46724   2.483   0.613   3.922 -0.0246 -0.0171  0.1987
14824SOL    HW146725   2.446   0.556   3.989  0.4503 -0.5116  0.0504
14824SOL    HW246726   2.555   0.658   3.966  0.6192 -0.7284 -0.1085
14825SOL     OW46727   9.219  10.642   9.770  0.0696 -0.1749 -0.0979
14825SOL    HW146728   9.306  10.617   9.740 -0.4383  0.7452 -2.6766
14825SOL    HW246729   9.225  10.736   9.786 -0.1892 -0.3054  0.8176
14826SOL     OW46730   4.455   3.219   3.181 -0.1799  0.2160  0.1805
14826SOL    HW146731   4.398   3.269   3.123 -0.6927 -1.2937 -0.6599
14826SOL    HW246732   4.395   3.176   3.242  0.1803 -0.1342  0.2927
14827SOL     OW46733   0.089   0.136   2.779 -0.0466 -0.5573 -0.1092
14827SOL    HW146734   0.108   0.078   2.853  0.4813 -0.3013 -0.0403
14827SOL    HW246735   0.046   0.080   2.715 -1.0866 -0.6516  0.6437
14828SOL     OW46736   9.175   1.150   7.061 -0.5768 -0.2265  0.5298
14828SOL    HW146737   9.131   1.166   6.978  1.1444 -2.1497 -0.8616
14828SOL    HW246738   9.165   1.056   7.077  2.4591 -0.6782  0.3783
14829SOL     OW46739   6.687   0.093   7.752 -0.5314 -0.0897  0.0386
14829SOL    HW146740   6.625   0.019   7.747 -0.3666 -0.3384  1.3436
14829SOL    HW246741   6.664   0.138   7.833  0.8407 -0.0460  0.4282
14830SOL     OW46742   8.700   3.875   0.234  0.2177 -0.1562 -0.3734
14830SOL    HW146743   8.620   3.857   0.283  0.4986  0.6693  0.4199
14830SOL    HW246744   8.769   3.835   0.286  0.4181 -0.1783 -0.6523
14831SOL     OW46745   1.750   7.994   2.823  0.5566 -0.2204  0.2932
14831SOL    HW146746   1.770   7.927   2.889 -0.2724  0.1682  0.9469
14831SOL    HW246747   1.660   8.021   2.842  0.7990  0.9191 -0.1082
14832SOL     OW46748   6.904   3.991   4.014 -0.7396 -0.3414  0.6608
14832SOL    HW146749   6.933   3.905   4.044 -0.1912 -0.2021  0.5439
14832SOL    HW246750   6.880   3.977   3.923 -1.5001 -0.5605  0.8932
14833SOL     OW46751  10.453   6.070  10.026  0.0775  0.1315  0.5705
14833SOL    HW146752  10.532   6.018  10.009 -0.4206 -0.0193 -1.5870
14833SOL    HW246753  10.383   6.022   9.982 -0.7212  1.7342  0.0173
14834SOL     OW46754   2.955   8.772   3.538 -0.0026 -0.0136 -0.6544
14834SOL    HW146755   2.935   8.839   3.604  0.2202  0.1199 -0.7194
14834SOL    HW246756   3.041   8.797   3.505  0.1645 -0.4366 -0.5482
14835SOL     OW46757   8.705   9.317   9.821 -0.2175  0.7246 -0.5653
14835SOL    HW146758   8.712   9.402   9.864 -0.9773  0.0181  1.0348
14835SOL    HW246759   8.778   9.266   9.856 -1.0747  0.0132  0.2458
14836SOL     OW46760   2.794   7.479   9.556 -0.1394 -0.0725  0.0859
14836SOL    HW146761   2.724   7.414   9.562  0.7414 -1.0929 -0.1730
14836SOL    HW246762   2.760   7.556   9.601 -0.7374 -1.1594  1.5876
14837SOL     OW46763   5.743   7.219   6.258  0.5436  0.4952  0.1806
14837SOL    HW146764   5.682   7.214   6.185 -1.5322 -0.5005  1.8625
14837SOL    HW246765   5.802   7.291   6.236 -1.5593  1.8457 -1.3262
14838SOL     OW46766   5.050   9.110   0.692  0.3097  0.5604 -0.5608
14838SOL    HW146767   4.963   9.121   0.729 -0.2359 -0.4149 -1.4848
14838SOL    HW246768   5.110   9.135   0.763 -0.7002 -0.3719  0.6789
14839SOL     OW46769   1.556   5.036   5.297 -0.6436  0.0894  0.1899
14839SOL    HW146770   1.613   5.112   5.287 -1.1837  0.4400 -0.3041
14839SOL    HW246771   1.482   5.055   5.240 -0.0297 -1.5393 -1.2261
14840SOL     OW46772   2.324   7.081   2.893  0.2862  0.1286  0.1305
14840SOL    HW146773   2.241   7.034   2.904  0.9897 -1.1891 -0.0405
14840SOL    HW246774   2.298   7.169   2.867 -1.1006  0.1904  1.5631
14841SOL     OW46775   6.844   8.466   3.276  0.0589  0.5099 -0.8434
14841SOL    HW146776   6.801   8.468   3.362 -0.2208 -2.5359 -0.7966
14841SOL    HW246777   6.785   8.515   3.219 -1.8928 -0.8409 -0.0988
14842SOL     OW46778   5.672   2.820   2.731 -0.5663 -0.3841  0.1486
14842SOL    HW146779   5.585   2.858   2.743 -0.0860  0.2259  2.1693
14842SOL    HW246780   5.727   2.868   2.793  1.4745 -0.0139 -1.8242
14843SOL     OW46781   6.751   2.750   7.595  0.2435  0.2941 -0.3187
14843SOL    HW146782   6.775   2.679   7.655 -0.1054  0.6243  0.2147
14843SOL    HW246783   6.824   2.812   7.601 -1.3311  2.0471  2.4669
14844SOL     OW46784   9.664   4.289   3.062  0.1015 -0.3828  0.2286
14844SOL    HW146785   9.610   4.262   2.987 -0.8587 -0.1896  0.8312
14844SOL    HW246786   9.626   4.242   3.137  0.5557  0.0348  0.7291
14845SOL     OW46787   5.417   2.516   2.755  0.0852  0.2135  0.7269
14845SOL    HW146788   5.349   2.537   2.691  0.3920 -0.7360  0.0583
14845SOL    HW246789   5.384   2.550   2.838 -1.1279 -0.0871  0.3801
14846SOL     OW46790   9.580   4.400   3.394 -0.0882 -0.0661  0.0551
14846SOL    HW146791   9.553   4.316   3.356  0.8605 -0.4480  0.2011
14846SOL    HW246792   9.511   4.421   3.456 -1.0553 -0.0270 -1.0056
14847SOL     OW46793  10.468   6.871   3.303 -0.2725 -0.5150 -0.3434
14847SOL    HW146794  10.524   6.861   3.379  0.7432 -0.6165 -1.0776
14847SOL    HW246795  10.518   6.832   3.231 -1.0687 -0.1487 -1.1172
14848SOL     OW46796   6.038   0.595  10.194  0.1890  0.0989  0.1836
14848SOL    HW146797   6.111   0.552  10.239  0.9796  0.0253 -1.1164
14848SOL    HW246798   6.036   0.554  10.107 -1.5193 -0.0193  0.2537
14849SOL     OW46799  10.029   8.492  10.503 -0.0043 -0.5276  0.0972
14849SOL    HW146800  10.019   8.445  10.420  2.2190 -0.2180 -0.4229
14849SOL    HW246801  10.061   8.579  10.477 -2.4438  0.7556  1.1335
14850SOL     OW46802   1.960   3.809   1.679  0.1083 -0.3038 -0.3304
14850SOL    HW146803   2.052   3.836   1.685  0.7987 -2.7015  3.8791
14850SOL    HW246804   1.923   3.830   1.764 -2.6920 -1.3315 -1.1914
14851SOL     OW46805   3.656   1.128   2.307  0.2976  0.1637  0.0410
14851SOL    HW146806   3.603   1.049   2.295 -1.4587  1.4418 -1.3461
14851SOL    HW246807   3.603   1.184   2.365  0.7023  0.9580 -0.3312
14852SOL     OW46808   7.827   8.797   6.702  0.1710 -0.2936 -0.4221
14852SOL    HW146809   7.791   8.800   6.791 -0.6924  1.7005 -0.7859
14852SOL    HW246810   7.913   8.757   6.712 -0.8549 -2.3208  0.9479
14853SOL     OW46811   4.841   4.683   2.589 -0.2176  0.0414  0.1679
14853SOL    HW146812   4.810   4.752   2.530  0.4849  1.2665  1.1698
14853SOL    HW246813   4.836   4.722   2.676  2.3584 -0.3154  0.5655
14854SOL     OW46814   1.333  10.017   4.475  0.2103 -0.5611 -0.0439
14854SOL    HW146815   1.240  10.037   4.463  0.2063  0.1451  0.9624
14854SOL    HW246816   1.367  10.094   4.522  1.4854 -0.4504 -1.1239
14855SOL     OW46817   7.410   6.925   3.619  0.2628 -0.2886 -0.1939
14855SOL    HW146818   7.493   6.926   3.573  1.0316 -1.4889  1.0863
14855SOL    HW246819   7.349   6.971   3.560  1.8745  0.9266 -1.0020
14856SOL     OW46820   5.020   4.803   5.217  0.4798 -0.2080 -0.1223
14856SOL    HW146821   5.053   4.830   5.303  1.7184  0.1729 -0.6916
14856SOL    HW246822   5.013   4.708   5.222  0.2251 -0.1607  0.5009
14857SOL     OW46823   7.580   9.586   9.275  0.0320  0.1164 -0.0551
14857SOL    HW146824   7.636   9.650   9.321 -0.5797  0.8074 -0.2644
14857SOL    HW246825   7.557   9.523   9.343  1.7112 -0.6503 -0.1312
14858SOL     OW46826   0.704   6.898   1.530  0.0246  0.2247 -0.1184
14858SOL    HW146827   0.746   6.812   1.523 -0.9484 -0.6478  3.0829
14858SOL    HW246828   0.762   6.949   1.586 -0.8036  0.6735  0.3421
14859SOL     OW46829   2.860   1.541   3.789 -0.2099  0.2140  0.1421
14859SOL    HW146830   2.828   1.455   3.815  0.0664 -0.4171 -1.5261
14859SOL    HW246831   2.943   1.551   3.835  0.1635 -0.7732 -0.3043
14860SOL     OW46832   3.164   4.005   5.401  0.0722 -0.6093 -0.4479
14860SOL    HW146833   3.253   3.983   5.373  0.0105 -1.6264  0.0866
14860SOL    HW246834   3.123   4.044   5.324  0.9099 -0.3493 -0.7704
14861SOL     OW46835   8.226   7.797   3.186 -0.1433  0.2200 -0.2805
14861SOL    HW146836   8.182   7.715   3.210 -0.5463  0.5924  0.2653
14861SOL    HW246837   8.318   7.773   3.177 -0.2386 -0.2683  0.0004
14862SOL     OW46838   8.714   1.303   5.586 -0.4854 -0.3914 -1.0389
14862SOL    HW146839   8.763   1.339   5.512 -0.3061 -1.2213 -1.3323
14862SOL    HW246840   8.764   1.227   5.614  0.2799  0.7771  0.9532
14863SOL     OW46841   1.672   3.189   7.150  0.1095 -0.2678 -0.3027
14863SOL    HW146842   1.753   3.202   7.199 -0.0457  0.5547 -0.2577
14863SOL    HW246843   1.690   3.112   7.095  2.3201  2.0151 -3.1105
14864SOL     OW46844   0.397   2.332   3.730  0.3068 -0.1550 -0.2447
14864SOL    HW146845   0.366   2.353   3.819 -2.1730  0.0140 -1.0799
14864SOL    HW246846   0.451   2.408   3.706 -0.5865  0.7267  0.4237
14865SOL     OW46847   0.550   3.277   8.254 -0.6113  0.1690 -0.0899
14865SOL    HW146848   0.523   3.223   8.328 -0.9776  0.5336  0.0451
14865SOL    HW246849   0.609   3.221   8.204 -0.4888 -0.1388  0.3868
14866SOL     OW46850   1.363   3.543   2.096 -0.3184  0.1491 -0.1019
14866SOL    HW146851   1.324   3.626   2.071 -1.2559  0.0565  0.9752
14866SOL    HW246852   1.448   3.566   2.133 -1.1409  0.8095  1.4868
14867SOL     OW46853   5.435   4.583   4.274 -0.4953  0.0042  0.3209
14867SOL    HW146854   5.418   4.618   4.361  1.2643  0.9515  0.3188
14867SOL    HW246855   5.385   4.640   4.215 -3.7582 -2.1091  0.7504
14868SOL     OW46856   3.091   1.835   4.777 -0.4067 -0.3118 -0.3044
14868SOL    HW146857   3.154   1.855   4.707 -0.1671 -1.5554 -0.4697
14868SOL    HW246858   3.009   1.875   4.748 -0.2708 -0.6889 -1.2401
14869SOL     OW46859   8.599   1.788   3.344 -0.2099  0.6317  0.1443
14869SOL    HW146860   8.689   1.754   3.342 -0.6397 -1.0170  2.8584
14869SOL    HW246861   8.609   1.883   3.341  1.6003  0.4735  0.0489
14870SOL     OW46862   6.328   7.327   3.878  0.0197 -0.1277 -0.1033
14870SOL    HW146863   6.250   7.321   3.932 -0.5178 -0.0192 -0.8473
14870SOL    HW246864   6.375   7.245   3.895 -2.2153 -2.1308 -2.5566
14871SOL     OW46865   9.475   7.206   9.273 -0.1264  0.3146  0.1409
14871SOL    HW146866   9.467   7.261   9.352  0.0565  0.6729 -0.0883
14871SOL    HW246867   9.558   7.233   9.234 -0.5026  0.5706 -0.5002
14872SOL     OW46868   2.968  10.581   8.380 -0.4445  0.0299  0.2837
14872SOL    HW146869   3.051  10.577   8.333 -0.5279 -1.7631  0.2240
14872SOL    HW246870   2.971  10.665   8.426  2.2656 -0.7338  1.7873
14873SOL     OW46871   7.001   7.385   5.974 -0.3718 -0.3455  0.0711
14873SOL    HW146872   6.948   7.374   5.895 -2.1234  1.6561  0.8578
14873SOL    HW246873   7.035   7.474   5.967  2.6334 -1.4272 -0.1788
14874SOL     OW46874  10.426   3.486   5.629  0.3943  0.4037 -0.3633
14874SOL    HW146875  10.375   3.567   5.618 -0.3477 -0.2196 -1.8322
14874SOL    HW246876  10.377   3.435   5.693  0.2873  0.6695 -0.2310
14875SOL     OW46877   0.758   8.183   7.800  0.0620 -0.0429 -0.0424
14875SOL    HW146878   0.845   8.206   7.766  0.1974  1.4274  1.2017
14875SOL    HW246879   0.698   8.243   7.755  0.0016  0.5823  0.8542
14876SOL     OW46880   2.573   3.259   4.029  0.1676 -0.3207 -0.2468
14876SOL    HW146881   2.566   3.256   4.124  0.6859  0.1649 -0.1893
14876SOL    HW246882   2.636   3.329   4.011 -0.9413  0.5114 -0.9958
14877SOL     OW46883   4.231   2.999   8.302  1.0259  0.0679  0.2838
14877SOL    HW146884   4.299   2.935   8.282  1.8629  0.7751  0.8390
14877SOL    HW246885   4.161   2.947   8.342  0.6846 -0.8615 -1.4242
14878SOL     OW46886   8.279   8.544   1.468 -0.1065  0.3169 -0.2877
14878SOL    HW146887   8.239   8.584   1.545 -3.8312  0.3806 -1.9949
14878SOL    HW246888   8.249   8.453   1.469  0.3764  0.1253 -1.2573
14879SOL     OW46889   4.728   2.551   0.983  0.2519 -0.2808 -0.2231
14879SOL    HW146890   4.728   2.642   0.954 -2.0720  0.2948  1.2706
14879SOL    HW246891   4.747   2.500   0.905  0.4952  1.4502 -1.3278
14880SOL     OW46892  10.017   9.158   9.985 -0.3929  0.2013  0.1544
14880SOL    HW146893   9.931   9.168   9.945 -0.3231 -0.1419 -0.0854
14880SOL    HW246894  10.040   9.246  10.015 -0.6351  0.3778 -0.1732
14881SOL     OW46895   1.157   3.046   0.109 -0.1700 -0.7665  0.0185
14881SOL    HW146896   1.167   2.965   0.058  1.2324 -1.1613  0.8624
14881SOL    HW246897   1.245   3.063   0.144 -0.3499  1.3402 -0.4458
14882SOL     OW46898   7.407   6.858   4.187 -0.0720  0.5091  0.7178
14882SOL    HW146899   7.402   6.771   4.148 -0.7771  1.2446 -0.8899
14882SOL    HW246900   7.455   6.911   4.123  0.5985  1.2534  1.7996
14883SOL     OW46901   5.187   0.186   8.757 -0.4956  0.1956 -0.4756
14883SOL    HW146902   5.174   0.101   8.716 -0.0938  1.4380 -3.4655
14883SOL    HW246903   5.252   0.170   8.826  0.8162 -1.6834 -2.0319
14884SOL     OW46904   5.719   2.130   6.688 -1.1163  0.5009 -0.1461
14884SOL    HW146905   5.770   2.128   6.607 -0.2715  0.8563  0.3582
14884SOL    HW246906   5.715   2.039   6.716  1.0722  0.6614  0.8893
14885SOL     OW46907   3.224   3.990   1.571  0.0649 -0.0492 -0.7469
14885SOL    HW146908   3.220   3.895   1.562 -0.3128 -0.1854  0.5803
14885SOL    HW246909   3.316   4.011   1.556  0.2687 -0.7009 -0.4632
14886SOL     OW46910   7.991   1.939   0.116  0.1250 -0.2874 -0.0499
14886SOL    HW146911   7.967   2.020   0.162  3.7337  0.7488  0.2929
14886SOL    HW246912   8.015   1.878   0.185 -1.0227 -1.1330 -0.3785
14887SOL     OW46913  10.572   2.247   1.638  0.2724 -0.6425 -0.3183
14887SOL    HW146914  10.629   2.295   1.698 -2.0940  0.0034  1.5897
14887SOL    HW246915  10.544   2.313   1.574 -1.4305  0.1312  1.1439
14888SOL     OW46916   4.172   9.880   0.068  0.7072 -0.1877  0.3983
14888SOL    HW146917   4.216   9.962   0.047  0.1864  0.1324  0.5492
14888SOL    HW246918   4.149   9.842  -0.016 -0.6765  0.7091  0.3504
14889SOL     OW46919   5.314   1.156   4.234  0.2763  0.1690  0.4688
14889SOL    HW146920   5.383   1.221   4.241  1.8846 -1.5513  1.8133
14889SOL    HW246921   5.358   1.072   4.251 -1.8027 -1.2176 -0.5109
14890SOL     OW46922   2.374   9.845   6.662  0.0187 -0.0485  0.3637
14890SOL    HW146923   2.469   9.838   6.677  0.3230  1.0020 -0.8901
14890SOL    HW246924   2.348   9.923   6.711 -0.0446  0.0767  0.1357
14891SOL     OW46925   8.451   9.800   6.301  0.2815 -0.0853 -0.3232
14891SOL    HW146926   8.466   9.894   6.298 -1.2144  0.2080  0.6153
14891SOL    HW246927   8.459   9.777   6.394 -0.3790 -0.6862 -0.4040
14892SOL     OW46928   6.587  10.416   3.796  0.1762  0.4839  0.6303
14892SOL    HW146929   6.496  10.447   3.796 -0.0123 -0.0525  0.9766
14892SOL    HW246930   6.595  10.367   3.714  0.3615  1.1164  0.2663
14893SOL     OW46931   7.396   8.457   8.857  0.1886 -0.2629  0.2176
14893SOL    HW146932   7.484   8.474   8.825 -1.2108  0.7418 -3.6871
14893SOL    HW246933   7.379   8.366   8.834 -0.2231 -0.0483 -0.3623
14894SOL     OW46934   2.254   5.659   6.473  0.4675  0.4334  0.4862
14894SOL    HW146935   2.349   5.643   6.470  0.2107 -1.3068  0.6716
14894SOL    HW246936   2.240   5.729   6.410  1.4534 -1.8568 -2.5424
14895SOL     OW46937   8.962   8.655   9.238  0.3073  0.0327 -0.0268
14895SOL    HW146938   9.006   8.674   9.155 -0.6706  2.2754 -0.0799
14895SOL    HW246939   8.918   8.736   9.262 -3.6734 -1.8972  0.1294
14896SOL     OW46940   9.652   8.346   5.056 -0.3873  0.0511  0.3542
14896SOL    HW146941   9.593   8.331   4.983 -0.1297  0.5530  0.0372
14896SOL    HW246942   9.610   8.415   5.108 -1.3175 -1.3403  1.5295
14897SOL     OW46943   4.106   2.822   7.163  0.7064  0.0616 -0.3586
14897SOL    HW146944   4.170   2.751   7.158  0.1495 -0.3882 -1.2167
14897SOL    HW246945   4.112   2.866   7.078  0.6080  0.6761 -0.0577
14898SOL     OW46946   7.822   5.239  10.205 -0.1069  0.0826 -0.2193
14898SOL    HW146947   7.856   5.226  10.117  0.8352  1.6909 -0.1404
14898SOL    HW246948   7.865   5.171  10.257  0.3291 -0.0756 -0.7738
14899SOL     OW46949   3.372   4.872   0.924  0.3185  0.4632 -0.5539
14899SOL    HW146950   3.298   4.904   0.873 -0.6200  0.8015  0.9380
14899SOL    HW246951   3.394   4.945   0.982 -0.0660 -0.6007  1.0045
14900SOL     OW46952   7.616   2.648   9.396 -0.1582  0.2443 -0.2612
14900SOL    HW146953   7.526   2.654   9.364 -0.0252  0.1986 -0.6476
14900SOL    HW246954   7.635   2.554   9.395  0.5243  0.3508 -1.9805
14901SOL     OW46955   3.782   8.934   3.507  0.1855  0.2240  0.3474
14901SOL    HW146956   3.763   8.848   3.471 -0.0543  0.8112 -0.9994
14901SOL    HW246957   3.878   8.939   3.510  0.2396  0.4607 -1.0427
14902SOL     OW46958   8.888   8.045   2.960 -0.3337 -0.3671 -0.3197
14902SOL    HW146959   8.888   7.953   2.984  1.1414 -0.4902 -0.6698
14902SOL    HW246960   8.828   8.052   2.887 -1.9958 -0.6650  0.9623
14903SOL     OW46961  10.282  10.200   2.178 -0.0589  0.2709  0.2439
14903SOL    HW146962  10.229  10.274   2.207 -1.0707  0.1086 -1.0917
14903SOL    HW246963  10.344  10.238   2.116  0.5914  0.2616  0.8768
14904SOL     OW46964  10.374   0.114   0.713  0.2767  0.6679  0.3542
14904SOL    HW146965  10.410   0.099   0.801  0.7863  1.3015  0.2580
14904SOL    HW246966  10.400   0.203   0.691  0.5675  0.3486 -0.6392
14905SOL     OW46967   9.647   4.287   5.253  0.3859  0.1272 -0.4001
14905SOL    HW146968   9.596   4.220   5.207 -0.4232  0.9163 -0.6709
14905SOL    HW246969   9.631   4.270   5.345  1.1288 -0.7714 -0.4159
14906SOL     OW46970   4.145   0.036   5.501 -0.1985  0.3905 -0.4527
14906SOL    HW146971   4.090   0.042   5.579  1.5699  0.9145  0.8343
14906SOL    HW246972   4.126  -0.050   5.465 -1.1718  0.2015  0.4590
14907SOL     OW46973   2.929   0.027   1.890  0.0740  0.1591 -0.1441
14907SOL    HW146974   2.948  -0.066   1.894  0.7328  0.2878  0.0327
14907SOL    HW246975   2.839   0.033   1.860 -0.0690 -0.5400  0.1252
14908SOL     OW46976   9.799   5.640   5.800  0.5004 -0.3992  1.2011
14908SOL    HW146977   9.845   5.716   5.766  2.4941 -1.8562  0.4196
14908SOL    HW246978   9.849   5.615   5.878 -0.5777 -0.5149  1.8879
14909SOL     OW46979   6.104   7.118   7.099  0.1232 -0.0328  0.1396
14909SOL    HW146980   6.125   7.037   7.146 -0.2283 -0.1101  0.1642
14909SOL    HW246981   6.171   7.180   7.127  0.1743 -0.2077  0.4059
14910SOL     OW46982   8.625   2.616   7.547 -0.3506  0.0873  0.5779
14910SOL    HW146983   8.710   2.634   7.588  0.0637 -0.1177 -0.1741
14910SOL    HW246984   8.645   2.607   7.454 -1.4099  1.5811  0.1689
14911SOL     OW46985   0.955   7.291   2.725 -0.1091 -0.3559 -0.0709
14911SOL    HW146986   0.969   7.308   2.818  1.9807  0.1377 -0.4169
14911SOL    HW246987   1.034   7.245   2.697 -0.5914 -0.2928 -1.6397
14912SOL     OW46988   8.113   8.669   9.518  0.3713 -1.2020  0.2270
14912SOL    HW146989   8.025   8.656   9.483  0.7491 -0.3481 -1.1220
14912SOL    HW246990   8.165   8.697   9.443  1.7808 -1.5789  1.0151
14913SOL     OW46991   7.811   2.818   9.323 -0.6353  0.0288 -0.0075
14913SOL    HW146992   7.804   2.806   9.229 -1.2858  4.4898 -0.7659
14913SOL    HW246993   7.725   2.795   9.357 -1.4865  1.4686 -1.0678
14914SOL     OW46994   2.386   1.555   4.773 -0.4786  0.0630  0.1101
14914SOL    HW146995   2.313   1.495   4.760  0.5126 -1.0410 -0.6618
14914SOL    HW246996   2.387   1.610   4.694  0.0110 -0.5035 -0.2962
14915SOL     OW46997   7.439   0.244   2.875  0.2416  0.1841  0.3017
14915SOL    HW146998   7.404   0.166   2.832  0.5640  0.5233 -0.5925
14915SOL    HW246999   7.520   0.263   2.827 -0.3086  1.6036 -0.0832
14916SOL     OW47000   0.409   2.554   8.648  0.4106 -0.0197  0.9145
14916SOL    HW147001   0.462   2.509   8.713  0.1682 -1.3404  0.2405
14916SOL    HW247002   0.320   2.551   8.683  0.4295  0.1758  0.9836
14917SOL     OW47003   4.718   3.194   9.319  0.1108  0.2457  0.2716
14917SOL    HW147004   4.727   3.111   9.365 -0.2764  0.8744  1.5517
14917SOL    HW247005   4.749   3.177   9.230  1.8738 -0.7820  1.0327
14918SOL     OW47006   5.515   3.942   1.835  0.1057  0.1673  0.1316
14918SOL    HW147007   5.483   4.028   1.807 -3.0317 -0.3128  1.8673
14918SOL    HW247008   5.526   3.893   1.754 -1.1057  1.2363 -0.7254
14919SOL     OW47009   1.799   6.652   4.319 -0.3147 -0.0714  0.1464
14919SOL    HW147010   1.868   6.695   4.267 -1.7669  1.4441 -0.6370
14919SOL    HW247011   1.771   6.579   4.264  0.6061 -0.6674  0.4462
14920SOL     OW47012   2.681   1.194   9.507 -0.4221  0.1937  0.3186
14920SOL    HW147013   2.685   1.236   9.593 -0.8472  0.1729  0.3496
14920SOL    HW247014   2.628   1.253   9.454 -0.9971 -0.2834  0.3518
14921SOL     OW47015   9.381   4.836   1.371  0.3160  0.5004 -0.4438
14921SOL    HW147016   9.391   4.782   1.450  0.5607  1.3616  0.1341
14921SOL    HW247017   9.453   4.809   1.314  0.3914  0.1661 -0.1924
14922SOL     OW47018   6.495  10.295   9.615 -0.2546 -0.2146  0.2356
14922SOL    HW147019   6.477  10.291   9.521 -0.7077  3.2397  0.0553
14922SOL    HW247020   6.410  10.306   9.657  0.1432  1.4666  0.6998
14923SOL     OW47021   1.430   9.682   0.352 -0.5048 -0.3971 -0.0712
14923SOL    HW147022   1.462   9.688   0.262 -0.5723  0.1284 -0.0664
14923SOL    HW247023   1.337   9.660   0.343 -0.5744 -0.0853 -0.1420
14924SOL     OW47024   4.010   8.334   4.268 -0.1410 -0.2078 -0.0533
14924SOL    HW147025   3.924   8.327   4.228  0.8334 -2.0287 -1.9954
14924SOL    HW247026   4.031   8.245   4.295  1.4852  0.0358 -0.4230
14925SOL     OW47027   3.259   7.617   7.490  0.2161 -0.0172 -0.7892
14925SOL    HW147028   3.318   7.575   7.553  1.2503  0.7702 -1.1953
14925SOL    HW247029   3.288   7.708   7.487 -0.5278  0.2069 -1.5884
14926SOL     OW47030   9.837   9.481   9.480  0.4702  0.4984 -0.1617
14926SOL    HW147031   9.828   9.530   9.562  1.0967 -1.4308  1.1329
14926SOL    HW247032   9.811   9.544   9.412 -1.8597  1.6359  1.6058
14927SOL     OW47033   9.521   7.440   2.547 -0.1207  0.0085 -0.3519
14927SOL    HW147034   9.440   7.389   2.547 -0.4650  0.5022  0.8954
14927SOL    HW247035   9.559   7.422   2.633  0.1349  1.2462 -0.1978
14928SOL     OW47036   0.792   9.982   7.863 -0.0589 -0.2932 -0.4633
14928SOL    HW147037   0.720  10.041   7.841  0.3479  0.2409 -0.3737
14928SOL    HW247038   0.750   9.909   7.909 -0.2740  1.2001  1.8540
14929SOL     OW47039   7.192   9.875   0.337  0.7362  0.0840 -0.3127
14929SOL    HW147040   7.098   9.858   0.331  0.3664  1.5411  0.7102
14929SOL    HW247041   7.200   9.940   0.407  2.5883 -0.5977  0.1715
14930SOL     OW47042   7.764   3.646   9.756 -0.4942 -0.1607 -0.0559
14930SOL    HW147043   7.737   3.720   9.810 -0.4874  0.1685 -0.5009
14930SOL    HW247044   7.787   3.578   9.819  0.0610  0.4088  0.3641
14931SOL     OW47045   2.584   5.005   0.589 -0.2368  0.0009 -0.3302
14931SOL    HW147046   2.531   5.079   0.619  0.5841  0.9214 -1.0727
14931SOL    HW247047   2.650   4.994   0.658  0.5539  0.9534 -0.9123
14932SOL     OW47048   1.476   9.592   7.988 -0.0338 -0.2314  0.3373
14932SOL    HW147049   1.536   9.653   7.946  0.7726 -0.4552  1.1160
14932SOL    HW247050   1.527   9.511   7.995 -0.4142 -0.4152  1.0423
14933SOL     OW47051   7.208   0.952   3.750  0.1891  0.1703 -0.1663
14933SOL    HW147052   7.233   1.044   3.742 -0.4502  0.5729  1.9690
14933SOL    HW247053   7.220   0.932   3.842  1.2002 -2.1838 -0.7478
14934SOL     OW47054   8.158  10.371   8.559  0.5625  0.1510 -0.1516
14934SOL    HW147055   8.219  10.439   8.534  1.8622 -0.5839  0.8845
14934SOL    HW247056   8.164  10.306   8.489  1.6055 -0.2986  0.3402
14935SOL     OW47057   0.303   4.522   1.223  0.0519 -0.0434 -0.1988
14935SOL    HW147058   0.364   4.570   1.166 -3.3100  2.9472 -1.6360
14935SOL    HW247059   0.328   4.549   1.311  2.3133 -0.9524 -0.4851
14936SOL     OW47060   4.972   1.119   6.162  0.0761 -0.5676  0.2234
14936SOL    HW147061   5.048   1.062   6.176  0.3437 -0.3243 -0.1917
14936SOL    HW247062   4.999   1.177   6.091 -0.5769 -0.6130 -0.0699
14937SOL     OW47063   4.129   3.832   4.968  0.0492 -0.1465 -0.3131
14937SOL    HW147064   4.166   3.867   5.050  1.1216  2.1750 -1.6863
14937SOL    HW247065   4.157   3.894   4.901 -2.1802 -1.0837 -2.2337
14938SOL     OW47066   0.058   2.947   1.004  0.4843 -0.3682  0.5099
14938SOL    HW147067   0.055   2.912   1.093 -0.8996  0.2660  0.7472
14938SOL    HW247068  -0.028   2.925   0.967  0.7794 -0.0024 -0.4309
14939SOL     OW47069   8.234   5.628   5.220 -0.1829  0.0356  0.0725
14939SOL    HW147070   8.178   5.635   5.142  0.3205  1.4933 -0.2053
14939SOL    HW247071   8.322   5.647   5.187  0.0774  0.3659  0.9443
14940SOL     OW47072   7.977   3.649   5.484  0.1649  1.0979  0.4120
14940SOL    HW147073   7.909   3.677   5.544 -1.2646  0.2164 -0.7243
14940SOL    HW247074   7.935   3.648   5.398  1.3342 -0.3354 -0.2112
14941SOL     OW47075   0.465   0.855   6.071  0.3749  0.0851  0.1167
14941SOL    HW147076   0.420   0.771   6.065 -1.6892  1.2263 -2.1329
14941SOL    HW247077   0.398   0.915   6.106  1.3214  1.1208  0.2067
14942SOL     OW47078   2.494   7.909   6.495 -0.7302  0.6173 -0.2233
14942SOL    HW147079   2.414   7.961   6.486 -0.5513  1.1829  1.1966
14942SOL    HW247080   2.501   7.892   6.589  0.3588 -0.1781 -0.4255
14943SOL     OW47081   3.707   0.599   1.008 -0.0647 -0.8336 -0.0848
14943SOL    HW147082   3.706   0.689   0.976 -0.4022 -0.5952  0.5965
14943SOL    HW247083   3.677   0.547   0.933 -3.7748 -0.0135  0.6483
14944SOL     OW47084   5.576   9.474   7.668 -0.5424 -0.1870  0.3191
14944SOL    HW147085   5.560   9.482   7.762 -1.7163  0.4757  0.0811
14944SOL    HW247086   5.494   9.438   7.633  0.1107 -1.0502 -0.3768
14945SOL     OW47087   5.353  10.150   4.388  0.3973  0.1889 -0.3628
14945SOL    HW147088   5.284  10.102   4.342 -0.6191 -0.6749  1.9239
14945SOL    HW247089   5.433  10.102   4.367 -0.1581 -0.6759 -0.5687
14946SOL     OW47090   0.703   8.417   0.352  0.8083 -0.0096 -0.0433
14946SOL    HW147091   0.681   8.361   0.277  3.0068  0.0078 -0.7617
14946SOL    HW247092   0.794   8.442   0.337  1.2398  0.1933  2.5230
14947SOL     OW47093   8.118   3.762   0.010  0.7684  0.0166 -0.2868
14947SOL    HW147094   8.184   3.725  -0.048  0.0069 -1.9138 -0.0016
14947SOL    HW247095   8.040   3.773  -0.045  0.6424  0.0571 -0.1034
14948SOL     OW47096   6.185   0.865   6.838 -0.6858 -0.0969  0.3060
14948SOL    HW147097   6.106   0.814   6.857  0.0686 -1.8142 -0.8623
14948SOL    HW247098   6.253   0.799   6.823  1.1586  1.3171  1.8379
14949SOL     OW47099   7.145   0.067   9.976 -0.0290  0.4817 -0.3055
14949SOL    HW147100   7.066   0.015   9.962  0.1576  0.3662 -0.9729
14949SOL    HW247101   7.148   0.082  10.070 -0.1756 -0.5744 -0.1239
14950SOL     OW47102   3.075   2.901  10.528 -0.8288 -0.0080 -0.0565
14950SOL    HW147103   3.083   2.970  10.462  2.2349 -2.4026 -2.5594
14950SOL    HW247104   3.034   2.828  10.481 -0.4059 -1.1417  1.2619
14951SOL     OW47105   3.679   2.753   0.560 -0.0939 -0.0578 -0.1210
14951SOL    HW147106   3.606   2.795   0.515 -0.4106  0.8630  1.1880
14951SOL    HW247107   3.672   2.660   0.537 -1.8814 -0.0374  0.2632
14952SOL     OW47108  10.616   9.531   2.062 -0.1335 -0.6206  0.1989
14952SOL    HW147109  10.665   9.562   1.985  2.1946 -2.4914  0.8074
14952SOL    HW247110  10.600   9.610   2.113  0.6948  0.3095 -0.8995
14953SOL     OW47111   2.576   0.025   7.446 -0.3039  0.0092  0.2941
14953SOL    HW147112   2.578  -0.069   7.467 -0.8953 -0.3053 -0.9992
14953SOL    HW247113   2.556   0.067   7.530 -0.0883 -1.0181  0.8819
14954SOL     OW47114  10.641   9.358   3.527 -0.1885  0.3135  0.1529
14954SOL    HW147115  10.600   9.275   3.554  1.0058  0.2084  1.7792
14954SOL    HW247116  10.641   9.411   3.606  0.8061  1.1481 -0.3866
14955SOL     OW47117   6.448   7.825   8.423  0.2965 -0.1349 -0.2626
14955SOL    HW147118   6.442   7.844   8.329  0.4763 -0.0558 -0.2574
14955SOL    HW247119   6.438   7.911   8.465  1.8039  0.0702 -0.2607
14956SOL     OW47120   7.428   9.091   9.047  0.3082 -0.3802 -0.4052
14956SOL    HW147121   7.513   9.134   9.032  0.4136 -0.4712 -0.0649
14956SOL    HW247122   7.426   9.020   8.983  0.9081 -0.9793  0.2351
14957SOL     OW47123   0.229   2.701   9.122  0.1067 -0.6095 -0.3176
14957SOL    HW147124   0.189   2.618   9.148  0.7695 -0.6865  0.4580
14957SOL    HW247125   0.166   2.738   9.059 -2.7643  0.6856  2.9854
14958SOL     OW47126   5.714   0.944   2.324  0.1762 -0.1684  0.0070
14958SOL    HW147127   5.764   1.019   2.356  0.3315 -0.1425 -0.2972
14958SOL    HW247128   5.676   0.905   2.403  0.5874 -0.1259  0.2242
14959SOL     OW47129   6.809   6.516   6.754 -0.3569 -0.0313  0.0398
14959SOL    HW147130   6.886   6.459   6.761 -0.0243  0.4312  0.1944
14959SOL    HW247131   6.835   6.597   6.797 -0.2284  0.8685 -1.6397
14960SOL     OW47132   7.840  10.380   3.982 -0.8948  0.1710  0.0949
14960SOL    HW147133   7.759  10.380   4.034 -1.2881 -1.2473 -0.4758
14960SOL    HW247134   7.850  10.289   3.954  0.3072  0.5576 -0.7732
14961SOL     OW47135  10.122   4.499   3.671  0.2114  0.2685  0.0031
14961SOL    HW147136  10.051   4.562   3.683  1.0493  1.0983  0.7198
14961SOL    HW247137  10.173   4.535   3.598  0.1907 -0.0467 -0.1658
14962SOL     OW47138   7.135   2.768   5.131  0.2171  0.8615 -0.1498
14962SOL    HW147139   7.118   2.692   5.075  0.5085 -0.5342  1.5780
14962SOL    HW247140   7.099   2.744   5.216  1.8878  1.9262  0.9214
14963SOL     OW47141   4.413   6.186   6.837  0.2140 -0.0742  0.4486
14963SOL    HW147142   4.417   6.282   6.838  1.9847 -0.0694 -1.5948
14963SOL    HW247143   4.343   6.165   6.775  0.8633 -0.0880 -0.2868
14964SOL     OW47144   2.176   7.541   7.605  0.1297  0.4639  0.3388
14964SOL    HW147145   2.114   7.570   7.538 -0.9423  1.3574  1.6600
14964SOL    HW247146   2.138   7.460   7.638 -0.1851  0.8245  0.8961
14965SOL     OW47147  10.575   9.761   9.909 -0.9124  0.0107 -0.1905
14965SOL    HW147148  10.485   9.736   9.931 -1.3552 -0.8240 -2.6569
14965SOL    HW247149  10.624   9.678   9.911 -0.0001  0.5407  1.7401
14966SOL     OW47150   2.721   4.582   0.166  0.3228  0.0082  0.4058
14966SOL    HW147151   2.739   4.575   0.072 -0.6513 -0.0030  0.2084
14966SOL    HW247152   2.692   4.494   0.192  0.4331  0.0528  0.6848
14967SOL     OW47153   4.013   5.169  10.411  0.2673 -0.9946 -0.4220
14967SOL    HW147154   3.957   5.184  10.336 -1.0112  0.4278  0.7644
14967SOL    HW247155   4.070   5.246  10.415 -0.5340 -0.4348  0.7623
14968SOL     OW47156   9.016   4.061   5.993  0.3636  0.1857 -0.0374
14968SOL    HW147157   8.958   4.114   5.938  0.3960 -0.0543 -0.3067
14968SOL    HW247158   8.976   3.974   5.993  0.1770  0.2653  0.6028
14969SOL     OW47159   7.107   7.449   3.537 -0.2398  0.6512 -0.3267
14969SOL    HW147160   7.111   7.541   3.509 -0.3273  1.3634  1.8468
14969SOL    HW247161   7.132   7.451   3.629 -2.1869 -1.2670  0.3086
14970SOL     OW47162   7.135   1.699   2.762  0.6819 -0.4946  0.1355
14970SOL    HW147163   7.101   1.670   2.847  0.3359 -2.6535 -0.6995
14970SOL    HW247164   7.060   1.694   2.703  1.5181 -1.6247 -0.8766
14971SOL     OW47165   4.835   9.211   3.851 -0.2249  0.0494 -0.4526
14971SOL    HW147166   4.887   9.144   3.895 -0.9716 -0.5173 -0.4132
14971SOL    HW247167   4.827   9.281   3.915 -1.4523 -0.8378  0.4286
14972SOL     OW47168   8.649   8.036   8.292  0.2064  0.3391 -0.0041
14972SOL    HW147169   8.597   7.975   8.238  1.7186 -0.2421 -0.8681
14972SOL    HW247170   8.656   8.115   8.238 -1.5507  1.2572  1.0153
14973SOL     OW47171  10.641  10.045   3.045  0.2910 -0.4181  0.4467
14973SOL    HW147172  10.572  10.093   3.091  0.3494 -1.0426  1.2148
14973SOL    HW247173  10.604   9.957   3.034  0.6059 -0.5004  0.0388
14974SOL     OW47174   0.261   6.041   3.740 -0.2372  0.2659 -0.3441
14974SOL    HW147175   0.238   6.104   3.671  0.1865  1.3211  0.4539
14974SOL    HW247176   0.345   6.005   3.713  0.2496  1.1684 -0.0616
14975SOL     OW47177   7.214   1.543   8.564  0.0352  0.0990 -0.2037
14975SOL    HW147178   7.287   1.566   8.621  0.1168  1.2493 -0.7431
14975SOL    HW247179   7.238   1.580   8.479 -0.7634 -0.2915 -0.6095
14976SOL     OW47180   0.412   5.701   5.246  0.1510 -0.2369 -0.4967
14976SOL    HW147181   0.323   5.684   5.216 -0.0210 -1.5872  0.6725
14976SOL    HW247182   0.453   5.751   5.175 -1.5271  0.4096 -1.0480
14977SOL     OW47183   9.173   0.107   3.848 -0.3759 -0.4905 -0.0399
14977SOL    HW147184   9.146   0.016   3.837 -1.1772 -0.1638 -0.7989
14977SOL    HW247185   9.102   0.159   3.812 -0.3363  0.4813  1.1855
14978SOL     OW47186   2.283   4.064   3.139  0.1927 -0.2259 -0.4201
14978SOL    HW147187   2.234   4.062   3.057 -0.3056 -2.7991 -0.1366
14978SOL    HW247188   2.223   4.028   3.204  1.4607 -0.6720  0.5440
14979SOL     OW47189   3.973   5.235   8.364  0.3655  0.0950 -0.6918
14979SOL    HW147190   3.938   5.162   8.417 -1.0713  0.5268 -1.0022
14979SOL    HW247191   4.064   5.243   8.393 -0.0254 -0.4848  0.8417
14980SOL     OW47192   7.330   8.177  10.354 -0.3026 -0.0555 -0.4635
14980SOL    HW147193   7.348   8.201  10.263 -0.1971 -0.4822 -0.5583
14980SOL    HW247194   7.389   8.232  10.405 -1.6537  1.5244 -0.5390
14981SOL     OW47195   0.554   0.350  10.531  0.1467  0.4644 -0.1139
14981SOL    HW147196   0.591   0.310  10.453 -0.1266 -0.2962  0.1390
14981SOL    HW247197   0.611   0.322  10.602 -0.8207 -0.6250  0.2647
14982SOL     OW47198   1.801   8.004   3.206 -0.0121 -0.3853  0.0618
14982SOL    HW147199   1.843   8.032   3.126  1.6129 -0.9502  0.6649
14982SOL    HW247200   1.779   8.085   3.252  0.9814 -0.0657 -0.0046
14983SOL     OW47201  10.040   5.632   5.940  0.5282 -0.4102  0.1060
14983SOL    HW147202  10.110   5.655   6.002 -0.7676  1.1082  1.1090
14983SOL    HW247203  10.069   5.671   5.857  1.2551 -0.5391  0.2868
14984SOL     OW47204   5.207   8.956   2.289 -0.0369 -0.1383 -0.3974
14984SOL    HW147205   5.293   8.989   2.262  0.0778 -0.5056 -0.4814
14984SOL    HW247206   5.187   8.888   2.225 -0.2380 -0.2851 -0.1765
14985SOL     OW47207   6.765   9.717   1.473  0.3685  0.2689  0.0384
14985SOL    HW147208   6.829   9.788   1.483  2.2812 -1.1141 -1.4748
14985SOL    HW247209   6.819   9.640   1.456 -1.6962 -1.3054  0.3397
14986SOL     OW47210   5.693   0.296   0.014 -0.0599  0.0244 -0.2726
14986SOL    HW147211   5.721   0.207   0.035  2.3812  0.3271 -1.8383
14986SOL    HW247212   5.760   0.353   0.053  0.0264  0.9835 -1.7209
14987SOL     OW47213   4.460   7.011   4.168 -0.1894 -0.0602 -0.3477
14987SOL    HW147214   4.411   6.932   4.146 -1.3343  0.6066 -0.3103
14987SOL    HW247215   4.537   6.980   4.215 -0.7766 -1.1296 -0.0583
14988SOL     OW47216   5.822   4.421   4.741  0.0598  0.1282 -0.1421
14988SOL    HW147217   5.894   4.473   4.705 -0.9040  0.9341 -0.9450
14988SOL    HW247218   5.865   4.342   4.774  1.6743  1.6572  1.7350
14989SOL     OW47219   6.996   3.767   3.278  0.2218  0.0901  0.1906
14989SOL    HW147220   6.999   3.815   3.196 -0.1353  1.1318  0.7742
14989SOL    HW247221   7.044   3.686   3.260 -0.1562  0.1435 -1.1351
14990SOL     OW47222   1.547   7.009   6.307  0.2709 -0.5100 -0.6355
14990SOL    HW147223   1.613   7.067   6.269  0.9014 -1.6684 -1.3814
14990SOL    HW247224   1.518   6.955   6.233 -0.8388 -0.6453 -0.1198
14991SOL     OW47225   9.605   9.234   1.281 -0.2668  0.0417  0.2521
14991SOL    HW147226   9.694   9.227   1.247  0.0617 -1.0121  1.2556
14991SOL    HW247227   9.592   9.153   1.330 -1.7392  0.2397  0.2280
14992SOL     OW47228   7.318   2.587   6.752  0.1118  0.2872 -0.0133
14992SOL    HW147229   7.240   2.551   6.710 -0.6217  1.6514  0.1184
14992SOL    HW247230   7.387   2.578   6.687 -0.1666 -0.8585 -0.1641
14993SOL     OW47231   2.640   1.059   4.035  0.4146  0.1986  0.2372
14993SOL    HW147232   2.550   1.071   4.006  0.5375 -0.6551 -0.5619
14993SOL    HW247233   2.634   1.009   4.116  0.2055 -1.3412 -0.6887
14994SOL     OW47234   5.267   4.737   3.985 -0.2127 -0.0332 -0.4467
14994SOL    HW147235   5.337   4.704   3.928  0.9170  0.0754  0.8423
14994SOL    HW247236   5.194   4.677   3.969  0.6200 -0.9872 -0.8039
14995SOL     OW47237   8.910   4.218   0.000 -0.9898  0.4464  0.1679
14995SOL    HW147238   8.889   4.275   0.074 -0.9051  0.2153  0.3727
14995SOL    HW247239   8.998   4.186   0.019 -0.6626  0.9914 -0.4159
14996SOL     OW47240   9.320   7.220   4.279 -0.5042  0.6317  0.4350
14996SOL    HW147241   9.302   7.186   4.366 -1.0485  0.2818  0.1894
14996SOL    HW247242   9.404   7.180   4.255 -0.5606  0.4006  0.6239
14997SOL     OW47243   1.443   7.254   2.045 -0.1865 -0.3814 -0.8294
14997SOL    HW147244   1.393   7.322   2.000 -0.9570  2.0534  3.2429
14997SOL    HW247245   1.534   7.286   2.043 -0.1498 -0.4922 -0.9783
14998SOL     OW47246   9.665   8.241   6.124  0.2171  0.8563  0.2527
14998SOL    HW147247   9.603   8.273   6.058  2.0195  0.0241 -1.9618
14998SOL    HW247248   9.748   8.282   6.100  1.2753 -0.7866  0.9727
14999SOL     OW47249   6.905   5.224   7.978 -0.3509  0.4807 -0.1747
14999SOL    HW147250   6.859   5.179   7.907  0.1903  0.3885 -0.4772
14999SOL    HW247251   6.979   5.268   7.935 -1.0737  1.9861  0.0650
15000SOL     OW47252   4.232   1.142   6.578 -0.2864 -0.6042  0.1920
15000SOL    HW147253   4.316   1.178   6.549  0.6054 -2.9696 -0.3290
15000SOL    HW247254   4.234   1.154   6.673  0.2336  0.1413  0.1043
15001SOL     OW47255   3.987   3.764   1.606 -0.2575 -0.1931 -0.9327
15001SOL    HW147256   3.901   3.743   1.571 -0.4012 -0.1462 -0.6149
15001SOL    HW247257   4.041   3.780   1.529 -0.4071 -0.7060 -1.1473
15002SOL     OW47258   6.178   5.256   1.578 -0.0211 -0.0666 -0.1922
15002SOL    HW147259   6.272   5.240   1.569 -0.1093 -1.7983  1.3686
15002SOL    HW247260   6.149   5.195   1.646 -2.2144  0.7049 -0.3354
15003SOL     OW47261   1.630   0.255   3.789 -0.0000  0.4870  0.0981
15003SOL    HW147262   1.704   0.295   3.743  0.0113 -0.2029 -0.4999
15003SOL    HW247263   1.615   0.312   3.864  0.6006  1.0996 -0.2367
15004SOL     OW47264   4.456   1.215   0.755  0.1405  0.2421 -0.2409
15004SOL    HW147265   4.475   1.222   0.849 -0.3852  0.3788 -0.1383
15004SOL    HW247266   4.513   1.145   0.724 -0.5088 -0.6068  0.4245
15005SOL     OW47267   0.018   0.042   2.482  0.3656  0.2297 -0.3461
15005SOL    HW147268  -0.058   0.055   2.425  0.4005 -1.5030 -0.8395
15005SOL    HW247269   0.069   0.122   2.471  0.6678 -0.2425 -3.2664
15006SOL     OW47270   0.779   4.933   0.563  0.6417  0.1265  0.0655
15006SOL    HW147271   0.743   4.969   0.644 -1.0132 -1.3359  0.0349
15006SOL    HW247272   0.781   5.008   0.503  0.1818  0.8409  0.9125
15007SOL     OW47273   5.537   6.239   3.909  0.1718 -0.3630  0.3819
15007SOL    HW147274   5.523   6.242   3.814 -0.0230 -0.6027  0.4005
15007SOL    HW247275   5.611   6.298   3.924 -1.7082  2.1404  0.4589
15008SOL     OW47276   5.018   9.063   1.763 -0.5376  0.1523  0.3606
15008SOL    HW147277   4.938   9.052   1.815 -0.9644  0.9122 -0.1070
15008SOL    HW247278   5.063   8.979   1.770 -2.0586 -0.7792 -0.4847
15009SOL     OW47279   0.577   8.629   7.545  0.1631 -0.0461  0.7568
15009SOL    HW147280   0.642   8.680   7.592 -0.3037  0.8649  0.4415
15009SOL    HW247281   0.583   8.660   7.455 -1.6800  1.1337  0.9742
15010SOL     OW47282   4.260  10.560   0.909 -0.3935 -0.0440 -0.0902
15010SOL    HW147283   4.185  10.549   0.850 -0.3046 -2.8813  0.1928
15010SOL    HW247284   4.223  10.546   0.997 -0.2122  2.5421  0.4915
15011SOL     OW47285   7.443   7.820   2.216 -0.4448 -0.0831  0.1580
15011SOL    HW147286   7.377   7.757   2.246 -0.2371 -0.1455  0.4978
15011SOL    HW247287   7.394   7.900   2.198 -0.6373 -0.1806  0.2520
15012SOL     OW47288   9.682   5.891   3.191  0.1976 -0.0704  0.5373
15012SOL    HW147289   9.602   5.864   3.236 -0.3814 -0.0830 -0.4603
15012SOL    HW247290   9.651   5.924   3.106  1.2515 -0.0264  0.1597
15013SOL     OW47291   8.629   1.470  10.197  0.0866 -0.3853  0.5273
15013SOL    HW147292   8.582   1.391  10.224  0.6533 -0.8027  0.3191
15013SOL    HW247293   8.691   1.487  10.268 -0.8897  0.6192  1.1770
15014SOL     OW47294   9.424   3.472   9.879 -0.1533 -0.0068  0.1420
15014SOL    HW147295   9.375   3.498   9.956 -0.2131  0.0642  0.0794
15014SOL    HW247296   9.385   3.388   9.854  0.9047 -0.8100  1.1090
15015SOL     OW47297   7.800   6.615   2.584  0.1516  0.1050  0.3691
15015SOL    HW147298   7.805   6.521   2.566  1.5555  0.1566  0.3757
15015SOL    HW247299   7.715   6.627   2.626 -0.1821 -1.1072  0.0869
15016SOL     OW47300   3.817   8.427   1.457 -0.0832 -0.0466 -0.5593
15016SOL    HW147301   3.727   8.458   1.445 -0.4031  0.0447  1.6011
15016SOL    HW247302   3.855   8.426   1.369 -2.2249 -0.2073 -1.5217
15017SOL     OW47303   4.959   1.700   4.055  1.0162  0.1004  0.0094
15017SOL    HW147304   4.979   1.730   4.144  0.6616 -1.8068  0.7894
15017SOL    HW247305   4.870   1.731   4.040 -0.3475 -2.5128  1.8227
15018SOL     OW47306  10.363   0.234   7.039  0.4457  0.3396 -0.2650
15018SOL    HW147307  10.278   0.223   6.998  0.3864 -2.2788  0.3315
15018SOL    HW247308  10.426   0.206   6.973  0.8584  1.9645 -0.5961
15019SOL     OW47309   3.450   3.820   3.772 -0.2925  0.2376  0.7104
15019SOL    HW147310   3.446   3.765   3.693  3.8200  0.5119  0.0936
15019SOL    HW247311   3.429   3.908   3.741  0.5477  0.2169  0.0509
15020SOL     OW47312   9.031   6.007   0.163  0.5419  0.0421 -0.2467
15020SOL    HW147313   9.012   5.916   0.186  0.8071  0.3227  1.1725
15020SOL    HW247314   9.026   6.009   0.068  0.4928 -1.4461 -0.2990
15021SOL     OW47315   2.807   7.027   2.320  0.4330 -0.6398 -0.0592
15021SOL    HW147316   2.846   7.073   2.246  0.9256 -1.3856 -0.2794
15021SOL    HW247317   2.882   7.005   2.376  0.2052 -1.1001  0.0752
15022SOL     OW47318   7.899   1.634   1.544 -0.6267  0.4588  0.4314
15022SOL    HW147319   7.909   1.545   1.577  2.2580 -0.1672 -1.6785
15022SOL    HW247320   7.906   1.690   1.621  0.5189 -1.0703  1.4931
15023SOL     OW47321   0.294   3.660   6.542  0.6202  0.5269 -0.0034
15023SOL    HW147322   0.310   3.625   6.630 -0.2666  1.1993  0.4431
15023SOL    HW247323   0.374   3.708   6.520  0.4546  1.2609  0.9059
15024SOL     OW47324  10.075   2.114  10.616  0.5376 -0.0557 -0.1461
15024SOL    HW147325  10.103   2.165  10.539  0.5089  0.1575 -0.0176
15024SOL    HW247326  10.038   2.179  10.675  1.3220 -0.0944  0.3996
15025SOL     OW47327  10.516   7.589   7.057 -0.5521  0.2999  0.3182
15025SOL    HW147328  10.532   7.495   7.049  0.0419  0.4376 -0.1891
15025SOL    HW247329  10.582   7.619   7.119  1.7921  0.9855 -2.2883
15026SOL     OW47330  10.056   4.704   8.161  0.3405  0.0877  0.3936
15026SOL    HW147331   9.968   4.688   8.195 -0.0676  0.4115 -0.4673
15026SOL    HW247332  10.093   4.768   8.222 -0.6444  1.2190 -0.1415
15027SOL     OW47333   9.085  10.052   8.600  0.7074  0.4894  0.2946
15027SOL    HW147334   9.086  10.129   8.544 -0.4425 -1.4842 -2.6699
15027SOL    HW247335   9.177  10.041   8.626  1.2937  1.5299 -1.1839
15028SOL     OW47336   3.510   1.069   5.894  0.0183  0.2760 -0.7956
15028SOL    HW147337   3.590   1.037   5.935 -0.7725 -0.6882  0.0695
15028SOL    HW247338   3.442   1.054   5.960 -0.9391  0.7004 -1.6567
15029SOL     OW47339   7.199   4.329   1.341  0.4881  0.3675 -0.4671
15029SOL    HW147340   7.212   4.371   1.257 -0.7719  2.1664  0.1712
15029SOL    HW247341   7.279   4.279   1.356  1.2896  1.0914 -2.1020
15030SOL     OW47342   8.276   3.210   7.773 -0.1017  0.2383 -0.0876
15030SOL    HW147343   8.355   3.156   7.775  0.8315  1.5269 -0.6213
15030SOL    HW247344   8.229   3.182   7.695 -0.7566 -1.3003  0.8245
15031SOL     OW47345  10.624   9.221  10.348  0.1504 -0.2859  0.2111
15031SOL    HW147346  10.712   9.250  10.325  1.0872 -1.1536  2.3717
15031SOL    HW247347  10.602   9.155  10.282 -0.2470  2.0754 -2.1946
15032SOL     OW47348   5.248   0.010  10.275 -0.1874  0.2608  0.0157
15032SOL    HW147349   5.188   0.064  10.223 -1.3637 -1.6693 -0.7372
15032SOL    HW247350   5.308  -0.027  10.210 -0.2775 -0.4173  0.3155
15033SOL     OW47351   6.390   7.160   3.187  0.0502  0.4054 -0.4760
15033SOL    HW147352   6.398   7.255   3.179  0.2413  0.4757  0.4318
15033SOL    HW247353   6.296   7.143   3.177  0.2044  0.4705 -2.5275
15034SOL     OW47354  10.056   1.995   9.476  0.3345 -0.3779  0.4095
15034SOL    HW147355  10.011   2.078   9.463  1.5992  0.7735  2.7786
15034SOL    HW247356  10.002   1.931   9.429 -2.5922  1.2155  1.3698
15035SOL     OW47357   7.511   3.360   7.647  0.0703  0.4757  0.2734
15035SOL    HW147358   7.498   3.266   7.657 -0.5946  0.4775 -0.4548
15035SOL    HW247359   7.443   3.387   7.585  0.2235  1.4436  0.5104
15036SOL     OW47360   9.506   0.175   1.357  0.0635 -0.4830 -0.3565
15036SOL    HW147361   9.421   0.138   1.334 -0.7760  0.0931  1.6015
15036SOL    HW247362   9.547   0.109   1.413  0.0384  0.0618  0.3203
15037SOL     OW47363   8.084   8.522   0.978  0.1218  0.4863 -0.3591
15037SOL    HW147364   8.173   8.527   1.012 -0.2888  1.3205  0.6520
15037SOL    HW247365   8.065   8.610   0.946 -0.8904  0.7518  0.9096
15038SOL     OW47366   8.586   3.246   5.697  0.3297  0.2062 -0.4098
15038SOL    HW147367   8.583   3.316   5.633 -0.8346  1.7001  1.1941
15038SOL    HW247368   8.676   3.214   5.693  0.2848  0.1778 -2.7826
15039SOL     OW47369   8.057   2.222   7.774  0.1744 -0.1836 -0.5290
15039SOL    HW147370   8.083   2.179   7.856 -2.4171 -1.5651 -0.3175
15039SOL    HW247371   8.132   2.210   7.716  1.1883 -1.2181  0.9174
15040SOL     OW47372   9.692   7.837   6.918 -0.2074  0.2745  0.2512
15040SOL    HW147373   9.715   7.796   6.835  0.9627  0.0812  0.6462
15040SOL    HW247374   9.624   7.780   6.954 -0.1334 -0.1096 -0.2000
15041SOL     OW47375   1.132   1.744   6.995 -0.4784  0.4867 -0.5877
15041SOL    HW147376   1.127   1.701   7.080 -0.3948  1.2962 -0.1730
15041SOL    HW247377   1.040   1.750   6.966 -0.5136  0.2953 -0.5154
15042SOL     OW47378   3.814   5.965   3.164 -0.1354  0.2089 -0.7443
15042SOL    HW147379   3.819   5.874   3.193 -0.9300  0.6408  0.8527
15042SOL    HW247380   3.863   5.967   3.082  0.2579 -1.5640 -0.5847
15043SOL     OW47381   6.337   3.204   3.486  0.1121  0.3378  0.0861
15043SOL    HW147382   6.250   3.210   3.448  0.2276 -1.2832 -0.5067
15043SOL    HW247383   6.327   3.238   3.575 -0.6796  1.9257 -0.5733
15044SOL     OW47384   4.953   1.632   8.538 -0.0535 -0.3621  0.5146
15044SOL    HW147385   4.962   1.568   8.467  0.0353  1.3881 -1.1399
15044SOL    HW247386   4.879   1.600   8.590 -1.9462 -0.3420 -1.9691
15045SOL     OW47387   7.857   8.396  10.649 -0.4884  0.3977  0.5558
15045SOL    HW147388   7.874   8.480  10.691  0.7041  0.9868 -0.9934
15045SOL    HW247389   7.923   8.337  10.685 -0.3555  0.5244  0.5164
15046SOL     OW47390   7.781  10.539   7.530  0.6526 -0.4006  0.5632
15046SOL    HW147391   7.708  10.584   7.487  1.6928  1.9994  1.1399
15046SOL    HW247392   7.739  10.479   7.592 -0.8595  0.9629  0.9264
15047SOL     OW47393  10.517   4.002   6.372  0.0626 -0.3116  0.0303
15047SOL    HW147394  10.602   4.006   6.417 -0.3946 -3.3959  1.4276
15047SOL    HW247395  10.466   4.073   6.410  0.7857 -0.8223  2.0845
15048SOL     OW47396  10.614   0.512   0.136  0.0292  0.5361  0.8835
15048SOL    HW147397  10.595   0.433   0.186  0.1985 -0.3709 -0.4575
15048SOL    HW247398  10.560   0.505   0.057  2.3815  0.1371 -0.8074
15049SOL     OW47399   4.143   2.757   8.422  0.1035 -0.3061  0.3669
15049SOL    HW147400   4.190   2.690   8.372  3.0248  0.8525  1.3333
15049SOL    HW247401   4.111   2.711   8.500 -1.9931 -1.4898 -1.1170
15050SOL     OW47402  10.396   9.755   3.967  0.3728 -0.3515 -0.3709
15050SOL    HW147403  10.412   9.676   3.916 -0.4550  0.4885 -2.0515
15050SOL    HW247404  10.343   9.810   3.908 -0.3709  0.8125  1.3130
15051SOL     OW47405   2.498   1.102   5.096  0.0075  0.1129 -0.0159
15051SOL    HW147406   2.508   1.020   5.144 -1.0155 -0.4977 -0.8157
15051SOL    HW247407   2.406   1.126   5.108 -0.1516  0.1939 -1.2724
15052SOL     OW47408   1.171   3.831   7.069 -0.3878 -0.2754 -0.5844
15052SOL    HW147409   1.230   3.762   7.037 -0.6542 -0.3130 -0.9942
15052SOL    HW247410   1.179   3.901   7.005  0.5841  0.4693  0.3068
15053SOL     OW47411   3.026   4.743   6.369 -0.2295  0.4281 -0.2976
15053SOL    HW147412   2.994   4.653   6.379  0.1649  0.2539 -0.5921
15053SOL    HW247413   3.103   4.747   6.425  1.0057 -0.0569 -1.9093
15054SOL     OW47414   2.342   2.933   1.260 -0.2025 -0.6492 -0.6244
15054SOL    HW147415   2.284   2.951   1.334  0.8217  2.1837 -0.3752
15054SOL    HW247416   2.296   2.969   1.184  0.5406  0.2725 -0.6569
15055SOL     OW47417   1.417   9.315   5.538 -0.2587  0.4084 -0.5752
15055SOL    HW147418   1.402   9.285   5.628 -1.1989 -0.3719 -0.9677
15055SOL    HW247419   1.511   9.303   5.524 -0.3486 -0.9858 -0.1944
15056SOL     OW47420   6.711   4.915   8.513  0.2794  0.1550 -0.5199
15056SOL    HW147421   6.626   4.907   8.470  0.1910 -0.8457 -0.1929
15056SOL    HW247422   6.711   5.004   8.550  0.5602  1.2313 -2.9425
15057SOL     OW47423   7.296  10.536   5.660 -0.2691 -0.8226  0.4933
15057SOL    HW147424   7.300  10.496   5.747  0.8692  0.4922  1.1011
15057SOL    HW247425   7.381  10.515   5.620  0.4849  1.1399  0.9525
15058SOL     OW47426   4.421  10.582   3.380  0.1092 -0.2617 -0.3159
15058SOL    HW147427   4.486  10.513   3.372  0.4866 -0.1373  1.3058
15058SOL    HW247428   4.337  10.540   3.360  0.5825 -0.5633 -1.8073
15059SOL     OW47429   6.042   0.526   7.866 -0.3193 -0.5810 -0.4827
15059SOL    HW147430   5.956   0.563   7.847 -0.1816 -0.5378 -1.0519
15059SOL    HW247431   6.072   0.490   7.782  1.3153  1.7180 -0.9953
15060SOL     OW47432   5.222   0.820   8.247 -0.2264 -0.3534  0.0678
15060SOL    HW147433   5.164   0.806   8.172  0.6598 -0.2497 -0.6641
15060SOL    HW247434   5.165   0.814   8.324 -1.9007  3.0848 -0.7012
15061SOL     OW47435   2.303   5.780   5.450 -0.2325 -0.7576  0.3450
15061SOL    HW147436   2.270   5.690   5.449 -1.9014 -0.1755 -0.1842
15061SOL    HW247437   2.339   5.794   5.363  2.2133 -1.6383  1.1575
15062SOL     OW47438  10.245   6.987   3.080 -0.0820 -0.1671 -0.7791
15062SOL    HW147439  10.245   7.043   3.157  1.7455 -2.0500  0.7067
15062SOL    HW247440  10.188   6.914   3.103 -1.0675  0.1965 -1.9970
15063SOL     OW47441   8.012   4.689   5.897 -0.4646 -0.1382  0.0851
15063SOL    HW147442   8.019   4.596   5.875  0.6366 -0.2457  0.7957
15063SOL    HW247443   7.921   4.701   5.924 -0.3235 -1.2902  1.1584
15064SOL     OW47444   4.074  10.118   2.950 -0.4111  0.2883 -0.9441
15064SOL    HW147445   4.078  10.065   2.870 -0.7307 -0.7429 -0.2942
15064SOL    HW247446   4.104  10.205   2.923  0.8290 -0.4041 -1.8859
15065SOL     OW47447   2.528   2.493   5.491  0.0398  0.3808 -0.2237
15065SOL    HW147448   2.526   2.589   5.494 -2.9301  0.4477 -0.4597
15065SOL    HW247449   2.523   2.472   5.398 -3.6066  0.2081 -0.1497
15066SOL     OW47450   5.535   1.074   2.159 -0.1208  0.2753 -0.3589
15066SOL    HW147451   5.471   1.065   2.230 -0.3587 -1.9022 -0.7772
15066SOL    HW247452   5.610   1.024   2.189  0.7798  1.4645 -0.5798
15067SOL     OW47453   5.179   1.564   7.361  0.2802  0.1046 -0.4130
15067SOL    HW147454   5.219   1.651   7.361  1.4450 -0.4027 -0.8307
15067SOL    HW247455   5.253   1.504   7.346  0.1584 -1.2732  3.3457
15068SOL     OW47456   7.567   5.312   6.540  0.2763 -0.2922 -0.0763
15068SOL    HW147457   7.617   5.351   6.469  0.2645  0.5654  0.3678
15068SOL    HW247458   7.551   5.222   6.512  1.0068 -0.2182 -0.7672
15069SOL     OW47459   9.218   4.972   8.062 -0.0197  0.3780  0.2638
15069SOL    HW147460   9.253   4.954   8.149  0.8730 -2.5679 -0.6128
15069SOL    HW247461   9.140   4.917   8.055  0.3699 -0.0508 -1.0485
15070SOL     OW47462   3.092   3.354   2.060 -0.0085  0.3774 -0.9120
15070SOL    HW147463   2.996   3.356   2.065 -0.0479  4.5565  0.3637
15070SOL    HW247464   3.120   3.333   2.149  0.2207  0.5049 -0.9524
15071SOL     OW47465   9.390   4.256   0.274 -0.1528  0.0827 -0.7355
15071SOL    HW147466   9.411   4.186   0.212 -0.4172  0.7614 -1.6098
15071SOL    HW247467   9.450   4.243   0.347 -1.0150 -1.7930 -0.3036
15072SOL     OW47468   7.749   5.412   2.250 -0.1131  0.2957  0.2461
15072SOL    HW147469   7.785   5.457   2.326  0.0854 -1.8582  1.5086
15072SOL    HW247470   7.791   5.326   2.250 -0.9114 -0.1607 -1.6914
15073SOL     OW47471   4.913   5.589   4.169 -0.3422 -0.4394 -0.2456
15073SOL    HW147472   4.892   5.517   4.110 -0.3689  0.3464 -1.2340
15073SOL    HW247473   5.000   5.567   4.203  0.1325 -0.4283 -1.3918
15074SOL     OW47474   4.862   1.401   4.948 -0.1371  0.0239  0.2264
15074SOL    HW147475   4.817   1.350   4.881 -1.6806  0.1963  1.0838
15074SOL    HW247476   4.799   1.407   5.020  0.0360  2.9053  0.2814
15075SOL     OW47477   4.849   0.924   6.888  0.1774  0.2829  0.0652
15075SOL    HW147478   4.764   0.915   6.930  0.1097 -1.4819 -0.3467
15075SOL    HW247479   4.895   0.991   6.938 -0.2741 -0.9974  2.2999
15076SOL     OW47480   0.139   8.307   0.250 -0.2572  0.5811  0.3945
15076SOL    HW147481   0.079   8.264   0.311 -1.0081  1.2781  0.1770
15076SOL    HW247482   0.184   8.236   0.205 -0.0148  0.0545  1.4386
15077SOL     OW47483   2.544   9.444   6.560 -0.6827 -0.1981 -0.1419
15077SOL    HW147484   2.626   9.427   6.608 -0.9944  1.6516  1.1790
15077SOL    HW247485   2.573   9.470   6.473 -0.0898 -3.5732 -1.0923
15078SOL     OW47486  10.412   1.336   2.040 -0.1099  0.0288 -0.1592
15078SOL    HW147487  10.405   1.245   2.011 -1.1314  0.1121 -0.1941
15078SOL    HW247488  10.337   1.380   2.000  0.7630  1.0482 -0.7177
15079SOL     OW47489   9.520  10.604   2.126 -0.4877  0.1878 -0.3348
15079SOL    HW147490   9.445  10.661   2.147  0.3443  1.4076 -0.5537
15079SOL    HW247491   9.592  10.665   2.108  0.8432 -0.9503  0.8615
15080SOL     OW47492   0.317   8.438   5.286  0.2979  0.0082  0.2608
15080SOL    HW147493   0.372   8.513   5.307  0.0819  0.1702  0.2467
15080SOL    HW247494   0.374   8.379   5.237  0.4840  0.1365  0.3251
15081SOL     OW47495   6.000   8.733   5.151 -0.2590  0.2727 -0.7577
15081SOL    HW147496   5.914   8.713   5.113  0.4281 -1.3734 -1.5457
15081SOL    HW247497   6.010   8.668   5.221  1.5005 -1.5081 -2.5274
15082SOL     OW47498   1.189   9.750   9.134 -0.1718  0.8116  0.2919
15082SOL    HW147499   1.261   9.690   9.114 -0.1140  1.3044 -1.0791
15082SOL    HW247500   1.112   9.711   9.091 -0.5000  0.8256  0.8653
15083SOL     OW47501   2.645   0.486   5.971 -0.2552  0.3119 -0.0929
15083SOL    HW147502   2.594   0.466   5.892  0.0743 -1.5784  0.1462
15083SOL    HW247503   2.584   0.535   6.027 -1.6016 -1.2758 -0.1111
15084SOL     OW47504  10.377   1.324   4.958  0.5098 -0.3745  0.3406
15084SOL    HW147505  10.412   1.255   4.900 -0.0656  0.4948 -1.1049
15084SOL    HW247506  10.412   1.405   4.921 -1.5401  0.3748 -0.0527
15085SOL     OW47507   6.749   3.179   8.892  0.4415 -0.3049 -0.2093
15085SOL    HW147508   6.839   3.204   8.916  1.7151 -0.8276 -3.7924
15085SOL    HW247509   6.743   3.086   8.916  1.1373 -0.4566 -0.5800
15086SOL     OW47510   2.494   8.040   7.641 -0.3530  0.0661  0.5963
15086SOL    HW147511   2.446   8.018   7.721 -1.4117 -0.6294 -0.2094
15086SOL    HW247512   2.491   7.961   7.588 -0.3281  0.7560 -0.4723
15087SOL     OW47513   2.166   3.422   8.931 -0.1474 -0.3937  0.0351
15087SOL    HW147514   2.241   3.381   8.887 -0.2543  1.7354 -2.3854
15087SOL    HW247515   2.090   3.373   8.900 -0.0209 -0.5320 -0.0568
15088SOL     OW47516   4.424   8.689   4.771  0.2390 -0.4766  0.7364
15088SOL    HW147517   4.361   8.730   4.713  1.4994  1.8187  0.8899
15088SOL    HW247518   4.452   8.759   4.830  1.6391 -1.8520  1.7942
15089SOL     OW47519  10.379   5.069   3.982 -0.2760 -0.1371 -0.6096
15089SOL    HW147520  10.376   4.977   3.957 -0.2450 -0.0484 -0.9457
15089SOL    HW247521  10.364   5.117   3.900  0.7697  0.1723 -0.6294
15090SOL     OW47522   2.226   4.399   0.900  0.0655 -0.1189 -0.1512
15090SOL    HW147523   2.310   4.438   0.925  0.6529 -0.9697 -0.7799
15090SOL    HW247524   2.249   4.318   0.855 -1.1403 -1.4539  1.5148
15091SOL     OW47525   8.483   8.508   0.893  0.1557 -0.0905  0.5048
15091SOL    HW147526   8.407   8.504   0.951  1.2755  0.2980  2.0269
15091SOL    HW247527   8.503   8.601   0.886  0.1995 -0.1529 -0.3086
15092SOL     OW47528   4.303   6.565   4.701 -0.2191 -0.1135  0.0506
15092SOL    HW147529   4.285   6.658   4.712  1.6534  0.3846 -0.6020
15092SOL    HW247530   4.286   6.527   4.787  1.0172  1.2348  0.9490
15093SOL     OW47531  10.400   1.629   8.147 -0.7178 -0.0531  0.2598
15093SOL    HW147532  10.368   1.614   8.058  1.5521 -0.0397 -0.6356
15093SOL    HW247533  10.400   1.542   8.187 -4.2052  0.2533  1.2618
15094SOL     OW47534   4.609   0.182   4.411  0.0459 -0.3454 -0.2742
15094SOL    HW147535   4.673   0.114   4.390  0.9855 -0.2345  2.0041
15094SOL    HW247536   4.557   0.190   4.331  1.1898 -2.2914 -1.3075
15095SOL     OW47537   4.681   3.361   6.579 -0.5413  0.4910 -0.6175
15095SOL    HW147538   4.690   3.297   6.509 -2.7794 -1.0224  0.3429
15095SOL    HW247539   4.682   3.308   6.660 -2.7843  1.5397  0.1863
15096SOL     OW47540   8.228   2.412   9.978 -0.0882 -0.1020  0.7116
15096SOL    HW147541   8.197   2.495   9.942  1.3680  0.3620  0.4393
15096SOL    HW247542   8.152   2.374  10.020 -1.3170  0.3779 -0.9637
15097SOL     OW47543   4.080   2.827   2.647 -0.5264 -0.5286  0.1781
15097SOL    HW147544   3.996   2.830   2.693 -0.8510  0.3804 -0.4585
15097SOL    HW247545   4.083   2.739   2.609 -0.6383 -0.9942  1.1857
15098SOL     OW47546   5.778   2.107   5.039 -0.4859  0.0641 -0.7044
15098SOL    HW147547   5.825   2.065   4.967  0.6884 -0.8763  0.5556
15098SOL    HW247548   5.801   2.200   5.033 -1.2069  0.1700 -2.1076
15099SOL     OW47549   4.748   1.636   7.875 -0.1962  0.9145 -0.6477
15099SOL    HW147550   4.812   1.610   7.940  0.6828  0.0191 -1.8168
15099SOL    HW247551   4.791   1.620   7.791 -2.3816 -1.0114 -1.5248
15100SOL     OW47552   8.203   8.498   7.504  0.0055 -0.4573 -0.1173
15100SOL    HW147553   8.153   8.505   7.585 -2.2690 -0.5855 -1.4245
15100SOL    HW247554   8.264   8.427   7.520 -1.1172 -1.1979  1.1344
15101SOL     OW47555   3.828   5.482   2.532 -0.7111  0.1960  0.0247
15101SOL    HW147556   3.853   5.523   2.449  0.3150  1.3537  0.8712
15101SOL    HW247557   3.852   5.390   2.522  0.9894  0.6555 -0.3692
15102SOL     OW47558   9.879  10.091   2.423 -0.2252  0.6708  0.1778
15102SOL    HW147559   9.901  10.049   2.340  0.1809 -0.5819  0.8858
15102SOL    HW247560   9.787  10.115   2.415  0.1133  1.6398 -1.0579
15103SOL     OW47561   6.283   8.153   6.694 -0.3844  0.4644  0.5666
15103SOL    HW147562   6.224   8.224   6.718 -0.0869  0.3803  1.6105
15103SOL    HW247563   6.370   8.185   6.717 -0.1226  0.2051 -0.0405
15104SOL     OW47564   4.642   9.619   3.008 -0.1190 -0.2541 -0.6335
15104SOL    HW147565   4.617   9.662   2.927 -1.1579 -1.4480 -0.9883
15104SOL    HW247566   4.632   9.525   2.989 -0.9635 -0.5416  1.0277
15105SOL     OW47567   9.797   4.126   9.331 -0.1373 -0.0957 -0.2527
15105SOL    HW147568   9.786   4.049   9.387 -0.6137  1.0370  1.2843
15105SOL    HW247569   9.752   4.103   9.249 -2.3280 -0.6184  1.0052
15106SOL     OW47570   7.046   6.470   7.909 -0.0644 -0.0003 -0.1949
15106SOL    HW147571   7.064   6.482   8.002 -0.2957 -0.8840 -0.0222
15106SOL    HW247572   7.020   6.378   7.902  0.5014 -0.1000 -1.2143
15107SOL     OW47573   4.006   9.411   4.859  0.2252  0.0557  0.4592
15107SOL    HW147574   3.960   9.353   4.920  1.4696 -0.4391  0.9500
15107SOL    HW247575   3.967   9.497   4.874 -0.8832 -0.4365  0.5075
15108SOL     OW47576   1.655   7.477   9.700  0.1278  0.1502 -0.2913
15108SOL    HW147577   1.651   7.382   9.710 -1.3298  0.3433  1.5043
15108SOL    HW247578   1.628   7.512   9.785  0.9449  2.1887 -0.7985
15109SOL     OW47579   6.846   1.734   5.989 -0.1736  0.1221 -0.2078
15109SOL    HW147580   6.916   1.730   6.055 -0.8182 -0.7229  0.4401
15109SOL    HW247581   6.812   1.823   5.996 -1.0798 -0.3185  1.5247
15110SOL     OW47582   8.567   9.664   7.149  0.2498 -0.1101 -0.1083
15110SOL    HW147583   8.525   9.628   7.071  1.2546 -0.9770 -0.2669
15110SOL    HW247584   8.649   9.702   7.118  0.3066  0.2114  0.4144
15111SOL     OW47585   2.416   6.290   2.177 -0.3013  0.8688  0.1958
15111SOL    HW147586   2.366   6.210   2.160  0.3671  0.4551  0.1279
15111SOL    HW247587   2.392   6.350   2.106 -0.5206  0.5869  0.0335
15112SOL     OW47588   8.254   5.345   7.656  0.7056 -0.0401  0.1937
15112SOL    HW147589   8.159   5.344   7.672  0.8520  0.1503  1.1401
15112SOL    HW247590   8.276   5.438   7.656  1.0806 -0.1149  1.2303
15113SOL     OW47591   0.298   9.607   5.501  0.3420 -0.2024  0.1681
15113SOL    HW147592   0.385   9.595   5.539  0.3424 -0.9185 -0.0458
15113SOL    HW247593   0.238   9.572   5.567  0.2473 -0.1165  0.1273
15114SOL     OW47594   2.861   6.417  10.023  0.4194 -0.2583 -0.0894
15114SOL    HW147595   2.804   6.342  10.039 -0.4392  0.3399 -0.2934
15114SOL    HW247596   2.805   6.483   9.983  1.1688  0.4864  0.0422
15115SOL     OW47597   0.486   2.776   7.495  0.1795  0.4687  0.2857
15115SOL    HW147598   0.472   2.810   7.407  2.6115  2.3915  0.5107
15115SOL    HW247599   0.581   2.768   7.503 -0.0734 -2.3379  1.8526
15116SOL     OW47600   1.195   5.310   6.700  0.0374  0.6609 -0.3567
15116SOL    HW147601   1.253   5.269   6.637  0.7623  1.3701 -0.1708
15116SOL    HW247602   1.108   5.275   6.680  0.8074 -2.2146  0.8182
15117SOL     OW47603   0.431   4.852   7.554  0.0348  0.2029 -0.2331
15117SOL    HW147604   0.499   4.844   7.621 -0.7720 -0.2418  0.5394
15117SOL    HW247605   0.349   4.841   7.601 -0.5322 -0.5719 -1.3701
15118SOL     OW47606   9.808   1.330   0.222 -0.5370  0.5158 -0.1415
15118SOL    HW147607   9.819   1.393   0.293 -2.2382  0.2642  0.3785
15118SOL    HW247608   9.821   1.245   0.263 -0.7159  0.4084 -0.3050
15119SOL     OW47609   9.302   3.479   7.422 -0.2315  0.1620 -0.0805
15119SOL    HW147610   9.268   3.416   7.486  0.5462 -0.9328 -0.7231
15119SOL    HW247611   9.361   3.428   7.367 -0.0468  1.3321 -0.9971
15120SOL     OW47612   4.422   7.874   3.105 -0.5451  0.0706  0.1875
15120SOL    HW147613   4.354   7.940   3.098 -1.8801 -1.1399  1.1410
15120SOL    HW247614   4.491   7.915   3.157 -0.3670  1.4319 -1.0847
15121SOL     OW47615   2.067   9.851   1.092  0.2628 -0.1274 -0.6030
15121SOL    HW147616   2.032   9.922   1.039  0.1761  0.6864  0.5130
15121SOL    HW247617   2.020   9.773   1.061 -1.4662  0.6932 -0.1792
15122SOL     OW47618   5.155   1.684   1.764  0.1461 -0.7371  0.6404
15122SOL    HW147619   5.226   1.623   1.783 -0.3976 -1.4703  0.3832
15122SOL    HW247620   5.143   1.678   1.669  2.1951  2.1549  0.0534
15123SOL     OW47621   4.608   0.921   8.301 -0.1106 -0.3234 -0.1213
15123SOL    HW147622   4.563   1.004   8.291 -1.4329 -0.9534  0.4207
15123SOL    HW247623   4.654   0.908   8.218 -0.2396  0.7353 -0.3603
15124SOL     OW47624   0.046  10.025   4.300  0.3090 -0.2419 -0.1154
15124SOL    HW147625  -0.004  10.061   4.227  1.1988  0.3926 -0.4305
15124SOL    HW247626   0.065   9.934   4.274  0.2736 -0.1420 -0.4989
15125SOL     OW47627  10.367   0.530   5.041  0.3096  0.4760  0.0205
15125SOL    HW147628  10.458   0.551   5.019  0.5579 -0.9495 -0.4917
15125SOL    HW247629  10.337   0.475   4.968 -1.0947  1.2218 -0.0050
15126SOL     OW47630   0.551   4.580   7.709 -0.5026  0.1555 -0.5662
15126SOL    HW147631   0.614   4.599   7.639  2.4749  2.1244  2.3263
15126SOL    HW247632   0.570   4.489   7.735  0.9417  0.5733 -0.0515
15127SOL     OW47633   2.066   2.804   1.210 -0.5556 -0.5293 -0.3300
15127SOL    HW147634   2.112   2.723   1.230 -1.6764 -1.0254  0.3259
15127SOL    HW247635   2.074   2.857   1.289  0.6146  0.2382 -0.9328
15128SOL     OW47636   7.592   4.413   4.745  0.1575  1.0221 -0.3711
15128SOL    HW147637   7.659   4.452   4.801  0.5353  1.2610 -0.9805
15128SOL    HW247638   7.510   4.456   4.772 -0.8327 -2.7574  3.9473
15129SOL     OW47639   2.741   1.859   2.207 -0.4423  0.2631  0.5445
15129SOL    HW147640   2.826   1.819   2.189 -0.5686  0.0058  0.5075
15129SOL    HW247641   2.756   1.912   2.286 -0.3267 -0.0463  0.7350
15130SOL     OW47642   2.482   6.870   7.948  0.2779 -0.3056 -0.0196
15130SOL    HW147643   2.511   6.948   7.900 -0.1535  1.4417  2.3625
15130SOL    HW247644   2.562   6.830   7.980  0.4597 -0.2197 -0.3657
15131SOL     OW47645   8.858   2.412   2.855 -0.7561  0.0830 -0.0905
15131SOL    HW147646   8.764   2.425   2.863 -0.5081  1.9888  0.1356
15131SOL    HW247647   8.870   2.371   2.770 -1.8381 -0.9788  0.2472
15132SOL     OW47648   1.572   5.695   7.844 -0.4450  0.1920  0.5753
15132SOL    HW147649   1.523   5.752   7.903  0.7010  1.1868  0.6037
15132SOL    HW247650   1.505   5.640   7.804 -1.2999 -0.2647  2.4976
15133SOL     OW47651   5.466   2.184   6.809 -0.1801  0.6648  0.1846
15133SOL    HW147652   5.450   2.168   6.717 -0.0802 -1.3242  0.4866
15133SOL    HW247653   5.561   2.193   6.816 -0.2977  3.1408 -0.1867
15134SOL     OW47654  10.147   6.388   8.420 -0.1098 -0.2410  0.1574
15134SOL    HW147655  10.206   6.315   8.437  0.8801  0.7634  1.2822
15134SOL    HW247656  10.063   6.347   8.401  1.0811 -1.7561 -2.4020
15135SOL     OW47657   1.963   4.965   0.157  0.3704 -0.1949 -0.3862
15135SOL    HW147658   1.896   4.994   0.219 -0.6172 -0.7525 -1.1671
15135SOL    HW247659   2.042   5.013   0.183 -0.5459  1.1682  0.0012
15136SOL     OW47660   3.410   9.956   0.776  0.2940  0.1369 -0.3264
15136SOL    HW147661   3.355   9.879   0.791 -1.2465  1.4527  1.1420
15136SOL    HW247662   3.457   9.968   0.858  0.3488  0.8839 -0.4621
15137SOL     OW47663   2.650   4.334   4.939 -0.5627 -0.2554  0.3495
15137SOL    HW147664   2.626   4.245   4.915 -0.8796  0.2210 -1.2188
15137SOL    HW247665   2.604   4.351   5.020 -2.4514 -0.7057 -0.5834
15138SOL     OW47666  10.120   7.124   1.634 -0.0294 -0.2835 -0.1371
15138SOL    HW147667  10.057   7.056   1.659  0.4142  0.0059  1.9189
15138SOL    HW247668  10.183   7.078   1.579 -0.7465 -1.1082 -0.2988
15139SOL     OW47669   9.815   5.831   1.525  0.1737  0.0545  0.5880
15139SOL    HW147670   9.830   5.925   1.517  1.4241 -0.2058 -0.4986
15139SOL    HW247671   9.902   5.795   1.545 -0.2472 -0.8924  0.7562
15140SOL     OW47672   6.942   6.280   2.068  0.4498  0.1088  0.2402
15140SOL    HW147673   6.997   6.201   2.066  0.1900 -0.0845  0.6275
15140SOL    HW247674   6.888   6.274   1.990  0.0088 -0.4036  0.5803
15141SOL     OW47675   9.176   9.864   9.559  0.4867 -0.9934  0.0771
15141SOL    HW147676   9.126   9.802   9.613  1.1103 -0.7282  0.9731
15141SOL    HW247677   9.184   9.820   9.474 -0.1752 -1.5845  0.3094
15142SOL     OW47678   2.649   2.482   3.502 -0.5441  0.5179 -0.3976
15142SOL    HW147679   2.578   2.546   3.490 -1.1133 -0.4056 -2.2555
15142SOL    HW247680   2.707   2.496   3.428  0.8572  0.7406  0.6997
15143SOL     OW47681   6.212   4.541   1.217 -0.4443  0.0765 -0.0597
15143SOL    HW147682   6.250   4.571   1.135 -1.8701 -0.9580 -1.1548
15143SOL    HW247683   6.216   4.445   1.211  0.0016 -0.0148  1.3702
15144SOL     OW47684   2.903   0.949  10.000  0.1183 -0.3995  0.1617
15144SOL    HW147685   2.839   0.882  10.024  1.5188 -2.0118 -0.4446
15144SOL    HW247686   2.918   0.936   9.907  0.5164  0.7049  0.0509
15145SOL     OW47687   1.589   2.016   5.707 -0.0054  0.4329  0.2359
15145SOL    HW147688   1.597   2.041   5.799  1.5117 -0.6507  0.4400
15145SOL    HW247689   1.677   1.989   5.681 -0.8653 -1.6801 -0.7913
15146SOL     OW47690  10.371   5.439   3.595  0.2139 -0.1073  0.3770
15146SOL    HW147691  10.295   5.480   3.556  1.1270  1.2838 -0.0069
15146SOL    HW247692  10.446   5.484   3.557  1.2449 -1.2989  0.8844
15147SOL     OW47693   9.569   2.120   2.666 -0.0628 -0.0026 -0.4461
15147SOL    HW147694   9.629   2.048   2.682  0.6925  0.6661 -0.2385
15147SOL    HW247695   9.512   2.088   2.596 -0.5344 -1.2573  0.4722
15148SOL     OW47696  10.110   4.941   9.745 -0.1810 -0.5216 -0.2103
15148SOL    HW147697  10.191   4.966   9.788  0.1194  0.4236 -1.2944
15148SOL    HW247698  10.137   4.895   9.666 -0.7197 -1.3884  0.0932
15149SOL     OW47699   9.801   7.236   7.464 -0.6074 -0.0006 -0.6986
15149SOL    HW147700   9.814   7.249   7.558  2.6485 -0.3650 -0.9880
15149SOL    HW247701   9.836   7.315   7.423 -0.5565 -0.4944 -1.6401
15150SOL     OW47702   6.253   8.323   7.735 -0.3776 -0.3011 -0.1512
15150SOL    HW147703   6.171   8.372   7.747  0.6191  1.7920 -1.3609
15150SOL    HW247704   6.246   8.286   7.648 -0.2277 -0.5078 -0.0739
15151SOL     OW47705   7.792   6.033   7.306 -0.0382  0.3002  0.0660
15151SOL    HW147706   7.829   6.041   7.394  0.2443 -0.5597  0.0318
15151SOL    HW247707   7.830   5.953   7.271  0.8793  1.3055 -1.3545
15152SOL     OW47708   3.167   3.793   0.929 -0.4890  0.4847  0.3221
15152SOL    HW147709   3.111   3.726   0.969  0.4908 -0.7780 -0.3347
15152SOL    HW247710   3.169   3.772   0.836  0.9857  0.5322  0.3084
15153SOL     OW47711   4.353  10.251   8.960 -0.0631 -0.0130 -0.2240
15153SOL    HW147712   4.306  10.197   8.896  0.1028 -0.8826  0.3525
15153SOL    HW247713   4.444  10.220   8.956 -0.2194 -0.7467  1.0457
15154SOL     OW47714   3.075  10.247   0.228  0.5881  0.6851  0.2813
15154SOL    HW147715   3.060  10.274   0.138  1.6652  2.1266  0.5181
15154SOL    HW247716   3.170  10.249   0.239  0.4430  1.0644  1.6096
15155SOL     OW47717   2.887   2.249   1.483  0.1065  0.4009  0.0253
15155SOL    HW147718   2.966   2.195   1.482 -0.8969 -1.1389 -0.9015
15155SOL    HW247719   2.916   2.335   1.455  1.5418  0.0067  0.2244
15156SOL     OW47720  10.233   6.483   8.152 -0.0032  0.5919  0.7576
15156SOL    HW147721  10.159   6.450   8.102 -0.4195  0.9812  1.1111
15156SOL    HW247722  10.214   6.459   8.243  0.0980  1.0527  0.9050
15157SOL     OW47723   3.989   6.445   6.823  0.6994  0.5595  0.8080
15157SOL    HW147724   3.956   6.535   6.816 -0.0538  0.2375  0.0321
15157SOL    HW247725   3.939   6.396   6.757 -0.2889 -0.8351  2.5171
15158SOL     OW47726   0.136   8.868   1.331 -0.3013 -0.0181 -0.2534
15158SOL    HW147727   0.174   8.785   1.304 -0.5956  0.3565 -1.8970
15158SOL    HW247728   0.207   8.913   1.377 -0.0327 -1.0045  0.3107
15159SOL     OW47729   9.754   5.611   3.507 -0.2016  0.1232 -0.2356
15159SOL    HW147730   9.733   5.694   3.549  0.3418  0.5007 -0.6877
15159SOL    HW247731   9.831   5.631   3.453 -0.9352 -0.3042 -1.4853
15160SOL     OW47732   8.613   0.206  10.036  0.1754 -0.1960 -0.1945
15160SOL    HW147733   8.560   0.270  10.084 -0.7466 -0.7723 -0.4193
15160SOL    HW247734   8.642   0.253   9.957 -1.0703 -0.2526 -0.7069
15161SOL     OW47735   1.534   6.531   7.349 -0.6451 -0.0349  0.0295
15161SOL    HW147736   1.512   6.560   7.260  0.5569  0.2388 -0.2014
15161SOL    HW247737   1.526   6.610   7.402 -1.8292 -0.2979  0.2781
15162SOL     OW47738   6.732   0.021   0.072 -0.5595  0.3747 -0.8448
15162SOL    HW147739   6.769   0.012  -0.016  0.1064  0.2252 -0.5478
15162SOL    HW247740   6.740   0.114   0.092 -1.8526  0.6471 -1.4302
15163SOL     OW47741   0.632   2.275   9.990  0.2879 -0.2612 -0.3793
15163SOL    HW147742   0.571   2.248  10.059  2.0127 -1.5011  0.7281
15163SOL    HW247743   0.621   2.369   9.984 -3.1387 -0.5927 -1.6370
15164SOL     OW47744   6.163   8.312   9.089  0.5082  0.4427  0.0561
15164SOL    HW147745   6.258   8.316   9.097  0.5250 -1.7044  1.8697
15164SOL    HW247746   6.145   8.223   9.057 -0.7946  2.1030 -4.6441
15165SOL     OW47747   9.525   0.297   5.996 -0.6455 -0.4925 -0.3086
15165SOL    HW147748   9.580   0.365   5.959  1.7914 -2.4457 -0.5229
15165SOL    HW247749   9.559   0.284   6.085 -0.4423 -1.9916 -0.5761
15166SOL     OW47750   7.554  10.268   9.823  0.2635 -0.3130  0.1199
15166SOL    HW147751   7.609  10.294   9.750  0.2630 -1.2017 -0.2079
15166SOL    HW247752   7.612  10.271   9.900  0.3092  0.4462  0.0586
15167SOL     OW47753   0.393   7.464   8.100  0.1187  0.7247 -0.2665
15167SOL    HW147754   0.346   7.381   8.093 -1.5094  1.7027 -1.7697
15167SOL    HW247755   0.423   7.468   8.191  1.0400 -1.8902 -0.3803
15168SOL     OW47756   2.487   4.187   3.668  0.0294  0.1024  0.8119
15168SOL    HW147757   2.508   4.094   3.672 -0.3720  0.0441  2.2214
15168SOL    HW247758   2.408   4.196   3.722 -0.4813  1.1198 -0.0713
15169SOL     OW47759   2.978   9.957   5.590 -0.2721  0.7631  0.0621
15169SOL    HW147760   3.048   9.893   5.584 -1.1104 -0.0881 -0.9422
15169SOL    HW247761   3.014  10.027   5.644  1.4453  0.4750 -0.6521
15170SOL     OW47762  10.416   8.558   0.171 -0.5641 -0.0542  0.2855
15170SOL    HW147763  10.414   8.589   0.080 -0.5169 -1.3955 -0.1972
15170SOL    HW247764  10.326   8.530   0.189 -0.9409  1.5907  1.1903
15171SOL     OW47765   7.965   8.204   0.297  0.0626 -0.5293 -0.5155
15171SOL    HW147766   8.019   8.140   0.343  0.3620 -0.5393 -0.8800
15171SOL    HW247767   8.014   8.286   0.303  0.0258 -0.4952 -0.6809
15172SOL     OW47768   1.240   4.279   0.319  0.1849 -0.2437  0.3728
15172SOL    HW147769   1.225   4.255   0.227  1.5420 -2.0725  0.5853
15172SOL    HW247770   1.298   4.355   0.315 -1.2585  0.8655 -0.2779
15173SOL     OW47771  10.439   4.380  10.375 -0.4851 -0.3662  0.0448
15173SOL    HW147772  10.494   4.313  10.413  0.4413  0.7184  0.6638
15173SOL    HW247773  10.472   4.463  10.410 -1.4508  0.4485 -0.8569
15174SOL     OW47774   2.142   7.869   3.465  0.4844  0.7767 -0.8267
15174SOL    HW147775   2.127   7.958   3.498  0.4995  1.0308 -1.4841
15174SOL    HW247776   2.084   7.862   3.390  0.8390  0.3977 -1.0679
15175SOL     OW47777   0.631  10.445   5.602 -0.0103 -0.1254 -0.4895
15175SOL    HW147778   0.612  10.374   5.541  0.3801  0.2051 -0.9963
15175SOL    HW247779   0.547  10.489   5.615 -0.3001 -0.8066 -0.0014
15176SOL     OW47780   3.735  10.479   7.739  0.4009 -0.5051 -0.2372
15176SOL    HW147781   3.785  10.541   7.794  0.1946 -0.0284 -0.5827
15176SOL    HW247782   3.687  10.535   7.678 -0.5642 -0.9600  0.0863
15177SOL     OW47783   8.468   8.609   5.778  0.1227  0.0889 -0.0657
15177SOL    HW147784   8.481   8.548   5.851  1.6025  0.3006 -0.1217
15177SOL    HW247785   8.515   8.569   5.705  1.7756  1.6270  0.0989
15178SOL     OW47786   0.514   9.759   9.598 -0.2975 -0.4178 -0.3241
15178SOL    HW147787   0.477   9.683   9.643  0.0884 -0.9682 -0.9169
15178SOL    HW247788   0.609   9.743   9.598 -0.2353 -0.0791 -0.6969
15179SOL     OW47789   7.682   5.743   2.310  0.0272 -0.5932  0.0185
15179SOL    HW147790   7.659   5.689   2.234 -1.1543 -2.3597  1.5202
15179SOL    HW247791   7.747   5.691   2.357 -0.4766 -0.3136  1.0526
15180SOL     OW47792   0.521   7.674   9.514 -0.5212 -0.0954 -0.2995
15180SOL    HW147793   0.548   7.589   9.549  0.6823  0.5128  0.3249
15180SOL    HW247794   0.436   7.658   9.475 -0.7106 -1.3995  0.5856
15181SOL     OW47795   7.043  10.117   1.139 -0.0952 -0.0185  0.3778
15181SOL    HW147796   7.026  10.035   1.184  0.8594 -0.2465  0.3414
15181SOL    HW247797   7.076  10.176   1.207  2.4528 -0.7067 -0.1341
15182SOL     OW47798   5.666  10.078   0.876 -0.4349 -0.2186  0.2206
15182SOL    HW147799   5.746  10.114   0.913 -0.4724  0.2564 -0.1538
15182SOL    HW247800   5.596  10.113   0.931 -0.3956 -0.6022  0.5236
15183SOL     OW47801  10.199   2.435   6.922 -1.0490  0.1055  0.1209
15183SOL    HW147802  10.272   2.436   6.984 -2.0165 -0.5931  1.3290
15183SOL    HW247803  10.163   2.524   6.924  0.2251  0.6836 -1.0964
15184SOL     OW47804   9.866   6.108   1.808 -0.0216 -0.2231 -0.2264
15184SOL    HW147805   9.928   6.092   1.879  0.6349 -3.0047 -1.2879
15184SOL    HW247806   9.825   6.023   1.792 -1.7996  0.8202 -1.7063
15185SOL     OW47807   8.010   8.904   0.036  0.1392 -0.6606 -0.0542
15185SOL    HW147808   7.928   8.946   0.061 -0.2632 -1.2420 -0.3813
15185SOL    HW247809   8.078   8.961   0.071 -0.4092 -0.6644  1.0325
15186SOL     OW47810   9.306   1.674   6.699  0.2009  0.2185 -0.4722
15186SOL    HW147811   9.320   1.739   6.768  2.6996 -0.7744  0.0590
15186SOL    HW247812   9.299   1.725   6.619 -1.9495  1.3460  0.3522
15187SOL     OW47813   6.177   6.065   6.375 -0.1317 -0.6367 -0.1485
15187SOL    HW147814   6.145   6.092   6.289 -1.5244  0.2055  0.5981
15187SOL    HW247815   6.221   6.142   6.410  0.0454 -0.8332  0.0621
15188SOL     OW47816   3.130  10.436   9.107 -0.0195  0.0917 -0.1078
15188SOL    HW147817   3.205  10.442   9.048  0.6244 -0.5959  0.6187
15188SOL    HW247818   3.078  10.514   9.087  0.8232  0.5192 -0.7121
15189SOL     OW47819   4.413   0.287  10.004  0.0800  0.3990 -0.0901
15189SOL    HW147820   4.487   0.248  10.050  0.0123 -1.5345 -1.4635
15189SOL    HW247821   4.448   0.311   9.918 -0.5955  0.5146 -0.3464
15190SOL     OW47822   4.474   6.873   2.990  0.2431  0.7550  0.3845
15190SOL    HW147823   4.473   6.947   2.929  0.6552 -0.1673 -0.7966
15190SOL    HW247824   4.405   6.815   2.959  1.2210 -0.2782  0.0415
15191SOL     OW47825   4.242   7.416   3.727  0.6979 -0.1292  0.4590
15191SOL    HW147826   4.261   7.500   3.685  2.4068  0.1575  1.7007
15191SOL    HW247827   4.304   7.355   3.687 -0.6690 -0.8761 -0.5804
15192SOL     OW47828   6.172   1.450   5.983  0.2300  0.0583  0.5879
15192SOL    HW147829   6.154   1.361   5.950 -2.3986  0.6521  0.1850
15192SOL    HW247830   6.097   1.470   6.039 -0.8387  3.0909 -1.6458
15193SOL     OW47831   3.700   0.605   4.965 -0.0171 -0.4379 -0.7265
15193SOL    HW147832   3.650   0.680   4.999  0.9847  0.0758 -0.3241
15193SOL    HW247833   3.698   0.541   5.036 -0.4099 -0.5665 -0.8533
15194SOL     OW47834   3.060   7.891   2.158 -0.1282 -0.1185 -0.3634
15194SOL    HW147835   2.966   7.895   2.138  0.0880  1.6815 -1.2290
15194SOL    HW247836   3.078   7.798   2.168 -1.8675 -0.5588 -0.9044
15195SOL     OW47837   2.042   3.337   5.156 -0.1179  0.2312  0.1101
15195SOL    HW147838   2.016   3.422   5.119  0.5265  0.5448  0.3644
15195SOL    HW247839   2.078   3.358   5.242 -0.1604 -0.3300  0.2674
15196SOL     OW47840   1.979   4.826   9.624 -0.1005 -0.4256  0.4420
15196SOL    HW147841   1.908   4.848   9.564  0.4069  0.9324  0.3055
15196SOL    HW247842   1.983   4.730   9.623 -1.3512 -0.4844 -0.2073
15197SOL     OW47843   1.984   7.701   1.317  0.1774 -0.1499  0.2137
15197SOL    HW147844   2.051   7.669   1.258 -0.7334  0.5229 -1.2619
15197SOL    HW247845   1.943   7.774   1.269  0.4100  1.4505  2.3043
15198SOL     OW47846   3.674   1.241   8.537  0.0227 -0.6222 -0.7025
15198SOL    HW147847   3.693   1.327   8.575 -0.2704 -0.5780 -0.6479
15198SOL    HW247848   3.691   1.179   8.607 -0.2803 -0.5612 -0.5721
15199SOL     OW47849   0.660   4.784   0.353 -0.0541  0.7317  0.1437
15199SOL    HW147850   0.570   4.817   0.353 -0.4045 -0.1200  1.8423
15199SOL    HW247851   0.700   4.823   0.431  1.1144  1.2280 -0.6872
15200SOL     OW47852   8.143   4.116   9.586  0.0904 -0.2801  0.1261
15200SOL    HW147853   8.166   4.049   9.651  1.2912 -0.3503 -0.3374
15200SOL    HW247854   8.080   4.172   9.630 -0.7022 -1.5309  0.6383
15201SOL     OW47855   9.251   3.566   7.762  0.2514  0.5175 -0.6274
15201SOL    HW147856   9.226   3.646   7.717  0.2107  0.6694 -0.3349
15201SOL    HW247857   9.222   3.578   7.852  1.3707  0.7059 -0.2718
15202SOL     OW47858   3.770   8.592   1.897  0.0800  0.2616  0.1090
15202SOL    HW147859   3.817   8.578   1.815 -0.2853 -0.1960 -0.0282
15202SOL    HW247860   3.827   8.554   1.964 -0.7300 -1.6504 -0.2172
15203SOL     OW47861   8.253   2.444   6.500  0.3130 -0.3211 -0.4023
15203SOL    HW147862   8.305   2.381   6.450  1.8846 -0.3221  1.1275
15203SOL    HW247863   8.314   2.515   6.519 -0.0623 -0.5359  1.8734
15204SOL     OW47864   2.671   4.698   1.297  0.3637  0.3775  0.0044
15204SOL    HW147865   2.746   4.747   1.332  0.1788  1.7899 -1.4695
15204SOL    HW247866   2.704   4.660   1.215  0.4307 -1.8392  0.9851
15205SOL     OW47867   2.467   3.576   8.851 -0.2610  0.5332  0.3233
15205SOL    HW147868   2.432   3.487   8.851  0.1288  0.3732  1.0003
15205SOL    HW247869   2.560   3.566   8.835 -0.4708  0.9539 -1.3368
15206SOL     OW47870   9.588   2.542   8.202  0.6268 -0.5007  0.3942
15206SOL    HW147871   9.575   2.469   8.263 -0.3770 -0.1305  0.6327
15206SOL    HW247872   9.504   2.588   8.201  1.5258  1.2390  1.0078
15207SOL     OW47873   2.680   2.159   6.634  0.1141 -0.0001 -0.3259
15207SOL    HW147874   2.675   2.193   6.545  0.2409  1.9089  0.3559
15207SOL    HW247875   2.765   2.115   6.638  1.0051  1.6270 -0.5998
15208SOL     OW47876   4.888   7.772   7.599  0.1514 -0.3292  0.0184
15208SOL    HW147877   4.954   7.726   7.547 -1.3026 -1.0250 -1.2853
15208SOL    HW247878   4.837   7.702   7.640 -0.3119  0.1813  0.3291
15209SOL     OW47879   1.683   3.204   3.964  0.8028 -0.2545  0.2412
15209SOL    HW147880   1.759   3.191   3.908 -0.1921  0.9181 -1.4800
15209SOL    HW247881   1.651   3.291   3.942 -1.9951 -1.3285 -0.3707
15210SOL     OW47882   0.043   7.685   6.708 -0.2405 -0.1626  0.8283
15210SOL    HW147883   0.110   7.730   6.658 -0.1810 -2.5625 -1.4290
15210SOL    HW247884  -0.038   7.734   6.690  0.2991  0.7379  0.8208
15211SOL     OW47885   3.653   6.705   6.174 -0.6545  0.7710  0.3421
15211SOL    HW147886   3.621   6.762   6.105  0.9577  0.7828 -0.4380
15211SOL    HW247887   3.614   6.619   6.155  0.9242  0.4035 -1.4904
15212SOL     OW47888   7.643   1.140  10.561 -0.0863  0.1841 -0.2546
15212SOL    HW147889   7.567   1.198  10.566  0.8521  1.3883  0.7282
15212SOL    HW247890   7.665   1.120  10.651  0.3485 -0.7269 -0.5509
15213SOL     OW47891   5.659   2.199   1.871  0.4419  0.4414  0.0995
15213SOL    HW147892   5.683   2.245   1.951 -0.2334 -0.2425  0.7164
15213SOL    HW247893   5.570   2.230   1.852  0.5165  0.4351 -0.2606
15214SOL     OW47894   3.786   3.784   5.710  0.1544 -0.5091 -0.4003
15214SOL    HW147895   3.727   3.710   5.724 -1.1018  0.6436  0.6370
15214SOL    HW247896   3.819   3.806   5.797 -0.3524  0.8415 -0.5379
15215SOL     OW47897   8.569   3.445   0.348 -0.2783  0.5666 -0.2063
15215SOL    HW147898   8.601   3.513   0.288 -1.3952  2.1074  0.8947
15215SOL    HW247899   8.485   3.477   0.379  0.4440  0.0697  2.5525
15216SOL     OW47900   5.603   0.189   4.894 -0.1260  0.5048 -0.8937
15216SOL    HW147901   5.675   0.172   4.833 -1.4590  0.6974 -2.5967
15216SOL    HW247902   5.524   0.167   4.845 -1.2393 -0.1232  1.0674
15217SOL     OW47903   0.366   8.802   9.875  0.7036 -0.0061  0.0534
15217SOL    HW147904   0.353   8.877   9.933 -0.8583 -0.1418 -0.0909
15217SOL    HW247905   0.358   8.726   9.933  1.5183 -0.0860  0.0655
15218SOL     OW47906   4.509   3.854   2.092 -0.0453  0.4743 -0.3731
15218SOL    HW147907   4.512   3.923   2.157  2.7263  1.4069 -1.3293
15218SOL    HW247908   4.579   3.794   2.117  0.6764  0.5361 -2.0538
15219SOL     OW47909   3.780   0.826  10.386  0.7264 -0.3984  0.1082
15219SOL    HW147910   3.723   0.750  10.397 -0.6519  0.7646  1.4744
15219SOL    HW247911   3.800   0.854  10.475  0.5342  1.3223 -0.3652
15220SOL     OW47912   1.907   5.971   0.300  0.5536  0.0974  0.0747
15220SOL    HW147913   1.894   5.880   0.276  0.9463  0.2338 -0.6699
15220SOL    HW247914   1.959   5.967   0.381  0.6762 -0.3354 -0.0235
15221SOL     OW47915   8.818   5.775   5.209  0.4136 -0.2090  0.4476
15221SOL    HW147916   8.887   5.788   5.144  0.1649  0.8550  0.3756
15221SOL    HW247917   8.792   5.863   5.234 -1.2895 -0.5679  0.0722
15222SOL     OW47918   1.199   9.519  10.527 -0.0904 -0.5582  0.2991
15222SOL    HW147919   1.217   9.571  10.449 -0.7144  0.6105  0.9228
15222SOL    HW247920   1.268   9.544  10.588 -0.7899  0.0484  0.8444
15223SOL     OW47921   4.906   8.290   9.708  0.0277  0.0884  0.2333
15223SOL    HW147922   4.901   8.242   9.791  0.7727 -0.5231 -0.0568
15223SOL    HW247923   4.914   8.221   9.642  3.1565  0.5744 -0.0613
15224SOL     OW47924   2.456   1.805   4.185  0.2266 -0.2434 -0.4585
15224SOL    HW147925   2.446   1.808   4.090  1.8582  2.6868 -0.6474
15224SOL    HW247926   2.538   1.759   4.200  2.1158  2.7243 -0.8445
15225SOL     OW47927   8.285  10.142   6.313  0.2157 -0.4877 -0.0403
15225SOL    HW147928   8.299  10.169   6.222 -1.8059  2.5626  0.4129
15225SOL    HW247929   8.216  10.077   6.309 -0.6707  0.4583 -0.6704
15226SOL     OW47930   5.185   6.848   7.141  0.4208  0.2072  0.3969
15226SOL    HW147931   5.118   6.813   7.199 -0.6758  1.1396 -0.2673
15226SOL    HW247932   5.263   6.796   7.160 -0.2731 -0.3830  1.7388
15227SOL     OW47933   2.525   1.992   7.394 -0.3890 -0.1094  0.6930
15227SOL    HW147934   2.584   1.917   7.382  0.7352  1.0763 -1.7742
15227SOL    HW247935   2.464   1.986   7.321 -1.0753  0.7040  1.1911
15228SOL     OW47936   0.183   4.143   9.561  0.3550  0.2735 -0.3403
15228SOL    HW147937   0.182   4.048   9.573 -2.0438  0.0713 -1.4509
15228SOL    HW247938   0.250   4.158   9.494  1.7302 -0.4449  0.8294
15229SOL     OW47939   3.705   1.078   8.309  0.4516 -0.2188  0.5095
15229SOL    HW147940   3.696   1.093   8.403  1.1780 -0.4587  0.6246
15229SOL    HW247941   3.729   1.164   8.273 -0.0445 -0.0792  0.5144
15230SOL     OW47942   1.347   3.006   0.942 -0.1675  0.5616  0.4743
15230SOL    HW147943   1.391   2.930   0.980 -0.5529  0.9130  1.6896
15230SOL    HW247944   1.404   3.035   0.871 -0.6725 -1.6469 -0.8987
15231SOL     OW47945  10.586   9.788   2.461  0.0679 -0.1531  0.4329
15231SOL    HW147946  10.519   9.720   2.467  1.6842 -1.8102  0.9769
15231SOL    HW247947  10.571   9.843   2.538  0.7150 -1.9097  1.8833
15232SOL     OW47948   7.792   5.327   0.799 -0.0505 -0.4479 -0.1689
15232SOL    HW147949   7.833   5.294   0.719  0.1833  0.9553 -0.6676
15232SOL    HW247950   7.713   5.373   0.769 -0.9934 -1.5256  0.6059
15233SOL     OW47951   7.790   0.191   2.561  0.2948 -0.3009 -0.3935
15233SOL    HW147952   7.794   0.278   2.521  0.1926 -0.5444 -0.9414
15233SOL    HW247953   7.778   0.208   2.655  1.4054  0.2925 -0.3366
15234SOL     OW47954   4.148   8.712   8.233 -0.2586  0.0817 -0.4166
15234SOL    HW147955   4.240   8.737   8.226  0.1278 -0.9964  0.4010
15234SOL    HW247956   4.143   8.628   8.185 -0.8429  0.1934 -0.5565
15235SOL     OW47957   1.761   6.902  10.512 -0.3883 -0.0201  0.0075
15235SOL    HW147958   1.789   6.986  10.474  0.0714  0.1103  0.6175
15235SOL    HW247959   1.670   6.892  10.485 -1.1175  1.6859  1.6145
15236SOL     OW47960   3.462   4.939   4.309  0.0455  0.0794 -0.7479
15236SOL    HW147961   3.515   4.949   4.388  0.2057  0.6868 -0.9317
15236SOL    HW247962   3.448   5.028   4.277 -1.4517 -0.0168 -0.4641
15237SOL     OW47963   7.247   2.845   8.299 -0.5616  0.3297 -0.5088
15237SOL    HW147964   7.254   2.938   8.278  1.5885  0.4225  0.3879
15237SOL    HW247965   7.196   2.843   8.380  1.3126  0.9788  0.7585
15238SOL     OW47966   1.786   4.493   2.864  0.3215  0.1117 -0.2453
15238SOL    HW147967   1.776   4.588   2.859  2.3660  0.4015  0.2294
15238SOL    HW247968   1.798   4.475   2.957 -2.0709 -0.9170 -0.0644
15239SOL     OW47969   0.588  10.092   2.653  0.0673  0.0203  0.3466
15239SOL    HW147970   0.494  10.082   2.645  0.1055 -0.3868  0.3703
15239SOL    HW247971   0.623  10.003   2.642  0.5536  0.3688 -1.1437
15240SOL     OW47972   8.191   0.982  10.159  0.0438  0.0221 -0.5023
15240SOL    HW147973   8.186   0.994  10.064 -1.7748 -0.3457 -0.4869
15240SOL    HW247974   8.147   1.059  10.195  0.6612  0.1235  0.0510
15241SOL     OW47975   8.818   0.322   6.497  0.4633 -0.3392  0.4892
15241SOL    HW147976   8.763   0.400   6.497 -1.6197 -1.7101  0.0659
15241SOL    HW247977   8.898   0.348   6.453  1.0668  2.3108  2.8967
15242SOL     OW47978   1.666   8.479   5.535 -0.0894  0.0478 -0.1465
15242SOL    HW147979   1.678   8.560   5.485 -0.8687  0.9001  0.9771
15242SOL    HW247980   1.707   8.496   5.620  1.4447 -1.4677 -0.5388
15243SOL     OW47981   5.540   6.154   8.465  0.5068 -0.0583  0.0661
15243SOL    HW147982   5.563   6.165   8.557  0.6414  0.4958 -0.0343
15243SOL    HW247983   5.539   6.059   8.452 -0.4760 -0.1847  0.8863
15244SOL     OW47984   9.345  10.168   7.080 -0.3763 -0.1487 -0.5540
15244SOL    HW147985   9.340  10.083   7.036 -1.5187 -0.0216 -0.7039
15244SOL    HW247986   9.317  10.231   7.014 -0.0632  0.2893 -0.2756
15245SOL     OW47987  10.496   5.410   4.940  0.0347  0.4728 -0.2946
15245SOL    HW147988  10.438   5.479   4.908  0.2354  0.0148 -1.7336
15245SOL    HW247989  10.575   5.419   4.887 -0.1006 -1.1122 -0.8092
15246SOL     OW47990   3.932   4.438   4.849  0.2225  0.6064  0.2949
15246SOL    HW147991   4.018   4.479   4.857  0.3750  0.5933 -1.0200
15246SOL    HW247992   3.870   4.508   4.868  0.5102  0.9824 -0.1151
15247SOL     OW47993   3.800   9.987   9.505  0.2454 -0.2423  0.7765
15247SOL    HW147994   3.811   9.940   9.587 -0.5449 -0.5236  0.7330
15247SOL    HW247995   3.786  10.078   9.531 -1.1746 -0.5111  1.0371
15248SOL     OW47996   5.137   6.267   1.939 -0.3644 -0.5460  0.4437
15248SOL    HW147997   5.125   6.193   1.999  2.2347 -1.7256 -0.3549
15248SOL    HW247998   5.225   6.257   1.905 -0.4616  2.1117 -0.8962
15249SOL     OW47999   3.316   9.944  10.313 -0.8216 -0.1488 -0.3757
15249SOL    HW148000   3.285   9.874  10.254  1.4082 -0.6764 -1.0181
15249SOL    HW248001   3.339   9.898  10.394  1.0559 -0.2890 -0.9460
15250SOL     OW48002   6.508   5.880   5.448  0.4234  0.0405  0.1052
15250SOL    HW148003   6.451   5.887   5.371 -2.1781 -1.8317  1.7153
15250SOL    HW248004   6.569   5.810   5.425  1.3059  1.1583 -1.1293
15251SOL     OW48005   3.522   8.731   8.674 -0.1799 -0.3633 -0.1346
15251SOL    HW148006   3.470   8.758   8.598  0.8298 -2.1549 -1.5389
15251SOL    HW248007   3.604   8.698   8.636  0.2435 -1.5568  1.7003
15252SOL     OW48008   5.454   7.781   7.955  0.4179 -0.3843  0.1259
15252SOL    HW148009   5.524   7.722   7.929  1.4775 -0.1274  2.1922
15252SOL    HW248010   5.405   7.797   7.874  2.2753 -1.1594 -1.2315
15253SOL     OW48011   5.869   8.238   2.576 -0.0905  0.9788  0.1836
15253SOL    HW148012   5.779   8.264   2.558 -0.4352  0.2724  0.8369
15253SOL    HW248013   5.922   8.297   2.523 -0.8375  2.8963  1.4560
15254SOL     OW48014   9.266   6.040   9.023 -0.1591 -0.4909  0.4529
15254SOL    HW148015   9.248   6.115   8.967  1.3127 -1.9859 -2.2625
15254SOL    HW248016   9.359   6.048   9.045 -0.1470 -1.1666  0.6668
15255SOL     OW48017   1.955   6.034   2.286 -0.5518  0.5252 -0.5680
15255SOL    HW148018   1.898   6.010   2.358 -1.3759  0.4296 -1.2291
15255SOL    HW248019   2.003   6.111   2.318  0.4205 -0.5778  0.7109
15256SOL     OW48020   8.494  10.091   5.321  0.7560  0.4146  0.2154
15256SOL    HW148021   8.514  10.077   5.229 -4.1361  3.7781 -1.8032
15256SOL    HW248022   8.559  10.156   5.350  0.8188  1.3337 -1.8001
15257SOL     OW48023   3.577   9.775   4.837  0.4866  0.3488 -0.2643
15257SOL    HW148024   3.502   9.721   4.860  0.1650  0.4355 -1.0903
15257SOL    HW248025   3.592   9.829   4.915 -0.9831  1.0822 -0.4581
15258SOL     OW48026   9.936   5.264   7.305 -0.5132 -0.0779  0.2101
15258SOL    HW148027   9.998   5.288   7.236 -0.2199  2.3679  1.1891
15258SOL    HW248028   9.850   5.282   7.267 -0.4506 -0.3252 -0.0557
15259SOL     OW48029   6.200   2.584   2.597  0.3279  0.4597  0.3184
15259SOL    HW148030   6.137   2.645   2.559  1.5379  1.6001  0.0228
15259SOL    HW248031   6.187   2.502   2.551 -0.1473  1.0174 -0.5540
15260SOL     OW48032   2.400   0.246   3.381 -0.7598 -0.4813 -0.0911
15260SOL    HW148033   2.318   0.215   3.344 -2.6386  2.4550  1.2398
15260SOL    HW248034   2.392   0.229   3.475 -0.5328  1.1130  0.2468
15261SOL     OW48035  10.352   1.315   6.064 -0.3632 -0.3810  0.7061
15261SOL    HW148036  10.297   1.332   5.988  0.7975  0.7867  0.0808
15261SOL    HW248037  10.376   1.402   6.096  0.9458 -0.8563  1.0788
15262SOL     OW48038   2.481   6.363   9.292 -0.2268  0.3775 -0.2969
15262SOL    HW148039   2.504   6.456   9.294  1.2240  0.0434  1.8583
15262SOL    HW248040   2.389   6.361   9.267 -0.2428  2.3668 -0.5367
15263SOL     OW48041   9.545   1.165   4.187  0.3077  0.0848 -0.4479
15263SOL    HW148042   9.606   1.231   4.219  0.8009 -0.4179 -0.3328
15263SOL    HW248043   9.474   1.164   4.252  1.7543 -1.5969  1.2329
15264SOL     OW48044   2.569   6.724   5.380  0.0707 -0.5635  0.4619
15264SOL    HW148045   2.530   6.794   5.431 -0.0479 -1.2388  1.3199
15264SOL    HW248046   2.644   6.764   5.336  0.2582 -0.0008  1.2785
15265SOL     OW48047   5.690   6.804   3.490 -0.5549  0.3706 -0.0590
15265SOL    HW148048   5.724   6.882   3.446  0.1382 -0.4613 -1.0503
15265SOL    HW248049   5.762   6.775   3.546 -0.7212  0.3044  0.1184
15266SOL     OW48050   3.906   5.740   3.694  0.1200 -0.2657  0.3539
15266SOL    HW148051   3.938   5.672   3.754  0.1884  0.3033  0.9660
15266SOL    HW248052   3.945   5.821   3.725  1.6301 -0.1970 -1.5663
15267SOL     OW48053   6.546   3.735   6.762 -0.4327 -0.7079 -0.7385
15267SOL    HW148054   6.551   3.758   6.669 -2.0342  0.4866 -0.5815
15267SOL    HW248055   6.632   3.701   6.783  0.2396 -0.1932 -2.4584
15268SOL     OW48056   2.321   5.272   3.360  0.3866 -0.2859 -0.0994
15268SOL    HW148057   2.338   5.359   3.324  1.7285 -0.6032 -0.2774
15268SOL    HW248058   2.252   5.286   3.425 -1.0419  0.5403 -1.7150
15269SOL     OW48059   1.054   2.584   1.639  0.1992 -0.5507  0.4824
15269SOL    HW148060   1.053   2.537   1.722  1.1964 -0.8892  0.3212
15269SOL    HW248061   0.965   2.616   1.627  0.1127 -0.2572  1.8158
15270SOL     OW48062   9.697   2.702  10.573 -0.3657 -0.2030 -0.3592
15270SOL    HW148063   9.646   2.700  10.492  0.4579  1.1743 -0.9606
15270SOL    HW248064   9.734   2.791  10.575  0.1259 -0.4201  1.2206
15271SOL     OW48065   9.284   1.944   3.069  0.2118 -0.1061 -0.0892
15271SOL    HW148066   9.309   1.852   3.057 -0.4741 -0.3466  0.2762
15271SOL    HW248067   9.204   1.954   3.018 -1.3802 -0.5105  2.1889
15272SOL     OW48068   6.205   4.860   3.514  0.5460  0.0580  0.1842
15272SOL    HW148069   6.265   4.921   3.473 -0.4050 -0.1396 -1.5866
15272SOL    HW248070   6.202   4.887   3.606  0.0923  2.7203 -0.5537
15273SOL     OW48071   9.427   0.014  10.355 -0.1555  0.4457  0.4997
15273SOL    HW148072   9.415   0.070  10.279 -0.3368  0.9545  0.8994
15273SOL    HW248073   9.517  -0.019  10.346  0.5981  2.1610  1.1372
15274SOL     OW48074   1.629   6.419   3.534 -0.0940  0.1155  0.4529
15274SOL    HW148075   1.587   6.433   3.449 -0.7572 -0.0740  0.7421
15274SOL    HW248076   1.578   6.472   3.595 -0.8997 -1.2834  1.0728
15275SOL     OW48077   3.186   1.188   9.568 -0.1906 -0.5935  0.1543
15275SOL    HW148078   3.107   1.237   9.547 -1.2766 -2.3685 -0.1966
15275SOL    HW248079   3.180   1.172   9.663 -1.5487 -2.6748 -0.1947
15276SOL     OW48080   7.447   0.385   7.657 -0.2277 -0.2738 -0.2282
15276SOL    HW148081   7.499   0.305   7.654 -0.9616 -0.7594 -0.1580
15276SOL    HW248082   7.463   0.428   7.573 -1.2720 -1.4132 -1.0364
15277SOL     OW48083  10.483   6.053   5.219  0.5399 -0.1764 -0.2934
15277SOL    HW148084  10.546   6.097   5.276 -0.5168  2.0895 -0.7321
15277SOL    HW248085  10.495   6.094   5.133 -0.7398 -0.4898 -0.6445
15278SOL     OW48086   2.249   6.123   6.683  1.1291  0.2600  0.2691
15278SOL    HW148087   2.250   6.125   6.587 -2.0969  1.4079  0.1135
15278SOL    HW248088   2.257   6.030   6.705 -0.5243 -0.3396 -1.3179
15279SOL     OW48089   6.866   7.109  10.587  0.0818 -0.4246  0.1326
15279SOL    HW148090   6.907   7.023  10.578  0.6225 -0.2991  1.2491
15279SOL    HW248091   6.939   7.170  10.595 -0.3048 -0.0185  0.6482
15280SOL     OW48092   5.431   4.729   5.886  0.5178 -0.1459 -0.2308
15280SOL    HW148093   5.490   4.718   5.960  0.7597 -0.3429 -0.4482
15280SOL    HW248094   5.382   4.647   5.883 -1.9195  1.1153  1.7808
15281SOL     OW48095   9.407   2.191   4.807  0.3562  0.5240  0.0539
15281SOL    HW148096   9.377   2.122   4.749 -1.8043  1.4888 -0.0840
15281SOL    HW248097   9.339   2.198   4.873  1.0536  1.8010  0.6790
15282SOL     OW48098   5.422   2.948   9.920 -0.3535 -0.3020 -0.1771
15282SOL    HW148099   5.387   2.914   9.837 -1.5791 -1.6383  0.8250
15282SOL    HW248100   5.500   2.895   9.937 -0.4618 -0.4592 -0.1698
15283SOL     OW48101   7.715   7.214   4.819 -0.3492 -0.2787 -0.2090
15283SOL    HW148102   7.683   7.141   4.766 -2.0479 -0.4292  0.9467
15283SOL    HW248103   7.775   7.261   4.761  0.3204 -2.2302 -1.1802
15284SOL     OW48104   8.366   2.251   8.858  0.0505 -0.0091  0.3752
15284SOL    HW148105   8.380   2.167   8.813 -1.7794 -0.7163  1.0388
15284SOL    HW248106   8.280   2.243   8.898 -0.4453  2.4356 -0.0212
15285SOL     OW48107   9.431   3.023   6.841 -0.2126 -0.4465 -0.1972
15285SOL    HW148108   9.434   3.051   6.749  0.6647  0.2176  0.0206
15285SOL    HW248109   9.338   3.020   6.862 -0.3981  0.0639 -0.9075
15286SOL     OW48110   4.276   4.298   0.015 -0.6373  0.3438 -0.5683
15286SOL    HW148111   4.298   4.208  -0.009 -1.7078 -0.1854  0.3433
15286SOL    HW248112   4.281   4.299   0.110 -0.7665  1.2102 -0.5639
15287SOL     OW48113  10.465   2.079   1.387 -0.0054 -0.1295 -0.2074
15287SOL    HW148114  10.483   2.132   1.310  0.0412 -0.7300 -0.6237
15287SOL    HW248115  10.538   2.098   1.446 -0.9361  1.6396  0.4293
15288SOL     OW48116   4.069   7.096   0.453  0.4117  0.7686  0.5298
15288SOL    HW148117   4.036   7.025   0.508  0.7199 -0.6826 -1.0968
15288SOL    HW248118   4.067   7.062   0.364  1.2700  2.5419 -0.2312
15289SOL     OW48119  10.012   8.722   1.099 -0.5502  0.1367  0.6237
15289SOL    HW148120   9.961   8.799   1.077 -0.8597  0.1468  1.3502
15289SOL    HW248121   9.955   8.648   1.079  0.5711 -0.0720 -2.3605
15290SOL     OW48122   6.788   8.490   6.359  0.1056 -0.2594 -0.3436
15290SOL    HW148123   6.736   8.463   6.435  1.5266 -0.0875  0.7372
15290SOL    HW248124   6.797   8.411   6.307  1.2329 -1.0344  0.9754
15291SOL     OW48125   0.025   5.087   1.230  0.4307 -0.7571 -0.1657
15291SOL    HW148126  -0.005   5.024   1.165  0.6877  0.4903 -1.5430
15291SOL    HW248127  -0.055   5.113   1.276  0.1735 -1.2854 -0.3057
15292SOL     OW48128   5.671   3.908   2.607  0.4052  0.3184 -0.5664
15292SOL    HW148129   5.641   3.944   2.524 -1.4236 -1.8823 -0.9635
15292SOL    HW248130   5.596   3.858   2.639  1.8881 -0.8535  1.2231
15293SOL     OW48131   4.913   6.870   2.562  0.1020 -0.5514 -0.1892
15293SOL    HW148132   4.835   6.818   2.546  1.0388 -1.6663 -1.4472
15293SOL    HW248133   4.967   6.856   2.484  1.5080  0.2525  0.5964
15294SOL     OW48134   5.607   9.871   8.919  0.1120 -0.1556 -0.1798
15294SOL    HW148135   5.687   9.833   8.956 -0.4686 -0.3385  0.9226
15294SOL    HW248136   5.638   9.934   8.854  1.2374  1.5999  1.9443
15295SOL     OW48137   1.270   0.046   7.770  0.2589  0.0190 -0.1186
15295SOL    HW148138   1.254   0.114   7.704 -1.1079 -1.0368 -0.9148
15295SOL    HW248139   1.275   0.094   7.853  1.2875  1.2897 -0.8622
15296SOL     OW48140   2.559   8.228   0.699  0.1037  0.7816 -0.3810
15296SOL    HW148141   2.568   8.275   0.782 -1.8468 -0.7067  0.7613
15296SOL    HW248142   2.644   8.187   0.686  0.5806  1.3827  0.6712
15297SOL     OW48143   4.969   7.017   8.651 -0.5124 -0.2249  0.8481
15297SOL    HW148144   4.966   6.930   8.613 -2.0433 -0.9328  2.4143
15297SOL    HW248145   5.048   7.057   8.616  1.2313 -2.9000  1.4826
15298SOL     OW48146   0.532  10.404   1.812 -0.0397 -0.0151 -0.3785
15298SOL    HW148147   0.439  10.401   1.832 -0.1023 -1.0739 -0.7656
15298SOL    HW248148   0.536  10.413   1.717  0.2300 -1.2462 -0.5068
15299SOL     OW48149   4.975  10.001   3.871 -0.0773 -0.3581  0.0591
15299SOL    HW148150   4.996  10.069   3.808  0.2796 -0.1852  0.3600
15299SOL    HW248151   4.893  10.030   3.912 -0.0147 -0.1965  0.0674
15300SOL     OW48152   6.273   1.703  10.458 -0.8905  0.4386 -0.5000
15300SOL    HW148153   6.312   1.632  10.407 -2.2144  0.2852 -1.3486
15300SOL    HW248154   6.282   1.674  10.549  1.3400  0.6353 -0.6130
15301SOL     OW48155   1.022  10.315   7.166 -0.2250  0.1826 -0.0971
15301SOL    HW148156   0.938  10.305   7.210  0.0370 -1.9190  0.0559
15301SOL    HW248157   1.000  10.340   7.076 -1.0564 -0.6569 -0.1455
15302SOL     OW48158   7.767   8.648   4.285 -0.1089 -0.3857  0.0780
15302SOL    HW148159   7.861   8.642   4.269 -0.0100  2.1516 -0.6638
15302SOL    HW248160   7.728   8.644   4.197 -0.5739  0.2704  0.2545
15303SOL     OW48161   2.745  10.363   1.398 -0.3283  1.0570  0.4463
15303SOL    HW148162   2.761  10.319   1.482 -0.0616  0.7875  0.2523
15303SOL    HW248163   2.771  10.454   1.414  1.1351  0.7039  0.2295
15304SOL     OW48164   4.152   3.973  10.049 -0.2546  0.6108  0.5940
15304SOL    HW148165   4.149   3.935  10.137 -0.5049  1.8371  1.1271
15304SOL    HW248166   4.147   4.067  10.063 -1.6946  0.7812 -0.8044
15305SOL     OW48167   4.545   7.457   0.428 -0.4231  0.1707 -0.0864
15305SOL    HW148168   4.465   7.430   0.383 -0.3791 -0.5360  0.2421
15305SOL    HW248169   4.516   7.481   0.516 -0.1355 -1.2474  0.4277
15306SOL     OW48170   8.357   3.330   3.344  0.1631  0.2187  0.7249
15306SOL    HW148171   8.399   3.304   3.262 -2.2659  0.7818 -0.7921
15306SOL    HW248172   8.266   3.349   3.320 -0.3993  1.3792  3.3804
15307SOL     OW48173   4.397   3.914   0.369  0.1857 -0.2023  0.0406
15307SOL    HW148174   4.473   3.958   0.331 -0.6853  0.9216 -0.4739
15307SOL    HW248175   4.434   3.842   0.420  1.5585  0.0067 -0.6041
15308SOL     OW48176   3.038   9.244   7.667  0.0475 -0.1835 -0.5728
15308SOL    HW148177   3.109   9.307   7.678  0.0938  0.2199 -2.8041
15308SOL    HW248178   3.080   9.158   7.672  0.5011  0.0258 -0.8036
15309SOL     OW48179   2.500   6.252   6.276 -0.0176 -0.5666 -0.2766
15309SOL    HW148180   2.566   6.212   6.332 -1.3647 -2.0233  0.3582
15309SOL    HW248181   2.541   6.258   6.190  1.2955 -0.3990  0.3406
15310SOL     OW48182   3.724   8.298   3.958 -0.5389  0.0427  0.2090
15310SOL    HW148183   3.664   8.231   3.925  0.9357  0.1547 -3.1925
15310SOL    HW248184   3.675   8.380   3.950 -1.1412 -0.2318  0.9836
15311SOL     OW48185   9.911   0.396   4.068  0.0771  0.3597  0.5610
15311SOL    HW148186   9.923   0.378   4.161  0.3649 -1.1108  0.2637
15311SOL    HW248187   9.965   0.331   4.024 -0.6779  0.5247 -0.6464
15312SOL     OW48188   2.621  10.023   7.696 -0.5693 -0.1386  0.0672
15312SOL    HW148189   2.691  10.072   7.739  0.1187 -0.4868 -0.6284
15312SOL    HW248190   2.545  10.036   7.752  0.1299 -0.0254  1.0148
15313SOL     OW48191   3.734   1.054   6.095 -0.7443 -0.0006  0.0899
15313SOL    HW148192   3.677   1.028   6.167 -2.3926 -1.2416 -1.5893
15313SOL    HW248193   3.764   0.972   6.056  2.6841  0.5658  1.1534
15314SOL     OW48194   5.574   0.608   4.591 -0.1437  0.6169  0.0718
15314SOL    HW148195   5.636   0.596   4.519 -0.3568  0.5354 -0.0992
15314SOL    HW248196   5.607   0.553   4.662  1.5000  2.6369  0.9577
15315SOL     OW48197   1.667  10.594   4.159 -0.0027  0.2680 -0.2609
15315SOL    HW148198   1.590  10.538   4.169 -0.0611  0.7519  2.9701
15315SOL    HW248199   1.634  10.673   4.117 -0.8388 -0.2672 -0.6388
15316SOL     OW48200   9.211   1.476  10.625  0.2145  0.3832  0.2360
15316SOL    HW148201   9.124   1.443  10.648  1.5361 -1.9389  2.4340
15316SOL    HW248202   9.212   1.566  10.658 -0.9457  0.0325  1.3374
15317SOL     OW48203   2.129   6.344   7.685  0.9054 -0.3531  0.0956
15317SOL    HW148204   2.175   6.334   7.768  1.8387 -0.0727 -0.3626
15317SOL    HW248205   2.058   6.405   7.704  0.3283 -1.2830  0.9657
15318SOL     OW48206   3.855   4.348   5.664  0.2741 -0.3212  0.3986
15318SOL    HW148207   3.782   4.297   5.629  0.3847  0.6843 -1.4312
15318SOL    HW248208   3.813   4.410   5.724  0.0927 -2.1523  2.2575
15319SOL     OW48209   8.309   8.332   5.305  0.1612 -0.0175  0.2983
15319SOL    HW148210   8.250   8.407   5.298  0.3966  0.2201  0.8103
15319SOL    HW248211   8.338   8.316   5.215 -0.3876  0.0982  0.0979
15320SOL     OW48212   1.758   0.827   5.511  0.0012  0.0552  0.0266
15320SOL    HW148213   1.713   0.890   5.456  0.0722 -0.9061 -1.1657
15320SOL    HW248214   1.850   0.853   5.508  0.1388 -0.5280 -1.0664
15321SOL     OW48215   5.939   9.514   3.420 -0.2970  0.1193  0.0690
15321SOL    HW148216   5.932   9.509   3.515 -0.2445 -0.2780  0.0541
15321SOL    HW248217   5.882   9.587   3.395  1.9752  2.2356  0.6636
15322SOL     OW48218   9.195   7.634   2.948  0.2374  0.2076  0.1940
15322SOL    HW148219   9.290   7.643   2.955  0.1431  1.2126  0.3017
15322SOL    HW248220   9.165   7.622   3.038  0.1855  0.7636  0.2538
15323SOL     OW48221  10.508   6.561   8.639 -0.2598  0.6710 -0.2524
15323SOL    HW148222  10.549   6.647   8.625 -0.0478  0.4607 -0.9822
15323SOL    HW248223  10.490   6.529   8.550 -1.5436  0.5308  0.0430
15324SOL     OW48224   8.964   9.695   3.586 -0.4481 -0.4602 -0.5780
15324SOL    HW148225   8.888   9.751   3.602 -0.5997 -1.1359  1.4444
15324SOL    HW248226   9.030   9.727   3.648 -1.1119 -3.4525  1.9146
15325SOL     OW48227   0.413  10.104   1.835 -0.1017 -0.5746 -0.1565
15325SOL    HW148228   0.329  10.059   1.846 -0.7869  0.4725 -0.9234
15325SOL    HW248229   0.394  10.196   1.855  1.3249 -0.6098  1.6491
15326SOL     OW48230   3.724   8.260   6.732 -0.5701  0.1297  0.0921
15326SOL    HW148231   3.675   8.338   6.760  0.8541  0.3315  2.2665
15326SOL    HW248232   3.763   8.285   6.648 -2.0095  0.9014 -0.3725
15327SOL     OW48233   8.499  10.559   7.354  0.4963 -0.1960  0.4085
15327SOL    HW148234   8.591  10.582   7.360  1.0976 -2.2638  0.1125
15327SOL    HW248235   8.482  10.504   7.430 -0.5243  0.2056  0.4964
15328SOL     OW48236   0.485   5.370   8.179  0.5236  0.2625 -0.5422
15328SOL    HW148237   0.392   5.394   8.184  0.5968  0.3680  0.3690
15328SOL    HW248238   0.488   5.280   8.210  1.1149  1.2631  2.7316
15329SOL     OW48239   6.008   7.993   8.109 -0.4408  0.4038  0.2123
15329SOL    HW148240   5.962   7.912   8.130 -1.3207 -0.2979 -3.6825
15329SOL    HW248241   6.098   7.978   8.140 -0.6542 -1.9944 -0.1547
15330SOL     OW48242   8.609   9.653   9.070 -0.3139 -0.2625  0.4831
15330SOL    HW148243   8.614   9.676   8.977 -2.3042  0.1257  0.4289
15330SOL    HW248244   8.523   9.613   9.081 -0.5105  0.5648  2.3437
15331SOL     OW48245   6.669   4.960   9.603  0.0414 -0.0763  0.3894
15331SOL    HW148246   6.621   4.913   9.671 -0.3056  0.0662  0.2508
15331SOL    HW248247   6.603   4.975   9.534  0.7814 -1.7439 -0.7541
15332SOL     OW48248   0.631   8.164   0.924  0.3175  0.7766  0.2313
15332SOL    HW148249   0.564   8.219   0.883 -2.3067 -1.0146  1.8345
15332SOL    HW248250   0.655   8.211   1.004 -0.7109  0.4230  0.7691
15333SOL     OW48251   6.401   5.035   3.373  0.2346  0.3247  0.4112
15333SOL    HW148252   6.463   5.059   3.441  1.0868 -0.7208  0.0392
15333SOL    HW248253   6.448   5.050   3.291  0.7526 -2.1964  0.1478
15334SOL     OW48254   4.922   4.113   1.992  0.1797  0.1109  0.0480
15334SOL    HW148255   4.916   4.018   2.003 -0.4038  0.2732  1.2082
15334SOL    HW248256   5.016   4.131   1.991  0.2983 -0.4749 -0.2710
15335SOL     OW48257   9.220   7.746  10.238 -0.1032 -0.5341 -0.5132
15335SOL    HW148258   9.267   7.809  10.292  1.3983 -2.8054  1.0596
15335SOL    HW248259   9.243   7.769  10.149  1.4891  0.3260  0.0822
15336SOL     OW48260   6.614   5.500   7.003  0.1226 -0.3920 -0.1184
15336SOL    HW148261   6.641   5.584   6.967  0.8338  0.4575  2.1786
15336SOL    HW248262   6.694   5.448   7.006 -0.6043 -1.9256 -3.1491
15337SOL     OW48263   3.642   6.002   2.796  0.2793 -0.3977  0.3936
15337SOL    HW148264   3.588   6.068   2.753  1.7583  1.3071  1.0056
15337SOL    HW248265   3.592   5.977   2.874  0.3535  1.1860  0.9839
15338SOL     OW48266   8.510   0.325   2.344 -0.3982 -0.3946 -0.1641
15338SOL    HW148267   8.476   0.243   2.309 -1.2695  0.2577 -0.8651
15338SOL    HW248268   8.458   0.342   2.422 -0.0118 -0.6510  0.1568
15339SOL     OW48269   2.393   0.885   4.006 -0.1661  0.1802  0.1679
15339SOL    HW148270   2.358   0.806   4.046  0.2471  0.1443  0.4689
15339SOL    HW248271   2.472   0.856   3.960 -0.7934  0.1640 -0.9433
15340SOL     OW48272   6.556   1.110   2.916  0.3842  0.1611  0.0561
15340SOL    HW148273   6.470   1.150   2.906  0.6507  1.0411  1.0250
15340SOL    HW248274   6.555   1.075   3.005  1.1291  0.4788  0.1972
15341SOL     OW48275   5.018   2.237   6.657 -0.3279  0.1344  0.0691
15341SOL    HW148276   4.976   2.304   6.603 -0.3996  0.9495  1.1210
15341SOL    HW248277   5.111   2.242   6.632 -0.4933 -0.1118 -0.6148
15342SOL     OW48278   6.296   4.746   0.250  0.1314  0.2041 -0.7559
15342SOL    HW148279   6.290   4.697   0.332 -0.0201 -1.4238 -1.7031
15342SOL    HW248280   6.329   4.832   0.276  0.6404 -0.4639  0.9377
15343SOL     OW48281   1.655   3.544   8.975 -0.4861  0.0683  0.4405
15343SOL    HW148282   1.741   3.525   9.015 -0.1449 -0.1510 -0.3697
15343SOL    HW248283   1.674   3.607   8.906 -0.7631 -0.9324 -0.5898
15344SOL     OW48284   9.775   1.910   8.861 -0.3239  0.4282 -0.3952
15344SOL    HW148285   9.749   1.910   8.953 -0.0455 -0.0890 -0.3123
15344SOL    HW248286   9.738   1.828   8.826 -0.0473  0.4047 -0.6352
15345SOL     OW48287   0.106   4.918  10.099 -0.1228  0.7853 -0.1270
15345SOL    HW148288   0.060   5.001  10.100  0.1639  0.9585  1.8469
15345SOL    HW248289   0.120   4.896  10.191 -1.3844 -2.1106 -0.4985
15346SOL     OW48290   1.864   3.091   1.202  0.3613  0.5437 -0.4323
15346SOL    HW148291   1.954   3.093   1.171  1.0803 -0.5930  1.4877
15346SOL    HW248292   1.855   3.170   1.255  0.5975  0.0484  0.3492
15347SOL     OW48293   3.592   9.503   7.913 -0.2779 -0.3307 -0.1544
15347SOL    HW148294   3.514   9.552   7.941  0.4906  0.3300  0.8856
15347SOL    HW248295   3.661   9.532   7.971  1.3119  0.7379 -2.4232
15348SOL     OW48296   8.753   7.300   4.929 -0.7456  0.6095 -0.4188
15348SOL    HW148297   8.793   7.229   4.978 -2.3326 -0.6882 -0.9369
15348SOL    HW248298   8.769   7.378   4.983 -1.0630 -0.5044  1.3619
15349SOL     OW48299   6.978   3.477   3.725 -0.0178  0.2837 -0.9313
15349SOL    HW148300   7.041   3.518   3.784  0.9489 -0.3916 -1.4788
15349SOL    HW248301   7.008   3.498   3.637 -0.7986  0.3108 -1.2035
15350SOL     OW48302   8.181   1.591   3.167  0.2520  0.1262  0.3679
15350SOL    HW148303   8.170   1.508   3.213  3.6732 -0.0182  1.2174
15350SOL    HW248304   8.168   1.569   3.075  1.2410 -1.4341  0.5611
15351SOL     OW48305   5.420   7.776   7.645 -0.2671  0.3496  0.2234
15351SOL    HW148306   5.442   7.685   7.661 -0.2384 -0.1866 -2.4256
15351SOL    HW248307   5.502   7.817   7.618 -0.7281  0.5039 -1.0402
15352SOL     OW48308   4.128   1.281   8.984 -0.1399  1.0080 -0.1323
15352SOL    HW148309   4.070   1.319   8.918 -1.5508  1.0136  1.0736
15352SOL    HW248310   4.097   1.191   8.994  1.3449  0.3672 -0.8728
15353SOL     OW48311   4.652  10.225   4.319  0.0488 -0.0721 -0.3473
15353SOL    HW148312   4.595  10.173   4.261 -0.3649 -0.2184  0.1812
15353SOL    HW248313   4.599  10.239   4.397  0.2448  0.9714 -0.3957
15354SOL     OW48314   5.098   8.199   7.416 -0.1666 -0.1329  0.3722
15354SOL    HW148315   5.172   8.155   7.459  0.1482 -0.3165 -0.3366
15354SOL    HW248316   5.118   8.292   7.423  1.0434 -0.2115 -1.3321
15355SOL     OW48317   3.623  10.570   0.855  0.5167  0.3598 -0.2182
15355SOL    HW148318   3.590  10.583   0.943 -0.6532 -0.6909 -0.4725
15355SOL    HW248319   3.576  10.493   0.823  2.8341 -0.8947 -0.8072
15356SOL     OW48320   3.933   2.497   8.270 -0.3049  0.0557  0.0246
15356SOL    HW148321   3.943   2.438   8.195 -0.5657  1.3374 -1.0625
15356SOL    HW248322   4.022   2.528   8.288 -0.4334  0.9903 -0.8368
15357SOL     OW48323   4.584   2.292   0.537 -0.0234 -0.4585  0.1771
15357SOL    HW148324   4.589   2.230   0.465  0.7488 -0.1787 -0.0223
15357SOL    HW248325   4.591   2.378   0.495  0.2153 -0.2871  0.5607
15358SOL     OW48326   5.207   6.311   6.222 -0.6723 -0.4746 -0.1809
15358SOL    HW148327   5.271   6.240   6.214 -0.0207  0.1509 -0.7165
15358SOL    HW248328   5.236   6.361   6.299 -0.1275  0.1729 -0.7909
15359SOL     OW48329   0.455   7.945   0.922  0.4699 -0.0263  0.0954
15359SOL    HW148330   0.373   7.987   0.898 -0.4003 -1.8696 -0.3378
15359SOL    HW248331   0.518   8.017   0.927 -0.8065  1.2539 -1.1483
15360SOL     OW48332   0.959   9.649  10.562 -0.0681 -0.1516 -0.3619
15360SOL    HW148333   0.990   9.713  10.497  2.1331 -0.7193  0.0247
15360SOL    HW248334   1.026   9.581  10.561 -1.6835 -1.8087  0.2036
15361SOL     OW48335  10.160   1.016   1.550  0.2907 -0.1175  0.4110
15361SOL    HW148336  10.202   0.933   1.571 -1.3554 -1.2389 -0.4884
15361SOL    HW248337  10.124   1.004   1.462 -4.4942 -0.4924  2.1196
15362SOL     OW48338   9.933   4.121   0.697 -0.4006 -0.7801  0.0399
15362SOL    HW148339   9.903   4.030   0.703 -2.4658 -0.1375  0.3456
15362SOL    HW248340   9.924   4.154   0.787 -3.4023  0.7416 -0.6985
15363SOL     OW48341   3.311   8.451   8.337  0.1309 -0.2405  0.6130
15363SOL    HW148342   3.334   8.367   8.297 -0.8812 -0.5940  0.7289
15363SOL    HW248343   3.367   8.515   8.294 -0.4457 -0.6975 -0.8901
15364SOL     OW48344   7.259   4.870   5.437 -0.2441  0.1769  0.1678
15364SOL    HW148345   7.190   4.926   5.403 -1.1056 -0.1558  1.3118
15364SOL    HW248346   7.297   4.829   5.359 -1.0757  0.6574 -0.5072
15365SOL     OW48347   6.019   0.187   9.003  0.2178  0.3395  0.1395
15365SOL    HW148348   6.096   0.143   9.039  0.8558  2.0478  0.9719
15365SOL    HW248349   6.000   0.257   9.066 -0.3719  1.6509 -1.4398
15366SOL     OW48350   6.241   8.502  10.460  0.1097  0.6751 -0.0418
15366SOL    HW148351   6.235   8.491  10.555 -2.3785  0.0834 -0.1993
15366SOL    HW248352   6.273   8.592  10.449  1.9506  0.2404  1.3105
15367SOL     OW48353   7.490   1.917   6.153 -0.0749  0.6675 -0.5414
15367SOL    HW148354   7.521   1.989   6.098  1.7782 -0.6806 -1.3835
15367SOL    HW248355   7.569   1.869   6.176 -1.0567 -0.0952  1.5096
15368SOL     OW48356   4.155  10.204   8.763 -0.2604  0.6386  0.4480
15368SOL    HW148357   4.163  10.155   8.681  1.8671 -0.3614  1.1837
15368SOL    HW248358   4.165  10.295   8.738 -1.4872  0.5172 -0.6016
15369SOL     OW48359   0.402   5.086   0.692 -0.1540  0.6056  0.1630
15369SOL    HW148360   0.437   5.021   0.631  0.2723  0.3028  0.7192
15369SOL    HW248361   0.307   5.078   0.683 -0.1125 -0.2394  0.3596
15370SOL     OW48362   7.311   9.318   6.266  0.2457 -0.1204  0.4947
15370SOL    HW148363   7.353   9.382   6.323  0.6577  0.6296 -0.6240
15370SOL    HW248364   7.382   9.286   6.210 -0.2615 -0.4071  0.0077
15371SOL     OW48365  10.034   0.202   0.646 -0.4193  0.2811  0.6197
15371SOL    HW148366  10.076   0.117   0.654  0.0998  0.5959  1.2681
15371SOL    HW248367  10.065   0.252   0.721  0.4948  1.5575 -0.5526
15372SOL     OW48368   7.216   3.863   5.799 -0.1000 -0.0397  0.5291
15372SOL    HW148369   7.234   3.813   5.720  1.0210 -0.1064  0.8093
15372SOL    HW248370   7.139   3.821   5.838  0.4183 -1.1198  0.4073
15373SOL     OW48371  10.342   8.658   2.391  0.3181  0.0219  0.9200
15373SOL    HW148372  10.388   8.647   2.307 -1.3190 -0.5173  0.0497
15373SOL    HW248373  10.402   8.622   2.456  0.4166 -2.4164 -0.3908
15374SOL     OW48374   9.802   0.066   3.949  0.0780  0.0944 -0.5126
15374SOL    HW148375   9.880   0.121   3.960 -1.3581  2.5585 -1.8449
15374SOL    HW248376   9.835  -0.015   3.911  2.0282  0.8805 -0.6116
15375SOL     OW48377   6.505   5.552   8.375  0.0849  0.0890  0.4371
15375SOL    HW148378   6.412   5.534   8.361  0.0913 -0.0329  0.5546
15375SOL    HW248379   6.534   5.484   8.435 -0.0355  0.8458  1.3773
15376SOL     OW48380   2.616   6.680   3.690  0.8001  0.2823  0.4243
15376SOL    HW148381   2.669   6.612   3.731  1.1292  0.3675  0.1410
15376SOL    HW248382   2.662   6.702   3.609 -0.1338 -0.2793 -0.2838
15377SOL     OW48383   4.215   3.137   6.408  0.4063 -0.0726 -0.3554
15377SOL    HW148384   4.241   3.152   6.499  2.3251 -1.0308 -0.6849
15377SOL    HW248385   4.131   3.181   6.400  1.2106  1.9778  1.2850
15378SOL     OW48386   4.161   1.814   7.126 -0.4193 -0.4354 -0.3986
15378SOL    HW148387   4.138   1.797   7.217  0.4114 -0.2009 -0.1383
15378SOL    HW248388   4.178   1.728   7.088  0.9982 -0.4243  0.1601
15379SOL     OW48389   4.994   9.890   1.851  0.1423 -0.4691  0.0855
15379SOL    HW148390   4.972   9.810   1.804 -0.3064 -0.3550  0.0972
15379SOL    HW248391   4.986   9.866   1.944  2.9615 -1.2715  0.2305
15380SOL     OW48392   6.188   8.408  10.197 -0.2445  0.0734 -0.2412
15380SOL    HW148393   6.095   8.386  10.189 -0.2089 -1.2337  1.9850
15380SOL    HW248394   6.195   8.452  10.281  1.4738 -2.3104  0.9782
15381SOL     OW48395   1.974   3.846   4.797 -0.2686 -0.1648 -0.0342
15381SOL    HW148396   2.020   3.832   4.715  0.6437  2.0801  0.0307
15381SOL    HW248397   1.883   3.820   4.778 -0.4108  1.6287 -2.2280
15382SOL     OW48398   1.550   4.617   3.668 -0.2146  0.7351 -0.1241
15382SOL    HW148399   1.456   4.599   3.668 -0.3332  1.1858  1.8674
15382SOL    HW248400   1.589   4.540   3.628 -1.1873 -1.1720  2.3654
15383SOL     OW48401   2.232   0.287   3.911  0.2008 -0.4444  0.0972
15383SOL    HW148402   2.298   0.221   3.891  0.9354 -0.0440  1.1050
15383SOL    HW248403   2.272   0.342   3.978 -0.0339  1.5985 -1.3411
15384SOL     OW48404   7.234   1.040   2.717  0.5077 -0.2887 -0.0182
15384SOL    HW148405   7.328   1.059   2.724  0.3730  1.0544 -1.4172
15384SOL    HW248406   7.220   1.022   2.624 -0.4727 -1.4348  0.3255
15385SOL     OW48407   5.862   2.680   3.718  0.1299  0.1408 -0.0349
15385SOL    HW148408   5.832   2.736   3.789  0.1984 -1.4749  1.3077
15385SOL    HW248409   5.871   2.740   3.643 -1.9796  1.4901  0.7163
15386SOL     OW48410  10.491   2.604   0.913 -0.2726 -0.2398  0.2418
15386SOL    HW148411  10.583   2.625   0.898 -0.1394 -0.6283  0.4889
15386SOL    HW248412  10.443   2.684   0.890  0.2899  0.7211  2.2102
15387SOL     OW48413   3.569   6.391   8.454  0.0192  0.0055 -0.1679
15387SOL    HW148414   3.637   6.457   8.468  1.0998 -0.8816 -0.9841
15387SOL    HW248415   3.543   6.364   8.542 -0.5345  1.5821  0.1804
15388SOL     OW48416   9.464  10.477   1.339 -0.0435 -0.0487 -0.1350
15388SOL    HW148417   9.517  10.436   1.271  1.6338  0.2035  0.9683
15388SOL    HW248418   9.524  10.537   1.383 -1.5636  1.1103  0.4324
15389SOL     OW48419   8.466   8.558   6.822  0.3101  0.0834 -0.3230
15389SOL    HW148420   8.483   8.469   6.853 -0.2484 -0.2130 -0.8410
15389SOL    HW248421   8.544   8.607   6.846 -0.0796 -0.1317  1.5210
15390SOL     OW48422   7.893  10.417   6.577  0.3919  0.3639  0.1653
15390SOL    HW148423   7.909  10.490   6.517 -1.7343  1.4996  0.8691
15390SOL    HW248424   7.844  10.353   6.526 -0.4506  0.8429  0.3454
15391SOL     OW48425   9.443   5.278   9.394 -0.1431  0.5040  0.2047
15391SOL    HW148426   9.357   5.310   9.367 -0.0336  0.4278 -0.2331
15391SOL    HW248427   9.473   5.343   9.458 -1.2700 -0.3601  1.7037
15392SOL     OW48428   7.972   0.739   9.590 -0.6687  0.1358 -0.2907
15392SOL    HW148429   8.047   0.766   9.538 -0.5503  0.9155  0.2658
15392SOL    HW248430   7.898   0.745   9.530 -0.4275  0.3148 -0.5730
15393SOL     OW48431   0.045   1.275   5.213 -0.1360  0.0146  0.0586
15393SOL    HW148432   0.090   1.216   5.272 -1.7698  0.6812  2.1305
15393SOL    HW248433   0.080   1.362   5.234 -0.7553  0.2644  0.0958
15394SOL     OW48434   6.771   3.428   4.492  0.2881  0.0439  0.0317
15394SOL    HW148435   6.684   3.395   4.513  0.0739  0.9891  0.7148
15394SOL    HW248436   6.764   3.523   4.501  1.1616  0.2112 -0.7959
15395SOL     OW48437  10.283   1.619   7.255  0.5111  0.4746  0.1223
15395SOL    HW148438  10.238   1.552   7.203  0.0117  1.5989 -0.9527
15395SOL    HW248439  10.373   1.617   7.224  0.7875 -0.4760  0.9290
15396SOL     OW48440   2.329   1.119   8.467  0.0206 -0.2077 -0.3636
15396SOL    HW148441   2.366   1.102   8.554 -0.1877  0.6101 -0.1079
15396SOL    HW248442   2.340   1.213   8.454 -1.5109 -0.0198 -0.4904
15397SOL     OW48443   1.184   3.796   6.372 -0.4162 -0.1843 -0.3394
15397SOL    HW148444   1.223   3.820   6.457 -1.9661 -0.2308  0.4132
15397SOL    HW248445   1.207   3.869   6.315  1.0619 -0.3764 -0.0333
15398SOL     OW48446   4.613   1.267  10.424 -0.5188  0.3681  0.5139
15398SOL    HW148447   4.525   1.273  10.385 -1.3166  0.1321  2.1864
15398SOL    HW248448   4.605   1.198  10.489  1.6067 -1.3581 -0.9176
15399SOL     OW48449   1.307   1.190  10.544  0.0589  0.3962 -0.4577
15399SOL    HW148450   1.396   1.196  10.579 -0.1840 -0.1926  0.2892
15399SOL    HW248451   1.317   1.138  10.464  0.5835  1.5453 -1.1577
15400SOL     OW48452   2.400   8.441   2.665  0.5070  0.1419  0.5673
15400SOL    HW148453   2.418   8.492   2.743  4.1760  1.2860 -0.7999
15400SOL    HW248454   2.352   8.501   2.608 -0.2035  0.0662  1.0746
15401SOL     OW48455   6.635   4.644   6.786 -0.0954 -0.3308  0.0716
15401SOL    HW148456   6.542   4.658   6.766 -0.7473 -0.3850  2.7059
15401SOL    HW248457   6.646   4.549   6.786  0.6166 -0.3155 -2.6499
15402SOL     OW48458   5.701   1.610   0.255 -0.0039 -0.3032  0.8306
15402SOL    HW148459   5.746   1.674   0.310 -1.1449 -0.2205  1.7107
15402SOL    HW248460   5.771   1.560   0.214  0.8869  0.4092  1.4370
15403SOL     OW48461   8.950   4.108   7.268 -0.1772  0.0202  0.2204
15403SOL    HW148462   8.926   4.091   7.177 -0.8379 -0.5311  0.4890
15403SOL    HW248463   8.999   4.030   7.294 -1.0248 -0.3616  0.6949
15404SOL     OW48464   4.697   1.890   4.668  0.5699  0.1336  0.7058
15404SOL    HW148465   4.646   1.971   4.677  1.2418  0.5965  0.4775
15404SOL    HW248466   4.773   1.903   4.726  1.7328  0.5487 -0.8326
15405SOL     OW48467   4.071   3.552   0.679 -0.0675  0.3751 -0.1232
15405SOL    HW148468   4.131   3.488   0.716  1.6974 -0.0757 -3.3502
15405SOL    HW248469   4.020   3.584   0.753  2.3692 -1.1470  2.3752
15406SOL     OW48470   6.193   4.635   7.024  0.3906  0.0895 -0.1538
15406SOL    HW148471   6.127   4.613   6.959  0.3638 -0.4153  0.0452
15406SOL    HW248472   6.164   4.592   7.104  0.0179  1.3255  0.4015
15407SOL     OW48473   7.695   0.398   5.449  0.0254 -0.0524  0.3337
15407SOL    HW148474   7.684   0.473   5.391 -1.7813 -0.7337 -0.2534
15407SOL    HW248475   7.786   0.369   5.434  1.2536  2.7699  1.5682
15408SOL     OW48476  10.211   2.782   7.818  0.4865 -0.3473 -0.0881
15408SOL    HW148477  10.287   2.834   7.845 -0.1804 -0.0070  1.2344
15408SOL    HW248478  10.244   2.727   7.747  1.4996  1.0533 -0.7545
15409SOL     OW48479   4.845   3.897   3.671 -0.8349 -0.0492 -0.6840
15409SOL    HW148480   4.768   3.932   3.716  0.5331 -0.7058  2.3473
15409SOL    HW248481   4.904   3.972   3.662 -0.9499 -0.0043 -1.1304
15410SOL     OW48482   5.351   0.586   8.654  0.1242  0.1803 -0.5336
15410SOL    HW148483   5.380   0.495   8.655 -1.0212 -0.1969 -0.4635
15410SOL    HW248484   5.353   0.611   8.562  0.1854  0.0046 -0.5800
15411SOL     OW48485  10.617   8.164   0.406 -0.5080 -0.2761 -0.1780
15411SOL    HW148486  10.530   8.187   0.372 -1.7762 -0.5776  2.6113
15411SOL    HW248487  10.602   8.087   0.461  1.6948 -0.8185 -0.2282
15412SOL     OW48488   8.987   4.091   1.237 -0.7272  0.2920  0.1804
15412SOL    HW148489   9.018   4.009   1.198 -2.7081  0.1269 -1.2454
15412SOL    HW248490   9.014   4.159   1.175 -1.1395  0.4153  0.1302
15413SOL     OW48491   7.269   2.608   7.014 -0.0496 -0.5285 -0.2850
15413SOL    HW148492   7.254   2.591   6.921  0.5690  0.0714 -0.4951
15413SOL    HW248493   7.322   2.687   7.017  0.2980 -0.7752  0.5671
15414SOL     OW48494   8.592   2.416   2.863 -0.0767  0.7923 -0.2863
15414SOL    HW148495   8.578   2.434   2.770  1.5089  1.8613 -0.3654
15414SOL    HW248496   8.551   2.331   2.877  0.1171  0.3473 -2.1022
15415SOL     OW48497   3.892  10.651   2.892 -0.8100 -0.6104 -0.0842
15415SOL    HW148498   3.902  10.562   2.858 -1.1695 -0.8184  0.3558
15415SOL    HW248499   3.856  10.701   2.819 -1.8899 -1.1275  0.0738
15416SOL     OW48500   6.113   2.574   1.751  0.2060 -0.0860 -0.1680
15416SOL    HW148501   6.065   2.656   1.745  0.8368  0.2058 -1.5495
15416SOL    HW248502   6.127   2.547   1.660  2.3220 -0.3351  0.1851
15417SOL     OW48503   0.194   6.149   1.555  0.2881  0.1564  0.4473
15417SOL    HW148504   0.214   6.104   1.638 -1.7550  0.4126  1.1345
15417SOL    HW248505   0.162   6.079   1.498  0.2750  0.2184  0.3797
15418SOL     OW48506   2.740   1.008   8.791 -0.8569  0.3675 -0.5493
15418SOL    HW148507   2.772   1.008   8.882 -2.9508  1.0458  0.2545
15418SOL    HW248508   2.760   1.096   8.759  1.1323 -0.3041 -1.2685
15419SOL     OW48509   0.778   5.993   9.543 -0.1643 -0.4406 -0.5732
15419SOL    HW148510   0.860   6.022   9.504 -1.1261  0.5159 -1.9983
15419SOL    HW248511   0.752   5.918   9.488 -1.1832  0.4799 -1.3945
15420SOL     OW48512   5.382   1.918   5.671  0.3052 -0.1391  0.7719
15420SOL    HW148513   5.350   1.979   5.605 -0.5286  0.5172  1.7496
15420SOL    HW248514   5.478   1.926   5.667  0.2155  2.1780  1.6896
15421SOL     OW48515   8.056  10.020   6.043 -0.4779  0.1789  0.2518
15421SOL    HW148516   7.989  10.036   6.109  0.6665  0.0556  1.4823
15421SOL    HW248517   8.111  10.099   6.043 -1.3728  0.8798 -1.7386
15422SOL     OW48518   1.624   4.942   2.598 -0.4935 -0.6862 -0.1420
15422SOL    HW148519   1.597   4.855   2.568  2.8028 -1.4135 -1.3438
15422SOL    HW248520   1.612   4.998   2.521 -0.0135 -0.6747 -0.2059
15423SOL     OW48521   7.996   1.962   8.246 -0.4843  0.3109  0.0645
15423SOL    HW148522   7.931   1.900   8.213 -0.7874  0.9679 -0.6047
15423SOL    HW248523   8.080   1.929   8.214 -0.1888 -1.6780  2.6152
15424SOL     OW48524   2.385   0.828   6.434  0.0050 -0.2514 -0.2186
15424SOL    HW148525   2.332   0.806   6.510  0.1618 -1.2476 -0.3780
15424SOL    HW248526   2.473   0.842   6.468 -0.0433 -0.1295 -0.1453
15425SOL     OW48527   5.028   4.663   0.847  0.3729  0.2874  0.3073
15425SOL    HW148528   5.105   4.623   0.807 -0.5302 -0.7339 -0.4602
15425SOL    HW248529   5.058   4.690   0.934  1.5176 -0.3314  0.1303
15426SOL     OW48530   0.037   9.192   1.874 -0.2836  0.4792  0.0731
15426SOL    HW148531   0.084   9.198   1.957 -1.9342  1.3646  0.9817
15426SOL    HW248532   0.069   9.265   1.822  2.1602 -1.1399 -0.9082
15427SOL     OW48533   0.172   2.124   0.429  0.2422 -0.4492  0.5476
15427SOL    HW148534   0.090   2.131   0.380  0.3216  0.6278  0.5458
15427SOL    HW248535   0.224   2.199   0.401  1.5832 -1.5501 -0.0551
15428SOL     OW48536   9.960   6.772   8.274  0.1831 -0.1142 -0.5892
15428SOL    HW148537  10.003   6.850   8.308 -2.7072  0.8455  1.3025
15428SOL    HW248538   9.988   6.702   8.332  0.1635  0.2591 -0.1176
15429SOL     OW48539   4.258   0.223   7.844 -0.5359  0.0649 -0.0765
15429SOL    HW148540   4.321   0.155   7.868  2.7550  2.4770 -1.0630
15429SOL    HW248541   4.245   0.274   7.924 -0.8830 -0.1677  0.0164
15430SOL     OW48542   7.459   0.911   8.279 -0.0116  0.1368 -0.6331
15430SOL    HW148543   7.382   0.961   8.305  0.0357  0.0762 -0.3760
15430SOL    HW248544   7.493   0.957   8.203 -0.0180  0.4469 -0.4490
15431SOL     OW48545  10.517   5.346   1.009  0.2493  0.0360  0.1341
15431SOL    HW148546  10.520   5.250   1.003 -1.8482 -0.0923  0.2879
15431SOL    HW248547  10.506   5.363   1.102  2.0378  0.5216  0.2766
15432SOL     OW48548   6.387   8.595   5.034  0.5380 -0.0913  0.8128
15432SOL    HW148549   6.386   8.511   4.989  1.0294  0.2752  0.1029
15432SOL    HW248550   6.309   8.640   5.003  1.5535  0.6907 -0.7376
15433SOL     OW48551   0.238   1.092   1.383  0.0145 -0.2583  0.1022
15433SOL    HW148552   0.185   1.020   1.348 -0.1810  0.3412 -0.8749
15433SOL    HW248553   0.326   1.056   1.387  0.0901 -0.2993 -1.2476
15434SOL     OW48554   2.048  10.108   5.874  1.0285 -0.7029  0.0456
15434SOL    HW148555   2.098  10.116   5.793  0.8582  1.3656  0.0772
15434SOL    HW248556   2.110  10.130   5.944  0.4772  0.4418  0.2025
15435SOL     OW48557   6.643   8.642   3.172  0.0904  0.1726  0.5200
15435SOL    HW148558   6.675   8.718   3.124 -1.6711  0.7323  0.1395
15435SOL    HW248559   6.624   8.577   3.105 -1.7993  0.7356  0.4528
15436SOL     OW48560   7.908   2.686   4.235 -0.1184  0.0958 -0.6585
15436SOL    HW148561   7.938   2.652   4.151  0.4525 -0.5223 -0.2149
15436SOL    HW248562   7.942   2.624   4.300  1.3677  1.7392  0.2186
15437SOL     OW48563   1.376   5.068   0.934  0.2226 -0.2755  0.0169
15437SOL    HW148564   1.355   5.132   0.865 -2.8623 -2.3097 -1.1483
15437SOL    HW248565   1.319   5.092   1.007  0.2782 -0.6888  0.1981
15438SOL     OW48566   2.455   3.997   6.737  0.1517 -0.0911 -0.2647
15438SOL    HW148567   2.361   3.981   6.727 -0.7319  3.8778 -0.2341
15438SOL    HW248568   2.467   4.010   6.831  0.4651  0.5902 -0.3925
15439SOL     OW48569   4.829   9.805   3.101  0.0046 -0.2338 -0.2961
15439SOL    HW148570   4.869   9.817   3.015  0.0073 -1.5528 -0.5133
15439SOL    HW248571   4.751   9.751   3.083 -1.2219  1.2941  0.2641
15440SOL     OW48572   2.151   2.042   0.664 -0.1142 -0.2148 -0.2447
15440SOL    HW148573   2.069   1.996   0.682  0.6924 -1.8160 -0.4499
15440SOL    HW248574   2.219   1.977   0.683  1.0168  0.3087 -2.1802
15441SOL     OW48575   3.026   4.270   2.640 -0.4887  0.0291  0.4437
15441SOL    HW148576   3.041   4.205   2.571 -1.2435 -0.1300  0.4217
15441SOL    HW248577   3.063   4.231   2.719 -0.0312  0.0116  0.2202
15442SOL     OW48578   2.218   9.558   5.543  0.3053  0.8389 -0.4586
15442SOL    HW148579   2.133   9.602   5.543 -0.0054  0.2457 -0.5084
15442SOL    HW248580   2.281   9.629   5.545 -0.1833  1.2647  1.7794
15443SOL     OW48581   1.439  10.451   4.132 -0.3611 -0.1953 -0.0700
15443SOL    HW148582   1.467  10.374   4.182 -2.9103 -2.0097 -1.1899
15443SOL    HW248583   1.370  10.490   4.186  2.7209  3.1421  1.8291
15444SOL     OW48584   7.951   7.168   8.549 -0.3907 -0.1415 -0.0032
15444SOL    HW148585   7.908   7.180   8.465 -0.3291 -0.0635 -0.0236
15444SOL    HW248586   7.909   7.090   8.587 -1.0960  0.3844  0.3265
15445SOL     OW48587  10.335   3.104   4.996 -0.4816 -0.1830  0.4284
15445SOL    HW148588  10.326   3.158   5.074 -0.8777 -0.6180  0.6929
15445SOL    HW248589  10.298   3.019   5.022 -1.0690 -0.1845 -0.3800
15446SOL     OW48590   3.164   6.166   1.634  0.3188 -0.3503 -0.1916
15446SOL    HW148591   3.183   6.091   1.690  1.3078 -1.0365 -1.3984
15446SOL    HW248592   3.179   6.243   1.690 -0.4648 -1.0315  0.9855
15447SOL     OW48593   9.306   8.186   3.527 -0.2444 -0.0171 -0.8181
15447SOL    HW148594   9.372   8.176   3.596 -0.8498  2.2042  0.1757
15447SOL    HW248595   9.224   8.160   3.569 -0.9294  3.1556  0.0295
15448SOL     OW48596   1.653   1.608  10.086  0.4382 -0.0262 -0.3596
15448SOL    HW148597   1.583   1.631  10.025 -0.1648  0.2354  0.4188
15448SOL    HW248598   1.716   1.679  10.077 -0.5820  1.0613  0.7374
15449SOL     OW48599   3.032   5.350   4.724 -0.5447 -0.0759  0.4661
15449SOL    HW148600   3.089   5.413   4.767  1.6736 -0.0745 -2.2717
15449SOL    HW248601   3.082   5.268   4.725 -0.7679 -0.2620 -1.3464
15450SOL     OW48602   8.004   2.965   3.986 -0.1136 -0.2796 -0.2789
15450SOL    HW148603   7.934   2.907   3.957  0.4896 -0.4498 -1.4569
15450SOL    HW248604   8.082   2.936   3.938  0.8667 -0.3094  1.2361
15451SOL     OW48605   1.864   6.130   5.434  0.1782  0.0840 -0.3804
15451SOL    HW148606   1.895   6.219   5.416  1.6249 -0.4497 -0.6375
15451SOL    HW248607   1.798   6.142   5.503 -0.2222  1.4248 -0.9599
15452SOL     OW48608   7.103   9.321   0.234 -0.3215 -1.2763  0.0542
15452SOL    HW148609   7.173   9.271   0.193  1.1946 -0.1227  1.1322
15452SOL    HW248610   7.110   9.409   0.197 -0.3921 -0.8278  1.0515
15453SOL     OW48611   8.768   4.967   7.146 -0.4529  0.2200  0.0205
15453SOL    HW148612   8.766   4.912   7.224  2.1863  0.4598  0.3518
15453SOL    HW248613   8.707   4.926   7.085 -1.6989 -0.6150  1.7889
15454SOL     OW48614   0.329  10.088   9.132  0.5815 -0.3921  0.2173
15454SOL    HW148615   0.393  10.076   9.062  0.0582 -0.9053 -0.1867
15454SOL    HW248616   0.286  10.003   9.140 -0.6324  0.1540 -0.1044
15455SOL     OW48617   6.261   9.938   4.397  0.4553 -0.5100  0.0248
15455SOL    HW148618   6.224  10.026   4.397  0.2898 -0.5502 -1.3244
15455SOL    HW248619   6.345   9.946   4.442  0.7184  0.4694 -0.6266
15456SOL     OW48620  10.145   8.695   1.361  0.0413  0.1394 -0.2713
15456SOL    HW148621  10.233   8.723   1.337  0.1146  2.0036  1.8615
15456SOL    HW248622  10.097   8.693   1.278  2.1674 -1.5263 -1.5692
15457SOL     OW48623   1.598   8.282   2.396 -0.2862 -0.1237  0.2385
15457SOL    HW148624   1.567   8.353   2.453 -1.8016 -0.9346  0.4983
15457SOL    HW248625   1.534   8.212   2.410  1.2461 -1.6021  0.1027
15458SOL     OW48626   5.458   8.548  10.617 -0.5978  0.5853  0.2084
15458SOL    HW148627   5.502   8.612  10.672 -0.6388 -0.6330  1.7406
15458SOL    HW248628   5.525   8.484  10.595 -0.8472  0.4607 -0.2047
15459SOL     OW48629   9.437   5.417   3.846 -0.1343  0.4224 -0.3440
15459SOL    HW148630   9.374   5.347   3.865  1.0454  0.0325  2.7614
15459SOL    HW248631   9.394   5.470   3.779 -2.1267 -1.8857 -1.0405
15460SOL     OW48632   1.714   8.648   2.366  0.1235  0.4699 -0.1637
15460SOL    HW148633   1.630   8.610   2.392  0.1875  0.4475  0.0139
15460SOL    HW248634   1.752   8.584   2.307 -0.5746  1.0748 -1.3075
15461SOL     OW48635   7.862   0.918   6.774 -0.1239 -0.8375  0.5925
15461SOL    HW148636   7.867   0.944   6.682 -0.3216  1.4643  1.1768
15461SOL    HW248637   7.932   0.853   6.784  3.0442  2.1347 -0.2142
15462SOL     OW48638   7.273   5.222   7.664 -0.3658  0.1042 -0.4876
15462SOL    HW148639   7.335   5.291   7.642  0.0798  0.8956  2.7534
15462SOL    HW248640   7.229   5.254   7.743  0.3146 -3.5282  1.5918
15463SOL     OW48641   7.850   0.746   2.993 -0.2220  0.0869  0.2935
15463SOL    HW148642   7.891   0.767   3.077 -1.3115  1.4336  0.5414
15463SOL    HW248643   7.843   0.831   2.948 -1.0397 -0.3778 -0.5014
15464SOL     OW48644  10.170   5.849   6.995  0.1450 -0.0848 -0.1337
15464SOL    HW148645  10.210   5.763   6.991 -0.2813 -0.2975  0.1247
15464SOL    HW248646  10.209   5.890   7.072 -0.4358 -0.4472  0.3574
15465SOL     OW48647   7.582   8.336   4.536 -0.2545 -0.2319 -0.4406
15465SOL    HW148648   7.575   8.351   4.630  0.0459 -3.1614  0.1446
15465SOL    HW248649   7.518   8.267   4.518 -0.0762  0.0398 -2.3423
15466SOL     OW48650   3.248   1.008   8.967 -0.1476  0.0624 -0.6398
15466SOL    HW148651   3.309   1.019   9.040 -1.1018  0.2292  0.1441
15466SOL    HW248652   3.266   1.082   8.909 -0.7897  1.0885  0.4521
15467SOL     OW48653   6.793   4.387   7.692 -0.1553 -0.0708 -0.3949
15467SOL    HW148654   6.817   4.344   7.774  0.5696 -0.7471 -0.9430
15467SOL    HW248655   6.723   4.332   7.656  1.7140 -1.7227 -1.7872
15468SOL     OW48656   5.082   2.833   3.698  0.0778  0.1765 -0.0034
15468SOL    HW148657   5.007   2.828   3.639 -0.1753  1.0449  0.2272
15468SOL    HW248658   5.158   2.829   3.640 -0.0824 -2.0683 -0.1410
15469SOL     OW48659   5.487   7.178   1.933  0.5955 -0.2589 -0.5898
15469SOL    HW148660   5.536   7.097   1.917  1.7800  0.0740  1.1249
15469SOL    HW248661   5.422   7.153   1.999  1.6058  0.3637  0.6894
15470SOL     OW48662   9.211   0.339   2.763  0.4302  0.6424  0.5948
15470SOL    HW148663   9.238   0.257   2.721  0.5881  0.3289  1.3069
15470SOL    HW248664   9.250   0.407   2.708  1.1019  0.2259  0.5414
15471SOL     OW48665   4.877   2.956   1.409  0.3941 -0.3015 -0.4076
15471SOL    HW148666   4.840   3.011   1.478 -1.6786 -2.6208  0.4562
15471SOL    HW248667   4.802   2.932   1.354  0.8160 -3.6566  0.3029
15472SOL     OW48668   0.341   1.219   6.892 -0.6573 -0.0464  0.3623
15472SOL    HW148669   0.323   1.263   6.809  0.0947 -1.1436 -0.4117
15472SOL    HW248670   0.260   1.174   6.914 -0.9606  0.5084  0.4036
15473SOL     OW48671   8.050   6.276   2.477 -0.6776  0.1461 -0.2813
15473SOL    HW148672   8.075   6.345   2.538 -0.8942  0.2934 -0.3554
15473SOL    HW248673   8.100   6.295   2.398 -1.9623  1.2101 -0.8857
15474SOL     OW48674   4.933   1.502   7.249 -0.1165 -0.9366 -0.0907
15474SOL    HW148675   4.925   1.567   7.179 -0.9413 -0.2555  0.6263
15474SOL    HW248676   5.024   1.511   7.279  0.3056 -1.3652 -1.1776
15475SOL     OW48677   6.117   5.834   5.018  0.0068 -0.4020 -0.6713
15475SOL    HW148678   6.056   5.829   4.945 -0.4252  0.4858 -0.3878
15475SOL    HW248679   6.193   5.782   4.990 -1.0094 -1.8262 -0.8761
15476SOL     OW48680   4.762   7.192   3.997  0.3366  0.3326 -0.0822
15476SOL    HW148681   4.726   7.274   4.030 -1.2076 -0.3309 -0.0428
15476SOL    HW248682   4.752   7.198   3.902  1.7409  0.8609 -0.2127
15477SOL     OW48683   5.490   9.217   7.322 -0.0806  0.6057  0.4694
15477SOL    HW148684   5.433   9.292   7.304 -0.6118  0.6647  2.2283
15477SOL    HW248685   5.578   9.254   7.326 -0.0111  0.6977 -1.1265
15478SOL     OW48686   0.520   5.071   9.175  0.2903 -0.0862 -0.5548
15478SOL    HW148687   0.473   5.073   9.258 -0.0118  0.9654 -0.7287
15478SOL    HW248688   0.597   5.127   9.190  0.5158 -0.3152 -0.8309
15479SOL     OW48689   8.909   4.261   4.193 -0.6915  0.0294  0.1969
15479SOL    HW148690   8.936   4.187   4.248 -0.4759 -0.2891 -0.3253
15479SOL    HW248691   8.986   4.279   4.139 -0.4256  1.2426  0.9593
15480SOL     OW48692   0.625   1.859   2.430 -0.3603  0.0554 -0.2465
15480SOL    HW148693   0.651   1.950   2.442 -0.3997 -0.0474  0.6276
15480SOL    HW248694   0.671   1.811   2.498 -1.1720 -0.4271 -0.0218
15481SOL     OW48695   1.259   3.135   8.824 -0.1861 -0.6405  0.3086
15481SOL    HW148696   1.315   3.094   8.890  0.6941  1.3890  0.9155
15481SOL    HW248697   1.262   3.075   8.749  2.8722 -0.6664  0.2967
15482SOL     OW48698   7.297   9.288   0.058  0.1695  0.0405 -0.7399
15482SOL    HW148699   7.329   9.215   0.004  2.1542 -0.8037  1.4565
15482SOL    HW248700   7.324   9.367   0.010  2.1591 -0.6824 -0.8972
15483SOL     OW48701   2.630   9.854   6.733  0.0736  0.0199  0.1000
15483SOL    HW148702   2.687   9.898   6.797 -2.0560  0.4219  1.8232
15483SOL    HW248703   2.654   9.762   6.738 -0.3433 -0.0151  1.8176
15484SOL     OW48704  10.107   5.262   3.757 -0.2809  0.2708 -0.1203
15484SOL    HW148705  10.195   5.225   3.743 -1.0662 -1.3799 -1.0755
15484SOL    HW248706  10.122   5.341   3.808  1.8361  0.4449 -0.8965
15485SOL     OW48707   7.727   0.771   5.990 -0.3413  0.3500  0.3146
15485SOL    HW148708   7.788   0.845   5.992 -0.5229  0.5074 -0.0928
15485SOL    HW248709   7.642   0.809   6.009 -0.5368  0.3419 -0.5472
15486SOL     OW48710   9.673  10.590  10.238 -0.1094  0.4310 -0.1273
15486SOL    HW148711   9.734  10.632  10.299  1.0512  0.6724 -1.4213
15486SOL    HW248712   9.729  10.540  10.179 -1.3548 -1.7473  0.4239
15487SOL     OW48713   1.777   6.209   9.205 -0.1805 -0.0600  0.5047
15487SOL    HW148714   1.703   6.205   9.266 -0.0769 -1.3975  0.5843
15487SOL    HW248715   1.777   6.299   9.172 -1.3873  0.1615  1.0577
15488SOL     OW48716  10.438   1.049   7.510  0.1436 -0.5797 -0.1108
15488SOL    HW148717  10.461   1.136   7.542 -1.8718 -0.2531  0.6214
15488SOL    HW248718  10.460   0.990   7.582  1.2309 -0.6587 -0.4927
15489SOL     OW48719   0.859   5.157   1.370 -0.7566 -0.0838 -0.1020
15489SOL    HW148720   0.775   5.195   1.394 -0.4582  0.6956 -0.2484
15489SOL    HW248721   0.867   5.079   1.426 -1.2836  0.1885  0.3639
15490SOL     OW48722  10.357   2.107   4.835  0.0165  0.2477  0.3609
15490SOL    HW148723  10.416   2.181   4.820 -0.9515  1.4924  2.2782
15490SOL    HW248724  10.374   2.080   4.925 -1.3889 -0.2441  0.5058
15491SOL     OW48725   9.167   0.992   9.001 -0.0717 -0.5436 -0.1424
15491SOL    HW148726   9.088   1.018   9.047 -0.6805 -2.4664 -0.0321
15491SOL    HW248727   9.165   0.896   9.000  1.7383 -0.6271 -1.0290
15492SOL     OW48728   6.194  10.142   0.780 -0.1230 -0.6784 -0.6441
15492SOL    HW148729   6.114  10.128   0.831 -0.9470 -1.7308 -2.1467
15492SOL    HW248730   6.246  10.063   0.796 -0.2471 -0.8687 -1.1548
15493SOL     OW48731  10.087   5.288   2.801 -0.0303  0.4137  0.0409
15493SOL    HW148732  10.043   5.270   2.718 -0.7448 -1.8262  0.8187
15493SOL    HW248733  10.036   5.239   2.866  1.8303  0.2369  1.4530
15494SOL     OW48734   5.164   1.117   0.423  0.0696 -0.3291 -0.8054
15494SOL    HW148735   5.118   1.186   0.376  0.3339 -0.0558 -0.6657
15494SOL    HW248736   5.105   1.042   0.420 -2.3652  1.1139  2.9680
15495SOL     OW48737   3.219   9.353   0.692  0.0537 -0.2063 -0.0563
15495SOL    HW148738   3.224   9.426   0.631 -1.3850  0.2545  0.3431
15495SOL    HW248739   3.126   9.328   0.692  0.2111 -0.8509  1.1709
15496SOL     OW48740   9.305   2.964   2.366  0.6004 -0.6351  0.2224
15496SOL    HW148741   9.377   3.024   2.385 -0.5352  1.6522 -2.0707
15496SOL    HW248742   9.226   3.015   2.383 -0.4474 -0.5456 -3.8425
15497SOL     OW48743   2.255   2.192   1.327 -0.0161  0.1785 -0.0764
15497SOL    HW148744   2.198   2.144   1.388 -1.0311  0.3856 -0.8415
15497SOL    HW248745   2.263   2.279   1.365  0.9958 -0.2685  0.7857
15498SOL     OW48746   9.952   6.383   4.894  0.5226  0.5489  0.1997
15498SOL    HW148747   9.956   6.346   4.982  1.8892 -1.0916 -0.5051
15498SOL    HW248748  10.038   6.422   4.880  0.6079  0.0755 -0.6919
15499SOL     OW48749   0.854   5.898   7.496 -0.4967 -0.0085 -0.6906
15499SOL    HW148750   0.804   5.819   7.519 -1.0775  0.2142 -1.1540
15499SOL    HW248751   0.857   5.897   7.400 -1.3273  1.0118 -0.7443
15500SOL     OW48752   1.605   1.751   8.534  0.4290 -0.3568 -0.2885
15500SOL    HW148753   1.550   1.753   8.612  0.1440  1.9262 -0.4700
15500SOL    HW248754   1.583   1.831   8.487  2.1311 -0.6127 -1.6415
15501SOL     OW48755   8.081   6.271   5.387  0.1168  0.2488 -0.2329
15501SOL    HW148756   8.092   6.332   5.313 -0.4285 -1.4985 -1.8164
15501SOL    HW248757   8.169   6.263   5.424  0.2053  1.9602  0.0368
15502SOL     OW48758   0.097  10.635   2.019 -0.2658  0.2547  0.0553
15502SOL    HW148759   0.071  10.575   1.948 -1.7989  0.5030  0.3796
15502SOL    HW248760   0.066  10.592   2.099  1.3835  0.0163  0.6087
15503SOL     OW48761   9.668   0.934   5.593 -0.0809 -0.0722 -0.2341
15503SOL    HW148762   9.719   0.960   5.670  0.3634 -0.0290 -0.5415
15503SOL    HW248763   9.585   0.903   5.629 -0.8607  2.2323  0.1266
15504SOL     OW48764   6.822   0.816   8.480  0.5557 -0.2788 -0.0217
15504SOL    HW148765   6.813   0.722   8.489  0.2951 -0.3275 -0.7242
15504SOL    HW248766   6.914   0.834   8.500  1.4233 -1.0815 -2.8196
15505SOL     OW48767  10.250   6.220   6.634  0.0338 -0.4152 -0.0452
15505SOL    HW148768  10.176   6.223   6.574  0.0351 -0.0126 -0.0299
15505SOL    HW248769  10.212   6.196   6.718 -0.2387  0.7871  0.1920
15506SOL     OW48770   3.019  10.325   7.026 -0.4810 -0.6705  0.0265
15506SOL    HW148771   3.026  10.332   6.931 -0.2003 -3.1388 -0.2063
15506SOL    HW248772   3.105  10.352   7.058 -0.2599 -0.7310 -0.4981
15507SOL     OW48773   8.747   1.154   6.617  0.0140  0.0354  0.0248
15507SOL    HW148774   8.831   1.113   6.602  0.3599  0.6214  0.3044
15507SOL    HW248775   8.686   1.107   6.561  0.5128 -0.4474 -0.1109
15508SOL     OW48776   7.787   5.489   9.818  1.1225  0.3742 -0.6742
15508SOL    HW148777   7.878   5.461   9.812  1.4362  1.4458 -1.1946
15508SOL    HW248778   7.782   5.535   9.902  0.5348 -1.4305  0.3224
15509SOL     OW48779   4.713   1.654   6.718  0.0468  0.2031  0.2389
15509SOL    HW148780   4.783   1.702   6.764  0.8077 -0.7871  0.1483
15509SOL    HW248781   4.633   1.681   6.763  0.6485  0.1689  1.3823
15510SOL     OW48782   4.427   8.160   9.350  0.0486  0.6098 -0.2974
15510SOL    HW148783   4.459   8.080   9.309 -2.2131 -1.6140  1.9388
15510SOL    HW248784   4.367   8.198   9.287  1.7291  1.0864 -1.7030
15511SOL     OW48785   4.890   4.483   1.577 -0.1311 -0.4011  0.0213
15511SOL    HW148786   4.979   4.515   1.587  0.1893 -0.8310 -1.2828
15511SOL    HW248787   4.876   4.425   1.651  1.1933 -1.4915 -0.5546
15512SOL     OW48788   4.536   3.618   8.137  0.0017 -0.1210 -0.3827
15512SOL    HW148789   4.602   3.549   8.134  0.1683  0.0087  0.1546
15512SOL    HW248790   4.530   3.650   8.047 -2.0782 -2.6803 -1.2991
15513SOL     OW48791   7.009   3.777   6.874 -0.3850  0.6909 -0.2495
15513SOL    HW148792   7.018   3.788   6.969  1.3441 -2.8692  0.1826
15513SOL    HW248793   7.099   3.773   6.842 -0.9402  2.2616 -2.1862
15514SOL     OW48794   4.309   0.033   9.625 -0.2123 -0.0592  0.2614
15514SOL    HW148795   4.398   0.046   9.660 -0.1573 -3.2967  1.6613
15514SOL    HW248796   4.270   0.121   9.628  2.2156  1.0986  1.6893
15515SOL     OW48797   1.379   5.419  10.432 -0.0756 -0.5594 -0.9952
15515SOL    HW148798   1.318   5.418  10.357 -1.1087  1.1563 -0.2420
15515SOL    HW248799   1.335   5.366  10.499 -1.1023  1.1973 -0.2282
15516SOL     OW48800   5.011   8.517   7.232 -0.0053 -0.1057 -0.3295
15516SOL    HW148801   5.057   8.436   7.254 -0.1699 -0.4623 -1.2634
15516SOL    HW248802   4.928   8.510   7.280 -0.2290 -0.7242 -0.7858
15517SOL     OW48803   5.929   3.461   3.617  0.1638  0.3716  0.0586
15517SOL    HW148804   5.854   3.513   3.587  0.1341  0.0422 -0.4596
15517SOL    HW248805   5.980   3.445   3.537  0.4000 -0.0236  0.2853
15518SOL     OW48806   8.163   7.154   7.834 -0.5707 -0.2226  0.2538
15518SOL    HW148807   8.253   7.142   7.866 -0.4081 -0.9801 -0.4386
15518SOL    HW248808   8.159   7.100   7.754 -0.7768  2.0130 -1.3400
15519SOL     OW48809   4.391   7.260   7.312 -0.0812 -0.2335 -0.5280
15519SOL    HW148810   4.435   7.249   7.228  1.1072  1.9221 -0.2584
15519SOL    HW248811   4.448   7.216   7.375 -0.4100 -0.9079 -0.6959
15520SOL     OW48812   5.284  10.328   9.391 -0.6217 -0.1020  0.1868
15520SOL    HW148813   5.227  10.250   9.395 -1.3803  0.3175 -1.5844
15520SOL    HW248814   5.361  10.299   9.342 -0.3843 -0.0312  0.5145
15521SOL     OW48815   3.013   8.972   9.239  0.3878  0.1451 -0.9495
15521SOL    HW148816   3.032   9.060   9.205  0.3931 -0.1846 -1.8443
15521SOL    HW248817   2.945   8.985   9.304 -0.2208  0.7301 -1.6837
15522SOL     OW48818   2.501   4.845   3.180 -0.5758 -0.3725  0.2985
15522SOL    HW148819   2.476   4.919   3.124 -1.2627  0.4966  1.6995
15522SOL    HW248820   2.465   4.867   3.266 -0.5308 -2.2044  0.8267
15523SOL     OW48821   2.565   3.169   8.338 -0.6018  0.2200  0.6240
15523SOL    HW148822   2.585   3.155   8.246  0.5870  0.6120  0.8075
15523SOL    HW248823   2.596   3.258   8.357 -2.5768  0.8884  0.9505
15524SOL     OW48824   9.049   2.231   1.978  0.2784 -0.7287 -0.2644
15524SOL    HW148825   8.958   2.219   1.953 -0.1426  0.2874  0.6642
15524SOL    HW248826   9.069   2.321   1.953  0.7474 -0.6655  0.3049
15525SOL     OW48827   3.810   2.903   5.582  0.4496  0.3850  0.4331
15525SOL    HW148828   3.845   2.849   5.511 -1.4499  1.3286 -1.3453
15525SOL    HW248829   3.851   2.989   5.570  1.8996 -0.0422  1.9858
15526SOL     OW48830   4.332   4.980   1.254  0.5217 -0.5710 -0.3861
15526SOL    HW148831   4.394   5.037   1.300 -0.4713  0.7021 -0.5828
15526SOL    HW248832   4.252   5.031   1.247  0.1085 -1.3529 -2.0487
15527SOL     OW48833   1.537   3.335   8.312  0.0258 -0.0011  0.3087
15527SOL    HW148834   1.504   3.360   8.226  1.4158 -0.3162 -0.3443
15527SOL    HW248835   1.626   3.305   8.296  0.2050 -0.3740  1.8207
15528SOL     OW48836   1.634  10.296   2.493  0.3207 -0.0957  0.3172
15528SOL    HW148837   1.655  10.326   2.405  1.3338 -2.1881 -0.2095
15528SOL    HW248838   1.538  10.305   2.499  0.2761  0.3660 -0.8534
15529SOL     OW48839   7.597   4.200   6.452  0.1398 -0.0426 -0.6728
15529SOL    HW148840   7.594   4.160   6.538  1.6953 -0.3418 -0.7237
15529SOL    HW248841   7.583   4.293   6.468 -2.6668 -0.4303 -0.4642
15530SOL     OW48842   1.903   8.854   8.524 -0.0549 -0.4091 -0.1600
15530SOL    HW148843   1.889   8.896   8.609  0.8630 -0.8691  0.2252
15530SOL    HW248844   1.918   8.762   8.544 -1.5747 -0.8637 -0.9707
15531SOL     OW48845  10.613   7.615   8.155  0.1232  0.4646  0.6514
15531SOL    HW148846  10.672   7.667   8.208  0.9783 -0.3022  0.4822
15531SOL    HW248847  10.622   7.651   8.066  1.3331 -0.4524  0.3727
15532SOL     OW48848  10.608   5.842   9.535 -0.5857 -0.1651 -0.0503
15532SOL    HW148849  10.577   5.785   9.605 -0.1112  2.2908  2.3318
15532SOL    HW248850  10.700   5.857   9.556  0.0744 -0.7868 -2.2903
15533SOL     OW48851  10.580   9.625   5.712  0.2148 -0.1917 -0.6405
15533SOL    HW148852  10.525   9.574   5.653 -2.0062 -0.1148  1.2204
15533SOL    HW248853  10.536   9.710   5.719  0.5157 -0.1335  0.9258
15534SOL     OW48854   3.819   6.153   6.216 -0.0249 -0.2922  0.5343
15534SOL    HW148855   3.777   6.221   6.268 -0.5631 -1.1534  1.2417
15534SOL    HW248856   3.806   6.072   6.266 -1.6214 -1.3800 -1.4612
15535SOL     OW48857   8.528   1.739   9.417 -0.2577 -0.2768  0.1423
15535SOL    HW148858   8.591   1.761   9.348  0.1067 -1.6447  0.0053
15535SOL    HW248859   8.470   1.675   9.376 -1.2493  0.3634  0.5219
15536SOL     OW48860   4.447   7.304   0.815  0.2691 -0.4955  0.1234
15536SOL    HW148861   4.383   7.258   0.870 -0.1071 -0.5268 -0.3311
15536SOL    HW248862   4.393   7.357   0.756  0.7095  1.4226  1.3788
15537SOL     OW48863   8.301   6.285   1.760 -0.4070 -0.5748  0.3186
15537SOL    HW148864   8.380   6.256   1.714 -0.3798 -0.1032  0.0647
15537SOL    HW248865   8.233   6.225   1.730 -0.0018 -1.4525  1.1012
15538SOL     OW48866   2.797   7.459   1.872 -0.1607 -0.0890 -0.0301
15538SOL    HW148867   2.862   7.523   1.901  0.3890  0.8898 -3.0841
15538SOL    HW248868   2.843   7.403   1.810 -1.7275 -0.6316 -0.7635
15539SOL     OW48869   0.012   7.705   1.030 -0.0141  0.4720  0.1936
15539SOL    HW148870  -0.056   7.638   1.024 -0.2002  0.5095  1.4984
15539SOL    HW248871   0.094   7.656   1.021 -0.1340 -0.0254  1.4797
15540SOL     OW48872  10.644   0.385   3.395 -0.0831  0.0935  0.0056
15540SOL    HW148873  10.722   0.335   3.371 -0.6684 -0.1887 -1.3588
15540SOL    HW248874  10.665   0.422   3.481  0.4590 -2.3320  0.9907
15541SOL     OW48875   5.587   2.751  10.168 -0.3407 -0.0915 -0.2813
15541SOL    HW148876   5.496   2.723  10.161  0.0702 -1.5155 -0.1328
15541SOL    HW248877   5.626   2.692  10.232  0.6988  0.4744 -0.3662
15542SOL     OW48878   4.473   2.116   6.215  0.0805  0.1268  0.1821
15542SOL    HW148879   4.387   2.121   6.257 -0.6269  0.3364 -1.2441
15542SOL    HW248880   4.455   2.127   6.122  1.4596 -1.5511 -0.3446
15543SOL     OW48881   5.107   6.292   6.821 -0.1678  0.0441 -0.2534
15543SOL    HW148882   5.167   6.353   6.864  0.0563  0.1260 -0.6812
15543SOL    HW248883   5.122   6.209   6.866  0.2958  0.0544 -0.3786
15544SOL     OW48884   2.791   7.954   8.204 -0.9772 -0.6943 -0.0105
15544SOL    HW148885   2.803   7.864   8.174  1.6867 -0.7135  0.8340
15544SOL    HW248886   2.801   8.007   8.124 -0.7000 -1.0571 -0.2191
15545SOL     OW48887   2.614   2.874   4.480 -0.4852  0.1700 -0.3536
15545SOL    HW148888   2.706   2.895   4.466 -0.5311  1.0877  0.6024
15545SOL    HW248889   2.605   2.867   4.575 -0.8017 -2.8263 -0.5130
15546SOL     OW48890   5.467   7.669   3.519  0.6768 -0.0412  0.1862
15546SOL    HW148891   5.508   7.591   3.557  0.3089 -1.0177 -1.2923
15546SOL    HW248892   5.420   7.635   3.443 -0.5948  1.4531  0.2662
15547SOL     OW48893   8.224   4.501   2.344 -0.0491  0.3115  0.1163
15547SOL    HW148894   8.154   4.558   2.311  0.0383 -0.1530 -0.8951
15547SOL    HW248895   8.302   4.556   2.346  0.3269 -0.0536 -2.0559
15548SOL     OW48896   1.207   2.807   0.813 -0.0640 -0.1346  0.1737
15548SOL    HW148897   1.268   2.803   0.740  0.8972 -0.8662  0.9982
15548SOL    HW248898   1.246   2.870   0.874  0.1895 -1.0223  0.9614
15549SOL     OW48899   1.811   5.661   8.385  0.0292  0.4957 -0.0792
15549SOL    HW148900   1.871   5.732   8.364 -0.1193  0.6656  0.0680
15549SOL    HW248901   1.773   5.686   8.469  0.2712  0.0517  0.1668
15550SOL     OW48902   9.260   2.741   6.031  0.2698  0.2806  0.7501
15550SOL    HW148903   9.291   2.728   5.942  0.1381  0.4703  0.6759
15550SOL    HW248904   9.300   2.824   6.058 -0.2319  0.5650  0.6286
15551SOL     OW48905   7.327   4.978   3.073  1.0894 -0.4022  0.3573
15551SOL    HW148906   7.334   4.948   3.163  1.9157 -1.5387 -0.0579
15551SOL    HW248907   7.282   5.062   3.079  0.7003 -0.6849  1.7739
15552SOL     OW48908   5.323   0.476   7.427 -0.5883  0.4628 -0.0903
15552SOL    HW148909   5.386   0.428   7.372  0.4477  1.7548 -0.0894
15552SOL    HW248910   5.248   0.491   7.369 -0.6272 -0.5131 -0.3105
15553SOL     OW48911   6.537  10.516   1.373  0.4894 -0.1933 -0.0789
15553SOL    HW148912   6.502  10.597   1.410 -0.7031 -1.6971  2.3217
15553SOL    HW248913   6.488  10.503   1.292 -2.7379 -0.8206  1.8168
15554SOL     OW48914   5.152   6.058   5.134 -0.0678 -0.2886  0.8893
15554SOL    HW148915   5.163   5.988   5.070 -3.1665 -0.8526  0.8085
15554SOL    HW248916   5.167   6.016   5.218  1.5350 -0.1384  0.7172
15555SOL     OW48917   0.907   4.920   9.580 -0.2016 -0.0687 -0.2548
15555SOL    HW148918   0.869   4.985   9.521  0.0873  0.2605 -0.0807
15555SOL    HW248919   0.928   4.846   9.524  0.2857  0.3307 -0.6169
15556SOL     OW48920   9.339   6.046  10.365  0.7615  0.1851 -0.2426
15556SOL    HW148921   9.311   6.135  10.343  2.0584  0.5399 -0.5514
15556SOL    HW248922   9.371   6.052  10.455 -0.3536 -0.2745  0.2025
15557SOL     OW48923  10.109   2.956   0.740 -0.1814 -0.0142  0.5410
15557SOL    HW148924  10.142   3.009   0.667  0.9322  1.6516  2.1464
15557SOL    HW248925  10.165   2.981   0.814 -1.2957 -1.5950  1.9746
15558SOL     OW48926   5.579   9.967  10.558 -0.0369 -0.0728  0.1504
15558SOL    HW148927   5.645  10.014  10.508  0.2661 -2.7987 -2.3296
15558SOL    HW248928   5.511  10.032  10.576  0.6055  1.4658 -2.4857
15559SOL     OW48929   1.895   1.393   0.658  0.1364  0.0765  0.0614
15559SOL    HW148930   1.921   1.357   0.574 -1.0075  0.3024 -0.4170
15559SOL    HW248931   1.831   1.330   0.692 -2.3013  1.7711 -1.0239
15560SOL     OW48932   7.126   8.657   5.318  0.2772 -0.1971 -0.3638
15560SOL    HW148933   7.048   8.602   5.331  0.1465 -0.0838 -0.6432
15560SOL    HW248934   7.095   8.746   5.338  0.6891 -0.3099  0.8658
15561SOL     OW48935   8.172   9.243   3.975  0.5753 -0.4520 -0.2826
15561SOL    HW148936   8.147   9.331   4.000  0.1654 -1.1637  2.1062
15561SOL    HW248937   8.265   9.250   3.953  0.2838  0.7448 -1.2189
15562SOL     OW48938   8.228  10.093   1.415 -0.1753  0.1543  0.3175
15562SOL    HW148939   8.294  10.066   1.479 -1.4415 -1.7812  0.8548
15562SOL    HW248940   8.210  10.185   1.437  2.1244  0.6770  0.2946
15563SOL     OW48941   2.294   9.790   7.860  0.3734 -0.1634  0.3118
15563SOL    HW148942   2.303   9.746   7.944 -0.6210 -0.1691  0.4208
15563SOL    HW248943   2.376   9.770   7.813 -0.0243 -2.0555  0.3805
15564SOL     OW48944  10.155   2.443   0.545  0.2266  0.1725 -0.1423
15564SOL    HW148945  10.228   2.473   0.491 -0.2022 -0.1659 -0.9164
15564SOL    HW248946  10.131   2.519   0.598 -0.6002  1.1136 -1.7984
15565SOL     OW48947   2.136   9.189   5.520  0.6410 -0.1420 -0.4404
15565SOL    HW148948   2.101   9.107   5.555 -3.0159  1.0036 -0.9713
15565SOL    HW248949   2.106   9.256   5.581 -0.2106  1.1863 -2.2111
15566SOL     OW48950   0.623   2.521   9.069 -0.4930  0.0854  0.4537
15566SOL    HW148951   0.585   2.482   9.147 -0.7993  0.2413  0.3840
15566SOL    HW248952   0.653   2.608   9.096  0.5284 -0.3314  0.7029
15567SOL     OW48953   7.693   4.738   6.339  0.2502 -0.2981  0.4869
15567SOL    HW148954   7.725   4.760   6.427  0.8481 -0.8669  0.4153
15567SOL    HW248955   7.730   4.652   6.321 -0.1938 -0.3574 -0.1712
15568SOL     OW48956   7.825   2.753   0.786  0.4102  0.5487 -0.1690
15568SOL    HW148957   7.832   2.692   0.713  0.3325  0.7383 -0.3379
15568SOL    HW248958   7.911   2.752   0.827  0.0293 -0.7163  0.6802
15569SOL     OW48959   7.961   9.850   6.703  0.1848 -0.1314  0.6553
15569SOL    HW148960   8.045   9.876   6.742  0.1902  0.8915 -0.0132
15569SOL    HW248961   7.925   9.931   6.667 -0.9598 -0.6237  0.6737
15570SOL     OW48962   9.703   7.792   6.395 -0.1974  0.2591 -0.1121
15570SOL    HW148963   9.697   7.843   6.475  0.3245 -0.3274  0.3060
15570SOL    HW248964   9.791   7.808   6.362 -0.3229  0.2979 -0.4359
15571SOL     OW48965  10.217   0.250  10.093 -0.0799 -0.1493  0.6075
15571SOL    HW148966  10.134   0.237  10.138 -0.2192 -0.2247  0.3311
15571SOL    HW248967  10.197   0.308  10.019 -0.2238 -1.4670 -0.4264
15572SOL     OW48968   9.735   6.947  10.049  0.3878 -0.6076  0.6562
15572SOL    HW148969   9.777   6.887   9.988 -1.7463 -0.3828 -1.1407
15572SOL    HW248970   9.663   6.897  10.087 -0.1755  0.1857  0.6689
15573SOL     OW48971   8.677   5.623   8.481  0.2805 -0.2648 -0.3279
15573SOL    HW148972   8.622   5.544   8.478 -1.3037  0.8003 -0.3977
15573SOL    HW248973   8.627   5.689   8.432  0.1320  1.6351  2.2113
15574SOL     OW48974   6.177   0.300   6.721 -0.0046  0.3979 -0.3646
15574SOL    HW148975   6.098   0.351   6.735 -0.5691 -0.7262  0.7011
15574SOL    HW248976   6.248   0.359   6.746 -0.4005  1.7082 -2.1388
15575SOL     OW48977   0.905   9.244   2.422  0.1704  0.4025 -0.4198
15575SOL    HW148978   0.887   9.151   2.439 -2.9444  0.9385 -0.1415
15575SOL    HW248979   0.880   9.288   2.503 -0.9338  1.6906 -1.4161
15576SOL     OW48980   1.149   2.440   7.091  0.1426 -0.0254  0.1198
15576SOL    HW148981   1.184   2.352   7.099  2.5575  0.8712  0.3694
15576SOL    HW248982   1.115   2.445   7.002 -0.0492 -1.2030  0.1161
15577SOL     OW48983   3.796   0.057   5.335 -0.3786 -0.4579 -0.0532
15577SOL    HW148984   3.708   0.037   5.302 -0.7312 -0.0351  0.6059
15577SOL    HW248985   3.784   0.137   5.387  0.3829 -0.4390  0.0952
15578SOL     OW48986   2.065   3.369   9.650  0.2580 -0.2826  0.5017
15578SOL    HW148987   2.037   3.297   9.707 -1.1598 -2.3147 -2.4929
15578SOL    HW248988   2.146   3.337   9.610 -1.1863 -1.0922 -2.0352
15579SOL     OW48989   9.422   2.193   3.064  0.2543  0.2637 -0.4851
15579SOL    HW148990   9.378   2.109   3.053 -0.8862  0.6979  0.4877
15579SOL    HW248991   9.512   2.171   3.087 -0.7320 -0.8300  2.8962
15580SOL     OW48992   4.905   1.272   5.879  0.1288  0.0082  0.1028
15580SOL    HW148993   4.993   1.309   5.883  0.1794 -0.0704 -0.2185
15580SOL    HW248994   4.864   1.317   5.805 -0.1058  0.0560  0.2607
15581SOL     OW48995   8.398   5.247   1.437  0.1467 -0.0564  0.4986
15581SOL    HW148996   8.409   5.307   1.362 -0.6454  0.3940  0.7291
15581SOL    HW248997   8.320   5.197   1.416  0.5790 -0.7431  0.5002
15582SOL     OW48998   4.754   9.681   2.241 -0.0522  0.2253 -0.6158
15582SOL    HW148999   4.775   9.597   2.199  0.2641  1.0579 -2.1649
15582SOL    HW249000   4.660   9.675   2.261 -0.2175 -0.1655 -1.4899
15583SOL     OW49001   5.250   2.779   8.075 -0.6064 -0.1444 -0.7579
15583SOL    HW149002   5.245   2.872   8.094 -0.8024 -0.4047  0.6134
15583SOL    HW249003   5.316   2.771   8.006  0.2419  0.9078 -0.0896
15584SOL     OW49004   2.697   9.721   4.393  0.0279 -0.1932 -0.2108
15584SOL    HW149005   2.766   9.658   4.412  0.0431 -0.2908 -0.5688
15584SOL    HW249006   2.726   9.765   4.313  1.7207  2.7072  1.8205
15585SOL     OW49007   2.595   0.626   4.314  0.2417  0.1481 -0.0305
15585SOL    HW149008   2.532   0.599   4.382  0.6290  1.4929  0.8876
15585SOL    HW249009   2.653   0.550   4.305 -0.3474 -0.3855  0.5089
15586SOL     OW49010   3.417   7.975   6.959  0.1253  0.4991  0.6175
15586SOL    HW149011   3.489   8.018   7.006 -0.0018 -1.0034  2.2927
15586SOL    HW249012   3.414   8.019   6.874  4.0688 -0.4382 -0.1988
15587SOL     OW49013   5.687   6.358   4.872 -0.5609 -0.2510 -0.1087
15587SOL    HW149014   5.736   6.278   4.856  0.9581  0.6489 -0.0647
15587SOL    HW249015   5.597   6.327   4.887 -0.1346 -1.8837 -0.6667
15588SOL     OW49016   7.119   9.674   2.591 -0.1842 -0.0204  0.2568
15588SOL    HW149017   7.174   9.695   2.666 -0.3364  1.1870  0.0615
15588SOL    HW249018   7.181   9.669   2.517  0.0097 -1.5397  0.4913
15589SOL     OW49019   8.825   0.795   1.577  0.3215 -0.3824 -0.4425
15589SOL    HW149020   8.818   0.890   1.582  1.4490 -0.3356  1.1837
15589SOL    HW249021   8.737   0.765   1.557  0.1423  1.0369 -1.9039
15590SOL     OW49022   9.793   1.970   6.570 -0.2383  0.0463  0.1653
15590SOL    HW149023   9.833   1.897   6.615 -0.6849 -0.8823 -0.8976
15590SOL    HW249024   9.777   1.939   6.481 -1.1972  1.1443 -0.0885
15591SOL     OW49025  10.152   3.342   9.886  0.1802 -0.2975  0.2937
15591SOL    HW149026  10.135   3.410   9.951  0.0084  0.3824 -0.4442
15591SOL    HW249027  10.079   3.280   9.897 -0.1212  0.0730  0.4124
15592SOL     OW49028   3.705   4.731   6.750 -0.1133 -0.3669  0.2793
15592SOL    HW149029   3.645   4.782   6.805  1.9121  1.4437  0.9506
15592SOL    HW249030   3.694   4.641   6.780 -1.3882  0.1223  1.3990
15593SOL     OW49031   3.429   4.339   8.543  1.5938 -0.2702  0.3369
15593SOL    HW149032   3.375   4.261   8.560  0.3093  0.0312 -1.9223
15593SOL    HW249033   3.368   4.401   8.504  2.7430  1.6633  1.4838
15594SOL     OW49034   7.780   1.981   5.895 -0.2040 -0.0920  0.7570
15594SOL    HW149035   7.713   2.045   5.918 -0.3601  0.4487 -1.0315
15594SOL    HW249036   7.859   2.013   5.939 -1.2454 -1.3313  3.7927
15595SOL     OW49037   9.373   0.294   3.883 -0.0668  0.0236 -0.1476
15595SOL    HW149038   9.289   0.250   3.874 -1.0371  1.8433 -0.6390
15595SOL    HW249039   9.354   0.370   3.939  1.8543 -0.9250  1.9601
15596SOL     OW49040   6.001  10.230   1.622  0.2930 -0.5045  0.0527
15596SOL    HW149041   5.956  10.190   1.697 -0.0364  1.3282  0.8718
15596SOL    HW249042   5.932  10.271   1.571  0.6586 -0.6976 -0.6101
15597SOL     OW49043   4.713   3.813   2.698  0.3792  0.0587  0.1348
15597SOL    HW149044   4.730   3.719   2.699 -0.5086 -0.1114  0.4990
15597SOL    HW249045   4.711   3.838   2.791  2.2479  0.7711  0.0218
15598SOL     OW49046   8.349   3.078   6.356  0.0355  0.0594  0.2635
15598SOL    HW149047   8.435   3.101   6.392 -0.4506  0.7647  1.0262
15598SOL    HW249048   8.353   3.103   6.264  0.7190 -0.1135  0.2440
15599SOL     OW49049   6.419   3.105   8.450  0.1431  0.4460 -0.3459
15599SOL    HW149050   6.367   3.185   8.455 -0.5383 -0.0227  0.2096
15599SOL    HW249051   6.396   3.067   8.365 -0.7806  0.0183  0.0780
15600SOL     OW49052   8.747   1.400   4.471  0.0975 -0.1417  0.2186
15600SOL    HW149053   8.753   1.480   4.418  0.4031  0.7675  1.5864
15600SOL    HW249054   8.756   1.329   4.407 -1.3479  0.8662 -1.1886
15601SOL     OW49055   2.523   7.691   4.404 -0.3128 -0.4972 -0.5379
15601SOL    HW149056   2.493   7.605   4.431  2.5249 -1.5454 -0.4112
15601SOL    HW249057   2.553   7.680   4.314  1.3272 -0.0247 -0.0850
15602SOL     OW49058   2.656   4.562   8.560  0.4684 -0.3468  0.4616
15602SOL    HW149059   2.593   4.633   8.549  0.4233 -0.2598  1.2614
15602SOL    HW249060   2.606   4.482   8.544  0.0991 -0.2909  1.3279
15603SOL     OW49061   7.062   3.720   7.501 -0.0989 -0.5592  0.5346
15603SOL    HW149062   6.985   3.771   7.475  0.2045 -0.0436  0.6276
15603SOL    HW249063   7.077   3.745   7.592  1.4750  1.0443 -0.0999
15604SOL     OW49064  10.353   3.748   5.569 -0.6394  0.5638 -0.1114
15604SOL    HW149065  10.376   3.840   5.586  0.6263  0.5259 -1.4763
15604SOL    HW249066  10.365   3.737   5.475 -2.7693 -0.4899 -0.3206
15605SOL     OW49067   6.937   9.340   4.779  0.0438  0.0373  0.0613
15605SOL    HW149068   6.973   9.350   4.867  1.5215  0.5493 -0.5754
15605SOL    HW249069   7.013   9.344   4.721 -0.9868  0.5737 -1.3067
15606SOL     OW49070   1.321  10.332   0.999  0.1030  0.3322 -0.1474
15606SOL    HW149071   1.286  10.420   1.013 -0.5153 -0.0799  1.0901
15606SOL    HW249072   1.273  10.278   1.062 -0.7007 -1.1965 -1.9700
15607SOL     OW49073   2.817   1.988   8.376 -0.3006 -0.2245  0.6834
15607SOL    HW149074   2.829   1.958   8.466 -0.2188  0.6379  0.9626
15607SOL    HW249075   2.838   2.081   8.378 -3.8347  0.7355  0.5733
15608SOL     OW49076   3.742   8.732   4.820 -0.0237 -0.0673  0.3322
15608SOL    HW149077   3.755   8.805   4.760  0.2123 -0.2645  0.1396
15608SOL    HW249078   3.830   8.710   4.851 -0.1736  0.2077  0.9639
15609SOL     OW49079   5.897   2.409   2.452  0.0115 -0.1734  0.5362
15609SOL    HW149080   5.891   2.457   2.535 -2.9754 -1.9894  1.5167
15609SOL    HW249081   5.981   2.362   2.458  0.8141  1.3112  1.5622
15610SOL     OW49082   0.983   2.109   1.541 -0.4104 -0.0921 -0.0062
15610SOL    HW149083   1.008   2.162   1.466 -0.0930  0.5404  0.5413
15610SOL    HW249084   0.897   2.074   1.517 -1.5089  2.1608  0.3669
15611SOL     OW49085   4.159   0.343   6.262  0.2913  0.6442  0.1101
15611SOL    HW149086   4.194   0.389   6.186 -1.4136  1.1625 -0.4114
15611SOL    HW249087   4.213   0.264   6.270  0.3496  0.4467 -1.7776
15612SOL     OW49088   5.713   8.906   9.219 -0.4744 -0.1442 -0.1273
15612SOL    HW149089   5.781   8.946   9.273 -0.3941  0.2590 -0.5167
15612SOL    HW249090   5.686   8.976   9.159 -0.9379 -0.4227 -0.2524
15613SOL     OW49091   7.691   6.722   1.362 -0.1444 -0.2072  0.1431
15613SOL    HW149092   7.704   6.796   1.302 -1.2293  0.7125  0.9967
15613SOL    HW249093   7.780   6.691   1.381  0.3543  0.9809 -0.1256
15614SOL     OW49094   9.149   4.182   9.091 -0.3552 -1.0341  0.3173
15614SOL    HW149095   9.055   4.168   9.098 -0.3859 -0.6807  0.6418
15614SOL    HW249096   9.169   4.248   9.158  0.0297 -0.6927 -0.1242
15615SOL     OW49097   6.594   2.049   2.232  0.3171  0.0723 -0.4577
15615SOL    HW149098   6.590   2.020   2.322  1.8913 -0.7180 -0.6140
15615SOL    HW249099   6.502   2.052   2.203 -0.0810 -2.0669  0.4103
15616SOL     OW49100   3.087   4.010   6.726  0.0074 -1.0118  0.5293
15616SOL    HW149101   3.114   3.929   6.770 -0.2255 -0.6266  1.3951
15616SOL    HW249102   3.161   4.069   6.737  0.9186 -1.6602 -1.6560
15617SOL     OW49103   3.079   7.009   4.216 -0.0452 -0.3620  0.6470
15617SOL    HW149104   3.069   7.063   4.294  1.7642 -1.2102  1.5085
15617SOL    HW249105   3.119   7.067   4.151 -3.0414  0.8445 -0.3299
15618SOL     OW49106  10.417   4.320   0.490 -0.0632  0.1557 -0.0899
15618SOL    HW149107  10.479   4.247   0.487 -1.2323 -0.8097 -1.7133
15618SOL    HW249108  10.339   4.288   0.445 -1.0896  1.9813  0.2951
15619SOL     OW49109   9.738   3.485   8.905  0.9665 -0.2458  1.0619
15619SOL    HW149110   9.808   3.471   8.969  0.1463 -1.7850  1.6713
15619SOL    HW249111   9.658   3.489   8.957  0.5143  0.8687  0.3209
15620SOL     OW49112   7.856   3.839   4.038 -0.0619 -0.4787  0.2977
15620SOL    HW149113   7.871   3.856   3.945  1.1523 -0.5745  0.4599
15620SOL    HW249114   7.792   3.768   4.039 -1.4325  0.6984 -0.4310
15621SOL     OW49115   4.293   6.181   4.886 -0.1911 -0.3939 -0.0111
15621SOL    HW149116   4.310   6.087   4.875 -3.3534 -1.0976  0.3161
15621SOL    HW249117   4.285   6.215   4.798  3.1936  0.1766 -0.2436
15622SOL     OW49118  10.214   5.281   0.724 -0.0276 -0.1810 -0.2765
15622SOL    HW149119  10.219   5.185   0.729 -0.8992 -0.1450  2.2615
15622SOL    HW249120  10.121   5.301   0.733 -0.2431  0.8978 -3.4661
15623SOL     OW49121   7.522   9.571   5.463 -0.5120  0.3305  0.3570
15623SOL    HW149122   7.580   9.614   5.400  0.6566 -0.6196  0.7453
15623SOL    HW249123   7.528   9.625   5.542  0.3851 -0.1155  0.6092
15624SOL     OW49124   8.892   3.705   7.495  0.1509 -1.3400 -0.2367
15624SOL    HW149125   8.815   3.649   7.501 -1.2654  0.4664 -0.6516
15624SOL    HW249126   8.870   3.782   7.548  1.6846 -0.7763 -0.3673
15625SOL     OW49127   1.525   9.197   8.158 -0.5754 -0.2988 -0.0704
15625SOL    HW149128   1.586   9.242   8.099 -1.5914  0.4259 -0.5867
15625SOL    HW249129   1.573   9.191   8.241  0.3936 -0.2065 -0.6106
15626SOL     OW49130   7.534   4.994   2.409 -0.4752 -0.3929 -0.7362
15626SOL    HW149131   7.488   4.929   2.355 -0.0945 -0.1699 -1.3358
15626SOL    HW249132   7.472   5.016   2.478 -0.1782 -2.3019  0.2026
15627SOL     OW49133   3.883   4.013   2.653  0.3614 -0.4877 -0.3144
15627SOL    HW149134   3.870   4.100   2.689  2.2090 -0.3311  0.1128
15627SOL    HW249135   3.811   3.961   2.689 -0.3328  0.6785  0.0319
15628SOL     OW49136   5.631   0.585   1.155  0.0245  0.1763  0.7631
15628SOL    HW149137   5.548   0.559   1.194  0.4974 -0.2820  1.5087
15628SOL    HW249138   5.617   0.578   1.061 -1.3800  2.0447  0.7866
15629SOL     OW49139   9.547   9.851   0.083 -0.2806  0.0906 -0.6857
15629SOL    HW149140   9.638   9.866   0.106 -0.5585 -0.6664  1.1138
15629SOL    HW249141   9.550   9.782   0.016  0.4668 -0.1457 -0.4212
15630SOL     OW49142   5.359   2.355   0.667  0.3708  0.0511 -0.1578
15630SOL    HW149143   5.418   2.373   0.740 -1.3386 -0.8746  1.5310
15630SOL    HW249144   5.291   2.422   0.674 -0.1360 -0.4153 -0.5340
15631SOL     OW49145   6.925   6.941   4.209  0.0099 -0.4588  0.2858
15631SOL    HW149146   7.006   6.976   4.171 -1.1976  2.8063  0.3684
15631SOL    HW249147   6.954   6.901   4.291  1.4790  1.9283  1.0523
15632SOL     OW49148  10.346   8.423   9.289  0.8024  0.1515  0.4778
15632SOL    HW149149  10.333   8.336   9.252 -1.3544  0.5702  0.1461
15632SOL    HW249150  10.429   8.453   9.251  0.1899 -0.6432 -1.6108
15633SOL     OW49151   2.223   6.446   0.196 -0.2390  0.6862 -0.3729
15633SOL    HW149152   2.280   6.489   0.259  0.7630  1.6166 -1.8391
15633SOL    HW249153   2.146   6.421   0.246  0.3576  1.7087  1.1299
15634SOL     OW49154   8.289   5.852   9.311 -0.4947  0.1021  0.0157
15634SOL    HW149155   8.274   5.944   9.335 -1.1505  0.4546 -1.5508
15634SOL    HW249156   8.237   5.840   9.231 -1.3394 -1.9728  0.8035
15635SOL     OW49157   2.923   7.171   5.710  0.5466  0.2177  0.5472
15635SOL    HW149158   2.960   7.215   5.787 -0.2280 -0.4522  1.3205
15635SOL    HW249159   2.837   7.211   5.698  0.5121  0.0607  0.2572
15636SOL     OW49160  10.265  10.229   9.413 -0.0330 -0.3169 -0.7015
15636SOL    HW149161  10.281  10.141   9.380  2.9681 -0.0673 -0.2053
15636SOL    HW249162  10.293  10.287   9.342 -1.7051  0.2915 -0.9110
15637SOL     OW49163   0.992   3.426   3.913  0.3207  0.5915  0.2372
15637SOL    HW149164   1.018   3.453   4.001  2.4954  0.7159 -0.3922
15637SOL    HW249165   1.074   3.407   3.868 -0.7693 -0.0930 -1.5917
15638SOL     OW49166   3.003   3.700   4.305  0.1177  0.1159  0.3614
15638SOL    HW149167   3.028   3.656   4.386  0.4547 -2.7798 -1.1668
15638SOL    HW249168   2.909   3.681   4.296  0.0028  0.7306  0.2530
15639SOL     OW49169   9.866   1.250   3.703 -0.1076  0.5176  0.1859
15639SOL    HW149170   9.800   1.199   3.657  1.6307 -1.1110 -0.6439
15639SOL    HW249171   9.867   1.216   3.792  0.7608 -0.6870 -0.2580
15640SOL     OW49172   9.240   5.047   6.377  0.0900  0.0185 -0.1346
15640SOL    HW149173   9.190   5.125   6.355  0.9795  0.8979  0.7834
15640SOL    HW249174   9.175   4.979   6.394 -0.7779  1.0346  0.7016
15641SOL     OW49175   2.941   7.044  10.379 -0.4417  0.0361 -0.4656
15641SOL    HW149176   2.875   7.114  10.383  0.2135  0.7458 -1.3938
15641SOL    HW249177   3.024   7.089  10.396 -0.1740 -0.8395  0.6335
15642SOL     OW49178   9.013   5.657   9.889  0.5717 -0.6277 -0.0485
15642SOL    HW149179   9.011   5.665   9.984 -1.9119 -0.3357 -0.0620
15642SOL    HW249180   8.935   5.702   9.859  0.7184 -1.6480 -2.1613
15643SOL     OW49181   3.112   7.418   3.751 -0.3977  0.6025  0.2173
15643SOL    HW149182   3.127   7.482   3.682  0.0184  0.3523  0.0710
15643SOL    HW249183   3.175   7.348   3.734 -0.8129  0.1733  0.4033
15644SOL     OW49184   8.778   8.429   9.196 -0.4177  0.0795  0.4030
15644SOL    HW149185   8.838   8.496   9.230  0.8159 -0.6465 -0.2767
15644SOL    HW249186   8.815   8.347   9.228 -2.0515 -0.3031  1.4336
15645SOL     OW49187   5.478   0.410   4.179  0.1867 -0.0936  0.2872
15645SOL    HW149188   5.457   0.412   4.086  0.0621  0.0368  0.3175
15645SOL    HW249189   5.408   0.359   4.220 -0.8514  1.4801  0.5767
15646SOL     OW49190   0.213  10.636   5.765  0.4334 -0.1518  0.2664
15646SOL    HW149191   0.183  10.548   5.742 -1.3451  0.4997 -0.0289
15646SOL    HW249192   0.201  10.641   5.860  2.0109 -0.7294  0.5284
15647SOL     OW49193   1.933   3.422   4.570 -0.0078 -0.5645 -0.0067
15647SOL    HW149194   2.028   3.414   4.577  0.1895  1.7705  1.2311
15647SOL    HW249195   1.919   3.481   4.496 -0.5090 -0.8953 -0.1850
15648SOL     OW49196   3.725   1.222   8.877  0.3399  0.3132 -0.0211
15648SOL    HW149197   3.771   1.299   8.910  0.4549  0.1544  0.1862
15648SOL    HW249198   3.715   1.165   8.953 -1.1957  0.8258  0.1897
15649SOL     OW49199   1.618   8.579   3.390  0.4638 -0.2189  0.2637
15649SOL    HW149200   1.558   8.544   3.323  0.0144 -2.0199  1.5307
15649SOL    HW249201   1.703   8.539   3.369  0.8570  0.9814 -0.5165
15650SOL     OW49202   0.995   1.807   5.209 -0.2736  0.3798  0.7110
15650SOL    HW149203   1.017   1.896   5.238  1.8052 -0.2518  1.2236
15650SOL    HW249204   1.080   1.765   5.193 -1.2339 -0.6638 -2.2606
15651SOL     OW49205   9.985   7.079   2.494  0.6708 -0.4463 -0.3952
15651SOL    HW149206   9.892   7.071   2.511  1.2654 -2.1701  3.0039
15651SOL    HW249207  10.020   6.991   2.506  2.5895 -0.2340 -3.3803
15652SOL     OW49208   4.935   6.751   7.265 -0.2349  0.1492 -0.1877
15652SOL    HW149209   4.893   6.700   7.334  1.3316 -0.1272  0.6035
15652SOL    HW249210   4.888   6.835   7.266 -0.3472  0.0839  1.0928
15653SOL     OW49211   7.468   7.981   1.812 -0.1892  0.0724  0.2676
15653SOL    HW149212   7.404   8.018   1.751 -0.6799 -2.9603 -1.2704
15653SOL    HW249213   7.553   8.007   1.777 -0.5009 -0.8048 -1.2400
15654SOL     OW49214  10.063   5.253   0.235  0.0279  0.6593 -0.0056
15654SOL    HW149215  10.081   5.309   0.159 -1.7346  1.0468 -0.1758
15654SOL    HW249216  10.093   5.166   0.208 -0.0955  0.8958 -0.9663
15655SOL     OW49217   1.525   7.080   7.945 -0.2196 -0.0222  0.3588
15655SOL    HW149218   1.497   7.082   7.854  1.3786  1.0594 -0.1543
15655SOL    HW249219   1.457   7.128   7.992  0.2257  1.6876 -0.6828
15656SOL     OW49220   8.098   3.385   1.721  0.3492 -0.0708 -0.3850
15656SOL    HW149221   8.049   3.468   1.729  0.8020  0.1833 -0.2060
15656SOL    HW249222   8.136   3.372   1.808 -2.9822 -2.5540  0.9527
15657SOL     OW49223   7.327   7.062   3.841 -0.7965 -0.0694 -0.3600
15657SOL    HW149224   7.376   7.023   3.768  0.2470  1.3431 -0.4660
15657SOL    HW249225   7.242   7.084   3.804 -0.4871  0.0846 -1.0000
15658SOL     OW49226   5.219   9.271   6.033 -0.0673 -0.0128  0.3337
15658SOL    HW149227   5.157   9.341   6.014 -0.7142 -0.1608  1.8111
15658SOL    HW249228   5.218   9.217   5.954 -2.5305 -0.5181  0.6272
15659SOL     OW49229   2.944   3.350  10.325  0.0290  0.0744  0.3386
15659SOL    HW149230   3.012   3.417  10.333  0.7692 -0.4874 -0.9541
15659SOL    HW249231   2.888   3.381  10.253 -1.8604  1.1378  2.1429
15660SOL     OW49232   9.705   6.499   4.819  0.7710 -0.8464 -0.3334
15660SOL    HW149233   9.700   6.572   4.880  1.9803  0.4150 -1.6751
15660SOL    HW249234   9.778   6.446   4.850  0.4120 -1.0540  0.1727
15661SOL     OW49235   7.272   4.460   3.339 -0.6110 -0.3330  0.5700
15661SOL    HW149236   7.335   4.389   3.326 -1.0933 -0.7102  0.2298
15661SOL    HW249237   7.238   4.446   3.427 -2.3686 -1.9165 -0.2951
15662SOL     OW49238   0.971   3.488   9.774  0.0837  0.1703  0.0080
15662SOL    HW149239   1.037   3.546   9.813 -0.6077  0.8663  0.1892
15662SOL    HW249240   1.020   3.416   9.737  0.9259  0.5556  0.3568
15663SOL     OW49241   8.958   0.278  10.242 -0.2654  0.0704  0.1527
15663SOL    HW149242   8.920   0.361  10.213 -2.7186 -0.9829  0.0465
15663SOL    HW249243   9.030   0.304  10.300 -0.0362  2.2340 -0.9861
15664SOL     OW49244   0.639   0.350   3.906 -0.2941  0.3945 -1.0024
15664SOL    HW149245   0.726   0.318   3.881  0.0159  0.8937 -0.5790
15664SOL    HW249246   0.645   0.366   4.000 -1.4027 -1.2754 -0.6188
15665SOL     OW49247   3.727   8.000   8.309  1.1155 -0.1690  0.0646
15665SOL    HW149248   3.704   7.997   8.402  1.2122 -1.3821  0.0648
15665SOL    HW249249   3.718   8.092   8.285  0.8770  0.1236  1.2212
15666SOL     OW49250   1.198   3.654   1.041  0.8761 -0.1983  0.0723
15666SOL    HW149251   1.195   3.634   0.947  1.3350  0.9869 -0.2019
15666SOL    HW249252   1.257   3.729   1.049  0.2102  0.2357  1.2207
15667SOL     OW49253   9.926   2.698   5.878 -0.2249  0.3258 -0.2359
15667SOL    HW149254   9.921   2.784   5.920  0.9573 -0.5268  1.8179
15667SOL    HW249255   9.956   2.639   5.948  0.5364 -1.4645 -1.9699
15668SOL     OW49256   6.599  10.643   9.823 -0.0968  0.5111  0.4582
15668SOL    HW149257   6.528  10.616   9.882 -0.1450 -1.1203 -0.3085
15668SOL    HW249258   6.556  10.655   9.738  0.7964 -2.4937 -0.5206
15669SOL     OW49259   5.747   2.081   0.409  0.1045 -0.4599  0.6848
15669SOL    HW149260   5.779   2.096   0.498  0.1805 -1.5306  0.8430
15669SOL    HW249261   5.677   2.016   0.419 -0.1242 -0.3245  0.0006
15670SOL     OW49262   9.856   4.394   7.674 -0.0960  0.0273  0.2897
15670SOL    HW149263   9.908   4.373   7.596  0.4093 -3.3240  1.3529
15670SOL    HW249264   9.782   4.445   7.641  1.2864  0.7157 -1.9878
15671SOL     OW49265   7.510   8.140   5.285  0.1668 -0.0967  0.0248
15671SOL    HW149266   7.479   8.201   5.352 -0.5089 -0.9575  0.5170
15671SOL    HW249267   7.587   8.098   5.325  1.0913  0.9575 -0.6087
15672SOL     OW49268   8.720   9.322   3.159  0.0216  1.2354  0.3269
15672SOL    HW149269   8.814   9.308   3.169  0.1337  0.1310 -1.8208
15672SOL    HW249270   8.682   9.236   3.177 -0.3561  1.0979 -1.0330
15673SOL     OW49271   9.958   9.727   7.529  0.2998  0.6829 -0.2632
15673SOL    HW149272   9.986   9.805   7.482  0.2324  0.4502 -0.6923
15673SOL    HW249273   9.993   9.654   7.478  1.0831  0.4463  0.5993
15674SOL     OW49274   2.910   8.655   4.808  0.2795 -0.0124 -0.5648
15674SOL    HW149275   2.928   8.673   4.716 -2.2801  1.1984 -0.9357
15674SOL    HW249276   2.943   8.731   4.855  1.1616 -0.4124 -0.5283
15675SOL     OW49277   6.515   6.054   6.388  0.4033  0.0279  0.2435
15675SOL    HW149278   6.483   6.112   6.319  0.6363 -0.1990 -0.0580
15675SOL    HW249279   6.580   6.105   6.436  0.2371  0.1870  0.3003
15676SOL     OW49280   7.820   4.849   0.394 -0.2570 -0.5373  0.0857
15676SOL    HW149281   7.870   4.869   0.473  1.3428  0.1094 -1.0345
15676SOL    HW249282   7.763   4.776   0.420  1.2288 -1.2814  1.4651
15677SOL     OW49283   8.440   1.079  10.544  0.4005 -0.3190  0.0868
15677SOL    HW149284   8.528   1.041  10.544  0.3061 -0.6225 -1.3894
15677SOL    HW249285   8.389   1.018  10.491 -0.8017 -0.3329  1.2114
15678SOL     OW49286   4.466  10.501   6.401 -0.3028 -0.2272  0.3976
15678SOL    HW149287   4.411  10.458   6.467 -1.2785  0.7311  0.2296
15678SOL    HW249288   4.554  10.494   6.436 -0.8526  0.6609  2.0532
15679SOL     OW49289  10.537   3.823   3.613  0.4748  0.2793 -0.0048
15679SOL    HW149290  10.529   3.826   3.518 -0.7605  0.5050  0.0902
15679SOL    HW249291  10.448   3.839   3.645  1.0804  1.4103  1.2061
15680SOL     OW49292   1.480   2.479  10.180 -0.0072  0.0233 -0.2732
15680SOL    HW149293   1.392   2.491  10.144 -0.1246 -1.1371 -0.4343
15680SOL    HW249294   1.482   2.386  10.205  1.0420  0.1354  0.0892
15681SOL     OW49295   8.438   9.899   9.554  0.0675 -0.2857  0.0970
15681SOL    HW149296   8.385   9.958   9.499  1.2352  0.2003 -0.5537
15681SOL    HW249297   8.376   9.835   9.587 -0.5621 -1.2665 -2.6893
15682SOL     OW49298   2.933   4.421   0.902 -0.1568 -0.4329 -0.2432
15682SOL    HW149299   3.028   4.407   0.903  0.0878  1.0854 -0.0035
15682SOL    HW249300   2.898   4.342   0.943  0.9791 -1.1292 -0.5457
15683SOL     OW49301   2.893   3.680   4.852 -0.1802 -0.5615  0.8466
15683SOL    HW149302   2.918   3.771   4.866 -2.4173  0.4326 -0.8971
15683SOL    HW249303   2.852   3.653   4.934 -1.1730  0.6505  0.7678
15684SOL     OW49304   2.773   9.834  10.520 -0.3920 -0.6239  0.0667
15684SOL    HW149305   2.794   9.895  10.449 -1.8871 -0.7621 -0.5397
15684SOL    HW249306   2.783   9.886  10.600 -1.1437  0.3051 -0.4173
15685SOL     OW49307   6.396   2.633   1.071  0.0168  0.3131 -0.3560
15685SOL    HW149308   6.455   2.679   1.131 -1.5992  1.2920  0.5591
15685SOL    HW249309   6.391   2.690   0.994 -0.3659  0.6377 -0.0923
15686SOL     OW49310   7.532   5.038   6.504 -0.0974 -0.5829 -0.1629
15686SOL    HW149311   7.480   4.966   6.539 -0.6873 -0.2716 -0.3901
15686SOL    HW249312   7.545   5.015   6.412 -1.9256  0.5100 -0.7403
15687SOL     OW49313   2.922   8.484   1.704  0.3529 -0.0842  0.0307
15687SOL    HW149314   2.845   8.454   1.752  0.1841  0.7371  0.2920
15687SOL    HW249315   2.992   8.425   1.731 -0.3218 -1.2586 -0.7124
15688SOL     OW49316  10.558   4.883   0.714 -0.3043  0.5566 -0.2977
15688SOL    HW149317  10.530   4.861   0.625 -1.1406  0.3530  0.0051
15688SOL    HW249318  10.552   4.801   0.762 -3.4430  1.3123  0.8418
15689SOL     OW49319   0.449   3.816   2.587 -0.1369 -0.0910  0.1164
15689SOL    HW149320   0.394   3.743   2.616 -1.8618  0.2813 -2.0012
15689SOL    HW249321   0.507   3.778   2.521  1.1618 -0.1555  1.2556
15690SOL     OW49322   8.968   8.963   8.577  0.6693  0.1203 -0.1829
15690SOL    HW149323   9.020   8.895   8.621 -2.8976 -2.9307 -0.2015
15690SOL    HW249324   8.931   9.015   8.649 -1.2298 -1.7859  0.3279
15691SOL     OW49325   6.354   1.413   8.475 -0.0599 -0.8225  0.2083
15691SOL    HW149326   6.288   1.469   8.516  0.7342  0.6588 -0.4614
15691SOL    HW249327   6.322   1.324   8.489 -1.6122 -0.1933  0.8833
15692SOL     OW49328   7.400   9.597   3.368  0.2454  0.3656  0.2608
15692SOL    HW149329   7.458   9.556   3.303 -0.2554  0.1098 -0.0373
15692SOL    HW249330   7.342   9.526   3.395 -0.7619  0.9224 -0.3984
15693SOL     OW49331   4.202   1.416   1.762 -0.1616 -0.1543  0.2968
15693SOL    HW149332   4.126   1.381   1.715  0.2362  0.4274 -0.8431
15693SOL    HW249333   4.168   1.441   1.848 -1.5287  1.1230 -0.5635
15694SOL     OW49334   1.598   6.331   8.076 -0.1078  0.4564 -0.2559
15694SOL    HW149335   1.664   6.382   8.028 -1.6119  2.0091 -0.7889
15694SOL    HW249336   1.580   6.384   8.154 -0.2062 -0.3227  0.2565
15695SOL     OW49337   5.401   2.832   2.442 -0.4821  0.2781 -0.5344
15695SOL    HW149338   5.440   2.872   2.364 -1.0176  0.4363 -0.7237
15695SOL    HW249339   5.364   2.906   2.490  0.0959  0.2142  0.0165
15696SOL     OW49340   5.280   8.905   1.184 -0.3965 -0.8432  0.2649
15696SOL    HW149341   5.205   8.950   1.221  0.5177  0.0170  1.1563
15696SOL    HW249342   5.355   8.961   1.206  0.1975  0.1043 -3.3937
15697SOL     OW49343   7.553   2.280   6.761  0.1428  0.3078 -0.7950
15697SOL    HW149344   7.502   2.237   6.692  0.0612  1.2820 -1.3661
15697SOL    HW249345   7.487   2.324   6.816  0.1313 -1.2034  0.4680
15698SOL     OW49346   3.879   3.226   8.290 -0.0193 -0.0160  0.5228
15698SOL    HW149347   3.915   3.184   8.212  0.6614  0.8735  0.3397
15698SOL    HW249348   3.833   3.156   8.336 -0.7305 -0.5005 -0.8436
15699SOL     OW49349   9.579   6.473   2.405 -0.0640 -0.0793 -0.5132
15699SOL    HW149350   9.577   6.425   2.487 -2.4943  0.9624  0.1231
15699SOL    HW249351   9.581   6.405   2.337  0.1232 -0.9911  0.3847
15700SOL     OW49352   2.675   0.001   8.597  0.3790  0.0433  0.4921
15700SOL    HW149353   2.760  -0.001   8.554 -0.3568 -0.9067 -0.9887
15700SOL    HW249354   2.688   0.057   8.673  2.2146  0.2450  0.0679
15701SOL     OW49355   1.870   7.795  10.384 -0.2159 -0.0972 -0.4252
15701SOL    HW149356   1.844   7.882  10.414 -0.3712 -0.1755 -0.3304
15701SOL    HW249357   1.827   7.784  10.300 -0.7763 -0.3657 -0.1079
15702SOL     OW49358   1.895   3.236   9.485  0.2444 -0.9353  0.3114
15702SOL    HW149359   1.968   3.286   9.521 -0.0296 -0.9293  0.8681
15702SOL    HW249360   1.818   3.267   9.534 -0.4361  0.3249 -1.4557
15703SOL     OW49361   0.513  10.243   6.789  0.4308  0.1078 -0.0176
15703SOL    HW149362   0.448  10.312   6.774  0.6186  0.2994  0.0427
15703SOL    HW249363   0.465  10.176   6.836 -0.1379 -0.4401 -1.3129
15704SOL     OW49364   2.233  10.267   2.496 -0.4838  0.0722 -0.1905
15704SOL    HW149365   2.281  10.306   2.424  0.2047  1.7127  1.1057
15704SOL    HW249366   2.269  10.178   2.504  0.2897  0.2943 -1.0758
15705SOL     OW49367   6.498   2.357   3.827  0.1341 -0.0322  0.1894
15705SOL    HW149368   6.542   2.318   3.751  1.8115 -1.7015  1.9103
15705SOL    HW249369   6.406   2.333   3.815  0.0959  1.0139 -2.0234
15706SOL     OW49370   4.394   1.076   7.958 -0.5864  0.4335 -0.0530
15706SOL    HW149371   4.319   1.017   7.949 -0.0050 -0.5826  1.3667
15706SOL    HW249372   4.382   1.117   8.044  1.5317 -1.3840  1.2181
15707SOL     OW49373   6.162   1.542   9.245 -0.0312 -0.7408 -0.5066
15707SOL    HW149374   6.226   1.571   9.310  0.5605 -0.9345 -0.9975
15707SOL    HW249375   6.192   1.455   9.218 -0.4047 -0.7628 -0.8708
15708SOL     OW49376   1.883   2.059   5.385  0.0843 -0.6438 -0.7703
15708SOL    HW149377   1.794   2.025   5.377 -0.2380 -0.2049  0.6550
15708SOL    HW249378   1.924   2.005   5.452  0.0829  0.7051  0.3615
15709SOL     OW49379   6.284   8.353   2.795  0.0860  0.0577  0.2585
15709SOL    HW149380   6.300   8.410   2.720 -1.1697  0.0664 -0.0307
15709SOL    HW249381   6.312   8.404   2.871 -0.3970  0.8016 -0.0501
15710SOL     OW49382   1.081   7.734   2.140  0.5771  0.6664 -0.5065
15710SOL    HW149383   1.118   7.684   2.213  2.8840  0.3242 -1.8401
15710SOL    HW249384   1.036   7.808   2.182  3.1444  1.3485  1.2474
15711SOL     OW49385   1.249   1.194   9.850 -0.3171  0.0564  0.4246
15711SOL    HW149386   1.154   1.180   9.852 -0.4822  1.1871  1.2860
15711SOL    HW249387   1.284   1.131   9.912 -0.5818  0.1477  0.6678
15712SOL     OW49388   8.096   5.588   7.014  0.0946  0.2538 -0.0270
15712SOL    HW149389   8.117   5.671   6.972 -0.2315  0.4896  0.2671
15712SOL    HW249390   8.001   5.583   7.012 -0.0227  0.8365  1.6934
15713SOL     OW49391   8.622   9.719   8.771 -0.4133  0.6147  0.3683
15713SOL    HW149392   8.563   9.665   8.719 -0.7454  1.9305 -0.6845
15713SOL    HW249393   8.576   9.802   8.781  0.8152  1.3121  0.4336
15714SOL     OW49394   1.126   1.686   5.655  0.1918  0.4381  0.2343
15714SOL    HW149395   1.101   1.655   5.568 -0.0896 -1.1967  0.8586
15714SOL    HW249396   1.063   1.755   5.676  0.0680  0.6168 -0.7178
15715SOL     OW49397   5.379   8.321   2.284  0.5495  0.1657  0.6001
15715SOL    HW149398   5.392   8.289   2.195 -0.8496 -0.3880  0.5637
15715SOL    HW249399   5.354   8.243   2.334 -2.3734  0.9790  0.6239
15716SOL     OW49400   9.176   1.481   3.568  0.2227  0.7368  0.6887
15716SOL    HW149401   9.129   1.452   3.490 -1.0474  2.3529  0.8075
15716SOL    HW249402   9.226   1.404   3.595  0.3204 -0.0144 -1.4117
15717SOL     OW49403   8.270   0.402   5.520 -0.7779  0.2884  0.1410
15717SOL    HW149404   8.308   0.416   5.607 -0.1827  2.0031 -0.3606
15717SOL    HW249405   8.272   0.307   5.508  0.5188  0.1263  1.3821
15718SOL     OW49406   0.296   1.830   9.223 -0.3625  0.3077  0.2941
15718SOL    HW149407   0.378   1.812   9.269  0.0295  1.4970  0.0884
15718SOL    HW249408   0.247   1.886   9.283 -0.8520 -0.0517  0.2358
15719SOL     OW49409   5.548   1.226   1.518 -0.1188  0.6296 -0.1398
15719SOL    HW149410   5.604   1.184   1.454 -1.2245  0.1843 -0.8419
15719SOL    HW249411   5.606   1.285   1.566  0.7873  0.7199 -1.3195
15720SOL     OW49412   6.643   7.804   4.990 -0.0765 -0.4075  0.1222
15720SOL    HW149413   6.597   7.856   4.924 -2.2276 -1.9811  0.2962
15720SOL    HW249414   6.720   7.770   4.943  0.0956  0.9676 -0.6493
15721SOL     OW49415   3.447   3.009   6.541  0.0408 -0.0108 -0.0531
15721SOL    HW149416   3.538   2.990   6.564 -0.2180  0.6702  1.7571
15721SOL    HW249417   3.412   2.927   6.506  1.0948 -0.5359  0.1023
15722SOL     OW49418  10.468   2.522   4.414 -0.1660 -0.5338  0.0305
15722SOL    HW149419  10.396   2.578   4.387  1.1315  1.5949  0.6802
15722SOL    HW249420  10.479   2.541   4.508  0.7923 -1.3077  0.0889
15723SOL     OW49421   2.390   7.133  10.602  0.3054  0.1840 -0.4167
15723SOL    HW149422   2.439   7.055  10.578  0.0936 -0.5637  1.3740
15723SOL    HW249423   2.303   7.101  10.623  0.5872  0.6227  1.6880
15724SOL     OW49424   9.378   5.485   0.869 -0.2315  0.1575 -0.0251
15724SOL    HW149425   9.390   5.443   0.954 -0.0254  0.3276  0.0290
15724SOL    HW249426   9.362   5.577   0.889  0.2757  0.2815 -0.1938
15725SOL     OW49427   6.348   2.034   0.401  0.0342 -0.0492 -0.1821
15725SOL    HW149428   6.300   1.997   0.475  0.8503  0.4555  0.6135
15725SOL    HW249429   6.358   1.960   0.341 -0.7661 -0.4266  0.1289
15726SOL     OW49430   3.482   6.394   3.465 -0.2721  0.1412  0.4043
15726SOL    HW149431   3.389   6.370   3.467 -0.6445  1.4877  2.2981
15726SOL    HW249432   3.514   6.373   3.553  0.7855  1.2814  0.3194
15727SOL     OW49433   4.319   4.256   3.288 -0.1361  0.1377  0.4721
15727SOL    HW149434   4.284   4.226   3.372  0.4527 -0.8058  0.3997
15727SOL    HW249435   4.376   4.184   3.259 -1.4040 -0.1788 -1.4104
15728SOL     OW49436   5.486   1.736   7.976  0.0942 -0.3564  0.7692
15728SOL    HW149437   5.432   1.661   8.001  0.2647 -1.1120 -0.9667
15728SOL    HW249438   5.423   1.806   7.959 -0.4064 -1.2122 -1.1804
15729SOL     OW49439   7.110   5.949   7.887 -0.1788 -0.0645 -0.5239
15729SOL    HW149440   7.020   5.977   7.904 -0.1910 -0.9597  1.0079
15729SOL    HW249441   7.165   6.014   7.931 -0.0888  0.0132 -0.7483
15730SOL     OW49442   9.572   1.078   8.404  0.1838 -0.3355  0.1596
15730SOL    HW149443   9.614   1.129   8.335 -1.5988 -0.8567 -1.3875
15730SOL    HW249444   9.639   1.015   8.432  1.6044  1.2214  0.4049
15731SOL     OW49445  10.442   8.997   3.300  0.1026 -0.4747  0.0438
15731SOL    HW149446  10.404   8.909   3.303 -0.1540 -0.3638  0.0835
15731SOL    HW249447  10.520   8.991   3.357  1.1674 -1.1755 -1.4200
15732SOL     OW49448   1.185   5.907   2.790 -0.2117 -0.1398  0.1281
15732SOL    HW149449   1.208   5.837   2.851  0.8348 -0.6465 -0.8049
15732SOL    HW249450   1.268   5.950   2.769 -0.8281  1.4050  0.6693
15733SOL     OW49451   1.583   4.067   2.377  0.0237 -0.5526 -0.4004
15733SOL    HW149452   1.525   4.143   2.381  0.5900 -0.1631  0.8130
15733SOL    HW249453   1.612   4.064   2.286 -2.4023 -1.1798 -1.2357
15734SOL     OW49454   6.278   2.475   0.058 -0.0036 -0.0631 -0.2911
15734SOL    HW149455   6.354   2.453   0.005 -0.1850 -1.7369  0.1087
15734SOL    HW249456   6.311   2.478   0.148 -0.4703 -1.1512 -0.0770
15735SOL     OW49457   6.096   9.473   5.123  0.1440 -0.4542 -0.1855
15735SOL    HW149458   6.089   9.487   5.029  0.3816  0.6617 -0.0605
15735SOL    HW249459   6.005   9.478   5.154  0.2125  1.1758 -0.1361
15736SOL     OW49460   5.958   5.930   2.615 -0.4018 -0.3643  0.0233
15736SOL    HW149461   5.879   5.930   2.668  1.1304 -1.1537  2.4879
15736SOL    HW249462   5.983   6.022   2.608 -1.8316 -0.0475 -1.3373
15737SOL     OW49463   2.107   1.351   8.195 -0.5030 -0.2264  0.3333
15737SOL    HW149464   2.049   1.417   8.155 -0.5574 -0.1439  0.5456
15737SOL    HW249465   2.048   1.294   8.244 -0.2592  0.9860  2.1577
15738SOL     OW49466   0.275   8.320   9.665  0.1440  0.0834 -0.1620
15738SOL    HW149467   0.245   8.348   9.578 -0.6117  0.8269  0.3212
15738SOL    HW249468   0.367   8.299   9.653 -0.3405 -1.4754 -1.5255
15739SOL     OW49469   5.683   3.793   6.973  0.1690  0.0093  0.0083
15739SOL    HW149470   5.759   3.787   6.915  0.3054 -0.1108  0.1984
15739SOL    HW249471   5.710   3.856   7.041  0.4737 -0.7968  0.6464
15740SOL     OW49472   3.716   5.033   4.539  0.1551 -0.7674  0.2003
15740SOL    HW149473   3.638   5.070   4.579 -0.1620  0.2198 -1.2571
15740SOL    HW249474   3.789   5.065   4.593 -0.3421 -0.5071  0.7243
15741SOL     OW49475   3.233  10.624   6.255 -0.1086 -0.0722 -0.7246
15741SOL    HW149476   3.239  10.528   6.249 -1.3349 -0.2098 -0.1502
15741SOL    HW249477   3.140  10.642   6.238 -0.4670  0.7753  1.7597
15742SOL     OW49478   6.514   0.143   1.368 -0.2093  0.0271 -0.4357
15742SOL    HW149479   6.481   0.208   1.430  1.3711 -2.2484  3.0439
15742SOL    HW249480   6.603   0.172   1.348 -0.9246  1.1120 -2.3640
15743SOL     OW49481   2.400   6.119   2.437 -0.4387  0.3393  0.4077
15743SOL    HW149482   2.433   6.035   2.470 -0.6521 -0.1264 -0.5262
15743SOL    HW249483   2.373   6.100   2.347  1.1882  1.8351 -0.4346
15744SOL     OW49484  10.119   6.723   3.939  0.2420  0.2237 -0.2551
15744SOL    HW149485  10.071   6.709   3.857 -0.9886 -0.3374  0.5284
15744SOL    HW249486  10.158   6.810   3.929  0.5998 -0.0725 -1.6556
15745SOL     OW49487   2.820  10.022   8.449  0.4575  0.0123 -0.0585
15745SOL    HW149488   2.869   9.947   8.483 -0.1010 -0.0986  0.5102
15745SOL    HW249489   2.769  10.053   8.523 -1.8327 -1.0700 -1.0980
15746SOL     OW49490   1.018   2.742   8.477 -0.2083 -0.5258 -1.2429
15746SOL    HW149491   1.039   2.650   8.493 -2.5280 -1.2813 -2.1055
15746SOL    HW249492   0.964   2.767   8.551 -0.1148 -0.0497 -1.3345
15747SOL     OW49493  10.410   7.621   9.548  0.4299 -0.7053  0.5540
15747SOL    HW149494  10.386   7.580   9.631 -0.3981 -2.3799 -0.4407
15747SOL    HW249495  10.332   7.612   9.494  0.9087  0.4651 -0.3696
15748SOL     OW49496   0.197   5.118   8.473 -0.6185 -0.0175 -0.2403
15748SOL    HW149497   0.270   5.177   8.456  0.1638 -1.2271 -1.2464
15748SOL    HW249498   0.223   5.070   8.552  0.4569 -1.5394 -1.4472
15749SOL     OW49499   2.421   0.749   3.696 -0.0191 -0.4537 -0.1149
15749SOL    HW149500   2.410   0.678   3.633 -3.5269  0.4011 -0.6817
15749SOL    HW249501   2.439   0.706   3.779  2.0212 -1.7269 -1.1299
15750SOL     OW49502   9.117   3.839   8.018 -0.6817  0.4800 -0.0998
15750SOL    HW149503   9.096   3.877   7.933  1.5502  1.0261 -0.4784
15750SOL    HW249504   9.096   3.746   8.009  0.2730  0.3703 -1.5620
15751SOL     OW49505   0.777   7.325   7.171  0.3986  0.1432 -0.2288
15751SOL    HW149506   0.685   7.351   7.179  0.0921 -0.9141 -0.1850
15751SOL    HW249507   0.784   7.290   7.082  0.0995 -2.1670  0.5880
15752SOL     OW49508   0.805  10.486   5.212  0.2806 -0.0826 -0.3734
15752SOL    HW149509   0.715  10.515   5.225  0.0507 -0.7580 -0.4205
15752SOL    HW249510   0.828  10.517   5.124  0.2898  0.5649 -0.1494
15753SOL     OW49511   7.867   5.936  10.427 -0.1708 -0.7852 -0.4056
15753SOL    HW149512   7.938   5.958  10.486 -0.1440 -1.2652 -0.2514
15753SOL    HW249513   7.891   5.976  10.343  0.2587 -0.9067 -0.3432
15754SOL     OW49514  10.106   0.564   8.428  0.3129 -0.0341  0.2642
15754SOL    HW149515  10.022   0.592   8.391  0.0437 -0.6936  0.3504
15754SOL    HW249516  10.124   0.627   8.497 -0.4340 -0.2485  0.6676
15755SOL     OW49517   4.941   0.248   8.524 -0.0920 -0.1120 -0.2749
15755SOL    HW149518   4.991   0.201   8.457  0.5569  0.5846 -0.2924
15755SOL    HW249519   4.949   0.193   8.602  1.6013  0.4894  0.0121
15756SOL     OW49520   2.703   0.586   8.456 -0.4072  0.1283  0.6562
15756SOL    HW149521   2.690   0.679   8.436  0.2683  0.5398  2.0069
15756SOL    HW249522   2.623   0.559   8.501 -0.5965  0.0453  0.2779
15757SOL     OW49523   0.387   9.060   6.924 -0.0585  0.1196  0.9862
15757SOL    HW149524   0.461   9.003   6.945  1.4611  1.1301 -1.2393
15757SOL    HW249525   0.354   9.028   6.840  0.7950  2.3548 -0.2943
15758SOL     OW49526   9.609   9.955   3.784  0.0306 -0.2453 -0.1649
15758SOL    HW149527   9.617   9.915   3.870 -0.6937 -1.3845 -0.6140
15758SOL    HW249528   9.525   9.925   3.751  0.0262  0.6659 -1.0318
15759SOL     OW49529   0.437   6.287   2.619 -0.0344 -0.4013 -0.4824
15759SOL    HW149530   0.452   6.307   2.712 -0.1244 -1.0553 -0.3273
15759SOL    HW249531   0.354   6.330   2.599 -0.6681 -1.3262  0.0830
15760SOL     OW49532   9.044   1.285   7.282  0.7954 -0.1351 -0.0580
15760SOL    HW149533   9.008   1.232   7.352 -0.1054 -0.3160 -0.6384
15760SOL    HW249534   9.084   1.222   7.222  0.6569 -0.0782 -0.2130
15761SOL     OW49535   0.102   0.359   1.841 -0.3010  0.0398 -0.3446
15761SOL    HW149536   0.129   0.404   1.921  1.0464  1.0637 -1.3247
15761SOL    HW249537   0.025   0.407   1.811 -0.0508  0.4677 -0.3175
15762SOL     OW49538   9.199   2.507   4.852 -0.2642 -0.5897  0.4213
15762SOL    HW149539   9.203   2.575   4.920  0.7735 -1.0047  0.7973
15762SOL    HW249540   9.185   2.426   4.900  1.5625 -1.0333  0.2680
15763SOL     OW49541   8.625   3.537   8.255 -0.1018  0.1431 -0.7195
15763SOL    HW149542   8.628   3.554   8.349 -0.3669  0.2317 -0.7254
15763SOL    HW249543   8.647   3.621   8.215  1.2918 -0.1944 -0.7350
15764SOL     OW49544   8.584   6.286   5.871 -0.2212  0.2297  0.1286
15764SOL    HW149545   8.654   6.278   5.806 -0.8696  1.2152 -0.7300
15764SOL    HW249546   8.602   6.216   5.934  0.0658 -1.2096 -1.4633
15765SOL     OW49547   1.214   0.776   9.542 -0.4656 -0.2133  0.1968
15765SOL    HW149548   1.222   0.871   9.536 -1.9145 -0.0153  0.9685
15765SOL    HW249549   1.245   0.744   9.457  0.8131  0.8717  0.2237
15766SOL     OW49550   7.154   5.011   6.868 -0.3165 -0.0184  0.1586
15766SOL    HW149551   7.133   4.917   6.866 -0.3958  0.0171 -1.0989
15766SOL    HW249552   7.211   5.025   6.793  1.8597  0.4753  1.7968
15767SOL     OW49553   9.931   9.476   0.245 -0.1558  0.0742 -0.3978
15767SOL    HW149554   9.966   9.391   0.272 -0.0396  0.0938 -0.4837
15767SOL    HW249555   9.919   9.525   0.326 -0.4276 -0.1022 -0.3306
15768SOL     OW49556   4.699   2.947  10.460 -0.4868  0.2976 -0.7267
15768SOL    HW149557   4.626   2.988  10.507 -1.2132 -2.5911  0.9604
15768SOL    HW249558   4.777   2.975  10.508 -1.0467 -0.8581  0.9852
15769SOL     OW49559   7.522   1.978   4.202  0.0169  0.0553  0.0553
15769SOL    HW149560   7.465   2.053   4.183  0.4996  0.7014  1.0810
15769SOL    HW249561   7.585   1.977   4.130  1.0780  1.7205  0.9124
15770SOL     OW49562   2.345   5.800  10.593 -0.8135  0.1171 -0.9094
15770SOL    HW149563   2.262   5.753  10.602 -0.5332 -0.0193  1.6996
15770SOL    HW249564   2.320   5.888  10.566 -1.6442 -0.4186 -1.9426
15771SOL     OW49565   7.726   8.441   3.346 -0.5454 -0.2272 -0.0540
15771SOL    HW149566   7.783   8.389   3.289 -1.2358 -0.1951 -0.8001
15771SOL    HW249567   7.682   8.502   3.286 -1.9138 -0.7488  0.3661
15772SOL     OW49568   2.382   7.965   5.725  0.4850 -0.3692 -0.1418
15772SOL    HW149569   2.346   7.954   5.813  0.0060  0.2401 -0.2557
15772SOL    HW249570   2.306   7.957   5.667  0.3886  1.5252 -0.3503
15773SOL     OW49571   8.629   3.287   6.738  0.1356 -0.4471 -0.1308
15773SOL    HW149572   8.720   3.306   6.712  0.5802 -0.5091  1.3063
15773SOL    HW249573   8.628   3.300   6.832 -1.8154  1.3379 -0.3244
15774SOL     OW49574   3.457   3.232   9.390  0.2364  0.7534 -0.1157
15774SOL    HW149575   3.460   3.154   9.446  2.3278  1.5746  1.0202
15774SOL    HW249576   3.371   3.270   9.408  0.2097  0.1121  1.3142
15775SOL     OW49577  10.158   1.391   1.687 -0.1723  0.0925 -0.1768
15775SOL    HW149578  10.182   1.312   1.735  1.4737  0.8466  0.3045
15775SOL    HW249579  10.134   1.454   1.756 -0.5050  0.3356 -0.5055
15776SOL     OW49580   5.721   4.062   7.204  0.1227 -0.6092 -0.3851
15776SOL    HW149581   5.720   4.048   7.299  0.9940  2.7147  0.2577
15776SOL    HW249582   5.631   4.047   7.176 -0.0996 -1.8743  0.8913
15777SOL     OW49583   3.757   3.311   1.005 -0.7311  0.3614  0.1991
15777SOL    HW149584   3.676   3.334   0.959  0.4358 -0.4124 -2.4241
15777SOL    HW249585   3.801   3.249   0.947  1.3280  0.0467  1.9726
15778SOL     OW49586   0.387   7.525   1.224 -0.0895 -0.2419  0.1371
15778SOL    HW149587   0.360   7.561   1.139  1.3958 -3.1397 -1.7446
15778SOL    HW249588   0.325   7.454   1.240  2.0001 -2.3798 -0.7012
15779SOL     OW49589   2.988   2.030   7.732 -0.2052 -0.1463  0.2237
15779SOL    HW149590   2.939   2.079   7.798  0.2106 -0.0493  0.4718
15779SOL    HW249591   3.065   1.997   7.780 -0.2523 -0.6611 -0.0485
15780SOL     OW49592   7.823   0.887   4.357  0.3745  0.0739 -0.4802
15780SOL    HW149593   7.883   0.908   4.285 -0.1495  0.6410 -0.7557
15780SOL    HW249594   7.858   0.806   4.394  0.4326 -0.4241 -1.6023
15781SOL     OW49595   0.329   2.468   6.851 -0.0109 -0.8782  0.0709
15781SOL    HW149596   0.342   2.386   6.803 -0.1671 -0.2638 -1.0588
15781SOL    HW249597   0.398   2.526   6.819 -1.1454  0.0950 -0.6992
15782SOL     OW49598   2.035   1.586   6.499  0.2363 -0.6778  0.0972
15782SOL    HW149599   1.968   1.638   6.544 -2.7674 -2.7616 -1.6370
15782SOL    HW249600   2.027   1.610   6.407  2.0197 -0.9331 -0.1614
15783SOL     OW49601   7.692   4.842   7.885  0.2094 -0.0547  0.1997
15783SOL    HW149602   7.645   4.869   7.963  1.5403 -1.5695  1.6047
15783SOL    HW249603   7.638   4.773   7.847 -1.1120  1.5830 -1.0553
15784SOL     OW49604   8.880   5.528   3.431 -0.2833  0.7804  0.1387
15784SOL    HW149605   8.798   5.499   3.471 -0.2979  1.1872  0.4157
15784SOL    HW249606   8.855   5.555   3.343 -0.8643  2.8602  0.8750
15785SOL     OW49607   9.056   5.359   3.524  0.2080 -0.1730  0.2281
15785SOL    HW149608   8.993   5.429   3.506  0.6509  0.1700  0.0220
15785SOL    HW249609   9.142   5.400   3.515  0.4878 -0.9284 -0.6526
15786SOL     OW49610   6.070   0.858   9.324  0.4373  0.1814  0.2587
15786SOL    HW149611   6.121   0.930   9.288  1.4039 -0.3899  0.4672
15786SOL    HW249612   6.121   0.779   9.304 -0.3134 -0.3906  0.5509
15787SOL     OW49613   0.053   7.204   7.582 -0.5943 -0.2246 -0.2616
15787SOL    HW149614   0.088   7.225   7.669  0.7948  0.6798 -0.9942
15787SOL    HW249615   0.095   7.121   7.558 -2.2294 -1.3501  0.5555
15788SOL     OW49616   0.792   1.781   7.858  0.0636  0.4843 -0.0563
15788SOL    HW149617   0.747   1.861   7.884 -1.5047 -0.3761  0.0413
15788SOL    HW249618   0.804   1.733   7.940 -2.5521 -1.0737 -0.4517
15789SOL     OW49619   7.451   6.380   1.881  0.6143  0.3794 -0.5182
15789SOL    HW149620   7.375   6.384   1.939 -0.8459 -1.1543 -2.1879
15789SOL    HW249621   7.421   6.423   1.800  1.3949 -0.5123 -1.3030
15790SOL     OW49622   5.161   8.091   3.903  0.1358  0.5820 -0.4181
15790SOL    HW149623   5.168   8.086   3.807  0.4314 -1.6617 -0.3329
15790SOL    HW249624   5.070   8.071   3.921  0.2059  0.4489 -0.2084
15791SOL     OW49625   7.441   5.287   5.895 -0.0028  0.3394 -0.4308
15791SOL    HW149626   7.357   5.324   5.922 -0.8181 -1.7553  0.1101
15791SOL    HW249627   7.423   5.245   5.811  0.4313 -0.2961 -0.2133
15792SOL     OW49628   4.327   2.768   4.359  0.2250 -0.4563 -0.1703
15792SOL    HW149629   4.313   2.696   4.297  1.0234 -1.4618  0.7707
15792SOL    HW249630   4.240   2.785   4.395 -0.2417  0.1049 -1.4882
15793SOL     OW49631   0.239   5.970   2.812 -0.0988  0.2781 -0.1276
15793SOL    HW149632   0.331   5.945   2.822 -0.3536 -0.2663  0.9958
15793SOL    HW249633   0.216   5.940   2.724  0.7545  0.3031 -0.3725
15794SOL     OW49634   7.003   5.692   0.864  0.0912  0.4107  0.2143
15794SOL    HW149635   7.075   5.641   0.827  0.7380  1.4776 -0.0620
15794SOL    HW249636   6.958   5.729   0.787  1.3106  2.4696  0.4181
15795SOL     OW49637   2.152   3.439   0.921  0.6814 -0.0376  0.2940
15795SOL    HW149638   2.220   3.469   0.861  0.8032 -0.2464  0.3286
15795SOL    HW249639   2.122   3.356   0.884  2.8007 -1.7191  2.0758
15796SOL     OW49640   3.025   8.122   2.451  0.2221 -0.1531 -0.5480
15796SOL    HW149641   3.062   8.205   2.420  0.1397  0.6128  1.2523
15796SOL    HW249642   2.931   8.134   2.445  0.1925  0.2608  0.5792
15797SOL     OW49643   4.866   9.226   7.016  0.2099  0.1595  0.2277
15797SOL    HW149644   4.961   9.231   7.024  0.1447 -1.0678  2.7276
15797SOL    HW249645   4.838   9.168   7.087 -2.3530 -0.1819 -0.9232
15798SOL     OW49646   9.277   3.152  10.043 -0.0970 -0.0948  0.0066
15798SOL    HW149647   9.371   3.169  10.052 -0.1531  0.4459 -0.4118
15798SOL    HW249648   9.254   3.106  10.123  0.1650  1.3060  0.9184
15799SOL     OW49649   6.337   8.608   1.076 -0.4599 -0.2255  0.4607
15799SOL    HW149650   6.289   8.603   1.159  2.9786  0.8333  2.7233
15799SOL    HW249651   6.336   8.702   1.054 -1.8012 -0.5604 -1.0949
15800SOL     OW49652   6.908   8.318   9.392 -0.3480 -0.1325  0.0046
15800SOL    HW149653   6.886   8.303   9.300 -1.4740 -0.6876  0.3504
15800SOL    HW249654   6.847   8.387   9.420  1.3315  1.5232 -0.1761
15801SOL     OW49655   2.551   2.782   2.181 -0.0838 -0.2692  0.4463
15801SOL    HW149656   2.473   2.833   2.205 -0.0953 -0.4100  0.7058
15801SOL    HW249657   2.559   2.717   2.250  2.0642  1.6525  2.1504
15802SOL     OW49658   4.415   1.099   4.152 -0.0437  0.7837  0.0267
15802SOL    HW149659   4.439   1.119   4.242  2.1082 -0.2259 -0.2799
15802SOL    HW249660   4.387   1.007   4.155  0.0069  0.7574 -0.3443
15803SOL     OW49661   2.047   9.950   1.349  0.3485 -0.0008 -0.8693
15803SOL    HW149662   2.020  10.042   1.347 -0.2052 -0.1644 -1.0743
15803SOL    HW249663   2.060   9.926   1.258  0.0667 -0.2444 -0.8493
15804SOL     OW49664   2.402   7.006   0.297 -0.5759 -0.5084  0.2604
15804SOL    HW149665   2.367   6.977   0.213 -1.0007 -0.2079  0.3305
15804SOL    HW249666   2.497   7.000   0.287 -0.6230 -3.0916  0.6651
15805SOL     OW49667   6.290   7.729   5.750 -0.1352  0.0149 -0.0301
15805SOL    HW149668   6.262   7.659   5.691 -0.8056 -0.3148  0.6556
15805SOL    HW249669   6.218   7.792   5.749  0.1422  0.3349 -0.0778
15806SOL     OW49670   9.096   7.702   9.741  0.3881 -0.1903 -0.3543
15806SOL    HW149671   9.015   7.707   9.792  0.1561  1.5601 -0.8369
15806SOL    HW249672   9.111   7.791   9.710  3.8725  0.1819  1.8356
15807SOL     OW49673   9.641   1.133   3.609  0.2287  0.0874 -0.3824
15807SOL    HW149674   9.583   1.169   3.541 -0.5261 -0.4431 -0.0433
15807SOL    HW249675   9.581   1.091   3.671  0.9500  0.0394  0.2976
15808SOL     OW49676   7.162  10.077   1.537  0.2660  0.6936  0.7198
15808SOL    HW149677   7.218  10.044   1.466 -0.5899 -2.3467  1.3015
15808SOL    HW249678   7.116  10.151   1.498  1.7611  0.7976 -1.0241
15809SOL     OW49679  10.188   6.187   9.571  0.4409 -0.0406 -0.0176
15809SOL    HW149680  10.126   6.128   9.527  0.8513 -1.0450  0.7093
15809SOL    HW249681  10.216   6.248   9.502  0.7313 -1.2959 -1.0561
15810SOL     OW49682  10.334   7.792   7.994 -0.3471  0.2032 -0.2268
15810SOL    HW149683  10.350   7.776   7.901  0.8209  2.3195 -0.4505
15810SOL    HW249684  10.421   7.789   8.034 -0.8816 -1.2027  0.9395
15811SOL     OW49685   9.426  10.371   4.249  0.0480  0.4473  0.0052
15811SOL    HW149686   9.382  10.405   4.327  0.1698 -2.7576  1.6484
15811SOL    HW249687   9.356  10.334   4.197  0.2344  0.1649 -0.0481
15812SOL     OW49688   8.745   0.537   9.357  0.4145 -0.2543  0.1131
15812SOL    HW149689   8.687   0.519   9.283 -1.1141 -1.2390  1.4855
15812SOL    HW249690   8.705   0.611   9.402  2.3687  1.6143 -1.0206
15813SOL     OW49691   1.274   1.274   0.791 -0.3449  0.3232 -0.4019
15813SOL    HW149692   1.254   1.254   0.882 -0.4599  1.7639 -0.0779
15813SOL    HW249693   1.257   1.193   0.744  1.4586 -1.0082  1.0875
15814SOL     OW49694  10.598   7.692   3.119 -0.0049  0.0343  0.2132
15814SOL    HW149695  10.688   7.658   3.114 -0.7695 -2.0796 -0.4503
15814SOL    HW249696  10.587   7.741   3.038  0.4836  0.1103  0.1891
15815SOL     OW49697   6.640   9.743   1.236  0.3846  0.7572 -0.6064
15815SOL    HW149698   6.665   9.765   1.326  0.1217  1.5501 -0.7191
15815SOL    HW249699   6.720   9.707   1.197  0.8183  1.4600 -0.3888
15816SOL     OW49700   6.640  10.636   3.153  0.0217 -0.1912 -0.0227
15816SOL    HW149701   6.695  10.578   3.206  1.0391 -0.0086 -0.8281
15816SOL    HW249702   6.689  10.718   3.149 -2.1415  1.3848  2.4558
15817SOL     OW49703   6.661   8.293   6.522 -0.6292 -0.0384 -0.1900
15817SOL    HW149704   6.599   8.261   6.587  0.3791 -0.2116  0.7106
15817SOL    HW249705   6.743   8.248   6.543 -0.7518 -1.7554 -2.8755
15818SOL     OW49706   8.978   7.374   2.639  0.5206 -0.1973  0.2614
15818SOL    HW149707   9.064   7.402   2.670  1.4371 -2.3351 -0.1982
15818SOL    HW249708   8.968   7.417   2.554  0.2144  1.6349  1.1678
15819SOL     OW49709   5.900   9.597   9.248  0.5301  0.4199 -0.3248
15819SOL    HW149710   5.806   9.581   9.245  0.5175  0.0259  1.1587
15819SOL    HW249711   5.935   9.552   9.171 -0.3516 -0.5798 -0.1729
15820SOL     OW49712   2.679   6.649  10.322 -0.2192 -0.0313  0.0199
15820SOL    HW149713   2.591   6.636  10.356  0.0541 -0.6915  0.5017
15820SOL    HW249714   2.713   6.723  10.371 -0.0421 -0.6039  0.7800
15821SOL     OW49715   6.142   0.114   6.349 -0.5133 -0.3500  0.5780
15821SOL    HW149716   6.144   0.105   6.444 -0.7296 -1.9430  0.4569
15821SOL    HW249717   6.141   0.024   6.316  0.1112  0.1597 -0.9494
15822SOL     OW49718   6.996   4.718  10.375  0.2026  0.4763  0.2676
15822SOL    HW149719   7.060   4.766  10.428 -1.3965 -0.0524  2.8473
15822SOL    HW249720   6.911   4.748  10.407 -0.8326 -1.2754 -0.7123
15823SOL     OW49721   9.681   3.918   9.177  0.4602 -0.3106  0.0890
15823SOL    HW149722   9.755   3.873   9.136 -0.7213 -0.8204 -1.5767
15823SOL    HW249723   9.634   3.849   9.224  0.7646 -0.0693  0.7651
15824SOL     OW49724   2.848   7.943   7.736 -0.4542  0.1121  0.0843
15824SOL    HW149725   2.921   7.958   7.796 -0.5292  0.3489  0.1166
15824SOL    HW249726   2.784   8.011   7.758 -0.3864  0.3447 -0.4163
15825SOL     OW49727   8.521   6.550   3.024  0.0111  0.6349  0.0485
15825SOL    HW149728   8.599   6.603   3.042  0.0527  0.4669  0.3781
15825SOL    HW249729   8.515   6.548   2.929  0.7647  0.1485 -0.0039
15826SOL     OW49730  10.290   1.887   1.442  0.7482 -0.1633  0.1105
15826SOL    HW149731  10.347   1.960   1.420  1.1322 -0.7680 -0.9255
15826SOL    HW249732  10.341   1.834   1.504  0.2367  0.7419  1.3490
15827SOL     OW49733   5.321   7.132   2.799  0.6743  0.5522  0.2659
15827SOL    HW149734   5.332   7.038   2.808 -0.1184  0.4906  0.6576
15827SOL    HW249735   5.309   7.164   2.889  1.0017  1.0381  0.1440
15828SOL     OW49736   3.250   8.099   4.133  0.1861  0.2413 -0.1344
15828SOL    HW149737   3.158   8.077   4.117 -0.1044 -0.2851  1.9928
15828SOL    HW249738   3.246   8.174   4.192  1.0430 -1.2295  1.9032
15829SOL     OW49739   2.617   2.926  10.295 -0.0845  0.6341 -0.1829
15829SOL    HW149740   2.531   2.954  10.325  0.3414  2.0990 -0.2348
15829SOL    HW249741   2.624   2.962  10.206 -0.0439 -0.8551 -0.8104
15830SOL     OW49742   1.278   7.459   9.505 -0.2454  0.2662 -0.5427
15830SOL    HW149743   1.337   7.528   9.538  3.4897 -1.6772 -2.5002
15830SOL    HW249744   1.315   7.378   9.540 -1.7846 -1.1062 -1.9339
15831SOL     OW49745   3.068   1.219   7.206  0.6680  0.6239 -0.0350
15831SOL    HW149746   3.031   1.170   7.279  0.7883  0.1499 -0.2889
15831SOL    HW249747   3.163   1.214   7.219  0.6639  2.4877  1.0469
15832SOL     OW49748   0.992   2.922   9.345 -0.2832 -0.6791 -0.3804
15832SOL    HW149749   1.009   2.931   9.438  1.0015 -0.9709 -0.5610
15832SOL    HW249750   1.052   2.984   9.303 -0.5433 -0.8531 -1.0243
15833SOL     OW49751   2.445   2.416   7.269 -0.3682 -0.2051  0.1094
15833SOL    HW149752   2.533   2.380   7.258  0.5154  2.0834 -1.2265
15833SOL    HW249753   2.389   2.357   7.218  0.5987 -0.9840 -0.0968
15834SOL     OW49754   7.270   4.917   8.174  0.1799  0.2473  0.0126
15834SOL    HW149755   7.346   4.938   8.229  0.2032  3.9307 -1.1369
15834SOL    HW249756   7.210   4.871   8.232  1.2831  1.6386  2.4122
15835SOL     OW49757   6.395  10.027   7.314 -0.0162  0.2136 -0.3658
15835SOL    HW149758   6.357  10.101   7.267 -0.6176 -0.8340 -1.5919
15835SOL    HW249759   6.431   9.971   7.245  0.6495 -0.5202  0.5575
15836SOL     OW49760   3.698   0.177   3.513 -0.4340 -0.1940  0.2154
15836SOL    HW149761   3.705   0.124   3.434  0.3267 -0.6595  0.5917
15836SOL    HW249762   3.640   0.249   3.488  0.3081  0.0211 -0.9541
15837SOL     OW49763   6.740   1.103   6.205  0.0442 -0.4882 -0.2405
15837SOL    HW149764   6.684   1.045   6.257 -1.8406  1.4216 -0.0076
15837SOL    HW249765   6.732   1.189   6.246  3.2790 -0.0855 -0.1687
15838SOL     OW49766   5.168  10.431   7.560  0.2838  0.1905 -0.2414
15838SOL    HW149767   5.092  10.440   7.502  0.4317  0.0948 -0.4512
15838SOL    HW249768   5.143  10.362   7.622  0.8703 -1.1290 -1.4053
15839SOL     OW49769  10.530   5.296   4.376  0.0336 -0.4516 -0.0313
15839SOL    HW149770  10.594   5.230   4.349 -0.0563 -0.8212  0.6435
15839SOL    HW249771  10.446   5.251   4.372 -0.1646 -0.0490 -0.6338
15840SOL     OW49772   9.085   3.572   8.225  0.4157 -0.2074 -0.1528
15840SOL    HW149773   9.076   3.480   8.252  0.6357  0.0382  0.7883
15840SOL    HW249774   9.019   3.583   8.157 -2.6483  0.0143  2.5735
15841SOL     OW49775   5.959   5.066   6.769  0.4318 -0.0920 -0.0598
15841SOL    HW149776   5.945   5.009   6.693 -0.1729  0.6635 -0.5220
15841SOL    HW249777   5.999   5.145   6.733 -0.2303  0.4406  0.3443
15842SOL     OW49778   7.668   5.952   0.570 -0.1428 -0.0184  0.0729
15842SOL    HW149779   7.712   5.914   0.646  1.1845  0.6532 -0.3232
15842SOL    HW249780   7.598   5.890   0.549  0.1312 -0.7411  1.1913
15843SOL     OW49781   2.550   6.457   1.637 -0.1215  0.0948  0.0248
15843SOL    HW149782   2.632   6.502   1.620 -0.1793  0.0735 -0.3032
15843SOL    HW249783   2.574   6.384   1.695 -0.1149  0.8790  1.0440
15844SOL     OW49784   8.835   4.135   1.462 -0.6536  0.2717  0.0077
15844SOL    HW149785   8.904   4.100   1.406  1.5513  1.5494  1.7180
15844SOL    HW249786   8.769   4.167   1.402  1.4549  1.3414 -1.8940
15845SOL     OW49787   2.991   4.299   4.621 -0.4038  0.1880  0.6353
15845SOL    HW149788   3.031   4.309   4.534 -1.0079  1.1277  0.4617
15845SOL    HW249789   2.928   4.370   4.627  0.5919  0.9816  2.4034
15846SOL     OW49790   7.158   7.690   0.893 -0.1031  0.1926 -0.4158
15846SOL    HW149791   7.224   7.686   0.823  0.2232 -2.2039 -0.0392
15846SOL    HW249792   7.207   7.723   0.969  0.9721 -2.3781  0.0956
15847SOL     OW49793   7.523   9.671   1.926 -0.3259  0.4592  0.0686
15847SOL    HW149794   7.514   9.642   2.017 -0.9731 -1.6628 -0.6274
15847SOL    HW249795   7.596   9.734   1.928 -0.1077  0.1870  1.9814
15848SOL     OW49796   8.404   9.331   9.876 -0.1281  0.2410 -0.0729
15848SOL    HW149797   8.445   9.245   9.871 -3.4880 -1.5356  0.0781
15848SOL    HW249798   8.411   9.356   9.968 -1.2913 -1.1218  0.4244
15849SOL     OW49799   5.879   2.598   2.222  0.6613 -0.0329 -1.2465
15849SOL    HW149800   5.913   2.537   2.288  0.7045  1.0077 -0.2675
15849SOL    HW249801   5.872   2.546   2.142 -1.4531 -1.9895  0.0537
15850SOL     OW49802   8.000   3.680  10.272  0.1244 -0.1040 -0.2319
15850SOL    HW149803   7.918   3.726  10.251  0.2625 -0.4995 -1.7023
15850SOL    HW249804   8.057   3.698  10.198  0.4530 -1.9971 -0.4899
15851SOL     OW49805   0.512   6.951   3.519 -0.0615  0.0976  0.6769
15851SOL    HW149806   0.481   6.962   3.429 -1.3828  1.4421  1.2305
15851SOL    HW249807   0.596   6.995   3.521  0.3373 -0.5966 -0.0602
15852SOL     OW49808   7.360   4.680   8.004 -0.1884 -0.0039 -0.4937
15852SOL    HW149809   7.324   4.745   8.064 -1.2207 -1.2009  0.2161
15852SOL    HW249810   7.444   4.656   8.042 -1.8565 -2.5305  1.9233
15853SOL     OW49811   9.294   9.473   8.502 -0.1869 -0.3810 -0.4143
15853SOL    HW149812   9.320   9.541   8.439  1.3138 -1.0226 -0.5332
15853SOL    HW249813   9.201   9.457   8.483 -0.1637  0.5376 -1.4054
15854SOL     OW49814   5.549   2.802   4.629 -0.1074 -0.4113  0.0604
15854SOL    HW149815   5.481   2.797   4.562  0.5607  1.3995 -0.8344
15854SOL    HW249816   5.512   2.858   4.697 -0.6095 -1.8721  1.0290
15855SOL     OW49817   5.583   0.434   1.998 -0.5979 -0.3909 -0.0235
15855SOL    HW149818   5.585   0.384   2.080  1.7816  2.1624  1.6626
15855SOL    HW249819   5.675   0.439   1.972 -1.1674  0.1157 -2.0565
15856SOL     OW49820   4.546   4.008   4.072 -0.3821  0.0763  0.3673
15856SOL    HW149821   4.488   3.947   4.118  0.7544 -1.2530  0.1120
15856SOL    HW249822   4.615   4.026   4.135 -0.4846  0.7825  0.2832
15857SOL     OW49823   1.566   1.337  10.382 -0.0377 -0.0735 -0.8122
15857SOL    HW149824   1.517   1.419  10.377 -1.6148 -0.9592 -0.5831
15857SOL    HW249825   1.605   1.338  10.470 -1.1278 -0.1374 -0.3107
15858SOL     OW49826   0.838   2.248   7.987  0.2043  0.0980  0.0879
15858SOL    HW149827   0.769   2.185   7.969 -0.3563  0.5990  0.4385
15858SOL    HW249828   0.825   2.318   7.922 -0.3283  0.7344  0.8549
15859SOL     OW49829   8.132   4.171   5.660  0.1796  0.1515 -0.0742
15859SOL    HW149830   8.219   4.185   5.623  0.4595 -0.2522  0.4285
15859SOL    HW249831   8.148   4.139   5.749 -0.4384 -1.4528 -0.4971
15860SOL     OW49832   1.157   2.201   6.143  0.3632 -0.2138 -0.1520
15860SOL    HW149833   1.238   2.246   6.120  0.7559 -0.7871  0.0845
15860SOL    HW249834   1.087   2.256   6.105  0.8902 -0.0723 -0.9503
15861SOL     OW49835   3.534   4.674   3.660 -0.1281  0.2934  0.0650
15861SOL    HW149836   3.459   4.722   3.625 -0.3862  1.4838  2.0926
15861SOL    HW249837   3.507   4.648   3.748  0.9244 -1.5056 -0.0981
15862SOL     OW49838   6.044   6.036   8.628 -0.3471  0.0041  0.6542
15862SOL    HW149839   6.004   5.978   8.563 -0.5236  1.5675 -0.6951
15862SOL    HW249840   6.013   6.123   8.605 -1.0376  0.5666  3.3267
15863SOL     OW49841   2.612   8.356   6.860  0.0333 -0.1092 -0.0722
15863SOL    HW149842   2.552   8.329   6.791 -0.8064 -0.4575  0.7743
15863SOL    HW249843   2.626   8.276   6.912 -0.6328  0.5036  1.0996
15864SOL     OW49844   2.128   0.261   9.413 -0.3751 -0.0755 -0.2558
15864SOL    HW149845   2.133   0.177   9.458 -2.1457  0.8481  1.8866
15864SOL    HW249846   2.185   0.319   9.464  0.9431  0.0451 -1.7948
15865SOL     OW49847   1.631   1.713   3.504  0.4486  0.1612 -0.1198
15865SOL    HW149848   1.621   1.618   3.492  1.1285  0.2068 -1.1998
15865SOL    HW249849   1.720   1.723   3.537  0.5718  0.4520 -0.5322
15866SOL     OW49850   7.908   1.870   5.567 -0.2804  0.6376  0.3400
15866SOL    HW149851   7.914   1.816   5.646  2.7126  2.5202  1.6180
15866SOL    HW249852   7.869   1.952   5.597  0.8378  1.3488 -0.0575
15867SOL     OW49853   9.992  10.193   1.728 -0.0746  0.0729 -0.2214
15867SOL    HW149854   9.926  10.175   1.661  0.7091 -0.1186 -0.9589
15867SOL    HW249855   9.992  10.114   1.783 -1.7288  0.7968  0.9032
15868SOL     OW49856   9.086   3.090   3.756  0.1364 -0.0774  0.2107
15868SOL    HW149857   9.032   3.166   3.777  0.8309  0.7207 -0.8111
15868SOL    HW249858   9.041   3.047   3.684  0.0521 -0.3059  0.3977
15869SOL     OW49859   7.912   8.781   0.717 -0.5909  0.3298  0.1786
15869SOL    HW149860   7.923   8.756   0.625  1.4468 -0.0401  0.4704
15869SOL    HW249861   7.881   8.871   0.714  1.5771  1.0970 -0.9153
15870SOL     OW49862   2.114  10.633   3.069  0.0098 -0.3164 -0.0640
15870SOL    HW149863   2.088  10.569   3.135 -0.5426  0.3710  0.3904
15870SOL    HW249864   2.133  10.713   3.118 -0.1195  0.1189 -0.7064
15871SOL     OW49865   3.344   6.818   3.214 -0.4575  0.3465 -0.4442
15871SOL    HW149866   3.358   6.902   3.171  0.4669  0.4906  0.1164
15871SOL    HW249867   3.293   6.767   3.151 -0.7037  1.1928 -0.9382
15872SOL     OW49868   4.889   0.135   4.586 -0.2666 -0.6889 -0.1019
15872SOL    HW149869   4.868   0.224   4.557 -2.1173 -0.7565  0.8606
15872SOL    HW249870   4.861   0.079   4.513  3.6112 -0.4561 -2.0291
15873SOL     OW49871   7.026  10.569   3.417  0.2357  0.3812  0.0983
15873SOL    HW149872   7.053  10.514   3.491  0.3807 -0.8857 -0.8509
15873SOL    HW249873   7.023  10.658   3.452  1.8952  0.0411  1.2142
15874SOL     OW49874   3.118   7.626   2.223 -0.5862 -0.0256  0.3638
15874SOL    HW149875   3.210   7.603   2.216 -0.4552  0.4232  0.5604
15874SOL    HW249876   3.101   7.628   2.318 -0.0211  2.7999  0.5017
15875SOL     OW49877   9.410   8.712  10.480 -0.4261 -0.0074 -0.1360
15875SOL    HW149878   9.478   8.706  10.412  0.3031  0.9384  0.4643
15875SOL    HW249879   9.344   8.771  10.442  0.1067  0.7330  0.0461
15876SOL     OW49880   9.912   1.413   4.012  0.1627 -0.2484  0.5690
15876SOL    HW149881   9.963   1.335   3.989 -0.9352 -0.8088 -0.0422
15876SOL    HW249882   9.879   1.446   3.928  3.1105  2.7296  0.3734
15877SOL     OW49883   3.741   4.832   3.539  0.9678 -0.4910 -0.0625
15877SOL    HW149884   3.787   4.776   3.477  2.7213  0.1529  0.5966
15877SOL    HW249885   3.674   4.775   3.578  1.0283 -1.3910 -1.2403
15878SOL     OW49886   6.690   2.519   0.646  0.8847 -0.0378 -0.0500
15878SOL    HW149887   6.691   2.599   0.698  0.5923  0.2334 -0.4592
15878SOL    HW249888   6.598   2.493   0.642  0.7201  0.6481 -1.4902
15879SOL     OW49889   1.072   3.252   1.806 -0.4609 -0.1682 -0.3668
15879SOL    HW149890   1.074   3.192   1.732 -1.6089  0.3481 -0.8418
15879SOL    HW249891   1.164   3.268   1.826 -0.1433 -1.3876 -0.7872
15880SOL     OW49892   2.913   5.160   5.154  0.7353  0.0826 -0.0832
15880SOL    HW149893   2.905   5.090   5.218 -2.6247  0.0081 -0.3901
15880SOL    HW249894   2.880   5.238   5.199  3.7006  1.4325  0.0063
15881SOL     OW49895   6.357   1.985   1.582 -0.2287 -0.1408 -0.5299
15881SOL    HW149896   6.368   1.933   1.502 -0.9337  0.1167 -0.8021
15881SOL    HW249897   6.351   1.920   1.652  1.6981 -0.3389 -0.4983
15882SOL     OW49898   6.995   2.356   2.866 -0.2525  0.8086 -0.9254
15882SOL    HW149899   7.052   2.285   2.896 -1.4454 -0.2869 -1.1222
15882SOL    HW249900   6.931   2.312   2.809 -2.1837  1.7231  0.4272
15883SOL     OW49901   4.313   1.091   7.362 -0.0707  0.0379  0.2045
15883SOL    HW149902   4.355   1.005   7.359 -0.4091 -0.1077 -0.6984
15883SOL    HW249903   4.296   1.106   7.455 -0.4310 -1.0787  0.3336
15884SOL     OW49904   8.093   7.597   5.211  0.1196  0.6727  0.5911
15884SOL    HW149905   8.006   7.560   5.226  0.3446  0.0508  0.3824
15884SOL    HW249906   8.114   7.642   5.293 -0.6150  1.2789  0.4559
15885SOL     OW49907   0.241   0.567  10.106 -0.1810  0.3835  0.1806
15885SOL    HW149908   0.276   0.637  10.162  2.3739  0.2939 -1.1804
15885SOL    HW249909   0.227   0.609  10.021 -0.0908 -0.3953 -0.2257
15886SOL     OW49910   2.499   3.542   7.990  0.2068 -0.3187 -0.2775
15886SOL    HW149911   2.461   3.546   8.078 -1.2396  0.0048 -0.8973
15886SOL    HW249912   2.589   3.574   8.002  0.1388 -0.5615  1.1259
15887SOL     OW49913   2.121   7.140   0.642  0.1325  0.5978  0.2985
15887SOL    HW149914   2.129   7.087   0.562  1.0508 -0.4283  1.0363
15887SOL    HW249915   2.122   7.230   0.611 -0.3198  0.2062 -0.9118
15888SOL     OW49916   3.299   6.804   6.073 -0.5720 -0.1565 -0.4410
15888SOL    HW149917   3.386   6.790   6.037  0.5283 -0.6149  2.1937
15888SOL    HW249918   3.239   6.777   6.002  1.4000 -1.3301 -1.7558
15889SOL     OW49919   0.824  10.149   8.163  0.5692 -0.5401  0.1141
15889SOL    HW149920   0.815  10.096   8.243  0.0162  0.7349  0.9345
15889SOL    HW249921   0.754  10.213   8.169  0.9259 -0.0169 -1.0937
15890SOL     OW49922   3.711   2.880   7.006  0.0699 -0.0296  0.2385
15890SOL    HW149923   3.628   2.901   6.964 -0.5114 -0.2530  1.2514
15890SOL    HW249924   3.772   2.947   6.974 -0.6540  0.5201 -0.0072
15891SOL     OW49925  10.254   9.492   4.637 -0.3002 -0.2024  0.0830
15891SOL    HW149926  10.259   9.449   4.722 -1.8504 -1.4772 -0.4100
15891SOL    HW249927  10.212   9.428   4.580  2.7022 -0.2749 -2.3041
15892SOL     OW49928   5.494   3.336   8.573 -0.3172 -0.1431  0.5253
15892SOL    HW149929   5.528   3.353   8.485  1.5224  1.2011  1.4453
15892SOL    HW249930   5.413   3.286   8.558  0.5138 -0.8946 -1.8617
15893SOL     OW49931   0.318   6.360  10.508 -0.0397 -0.2129  0.3909
15893SOL    HW149932   0.262   6.405  10.571 -0.1016 -0.0463  0.2168
15893SOL    HW249933   0.302   6.404  10.425  1.0953  0.5212  0.5355
15894SOL     OW49934   8.585   2.600   2.196  0.0634  0.5469 -0.5738
15894SOL    HW149935   8.573   2.591   2.290 -0.0523 -0.7739 -0.6995
15894SOL    HW249936   8.536   2.679   2.173 -0.4025  0.5471  0.3714
15895SOL     OW49937   5.577   0.443   6.244  0.2949 -0.5869  0.0836
15895SOL    HW149938   5.660   0.398   6.225  0.1924 -1.4670  1.6510
15895SOL    HW249939   5.517   0.374   6.269 -0.2682  0.2683  1.1774
15896SOL     OW49940   9.493   2.491   1.526 -0.0971  0.5269 -0.0994
15896SOL    HW149941   9.522   2.559   1.465  0.0250  2.0752  1.5954
15896SOL    HW249942   9.550   2.417   1.509  0.4360  1.1914 -1.3269
15897SOL     OW49943   3.476   4.611   1.672 -0.3632 -0.3963  0.5811
15897SOL    HW149944   3.527   4.689   1.690  0.8040 -0.5003 -1.9219
15897SOL    HW249945   3.519   4.542   1.722  0.2523  0.0503  0.6792
15898SOL     OW49946   8.469   3.683   8.931  0.3296  0.2593 -0.2635
15898SOL    HW149947   8.537   3.672   8.864  1.0651 -3.3853  0.9080
15898SOL    HW249948   8.420   3.601   8.930 -0.6634  0.7170  2.5758
15899SOL     OW49949   2.840   1.994   1.309  0.1878  0.2370 -0.2820
15899SOL    HW149950   2.849   1.971   1.402 -0.9638  1.1539  0.0754
15899SOL    HW249951   2.872   2.084   1.303 -0.2796  0.3766 -0.6718
15900SOL     OW49952   5.808   8.078   8.759  0.6155 -0.0260 -0.1090
15900SOL    HW149953   5.824   7.984   8.753  0.3920 -0.0405 -0.5419
15900SOL    HW249954   5.888   8.118   8.727  0.8624 -0.0579  0.4452
15901SOL     OW49955   5.503   7.457   4.303 -0.1207  0.7008 -0.3655
15901SOL    HW149956   5.456   7.374   4.302  0.8441  0.1523 -0.3796
15901SOL    HW249957   5.464   7.507   4.231 -1.4620  0.7098  0.3323
15902SOL     OW49958   0.917   6.328   1.907  0.0436 -0.0548 -0.7846
15902SOL    HW149959   0.990   6.383   1.936 -0.0271 -0.2098 -0.2998
15902SOL    HW249960   0.850   6.340   1.974  0.0944 -0.8625 -0.5712
15903SOL     OW49961   4.212   4.631   3.398 -0.2834  0.1865 -0.3678
15903SOL    HW149962   4.296   4.647   3.354 -0.1934  0.2167 -0.1867
15903SOL    HW249963   4.234   4.631   3.491  0.1573 -3.1291 -0.3429
15904SOL     OW49964   5.922   0.205   3.723  0.1813 -0.1501 -0.2746
15904SOL    HW149965   6.003   0.231   3.680  0.4548  0.7738  0.7559
15904SOL    HW249966   5.867   0.171   3.652  0.4858  1.6346 -1.4445
15905SOL     OW49967   0.890   8.081   0.454  0.5723  0.6767  0.0333
15905SOL    HW149968   0.915   8.000   0.408 -0.6428  1.7525 -2.6904
15905SOL    HW249969   0.946   8.148   0.416 -0.3934  1.6075  0.2149
15906SOL     OW49970   4.280   6.023   7.730 -0.1413  0.1138 -0.5990
15906SOL    HW149971   4.368   6.052   7.707 -0.4078  0.4519 -1.2191
15906SOL    HW249972   4.269   5.940   7.683  0.5013 -0.8810  0.9160
15907SOL     OW49973   2.389   8.336   0.179 -0.6565 -0.2082  0.1390
15907SOL    HW149974   2.430   8.289   0.107 -1.1068 -1.6247  0.7809
15907SOL    HW249975   2.462   8.369   0.231 -0.3159 -1.2465  0.3363
15908SOL     OW49976   4.911   0.879   3.804 -0.6215 -0.2202  0.0629
15908SOL    HW149977   4.990   0.825   3.796 -0.6715 -0.1325 -1.1538
15908SOL    HW249978   4.880   0.890   3.714 -0.5084  1.9969  0.2486
15909SOL     OW49979   6.131   2.947   7.407 -0.0500  0.3508 -0.1584
15909SOL    HW149980   6.048   2.962   7.362 -0.1351 -0.0666 -0.1466
15909SOL    HW249981   6.178   3.030   7.399 -1.7347  1.7057  2.5753
15910SOL     OW49982   4.661   6.456   8.323  0.1298  0.0357  0.2128
15910SOL    HW149983   4.617   6.535   8.356  0.2493  0.8131 -1.3977
15910SOL    HW249984   4.751   6.484   8.309  0.0734 -0.2625 -0.7706
15911SOL     OW49985   9.138   3.568   2.730  0.6065 -0.5144 -0.3807
15911SOL    HW149986   9.120   3.613   2.647  2.3195 -0.4948 -0.7825
15911SOL    HW249987   9.205   3.503   2.708  1.6372 -0.0203  1.1068
15912SOL     OW49988   4.487   0.286   2.381 -0.0220 -0.0328  0.6608
15912SOL    HW149989   4.573   0.259   2.413  0.1391 -0.5807 -0.2115
15912SOL    HW249990   4.487   0.382   2.390  0.0042 -0.1509  2.2863
15913SOL     OW49991   4.990   9.854   8.539 -0.2871 -0.3159  0.2165
15913SOL    HW149992   4.940   9.786   8.584 -2.3448 -0.3281 -1.9224
15913SOL    HW249993   4.941   9.934   8.555 -0.2233 -0.0717 -0.7702
15914SOL     OW49994   5.936   1.391   2.849 -0.1981 -0.0547  0.0183
15914SOL    HW149995   5.936   1.468   2.905 -1.4598 -1.9191  2.8127
15914SOL    HW249996   5.971   1.321   2.904 -0.3475 -1.7774 -1.9444
15915SOL     OW49997   1.936   6.278   5.968  0.4215  0.4817  0.1584
15915SOL    HW149998   1.905   6.295   6.057  0.6205 -2.0908  0.7887
15915SOL    HW249999   2.012   6.222   5.979 -0.3927 -1.0906 -1.6555
15916SOL     OW50000   7.652   1.087   9.375  0.0040  0.0474  0.6076
15916SOL    HW150001   7.573   1.037   9.397  0.1234 -0.7161 -0.6231
15916SOL    HW250002   7.694   1.036   9.306  0.6590  1.3440  0.0220
15917SOL     OW50003   0.136   0.892   6.501  0.6962 -0.3773  0.3959
15917SOL    HW150004   0.206   0.957   6.499  0.3274  0.0058 -0.4626
15917SOL    HW250005   0.168   0.825   6.563  0.9525  0.7285  1.4907
15918SOL     OW50006   5.682   4.009   7.470  0.2024  0.3013 -0.0669
15918SOL    HW150007   5.746   3.984   7.536  0.8877  2.1118  0.0045
15918SOL    HW250008   5.602   3.962   7.495  1.5776 -2.4631 -0.4892
15919SOL     OW50009   2.805  10.324   6.596 -0.1206  0.3371  0.3201
15919SOL    HW150010   2.715  10.352   6.581 -0.3476  0.4915  1.7606
15919SOL    HW250011   2.858  10.385   6.544 -0.7954  1.0012  0.3966
15920SOL     OW50012   6.033   1.203  10.142 -0.2571 -0.2904  0.0961
15920SOL    HW150013   5.975   1.233  10.072  0.0827  2.0893  0.7265
15920SOL    HW250014   5.977   1.149  10.198 -1.4851  0.6281 -0.1835
15921SOL     OW50015   8.786   4.396   6.756 -0.1252 -0.5054  0.3449
15921SOL    HW150016   8.832   4.465   6.805 -0.5529  0.5583 -0.6865
15921SOL    HW250017   8.820   4.314   6.791  2.1705  0.2342 -0.0055
15922SOL     OW50018   7.139  10.508   9.254 -0.0804 -0.6802  0.3537
15922SOL    HW150019   7.062  10.496   9.310 -0.7087  2.3157  0.3064
15922SOL    HW250020   7.214  10.498   9.313 -0.6761  0.3356  1.3223
15923SOL     OW50021   1.832  10.558   9.231  0.2987 -0.4292  0.6606
15923SOL    HW150022   1.736  10.559   9.236  0.3072  1.0405  0.8673
15923SOL    HW250023   1.858  10.499   9.302 -0.4584 -1.4019  0.1616
15924SOL     OW50024   1.278   5.935   0.253 -0.0177 -0.4643 -0.0047
15924SOL    HW150025   1.323   5.850   0.255  0.8607 -0.0005  1.3431
15924SOL    HW250026   1.191   5.917   0.289 -0.3271 -1.0406 -1.0086
15925SOL     OW50027   8.919  10.072   7.596  0.1757  0.6671  0.1868
15925SOL    HW150028   8.901  10.115   7.679 -0.6071  1.2983 -0.2979
15925SOL    HW250029   8.840  10.022   7.576  0.9841 -0.8394  0.6229
15926SOL     OW50030  10.116   7.184   4.178  0.2219  0.2115 -0.1654
15926SOL    HW150031  10.092   7.189   4.271  0.6108  1.5500 -0.1223
15926SOL    HW250032  10.090   7.268   4.142 -0.5071 -0.5283 -1.4341
15927SOL     OW50033   1.157   3.097   4.355 -0.0574  0.3250  0.3959
15927SOL    HW150034   1.077   3.141   4.383  0.0286 -0.5736  2.1699
15927SOL    HW250035   1.175   3.134   4.268 -3.0207 -0.2469 -0.6050
15928SOL     OW50036   2.150   4.802  10.260 -0.0499 -0.6883 -0.4887
15928SOL    HW150037   2.243   4.807  10.238 -0.4180 -0.2100 -2.1139
15928SOL    HW250038   2.139   4.716  10.301  1.0534 -0.8767 -0.5713
15929SOL     OW50039   9.287   8.125  10.129  0.1401  0.3444 -0.0851
15929SOL    HW150040   9.283   8.220  10.119 -0.5702  0.2106 -1.2759
15929SOL    HW250041   9.230   8.106  10.204  0.2344  0.8495  0.1187
15930SOL     OW50042   2.903   5.986   9.663  0.2735 -0.1545 -0.1735
15930SOL    HW150043   2.859   5.902   9.679 -0.0609  0.0083 -0.2413
15930SOL    HW250044   2.895   6.000   9.569 -1.3284  0.8567  0.0755
15931SOL     OW50045   1.243  10.547   0.230 -0.3272  0.2774  0.1723
15931SOL    HW150046   1.273  10.534   0.140  2.0416  1.2103  0.7531
15931SOL    HW250047   1.292  10.483   0.281  1.3056  2.2873  1.2614
15932SOL     OW50048  10.100   3.877  10.227  0.3995 -0.0829 -0.5842
15932SOL    HW150049  10.099   3.796  10.177 -0.1329 -0.6527  0.3199
15932SOL    HW250050  10.018   3.876  10.277  0.3888  1.0057 -0.5578
15933SOL     OW50051   2.916   0.469   4.105 -0.3175 -0.2957  0.6180
15933SOL    HW150052   2.962   0.426   4.177  0.9214  0.3234  0.2234
15933SOL    HW250053   2.851   0.404   4.076  0.5353 -1.3304  0.9702
15934SOL     OW50054  10.548  10.372   6.573 -0.0721 -0.3567 -0.3814
15934SOL    HW150055  10.463  10.384   6.529 -1.0629 -0.1576  1.4886
15934SOL    HW250056  10.578  10.286   6.544 -0.7184 -0.2675 -1.3799
15935SOL     OW50057   4.237   8.381   2.988 -0.2690  0.2110 -0.2913
15935SOL    HW150058   4.188   8.459   3.017 -0.6859  0.0100 -0.4380
15935SOL    HW250059   4.310   8.416   2.937 -0.8512  0.4930 -0.9545
15936SOL     OW50060   8.106   2.178   6.515  0.4088  0.0714 -0.1006
15936SOL    HW150061   8.028   2.201   6.464  0.0601 -1.5499 -0.3618
15936SOL    HW250062   8.160   2.257   6.512  0.3944  0.0799 -2.9820
15937SOL     OW50063   9.842   5.049   6.117 -0.0318  0.3786 -0.3704
15937SOL    HW150064   9.877   4.970   6.158 -2.0880 -1.6479 -2.2409
15937SOL    HW250065   9.919   5.095   6.082  1.1202 -1.6086 -0.5645
15938SOL     OW50066   8.670   3.081   9.761  0.4556  0.1754  0.7894
15938SOL    HW150067   8.677   3.089   9.856  0.1703 -1.1816  0.9552
15938SOL    HW250068   8.627   2.996   9.748 -0.5573  0.8514 -0.5246
15939SOL     OW50069   1.866   6.504   8.233  0.1839 -0.1802  0.4902
15939SOL    HW150070   1.914   6.459   8.303  0.3931  0.6973  0.9309
15939SOL    HW250071   1.886   6.454   8.154  1.8671  0.1615  0.6530
15940SOL     OW50072   7.086   1.505   1.654 -0.4922 -0.3206 -0.4620
15940SOL    HW150073   7.001   1.461   1.659 -0.7421  0.0143 -1.4433
15940SOL    HW250074   7.084   1.550   1.569  0.8706 -0.7472 -0.7450
15941SOL     OW50075   5.744   3.735   9.093 -0.1379  0.3959  0.1573
15941SOL    HW150076   5.689   3.759   9.018 -1.1809 -0.8948  0.4868
15941SOL    HW250077   5.811   3.677   9.055 -0.0853  0.5170  0.0632
15942SOL     OW50078   3.007   9.407   1.021 -0.3427  0.1226 -0.4171
15942SOL    HW150079   3.012   9.429   1.114  0.3578  0.8152 -0.6086
15942SOL    HW250080   3.079   9.455   0.981  0.5643 -1.6881 -1.0441
15943SOL     OW50081   0.443  10.635   2.385  0.2792  0.4009  0.6165
15943SOL    HW150082   0.473  10.689   2.312  2.1463 -0.5634  0.6172
15943SOL    HW250083   0.382  10.691   2.432 -0.7319  1.1679 -1.4707
15944SOL     OW50084   8.905   6.782   4.310 -0.4925 -0.2132 -0.0140
15944SOL    HW150085   8.957   6.796   4.389 -0.2506 -0.5817 -0.1048
15944SOL    HW250086   8.862   6.866   4.294  0.3491  0.2093 -0.1397
15945SOL     OW50087   3.855  10.455   9.454  0.2161  0.1733 -0.6498
15945SOL    HW150088   3.867  10.546   9.426  1.8962  0.3377  0.4420
15945SOL    HW250089   3.882  10.403   9.378  3.0064  0.6197 -0.0850
15946SOL     OW50090   2.053   7.274   7.261  0.0933  0.0529  0.2491
15946SOL    HW150091   1.965   7.276   7.299  0.0936  0.0979  0.2480
15946SOL    HW250092   2.078   7.366   7.254  1.0037  0.0326  2.3045
15947SOL     OW50093   3.006   2.080   0.782  0.0775  0.2607  0.5269
15947SOL    HW150094   2.927   2.028   0.780 -0.0405  0.4530 -1.2521
15947SOL    HW250095   3.064   2.033   0.842 -1.1602 -0.1688  1.4298
15948SOL     OW50096   5.611   4.579  10.556  0.3822 -0.1308 -0.0847
15948SOL    HW150097   5.528   4.604  10.595  0.4275 -2.3753  1.6835
15948SOL    HW250098   5.621   4.637  10.480 -2.0845  1.1263  0.4537
15949SOL     OW50099   3.548   9.345   6.252 -0.2875  0.3668 -0.0433
15949SOL    HW150100   3.586   9.365   6.167 -0.6565  1.0886 -0.0490
15949SOL    HW250101   3.500   9.263   6.238 -2.6945  1.8680 -1.3187
15950SOL     OW50102   1.559   4.924   7.184  0.0459 -0.1106 -0.6354
15950SOL    HW150103   1.497   4.990   7.156 -1.2704  0.1286  2.4219
15950SOL    HW250104   1.616   4.970   7.247  0.0161 -1.4876  0.4543
15951SOL     OW50105   6.544   2.929   6.668  0.1729  0.1136  0.7661
15951SOL    HW150106   6.454   2.898   6.678 -0.6323  1.8466 -0.4808
15951SOL    HW250107   6.565   2.908   6.577  0.4880  1.0206  0.6285
15952SOL     OW50108   9.267   1.296  10.363  0.0562 -0.1577  0.2550
15952SOL    HW150109   9.284   1.210  10.322 -0.5269 -0.5145  0.7452
15952SOL    HW250110   9.272   1.279  10.457 -1.3460  0.0580  0.3935
15953SOL     OW50111  10.511  10.505   4.880 -0.3500 -0.0222  0.1592
15953SOL    HW150112  10.454  10.524   4.806 -0.2383 -0.9637 -0.1814
15953SOL    HW250113  10.494  10.413   4.900 -0.7740  0.3467  1.6457
15954SOL     OW50114   3.216   7.895   1.412 -0.1638 -0.0664 -0.5271
15954SOL    HW150115   3.221   7.821   1.472  1.1503 -0.1635 -0.7359
15954SOL    HW250116   3.178   7.966   1.465  1.5247  0.0223  0.6227
15955SOL     OW50117   1.309   1.524  10.590  0.4836  0.5009 -0.8794
15955SOL    HW150118   1.214   1.528  10.580  0.3442  0.1075  0.1757
15955SOL    HW250119   1.323   1.471  10.668  1.5244  1.9543 -0.0156
15956SOL     OW50120   2.626  10.003   8.729  0.1186 -0.4301  0.3270
15956SOL    HW150121   2.658  10.094   8.730 -0.1195 -0.3239 -0.7190
15956SOL    HW250122   2.692   9.954   8.778  0.3702  0.2648  0.7067
15957SOL     OW50123   0.517   3.097   5.216  0.2253  0.0794 -0.0110
15957SOL    HW150124   0.573   3.040   5.268  0.4749 -0.1786 -0.5500
15957SOL    HW250125   0.434   3.101   5.264 -0.1838 -1.6346 -0.4992
15958SOL     OW50126   7.175   3.593   8.250 -0.1010 -0.1891 -0.5096
15958SOL    HW150127   7.120   3.646   8.308 -0.6346 -0.6609 -0.5796
15958SOL    HW250128   7.115   3.555   8.187  0.1352 -1.5696  0.0567
15959SOL     OW50129   4.954   2.044   1.207 -0.1966 -0.3838 -0.8247
15959SOL    HW150130   4.862   2.066   1.200 -0.5512 -1.5281 -0.0978
15959SOL    HW250131   4.987   2.099   1.278 -0.1712  0.4180 -1.4412
15960SOL     OW50132   1.606   2.091   1.855 -0.7586 -0.0137  0.0727
15960SOL    HW150133   1.524   2.042   1.864 -1.2235  0.7951  0.3118
15960SOL    HW250134   1.584   2.164   1.799 -0.2752  0.3783  0.3863
15961SOL     OW50135   5.142   1.240   7.629  0.6200  0.1063  0.3990
15961SOL    HW150136   5.196   1.213   7.704  1.3870  0.5523  0.0187
15961SOL    HW250137   5.144   1.164   7.570  1.3441  0.3480  0.1095
15962SOL     OW50138   9.841   6.925   0.219  0.3588  0.0572  0.1685
15962SOL    HW150139   9.923   6.962   0.187  0.6905 -0.0037  0.9105
15962SOL    HW250140   9.824   6.972   0.300 -1.3065  1.3386 -0.8740
15963SOL     OW50141   0.922   7.859  10.442  0.5249  0.0261  0.2936
15963SOL    HW150142   0.878   7.787  10.487  1.9890 -0.7743  0.4932
15963SOL    HW250143   1.000   7.819  10.404  0.8979  1.3342 -0.3510
15964SOL     OW50144   4.655   0.195   5.086  0.6941  0.2475 -0.5011
15964SOL    HW150145   4.732   0.156   5.043 -0.4877 -1.1720 -1.4600
15964SOL    HW250146   4.598   0.120   5.103  0.4457  0.9543  2.2910
15965SOL     OW50147   0.751   4.040   1.936  0.5825 -0.1849  0.0035
15965SOL    HW150148   0.740   4.114   1.877 -0.4342 -0.5868 -0.3412
15965SOL    HW250149   0.664   4.029   1.976  1.0431 -0.4234  0.9700
15966SOL     OW50150   5.577   1.317   9.746  0.2407  0.3216 -0.1359
15966SOL    HW150151   5.667   1.347   9.755  0.2270  0.7142 -1.1863
15966SOL    HW250152   5.577   1.264   9.666 -0.3269 -0.1988  0.1983
15967SOL     OW50153   1.204  10.596   4.807  0.0917 -0.2475  0.2647
15967SOL    HW150154   1.230  10.538   4.736 -1.0609  2.2637 -2.4546
15967SOL    HW250155   1.125  10.640   4.774 -0.3495  1.2631  3.0342
15968SOL     OW50156   8.906   8.904   0.882  0.1765 -0.0199 -0.0740
15968SOL    HW150157   8.888   8.878   0.972  0.6806 -0.2795 -0.0451
15968SOL    HW250158   8.938   8.824   0.840  2.0148  0.5881  0.0894
15969SOL     OW50159   8.534   4.446   3.161  0.4437  0.2402 -0.1716
15969SOL    HW150160   8.563   4.444   3.252 -2.0923  0.3192  0.7042
15969SOL    HW250161   8.536   4.354   3.133 -0.2931  0.0150  0.4944
15970SOL     OW50162   8.436   1.784   5.446 -0.2642  0.4755 -0.0321
15970SOL    HW150163   8.481   1.847   5.503  1.8727  0.2978 -1.3917
15970SOL    HW250164   8.463   1.808   5.357 -0.5251 -1.4541 -0.6878
15971SOL     OW50165   3.696   9.261   1.425 -0.1298 -0.1737 -0.2217
15971SOL    HW150166   3.672   9.270   1.518  1.1678 -0.4542  0.1470
15971SOL    HW250167   3.765   9.196   1.424  0.2576  0.2413 -1.3347
15972SOL     OW50168   4.742   3.380   4.618  0.1794 -0.0341  0.1054
15972SOL    HW150169   4.665   3.432   4.641  1.3468  2.0296 -0.4612
15972SOL    HW250170   4.811   3.411   4.675  0.7908 -1.4025  0.1544
15973SOL     OW50171   0.600   9.170   7.341  0.5412 -0.0702  0.3188
15973SOL    HW150172   0.537   9.192   7.273  0.8424  2.5787  0.7853
15973SOL    HW250173   0.623   9.078   7.324 -1.3960 -0.2982 -1.4558
15974SOL     OW50174  10.111   2.441   4.509 -0.7502  0.0265 -0.3777
15974SOL    HW150175  10.058   2.361   4.507 -0.3594 -0.3009  1.2424
15974SOL    HW250176  10.188   2.420   4.456 -0.6154 -0.7033  0.1001
15975SOL     OW50177   4.640   5.615   5.941  0.3570  0.3359 -0.1534
15975SOL    HW150178   4.657   5.532   5.985  1.5980  0.0856 -1.0415
15975SOL    HW250179   4.552   5.640   5.969  0.1289 -1.0623  0.4560
15976SOL     OW50180   2.887   1.501   9.997 -0.1759  0.1269 -0.5811
15976SOL    HW150181   2.977   1.470   9.990 -0.2485  0.2038 -2.3089
15976SOL    HW250182   2.887   1.558  10.074  0.8534 -1.1175  0.3915
15977SOL     OW50183  10.456   5.720  10.652  0.0268 -0.3608  0.0493
15977SOL    HW150184  10.490   5.676  10.730 -0.7530 -0.4217  0.3605
15977SOL    HW250185  10.440   5.810  10.680  1.7222  0.1871 -0.6159
15978SOL     OW50186   3.695   4.452   6.831  0.0254 -0.6108  0.1237
15978SOL    HW150187   3.785   4.422   6.847 -0.7354 -1.2776  4.0866
15978SOL    HW250188   3.642   4.373   6.841 -1.1143 -0.2789 -2.4246
15979SOL     OW50189   4.883   2.486   4.696  0.3203 -0.3147 -0.2671
15979SOL    HW150190   4.820   2.548   4.732  0.1207 -1.3769  1.3184
15979SOL    HW250191   4.947   2.474   4.767  0.7553 -1.3644 -0.8257
15980SOL     OW50192   6.640   9.527   4.096 -0.0672  0.3640  0.0452
15980SOL    HW150193   6.702   9.498   4.029 -0.7270  1.9196 -1.3121
15980SOL    HW250194   6.686   9.597   4.142  0.1210 -0.2286  0.7735
15981SOL     OW50195   4.416   2.830   1.035 -0.2647 -0.1748  0.3475
15981SOL    HW150196   4.478   2.868   1.098 -0.2321 -0.2143  0.3393
15981SOL    HW250197   4.354   2.901   1.018 -0.1356 -0.0868  0.2421
15982SOL     OW50198   9.075   8.263   4.529 -0.3744 -0.6995  0.1682
15982SOL    HW150199   9.154   8.305   4.496 -0.6938 -1.0131 -1.0450
15982SOL    HW250200   9.105   8.207   4.600  0.1034  1.2721  1.5953
15983SOL     OW50201   5.977  10.234   2.872  0.5516  0.2007 -0.6213
15983SOL    HW150202   5.976  10.153   2.921 -1.3475  0.1089 -0.7285
15983SOL    HW250203   6.032  10.293   2.923  0.3315 -0.5453  0.5033
15984SOL     OW50204   8.881   3.479   4.829 -0.2110  0.2091  0.2718
15984SOL    HW150205   8.831   3.527   4.763  0.6179  0.2708 -0.3240
15984SOL    HW250206   8.907   3.546   4.892 -2.1458 -0.0551  1.4299
15985SOL     OW50207   9.104  10.590   7.519 -0.1496  0.0506 -0.5847
15985SOL    HW150208   9.027  10.626   7.562  0.9413  1.2404  0.4650
15985SOL    HW250209   9.078  10.502   7.493 -1.8179  0.3938 -0.1895
15986SOL     OW50210   1.549   1.630   3.085 -0.3081 -0.0633  0.0261
15986SOL    HW150211   1.536   1.536   3.096 -1.9222  0.0361 -0.7299
15986SOL    HW250212   1.578   1.640   2.995  0.7323  0.1100  0.3679
15987SOL     OW50213   2.313   3.268   4.361  0.7583 -0.3601  0.6243
15987SOL    HW150214   2.319   3.174   4.379 -3.4749 -0.6390  1.5822
15987SOL    HW250215   2.301   3.308   4.447  1.3072  0.9408  0.1191
15988SOL     OW50216   7.615   6.674   3.865 -0.2648 -0.2821  0.2986
15988SOL    HW150217   7.523   6.694   3.847  0.0602 -0.9056 -2.3420
15988SOL    HW250218   7.653   6.758   3.890 -1.5202 -0.0192  1.4571
15989SOL     OW50219   6.848   3.177   6.081 -0.3225 -0.5568 -0.2522
15989SOL    HW150220   6.806   3.109   6.134  1.3059  0.1087  2.0379
15989SOL    HW250221   6.816   3.259   6.117  1.4484 -0.0788  0.3640
15990SOL     OW50222   4.920   0.022   2.691 -0.2311  0.0311 -0.5194
15990SOL    HW150223   4.868  -0.003   2.768  0.7477 -0.0766  0.1253
15990SOL    HW250224   4.901   0.115   2.678  0.7649  0.4454  0.8125
15991SOL     OW50225   7.578   3.993   8.315 -0.1416  0.3946  0.3748
15991SOL    HW150226   7.637   3.959   8.382  0.5765  1.0302  0.0722
15991SOL    HW250227   7.543   3.914   8.273  1.4582  0.0062 -0.2791
15992SOL     OW50228   9.398   8.819   5.005  0.1528 -0.0627  1.0968
15992SOL    HW150229   9.442   8.795   4.923 -1.7441  0.8575 -0.2770
15992SOL    HW250230   9.464   8.867   5.055  1.9898 -2.4119  1.0740
15993SOL     OW50231   9.849   4.580   9.279 -0.0868 -0.2050  0.2017
15993SOL    HW150232   9.935   4.608   9.309 -0.8111  0.7436  1.5173
15993SOL    HW250233   9.829   4.637   9.205  0.3301 -0.2935  0.0188
15994SOL     OW50234   0.896   4.206   7.492  0.5327  0.1621 -0.0581
15994SOL    HW150235   0.943   4.154   7.558 -0.3320 -0.0855  0.3824
15994SOL    HW250236   0.941   4.291   7.491  1.0450 -0.1025  0.2759
15995SOL     OW50237   6.191   4.257   2.336  0.2107 -0.7211  1.4067
15995SOL    HW150238   6.228   4.198   2.401 -0.1046 -0.0719  2.1913
15995SOL    HW250239   6.218   4.345   2.364 -0.1408 -0.4097  0.8072
15996SOL     OW50240   0.383   5.875   1.402 -0.3712 -0.1177  0.1894
15996SOL    HW150241   0.399   5.969   1.392 -0.5180 -0.2539 -1.7882
15996SOL    HW250242   0.288   5.867   1.407 -0.4133 -0.2163 -0.6359
15997SOL     OW50243  10.406   1.148   4.325 -0.2812  0.3541  0.3756
15997SOL    HW150244  10.491   1.124   4.286 -0.3255  1.7578 -0.6585
15997SOL    HW250245  10.427   1.168   4.416 -0.2376 -3.4168  1.3427
15998SOL     OW50246   3.603   4.252   8.337 -0.4434  0.2413  0.1111
15998SOL    HW150247   3.554   4.302   8.402  0.6219  1.3593  0.0939
15998SOL    HW250248   3.694   4.279   8.349  0.2989 -2.2221  0.5369
15999SOL     OW50249   5.378   2.195   4.154  0.2505 -0.9428  0.3714
15999SOL    HW150250   5.473   2.198   4.138  0.5333 -1.5072  1.8301
15999SOL    HW250251   5.340   2.228   4.073  1.6947 -0.6990 -0.2484
16000SOL     OW50252   5.349   7.032   6.897 -0.9166  0.0656  0.6470
16000SOL    HW150253   5.376   7.124   6.901  1.1697 -0.1271 -3.6108
16000SOL    HW250254   5.254   7.036   6.891 -0.8319  2.0624 -0.3355
16001SOL     OW50255   0.981   7.738   5.964 -0.0991 -0.0996  0.2275
16001SOL    HW150256   1.053   7.799   5.946  0.6162 -0.6542  1.1288
16001SOL    HW250257   0.985   7.723   6.058 -1.1189 -0.4994  0.2203
16002SOL     OW50258   0.762   0.380   9.016  0.0358 -0.3992  0.6023
16002SOL    HW150259   0.844   0.336   8.994 -0.0639 -0.2179 -0.1373
16002SOL    HW250260   0.714   0.385   8.934 -0.5438 -0.1351  0.9500
16003SOL     OW50261   3.848   0.241   6.448  0.3564 -0.5090  0.2646
16003SOL    HW150262   3.884   0.226   6.535  0.5793 -1.1562  0.0675
16003SOL    HW250263   3.911   0.298   6.405 -0.3050  0.7296  0.8945
16004SOL     OW50264   1.472  10.266   1.929 -0.1684 -0.0144  0.0657
16004SOL    HW150265   1.446  10.325   1.859 -1.7203 -0.9971 -0.2214
16004SOL    HW250266   1.392  10.221   1.954  0.2939  0.3694  2.5572
16005SOL     OW50267   7.259   3.583   1.123  0.3392 -0.2125  0.3693
16005SOL    HW150268   7.187   3.636   1.089  0.6461  0.7695  1.2024
16005SOL    HW250269   7.336   3.638   1.114  0.9213 -1.0826 -0.0824
16006SOL     OW50270   4.301   4.868   8.937 -0.2270 -0.0234  0.0570
16006SOL    HW150271   4.348   4.825   8.865 -0.4240  0.2304 -0.2308
16006SOL    HW250272   4.370   4.898   8.996 -0.1270 -1.4022  0.6516
16007SOL     OW50273  10.439   7.825   6.647 -0.6890  0.2542  0.5697
16007SOL    HW150274  10.404   7.751   6.696 -0.7976  0.9995  1.6664
16007SOL    HW250275  10.368   7.852   6.589 -0.3405 -1.0363 -0.4993
16008SOL     OW50276   0.557   9.038   6.393  0.1096 -0.0577 -0.2233
16008SOL    HW150277   0.509   9.060   6.313 -0.9593 -0.4577  0.2967
16008SOL    HW250278   0.643   9.078   6.381 -0.2775  0.4875 -1.2684
16009SOL     OW50279   1.839   7.312   3.126 -0.2456  0.1653 -0.2685
16009SOL    HW150280   1.771   7.246   3.109 -0.0692 -0.2680  0.6416
16009SOL    HW250281   1.921   7.267   3.106 -0.1970  0.5530 -0.9583
16010SOL     OW50282   1.469   8.610  10.203  0.2819  0.2927  0.4537
16010SOL    HW150283   1.444   8.627  10.112 -1.2232  1.2107  0.9914
16010SOL    HW250284   1.490   8.517  10.206  0.5234  0.2844 -0.8595
16011SOL     OW50285   0.293   3.169   1.810 -0.0972 -0.6457 -0.6136
16011SOL    HW150286   0.263   3.150   1.721  0.8161 -0.6937 -0.9244
16011SOL    HW250287   0.340   3.090   1.837  2.0930  0.3702 -1.1971
16012SOL     OW50288   5.632   6.133   6.034 -0.1996 -1.0645 -0.2373
16012SOL    HW150289   5.646   6.199   5.966  0.6157  0.7498  1.6125
16012SOL    HW250290   5.702   6.069   6.021  0.9236  0.1231 -0.1196
16013SOL     OW50291   0.658   0.309   2.761  0.2220 -0.4740 -0.0867
16013SOL    HW150292   0.610   0.391   2.775  2.7518  1.0880  0.2237
16013SOL    HW250293   0.668   0.272   2.848 -1.1924 -1.3449 -0.2604
16014SOL     OW50294   3.282   4.459   4.620  0.2587 -0.1650 -0.0076
16014SOL    HW150295   3.366   4.503   4.609 -0.3416  0.9667 -0.2646
16014SOL    HW250296   3.222   4.508   4.563 -0.7952 -0.3097  0.9483
16015SOL     OW50297   9.876   4.754   7.072 -0.6919  0.0218 -0.5307
16015SOL    HW150298   9.850   4.772   6.982  0.7889 -0.5893 -1.1210
16015SOL    HW250299   9.940   4.683   7.065 -1.5357 -0.9659  1.1334
16016SOL     OW50300   0.866   8.835   6.412 -0.4921  0.2089 -0.4843
16016SOL    HW150301   0.781   8.880   6.406 -0.8092 -0.5552 -3.1305
16016SOL    HW250302   0.908   8.853   6.328  1.6107 -0.1872  0.4345
16017SOL     OW50303   6.168   9.358   7.950  0.2365  0.8240  0.2558
16017SOL    HW150304   6.232   9.290   7.929 -0.5772  0.0117  0.3359
16017SOL    HW250305   6.088   9.330   7.906 -0.0583  1.8652  0.0850
16018SOL     OW50306   5.737   6.922   4.643 -0.4870  0.2661  0.2320
16018SOL    HW150307   5.809   6.983   4.655 -1.0240  0.6884  1.5599
16018SOL    HW250308   5.761   6.869   4.567  1.7423 -0.3569  1.3029
16019SOL     OW50309   5.292   1.471   3.296  0.1613  0.6199 -0.0978
16019SOL    HW150310   5.259   1.557   3.323 -2.7280 -0.1429 -0.9142
16019SOL    HW250311   5.245   1.451   3.215  2.4558 -0.7858 -1.1976
16020SOL     OW50312   2.937   7.715   5.270 -0.2198  0.0657  0.4602
16020SOL    HW150313   2.923   7.622   5.253 -0.5995  0.2737 -0.4065
16020SOL    HW250314   3.032   7.724   5.277 -0.1575 -0.3220  0.1397
16021SOL     OW50315   8.099   2.846   2.514  0.6464  0.0398 -0.8231
16021SOL    HW150316   8.018   2.812   2.476  1.0527 -0.3760 -1.3390
16021SOL    HW250317   8.162   2.842   2.442  1.1874  0.1360 -0.3602
16022SOL     OW50318  10.100   8.277  10.082 -0.0472 -0.0414  0.3413
16022SOL    HW150319  10.098   8.366  10.047  2.2696  0.3368  1.0038
16022SOL    HW250320  10.053   8.224  10.018 -0.9480  1.5387 -0.3616
16023SOL     OW50321   0.912   6.080   6.509 -0.3800  0.0754  0.2093
16023SOL    HW150322   0.907   6.139   6.434  2.1457 -0.5229 -0.5073
16023SOL    HW250323   0.821   6.051   6.521 -0.9667  0.5418 -2.3335
16024SOL     OW50324   6.353   2.140   4.609 -0.4000 -0.8167  0.2880
16024SOL    HW150325   6.372   2.231   4.588 -1.9434 -0.2075  1.3237
16024SOL    HW250326   6.410   2.089   4.552  0.4202  0.7941 -0.3789
16025SOL     OW50327   5.745  10.590   3.346 -0.3895  0.1194  0.0311
16025SOL    HW150328   5.796  10.663   3.311 -1.2269  1.0464  0.6850
16025SOL    HW250329   5.809  10.538   3.394  0.0591  0.9308  0.3379
16026SOL     OW50330   5.020   3.044   5.389 -0.0780 -0.8860 -0.0481
16026SOL    HW150331   4.983   3.024   5.304 -0.9399  0.4372 -0.0100
16026SOL    HW250332   5.002   3.137   5.402  2.4124 -0.3934  0.4031
16027SOL     OW50333  10.517   2.291   1.177 -0.4814 -0.1563 -0.6373
16027SOL    HW150334  10.454   2.358   1.150 -1.7822 -0.9605  0.3005
16027SOL    HW250335  10.569   2.334   1.245 -1.5190 -0.1584  0.1923
16028SOL     OW50336   0.475   4.084   4.957 -0.3064  0.0912 -0.5414
16028SOL    HW150337   0.524   4.025   5.015  0.0031  1.1456  0.2914
16028SOL    HW250338   0.424   4.139   5.016 -0.0939  1.0970 -1.2635
16029SOL     OW50339   0.083   8.422   5.159  0.6251  0.2124  0.1903
16029SOL    HW150340   0.174   8.415   5.186  0.4730 -0.7264  0.4921
16029SOL    HW250341   0.076   8.511   5.123  1.7445  0.1637 -0.1971
16030SOL     OW50342   8.924   9.112   9.674 -0.1806 -0.6352  0.2402
16030SOL    HW150343   8.878   9.176   9.620  0.8028 -0.9961 -1.0790
16030SOL    HW250344   8.868   9.034   9.672 -0.8874 -0.1644  1.0191
16031SOL     OW50345   3.483   9.968   3.371  0.2316  0.0853 -0.1535
16031SOL    HW150346   3.443   9.894   3.325  0.9995  0.6030 -1.7355
16031SOL    HW250347   3.577   9.950   3.366  0.4030  0.9672 -0.1951
16032SOL     OW50348  10.021   6.549  10.594 -0.3556  0.4828 -0.7833
16032SOL    HW150349  10.110   6.566  10.564 -0.4767  0.5471 -1.1143
16032SOL    HW250350   9.965   6.583  10.524 -0.6889  1.8726  0.1051
16033SOL     OW50351   7.615   3.490   8.987 -0.1744  0.3101 -0.0765
16033SOL    HW150352   7.581   3.414   8.940 -0.7823  0.2216  0.4887
16033SOL    HW250353   7.710   3.478   8.989 -0.1451  0.2961 -1.2319
16034SOL     OW50354   5.892   9.279   9.361  0.0402 -0.3508  0.1289
16034SOL    HW150355   5.894   9.270   9.266 -0.5941 -1.5574  0.2008
16034SOL    HW250356   5.896   9.189   9.393  0.4312  0.0503  1.2505
16035SOL     OW50357   7.586   2.082   2.451 -0.0811  0.1860  0.1391
16035SOL    HW150358   7.579   2.103   2.358  1.9176 -0.3897 -0.1885
16035SOL    HW250359   7.680   2.084   2.469 -0.3087 -1.3637  1.7542
16036SOL     OW50360   9.086   7.818   2.772  0.0903 -0.2899  0.6089
16036SOL    HW150361   9.095   7.763   2.849  0.2544  0.6864  1.3055
16036SOL    HW250362   9.174   7.821   2.734 -0.2378 -1.7857 -0.3643
16037SOL     OW50363   9.527   8.188   0.437  0.2046 -0.1533 -0.2776
16037SOL    HW150364   9.557   8.279   0.441  0.1601 -0.1110 -0.8822
16037SOL    HW250365   9.596   8.138   0.482 -0.1802  0.2712  0.8180
16038SOL     OW50366   7.528   1.336   3.425 -0.3905  0.2796  0.0965
16038SOL    HW150367   7.613   1.371   3.399  0.1588 -0.3771  0.9351
16038SOL    HW250368   7.477   1.331   3.344  1.3936 -2.1277 -1.0207
16039SOL     OW50369   5.481   9.644   3.983 -0.6338  0.1203 -0.0058
16039SOL    HW150370   5.513   9.661   4.071  2.1393 -0.0420 -0.9122
16039SOL    HW250371   5.527   9.707   3.927 -1.5462 -0.4706 -1.5023
16040SOL     OW50372   3.956   8.258   3.535  0.2432 -0.6210 -0.1138
16040SOL    HW150373   3.881   8.212   3.574 -0.2481  0.2017 -0.0714
16040SOL    HW250374   3.928   8.349   3.529  0.6259 -0.5737 -1.6286
16041SOL     OW50375   0.398   3.214   9.635  0.7204  0.7493 -0.5717
16041SOL    HW150376   0.363   3.163   9.562 -0.6788 -0.7191  1.0257
16041SOL    HW250377   0.338   3.196   9.708  2.5801  1.3619  1.2122
16042SOL     OW50378   0.316   1.050   7.434  0.4146  0.4259  0.5847
16042SOL    HW150379   0.355   0.995   7.501  0.4870  0.5731  0.6642
16042SOL    HW250380   0.383   1.115   7.413  0.6115  0.0345 -0.0433
16043SOL     OW50381   4.152   3.226   1.735  0.2869 -0.7696 -0.1259
16043SOL    HW150382   4.139   3.282   1.811  3.7639  1.7521 -1.1343
16043SOL    HW250383   4.063   3.207   1.704 -1.1468  1.1060  2.4596
16044SOL     OW50384   1.594   7.626   1.835  0.7222 -0.0173  0.0808
16044SOL    HW150385   1.546   7.599   1.756  0.8251  1.3672 -0.4835
16044SOL    HW250386   1.623   7.715   1.816  1.2975  0.1086  1.4448
16045SOL     OW50387   6.933  10.352   5.816  0.4777 -0.2610  0.0624
16045SOL    HW150388   6.996  10.334   5.886  0.0313  0.3180  0.6243
16045SOL    HW250389   6.964  10.300   5.742  1.5063 -0.1308  0.3882
16046SOL     OW50390   7.989   4.576   0.754  0.4773  0.2654  0.5532
16046SOL    HW150391   7.909   4.629   0.744 -1.2028 -2.3537 -1.2966
16046SOL    HW250392   8.021   4.566   0.664  0.5644 -2.0151  0.8033
16047SOL     OW50393   0.886   9.914   8.613 -0.2383 -0.0491 -0.5891
16047SOL    HW150394   0.838   9.966   8.678  0.0927  0.1162 -0.4715
16047SOL    HW250395   0.937   9.852   8.665  0.2800  0.3021 -0.6719
16048SOL     OW50396   8.709   2.815   6.411  0.0743 -0.2523 -0.2908
16048SOL    HW150397   8.674   2.741   6.363 -0.0163  0.3272 -1.1297
16048SOL    HW250398   8.744   2.873   6.344  2.0753 -0.5018  0.4679
16049SOL     OW50399   9.607   4.316   5.545 -0.6342  0.2543  0.0584
16049SOL    HW150400   9.526   4.359   5.516 -0.2917  0.6970 -0.2605
16049SOL    HW250401   9.636   4.368   5.620  0.1767  1.0471 -0.7830
16050SOL     OW50402   6.084   2.595   3.885  0.2493 -0.5286  0.6324
16050SOL    HW150403   6.051   2.619   3.799  0.9514 -0.2036  0.4481
16050SOL    HW250404   6.076   2.674   3.937  1.6309 -0.1492  0.3083
16051SOL     OW50405   6.132   0.713   9.942  0.1208 -0.2588 -0.5606
16051SOL    HW150406   6.109   0.668   9.861 -0.1328 -0.0365 -0.6141
16051SOL    HW250407   6.075   0.674  10.009 -0.3176  0.1949 -0.6664
16052SOL     OW50408  10.230   3.112   3.026 -0.4363 -0.2071 -0.1835
16052SOL    HW150409  10.148   3.104   2.977 -0.9238  0.5674  0.4887
16052SOL    HW250410  10.264   3.198   3.001 -0.0327 -0.3530 -0.1446
16053SOL     OW50411   7.311   6.298   5.269  0.0360 -0.1842  0.8210
16053SOL    HW150412   7.249   6.360   5.307 -0.1474 -0.2334  0.6008
16053SOL    HW250413   7.356   6.260   5.345  1.8001  1.8846  0.9107
16054SOL     OW50414   0.656   5.433   4.969  0.4042  0.3870 -0.0026
16054SOL    HW150415   0.746   5.403   4.967  0.0881 -1.1084  2.9288
16054SOL    HW250416   0.603   5.354   4.959 -0.5286  0.8238  1.1780
16055SOL     OW50417   2.951   5.742  10.370  0.4982  0.0748 -0.0492
16055SOL    HW150418   2.957   5.670  10.307  2.4961 -0.2038  0.4139
16055SOL    HW250419   3.040   5.754  10.402 -0.0029  1.9876  0.7680
16056SOL     OW50420   8.851   0.044   1.768  0.1359 -0.1716  0.1656
16056SOL    HW150421   8.758   0.027   1.780  0.3795 -1.1770  0.6853
16056SOL    HW250422   8.864   0.132   1.804 -0.7899  0.4059 -0.8478
16057SOL     OW50423  10.233   3.271   6.599 -0.7482  0.1710  0.8132
16057SOL    HW150424  10.270   3.283   6.686 -0.1222  0.0990  0.5585
16057SOL    HW250425  10.294   3.212   6.555 -0.8791  0.4791  0.2093
16058SOL     OW50426   1.617   7.945   7.275  0.4762  0.6756 -0.0459
16058SOL    HW150427   1.601   8.037   7.297  0.9131  0.9470 -0.8500
16058SOL    HW250428   1.531   7.903   7.284  0.5115  0.8766  1.5978
16059SOL     OW50429   6.753   3.192   1.890 -0.1055  0.2661  0.0433
16059SOL    HW150430   6.827   3.253   1.899  2.7611 -2.8406 -0.2891
16059SOL    HW250431   6.772   3.143   1.810 -2.3755 -0.9233  0.1605
16060SOL     OW50432   8.831   7.458   5.155 -0.3959 -0.0915 -0.4917
16060SOL    HW150433   8.873   7.381   5.195 -2.6618 -1.3642 -0.4155
16060SOL    HW250434   8.857   7.531   5.212  1.0828 -0.9273 -0.0393
16061SOL     OW50435   8.969   5.634  10.628  0.0197  0.0538  0.0076
16061SOL    HW150436   9.039   5.579  10.594  0.3049  0.1894  0.3718
16061SOL    HW250437   8.981   5.718  10.584 -0.4897 -0.2107 -0.6391
16062SOL     OW50438   4.390   7.559   1.094  0.1910  0.5012 -0.1977
16062SOL    HW150439   4.409   7.637   1.147 -1.9283  0.8601  0.1013
16062SOL    HW250440   4.317   7.517   1.138 -0.1044 -0.4714 -1.5667
16063SOL     OW50441   3.411   1.843   8.909  0.7268  0.0808 -0.3033
16063SOL    HW150442   3.481   1.778   8.907  0.9945  0.3718 -0.3909
16063SOL    HW250443   3.442   1.909   8.971 -0.0830 -0.4841  0.7389
16064SOL     OW50444   2.896   9.756   9.944  0.3725 -0.1377 -0.2087
16064SOL    HW150445   2.805   9.732   9.960 -0.1057  1.2759 -0.6461
16064SOL    HW250446   2.918   9.714   9.861  0.3206 -0.9774  0.1955
16065SOL     OW50447   5.017   3.087   0.606 -0.0460 -0.0192  0.5959
16065SOL    HW150448   4.967   3.052   0.680 -0.3894 -2.0068 -0.5247
16065SOL    HW250449   4.951   3.109   0.540  0.3903 -0.3511  0.0373
16066SOL     OW50450  10.572   2.269   7.528 -0.5099  0.3802 -0.3857
16066SOL    HW150451  10.536   2.184   7.553 -2.6765  0.9773 -1.1791
16066SOL    HW250452  10.592   2.312   7.611 -2.9425  0.4822  0.2193
16067SOL     OW50453   6.037   1.744   0.979 -0.0937 -0.8495  0.0701
16067SOL    HW150454   5.944   1.762   0.994  0.3212  2.8773 -0.8113
16067SOL    HW250455   6.038   1.687   0.902 -1.6784  0.2887 -0.8698
16068SOL     OW50456   8.725   1.901   7.677  0.0127 -0.5782 -0.9960
16068SOL    HW150457   8.672   1.834   7.721 -0.8799 -0.6399 -2.1470
16068SOL    HW250458   8.801   1.853   7.645  0.8111 -0.4910  0.6529
16069SOL     OW50459  10.449  10.429   3.047 -0.2165 -0.1824  0.2472
16069SOL    HW150460  10.438  10.338   3.074  1.1478 -0.4092  0.0989
16069SOL    HW250461  10.538  10.453   3.075 -0.5120  1.0735  0.1981
16070SOL     OW50462   4.980   7.251   2.392  0.3604 -0.4885 -0.2715
16070SOL    HW150463   5.039   7.182   2.422  1.5366  1.0920  1.2776
16070SOL    HW250464   5.032   7.331   2.400 -1.5106  0.7844 -0.3420
16071SOL     OW50465  10.110   5.912   9.491  0.2083 -0.1767  0.2907
16071SOL    HW150466  10.021   5.901   9.459  0.3685 -1.7171  0.2823
16071SOL    HW250467  10.128   5.832   9.541  1.7709 -0.1569 -0.1694
16072SOL     OW50468   4.396   1.087   2.688 -0.8438  1.0365  0.0600
16072SOL    HW150469   4.423   1.109   2.599  1.5324  0.2267  0.5112
16072SOL    HW250470   4.449   1.143   2.744  0.8215 -1.3537  1.0338
16073SOL     OW50471   8.413   4.710  10.396 -0.1901 -0.1083 -0.0210
16073SOL    HW150472   8.495   4.662  10.387 -0.0879  0.2546 -1.3442
16073SOL    HW250473   8.345   4.643  10.388 -0.0549 -0.6107  2.4680
16074SOL     OW50474   7.317   7.422   0.032 -0.0392  0.4770 -0.1912
16074SOL    HW150475   7.253   7.358   0.064  1.3321 -1.6727 -1.4585
16074SOL    HW250476   7.399   7.397   0.075  0.4373  1.6900 -0.3719
16075SOL     OW50477   3.178   5.878   0.920 -0.3211  0.0630 -0.2546
16075SOL    HW150478   3.122   5.849   0.992  0.8949  0.6576  1.0038
16075SOL    HW250479   3.206   5.798   0.877  0.9477 -0.5417  1.5587
16076SOL     OW50480   4.104   2.760   3.414  0.2990  0.4777  0.1295
16076SOL    HW150481   4.054   2.804   3.345 -2.7990 -0.2333  1.7177
16076SOL    HW250482   4.109   2.669   3.387  0.2251  0.4471  0.2152
16077SOL     OW50483   9.582  10.197   0.689  0.1485 -0.1125 -0.0376
16077SOL    HW150484   9.569  10.205   0.595  2.1435 -0.8094 -0.4332
16077SOL    HW250485   9.547  10.111   0.712 -0.0921 -0.0570 -0.2017
16078SOL     OW50486   0.316   8.944   6.668 -0.1904 -0.0702  0.0588
16078SOL    HW150487   0.307   8.965   6.575  1.1663 -0.7016 -0.2344
16078SOL    HW250488   0.258   8.869   6.682  1.3401 -1.4700 -0.8368
16079SOL     OW50489   3.904   7.712   5.302  0.1580 -0.3321 -0.2426
16079SOL    HW150490   3.816   7.738   5.275  0.1895  0.6103  0.5051
16079SOL    HW250491   3.890   7.641   5.365 -0.1672  0.7987  1.0057
16080SOL     OW50492   0.528   9.840   5.245 -0.1698 -0.3235  0.1782
16080SOL    HW150493   0.518   9.933   5.225  0.9125 -0.1993  0.1072
16080SOL    HW250494   0.474   9.795   5.180 -1.4748  0.2732  0.8169
16081SOL     OW50495   5.368   7.240   4.230 -0.0145  0.2578  0.3781
16081SOL    HW150496   5.338   7.185   4.157  0.0226  0.8903 -0.1176
16081SOL    HW250497   5.287   7.266   4.274 -0.0163 -0.4785  0.8393
16082SOL     OW50498   5.094   9.155   2.784  0.4067 -0.1543 -0.4515
16082SOL    HW150499   5.020   9.159   2.724 -0.3805  0.8348  0.5460
16082SOL    HW250500   5.169   9.188   2.734 -0.1162  0.1207 -1.0553
16083SOL     OW50501   6.562   9.201   5.556 -0.2786 -0.2321  0.1225
16083SOL    HW150502   6.611   9.120   5.562 -0.2716 -0.5319 -2.5559
16083SOL    HW250503   6.470   9.174   5.553 -0.2836 -0.1561 -0.6331
16084SOL     OW50504   3.898   5.337   4.712 -0.8486  0.3391 -1.3647
16084SOL    HW150505   3.848   5.278   4.769 -0.2081 -0.0307 -1.1774
16084SOL    HW250506   3.834   5.403   4.684 -0.7977  1.5970  1.2227
16085SOL     OW50507   2.734  10.219   8.114  0.4158  0.0086 -0.4385
16085SOL    HW150508   2.682  10.181   8.043  1.0432  0.3532 -1.0871
16085SOL    HW250509   2.673  10.223   8.188 -0.2000 -0.5014 -0.9009
16086SOL     OW50510   8.396  10.148   5.564 -0.3735 -0.2144 -0.2083
16086SOL    HW150511   8.436  10.153   5.477 -0.3177  0.5511 -0.1463
16086SOL    HW250512   8.394  10.239   5.594  1.0382 -0.6086  1.2436
16087SOL     OW50513   1.683  10.588  10.440 -0.0989 -0.4286  0.5550
16087SOL    HW150514   1.741  10.658  10.410 -0.0775 -1.3774 -1.9187
16087SOL    HW250515   1.598  10.630  10.452 -0.1906  0.0245 -1.2888
16088SOL     OW50516   0.799   4.655   2.716  0.8271 -0.2327  0.2131
16088SOL    HW150517   0.890   4.681   2.699  0.8740 -1.2382 -1.2146
16088SOL    HW250518   0.776   4.703   2.796  1.7897  2.0049 -0.7573
16089SOL     OW50519   3.874   4.913   1.360  0.6711  0.4782  0.1150
16089SOL    HW150520   3.944   4.954   1.410 -0.0923 -0.7182  2.3035
16089SOL    HW250521   3.872   4.822   1.391 -0.1857 -0.2057 -1.7722
16090SOL     OW50522   3.247   4.539   0.679 -0.1020 -0.5304 -0.0946
16090SOL    HW150523   3.193   4.607   0.640  0.9281  0.3480 -0.0200
16090SOL    HW250524   3.250   4.562   0.772 -3.3077 -3.1068  0.8604
16091SOL     OW50525   6.217   1.663   8.597  0.3206 -0.5740 -0.3308
16091SOL    HW150526   6.256   1.710   8.671  0.5452 -0.1116 -0.7352
16091SOL    HW250527   6.161   1.728   8.554 -0.1158 -0.9507 -0.3400
16092SOL     OW50528   0.159   0.775   6.173 -0.1093  0.8387  0.4773
16092SOL    HW150529   0.072   0.740   6.152  0.4240 -0.2671 -0.0110
16092SOL    HW250530   0.143   0.864   6.204 -1.3053  1.0766 -0.7455
16093SOL     OW50531   9.877   6.394   1.287 -0.7409  0.4900 -0.1571
16093SOL    HW150532   9.792   6.382   1.329 -0.2669 -2.1919  0.2056
16093SOL    HW250533   9.901   6.306   1.256  2.8104  0.6755  1.5485
16094SOL     OW50534   6.737   2.061   1.897  0.0905 -0.9291 -0.1067
16094SOL    HW150535   6.778   1.991   1.948  0.5985  0.7337  1.8510
16094SOL    HW250536   6.804   2.086   1.833  0.8110 -0.6303  0.7547
16095SOL     OW50537   3.806   4.323   0.393 -0.0330 -0.1413 -0.0004
16095SOL    HW150538   3.868   4.337   0.464  0.7652  0.3540 -0.7784
16095SOL    HW250539   3.754   4.248   0.421  1.2002 -0.8492  0.4846
16096SOL     OW50540   3.054   1.306   7.759 -0.6149  0.3279  0.2189
16096SOL    HW150541   3.061   1.348   7.673  0.8739  1.0181  0.6459
16096SOL    HW250542   3.118   1.235   7.757  1.7625  2.2699  1.7577
16097SOL     OW50543   5.050   6.034   7.950 -0.2622 -0.2387  0.4335
16097SOL    HW150544   5.055   6.126   7.925  1.2634 -0.8950 -2.0223
16097SOL    HW250545   4.962   6.008   7.926 -0.0850  0.1379 -0.6818
16098SOL     OW50546   8.134   6.462   3.543  0.0718 -0.0499 -0.1205
16098SOL    HW150547   8.068   6.449   3.475  0.2846  1.1103 -0.5692
16098SOL    HW250548   8.132   6.381   3.594  1.1684 -1.7495 -2.5682
16099SOL     OW50549   2.321   8.827   7.615 -0.4452 -0.1541 -0.3124
16099SOL    HW150550   2.348   8.753   7.561 -0.9231 -0.4240 -0.1849
16099SOL    HW250551   2.396   8.843   7.673  0.8575  1.3223 -2.2660
16100SOL     OW50552  10.599   1.883  10.503 -0.4562 -0.3875  0.4409
16100SOL    HW150553  10.551   1.801  10.508 -0.3108 -0.7300 -2.4196
16100SOL    HW250554  10.570   1.923  10.421  1.8299  0.8786  0.1682
16101SOL     OW50555   5.142   4.510   4.191  0.2038  0.0472  0.0454
16101SOL    HW150556   5.165   4.441   4.128 -0.6386 -0.3948  0.2104
16101SOL    HW250557   5.194   4.490   4.268  0.5622  0.0643 -0.1875
16102SOL     OW50558  10.355   7.640   6.844 -0.3322 -0.2174  0.3425
16102SOL    HW150559  10.302   7.705   6.889  1.9697  2.3426 -0.3782
16102SOL    HW250560  10.428   7.622   6.903  0.6703  0.2508 -0.6927
16103SOL     OW50561   8.111   9.368   0.378  0.1253  0.1332  0.3130
16103SOL    HW150562   8.196   9.363   0.422 -0.5645  0.7048  1.7975
16103SOL    HW250563   8.076   9.453   0.406 -0.5941  0.2719 -0.9479
16104SOL     OW50564  10.011   1.144   2.953 -0.1420  0.0947 -0.3820
16104SOL    HW150565  10.083   1.202   2.979  0.8905 -0.8546 -1.0541
16104SOL    HW250566   9.956   1.198   2.897  0.4645  0.6127 -0.4868
16105SOL     OW50567   5.741   1.644   3.144  0.3622 -0.7416 -0.5784
16105SOL    HW150568   5.657   1.599   3.155  0.3832 -0.8951 -1.0388
16105SOL    HW250569   5.801   1.599   3.203  0.0042 -0.3107  0.1350
16106SOL     OW50570   7.268   3.093   8.086 -0.2486 -0.7480 -0.2135
16106SOL    HW150571   7.266   3.138   8.171  0.3525 -0.0678 -0.5419
16106SOL    HW250572   7.176   3.081   8.063 -0.4182 -0.9927  0.5586
16107SOL     OW50573   9.151   5.406   9.914  0.4191 -0.4493  0.4553
16107SOL    HW150574   9.081   5.470   9.930 -1.0625 -2.1482  1.1882
16107SOL    HW250575   9.111   5.322   9.936  1.5156 -1.9391 -2.7004
16108SOL     OW50576   0.043   6.529   5.710 -0.3798  0.5324  0.5353
16108SOL    HW150577  -0.023   6.513   5.777  1.2777 -0.7751  1.9658
16108SOL    HW250578  -0.006   6.544   5.630 -2.4154  1.0823  1.8198
16109SOL     OW50579   5.114   9.431  10.571  0.0544 -0.3311 -0.0648
16109SOL    HW150580   5.083   9.464  10.487 -1.0785 -1.9136 -0.3144
16109SOL    HW250581   5.051   9.465  10.635  1.0204  1.0243  0.1957
16110SOL     OW50582   7.507   2.809   8.544 -0.6270  0.2555 -0.1378
16110SOL    HW150583   7.572   2.823   8.475 -0.7706 -1.0687 -0.5810
16110SOL    HW250584   7.474   2.897   8.565 -0.9332  0.6601 -2.1096
16111SOL     OW50585   5.835   8.694   7.371 -0.3833 -0.3436  0.0528
16111SOL    HW150586   5.812   8.783   7.399  1.5105  1.1326 -2.5613
16111SOL    HW250587   5.752   8.646   7.372 -1.8148  1.9619 -0.0981
16112SOL     OW50588   6.236   8.323   1.215 -0.2495  0.6127 -0.3349
16112SOL    HW150589   6.152   8.283   1.240 -1.0866  2.0537 -0.6636
16112SOL    HW250590   6.236   8.322   1.120  1.2556 -1.5609 -0.3578
16113SOL     OW50591   9.024   3.993   7.734  0.3735  0.2321 -0.1123
16113SOL    HW150592   8.939   4.009   7.692 -0.0002 -0.4178  0.3654
16113SOL    HW250593   9.035   4.066   7.794 -0.8988 -0.7767  1.4196
16114SOL     OW50594   2.287  10.557   6.101  0.7506  0.1438 -0.3579
16114SOL    HW150595   2.223  10.617   6.139 -1.9759 -1.7918 -1.5668
16114SOL    HW250596   2.307  10.595   6.015 -0.2008 -0.1162 -0.7100
16115SOL     OW50597   4.852   4.886   2.790 -0.4744 -0.3157 -0.0889
16115SOL    HW150598   4.803   4.949   2.843 -1.3422 -0.3204 -0.8623
16115SOL    HW250599   4.931   4.934   2.763 -0.9444  0.3201 -0.3640
16116SOL     OW50600   3.217   1.266   4.898  0.3610  0.0849 -0.4992
16116SOL    HW150601   3.296   1.305   4.935  2.2797 -2.5833 -1.4649
16116SOL    HW250602   3.193   1.323   4.826  1.1598  1.1595  0.0609
16117SOL     OW50603   9.711   1.840   9.954  0.3249  0.2430  0.6026
16117SOL    HW150604   9.637   1.780   9.949  1.2442 -0.8183 -1.3141
16117SOL    HW250605   9.672   1.927   9.945 -0.7886 -0.2188  0.7973
16118SOL     OW50606   1.139   6.177   1.010  0.5077 -0.2840  0.0892
16118SOL    HW150607   1.063   6.225   1.042  0.9163 -0.3094  1.1228
16118SOL    HW250608   1.152   6.107   1.073 -1.4692 -3.3176 -2.5312
16119SOL     OW50609   1.701   3.817   3.452  0.1971  0.1098  0.2678
16119SOL    HW150610   1.638   3.790   3.385  0.9818  0.7034 -0.7384
16119SOL    HW250611   1.770   3.751   3.448  1.0523  1.0331 -0.6821
16120SOL     OW50612  10.422   8.908   5.164 -0.1782  0.1493  0.8077
16120SOL    HW150613  10.389   8.892   5.075  0.2131 -0.8557  0.8363
16120SOL    HW250614  10.348   8.948   5.210 -0.4872  0.3897  0.1258
16121SOL     OW50615   9.130  10.171   6.744  0.6517 -0.0398 -0.1648
16121SOL    HW150616   9.183  10.240   6.783 -0.0967  1.1588 -1.1790
16121SOL    HW250617   9.086  10.214   6.670 -0.5960 -1.3514 -0.2237
16122SOL     OW50618   9.947   7.407   2.604 -0.1598  0.2688  0.4765
16122SOL    HW150619   9.911   7.424   2.517  0.8815  0.0526 -0.0024
16122SOL    HW250620   9.881   7.352   2.646  0.2131 -1.2825 -0.8878
16123SOL     OW50621   4.240   7.869  10.277 -0.0754  0.0667 -0.1616
16123SOL    HW150622   4.201   7.797  10.326 -1.1887  0.6329 -0.1975
16123SOL    HW250623   4.256   7.937  10.342  0.6915 -0.0744 -0.1839
16124SOL     OW50624   6.455   3.808   1.244 -0.2466  0.1211  0.6494
16124SOL    HW150625   6.391   3.866   1.285 -1.5009 -0.7938  0.0522
16124SOL    HW250626   6.425   3.720   1.266  1.6204 -0.3506  1.5321
16125SOL     OW50627   8.469   0.300   5.680 -0.2809  0.4944  0.6357
16125SOL    HW150628   8.431   0.367   5.736 -1.7161 -0.0943  0.3988
16125SOL    HW250629   8.564   0.314   5.687 -0.4932  1.4896  1.8751
16126SOL     OW50630   8.851   9.585   5.182 -0.2584 -0.6421 -0.0315
16126SOL    HW150631   8.781   9.634   5.139 -0.0633 -0.5619 -0.2622
16126SOL    HW250632   8.855   9.621   5.270 -2.7679 -2.9125  1.1323
16127SOL     OW50633   2.203   0.883   2.823  0.2713  0.4239 -1.0233
16127SOL    HW150634   2.210   0.787   2.824  0.4619  0.3580  2.2032
16127SOL    HW250635   2.112   0.900   2.849  0.5645  1.0844 -0.4030
16128SOL     OW50636   6.009  10.261   1.173  0.5454 -0.0809  0.2565
16128SOL    HW150637   6.044  10.326   1.234 -5.2056  3.0606  0.9283
16128SOL    HW250638   5.950  10.207   1.225 -1.0688 -0.3538 -1.7027
16129SOL     OW50639   5.294  10.043  10.114  0.4443  0.0432 -0.1676
16129SOL    HW150640   5.296   9.981  10.187  1.6866  1.3543  0.9604
16129SOL    HW250641   5.318  10.127  10.152 -1.3220  1.3021 -1.6332
16130SOL     OW50642   2.973   1.698   7.012  0.1393  0.4328 -0.0445
16130SOL    HW150643   3.061   1.735   7.024  0.7330 -0.6792 -0.7810
16130SOL    HW250644   2.981   1.607   7.042 -1.6851  1.1862  3.2317
16131SOL     OW50645   0.637   8.392   8.912 -0.1316 -0.5150  0.2480
16131SOL    HW150646   0.694   8.340   8.969  0.2411 -1.3532 -0.8683
16131SOL    HW250647   0.570   8.426   8.971 -1.3015 -3.5029  0.8169
16132SOL     OW50648   2.294   8.338   9.680  0.0099  0.4143 -0.5789
16132SOL    HW150649   2.340   8.316   9.760 -1.6340  0.0211  0.2972
16132SOL    HW250650   2.275   8.254   9.638 -2.3808  0.3092  0.5427
16133SOL     OW50651   5.280   2.472   2.073 -0.2670 -0.1670  0.1315
16133SOL    HW150652   5.361   2.523   2.082 -1.6521  2.0253  0.9957
16133SOL    HW250653   5.228   2.521   2.009 -2.3291  0.5434  2.2129
16134SOL     OW50654   0.685   8.826   1.255  0.0584  0.7835 -0.1262
16134SOL    HW150655   0.724   8.774   1.324 -0.4725  0.1416 -0.3046
16134SOL    HW250656   0.706   8.917   1.278 -1.4892  0.7126  1.7653
16135SOL     OW50657   6.253   1.889   9.893  0.0472  0.3390  0.0256
16135SOL    HW150658   6.256   1.802   9.933  1.5844  0.5287  0.3690
16135SOL    HW250659   6.188   1.937   9.944 -0.1768 -0.3217  0.3814
16136SOL     OW50660   2.978   1.120   1.382 -0.1361  0.5885 -0.1937
16136SOL    HW150661   2.976   1.167   1.298 -0.2894  1.2036  0.1491
16136SOL    HW250662   3.047   1.054   1.371 -0.1392  0.6801 -0.7948
16137SOL     OW50663   5.439   2.538   9.688 -0.0993  0.1552 -0.1431
16137SOL    HW150664   5.518   2.580   9.723 -1.6099  2.5431  0.5879
16137SOL    HW250665   5.416   2.473   9.754  1.5134 -0.9756 -0.6254
16138SOL     OW50666   4.695   9.363   2.981  0.0389 -0.1810  0.2667
16138SOL    HW150667   4.764   9.366   2.915  0.3993 -0.7875  0.6090
16138SOL    HW250668   4.667   9.272   2.982 -0.5633  0.0037  0.3401
16139SOL     OW50669   9.794   9.849   0.172  0.6559 -0.2422 -0.9446
16139SOL    HW150670   9.855   9.902   0.224 -0.6836  0.4505 -0.0144
16139SOL    HW250671   9.740   9.804   0.237  0.6360 -1.4178 -1.7488
16140SOL     OW50672   4.206   2.418   2.635  0.2073 -0.2316  0.3242
16140SOL    HW150673   4.301   2.409   2.644  0.1512  0.3689  1.6786
16140SOL    HW250674   4.176   2.330   2.613  1.1590 -0.2427 -1.1136
16141SOL     OW50675   7.544   1.338   1.835 -0.4222 -0.6856  0.2002
16141SOL    HW150676   7.581   1.400   1.771 -0.4381  0.4441  1.2347
16141SOL    HW250677   7.621   1.300   1.879 -0.3943  0.7069  1.4633
16142SOL     OW50678   6.688   6.882   0.725  0.4152  0.2630 -0.1416
16142SOL    HW150679   6.612   6.939   0.712 -0.9914 -1.7710 -1.6178
16142SOL    HW250680   6.665   6.828   0.800  0.2761 -0.4794 -0.7002
16143SOL     OW50681   2.822   8.145   4.831 -0.5775 -0.1309 -0.0225
16143SOL    HW150682   2.785   8.222   4.874 -1.4670 -1.1029  1.0269
16143SOL    HW250683   2.747   8.085   4.822  0.2000 -1.0748 -0.3092
16144SOL     OW50684   7.740   8.637   1.338  0.8319  0.1254  0.3430
16144SOL    HW150685   7.778   8.580   1.272 -0.6693 -0.4795 -0.0514
16144SOL    HW250686   7.686   8.579   1.392  1.2923  0.7644  1.5459
16145SOL     OW50687   0.477   5.345   5.601  0.0440 -0.0056 -0.2187
16145SOL    HW150688   0.474   5.340   5.697 -2.9941  1.0473 -0.1716
16145SOL    HW250689   0.470   5.438   5.582  1.8693 -0.0877 -1.5220
16146SOL     OW50690   8.199   5.654   9.585  0.1179  0.7188  0.9131
16146SOL    HW150691   8.241   5.655   9.499 -0.1623  0.9500  0.7754
16146SOL    HW250692   8.115   5.610   9.570 -0.2627  1.4262  0.9022
16147SOL     OW50693   1.243   3.909   8.291 -0.2262 -0.1298  0.3834
16147SOL    HW150694   1.167   3.866   8.254 -0.8984  0.3623  1.1512
16147SOL    HW250695   1.299   3.837   8.322 -1.1494 -0.4697  1.2965
16148SOL     OW50696  10.536   0.806   6.800  0.4379 -0.7548 -0.1555
16148SOL    HW150697  10.614   0.803   6.855  0.0024  0.5720  0.5830
16148SOL    HW250698  10.468   0.843   6.858 -0.5232 -1.1180 -1.0228
16149SOL     OW50699   9.860  10.055   1.507 -0.3659 -0.3966  0.0392
16149SOL    HW150700   9.767  10.071   1.491 -0.0597 -0.3555 -1.8249
16149SOL    HW250701   9.873   9.963   1.485  0.0589 -0.3884  0.2394
16150SOL     OW50702   8.003   1.340   5.080 -0.3315 -0.0135 -0.2863
16150SOL    HW150703   7.992   1.245   5.070 -1.3964 -0.0774  1.1812
16150SOL    HW250704   8.098   1.352   5.085 -0.2049 -1.1803  0.7589
16151SOL     OW50705   8.755  10.005   9.986 -0.5058  0.2314  0.3784
16151SOL    HW150706   8.755   9.911  10.004 -1.7973  0.0242 -0.5505
16151SOL    HW250707   8.796  10.044  10.063  0.6373 -1.1242  0.5073
16152SOL     OW50708   9.520   5.493   8.847 -0.3636 -0.3954  0.2121
16152SOL    HW150709   9.579   5.539   8.907  0.1822  0.9519 -1.2948
16152SOL    HW250710   9.537   5.400   8.863  1.3214 -0.0524  0.6334
16153SOL     OW50711   9.356   9.717   3.178  0.1661  0.1498  0.2195
16153SOL    HW150712   9.430   9.720   3.238  0.0262 -2.1173  0.5963
16153SOL    HW250713   9.348   9.806   3.145  2.1024  0.7807  1.3090
16154SOL     OW50714  10.175   2.058   1.935 -0.6042  0.1699  0.0058
16154SOL    HW150715  10.211   2.083   1.850 -0.8896 -0.7129 -0.3890
16154SOL    HW250716  10.187   2.135   1.990  0.8511  0.2878 -0.4323
16155SOL     OW50717   6.939   9.847   4.685 -0.0174  0.8765  0.2776
16155SOL    HW150718   7.029   9.814   4.692 -0.4351 -0.0561  1.6875
16155SOL    HW250719   6.949   9.940   4.670  1.1892  0.5700 -1.0114
16156SOL     OW50720   9.167  10.313   9.476  0.3037  0.0713  0.3817
16156SOL    HW150721   9.233  10.244   9.479 -0.0284 -0.3166 -0.5587
16156SOL    HW250722   9.085  10.269   9.500 -0.1506 -0.2182 -1.5238
16157SOL     OW50723   3.438   0.382   6.391  0.0165  0.0125  0.1701
16157SOL    HW150724   3.479   0.391   6.305 -1.1162 -1.0040 -0.5233
16157SOL    HW250725   3.454   0.290   6.415  0.3659  0.3052  1.0789
16158SOL     OW50726   1.093   2.390  10.301  0.3233  0.6840  0.1747
16158SOL    HW150727   1.017   2.368  10.247  1.2050  0.7549 -1.1569
16158SOL    HW250728   1.148   2.312  10.297  1.5914  1.5828 -1.2197
16159SOL     OW50729   0.250   7.549   0.950  0.1495 -0.2136 -0.0687
16159SOL    HW150730   0.318   7.562   0.883 -0.4688 -1.3616 -0.9711
16159SOL    HW250731   0.202   7.472   0.919  0.2572 -1.1891  2.0617
16160SOL     OW50732   1.199  10.544   0.808 -0.7869 -0.4022 -0.0781
16160SOL    HW150733   1.146  10.509   0.736 -1.8238  2.0760 -0.6134
16160SOL    HW250734   1.208  10.637   0.788  1.7539 -0.2816  1.3005
16161SOL     OW50735   2.403  10.241   9.570 -0.1896 -0.5076  0.1932
16161SOL    HW150736   2.438  10.299   9.502 -1.0963 -0.3484 -0.1481
16161SOL    HW250737   2.355  10.299   9.629 -2.2704 -1.0204 -0.8946
16162SOL     OW50738   6.874   3.788  10.329  0.4315 -0.2191 -0.3760
16162SOL    HW150739   6.805   3.843  10.365 -0.4914 -0.9728 -0.9511
16162SOL    HW250740   6.856   3.784  10.235  1.6147  0.0621 -0.6382
16163SOL     OW50741   2.765   2.518   5.616  0.3992 -0.1130 -0.3200
16163SOL    HW150742   2.773   2.610   5.591  0.1784 -0.1647 -0.5932
16163SOL    HW250743   2.682   2.490   5.577 -0.6188  0.1355  1.5293
16164SOL     OW50744   6.479   6.492   9.227 -0.0270 -0.1833  0.0807
16164SOL    HW150745   6.518   6.463   9.309 -1.2087 -1.1829  0.3327
16164SOL    HW250746   6.462   6.585   9.239 -0.6816 -0.4336  1.1967
16165SOL     OW50747   1.287   7.132   6.347 -0.1667  0.8635 -0.0289
16165SOL    HW150748   1.360   7.069   6.346 -1.3425 -0.5441 -0.4054
16165SOL    HW250749   1.253   7.131   6.258 -1.5853  0.3453  0.4947
16166SOL     OW50750   5.135   9.575   2.790 -0.4409  0.1472 -0.7637
16166SOL    HW150751   5.090   9.507   2.840 -2.7998  1.9814 -0.1786
16166SOL    HW250752   5.228   9.555   2.799 -1.0022 -2.1298  0.5832
16167SOL     OW50753   1.062   4.682   5.476  0.5249  0.2165  0.1715
16167SOL    HW150754   1.109   4.765   5.467 -1.3499  1.5094  1.6782
16167SOL    HW250755   0.974   4.700   5.443 -0.1554 -0.9427  1.2598
16168SOL     OW50756   6.941   7.412   8.313 -0.5913 -0.5187  0.3825
16168SOL    HW150757   6.917   7.389   8.223 -1.1441  0.0778  0.3711
16168SOL    HW250758   7.035   7.430   8.309 -0.6939 -0.1039 -0.1544
16169SOL     OW50759   1.885   2.509   9.243  0.6020 -0.1942 -0.5438
16169SOL    HW150760   1.867   2.443   9.176 -1.3310  0.6196 -0.8891
16169SOL    HW250761   1.818   2.576   9.230  0.4965  0.2741  1.8462
16170SOL     OW50762   4.334   7.604  10.497  0.0318 -0.2089 -0.3087
16170SOL    HW150763   4.424   7.630  10.475 -0.1171  0.4609 -0.1385
16170SOL    HW250764   4.304   7.555  10.421  1.4703 -2.8517  0.6635
16171SOL     OW50765   7.926   6.564   4.715 -0.6487 -0.1330 -0.1862
16171SOL    HW150766   7.939   6.556   4.621 -1.3653 -0.1377 -0.2857
16171SOL    HW250767   7.891   6.479   4.741  0.5246 -0.5029  0.2594
16172SOL     OW50768   5.367   6.347   6.469 -0.8762 -0.2444 -0.3068
16172SOL    HW150769   5.362   6.410   6.541 -0.3122  0.0291 -0.4960
16172SOL    HW250770   5.363   6.261   6.511 -1.7763 -0.0942 -0.0542
16173SOL     OW50771   4.687   3.464   4.247 -0.2940 -0.2103 -0.3417
16173SOL    HW150772   4.690   3.417   4.163 -2.3018  0.6142 -0.9507
16173SOL    HW250773   4.669   3.554   4.223  0.7553  0.3681  0.9470
16174SOL     OW50774   7.097   1.155   9.443  0.0445 -0.3950 -0.5568
16174SOL    HW150775   7.011   1.173   9.406 -0.6354 -0.2096  0.9935
16174SOL    HW250776   7.094   1.062   9.466  0.7227 -0.6871 -1.5946
16175SOL     OW50777   7.180   0.112   3.672  0.3252  0.2928  0.4142
16175SOL    HW150778   7.245   0.180   3.689  3.0832 -1.8161 -0.9693
16175SOL    HW250779   7.125   0.149   3.602  0.9195  1.5743  0.5960
16176SOL     OW50780   2.356   1.103   8.144  0.1374 -0.0032 -0.2828
16176SOL    HW150781   2.394   1.016   8.158 -3.0516 -1.3836  0.4914
16176SOL    HW250782   2.277   1.104   8.198 -1.4889  2.3009 -2.4763
16177SOL     OW50783   7.771   5.223   0.408  0.3717  0.1441 -0.5148
16177SOL    HW150784   7.865   5.206   0.404  0.6120  1.0358  0.6551
16177SOL    HW250785   7.740   5.169   0.481  0.1750  0.6153 -0.2456
16178SOL     OW50786   9.270   2.023   0.571 -0.4886 -0.6788 -0.5126
16178SOL    HW150787   9.195   2.074   0.539 -0.6781 -1.1849 -0.8906
16178SOL    HW250788   9.315   2.082   0.632 -0.6848 -0.0498 -0.9639
16179SOL     OW50789  10.433   1.521   5.650 -0.4126  0.3253 -0.0905
16179SOL    HW150790  10.482   1.455   5.600  0.2907  0.1699  0.7771
16179SOL    HW250791  10.342   1.507   5.626 -0.3991 -1.6655  0.8470
16180SOL     OW50792   2.753   4.904   8.032 -0.2493  0.2214  0.1804
16180SOL    HW150793   2.788   4.906   7.943 -1.9019  2.0281 -0.5256
16180SOL    HW250794   2.813   4.958   8.083 -0.3814  0.8562 -0.3257
16181SOL     OW50795   1.081   7.431  10.299  0.1108  0.1260  0.2266
16181SOL    HW150796   1.024   7.371  10.349 -0.1691 -0.3731 -0.6667
16181SOL    HW250797   1.020   7.490  10.255  0.3283  0.2167  0.0484
16182SOL     OW50798   1.250   0.137   2.204 -0.2643 -0.6436 -0.1077
16182SOL    HW150799   1.330   0.166   2.160 -0.5638  0.4725  0.0501
16182SOL    HW250800   1.182   0.146   2.138 -0.7657  1.3133  0.6235
16183SOL     OW50801   4.227   9.019   4.321 -0.0980  0.1715 -0.3636
16183SOL    HW150802   4.177   9.053   4.395 -0.6928 -0.9119 -0.2580
16183SOL    HW250803   4.292   9.088   4.303 -0.9807  1.1622  0.1199
16184SOL     OW50804   1.294   0.925   2.433  0.9523 -0.1920  0.0586
16184SOL    HW150805   1.211   0.964   2.406  2.7872  2.8165 -1.8214
16184SOL    HW250806   1.293   0.837   2.395 -0.0796  0.9483 -2.8260
16185SOL     OW50807   4.164   6.205   8.284  0.5442 -0.3423 -0.1307
16185SOL    HW150808   4.126   6.139   8.342  1.0151  0.3692  1.0234
16185SOL    HW250809   4.091   6.233   8.229 -0.8772  1.3936  2.4024
16186SOL     OW50810   9.403   6.680   4.399  0.3950  0.0149  0.2981
16186SOL    HW150811   9.461   6.667   4.474  0.8255 -1.7721 -0.3132
16186SOL    HW250812   9.460   6.715   4.330  0.6402 -1.1366 -0.1012
16187SOL     OW50813   1.990   1.987   3.601  0.6932  0.4643 -0.0560
16187SOL    HW150814   2.043   2.062   3.628  1.6399 -0.1314 -0.1969
16187SOL    HW250815   1.932   2.021   3.534 -1.1267  1.7879  2.0673
16188SOL     OW50816   3.681   4.190   9.041 -0.4066 -0.3819  0.1236
16188SOL    HW150817   3.609   4.142   8.999 -1.4565  0.3908  0.9574
16188SOL    HW250818   3.642   4.225   9.121  0.0373  2.4399 -0.7569
16189SOL     OW50819   0.805   2.021   6.414  0.0829  0.1757 -0.0754
16189SOL    HW150820   0.838   2.100   6.372  0.7747 -0.4149 -0.6765
16189SOL    HW250821   0.845   2.021   6.501 -0.8235  1.0570  0.3630
16190SOL     OW50822   0.372   0.235   3.662  0.2603  0.2263  0.2605
16190SOL    HW150823   0.356   0.308   3.722 -2.5223 -1.0632  1.2930
16190SOL    HW250824   0.336   0.159   3.708  2.1656 -1.6408 -1.1864
16191SOL     OW50825   5.528   7.898   2.962  0.5096  0.6085  0.3831
16191SOL    HW150826   5.462   7.834   2.934  0.2769  2.2213 -3.3153
16191SOL    HW250827   5.611   7.849   2.961  0.2897  0.1772 -2.0114
16192SOL     OW50828   8.358   0.741   4.921  0.3930 -1.0522 -0.5865
16192SOL    HW150829   8.393   0.712   5.006 -1.1192 -0.5000  0.2570
16192SOL    HW250830   8.281   0.793   4.943  0.7508  0.2831 -2.2495
16193SOL     OW50831   7.745   7.086   7.176 -0.4002 -0.6795  0.3898
16193SOL    HW150832   7.725   7.044   7.092 -1.2657  0.3442  0.0591
16193SOL    HW250833   7.841   7.080   7.184 -0.2048 -0.0440 -1.0946
16194SOL     OW50834   8.179   0.802   2.165 -0.6924  0.1291 -0.3704
16194SOL    HW150835   8.145   0.716   2.189  0.6451 -0.3022  0.1071
16194SOL    HW250836   8.211   0.791   2.075  1.7506 -0.6514  0.5103
16195SOL     OW50837   7.498   1.449   9.965 -0.4383  0.0938 -0.2234
16195SOL    HW150838   7.486   1.454  10.060  2.1519 -0.8173  0.2151
16195SOL    HW250839   7.461   1.364   9.941 -1.5845  0.5506 -0.1615
16196SOL     OW50840   3.686  10.559   6.004  0.1801  0.0972 -0.3472
16196SOL    HW150841   3.685  10.618   5.928 -0.9110  0.7193  0.1165
16196SOL    HW250842   3.751  10.492   5.982  1.2032  1.2829 -1.0336
16197SOL     OW50843   4.601   2.277   7.589 -0.0843  0.2105  0.9691
16197SOL    HW150844   4.599   2.304   7.681  1.1130  0.4600  0.9386
16197SOL    HW250845   4.678   2.321   7.553  0.5616 -1.3766  0.3187
16198SOL     OW50846  10.016   8.187   8.016  0.2931  0.3341 -1.0971
16198SOL    HW150847  10.046   8.217   7.930  2.0536  0.5143 -0.4718
16198SOL    HW250848  10.035   8.093   8.017  0.2998  0.3365 -0.8973
16199SOL     OW50849  10.003   6.118   0.078  0.2355 -0.3533 -0.2186
16199SOL    HW150850  10.013   6.212   0.095  1.9051  0.0168 -2.6557
16199SOL    HW250851   9.914   6.109   0.043 -0.2535  0.1320  0.8422
16200SOL     OW50852   4.774   7.215   9.618  0.0947  0.8866 -0.2375
16200SOL    HW150853   4.837   7.286   9.623  0.7677  0.4606 -2.0164
16200SOL    HW250854   4.774   7.188   9.526 -0.1457 -1.3831  0.3522
16201SOL     OW50855   6.669   1.929   6.698  0.2568  0.0127 -0.4802
16201SOL    HW150856   6.694   2.013   6.737  1.5237 -0.1875 -0.7923
16201SOL    HW250857   6.608   1.891   6.761  2.2734 -0.3292  1.4238
16202SOL     OW50858   9.616   8.491   6.839  0.2082  0.0060  0.4144
16202SOL    HW150859   9.694   8.533   6.801  0.5240 -0.7551  0.1960
16202SOL    HW250860   9.542   8.531   6.793  0.5115  0.2020  0.0939
16203SOL     OW50861   2.396   7.692   7.663  0.1681 -0.1120  0.3561
16203SOL    HW150862   2.336   7.618   7.648 -0.8330  0.3208  2.0168
16203SOL    HW250863   2.465   7.656   7.718  0.0049  0.0368  0.6590
16204SOL     OW50864   8.317   1.997   3.465  0.4057  0.0062  0.3826
16204SOL    HW150865   8.342   1.905   3.472  0.4296 -0.0146  0.0489
16204SOL    HW250866   8.368   2.030   3.390  0.0922  0.1855  0.2455
16205SOL     OW50867   9.321   0.227   6.322  0.2200  0.0118 -0.6101
16205SOL    HW150868   9.370   0.152   6.288  0.4751  0.0798 -0.4001
16205SOL    HW250869   9.239   0.227   6.273 -1.2389 -2.3779  1.5544
16206SOL     OW50870   3.142   1.148   9.856  0.5781  0.3640 -0.2180
16206SOL    HW150871   3.200   1.102   9.917  1.6320  1.0855 -0.6438
16206SOL    HW250872   3.120   1.230   9.902  0.5185  0.4307 -0.3660
16207SOL     OW50873   1.456   3.340   4.720 -0.1762 -0.0896 -0.8410
16207SOL    HW150874   1.474   3.251   4.691 -0.1259 -0.5010  0.4018
16207SOL    HW250875   1.518   3.356   4.791 -1.4182  0.2496  0.2101
16208SOL     OW50876   7.469   5.026   8.870 -0.0661  0.0987 -0.0868
16208SOL    HW150877   7.543   4.967   8.882 -1.2007 -1.8047 -1.9545
16208SOL    HW250878   7.410   5.006   8.943 -0.4247 -1.0769 -0.6861
16209SOL     OW50879   7.613   2.026   8.441  0.3066  0.7626 -0.3872
16209SOL    HW150880   7.701   2.042   8.475  0.1660 -2.3069  1.8686
16209SOL    HW250881   7.555   2.050   8.513 -0.1882 -3.0188  0.7030
16210SOL     OW50882   9.190   3.068   5.979 -0.4526  0.1614 -0.3106
16210SOL    HW150883   9.143   3.098   5.901 -0.4059 -1.8445 -1.1453
16210SOL    HW250884   9.273   3.034   5.946 -0.0342  0.1377  0.7345
16211SOL     OW50885  10.139   4.006   3.267  0.0571  0.1383  0.6078
16211SOL    HW150886  10.091   4.078   3.308  1.1589  1.1028  0.2669
16211SOL    HW250887  10.150   4.033   3.176 -1.5903 -1.5740 -0.1668
16212SOL     OW50888   3.389   0.946   7.024 -0.2262 -0.0916  0.1867
16212SOL    HW150889   3.333   0.872   6.999 -0.4158  0.5530 -1.4199
16212SOL    HW250890   3.471   0.930   6.978 -0.4487  0.9544 -0.6043
16213SOL     OW50891   1.294   0.493  10.255  0.2209 -0.7409 -0.6764
16213SOL    HW150892   1.274   0.474  10.163  1.2436 -0.1194 -1.0487
16213SOL    HW250893   1.363   0.430  10.278 -0.0664 -0.9262 -0.3152
16214SOL     OW50894   6.758   5.989   6.942 -0.0160  0.2839 -0.2407
16214SOL    HW150895   6.702   6.024   7.011  0.0956  0.5994 -0.3099
16214SOL    HW250896   6.844   6.027   6.959  0.7069 -1.7463  1.0609
16215SOL     OW50897   8.018   4.462   0.101 -0.5688  0.1502 -0.2110
16215SOL    HW150898   7.998   4.369   0.103  0.2561 -0.0284  0.4700
16215SOL    HW250899   8.052   4.481   0.188  1.9001  0.4791 -1.1726
16216SOL     OW50900   0.675   9.044   9.217 -0.4394 -0.4710 -0.3052
16216SOL    HW150901   0.726   9.111   9.263  1.0000 -0.8541 -1.2925
16216SOL    HW250902   0.586   9.056   9.250  0.2892  0.0903  1.6432
16217SOL     OW50903   9.084   1.380   8.979  0.2808  0.2684  0.2932
16217SOL    HW150904   9.093   1.469   9.014  1.7462  0.5884 -0.8157
16217SOL    HW250905   9.162   1.335   9.009 -0.7452 -0.8863  1.3657
16218SOL     OW50906   6.950   0.912   6.111  0.3305  0.4800  0.1848
16218SOL    HW150907   6.911   0.970   6.176 -1.1300  1.6825 -1.6372
16218SOL    HW250908   6.967   0.969   6.036  1.6828 -0.8961 -0.6120
16219SOL     OW50909   7.637   1.361   0.278  0.6498  0.0773  0.2347
16219SOL    HW150910   7.553   1.327   0.309  0.7052 -0.7717 -0.4903
16219SOL    HW250911   7.616   1.448   0.244  0.1870  0.1424  0.6789
16220SOL     OW50912   1.978   0.579   7.220  0.5789 -0.0403 -0.2604
16220SOL    HW150913   1.960   0.669   7.194  1.3667 -0.1867 -1.4044
16220SOL    HW250914   2.067   0.582   7.256 -0.0572 -0.0590  1.3816
16221SOL     OW50915   1.454   0.903   0.843 -0.5205  0.6424 -0.2755
16221SOL    HW150916   1.461   0.918   0.937  0.2745  1.1669 -0.4148
16221SOL    HW250917   1.543   0.884   0.814 -0.5752  1.6033 -1.1086
16222SOL     OW50918   8.959   3.127   5.106 -0.1679  0.0506  0.0203
16222SOL    HW150919   9.022   3.128   5.034 -1.4687  1.8878 -1.1443
16222SOL    HW250920   9.001   3.072   5.173  2.5788  1.0176 -0.7789
16223SOL     OW50921   9.272   1.822   1.343 -0.0309 -0.7072 -0.7072
16223SOL    HW150922   9.231   1.799   1.259  0.7384  1.0328 -1.6187
16223SOL    HW250923   9.223   1.898   1.373 -0.1099 -1.1417  0.3023
16224SOL     OW50924   0.275   2.240   8.819 -0.2495  0.3844  0.4762
16224SOL    HW150925   0.356   2.269   8.860 -0.2332  0.1829  0.5889
16224SOL    HW250926   0.263   2.299   8.745  0.1321  0.2508  0.3095
16225SOL     OW50927   3.871  10.366   4.318 -0.3594 -0.4538 -0.3407
16225SOL    HW150928   3.921  10.433   4.364 -0.6741  0.2879 -1.0582
16225SOL    HW250929   3.795  10.350   4.375 -1.3314  1.2630 -1.0585
16226SOL     OW50930   6.121   9.949   5.487  0.5871 -0.4836 -0.4401
16226SOL    HW150931   6.043   9.919   5.535  1.3815 -2.1023 -0.1132
16226SOL    HW250932   6.132   9.885   5.417  1.6773 -0.3185 -0.4266
16227SOL     OW50933   0.871   0.758   2.011 -0.2943  0.2772  0.2272
16227SOL    HW150934   0.854   0.851   2.026  3.6429  0.8445  2.6624
16227SOL    HW250935   0.946   0.756   1.952 -1.1794 -1.4799 -0.9403
16228SOL     OW50936   0.216   6.987   1.336 -0.4883  0.5315 -0.6411
16228SOL    HW150937   0.224   6.895   1.311  0.1996  0.5066 -0.3388
16228SOL    HW250938   0.137   7.017   1.291 -0.5711 -0.1356 -0.9514
16229SOL     OW50939   1.103   4.259   3.897 -0.3588  0.0343  0.6711
16229SOL    HW150940   1.095   4.352   3.873  0.2468 -0.2476 -0.7769
16229SOL    HW250941   1.171   4.257   3.964  1.4308  0.4586 -1.0110
16230SOL     OW50942   9.888   8.256   8.262  0.5442 -0.7090 -0.2851
16230SOL    HW150943   9.825   8.188   8.288  0.6545 -0.7376 -0.0909
16230SOL    HW250944   9.925   8.224   8.180 -0.3769 -0.2484 -0.8966
16231SOL     OW50945   1.336   5.081   7.133 -0.0609 -0.5918  0.7665
16231SOL    HW150946   1.274   5.150   7.107 -1.9325 -1.7779  1.8929
16231SOL    HW250947   1.301   5.047   7.214 -0.6742 -4.6238 -0.9786
16232SOL     OW50948   2.136   0.290   6.480  0.3565  0.5443  0.5057
16232SOL    HW150949   2.138   0.385   6.488  1.9796  0.4539  1.6092
16232SOL    HW250950   2.200   0.259   6.543 -1.2046 -1.3843  1.2539
16233SOL     OW50951   7.092   2.289   5.880 -0.1766 -0.1854 -0.2171
16233SOL    HW150952   7.054   2.308   5.794 -0.9450 -0.2028  0.1022
16233SOL    HW250953   7.147   2.212   5.866 -0.7767 -0.5588 -0.5795
16234SOL     OW50954   0.587   4.499   4.728 -0.0608  0.3674  0.2671
16234SOL    HW150955   0.609   4.544   4.646  1.3696  1.1742  1.0637
16234SOL    HW250956   0.616   4.409   4.715  0.0177  0.4535 -0.1655
16235SOL     OW50957   2.064   5.836   5.985  0.4315  0.0365 -1.0648
16235SOL    HW150958   2.038   5.871   5.900  1.2589  1.3202 -0.8202
16235SOL    HW250959   1.996   5.864   6.045  0.9199  0.9654 -0.9326
16236SOL     OW50960   6.709   8.938   1.618 -0.0834 -0.2729  0.4657
16236SOL    HW150961   6.794   8.900   1.593 -0.4264 -2.0206  1.7313
16236SOL    HW250962   6.648   8.864   1.614 -1.0043  0.3415  2.0943
16237SOL     OW50963   3.952   9.742   3.235  0.2224 -0.4154  0.0589
16237SOL    HW150964   3.902   9.670   3.274  1.2762 -1.9565 -1.2701
16237SOL    HW250965   3.962   9.716   3.143  3.5429 -0.2799  0.2694
16238SOL     OW50966   7.430   4.274   0.008  0.2470 -0.1907  0.4235
16238SOL    HW150967   7.407   4.340   0.074  0.6133  1.4525 -1.0298
16238SOL    HW250968   7.396   4.309  -0.074  0.2291 -1.9615 -0.3660
16239SOL     OW50969   0.085   1.977   4.483 -0.2953  0.0870 -0.3563
16239SOL    HW150970   0.122   1.897   4.447  0.6793 -0.7350  2.2540
16239SOL    HW250971  -0.007   1.955   4.500 -0.2295 -0.2038 -0.3747
16240SOL     OW50972   9.174   3.512   5.402  0.1090  0.3173  0.6341
16240SOL    HW150973   9.180   3.474   5.489  0.3514 -0.5943  0.2277
16240SOL    HW250974   9.080   3.522   5.386 -0.1002 -2.2430 -0.1372
16241SOL     OW50975   2.389  10.598   1.648 -0.0343 -0.3327  0.4650
16241SOL    HW150976   2.408  10.548   1.569 -0.2495  1.3899 -0.7234
16241SOL    HW250977   2.308  10.644   1.629 -0.2428 -0.0840  1.8124
16242SOL     OW50978   6.491   2.502   4.813 -0.2989 -0.4682 -0.3879
16242SOL    HW150979   6.453   2.510   4.726 -2.0352 -1.4149  0.2388
16242SOL    HW250980   6.426   2.455   4.864  0.2118  0.9288  1.7091
16243SOL     OW50981   7.512   1.944   3.861 -0.6403 -0.6273  0.2987
16243SOL    HW150982   7.472   1.981   3.782 -3.1146 -1.4096  1.0986
16243SOL    HW250983   7.484   1.852   3.861  1.8699 -1.4646  0.5622
16244SOL     OW50984   0.522  10.193   4.412 -0.0120  0.0150  0.1741
16244SOL    HW150985   0.525  10.140   4.332  2.0027  0.7056 -0.2873
16244SOL    HW250986   0.600  10.165   4.461 -1.6957 -1.0695  2.4017
16245SOL     OW50987   6.913   7.512   4.630 -0.1596  0.5451  0.5839
16245SOL    HW150988   6.950   7.433   4.670 -1.1295  1.0381  2.5973
16245SOL    HW250989   6.958   7.520   4.546 -0.4543 -2.4434  0.0587
16246SOL     OW50990   7.755   7.796   6.725  0.1562  0.4939  0.1881
16246SOL    HW150991   7.682   7.821   6.781  0.7606 -0.4528  1.4532
16246SOL    HW250992   7.822   7.862   6.740  0.1087  0.5506  0.1476
16247SOL     OW50993   6.369   3.905   4.963 -0.0897  0.1792 -0.7957
16247SOL    HW150994   6.415   3.969   5.017 -0.3585 -0.6498  0.4531
16247SOL    HW250995   6.315   3.957   4.904  1.4361  1.1440 -1.4039
16248SOL     OW50996   5.170   0.904   5.340  0.0286 -0.4226  0.0391
16248SOL    HW150997   5.250   0.939   5.301  0.3058 -0.3599  0.6497
16248SOL    HW250998   5.118   0.874   5.266  0.2061  0.4076 -0.4345
16249SOL     OW50999   3.230   8.690   9.092  0.1276 -0.2850 -0.4860
16249SOL    HW151000   3.240   8.595   9.084 -0.3930 -0.3798 -0.0825
16249SOL    HW251001   3.136   8.705   9.078 -0.2245 -0.0903  1.7733
16250SOL     OW51002   7.481   5.672  10.477 -0.3778  0.5899  0.4324
16250SOL    HW151003   7.442   5.747  10.522 -4.3227 -0.2810 -1.0875
16250SOL    HW251004   7.511   5.614  10.547  1.5070  2.8396  1.6422
16251SOL     OW51005   0.089   7.463   4.691 -0.5565  0.5214  0.1290
16251SOL    HW151006   0.011   7.411   4.672 -0.0235 -0.2829  0.0632
16251SOL    HW251007   0.142   7.406   4.747 -0.1673  1.1904  0.4577
16252SOL     OW51008   3.816   4.286   1.580 -0.4497  0.4772  0.0507
16252SOL    HW151009   3.792   4.373   1.610 -0.4233  0.0850  1.2904
16252SOL    HW251010   3.753   4.265   1.511 -0.3897  1.5086 -0.3223
16253SOL     OW51011   2.965   7.652   4.491 -0.4739 -0.0915  0.3324
16253SOL    HW151012   2.878   7.689   4.508  0.3736  1.7567  0.8650
16253SOL    HW251013   2.961   7.627   4.399 -1.2922  0.8522  0.0797
16254SOL     OW51014   8.605   8.993   5.935 -0.2285  0.1203  0.4677
16254SOL    HW151015   8.546   8.920   5.956  0.8729 -0.5107  1.4194
16254SOL    HW251016   8.556   9.071   5.960 -1.0714 -0.3242  0.2627
16255SOL     OW51017   2.035  10.649   7.700 -0.5462 -0.4544 -0.3641
16255SOL    HW151018   1.976  10.717   7.670 -1.2195 -1.6857 -2.0019
16255SOL    HW251019   2.122  10.682   7.680 -0.6493  1.0511  1.3843
16256SOL     OW51020   8.198   7.311   5.119 -1.5705 -0.0751 -0.2357
16256SOL    HW151021   8.278   7.261   5.131 -0.3107  1.1242 -2.8402
16256SOL    HW251022   8.177   7.345   5.206  1.2258  0.2433  0.3800
16257SOL     OW51023   1.807   6.904  10.086  0.0195 -0.5064  0.1540
16257SOL    HW151024   1.768   6.885  10.000 -1.0039  0.3905  0.4076
16257SOL    HW251025   1.782   6.994  10.104  2.0197  0.0398  0.4547
16258SOL     OW51026   9.065   4.799   9.010 -0.4390 -0.2972 -0.1793
16258SOL    HW151027   9.126   4.754   9.068  1.4127 -0.6540 -2.2610
16258SOL    HW251028   9.081   4.892   9.027 -0.7610 -0.3801  0.6588
16259SOL     OW51029   1.915   2.439   3.573  0.5172  0.7651  0.3754
16259SOL    HW151030   1.936   2.532   3.558 -0.2062  0.5215 -2.8462
16259SOL    HW251031   1.865   2.413   3.496  1.4107 -2.5466  0.7710
16260SOL     OW51032  10.515   4.813   4.446  0.2846 -0.1387  0.0112
16260SOL    HW151033  10.437   4.787   4.495  1.5642  0.9614  2.8595
16260SOL    HW251034  10.483   4.829   4.357 -2.4535 -0.9739  0.7439
16261SOL     OW51035   7.912   8.781   4.497 -0.5240  0.6262  0.0036
16261SOL    HW151036   7.975   8.757   4.429 -0.4632  0.9164 -0.0448
16261SOL    HW251037   7.828   8.787   4.451 -0.3053  1.9094 -0.2817
16262SOL     OW51038   8.801   8.042  10.529  0.0733  0.3505  0.2516
16262SOL    HW151039   8.802   7.964  10.474 -0.0583 -1.0309  2.1269
16262SOL    HW251040   8.831   8.113  10.471 -0.0510 -1.0206 -1.5570
16263SOL     OW51041  10.274   0.910   8.150 -0.5249  0.6834 -0.3239
16263SOL    HW151042  10.334   0.953   8.090 -0.1917  1.3640  0.4709
16263SOL    HW251043  10.324   0.899   8.231 -0.9428 -0.2695 -0.1819
16264SOL     OW51044   7.796   5.183   5.120  0.2899 -0.0159 -0.3816
16264SOL    HW151045   7.715   5.153   5.079  0.4800  0.4950 -1.1329
16264SOL    HW251046   7.825   5.108   5.172 -1.1259  0.0863  0.6271
16265SOL     OW51047   5.247   6.832   4.727  0.4482  0.4421  0.6099
16265SOL    HW151048   5.189   6.787   4.788 -0.0630 -0.6158 -0.5984
16265SOL    HW251049   5.335   6.804   4.753  0.2145 -0.2943  0.6422
16266SOL     OW51050   6.555  10.379   0.482  0.4622 -0.1788 -0.2016
16266SOL    HW151051   6.583  10.367   0.392  0.0331  1.4309 -0.5869
16266SOL    HW251052   6.470  10.335   0.488 -1.4360  2.9166 -1.7600
16267SOL     OW51053   5.633   5.307   1.743 -0.3504 -0.1385 -0.2108
16267SOL    HW151054   5.676   5.355   1.672  1.4074 -0.0987  0.8223
16267SOL    HW251055   5.541   5.308   1.720  0.0547  0.7369 -1.9823
16268SOL     OW51056   8.924   0.939   7.734  0.2474 -0.0604 -0.6114
16268SOL    HW151057   8.896   0.876   7.800 -0.2188 -0.7621 -1.4642
16268SOL    HW251058   8.992   0.990   7.778 -0.6024  0.0216  0.6677
16269SOL     OW51059   9.943   2.597   4.714 -0.5983  0.1226  0.0780
16269SOL    HW151060   9.869   2.607   4.655 -0.7169 -1.8826 -0.1667
16269SOL    HW251061  10.015   2.566   4.658  0.1597  1.0625  0.4910
16270SOL     OW51062   0.591   1.575   1.132  0.0643 -0.0346  0.3685
16270SOL    HW151063   0.531   1.649   1.138 -0.9025 -0.8151  0.7142
16270SOL    HW251064   0.578   1.539   1.045 -0.5791 -0.6800  0.7155
16271SOL     OW51065  10.329  10.265   5.892 -0.7204  0.2028  0.4443
16271SOL    HW151066  10.278  10.201   5.941  0.0151  0.6605  1.8775
16271SOL    HW251067  10.265  10.316   5.844 -1.3921 -0.9406  0.0933
16272SOL     OW51068   0.328   0.887   0.499  0.3959 -1.1174  0.4818
16272SOL    HW151069   0.385   0.822   0.540 -0.6653 -0.9939  2.2698
16272SOL    HW251070   0.340   0.874   0.405  1.0667 -3.1186  0.7972
16273SOL     OW51071   5.974   4.137   6.310  0.3667  0.1056 -0.4187
16273SOL    HW151072   6.007   4.061   6.263  0.1481 -0.7545  0.7854
16273SOL    HW251073   6.046   4.201   6.304  0.1608  0.2184 -2.2980
16274SOL     OW51074   0.409   1.768  10.570 -0.1005 -0.0976 -0.5861
16274SOL    HW151075   0.369   1.695  10.523 -0.6623 -0.1726  0.0001
16274SOL    HW251076   0.490   1.732  10.605 -0.7184 -0.6634  0.3064
16275SOL     OW51077   4.510   3.897   6.266  0.4066  0.6990 -0.2494
16275SOL    HW151078   4.478   3.949   6.192  0.2602  0.2139 -0.5315
16275SOL    HW251079   4.484   3.947   6.343 -3.4240 -0.8465 -0.3160
16276SOL     OW51080   4.332   2.211   6.721  0.2037 -0.3752  0.5972
16276SOL    HW151081   4.311   2.237   6.811 -1.6235  2.6803 -0.5808
16276SOL    HW251082   4.253   2.168   6.690 -1.5878  3.6795 -1.1828
16277SOL     OW51083   6.087   4.956   2.235  0.1420 -0.3101  0.2169
16277SOL    HW151084   6.172   5.001   2.237  0.1305 -0.2578  2.4846
16277SOL    HW251085   6.029   5.012   2.287 -0.5275 -1.6623  0.9856
16278SOL     OW51086   5.134   0.665  10.300 -0.2771  0.7014 -0.2383
16278SOL    HW151087   5.229   0.675  10.304  0.1086 -0.3725 -3.3909
16278SOL    HW251088   5.101   0.754  10.300  0.8822  1.1608 -0.7084
16279SOL     OW51089   8.587   4.969   5.132 -0.2764 -0.0265  0.0651
16279SOL    HW151090   8.549   5.044   5.086 -1.5746 -0.9049 -0.3554
16279SOL    HW251091   8.554   4.976   5.221 -2.4121 -1.3448 -0.5363
16280SOL     OW51092   8.896   5.477   8.952 -0.1430 -0.0786 -0.2493
16280SOL    HW151093   8.921   5.499   8.862 -0.7691 -0.9184 -0.6452
16280SOL    HW251094   8.924   5.552   9.004 -0.3413  0.7041 -1.2372
16281SOL     OW51095   8.770   7.857   0.466 -0.8381 -0.4905 -0.4329
16281SOL    HW151096   8.742   7.938   0.509  0.5421  0.2498 -0.8696
16281SOL    HW251097   8.772   7.879   0.373 -1.3055 -1.2998 -0.6378
16282SOL     OW51098   0.732   2.878   0.812 -0.3627  0.3446 -0.1989
16282SOL    HW151099   0.715   2.938   0.740  1.6393  0.4712 -0.6221
16282SOL    HW251100   0.645   2.858   0.847 -1.1580  4.2174  0.5967
16283SOL     OW51101   3.255   4.815   6.511 -0.0626 -0.3374 -0.1463
16283SOL    HW151102   3.281   4.905   6.487  0.5246  0.2429  2.3582
16283SOL    HW251103   3.330   4.761   6.485  0.9202  0.3904  1.0142
16284SOL     OW51104   1.291   5.759   3.046  0.1956  0.2445  0.4019
16284SOL    HW151105   1.355   5.831   3.052  0.8327 -0.3746  1.1346
16284SOL    HW251106   1.229   5.776   3.117  0.0259  0.3754  0.2236
16285SOL     OW51107   4.698   7.190   2.871 -0.6694  0.5745 -0.1374
16285SOL    HW151108   4.674   7.210   2.962  2.0430  0.5619  0.6839
16285SOL    HW251109   4.752   7.264   2.844 -0.3450 -0.0452 -1.2538
16286SOL     OW51110   9.751   9.590   7.208  0.0398  0.0398 -0.2179
16286SOL    HW151111   9.676   9.539   7.178  0.7730 -1.0942 -0.1861
16286SOL    HW251112   9.724   9.626   7.293 -0.7027  0.2137 -0.5245
16287SOL     OW51113   5.167   2.433   7.847 -0.0655 -0.1131 -0.0317
16287SOL    HW151114   5.185   2.363   7.784 -1.6227 -1.0292  0.4873
16287SOL    HW251115   5.253   2.471   7.866  0.9333 -2.3254  0.1709
16288SOL     OW51116   7.363   4.302   1.658  0.6560 -0.0375 -0.5957
16288SOL    HW151117   7.348   4.265   1.571 -0.1207 -0.2432 -0.3795
16288SOL    HW251118   7.350   4.228   1.718 -1.5344  0.6801 -0.1133
16289SOL     OW51119   1.091   1.913   3.555 -0.6844  0.1206 -0.2923
16289SOL    HW151120   1.126   1.999   3.579 -0.9852  0.2554 -0.3302
16289SOL    HW251121   1.127   1.853   3.621  1.4931 -0.1608 -1.6402
16290SOL     OW51122   1.893   0.665   4.380 -0.0284 -0.0117 -0.5254
16290SOL    HW151123   1.966   0.610   4.408  0.8001  1.3042 -0.0225
16290SOL    HW251124   1.817   0.628   4.425  0.6349 -0.3032  0.3918
16291SOL     OW51125   9.530   4.695   0.321 -0.2757  0.4039 -0.6285
16291SOL    HW151126   9.610   4.677   0.371 -0.2456 -0.4403 -0.9612
16291SOL    HW251127   9.533   4.789   0.304 -0.8105  0.9486  1.8513
16292SOL     OW51128  10.133   0.343   7.320  0.0745 -0.2548  0.6446
16292SOL    HW151129  10.079   0.305   7.251 -0.9154 -0.3423  1.4431
16292SOL    HW251130  10.129   0.438   7.304 -0.4727 -0.2466  0.7904
16293SOL     OW51131   1.227   9.721   8.562 -0.0145  0.2093 -0.1865
16293SOL    HW151132   1.156   9.740   8.623 -1.1703 -1.5469 -0.9107
16293SOL    HW251133   1.305   9.716   8.618 -0.4168  2.1066  0.6261
16294SOL     OW51134   2.959   1.168   4.908  0.1042  0.1718  0.1050
16294SOL    HW151135   3.048   1.198   4.925  1.0628 -2.3121 -0.0458
16294SOL    HW251136   2.964   1.129   4.820 -0.4458 -2.1504  1.0303
16295SOL     OW51137   8.063   0.332   1.513  0.0563  0.4773 -0.1866
16295SOL    HW151138   8.143   0.294   1.548 -1.1037  0.6541  2.9734
16295SOL    HW251139   8.090   0.375   1.432  2.3597 -2.7196 -1.2905
16296SOL     OW51140   2.662   6.322   3.597  0.3837 -0.5691  0.0808
16296SOL    HW151141   2.661   6.337   3.503 -0.7326 -1.9898 -0.1756
16296SOL    HW251142   2.604   6.247   3.610 -0.7295  0.5458  2.0760
16297SOL     OW51143   1.410   5.945   6.209 -0.1814  0.1185 -0.0191
16297SOL    HW151144   1.495   5.989   6.215  1.0273 -1.9956 -0.4302
16297SOL    HW251145   1.404   5.895   6.291  0.0775 -1.5332 -0.9673
16298SOL     OW51146   6.158   2.616   7.353 -0.0187 -0.2961  0.6673
16298SOL    HW151147   6.078   2.607   7.301  0.7942 -0.2820 -0.6343
16298SOL    HW251148   6.229   2.613   7.288  1.1292 -1.8800  1.9124
16299SOL     OW51149   8.022   3.639   8.103  0.4912  0.5319 -0.0898
16299SOL    HW151150   7.927   3.644   8.092  0.4285 -1.7445 -1.1522
16299SOL    HW251151   8.057   3.670   8.019  0.6839  1.0817  0.1915
16300SOL     OW51152   1.131   6.225   7.017  0.3522 -0.0199  0.5302
16300SOL    HW151153   1.144   6.170   6.939  1.0151  2.0404 -0.9211
16300SOL    HW251154   1.037   6.242   7.020  0.0910 -1.5021  1.2203
16301SOL     OW51155   3.709   5.542   7.787 -0.4790 -0.3481 -0.0985
16301SOL    HW151156   3.740   5.486   7.858 -0.6036  0.3782  0.5516
16301SOL    HW251157   3.624   5.507   7.762 -1.1834  0.3322  1.2321
16302SOL     OW51158   5.576   7.113   4.534  0.1041 -0.4878  0.2335
16302SOL    HW151159   5.616   7.028   4.553  0.2004 -0.6585 -0.6553
16302SOL    HW251160   5.649   7.173   4.526  0.1780 -0.7161 -0.9866
16303SOL     OW51161   1.028   2.928   5.078 -0.0270 -0.1641  0.4649
16303SOL    HW151162   1.120   2.904   5.092  0.1731  0.5826  0.5067
16303SOL    HW251163   0.978   2.855   5.114  0.5407 -0.2122  1.1939
16304SOL     OW51164  10.179   9.522   8.151 -0.3011  0.3872 -0.1813
16304SOL    HW151165  10.203   9.577   8.225 -0.1741  1.0014 -0.6647
16304SOL    HW251166  10.180   9.433   8.185 -1.2667  0.7365  0.8294
16305SOL     OW51167   8.201   7.011   1.946  0.3994  0.3535 -0.0816
16305SOL    HW151168   8.259   7.034   1.873  2.4354 -2.6896  0.3987
16305SOL    HW251169   8.261   6.987   2.017 -1.5314  0.5095  1.6857
16306SOL     OW51170   6.076   0.729   1.022 -0.1746 -0.6793 -0.4734
16306SOL    HW151171   6.146   0.713   1.085  0.4594  1.1045 -0.6446
16306SOL    HW251172   6.112   0.795   0.963 -0.8647 -2.0798 -2.5602
16307SOL     OW51173   3.321  10.131   0.592  0.0614 -0.4668  0.0246
16307SOL    HW151174   3.361  10.068   0.651  0.7815  0.9579  1.1302
16307SOL    HW251175   3.227  10.121   0.606  0.1516 -1.4171  0.0178
16308SOL     OW51176   6.947   7.237   5.267 -0.0755 -0.3193 -0.1668
16308SOL    HW151177   6.981   7.204   5.350  0.8756  1.1802  0.0895
16308SOL    HW251178   7.024   7.243   5.210 -0.4597  0.0642 -0.6612
16309SOL     OW51179   8.685   9.675   9.934  0.2448 -0.5557 -0.3082
16309SOL    HW151180   8.639   9.724   9.866 -0.5365  0.7394  1.0793
16309SOL    HW251181   8.619   9.661  10.002  1.2215 -1.0265  0.5784
16310SOL     OW51182   7.991  10.199  10.219  0.1554  0.4506  0.5425
16310SOL    HW151183   7.915  10.232  10.268 -0.4402  0.0605 -0.1049
16310SOL    HW251184   8.043  10.277  10.200 -0.4656  0.8258  0.3486
16311SOL     OW51185   4.548   3.687   5.295 -0.5049  0.3002 -0.2060
16311SOL    HW151186   4.476   3.679   5.358 -1.6266 -0.9621 -1.5630
16311SOL    HW251187   4.581   3.597   5.286  0.7279  0.7399 -0.2120
16312SOL     OW51188  10.516   9.807   3.057  0.3292  0.1278  0.0593
16312SOL    HW151189  10.563   9.744   3.111 -2.3861  0.5893  3.2661
16312SOL    HW251190  10.452   9.754   3.009  0.8952  0.0207 -0.5904
16313SOL     OW51191   4.862   4.458   0.363 -0.3963 -0.0611  0.3742
16313SOL    HW151192   4.927   4.411   0.311  0.3809  0.6478  0.6701
16313SOL    HW251193   4.888   4.444   0.454 -0.5737  0.3350  0.4911
16314SOL     OW51194   7.783   6.789  10.178  0.8062 -0.2755 -0.1505
16314SOL    HW151195   7.811   6.698  10.186  2.5120  0.2462  0.3791
16314SOL    HW251196   7.733   6.806  10.258  1.2138 -0.5273  0.1648
16315SOL     OW51197   9.316   1.891   6.871 -0.2501 -0.7889 -0.0971
16315SOL    HW151198   9.227   1.906   6.900 -0.2219 -2.1681  0.8125
16315SOL    HW251199   9.339   1.968   6.820 -1.6921 -0.0806  0.2954
16316SOL     OW51200   8.460   0.624   1.838 -0.4263  0.0220 -0.1399
16316SOL    HW151201   8.386   0.564   1.842 -1.2759  1.0734  0.5450
16316SOL    HW251202   8.510   0.596   1.761 -1.7539 -0.4598 -0.8530
16317SOL     OW51203   2.781   0.176   9.572 -0.1140  0.1510  0.9351
16317SOL    HW151204   2.842   0.230   9.522 -0.7019 -1.2291 -1.3870
16317SOL    HW251205   2.814   0.087   9.564 -1.2671 -0.3439  1.4253
16318SOL     OW51206   8.418   6.490   8.878  0.3290  0.1010  0.1721
16318SOL    HW151207   8.510   6.478   8.855  0.3393  0.9285 -0.2601
16318SOL    HW251208   8.377   6.406   8.859  0.8178  0.0108 -0.5098
16319SOL     OW51209   7.601   8.953   0.321 -0.3048  0.2526 -0.0036
16319SOL    HW151210   7.551   9.033   0.306 -2.0852 -0.0451  3.4359
16319SOL    HW251211   7.682   8.984   0.363 -1.1225  0.3265  1.6036
16320SOL     OW51212   2.215   1.344   9.220 -0.3332  0.4579 -0.8314
16320SOL    HW151213   2.308   1.338   9.197  0.0195  0.4110  0.5470
16320SOL    HW251214   2.186   1.427   9.182  0.2720  0.4987 -1.2222
16321SOL     OW51215   4.638   2.073   1.504  0.8669 -0.1924 -0.0992
16321SOL    HW151216   4.659   2.011   1.435 -3.2174 -1.4137 -0.5384
16321SOL    HW251217   4.675   2.034   1.584 -1.0376 -3.0066 -0.4662
16322SOL     OW51218   1.939   0.726   8.118 -0.1022  0.3229 -0.2828
16322SOL    HW151219   1.991   0.788   8.066 -0.9397 -0.1816 -1.7867
16322SOL    HW251220   1.858   0.773   8.137 -0.6253 -0.1833 -1.1899
16323SOL     OW51221   0.560   5.322   3.507  0.2077 -0.2195 -0.6074
16323SOL    HW151222   0.527   5.238   3.473  2.1345 -0.2199 -2.7054
16323SOL    HW251223   0.587   5.370   3.429  1.0204  1.5463  0.7068
16324SOL     OW51224   8.558   4.303   7.893 -0.0408  0.5698  0.5636
16324SOL    HW151225   8.601   4.359   7.957  0.7488  1.5852 -0.7973
16324SOL    HW251226   8.498   4.362   7.846 -3.0368 -0.7892  2.4005
16325SOL     OW51227   2.037   0.651   5.820  0.6007 -0.0565  0.7239
16325SOL    HW151228   2.054   0.655   5.914 -0.6717  1.1383  0.9381
16325SOL    HW251229   2.104   0.707   5.781 -0.7853  2.1521  1.2796
16326SOL     OW51230   3.854   0.627   8.678  0.2344  0.7262 -0.4633
16326SOL    HW151231   3.811   0.654   8.759 -1.7800 -0.5415 -1.0161
16326SOL    HW251232   3.822   0.690   8.612 -0.5861 -0.0403 -0.8204
16327SOL     OW51233   0.230   8.989   3.484  1.0122  0.6816 -0.0219
16327SOL    HW151234   0.255   8.986   3.392 -0.9854  1.8380 -0.6730
16327SOL    HW251235   0.312   8.980   3.532  2.2551  1.2844 -1.9314
16328SOL     OW51236   2.941   3.967   7.275 -0.3162 -0.2193  0.2152
16328SOL    HW151237   2.916   4.057   7.256 -0.9973 -0.5100 -0.3061
16328SOL    HW251238   2.948   3.963   7.371 -0.5105  0.3247  0.2520
16329SOL     OW51239   6.412   4.341   4.343 -0.1105  0.2379  0.4541
16329SOL    HW151240   6.414   4.251   4.312  2.2035 -0.3556  2.0695
16329SOL    HW251241   6.490   4.382   4.306 -0.2042  1.0655  1.1189
16330SOL     OW51242   3.712   2.268   1.091  0.0781 -0.0451  0.5845
16330SOL    HW151243   3.746   2.179   1.096 -0.5727 -0.3349 -0.0641
16330SOL    HW251244   3.636   2.268   1.150 -2.5304 -1.1487 -2.5186
16331SOL     OW51245   9.737   0.632   8.016  0.2441 -0.2840 -0.2258
16331SOL    HW151246   9.674   0.690   7.973 -0.0502  1.4318  2.3122
16331SOL    HW251247   9.822   0.671   7.997  0.2186 -0.3048 -0.3807
16332SOL     OW51248   6.291   0.622   1.147 -0.5455 -0.5529 -0.5917
16332SOL    HW151249   6.351   0.548   1.155 -0.2388 -0.1937  0.7442
16332SOL    HW251250   6.303   0.671   1.229  0.4105  1.8301 -2.0266
16333SOL     OW51251   5.148   2.619   4.686 -0.0209 -0.3568  0.6973
16333SOL    HW151252   5.143   2.673   4.765  1.9404 -0.2542  0.7873
16333SOL    HW251253   5.225   2.650   4.640 -0.8003 -0.7996 -1.0087
16334SOL     OW51254   0.580   5.945   7.047 -0.3092 -0.6950  0.4622
16334SOL    HW151255   0.598   6.020   6.991 -0.2855  0.7070  2.2633
16334SOL    HW251256   0.537   5.982   7.124 -1.5395 -2.6991  0.8333
16335SOL     OW51257   4.896   7.312   6.420 -0.3621 -0.3745  0.0998
16335SOL    HW151258   4.816   7.340   6.375  0.6543  2.6092 -0.0884
16335SOL    HW251259   4.961   7.303   6.350  0.9100  3.1001  0.6381
16336SOL     OW51260  10.467   4.013   2.780  0.2713 -0.1548 -0.3182
16336SOL    HW151261  10.515   3.978   2.705  1.8197 -0.4317  0.7448
16336SOL    HW251262  10.413   3.940   2.811 -0.1762 -0.1157 -0.9848
16337SOL     OW51263   7.584   4.588   9.626 -0.0395  0.1778  0.0986
16337SOL    HW151264   7.521   4.532   9.670 -0.3390  0.6117  0.2323
16337SOL    HW251265   7.643   4.528   9.582  0.0961 -0.2514  0.8574
16338SOL     OW51266   0.990   7.258   9.695 -0.0419 -0.2536 -0.2202
16338SOL    HW151267   1.081   7.264   9.726 -0.0517 -0.0269 -0.2321
16338SOL    HW251268   0.937   7.257   9.775 -0.1000  0.9044 -0.2247
16339SOL     OW51269   0.780   2.964   5.332 -0.4948  0.2161  0.0054
16339SOL    HW151270   0.848   3.019   5.294  0.2312 -0.1460  0.7549
16339SOL    HW251271   0.767   3.000   5.420  0.4637 -1.1720  0.7636
16340SOL     OW51272   5.517   4.872   3.476 -0.3305 -0.5151 -0.0666
16340SOL    HW151273   5.574   4.880   3.553 -0.6220  2.5159 -0.0474
16340SOL    HW251274   5.559   4.927   3.410 -0.7366 -2.1103 -1.7480
16341SOL     OW51275   5.564   3.419   8.188  0.1147  0.6404  0.4708
16341SOL    HW151276   5.552   3.447   8.097 -1.0965  1.4435  0.8540
16341SOL    HW251277   5.653   3.384   8.190 -0.4370 -1.0696 -1.4363
16342SOL     OW51278   2.900   2.641   9.223  0.2943  0.4193  0.2898
16342SOL    HW151279   2.880   2.624   9.131 -0.5651  0.6642  0.4147
16342SOL    HW251280   2.825   2.605   9.270  1.3758 -0.9637  1.0179
16343SOL     OW51281   2.224   2.000   6.556 -0.1688 -0.6337  0.4538
16343SOL    HW151282   2.249   2.052   6.633 -0.7808 -0.4810  0.5603
16343SOL    HW251283   2.175   1.926   6.593  0.3710 -1.0905  0.2739
16344SOL     OW51284   9.700   2.011   9.127 -0.1748 -0.1970  0.2470
16344SOL    HW151285   9.770   2.065   9.166 -0.3170 -1.4934  2.4684
16344SOL    HW251286   9.620   2.057   9.151 -0.1936  0.3049 -0.7151
16345SOL     OW51287   8.795   3.375   9.160 -0.1444 -0.4531 -0.2429
16345SOL    HW151288   8.853   3.417   9.223 -2.7643 -0.3943  2.3784
16345SOL    HW251289   8.802   3.429   9.081  2.8267 -0.1622  0.1042
16346SOL     OW51290   3.215   6.810   5.159 -0.5014  0.1525  0.5149
16346SOL    HW151291   3.275   6.885   5.163  0.6727 -0.8064  1.9663
16346SOL    HW251292   3.259   6.746   5.104 -1.4566  0.4468 -0.6402
16347SOL     OW51293   1.344   4.588   3.384  0.2439  0.2725  0.5071
16347SOL    HW151294   1.267   4.574   3.328 -0.1269 -0.8492  1.2647
16347SOL    HW251295   1.389   4.662   3.343 -0.8907  0.5512 -0.3243
16348SOL     OW51296   3.097   4.635   3.568 -0.0929  0.4610 -0.3003
16348SOL    HW151297   3.088   4.549   3.528  0.7729  0.6175 -0.8461
16348SOL    HW251298   3.012   4.651   3.610 -0.3995 -0.4702 -0.5515
16349SOL     OW51299   0.436  10.304   8.006 -0.3552 -0.1585 -0.3458
16349SOL    HW151300   0.416  10.329   7.915 -0.5045  0.0379 -0.2595
16349SOL    HW251301   0.523  10.341   8.022  0.1878 -1.2047 -0.7934
16350SOL     OW51302   0.228   7.488   8.374  0.0078 -0.4251  0.0734
16350SOL    HW151303   0.168   7.555   8.406  0.5999 -0.0082  0.3269
16350SOL    HW251304   0.181   7.446   8.301 -0.4774  0.0720  0.0967
16351SOL     OW51305   4.660   4.112   9.166 -0.5815 -0.2958  0.1159
16351SOL    HW151306   4.576   4.068   9.181 -0.2692 -0.5406  1.2436
16351SOL    HW251307   4.660   4.187   9.224  0.3293 -0.7886  0.7866
16352SOL     OW51308  10.080   6.091   9.214 -0.2509 -0.4533 -0.3919
16352SOL    HW151309  10.154   6.037   9.243  0.6494  0.0016 -1.7869
16352SOL    HW251310  10.094   6.175   9.258 -0.2729 -0.5468 -0.2011
16353SOL     OW51311   6.089   8.757  10.081 -0.0259 -0.5757  0.3158
16353SOL    HW151312   6.128   8.727   9.999  2.3745  2.0561  0.3646
16353SOL    HW251313   6.051   8.842  10.059  0.9468  0.3190  1.9582
16354SOL     OW51314   5.342   9.449   3.633 -0.0991 -0.3418 -0.6931
16354SOL    HW151315   5.422   9.446   3.685  0.2948 -1.7538 -1.3200
16354SOL    HW251316   5.329   9.358   3.604 -2.3979 -0.3193  0.0948
16355SOL     OW51317   0.927  10.363   7.786 -0.0807  0.1714  0.5694
16355SOL    HW151318   0.893  10.332   7.870 -0.9983 -1.1164 -0.2606
16355SOL    HW251319   0.940  10.457   7.800 -1.2401  0.1814  1.8123
16356SOL     OW51320   7.711   2.566   2.556  0.4311  0.3969 -0.3786
16356SOL    HW151321   7.650   2.634   2.526  0.2534  0.3982 -0.0194
16356SOL    HW251322   7.656   2.502   2.600  0.5266 -0.2763 -1.2214
16357SOL     OW51323   7.516   9.829   8.492  0.1683 -0.1418  0.0333
16357SOL    HW151324   7.490   9.830   8.400  0.6072  0.0953 -0.0935
16357SOL    HW251325   7.522   9.922   8.515  0.3766 -0.2005  0.2082
16358SOL     OW51326   3.570   8.628   3.262 -0.4026  0.3375 -0.0411
16358SOL    HW151327   3.508   8.576   3.212  1.0400 -1.5079 -0.0544
16358SOL    HW251328   3.649   8.630   3.208 -0.7384  3.7193 -0.6257
16359SOL     OW51329  10.005   9.870   8.351 -0.5412 -0.9118 -0.5111
16359SOL    HW151330  10.024   9.901   8.440  1.4944  0.0493 -1.2201
16359SOL    HW251331   9.981   9.949   8.303  1.7826 -0.8055 -1.6150
16360SOL     OW51332   1.833   8.134   9.215 -0.6150 -0.5477 -0.3565
16360SOL    HW151333   1.841   8.047   9.176  0.2052 -0.1991 -1.0049
16360SOL    HW251334   1.857   8.194   9.144 -0.0239  0.1547  0.4207
16361SOL     OW51335   9.427  10.193   9.909 -0.6803  0.6313 -0.1828
16361SOL    HW151336   9.485  10.252   9.861 -0.0302  0.3990  0.3080
16361SOL    HW251337   9.380  10.145   9.841 -0.4097  0.9325 -0.5861
16362SOL     OW51338   1.352   2.654   0.466  0.0464  0.2415 -0.3295
16362SOL    HW151339   1.285   2.706   0.422 -1.0830 -0.0605  0.9902
16362SOL    HW251340   1.318   2.565   0.465  1.0200 -0.1431 -0.7448
16363SOL     OW51341   3.185   8.004  10.231 -0.4085  0.5371 -0.2306
16363SOL    HW151342   3.173   8.090  10.191  0.1233 -0.3976 -2.5248
16363SOL    HW251343   3.109   7.953  10.201  0.6358 -0.5463 -1.1185
16364SOL     OW51344   5.824   5.712   5.825  0.6137 -0.2249 -0.7792
16364SOL    HW151345   5.798   5.789   5.774 -0.2469  0.7118  0.9925
16364SOL    HW251346   5.911   5.690   5.792  0.8845  1.5253 -1.3309
16365SOL     OW51347   0.838   7.560   7.301  0.1799  0.0519 -0.4723
16365SOL    HW151348   0.821   7.486   7.243 -1.1550 -0.0571  0.0163
16365SOL    HW251349   0.755   7.608   7.303 -0.1191 -0.4541  2.0395
16366SOL     OW51350   0.602   4.711   7.943  0.1198 -0.0466  0.7771
16366SOL    HW151351   0.590   4.646   7.874  2.4203  1.7830 -1.5151
16366SOL    HW251352   0.545   4.783   7.919  0.2136  0.2293  1.3612
16367SOL     OW51353   6.194   9.592  10.578 -0.0000 -0.4517 -0.4117
16367SOL    HW151354   6.258   9.536  10.621  0.7719  0.1187 -0.8054
16367SOL    HW251355   6.150   9.638  10.650 -0.1119 -0.9925 -0.1300
16368SOL     OW51356   3.571   4.502   8.745  0.0564  0.0911 -0.1280
16368SOL    HW151357   3.533   4.459   8.668  0.6404  0.1344 -0.4470
16368SOL    HW251358   3.499   4.506   8.808 -0.3835 -0.0995 -0.6078
16369SOL     OW51359   2.895   0.583   3.725 -0.2880 -0.0256 -0.1349
16369SOL    HW151360   2.985   0.608   3.745  0.1309 -0.4851 -1.3651
16369SOL    HW251361   2.865   0.537   3.803  0.5423  0.1359  0.2883
16370SOL     OW51362   9.475   7.460   0.057  0.6209 -0.2435  0.0454
16370SOL    HW151363   9.385   7.492   0.060  0.7600  0.1117  0.7056
16370SOL    HW251364   9.528   7.538   0.045  0.8546 -0.4326 -0.1719
16371SOL     OW51365   9.713   5.215   6.858  0.6777 -0.0984  0.4687
16371SOL    HW151366   9.654   5.152   6.817  1.8978 -1.8805  1.3204
16371SOL    HW251367   9.726   5.283   6.791 -0.4593 -0.8930 -0.5991
16372SOL     OW51368  10.463   3.620   2.573 -0.0991  0.1686  0.2614
16372SOL    HW151369  10.382   3.665   2.552 -1.6537 -2.0036  1.2429
16372SOL    HW251370  10.438   3.528   2.584  2.2734 -0.3961  1.7694
16373SOL     OW51371   1.607   3.452   7.086  0.0135  0.1433 -0.2281
16373SOL    HW151372   1.614   3.357   7.090  0.3842  0.1681 -0.2200
16373SOL    HW251373   1.694   3.483   7.111 -0.5609  0.5262  1.4285
16374SOL     OW51374   9.828   4.088   0.043 -0.1411 -0.2225 -0.3280
16374SOL    HW151375   9.868   4.165   0.004 -1.8695  1.0462  0.2727
16374SOL    HW251376   9.815   4.028  -0.030 -1.0192  1.0929 -1.3085
16375SOL     OW51377   4.603   8.675   4.388 -0.1902  0.1955  0.1990
16375SOL    HW151378   4.529   8.720   4.348 -0.0367  0.3323  0.0723
16375SOL    HW251379   4.591   8.583   4.363  0.5039  0.4451 -1.0765
16376SOL     OW51380   7.203   8.255   7.723 -0.0509  0.4815  0.1945
16376SOL    HW151381   7.117   8.233   7.687 -0.2719 -1.8914  1.9682
16376SOL    HW251382   7.184   8.293   7.809  0.6346  2.5635 -0.4987
16377SOL     OW51383   4.139   0.716   3.343  0.6542  0.5824 -0.1982
16377SOL    HW151384   4.176   0.721   3.255  0.1211 -1.0022 -0.5524
16377SOL    HW251385   4.212   0.689   3.398  0.4639 -0.9236 -0.6224
16378SOL     OW51386   9.363   9.243   4.300  0.0226  0.3468 -0.3609
16378SOL    HW151387   9.330   9.225   4.212 -1.8777 -1.7185  0.6647
16378SOL    HW251388   9.458   9.244   4.290 -0.0470 -2.0484 -2.1339
16379SOL     OW51389   4.540   1.461   7.894 -0.1746  0.1738 -0.0332
16379SOL    HW151390   4.596   1.533   7.865 -0.0436  0.3499  0.6458
16379SOL    HW251391   4.451   1.493   7.878 -0.1038  0.2702 -0.2371
16380SOL     OW51392   3.302   8.062   3.844  0.2264  0.4292  0.6415
16380SOL    HW151393   3.217   8.043   3.805 -0.5966  0.4500  2.3141
16380SOL    HW251394   3.286   8.057   3.939  2.3038 -0.5210  0.9974
16381SOL     OW51395   5.521   8.542   0.665  0.1490 -0.2939 -0.3251
16381SOL    HW151396   5.594   8.526   0.605  1.5400  0.3712  1.1142
16381SOL    HW251397   5.504   8.456   0.704  0.9472 -0.2478  0.1551
16382SOL     OW51398   1.046   0.283   0.075  0.5841 -0.1513  0.1414
16382SOL    HW151399   1.098   0.225   0.020  1.0928 -0.4740  0.9568
16382SOL    HW251400   1.039   0.238   0.159 -0.4350  0.2033  0.2693
16383SOL     OW51401   1.736   2.674   5.243 -0.1131  0.1755 -0.2329
16383SOL    HW151402   1.761   2.588   5.279  0.0939  0.4691  0.3351
16383SOL    HW251403   1.738   2.661   5.148  1.1283 -0.1226 -0.1917
16384SOL     OW51404   1.922   9.461   8.100 -0.1576  0.0412 -0.0747
16384SOL    HW151405   1.983   9.393   8.129 -0.0170 -0.0288 -0.5192
16384SOL    HW251406   1.870   9.419   8.032 -0.2242  0.3120 -0.1919
16385SOL     OW51407   0.550  10.414   4.250  0.0294 -0.1813  0.4527
16385SOL    HW151408   0.507  10.349   4.306 -1.2898  1.4579  1.4111
16385SOL    HW251409   0.613  10.457   4.307  1.7549 -1.3407 -0.4854
16386SOL     OW51410   0.313   9.298   3.303 -0.3456 -0.7511  0.1899
16386SOL    HW151411   0.274   9.279   3.389 -1.4978  0.4526 -0.0338
16386SOL    HW251412   0.334   9.391   3.307  2.6345 -1.3189  0.3025
16387SOL     OW51413   9.995   5.677   3.053 -0.2821 -0.0644  0.3045
16387SOL    HW151414  10.033   5.716   2.974 -0.2935 -0.5645  0.0489
16387SOL    HW251415   9.984   5.751   3.113 -0.8105  0.4158 -0.3674
16388SOL     OW51416   4.928  10.521   3.761 -0.2675 -0.2517  0.2727
16388SOL    HW151417   4.858  10.464   3.727 -0.8014  0.8093 -0.4572
16388SOL    HW251418   5.005  10.465   3.764 -0.1383 -0.3918 -2.8878
16389SOL     OW51419   2.029   3.296   2.930 -0.2739 -0.0752  0.1664
16389SOL    HW151420   1.988   3.372   2.889 -1.9609 -0.1550  1.5931
16389SOL    HW251421   2.089   3.332   2.995 -0.8298  0.0564  0.6142
16390SOL     OW51422   4.465   0.847   7.792 -0.2950  0.5024  0.1613
16390SOL    HW151423   4.480   0.752   7.797  2.6328  0.8385 -0.3575
16390SOL    HW251424   4.496   0.880   7.876 -0.1320  1.1198 -0.1378
16391SOL     OW51425   8.242   7.783  10.634  0.2364  0.7303  0.0818
16391SOL    HW151426   8.222   7.696  10.599 -0.9559  1.2518 -0.5651
16391SOL    HW251427   8.330   7.802  10.600  1.0305 -0.6865  1.2051
16392SOL     OW51428   7.692   3.181   6.056 -0.1389 -0.1000  0.0917
16392SOL    HW151429   7.650   3.266   6.045  0.3315  0.0843 -0.3707
16392SOL    HW251430   7.689   3.164   6.150 -1.7886 -0.3908  0.0004
16393SOL     OW51431  10.539   4.863   1.922 -0.1327  0.3020 -0.1966
16393SOL    HW151432  10.474   4.900   1.862 -0.3184  1.7044  0.8155
16393SOL    HW251433  10.492   4.796   1.971 -0.2559 -0.1120 -0.8699
16394SOL     OW51434   3.641   4.181   5.378 -0.2183  0.1460  0.5425
16394SOL    HW151435   3.630   4.259   5.324 -0.2201  0.7249  1.3675
16394SOL    HW251436   3.724   4.143   5.348  0.3364  1.0637  0.8672
16395SOL     OW51437   0.479   8.471   7.027  0.0346  0.4708 -0.4843
16395SOL    HW151438   0.570   8.455   7.049 -0.0336 -0.7167 -1.0044
16395SOL    HW251439   0.481   8.544   6.964  0.5139  1.2217  0.3758
16396SOL     OW51440   6.389   8.608   4.049 -0.0140  0.2524  0.2726
16396SOL    HW151441   6.426   8.696   4.052  1.0893 -0.2012  0.5204
16396SOL    HW251442   6.420   8.571   3.967  1.1602 -0.5671  1.0514
16397SOL     OW51443   9.218   3.755   1.210 -0.2247  0.7360  0.1801
16397SOL    HW151444   9.139   3.776   1.158 -1.0861  0.1561  1.2176
16397SOL    HW251445   9.287   3.808   1.171 -0.8944  0.5077 -1.4156
16398SOL     OW51446  10.496   3.629   0.666 -0.3175  0.1644  0.0517
16398SOL    HW151447  10.553   3.576   0.723 -1.2194  0.4104  1.2147
16398SOL    HW251448  10.557   3.679   0.612  0.5626 -1.1873 -0.2677
16399SOL     OW51449   2.978   4.065   8.934 -0.1340 -0.1593  0.1937
16399SOL    HW151450   3.034   4.092   9.006  0.4671 -0.5093 -0.1340
16399SOL    HW251451   2.903   4.022   8.976  1.3030 -2.4701  0.5715
16400SOL     OW51452   0.112   5.799   5.154  0.0307 -0.0823 -0.4395
16400SOL    HW151453   0.071   5.880   5.185 -0.1754  0.0057 -0.9240
16400SOL    HW251454   0.075   5.730   5.209 -1.7092 -0.1655 -1.6212
16401SOL     OW51455   1.766  10.351   2.001  0.1167  0.2114 -0.0658
16401SOL    HW151456   1.703  10.279   1.990 -0.2104  0.6168 -1.0208
16401SOL    HW251457   1.747  10.410   1.927  1.6047  0.3577 -0.3557
16402SOL     OW51458   6.386   0.660   6.667  0.0115 -0.7508  0.2438
16402SOL    HW151459   6.472   0.676   6.628 -0.7494  2.8603 -0.3214
16402SOL    HW251460   6.402   0.594   6.734  2.9652 -1.0839 -0.6566
16403SOL     OW51461   9.262   2.493   9.728 -1.0900  0.1713  0.2629
16403SOL    HW151462   9.267   2.548   9.649  1.2918 -0.2982  0.0100
16403SOL    HW251463   9.196   2.535   9.783 -3.4965  0.0540 -2.2768
16404SOL     OW51464   3.295   1.604   5.324 -0.4965 -0.3217 -0.2659
16404SOL    HW151465   3.239   1.561   5.389 -1.8215  0.7437 -0.6644
16404SOL    HW251466   3.235   1.629   5.253  0.3414  1.5288 -0.3791
16405SOL     OW51467   8.813  10.041  10.247  0.4711  0.3300 -0.1013
16405SOL    HW151468   8.739   9.980  10.250  1.6816 -1.2844 -1.1870
16405SOL    HW251469   8.842  10.049  10.337 -0.7817  0.6998  0.2870
16406SOL     OW51470   5.956  10.584   1.062  0.0620 -0.6789  0.0584
16406SOL    HW151471   5.926  10.605   0.973  1.1326 -2.9122 -0.8946
16406SOL    HW251472   5.875  10.570   1.111 -0.5450  0.3969 -0.5753
16407SOL     OW51473   1.159   2.200   3.588  0.4319  0.1435  0.3431
16407SOL    HW151474   1.254   2.188   3.596  0.5450 -0.9443 -1.8935
16407SOL    HW251475   1.150   2.271   3.524 -0.2632 -0.0344  0.2453
16408SOL     OW51476   2.563   1.811   8.934 -0.0597 -0.3411 -0.2329
16408SOL    HW151477   2.470   1.825   8.952 -0.1415 -0.7444 -0.3226
16408SOL    HW251478   2.608   1.865   8.999 -0.3530  0.1317 -0.4173
16409SOL     OW51479   6.146   6.263   4.189  0.2397 -0.4046  0.0727
16409SOL    HW151480   6.218   6.292   4.244 -0.6258  1.1475  0.4170
16409SOL    HW251481   6.151   6.319   4.111  0.9795 -2.0555 -1.1582
16410SOL     OW51482   3.975   8.778  10.260  0.1489  0.0334 -0.3183
16410SOL    HW151483   4.054   8.790  10.314 -0.0406 -0.6892  0.1295
16410SOL    HW251484   3.963   8.683  10.255 -0.3647  0.1234 -0.8651
16411SOL     OW51485   4.494   9.041   2.422  0.3890 -0.2192  0.4083
16411SOL    HW151486   4.556   8.968   2.423 -0.2407 -0.7661  0.0619
16411SOL    HW251487   4.474   9.056   2.515 -0.2927 -1.1918  0.4240
16412SOL     OW51488   6.181   3.444   7.158 -0.3995  0.1180 -0.1483
16412SOL    HW151489   6.180   3.513   7.092  2.1256 -0.8057 -1.2631
16412SOL    HW251490   6.231   3.373   7.119  1.1287 -0.5295  2.6721
16413SOL     OW51491  10.468   1.509   7.890 -0.3953  0.3037  0.3438
16413SOL    HW151492  10.555   1.498   7.928 -0.1234 -0.1877 -0.3998
16413SOL    HW251493  10.436   1.420   7.877 -0.6466  0.4689 -0.1865
16414SOL     OW51494   3.364   6.447   3.105  0.3798 -0.5403  0.5068
16414SOL    HW151495   3.386   6.529   3.061  0.5501 -2.2152 -2.8005
16414SOL    HW251496   3.449   6.410   3.129  0.4018 -0.6138  0.3151
16415SOL     OW51497   3.783   5.769   8.479  0.3195 -0.8756  0.1207
16415SOL    HW151498   3.822   5.684   8.458  1.1105 -0.0918 -1.8813
16415SOL    HW251499   3.814   5.827   8.409 -3.5661  0.0687 -1.0793
16416SOL     OW51500  10.015   6.212   0.765 -0.4922 -0.0815  0.5535
16416SOL    HW151501  10.051   6.265   0.694 -1.1053  0.0851  0.3637
16416SOL    HW251502   9.986   6.131   0.723 -1.4267  0.2687  0.4960
16417SOL     OW51503   7.191   2.046   2.594  0.1129  0.6809 -0.0145
16417SOL    HW151504   7.219   2.116   2.535 -0.2964 -1.4416 -2.9363
16417SOL    HW251505   7.271   2.017   2.637  0.5398  1.8092  0.0039
16418SOL     OW51506   8.997   0.489   8.434 -0.0016 -0.1323  0.0701
16418SOL    HW151507   9.081   0.527   8.409  0.9098 -0.5532  2.2451
16418SOL    HW251508   8.979   0.525   8.521 -1.8206 -0.4793 -0.1160
16419SOL     OW51509   1.395   4.848   3.002 -0.7045 -0.1852 -0.3140
16419SOL    HW151510   1.373   4.782   2.938 -0.2751  0.4459 -1.1376
16419SOL    HW251511   1.457   4.906   2.957 -1.6130  1.1974  0.1175
16420SOL     OW51512   5.467   9.280   2.111 -0.4199  0.2382 -0.1922
16420SOL    HW151513   5.445   9.278   2.018  0.1047  0.8866 -0.3448
16420SOL    HW251514   5.560   9.304   2.112  0.2699 -2.1962  0.4178
16421SOL     OW51515   2.144  10.182   3.735  0.1426 -0.1150  0.0892
16421SOL    HW151516   2.111  10.162   3.647 -2.3524  0.5218  0.7784
16421SOL    HW251517   2.144  10.277   3.740  1.0775 -0.1273  0.5159
16422SOL     OW51518   6.587   8.726   2.475 -0.4438  0.0895  0.2715
16422SOL    HW151519   6.508   8.674   2.495  0.5864 -0.8701  2.0959
16422SOL    HW251520   6.652   8.661   2.449 -0.1933  0.8754 -1.1557
16423SOL     OW51521   4.459   0.075   1.319 -0.1886  0.1121 -0.1971
16423SOL    HW151522   4.508   0.056   1.399 -0.8251  0.2348  0.2234
16423SOL    HW251523   4.388   0.011   1.318  1.2040 -1.5612 -1.9398
16424SOL     OW51524   7.673   6.893  10.400 -0.1732  0.5423  0.1783
16424SOL    HW151525   7.578   6.882  10.398 -0.3211  1.6743  0.2167
16424SOL    HW251526   7.691   6.929  10.486  0.5222 -1.2972  0.8556
16425SOL     OW51527   9.824   1.283   0.622  1.0190  0.4127 -0.3868
16425SOL    HW151528   9.859   1.335   0.550  0.9417  1.7473  0.5117
16425SOL    HW251529   9.729   1.281   0.607  1.0696  0.0923 -0.6888
16426SOL     OW51530   5.618   4.073   6.178  0.2534  0.2996 -0.1117
16426SOL    HW151531   5.671   4.006   6.135 -0.1151 -0.0958  0.0473
16426SOL    HW251532   5.676   4.148   6.186  0.0680  0.7310 -2.1834
16427SOL     OW51533   3.780   7.132   9.383 -0.1269 -0.6638 -0.1367
16427SOL    HW151534   3.708   7.075   9.357 -1.3166 -0.0745  1.7394
16427SOL    HW251535   3.774   7.138   9.478 -0.0633  2.5612 -0.2175
16428SOL     OW51536   8.844  10.118   1.513 -0.2003 -0.5286 -0.4111
16428SOL    HW151537   8.804  10.167   1.441  0.3240 -0.3894 -0.6148
16428SOL    HW251538   8.938  10.134   1.503 -0.2050  1.2767  1.5779
16429SOL     OW51539   7.780   1.170   1.876  0.5987 -0.3278 -0.4422
16429SOL    HW151540   7.782   1.084   1.834 -0.4165 -0.8903  0.5815
16429SOL    HW251541   7.866   1.180   1.917  0.7473 -0.8300 -0.6285
16430SOL     OW51542   6.156   0.920   2.056 -0.3579 -0.1512 -0.2246
16430SOL    HW151543   6.162   0.825   2.065 -0.2041  0.0100  1.8545
16430SOL    HW251544   6.202   0.954   2.133 -3.3843  1.5326  1.0368
16431SOL     OW51545   1.547   6.422   8.490  0.2989  0.5491 -0.2719
16431SOL    HW151546   1.461   6.382   8.497  1.1543 -1.3676 -0.3214
16431SOL    HW251547   1.545   6.468   8.405 -0.4025 -0.1362 -0.6313
16432SOL     OW51548   0.999   1.849   0.159 -0.2310 -0.3273 -0.0352
16432SOL    HW151549   0.913   1.866   0.121 -0.2239 -0.3922 -0.0797
16432SOL    HW251550   0.981   1.794   0.235 -0.1041 -1.4916 -0.8310
16433SOL     OW51551   1.606   8.670   5.267  0.0580 -0.2717  0.0008
16433SOL    HW151552   1.537   8.686   5.331  0.3762  0.7258  0.1110
16433SOL    HW251553   1.686   8.664   5.319  0.3570  0.8384 -0.3182
16434SOL     OW51554   5.738   9.648   2.242  0.5986  0.0845 -0.0935
16434SOL    HW151555   5.683   9.707   2.295  1.5472  0.1770  0.8231
16434SOL    HW251556   5.806   9.618   2.303  1.1856 -0.5347 -1.0326
16435SOL     OW51557   0.456   6.000   8.159 -0.3511  0.7509 -0.4015
16435SOL    HW151558   0.436   5.976   8.250  0.0102  1.3455 -0.1628
16435SOL    HW251559   0.448   5.918   8.111  0.5834  0.1897  0.3622
16436SOL     OW51560  10.080   9.697   7.785 -0.2989 -0.3862 -0.3867
16436SOL    HW151561  10.033   9.625   7.827 -0.2727 -0.0583  0.2040
16436SOL    HW251562  10.028   9.717   7.707 -0.5532 -0.7389 -0.3097
16437SOL     OW51563   8.743   5.473  10.516  0.1502  0.0746 -0.0974
16437SOL    HW151564   8.669   5.525  10.485  0.5676 -0.2103 -1.6719
16437SOL    HW251565   8.810   5.537  10.539 -0.0535  0.2875 -0.0969
16438SOL     OW51566   0.882   8.235   4.837 -0.1687  0.1390 -0.1963
16438SOL    HW151567   0.821   8.190   4.778  2.3067 -1.8981 -1.4101
16438SOL    HW251568   0.838   8.235   4.922 -1.5120 -2.0930 -0.8009
16439SOL     OW51569   5.035   2.924   0.193 -0.2189  0.0194 -0.1960
16439SOL    HW151570   5.091   2.991   0.156 -0.0923 -1.0207 -1.9840
16439SOL    HW251571   5.019   2.863   0.121 -2.8969 -0.2180  0.4841
16440SOL     OW51572   7.458  10.120   6.896 -0.0027  0.1707  0.3324
16440SOL    HW151573   7.373  10.111   6.854 -0.6281  0.5871  1.4434
16440SOL    HW251574   7.456  10.055   6.967  0.3996  0.5272  0.6734
16441SOL     OW51575   1.466   7.765   7.091  0.6709 -0.0097  0.0768
16441SOL    HW151576   1.427   7.798   7.172  0.3307  0.5026 -0.2921
16441SOL    HW251577   1.479   7.842   7.037  2.7217 -0.0846  0.3853
16442SOL     OW51578   4.629   1.562   5.652  1.0983  0.3688  0.3014
16442SOL    HW151579   4.675   1.591   5.573  1.2751  1.3444  0.7422
16442SOL    HW251580   4.668   1.477   5.673  2.7176  1.1631  0.6554
16443SOL     OW51581   4.348   7.709   5.596 -0.0573  0.0971 -0.2018
16443SOL    HW151582   4.378   7.790   5.638 -1.9733  1.9937 -2.2543
16443SOL    HW251583   4.254   7.708   5.611 -0.2178 -1.1544 -1.1707
16444SOL     OW51584   7.132   1.974   6.673  0.1920  0.0301  0.2409
16444SOL    HW151585   7.052   1.922   6.663 -0.4175  1.0031 -0.1277
16444SOL    HW251586   7.196   1.913   6.709 -0.4358 -1.0222 -0.3780
16445SOL     OW51587   0.534   7.706   4.909  0.0227 -0.3008  0.7261
16445SOL    HW151588   0.595   7.640   4.875  1.3173  0.5230  1.3720
16445SOL    HW251589   0.490   7.740   4.831  0.1026 -1.1683  0.2828
16446SOL     OW51590   2.032   3.118   9.795 -0.1789  0.0568 -0.0114
16446SOL    HW151591   1.940   3.115   9.770 -0.1859 -0.0883  0.0321
16446SOL    HW251592   2.074   3.054   9.738 -0.3215 -0.8726  0.8805
16447SOL     OW51593   0.880   8.474   6.748 -0.9457  0.0233 -0.0401
16447SOL    HW151594   0.943   8.497   6.680 -0.8095 -0.1163  0.0384
16447SOL    HW251595   0.921   8.503   6.829 -0.3908 -1.2513  0.1596
16448SOL     OW51596  10.001   5.745   3.382 -0.4501  0.2067 -0.0540
16448SOL    HW151597  10.093   5.719   3.384 -0.5882 -0.3165 -0.2269
16448SOL    HW251598   9.995   5.806   3.309 -0.0956  0.8279  0.4291
16449SOL     OW51599   3.535   6.327   9.659 -0.0899 -0.5741  0.5059
16449SOL    HW151600   3.504   6.414   9.686 -0.8474 -1.0853  1.3097
16449SOL    HW251601   3.626   6.325   9.689  0.4411  0.5115 -0.8937
16450SOL     OW51602   9.679   5.981   5.370  0.0270  0.1222  0.1671
16450SOL    HW151603   9.663   6.075   5.380 -0.4668  0.0803 -0.1742
16450SOL    HW251604   9.610   5.939   5.422 -0.2080 -0.0518 -0.2747
16451SOL     OW51605   6.005   3.009   9.293  0.4279 -0.4601  0.0108
16451SOL    HW151606   6.005   2.981   9.384  0.4223 -0.7144 -0.0644
16451SOL    HW251607   5.916   2.989   9.262  0.2940  0.0329  0.0688
16452SOL     OW51608   0.048   0.965   9.813 -1.1931 -0.1002 -0.4440
16452SOL    HW151609  -0.036   1.008   9.798 -1.5030 -0.5497 -0.0193
16452SOL    HW251610   0.092   1.021   9.877 -1.0610  0.2730 -0.8580
16453SOL     OW51611   3.747   1.466   5.517 -0.3417 -0.2171  0.2391
16453SOL    HW151612   3.744   1.558   5.490  0.7708  0.2870  1.7110
16453SOL    HW251613   3.655   1.443   5.531 -0.5334  1.4168  2.1348
16454SOL     OW51614   5.199   2.899   1.382 -0.0068  0.2874 -0.5403
16454SOL    HW151615   5.139   2.956   1.333  0.2043  0.9312 -0.0701
16454SOL    HW251616   5.180   2.918   1.473 -0.9696 -1.5080 -0.3260
16455SOL     OW51617   9.724   4.426   8.290  0.0574 -0.2212 -0.7367
16455SOL    HW151618   9.776   4.352   8.259  0.3172  0.1322 -1.1487
16455SOL    HW251619   9.783   4.501   8.288  0.0140 -0.1345  0.3880
16456SOL     OW51620   5.254   8.304   9.634  0.2023 -0.1647 -0.3836
16456SOL    HW151621   5.216   8.234   9.687  0.3265  1.9155  2.7483
16456SOL    HW251622   5.334   8.266   9.598  0.8233 -1.4136  2.0613
16457SOL     OW51623   8.551   4.734   1.285  0.0065  0.3417  0.1387
16457SOL    HW151624   8.484   4.800   1.266 -1.3484 -1.0616 -0.1915
16457SOL    HW251625   8.634   4.781   1.278 -0.9374  2.3182  1.2620
16458SOL     OW51626   6.988   4.911   9.887 -0.6874  0.8238 -0.0696
16458SOL    HW151627   6.963   4.835   9.940 -1.1572  0.2963 -1.0111
16458SOL    HW251628   6.965   4.886   9.797  2.3265  0.7093 -0.9106
16459SOL     OW51629   5.553   2.322   0.407  0.1076 -0.2176  0.4773
16459SOL    HW151630   5.474   2.300   0.358  0.7581  1.0916 -1.2535
16459SOL    HW251631   5.623   2.273   0.364  0.4675 -0.3465  1.1767
16460SOL     OW51632   1.404   4.832   5.025  0.1862  0.5835 -0.0233
16460SOL    HW151633   1.361   4.915   5.047 -1.7499 -0.1701 -0.7713
16460SOL    HW251634   1.419   4.838   4.930  0.9530  0.4793  0.0906
16461SOL     OW51635   4.612   2.360   5.907  0.1543  0.2568  0.1672
16461SOL    HW151636   4.606   2.400   5.820 -1.1562 -0.9120 -0.3224
16461SOL    HW251637   4.571   2.423   5.966 -1.9857 -0.3219 -0.6110
16462SOL     OW51638   7.626   6.259   5.943 -0.1451 -0.4039  0.1032
16462SOL    HW151639   7.664   6.205   5.874  2.2750  2.7878 -1.3517
16462SOL    HW251640   7.593   6.337   5.898 -0.2442  0.9535  2.3460
16463SOL     OW51641   0.023   8.140   3.984  0.3404 -0.1571  0.5109
16463SOL    HW151642  -0.025   8.135   4.066 -1.9605 -2.2276 -0.8130
16463SOL    HW251643   0.055   8.050   3.969 -0.0018 -0.0345 -1.2052
16464SOL     OW51644   7.824   8.491   3.876 -0.3125  0.3408  0.7889
16464SOL    HW151645   7.781   8.488   3.790 -1.1938 -0.4836  1.2441
16464SOL    HW251646   7.917   8.483   3.857 -0.6322 -2.5038  0.0371
16465SOL     OW51647   9.854   2.622   4.262 -0.3007  0.4364 -0.1840
16465SOL    HW151648   9.807   2.622   4.346  0.5922 -0.0997  0.3297
16465SOL    HW251649   9.913   2.546   4.268 -0.7775 -0.0736 -1.6090
16466SOL     OW51650   4.104   0.536   2.674  0.0683 -0.2361  0.3714
16466SOL    HW151651   4.123   0.471   2.605 -2.3491 -1.9190  1.1502
16466SOL    HW251652   4.015   0.566   2.654  0.7589  2.1690  0.6374
16467SOL     OW51653   7.567   3.365   3.340 -0.9139 -0.0374 -0.2509
16467SOL    HW151654   7.514   3.386   3.417 -1.1148  1.2081 -0.7057
16467SOL    HW251655   7.573   3.447   3.292 -0.8653 -0.8146 -1.6181
16468SOL     OW51656   1.708   8.021   5.539  0.0888 -0.0552  0.4601
16468SOL    HW151657   1.628   8.073   5.550  0.0031  0.2609 -1.3628
16468SOL    HW251658   1.747   8.019   5.626 -1.0091  1.2787  1.0247
16469SOL     OW51659   1.592   5.532   9.631  0.3463 -0.0908 -0.3233
16469SOL    HW151660   1.555   5.476   9.699  2.2758 -0.7179  0.2800
16469SOL    HW251661   1.666   5.482   9.596 -0.5729  0.2186 -2.9250
16470SOL     OW51662   3.062   8.257   0.823 -0.0714 -0.1993 -0.1626
16470SOL    HW151663   2.975   8.218   0.835  0.3123 -0.9367  0.3089
16470SOL    HW251664   3.045   8.343   0.785 -0.9125 -1.0693 -1.8801
16471SOL     OW51665   1.220   0.096   3.067  0.8212  0.5841  0.8385
16471SOL    HW151666   1.303   0.090   3.020  0.8592 -0.4027  0.9919
16471SOL    HW251667   1.210   0.009   3.108 -0.4590  0.5599  0.5120
16472SOL     OW51668  10.362   5.938   6.337  0.0829 -0.0102  0.2470
16472SOL    HW151669  10.276   5.979   6.348 -0.6864 -1.6886  0.8562
16472SOL    HW251670  10.418   5.984   6.400 -0.6632  0.3219  0.6843
16473SOL     OW51671   6.508   8.157   3.282 -0.0729  0.0340  0.2910
16473SOL    HW151672   6.422   8.194   3.303  0.5108  2.1456 -0.7321
16473SOL    HW251673   6.513   8.162   3.186  1.1993 -0.0030  0.3345
16474SOL     OW51674   0.273   9.966   6.375  0.7898  0.1911 -0.2001
16474SOL    HW151675   0.289   9.873   6.391  1.6724  0.3092 -0.3177
16474SOL    HW251676   0.266  10.005   6.462  1.2254  0.1387 -0.1394
16475SOL     OW51677   5.183   4.305   8.484 -0.5514  0.0733  0.3730
16475SOL    HW151678   5.149   4.252   8.412  0.0876 -1.6550  1.2697
16475SOL    HW251679   5.211   4.241   8.549  3.3195  1.3452  0.2221
16476SOL     OW51680   9.266   1.101   2.364 -0.0573 -0.1182 -0.2392
16476SOL    HW151681   9.245   1.194   2.353 -2.3755 -0.2432  2.0305
16476SOL    HW251682   9.239   1.061   2.281 -1.8031  0.8990 -0.2308
16477SOL     OW51683   8.426   3.425   4.986 -0.4214 -0.1353  0.2661
16477SOL    HW151684   8.343   3.468   5.002 -1.8087 -1.6646 -2.2239
16477SOL    HW251685   8.408   3.331   4.994  0.7034 -0.5701 -1.4406
16478SOL     OW51686   9.468   3.000   3.364 -0.8040  0.2008 -0.7705
16478SOL    HW151687   9.556   2.990   3.400 -1.0261  1.1502  0.0946
16478SOL    HW251688   9.410   2.964   3.431 -1.1212  0.3448 -0.9596
16479SOL     OW51689   4.624   7.772   9.710 -0.6218 -0.1436  0.2258
16479SOL    HW151690   4.627   7.686   9.669  2.2929  0.8453 -2.0153
16479SOL    HW251691   4.566   7.824   9.654 -2.1797 -0.5003  1.4354
16480SOL     OW51692   5.607   1.415   7.480 -0.5196 -0.0031  0.0713
16480SOL    HW151693   5.684   1.395   7.534  0.1743  0.1274 -0.8456
16480SOL    HW251694   5.563   1.487   7.526 -0.0313  0.0055  0.5337
16481SOL     OW51695   0.343   2.194   6.297  0.5791  0.2656 -0.3543
16481SOL    HW151696   0.309   2.141   6.369  1.0810  0.3499 -0.0507
16481SOL    HW251697   0.268   2.245   6.268  0.5574  0.8558  0.6665
16482SOL     OW51698   0.581   0.217   8.028 -0.8979 -0.3888  0.3251
16482SOL    HW151699   0.500   0.196   8.076 -0.3404 -1.0742  1.0092
16482SOL    HW251700   0.574   0.310   8.009 -1.7999 -0.4119  0.4790
16483SOL     OW51701   9.934   2.631   6.167  0.1155 -0.2622 -0.3287
16483SOL    HW151702   9.901   2.578   6.240  0.9317  0.1523  0.3548
16483SOL    HW251703  10.019   2.592   6.146 -1.4417 -2.4714 -3.2656
16484SOL     OW51704   9.221   8.927   5.708  0.4721 -0.2374  0.4579
16484SOL    HW151705   9.291   8.962   5.653 -0.6023 -0.0291 -0.8237
16484SOL    HW251706   9.239   8.833   5.712  0.9126 -0.1647  0.2715
16485SOL     OW51707   5.441   3.244   2.831  0.0110  0.1319  0.0510
16485SOL    HW151708   5.452   3.239   2.926 -0.5260 -1.6424  0.0529
16485SOL    HW251709   5.373   3.179   2.812  0.3297  0.2538 -1.5938
16486SOL     OW51710   6.378   8.394   7.972  0.5770  0.0461 -0.2027
16486SOL    HW151711   6.341   8.348   7.897  1.1357  0.5150 -0.7833
16486SOL    HW251712   6.337   8.481   7.969 -0.6450 -0.4464  1.0150
16487SOL     OW51713   4.565   8.094   4.216  0.0965 -0.5531 -0.0611
16487SOL    HW151714   4.597   8.054   4.297 -5.0527 -0.8674  2.1897
16487SOL    HW251715   4.552   8.187   4.238 -1.4599 -0.6587 -0.4369
16488SOL     OW51716   4.764   8.206   7.254 -0.0626  0.0366 -0.1876
16488SOL    HW151717   4.783   8.287   7.302  1.8947 -0.7064  0.3730
16488SOL    HW251718   4.706   8.157   7.312 -1.1170  0.9150 -0.4518
16489SOL     OW51719   6.815   5.501  10.622 -0.1985  0.7637  0.7692
16489SOL    HW151720   6.735   5.541  10.588  0.9126  2.2635 -0.2081
16489SOL    HW251721   6.820   5.416  10.578  0.0381  1.7312 -1.1986
16490SOL     OW51722   3.222   5.411   2.945  0.1613 -1.0021 -0.0151
16490SOL    HW151723   3.251   5.321   2.930 -1.3904 -1.7252  1.0696
16490SOL    HW251724   3.150   5.424   2.883 -1.1046 -1.3228  1.3342
16491SOL     OW51725   2.546   7.040   2.458 -0.0373  0.0292  0.8756
16491SOL    HW151726   2.528   7.125   2.498  0.2658 -0.0215  1.1199
16491SOL    HW251727   2.641   7.038   2.448 -0.0643 -0.1836  0.6516
16492SOL     OW51728   9.278   4.634   7.346 -0.4324  0.7610  0.0316
16492SOL    HW151729   9.265   4.662   7.255 -1.2805  0.5318  0.0683
16492SOL    HW251730   9.336   4.700   7.383  1.4020 -0.0926 -1.1476
16493SOL     OW51731  10.145   7.843   1.932 -0.5817 -0.4597  0.4053
16493SOL    HW151732  10.073   7.898   1.965  0.5922  2.5485 -1.6545
16493SOL    HW251733  10.113   7.810   1.848 -0.1256 -0.3973  0.2056
16494SOL     OW51734   9.962   4.389   6.870  0.0090 -0.5967  0.4006
16494SOL    HW151735   9.927   4.314   6.918  2.1216  0.1266  3.3430
16494SOL    HW251736  10.020   4.350   6.804 -0.5830 -1.5748  0.4400
16495SOL     OW51737   7.972   1.755   4.445  0.1026 -0.4551 -0.1669
16495SOL    HW151738   8.052   1.704   4.451  0.0988 -0.4369  0.0189
16495SOL    HW251739   7.903   1.697   4.477  0.0671 -0.4096 -0.1599
16496SOL     OW51740   0.058   4.416   2.250 -0.2351  0.7202 -0.3298
16496SOL    HW151741   0.089   4.457   2.169  0.9755 -0.8014 -0.6927
16496SOL    HW251742   0.109   4.335   2.256 -0.0025  0.9829  2.1727
16497SOL     OW51743   8.113   0.840   1.329  0.3128  0.0005  0.3362
16497SOL    HW151744   8.167   0.895   1.272  1.9053 -0.7018  1.1020
16497SOL    HW251745   8.023   0.854   1.298  0.7724  2.1262 -0.2246
16498SOL     OW51746   4.391   6.545   8.534  0.5110  0.2583  0.2302
16498SOL    HW151747   4.349   6.464   8.561  0.6450 -0.0021 -0.3432
16498SOL    HW251748   4.450   6.566   8.606  1.1026 -0.5985  0.0022
16499SOL     OW51749   7.685   9.704   5.286  0.1911 -0.0324  0.0075
16499SOL    HW151750   7.757   9.762   5.310  0.5191  0.1312 -1.3074
16499SOL    HW251751   7.711   9.665   5.203 -0.0022 -2.1366  0.8570
16500SOL     OW51752   3.146   2.274   3.768 -0.0836  0.0801 -0.2516
16500SOL    HW151753   3.133   2.354   3.819  1.2272  1.2744 -1.6752
16500SOL    HW251754   3.058   2.238   3.757 -0.4515  0.0017  2.3987
16501SOL     OW51755  10.121   0.812   6.182  0.5200 -0.4546 -0.2995
16501SOL    HW151756  10.127   0.717   6.188 -1.2230 -0.8214 -2.9740
16501SOL    HW251757  10.034   0.833   6.215  0.8937  0.2518  0.2780
16502SOL     OW51758   3.854   3.405   4.388 -0.6704  0.1100  0.0463
16502SOL    HW151759   3.769   3.440   4.416 -0.0291  0.0705  2.2118
16502SOL    HW251760   3.917   3.474   4.411 -0.0970  0.1923 -1.6539
16503SOL     OW51761   3.461   5.718   2.272  0.1563 -0.1011  0.0239
16503SOL    HW151762   3.489   5.633   2.240 -0.0194 -0.6358  1.2508
16503SOL    HW251763   3.473   5.714   2.367 -1.0781  0.7654  0.2464
16504SOL     OW51764   0.220   2.341   3.269  0.3622  0.1915  0.4225
16504SOL    HW151765   0.288   2.288   3.310  0.3809  0.3049  0.5383
16504SOL    HW251766   0.266   2.418   3.236  0.2780  0.3031  0.5662
16505SOL     OW51767   6.917   4.059   6.328 -0.8497  0.1446 -0.1975
16505SOL    HW151768   6.986   4.122   6.310  0.2195 -0.4806  1.5189
16505SOL    HW251769   6.922   3.996   6.256 -0.3213  0.6886 -0.6392
16506SOL     OW51770   4.837   9.453   5.301 -0.3089  0.3372  0.3382
16506SOL    HW151771   4.778   9.510   5.253  0.0029  0.4390  0.0722
16506SOL    HW251772   4.859   9.501   5.380  1.1712  1.2717 -0.5927
16507SOL     OW51773   0.033   8.311   1.437  0.2851  0.4859 -0.1549
16507SOL    HW151774   0.097   8.320   1.508  0.4322 -0.1524 -0.2014
16507SOL    HW251775  -0.049   8.291   1.482  0.9007 -2.7547 -0.2236
16508SOL     OW51776   2.900   3.522   9.291 -0.4015 -0.1255  0.4086
16508SOL    HW151777   2.937   3.607   9.313  1.1822 -0.3777 -1.0842
16508SOL    HW251778   2.808   3.541   9.273 -0.9312  0.6545  3.3842
16509SOL     OW51779   1.320   7.993   4.743 -0.3390 -0.1350 -0.3205
16509SOL    HW151780   1.225   7.986   4.757 -0.2966  1.5570  1.1506
16509SOL    HW251781   1.357   7.919   4.791 -0.8589 -0.2453 -0.0793
16510SOL     OW51782   5.106   8.659   6.238  0.5525 -0.0049 -0.4550
16510SOL    HW151783   5.014   8.632   6.241 -0.0481  1.9475  1.0925
16510SOL    HW251784   5.150   8.601   6.300  0.1510 -0.2217 -0.3660
16511SOL     OW51785  10.304  10.482   3.388 -0.6081  0.4011 -0.2703
16511SOL    HW151786  10.333  10.500   3.477  0.1271  0.9815 -0.6094
16511SOL    HW251787  10.316  10.387   3.377  1.1032  0.5837 -0.3374
16512SOL     OW51788   3.898  10.388   2.820 -0.3209  0.3838 -0.2733
16512SOL    HW151789   3.948  10.373   2.740  0.6358  0.0254  0.3797
16512SOL    HW251790   3.828  10.323   2.817  0.5655 -0.6084 -0.1417
16513SOL     OW51791   1.384  10.640   1.941 -0.3436  0.1482  0.1565
16513SOL    HW151792   1.434  10.620   2.020 -0.5752  3.8740  1.4423
16513SOL    HW251793   1.294  10.653   1.973 -0.4435  1.6893 -0.6565
16514SOL     OW51794   5.264  10.002   5.135  0.7228  0.3599 -0.4437
16514SOL    HW151795   5.290   9.913   5.109  0.0387 -0.8859  2.6780
16514SOL    HW251796   5.338  10.057   5.108  0.4653 -0.7903 -3.9390
16515SOL     OW51797   1.430   5.034   9.388 -0.2318  0.2344  0.2798
16515SOL    HW151798   1.466   5.123   9.385  3.2688 -0.9497  1.6550
16515SOL    HW251799   1.364   5.038   9.458 -1.6375  2.0917 -1.0216
16516SOL     OW51800   1.884  10.463   8.980 -0.0872 -0.7444 -0.2895
16516SOL    HW151801   1.872  10.496   9.069  2.0167  0.5016 -0.3845
16516SOL    HW251802   1.923  10.376   8.992 -0.0299 -0.6791  0.0135
16517SOL     OW51803   2.843   2.380   6.713  0.1049 -0.0770 -0.0200
16517SOL    HW151804   2.757   2.343   6.695  0.2697 -1.9172  2.4347
16517SOL    HW251805   2.904   2.330   6.659 -0.0251 -1.3893  0.9883
16518SOL     OW51806   4.261   5.630   3.889 -0.6493 -0.3608  0.0202
16518SOL    HW151807   4.233   5.719   3.867 -0.0696 -0.3806 -0.8603
16518SOL    HW251808   4.335   5.642   3.948  0.0002 -0.2167 -0.7916
16519SOL     OW51809   7.210   9.789  10.564  0.4849  0.1066 -0.3483
16519SOL    HW151810   7.234   9.864  10.618 -0.8526  1.0654 -1.0347
16519SOL    HW251811   7.217   9.821  10.474  1.0079 -0.9463 -0.6995
16520SOL     OW51812   4.355   2.818   6.371 -0.8292  0.6070  0.4222
16520SOL    HW151813   4.355   2.907   6.407 -1.0838  0.7366  0.1103
16520SOL    HW251814   4.441   2.782   6.395 -0.0169  1.5418 -0.8983
16521SOL     OW51815   6.922   5.614   5.800  0.5364 -0.1552 -0.4037
16521SOL    HW151816   6.957   5.542   5.852  2.2614 -0.7362 -2.2429
16521SOL    HW251817   6.856   5.573   5.743  0.6345 -0.0501 -0.5930
16522SOL     OW51818   6.126  10.459   9.407  0.1846 -0.6213 -0.7792
16522SOL    HW151819   6.159  10.540   9.369 -0.8702 -0.8521 -2.2549
16522SOL    HW251820   6.118  10.478   9.501  1.0161  0.5962 -0.9376
16523SOL     OW51821   0.086  10.539   3.680  0.4081  0.3783  0.3478
16523SOL    HW151822   0.063  10.594   3.606  0.7055 -0.8025 -0.6525
16523SOL    HW251823   0.027  10.464   3.673  1.5942 -0.5732  0.3001
16524SOL     OW51824   7.063  10.152   5.682  0.5879 -0.1750  0.3152
16524SOL    HW151825   7.018  10.158   5.598  1.8938  1.0059 -0.3221
16524SOL    HW251826   7.035  10.067   5.717  1.3294 -1.5238 -2.0887
16525SOL     OW51827   6.099   0.762   0.558 -0.0734  0.0154  0.7716
16525SOL    HW151828   6.072   0.765   0.466  1.8622 -0.3639  0.1320
16525SOL    HW251829   6.186   0.803   0.558 -0.0201 -0.0412  2.4268
16526SOL     OW51830   6.239   9.689   7.189  0.0851  0.2705 -0.5270
16526SOL    HW151831   6.294   9.741   7.130  1.4739 -1.6876 -1.0413
16526SOL    HW251832   6.150   9.721   7.173  0.6928  1.3061 -2.0580
16527SOL     OW51833  10.029   9.568   7.210 -0.6564 -0.8503  0.1336
16527SOL    HW151834   9.933   9.571   7.200 -0.5809  0.8144 -0.3799
16527SOL    HW251835  10.043   9.504   7.280 -1.9038 -3.6882 -2.0171
16528SOL     OW51836   7.736   0.247   5.064  0.2268  0.5923  0.0975
16528SOL    HW151837   7.722   0.173   5.124 -0.8454  0.3366 -0.4417
16528SOL    HW251838   7.653   0.295   5.067  0.6128  1.2838 -0.2303
16529SOL     OW51839   4.756   3.194   4.425  0.1477 -0.2068 -0.0812
16529SOL    HW151840   4.743   3.271   4.481  0.6354 -1.0530  1.2673
16529SOL    HW251841   4.686   3.134   4.451  0.4646 -0.6691 -0.2873
16530SOL     OW51842   8.399   5.766   6.918  0.3367  0.1038  0.1395
16530SOL    HW151843   8.357   5.836   6.967  0.5757 -0.2644  0.8911
16530SOL    HW251844   8.475   5.807   6.877  1.0054  0.1001  1.3331
16531SOL     OW51845   7.962  10.158  10.499  0.7910  0.3992  0.5656
16531SOL    HW151846   8.025  10.193  10.436  0.9306  1.6091  1.3573
16531SOL    HW251847   7.992  10.191  10.584 -1.1695  1.4251  0.9105
16532SOL     OW51848   8.204   7.581   8.781  0.2727 -0.3367  0.0807
16532SOL    HW151849   8.135   7.519   8.807 -0.8218  0.8657  0.1312
16532SOL    HW251850   8.229   7.554   8.693  0.7872 -1.6674  0.6035
16533SOL     OW51851   9.410   3.167   9.221  0.1103  0.3872  0.2228
16533SOL    HW151852   9.492   3.140   9.180  0.3653  0.4373  0.6958
16533SOL    HW251853   9.358   3.204   9.149  0.8926  1.2752  0.0903
16534SOL     OW51854   5.945  10.133   0.010  0.5149 -0.7250 -0.1148
16534SOL    HW151855   5.994  10.104   0.087  2.1648  2.6887  0.3178
16534SOL    HW251856   5.988  10.089  -0.063  1.0037 -1.5983  0.6805
16535SOL     OW51857   3.638   8.762   7.984  0.8520  0.4897  0.7040
16535SOL    HW151858   3.565   8.820   7.961  0.6780 -0.0986 -0.2972
16535SOL    HW251859   3.678   8.739   7.901 -0.2420 -2.3143  0.8372
16536SOL     OW51860   1.986   3.947   0.479  0.1979  0.5173  0.3836
16536SOL    HW151861   1.970   4.016   0.415 -2.4342 -0.7266 -0.4751
16536SOL    HW251862   2.047   3.888   0.436 -1.8724 -0.5276 -1.2848
16537SOL     OW51863   5.109   8.588   9.030 -0.1183 -0.3020  0.3628
16537SOL    HW151864   5.033   8.572   8.974 -0.5456  0.9016  0.5724
16537SOL    HW251865   5.156   8.660   8.987  0.5644 -0.6173  0.5655
16538SOL     OW51866   2.900   9.651   0.424 -0.2888  0.0196  0.1802
16538SOL    HW151867   2.830   9.716   0.422 -0.8912 -0.6196 -0.2125
16538SOL    HW251868   2.862   9.578   0.473  0.0463 -0.3851 -0.1579
16539SOL     OW51869   3.410  10.570   3.767 -0.8343  0.2480 -0.0922
16539SOL    HW151870   3.332  10.516   3.780  0.2081 -1.0065  1.2041
16539SOL    HW251871   3.394  10.648   3.819 -2.0876  0.9920 -1.4925
16540SOL     OW51872  10.348   6.394   2.626 -0.4963 -0.0412  0.0802
16540SOL    HW151873  10.350   6.322   2.563 -1.6237  0.2812 -0.3331
16540SOL    HW251874  10.440   6.408   2.649 -0.2404 -1.4570 -0.0047
16541SOL     OW51875   2.842   8.960   3.780  0.4344 -0.0552 -0.8021
16541SOL    HW151876   2.754   8.985   3.753  0.3373  0.5605  0.0675
16541SOL    HW251877   2.829   8.898   3.851  0.7037 -0.2619 -0.9295
16542SOL     OW51878   6.966   8.254   2.112 -0.1444 -0.5476 -0.0667
16542SOL    HW151879   7.011   8.338   2.119  0.6618 -0.9524 -0.2780
16542SOL    HW251880   6.890   8.263   2.169 -0.1376  0.3691 -0.1858
16543SOL     OW51881   1.625   6.906   1.926 -0.4763 -0.5221  0.2747
16543SOL    HW151882   1.661   6.827   1.966  0.2597 -0.1745  0.3100
16543SOL    HW251883   1.593   6.958   1.999 -1.6648 -1.1098  0.2033
16544SOL     OW51884   9.521   3.434   7.257  0.0144 -0.4766 -0.0097
16544SOL    HW151885   9.558   3.463   7.173  1.5219 -0.8744  0.4977
16544SOL    HW251886   9.570   3.483   7.323 -1.0168 -0.3222  0.6583
16545SOL     OW51887   4.005  10.170  10.003  0.2034  0.1474  0.4323
16545SOL    HW151888   3.983  10.077   9.996  0.4636  0.0630  0.7127
16545SOL    HW251889   3.928  10.211  10.041 -0.0520  0.1095 -0.0284
16546SOL     OW51890   3.571   8.930   5.997 -0.5332  0.0823 -0.0662
16546SOL    HW151891   3.657   8.915   6.036 -1.4566  1.4404  2.7998
16546SOL    HW251892   3.532   8.843   5.989  0.2558 -0.3699  0.8093
16547SOL     OW51893   9.227   8.289   2.535 -0.2950  0.2198 -0.0031
16547SOL    HW151894   9.314   8.260   2.563 -1.5414 -4.4103 -0.1143
16547SOL    HW251895   9.170   8.267   2.608 -1.6991  1.3111 -0.7243
16548SOL     OW51896   4.243   5.130   8.081  0.2742  0.7619  0.1238
16548SOL    HW151897   4.249   5.213   8.129  0.2263  0.2923  0.9674
16548SOL    HW251898   4.330   5.120   8.041  0.9688  0.2842  1.6454
16549SOL     OW51899   8.728   9.627   9.311 -0.0121  0.0363 -0.2971
16549SOL    HW151900   8.778   9.706   9.289 -1.3471  1.0252  0.1000
16549SOL    HW251901   8.694   9.596   9.226 -1.1033  1.0424 -0.2578
16550SOL     OW51902   4.314   3.013   1.698  0.1812 -0.2403 -0.1729
16550SOL    HW151903   4.249   3.079   1.724  1.0968  1.3374 -1.6557
16550SOL    HW251904   4.319   2.954   1.772 -3.3954 -0.8259 -0.2082
16551SOL     OW51905   8.436   3.793   2.957 -0.0179  0.2639 -0.5510
16551SOL    HW151906   8.384   3.828   2.885 -0.9007 -0.0976 -0.1126
16551SOL    HW251907   8.410   3.846   3.033 -0.5549 -0.6121 -0.1082
16552SOL     OW51908   0.402   9.899   4.521  0.0917 -0.1905  0.2660
16552SOL    HW151909   0.441   9.865   4.440  0.0580  0.2215  0.0730
16552SOL    HW251910   0.394   9.993   4.506 -0.2322 -0.1585  0.6194
16553SOL     OW51911   0.844   5.171   5.883  0.4352  0.1953  0.6483
16553SOL    HW151912   0.931   5.141   5.910  1.0858  0.5404 -0.9910
16553SOL    HW251913   0.807   5.096   5.835  1.2324  1.1875 -1.6337
16554SOL     OW51914   0.488   6.421   0.837 -0.0527  0.2868  0.5550
16554SOL    HW151915   0.454   6.485   0.899  0.4754  0.5111  0.6085
16554SOL    HW251916   0.580   6.443   0.826  0.5223 -1.3517  1.6992
16555SOL     OW51917   6.513   4.812   5.481  0.3358  0.4373 -0.4566
16555SOL    HW151918   6.518   4.902   5.449 -0.1755  0.3047 -0.9120
16555SOL    HW251919   6.439   4.774   5.435 -0.1053  0.0903  0.5078
16556SOL     OW51920   1.098   1.499   0.402  0.2478  0.5454 -0.1236
16556SOL    HW151921   1.141   1.469   0.481  1.3220  1.1482 -0.4541
16556SOL    HW251922   1.053   1.580   0.427  1.0220  1.0199 -0.2326
16557SOL     OW51923   1.472   1.464   7.421  0.1812 -0.0613  0.2516
16557SOL    HW151924   1.390   1.444   7.377 -0.0307  0.3888  0.4387
16557SOL    HW251925   1.479   1.560   7.418  2.3007 -0.1435 -2.7270
16558SOL     OW51926   1.015   4.424   0.935  0.1728  0.1461 -0.2453
16558SOL    HW151927   1.100   4.386   0.912  0.2375 -0.0609  0.3116
16558SOL    HW251928   0.951   4.369   0.890  0.1674 -1.7284  1.8819
16559SOL     OW51929   9.020   3.847   1.901  0.0105 -0.5705  0.3310
16559SOL    HW151930   9.083   3.849   1.973 -0.4638 -2.3496  0.8551
16559SOL    HW251931   9.017   3.937   1.868  0.8189  0.1135  2.0319
16560SOL     OW51932  10.200   9.618   0.932  0.3872 -0.7969  0.0058
16560SOL    HW151933  10.266   9.552   0.952  1.1021  0.2616  1.3206
16560SOL    HW251934  10.241   9.701   0.959 -0.8082  0.0779 -0.7945
16561SOL     OW51935   5.757   6.315   4.108 -0.0987  0.0291  0.4586
16561SOL    HW151936   5.802   6.396   4.133  0.8962 -0.3877  0.0540
16561SOL    HW251937   5.813   6.276   4.041  0.1449 -1.7109  1.6328
16562SOL     OW51938   5.877   8.729   2.025  0.3308  0.3308 -0.5844
16562SOL    HW151939   5.969   8.719   2.002  0.3337 -0.8646 -0.0931
16562SOL    HW251940   5.856   8.651   2.075 -0.6379  1.1549  0.3403
16563SOL     OW51941   8.475   0.724   7.830  0.0998  0.1873 -0.1187
16563SOL    HW151942   8.485   0.810   7.789  0.4954 -0.0540 -0.5397
16563SOL    HW251943   8.381   0.714   7.843 -0.0122  0.3577 -0.7794
16564SOL     OW51944   5.678   8.967   7.361  0.7359  0.8662 -0.0209
16564SOL    HW151945   5.694   9.061   7.365  1.2054  0.9340 -2.2967
16564SOL    HW251946   5.622   8.956   7.285 -0.7189 -0.5657  1.1761
16565SOL     OW51947   4.521   4.206   1.290 -0.4340  0.1918  0.0103
16565SOL    HW151948   4.569   4.124   1.305  0.9924  0.9627 -0.2233
16565SOL    HW251949   4.462   4.186   1.217 -0.3085 -0.7060  0.1450
16566SOL     OW51950   1.162   9.310   2.272 -0.3046 -0.0291  0.1296
16566SOL    HW151951   1.095   9.298   2.339 -0.1424 -0.1049  0.2808
16566SOL    HW251952   1.125   9.272   2.193 -0.2827 -0.4281  0.3102
16567SOL     OW51953   0.973   4.047   9.817  0.2385 -0.2354  0.1628
16567SOL    HW151954   1.054   4.035   9.767  1.9820  0.2325  2.6630
16567SOL    HW251955   0.912   4.085   9.754  1.5280 -1.7256 -2.1497
16568SOL     OW51956   3.132   5.568   6.212 -0.5695  0.2886  0.1013
16568SOL    HW151957   3.207   5.510   6.224 -0.1064  1.4139  4.0296
16568SOL    HW251958   3.171   5.654   6.195 -0.8845  0.7847  1.6843
16569SOL     OW51959   8.382   3.661   0.796  0.1736  1.1415  0.0728
16569SOL    HW151960   8.462   3.628   0.755 -0.3846 -0.2871  0.0515
16569SOL    HW251961   8.407   3.743   0.837  1.5775  0.8597 -0.1809
16570SOL     OW51962   1.979   0.603  10.503 -0.1017 -0.0778  0.1051
16570SOL    HW151963   2.019   0.683  10.469  1.2487 -1.2084 -1.1173
16570SOL    HW251964   1.893   0.599  10.462 -0.8405  1.4640  1.3551
16571SOL     OW51965   4.935   8.431   7.670 -0.1817  0.7219 -0.5446
16571SOL    HW151966   4.884   8.502   7.709 -1.5435 -1.9885  3.1362
16571SOL    HW251967   5.026   8.460   7.678 -0.7155  2.2779  0.3021
16572SOL     OW51968   5.895   2.990   0.919 -0.7126  0.5197 -0.0778
16572SOL    HW151969   5.841   2.994   0.841 -0.9724 -1.3321 -0.0388
16572SOL    HW251970   5.833   2.977   0.991 -0.2998 -1.3205 -0.0014
16573SOL     OW51971   5.197  10.415   3.820  0.4025 -0.2337 -0.0984
16573SOL    HW151972   5.190  10.363   3.900  0.1018  1.8349  1.2992
16573SOL    HW251973   5.228  10.500   3.850  0.2302  0.6177 -2.1978
16574SOL     OW51974   2.960   2.259   9.540  0.5936  0.2394 -0.2367
16574SOL    HW151975   3.039   2.225   9.500  0.9540 -0.0200  0.6647
16574SOL    HW251976   2.972   2.354   9.539  0.5333  0.2432 -0.8554
16575SOL     OW51977   6.181   4.940   9.020 -0.2146  0.1064  0.2630
16575SOL    HW151978   6.185   4.930   8.925 -0.4864  1.5261  0.0791
16575SOL    HW251979   6.151   4.855   9.052 -0.6979 -0.2101 -0.9699
16576SOL     OW51980  10.516   7.827   6.359 -0.2274 -0.0379 -0.1012
16576SOL    HW151981  10.473   7.780   6.288 -0.9424  1.1202 -0.4621
16576SOL    HW251982  10.444   7.859   6.413  0.2859 -0.2342  0.7189
16577SOL     OW51983   8.191   3.616   5.028 -0.2484 -0.2615 -0.3035
16577SOL    HW151984   8.173   3.688   4.968 -0.6970 -0.5755 -0.5523
16577SOL    HW251985   8.162   3.646   5.113  0.4892  0.2307 -0.2182
16578SOL     OW51986   8.956   4.809   5.004  0.6557 -0.0417  0.3040
16578SOL    HW151987   9.041   4.768   5.020  0.9538 -0.5393 -2.0809
16578SOL    HW251988   8.977   4.893   4.965  0.0230  0.7304  1.5714
16579SOL     OW51989   3.812   6.157   7.605  0.8315 -0.1251  0.2550
16579SOL    HW151990   3.894   6.173   7.651 -0.3615  1.1397  2.1001
16579SOL    HW251991   3.758   6.233   7.624 -0.7064 -0.7906 -1.1189
16580SOL     OW51992   7.160   5.584   7.204  0.3261 -0.1850 -0.0561
16580SOL    HW151993   7.228   5.623   7.258 -0.5520  1.0358  0.2217
16580SOL    HW251994   7.205   5.558   7.123  1.8423 -2.8505  1.5240
16581SOL     OW51995   4.411   5.166   8.795 -0.1733 -0.1389 -0.7148
16581SOL    HW151996   4.321   5.137   8.809  0.2149 -0.7583  0.6920
16581SOL    HW251997   4.402   5.256   8.761 -1.3084 -0.2378 -0.7167
16582SOL     OW51998   3.875   1.582   7.813  0.0329 -0.1066  0.0176
16582SOL    HW151999   3.835   1.616   7.733  1.3343 -0.8993 -1.0048
16582SOL    HW252000   3.866   1.653   7.876 -1.3973  0.3819 -0.6880
16583SOL     OW52001   3.325   2.697   9.579  0.8219  0.4867  0.3641
16583SOL    HW152002   3.262   2.625   9.585  1.0379  0.1688 -0.8642
16583SOL    HW252003   3.285   2.769   9.628  0.6724 -0.5036  1.7549
16584SOL     OW52004   4.912   0.293   7.616  0.3247  0.5867  0.1434
16584SOL    HW152005   4.913   0.198   7.628 -1.3186  0.3643 -1.0769
16584SOL    HW252006   4.999   0.322   7.642  0.1119 -0.9295  2.8957
16585SOL     OW52007   5.969   2.448   7.770 -0.0532 -0.0350 -0.1799
16585SOL    HW152008   5.932   2.380   7.713 -1.5885  0.2102  0.4727
16585SOL    HW252009   6.001   2.515   7.710  1.5015 -1.3070 -0.8392
16586SOL     OW52010   7.312   0.945  10.577 -0.1955 -0.2440  0.2046
16586SOL    HW152011   7.351   1.001  10.644 -1.1678 -1.5480  1.9557
16586SOL    HW252012   7.343   0.981  10.494 -0.2376  2.4209  1.2596
16587SOL     OW52013   3.429   4.780   8.394 -0.0821 -0.4252 -0.3954
16587SOL    HW152014   3.481   4.706   8.361 -1.9622 -0.6638 -3.1433
16587SOL    HW252015   3.353   4.740   8.436  0.3637 -0.0388  0.8259
16588SOL     OW52016   1.044   5.162   8.516  0.2708  0.2199  0.0484
16588SOL    HW152017   0.990   5.123   8.585 -1.7149 -1.0500 -2.0607
16588SOL    HW252018   1.027   5.256   8.522 -3.3416 -0.1854 -1.2357
16589SOL     OW52019   0.861   8.967   4.531  0.1339  1.0579  0.6990
16589SOL    HW152020   0.919   8.974   4.607  0.4815 -2.4185  0.9189
16589SOL    HW252021   0.878   8.879   4.496 -4.3851  0.1416  0.2709
16590SOL     OW52022   4.738   0.039   0.526 -0.8593  0.1629  0.1924
16590SOL    HW152023   4.767  -0.052   0.536 -1.4578 -0.1588 -0.7915
16590SOL    HW252024   4.701   0.062   0.611  3.0147  0.9287  1.8717
16591SOL     OW52025   4.561   5.982   7.864  0.0122 -0.9684 -0.2818
16591SOL    HW152026   4.568   5.927   7.786 -2.5378 -1.6825 -0.0960
16591SOL    HW252027   4.538   5.921   7.934 -1.9561  0.1578  0.1208
16592SOL     OW52028   5.407   8.325   9.914 -0.5596 -0.3722  0.3098
16592SOL    HW152029   5.460   8.374   9.852  0.2188 -1.2908  0.2247
16592SOL    HW252030   5.357   8.264   9.860 -0.8242 -0.3176  0.4888
16593SOL     OW52031   1.984  10.185   5.310 -0.4005  0.0566  0.0862
16593SOL    HW152032   2.043  10.155   5.240 -0.2956 -1.3056  0.7293
16593SOL    HW252033   1.900  10.144   5.289 -0.8041  0.9378 -0.0973
16594SOL     OW52034   9.757   6.155   7.728  0.1890  0.3255  0.0373
16594SOL    HW152035   9.767   6.167   7.633 -0.1656  0.6354  0.0379
16594SOL    HW252036   9.675   6.198   7.749 -0.3716 -0.8129  0.2903
16595SOL     OW52037   0.361   9.048   9.373 -0.0582 -0.0972 -0.9180
16595SOL    HW152038   0.417   9.123   9.355  0.7622 -0.2639  0.6654
16595SOL    HW252039   0.307   9.038   9.295  2.2497 -0.0344 -2.6270
16596SOL     OW52040   9.511   5.265   9.130  0.0993  0.7375  0.0157
16596SOL    HW152041   9.437   5.223   9.085  0.2956 -0.4689  0.7858
16596SOL    HW252042   9.482   5.274   9.220  1.0906 -0.2939  0.4603
16597SOL     OW52043   6.320   3.278   3.760 -0.3132 -0.1025 -0.2923
16597SOL    HW152044   6.379   3.280   3.836  0.2988 -0.5888 -0.7422
16597SOL    HW252045   6.321   3.368   3.727  0.6572 -0.2163 -0.6336
16598SOL     OW52046   5.889   1.414   5.642 -0.2060  0.1194  0.0225
16598SOL    HW152047   5.911   1.331   5.686  0.2095  0.7696  1.0817
16598SOL    HW252048   5.972   1.462   5.641 -0.2251  0.1805 -1.4111
16599SOL     OW52049   9.986   7.237   7.982  0.0766 -0.6232  0.7351
16599SOL    HW152050  10.065   7.212   8.030 -0.4652 -0.7935  1.5530
16599SOL    HW252051   9.979   7.332   7.994  1.2492 -0.2593 -1.0338
16600SOL     OW52052   2.092  10.243   1.372 -0.2345  0.2719  0.2291
16600SOL    HW152053   2.103  10.338   1.376  0.9359  0.1208  1.2080
16600SOL    HW252054   2.083  10.223   1.279 -0.6051  1.3439  0.0248
16601SOL     OW52055   2.560  10.178   4.780 -0.6055 -0.0699 -0.1002
16601SOL    HW152056   2.640  10.179   4.833 -1.3596 -0.1644  1.0695
16601SOL    HW252057   2.491  10.210   4.838 -1.6900 -1.3419 -0.6217
16602SOL     OW52058   8.971   8.415   6.936  0.3312 -0.0927 -0.3268
16602SOL    HW152059   8.920   8.491   6.909 -1.1286 -0.7550  0.4587
16602SOL    HW252060   9.062   8.446   6.937  0.2705  0.5385 -3.8353
16603SOL     OW52061   5.717   8.707   9.997 -0.3445 -0.3570 -0.0647
16603SOL    HW152062   5.656   8.676  10.064 -0.9358  0.5294 -0.1765
16603SOL    HW252063   5.748   8.627   9.954 -2.5824 -0.7917 -1.0238
16604SOL     OW52064   4.318   5.959   4.561  0.4510  0.2060  0.2379
16604SOL    HW152065   4.295   5.873   4.526  0.4783  0.2053  0.2218
16604SOL    HW252066   4.377   5.940   4.634  2.1090  0.2776 -1.0203
16605SOL     OW52067   1.093   9.258   9.467 -0.9451 -0.1845 -0.0391
16605SOL    HW152068   1.011   9.300   9.494 -0.6839 -0.6067  1.5269
16605SOL    HW252069   1.085   9.168   9.499 -0.2698 -0.5027 -0.7410
16606SOL     OW52070   2.183   8.487   1.438 -0.3014 -0.0807  0.1094
16606SOL    HW152071   2.242   8.536   1.382  0.4986  0.3300  1.2756
16606SOL    HW252072   2.238   8.421   1.480 -0.5111  0.6690  1.6466
16607SOL     OW52073   1.101   0.182   6.073 -0.4191 -0.2988  0.5657
16607SOL    HW152074   1.190   0.211   6.052 -0.6165 -0.6169 -0.7790
16607SOL    HW252075   1.068   0.144   5.992 -1.5960 -0.6844  1.2011
16608SOL     OW52076   5.099   4.386   2.743 -0.0395 -0.2526 -0.6496
16608SOL    HW152077   5.079   4.438   2.821  1.0245 -0.3130 -0.3285
16608SOL    HW252078   5.172   4.331   2.769  0.7994  0.2311 -1.9118
16609SOL     OW52079   5.833   4.582   0.241 -0.3925 -0.0046  0.3978
16609SOL    HW152080   5.835   4.629   0.158  0.3776 -0.1418  0.3352
16609SOL    HW252081   5.913   4.530   0.242 -0.4679 -0.1201  1.1591
16610SOL     OW52082   9.604   0.362   3.121 -0.1539 -0.2373 -0.1293
16610SOL    HW152083   9.664   0.339   3.191 -0.6749  1.0419  0.7897
16610SOL    HW252084   9.585   0.455   3.135  1.9785  0.9436 -3.6707
16611SOL     OW52085   3.614   6.969   9.214  0.3348 -0.4517  0.0253
16611SOL    HW152086   3.612   6.892   9.157  0.4924 -1.0634  0.8265
16611SOL    HW252087   3.557   7.033   9.171  2.8799  0.3271 -2.5026
16612SOL     OW52088  10.654  10.193   6.279 -0.2945 -0.8559 -0.3990
16612SOL    HW152089  10.743  10.207   6.247  0.2876  1.6539  1.9702
16612SOL    HW252090  10.603  10.264   6.241 -0.5287 -0.3733  0.7702
16613SOL     OW52091   2.407   3.409   1.195  0.1727  0.0115 -0.6186
16613SOL    HW152092   2.315   3.399   1.220  0.5564 -3.1502 -0.0654
16613SOL    HW252093   2.444   3.462   1.266 -1.1769  1.3988 -0.8855
16614SOL     OW52094   5.336   0.294   5.085  0.2238  0.3376 -0.6159
16614SOL    HW152095   5.341   0.305   4.990 -0.2540 -1.3525 -0.8743
16614SOL    HW252096   5.417   0.332   5.117  1.8357 -1.7034 -2.0127
16615SOL     OW52097   9.325   4.390   3.527 -0.3916 -0.0155  0.2526
16615SOL    HW152098   9.245   4.425   3.488 -1.4685 -1.0657  1.4061
16615SOL    HW252099   9.353   4.457   3.588 -0.4836  0.2880 -0.0368
16616SOL     OW52100   4.815   0.487   2.484  0.4404  0.0141  0.3691
16616SOL    HW152101   4.865   0.534   2.418 -1.4206  0.4713 -0.7981
16616SOL    HW252102   4.730   0.531   2.485 -0.0828 -0.9424  1.9996
16617SOL     OW52103   3.159  10.153   3.239 -0.4633 -0.1607 -0.3786
16617SOL    HW152104   3.074  10.157   3.196 -0.5905 -2.0475 -0.4092
16617SOL    HW252105   3.209  10.225   3.202 -2.1604  1.2491 -0.0541
16618SOL     OW52106   9.532   6.277   8.871  0.1195 -0.3141 -0.3968
16618SOL    HW152107   9.571   6.203   8.825  0.7606 -0.2493  0.0267
16618SOL    HW252108   9.607   6.322   8.911 -0.3625  0.0112  0.1460
16619SOL     OW52109   0.299   9.886   9.872 -0.4465 -0.3444 -0.4748
16619SOL    HW152110   0.253   9.963   9.904 -2.3483 -1.1451 -1.1683
16619SOL    HW252111   0.391   9.913   9.867 -0.7956  1.2682  1.0567
16620SOL     OW52112   1.899  10.440   7.424 -0.1215 -0.0523  0.3010
16620SOL    HW152113   1.875  10.483   7.342  2.8360  1.1835 -0.0412
16620SOL    HW252114   1.943  10.359   7.396  0.7186  0.2774  0.6533
16621SOL     OW52115  10.344   5.857   5.357 -0.2201  0.5897 -0.6165
16621SOL    HW152116  10.402   5.782   5.372 -1.4600 -0.6422 -1.6741
16621SOL    HW252117  10.391   5.911   5.293  0.1789  0.1086 -0.7375
16622SOL     OW52118   0.605   7.489   1.602 -0.4567 -0.3703  0.8752
16622SOL    HW152119   0.580   7.566   1.652  1.3273  1.1229 -0.4173
16622SOL    HW252120   0.599   7.417   1.665 -0.8867  1.0093  2.4889
16623SOL     OW52121   7.871   9.914   5.323  0.1471  0.0180  0.0959
16623SOL    HW152122   7.804   9.943   5.385  0.8125  2.7478 -0.3109
16623SOL    HW252123   7.923   9.993   5.306  3.5421 -1.9620  0.4468
16624SOL     OW52124   1.607   2.981   3.394  0.0256  0.2797 -0.3209
16624SOL    HW152125   1.604   2.898   3.443 -1.2115  2.1454  3.0881
16624SOL    HW252126   1.693   3.017   3.416  0.0878  0.4402 -0.8330
16625SOL     OW52127   5.499   9.431   3.081 -0.1599  0.4754  0.4396
16625SOL    HW152128   5.484   9.399   2.992  2.2731  2.2560 -0.7235
16625SOL    HW252129   5.560   9.367   3.119  1.6203  1.5050 -0.5185
16626SOL     OW52130   8.740   9.083   0.344 -0.1703  0.6597 -0.9138
16626SOL    HW152131   8.706   9.118   0.427 -0.3190  0.5524 -0.9287
16626SOL    HW252132   8.807   9.146   0.317  1.1366 -0.2085  0.1767
16627SOL     OW52133   9.143  10.006   6.513  0.4375  0.0293 -0.5926
16627SOL    HW152134   9.100   9.928   6.477  2.6782 -1.4656 -0.1658
16627SOL    HW252135   9.078  10.043   6.573 -0.5178 -1.7541 -0.4563
16628SOL     OW52136  10.575   5.547   0.187  0.4881 -0.0542  0.4563
16628SOL    HW152137  10.617   5.483   0.130 -0.0843  1.4532 -1.7480
16628SOL    HW252138  10.502   5.499   0.227  0.7306 -1.0659 -0.2799
16629SOL     OW52139   3.425   5.531   8.492 -0.2453  0.5544 -0.1202
16629SOL    HW152140   3.505   5.478   8.489 -1.2271 -1.0646  0.8381
16629SOL    HW252141   3.436   5.587   8.568 -0.4267 -0.4046  0.6351
16630SOL     OW52142   4.030  10.043   0.999  0.3601 -0.7951  0.1283
16630SOL    HW152143   4.080  10.124   0.996 -0.8818  0.0918  1.6307
16630SOL    HW252144   3.942  10.067   0.969 -0.1469 -1.4538  1.0095
16631SOL     OW52145   9.306   1.928   5.167  0.5857  0.4313 -0.2597
16631SOL    HW152146   9.236   1.872   5.134  1.2088 -1.0792  0.8452
16631SOL    HW252147   9.283   2.016   5.137 -0.0404 -0.4821 -2.7147
16632SOL     OW52148   4.136   2.903   4.168 -0.1123  0.2229  0.1575
16632SOL    HW152149   4.201   2.888   4.100  0.6704  1.1476  0.6836
16632SOL    HW252150   4.073   2.831   4.157  2.9696 -3.0497  2.1067
16633SOL     OW52151   1.200   1.762   0.764  0.9833 -0.2987 -0.2527
16633SOL    HW152152   1.251   1.702   0.819  1.9472  0.5059 -0.2499
16633SOL    HW252153   1.242   1.847   0.775 -0.5175  0.4592 -0.0563
16634SOL     OW52154   5.734   3.898   8.652  0.0466  0.4358 -0.1226
16634SOL    HW152155   5.715   3.838   8.580  2.0129  1.0273 -1.2293
16634SOL    HW252156   5.710   3.849   8.731  0.0452 -1.1719 -1.0659
16635SOL     OW52157   5.985   4.993   8.654  0.6832 -0.2771  0.2890
16635SOL    HW152158   5.980   4.898   8.663 -0.3497 -0.0064  4.2851
16635SOL    HW252159   6.053   5.019   8.716  0.4212  1.6615 -0.1759
16636SOL     OW52160   2.830   2.040   9.409  0.0937  0.0647 -0.3178
16636SOL    HW152161   2.871   2.107   9.465  0.5577 -0.3961 -0.1009
16636SOL    HW252162   2.902   2.003   9.359 -0.3085  0.4245 -1.1930
16637SOL     OW52163   2.447   0.767   0.926 -0.6942  0.3378 -0.5979
16637SOL    HW152164   2.425   0.756   1.019  1.1100  1.0593 -0.0500
16637SOL    HW252165   2.406   0.850   0.901 -2.5860 -0.6423 -0.9470
16638SOL     OW52166   3.444  10.122   6.876  0.0913 -0.2167  0.1746
16638SOL    HW152167   3.437  10.206   6.830  1.5821  0.4175  1.0520
16638SOL    HW252168   3.514  10.076   6.830 -0.5332 -0.9043 -0.1267
16639SOL     OW52169   9.056   6.485   2.404 -0.4361 -0.4080  0.3255
16639SOL    HW152170   9.089   6.397   2.423  0.3570 -0.0439  0.6799
16639SOL    HW252171   9.024   6.480   2.314 -1.1826 -1.2869  0.6278
16640SOL     OW52172   3.896   6.532   4.767  0.1681 -0.4923  0.1500
16640SOL    HW152173   3.937   6.552   4.851  1.3163 -0.7524 -0.3287
16640SOL    HW252174   3.916   6.439   4.753 -0.2295 -0.5108 -0.2915
16641SOL     OW52175   9.902  10.424   0.446  0.5789  0.3670  0.0500
16641SOL    HW152176   9.834  10.491   0.454 -0.0711 -0.1689 -0.7670
16641SOL    HW252177   9.903  10.380   0.531 -1.5013 -0.8973 -0.5134
16642SOL     OW52178   3.138   9.345   2.217  0.7163  0.4612 -0.0167
16642SOL    HW152179   3.152   9.260   2.258 -0.7533 -0.5567 -1.4925
16642SOL    HW252180   3.113   9.403   2.289 -0.9967 -1.0499  0.6738
16643SOL     OW52181   6.721   0.192   5.490  0.6966  0.0623 -0.2210
16643SOL    HW152182   6.705   0.107   5.529  0.7685  0.5845  1.0011
16643SOL    HW252183   6.800   0.180   5.437  0.0619 -0.8941 -0.9774
16644SOL     OW52184   1.731   0.438   0.722 -0.1339 -0.3283  0.0374
16644SOL    HW152185   1.702   0.346   0.724 -0.0651 -0.4072  3.1245
16644SOL    HW252186   1.821   0.435   0.755 -0.3980  0.8985  0.9160
16645SOL     OW52187   6.114   9.255   5.266  0.1401  0.1115 -0.0194
16645SOL    HW152188   6.127   9.345   5.237 -1.0227 -0.1100 -1.3287
16645SOL    HW252189   6.144   9.202   5.191  1.7040 -0.6453  1.0857
16646SOL     OW52190   7.232   4.280   5.964  0.1986 -0.1051 -0.8195
16646SOL    HW152191   7.239   4.370   5.995 -3.1022  0.0810 -0.1673
16646SOL    HW252192   7.230   4.287   5.869 -1.0608  0.6737 -0.7579
16647SOL     OW52193   6.927   4.253   1.348  0.2752 -0.2708 -0.9193
16647SOL    HW152194   6.952   4.171   1.305  0.9017 -0.2312 -0.6497
16647SOL    HW252195   7.009   4.303   1.354  0.2654 -0.4030  0.5882
16648SOL     OW52196   0.059   0.354   6.159  0.3018  0.3575 -0.5212
16648SOL    HW152197   0.146   0.318   6.144  0.0005 -0.4588 -0.3376
16648SOL    HW252198   0.035   0.394   6.075  1.1626  1.2827 -0.3500
16649SOL     OW52199   1.156   8.622   3.902  0.3594  0.4233 -0.3785
16649SOL    HW152200   1.158   8.717   3.894  2.1123  0.3285 -1.6252
16649SOL    HW252201   1.184   8.590   3.816  1.6708 -1.1823  0.5880
16650SOL     OW52202   3.721   9.729  10.579  0.3904 -0.0900  0.2396
16650SOL    HW152203   3.761   9.674  10.646 -0.5087  0.6665  1.4529
16650SOL    HW252204   3.772   9.810  10.580  0.4396 -0.1199 -0.0487
16651SOL     OW52205   4.276   2.837   4.829 -0.5491  0.7215 -0.4573
16651SOL    HW152206   4.265   2.742   4.836  0.1720  0.6536 -0.1083
16651SOL    HW252207   4.326   2.849   4.748 -0.0194  0.7442 -0.1322
16652SOL     OW52208   7.677   3.957   4.639 -0.4555 -0.2616  0.5952
16652SOL    HW152209   7.689   3.985   4.549 -0.3434  2.1560  1.3103
16652SOL    HW252210   7.675   3.861   4.634  1.0143 -0.2420 -1.7735
16653SOL     OW52211   3.275   2.673   0.167  0.6699  0.4601 -0.7862
16653SOL    HW152212   3.348   2.613   0.178  0.2544 -0.0420 -0.7271
16653SOL    HW252213   3.201   2.617   0.144 -0.1284  0.7528  0.9348
16654SOL     OW52214   7.589   1.646   1.707 -0.4591 -0.2246  0.0886
16654SOL    HW152215   7.616   1.732   1.674 -0.7489 -0.2282 -0.1593
16654SOL    HW252216   7.507   1.662   1.753 -1.4070 -0.6254 -1.3899
16655SOL     OW52217   2.766   5.748   8.107  0.1390 -0.0656 -0.4512
16655SOL    HW152218   2.841   5.807   8.104 -0.3816  0.5863 -0.7880
16655SOL    HW252219   2.758   5.713   8.018 -0.5434  0.6214 -0.6706
16656SOL     OW52220   3.290   1.647   6.659 -0.1616 -0.1104 -0.2434
16656SOL    HW152221   3.203   1.618   6.686  0.4165 -0.9671  0.7947
16656SOL    HW252222   3.292   1.740   6.683 -0.2271 -0.4794  1.3652
16657SOL     OW52223   7.643   5.354   6.849 -0.6728 -0.3677 -0.5222
16657SOL    HW152224   7.615   5.377   6.760 -0.4663 -1.7315 -0.9654
16657SOL    HW252225   7.654   5.259   6.847 -0.3264 -0.3833  0.8769
16658SOL     OW52226   6.178   4.683   3.332 -0.3462  0.3581  0.7067
16658SOL    HW152227   6.198   4.749   3.398  2.0103  0.9431 -0.4576
16658SOL    HW252228   6.209   4.721   3.250  0.4998 -1.9160 -0.1141
16659SOL     OW52229   8.360   7.396   3.100  0.0084  0.1578 -0.0439
16659SOL    HW152230   8.297   7.352   3.042  0.3551 -1.1624  0.5367
16659SOL    HW252231   8.306   7.458   3.150 -0.9226 -1.1071  0.6067
16660SOL     OW52232   5.309   1.850   3.693  0.2587  0.2205 -0.2400
16660SOL    HW152233   5.263   1.801   3.762  1.9916 -0.5702  0.4066
16660SOL    HW252234   5.323   1.937   3.731 -1.0685  0.6325 -0.6299
16661SOL     OW52235   7.073   0.120   1.864  0.2613 -0.1495 -0.2111
16661SOL    HW152236   7.041   0.070   1.939  1.4015 -0.1014  0.3098
16661SOL    HW252237   7.161   0.086   1.847  0.1943  0.1486 -1.2496
16662SOL     OW52238   8.769   7.002   8.644  0.0629 -0.6502  0.0162
16662SOL    HW152239   8.771   7.083   8.593 -0.2356 -0.8983 -0.3942
16662SOL    HW252240   8.766   6.932   8.578 -0.3139 -0.9739  0.3699
16663SOL     OW52241   3.168   1.886   1.998 -0.4042 -0.3417 -0.0139
16663SOL    HW152242   3.128   1.921   1.918  2.2604  1.2331 -0.7905
16663SOL    HW252243   3.183   1.962   2.053  1.0391 -0.8844  0.4048
16664SOL     OW52244   0.816   6.780   2.335 -0.6951  0.5289 -0.0120
16664SOL    HW152245   0.760   6.736   2.270  0.0324  0.2323 -0.4483
16664SOL    HW252246   0.754   6.812   2.401 -1.4330  0.6670 -0.7421
16665SOL     OW52247   9.455   2.994   6.199  0.1322 -0.2312 -0.6242
16665SOL    HW152248   9.477   2.976   6.108  1.0734  1.5663 -0.7986
16665SOL    HW252249   9.522   2.948   6.250 -0.2117 -0.9825 -0.8400
16666SOL     OW52250   8.198  10.130   4.347 -0.1299 -0.1440 -0.4443
16666SOL    HW152251   8.163  10.044   4.322 -0.9253  0.2727 -0.7872
16666SOL    HW252252   8.216  10.121   4.441 -0.0507 -0.7307 -0.5067
16667SOL     OW52253   2.785   2.021   0.496 -0.0584  0.1027 -0.1914
16667SOL    HW152254   2.846   1.974   0.440  0.2403 -0.8347  0.8864
16667SOL    HW252255   2.770   1.963   0.570  0.2668  1.6421  1.1658
16668SOL     OW52256   4.746   1.589  10.391  1.0362  0.2102 -0.0378
16668SOL    HW152257   4.824   1.635  10.358  0.8133  1.7164  1.4246
16668SOL    HW252258   4.732   1.518  10.328  2.1988  1.3291 -1.6427
16669SOL     OW52259   0.045   1.072   4.395  0.0157 -0.2425  0.4130
16669SOL    HW152260   0.130   1.114   4.406  1.0120 -2.0330  0.0038
16669SOL    HW252261   0.029   1.074   4.301 -0.2379 -0.2002  0.4569
16670SOL     OW52262   5.947   0.467   5.256  0.2327 -0.1915 -0.4121
16670SOL    HW152263   5.884   0.535   5.231 -0.8190 -1.0834 -0.3134
16670SOL    HW252264   6.024   0.514   5.287 -0.2327  0.9378 -0.9345
16671SOL     OW52265   9.801   5.273   2.739  0.2558 -0.6027  0.9507
16671SOL    HW152266   9.739   5.310   2.803 -0.9572  1.1499 -1.1041
16671SOL    HW252267   9.841   5.350   2.698  1.3390 -1.6865 -0.0868
16672SOL     OW52268   1.953   2.331   4.276  0.1709  0.1351  0.1846
16672SOL    HW152269   1.953   2.238   4.298 -0.6808  0.3540  1.1822
16672SOL    HW252270   1.862   2.349   4.252  0.1200  0.9116  0.9219
16673SOL     OW52271   2.123   0.553   6.560 -0.2782  0.2686 -0.3359
16673SOL    HW152272   2.164   0.635   6.534  0.8999 -0.1613  0.1152
16673SOL    HW252273   2.094   0.567   6.649  0.5965 -0.0310  0.0076
16674SOL     OW52274  10.466   6.800   6.774  0.4486 -0.1119  0.1171
16674SOL    HW152275  10.485   6.892   6.791  3.6661  0.1030 -3.4075
16674SOL    HW252276  10.423   6.799   6.688 -0.9687 -1.8483  0.7784
16675SOL     OW52277   0.256   4.033   6.072  0.0201  0.1543 -0.6974
16675SOL    HW152278   0.263   3.978   6.150  0.0677  0.0915 -0.7466
16675SOL    HW252279   0.207   4.110   6.102 -0.0408  0.0886 -0.6279
16676SOL     OW52280   3.393   0.254  10.244  0.7206 -0.0472  0.3596
16676SOL    HW152281   3.414   0.230  10.335  0.3115  1.5328  0.9033
16676SOL    HW252282   3.303   0.285  10.247  0.6386 -0.1591 -0.6333
16677SOL     OW52283   8.351   9.632   6.519  0.6691  0.8105 -0.4723
16677SOL    HW152284   8.357   9.655   6.611  1.2460  0.0266 -0.3027
16677SOL    HW252285   8.258   9.617   6.503  0.3428  2.5108 -0.4323
16678SOL     OW52286   4.742   1.022   4.970  0.6149 -0.3118 -0.4943
16678SOL    HW152287   4.801   0.993   4.901 -0.3077 -1.0811 -0.9876
16678SOL    HW252288   4.654   1.011   4.933  0.1039 -0.5700  0.7351
16679SOL     OW52289   5.822   8.367   7.047  0.0567 -0.1856  0.0576
16679SOL    HW152290   5.841   8.277   7.020 -0.8217 -0.2709 -0.3267
16679SOL    HW252291   5.783   8.358   7.134 -2.0361 -0.3993 -0.8434
16680SOL     OW52292   5.475   5.800   6.896  0.3157  0.1584  0.2605
16680SOL    HW152293   5.437   5.882   6.866 -1.3208 -0.5808  0.1951
16680SOL    HW252294   5.522   5.823   6.976 -1.3246  0.9457  1.0419
16681SOL     OW52295   9.325   0.787   2.256 -0.8445  0.4766 -0.2967
16681SOL    HW152296   9.298   0.696   2.243 -0.2458  0.4977 -1.9108
16681SOL    HW252297   9.288   0.834   2.181 -0.4918  1.4229  0.1065
16682SOL     OW52298   1.918   2.394  10.103  0.1541  0.7619 -0.5677
16682SOL    HW152299   1.939   2.442  10.023 -0.7943  0.8503 -0.7840
16682SOL    HW252300   1.973   2.434  10.171  0.0186  1.5776 -0.9215
16683SOL     OW52301   4.740   4.863   8.990  0.2829  0.2995  0.1573
16683SOL    HW152302   4.745   4.768   9.001  0.4123  0.1843 -0.8068
16683SOL    HW252303   4.714   4.875   8.898  0.9368  1.1973  0.0792
16684SOL     OW52304   1.426   2.750   6.474 -0.1994 -0.4920 -0.5371
16684SOL    HW152305   1.394   2.722   6.388 -0.7001 -1.3149 -0.0975
16684SOL    HW252306   1.467   2.672   6.511 -2.0200 -0.8437  0.9089
16685SOL     OW52307   2.642   1.873   5.658  0.5969 -0.2650  0.0734
16685SOL    HW152308   2.642   1.832   5.572  1.1905 -0.8028  0.3274
16685SOL    HW252309   2.610   1.962   5.642 -0.6826 -0.8002 -0.4825
16686SOL     OW52310   6.716   6.485   3.499  0.1037 -0.0846  0.2415
16686SOL    HW152311   6.683   6.418   3.559  0.3146 -1.8973 -1.5902
16686SOL    HW252312   6.704   6.448   3.412 -0.7828  2.7264 -0.9323
16687SOL     OW52313   0.254   9.811   9.201 -0.3037  0.5114  0.4274
16687SOL    HW152314   0.232   9.820   9.294 -2.6731 -1.3646  0.1331
16687SOL    HW252315   0.277   9.718   9.191 -3.4420 -0.2067 -1.3871
16688SOL     OW52316   9.460   4.825   7.424  0.3662 -0.4839  0.3572
16688SOL    HW152317   9.542   4.831   7.376  0.5217 -0.7339  0.5922
16688SOL    HW252318   9.421   4.912   7.415 -1.3328 -1.4304 -3.2130
16689SOL     OW52319   5.545  10.432   7.024 -0.2524  0.0943 -0.3699
16689SOL    HW152320   5.503  10.505   7.070  1.1053  0.4008  0.4252
16689SOL    HW252321   5.520  10.444   6.932 -1.9281  0.2186  0.0621
16690SOL     OW52322   3.279  10.264   1.422 -0.5633 -0.0346  0.4954
16690SOL    HW152323   3.260  10.190   1.479 -0.8858  1.5569  2.5782
16690SOL    HW252324   3.367  10.246   1.387 -0.9976 -1.7811  0.2203
16691SOL     OW52325   0.773   4.348   9.241  0.1757  0.3250 -0.1217
16691SOL    HW152326   0.852   4.294   9.238 -0.6402 -0.8858 -0.6408
16691SOL    HW252327   0.736   4.332   9.328  0.4322  0.7931  0.0751
16692SOL     OW52328   1.168   8.219  10.653  0.0572  0.7037 -0.1625
16692SOL    HW152329   1.133   8.246  10.738 -1.8540 -0.1537 -0.6287
16692SOL    HW252330   1.261   8.239  10.658  0.0168  0.5369  2.1811
16693SOL     OW52331   1.802   6.844   5.693  0.0825 -0.1811 -0.4431
16693SOL    HW152332   1.791   6.777   5.760 -0.9812  0.4762  0.0729
16693SOL    HW252333   1.798   6.796   5.610  0.9608 -0.9415 -0.0627
16694SOL     OW52334   9.234   8.349   0.171 -0.4995 -0.4699 -0.3605
16694SOL    HW152335   9.215   8.365   0.264  1.6059  0.1596  0.0237
16694SOL    HW252336   9.221   8.255   0.159  0.7196 -0.8592  1.0168
16695SOL     OW52337  10.012   0.608   7.616  0.2243  0.6582  0.4657
16695SOL    HW152338   9.990   0.699   7.595 -0.0954  1.0460  2.3066
16695SOL    HW252339   9.929   0.570   7.645  0.5114 -0.0035  0.4196
16696SOL     OW52340   4.042   9.390   1.223  0.1438  0.3787 -0.0778
16696SOL    HW152341   4.122   9.440   1.203  0.7936 -0.1954  0.9791
16696SOL    HW252342   4.070   9.299   1.222 -1.3019 -0.1513 -3.2335
16697SOL     OW52343   4.013   4.551   2.226  0.0700 -0.2066  0.2695
16697SOL    HW152344   4.103   4.520   2.214 -0.6590 -2.1738 -0.5960
16697SOL    HW252345   4.003   4.561   2.321  1.6036  1.5118  0.3085
16698SOL     OW52346   8.169   5.765   5.685 -0.2066  0.1977 -0.2358
16698SOL    HW152347   8.200   5.812   5.608 -0.0746  0.0357 -0.2819
16698SOL    HW252348   8.092   5.814   5.713 -0.2682  0.2474 -0.4837
16699SOL     OW52349   1.738   5.897   6.957  0.0601  0.2200  0.0801
16699SOL    HW152350   1.814   5.908   7.014  0.8220 -0.6787 -0.7249
16699SOL    HW252351   1.774   5.868   6.874 -1.1601 -0.1034 -0.3667
16700SOL     OW52352   4.502  10.487   0.431  0.3287  0.2822 -0.1716
16700SOL    HW152353   4.516  10.577   0.401  0.9029 -0.0034 -0.7915
16700SOL    HW252354   4.558  10.480   0.509 -0.7627  0.8644  0.6936
16701SOL     OW52355   7.940   3.635   5.864 -0.4278 -0.4710 -0.0925
16701SOL    HW152356   7.963   3.543   5.855 -0.0732 -0.4706  0.7382
16701SOL    HW252357   8.003   3.681   5.809 -0.8270 -0.7486 -0.7843
16702SOL     OW52358   6.029   5.110   6.462 -0.0408 -0.8404  0.7272
16702SOL    HW152359   6.018   5.168   6.386  1.4295 -0.7661  0.5550
16702SOL    HW252360   5.997   5.025   6.432  0.7006 -0.8561 -0.0456
16703SOL     OW52361   7.487   0.898   1.490  0.5871 -0.1266  0.0414
16703SOL    HW152362   7.526   0.930   1.409  0.2129  0.0198 -0.0801
16703SOL    HW252363   7.484   0.803   1.479  1.4609 -0.1962  0.2986
16704SOL     OW52364   7.505   4.184   8.706 -0.0456 -0.0980  0.5970
16704SOL    HW152365   7.431   4.152   8.758 -0.0758  0.6651  1.0289
16704SOL    HW252366   7.560   4.231   8.768  0.3653  0.0771  0.1065
16705SOL     OW52367   4.598   2.182   6.788  0.2725  0.5826  0.5885
16705SOL    HW152368   4.511   2.146   6.806  0.9177 -1.0096  0.6911
16705SOL    HW252369   4.581   2.261   6.736 -1.2011  0.0357  0.1887
16706SOL     OW52370   2.758   0.777   2.756 -0.1855  0.3366 -0.2749
16706SOL    HW152371   2.739   0.704   2.698 -0.5065  0.2973 -0.1231
16706SOL    HW252372   2.786   0.848   2.698 -0.4416  0.2766 -0.4704
16707SOL     OW52373   9.880   8.184   1.246 -0.1684  0.0910  0.0324
16707SOL    HW152374   9.854   8.158   1.158 -2.4569  2.2921 -0.0205
16707SOL    HW252375   9.973   8.206   1.237 -0.1866 -0.3451 -1.6590
16708SOL     OW52376   8.607   8.865   6.280  0.4536  0.2641  0.7309
16708SOL    HW152377   8.629   8.938   6.338  2.7637 -1.1664  1.8380
16708SOL    HW252378   8.678   8.862   6.216 -0.8085  0.3334 -0.7325
16709SOL     OW52379   4.970   2.522  10.001  0.0265  0.3920 -0.0493
16709SOL    HW152380   5.048   2.577   9.995  1.4620 -1.6661 -1.7189
16709SOL    HW252381   4.913   2.553   9.931  1.0929 -0.5573 -1.3822
16710SOL     OW52382  10.069   4.875   4.375  0.2652 -0.3126  0.4216
16710SOL    HW152383  10.066   4.790   4.420 -1.2762 -0.6717 -0.2936
16710SOL    HW252384   9.983   4.884   4.335  0.7412  1.1571 -0.3486
16711SOL     OW52385  10.646   4.868   8.734 -0.2095 -0.6744 -0.6601
16711SOL    HW152386  10.651   4.933   8.805  1.0935 -1.0627 -0.3587
16711SOL    HW252387  10.620   4.919   8.657 -0.6316 -0.0572 -0.1279
16712SOL     OW52388   3.039   7.122   2.168  0.1515  0.1085 -0.4239
16712SOL    HW152389   3.126   7.121   2.127 -0.1906  1.6114 -1.2506
16712SOL    HW252390   3.056   7.150   2.258  0.4403  1.5340 -0.8967
16713SOL     OW52391   0.305  10.406   6.737  0.2491 -0.7888  0.1546
16713SOL    HW152392   0.304  10.426   6.643  1.0119 -0.3983  0.2274
16713SOL    HW252393   0.212  10.400   6.761  0.0417 -0.1765 -0.4684
16714SOL     OW52394   6.889   4.237   7.943 -0.6271 -0.0058  0.2458
16714SOL    HW152395   6.892   4.162   8.002 -0.2348 -0.1358  0.0644
16714SOL    HW252396   6.975   4.277   7.950 -0.4703 -0.2000 -0.4626
16715SOL     OW52397   2.175   2.956   1.466  0.1694  0.6922 -0.0520
16715SOL    HW152398   2.196   2.903   1.543 -0.9716 -1.0136 -0.8400
16715SOL    HW252399   2.145   3.040   1.501 -0.4255 -0.0844  1.3768
16716SOL     OW52400   5.046   7.774   2.188 -0.2159  0.3963  0.0119
16716SOL    HW152401   5.139   7.797   2.200 -0.1235  0.2853 -0.4934
16716SOL    HW252402   5.009   7.849   2.142  0.1339 -0.5149 -1.8474
16717SOL     OW52403   3.664   4.020   0.234  0.3525  0.1192  0.1008
16717SOL    HW152404   3.658   4.036   0.328  0.4585 -1.7534  0.4536
16717SOL    HW252405   3.757   4.005   0.218  0.3006  0.1798 -0.2719
16718SOL     OW52406   9.693   3.280   1.228 -0.2878 -0.1709  0.0539
16718SOL    HW152407   9.682   3.304   1.320  1.6455  0.6310  0.1331
16718SOL    HW252408   9.718   3.362   1.185  0.6503 -0.8725 -0.8124
16719SOL     OW52409   8.223   9.381   0.070  0.0391  0.7335  0.4989
16719SOL    HW152410   8.191   9.461   0.110 -1.6168 -0.5018  1.7621
16719SOL    HW252411   8.279   9.341   0.137  0.0414  0.3481  0.2736
16720SOL     OW52412   0.517   7.669   6.375 -0.0518  0.0983 -0.2095
16720SOL    HW152413   0.588   7.733   6.378 -0.2600  0.3211 -0.0156
16720SOL    HW252414   0.506   7.641   6.466 -0.4810  0.3657 -0.1743
16721SOL     OW52415   5.560   8.607  10.204  0.4889 -0.3715  0.1914
16721SOL    HW152416   5.471   8.577  10.221  0.6124 -1.0337 -0.3119
16721SOL    HW252417   5.560   8.698  10.235 -0.8312  0.1901 -1.3029
16722SOL     OW52418   5.596   8.474   8.615  0.0289  0.0025 -0.0177
16722SOL    HW152419   5.507   8.504   8.597 -0.0101 -0.5726 -0.8424
16722SOL    HW252420   5.615   8.505   8.703 -1.5823 -1.2195  0.8030
16723SOL     OW52421   4.463   7.962   1.005  1.0655  0.4701  0.4197
16723SOL    HW152422   4.395   7.955   1.073 -0.2103  1.3144 -0.7219
16723SOL    HW252423   4.546   7.957   1.054  0.3273 -3.2657  1.6222
16724SOL     OW52424   8.770   1.762   5.548  0.2560 -0.2129 -0.7056
16724SOL    HW152425   8.715   1.818   5.603  0.2124 -1.2021  0.2734
16724SOL    HW252426   8.823   1.824   5.497 -1.5264  0.7634 -1.4573
16725SOL     OW52427   1.897   2.921   7.311  0.2062  0.0346  0.2039
16725SOL    HW152428   1.832   2.851   7.319  1.0559 -0.7638  0.3218
16725SOL    HW252429   1.881   2.959   7.225 -0.8853  0.3504  0.5255
16726SOL     OW52430   3.846   7.252   8.968 -0.1832 -0.1656  0.7952
16726SOL    HW152431   3.815   7.188   8.904  2.4397 -2.3423  1.5316
16726SOL    HW252432   3.910   7.205   9.021 -0.3346  2.2530  3.4145
16727SOL     OW52433   2.780   1.717   9.836  0.2300 -0.0982 -0.4152
16727SOL    HW152434   2.838   1.642   9.851  1.0087  0.0580 -2.3448
16727SOL    HW252435   2.693   1.683   9.854  0.8078 -0.5563  1.7731
16728SOL     OW52436   5.308   5.101   5.418 -0.4408  0.2029  0.4059
16728SOL    HW152437   5.398   5.092   5.384 -0.8812  0.7642 -0.9904
16728SOL    HW252438   5.320   5.121   5.510  0.8390 -1.0723  0.5611
16729SOL     OW52439   1.582   5.300   8.535  0.1821  0.6698 -0.1528
16729SOL    HW152440   1.593   5.304   8.630 -1.9876  3.1677  0.1136
16729SOL    HW252441   1.565   5.390   8.509 -2.8752 -0.3923 -2.3862
16730SOL     OW52442   7.255  10.648   0.177 -0.2570  0.0678  0.0771
16730SOL    HW152443   7.320  10.646   0.248  0.7506  1.6965 -0.7437
16730SOL    HW252444   7.272  10.567   0.129  1.4237  0.5790 -0.2864
16731SOL     OW52445   8.199   5.326  10.166 -0.9984 -0.1704  0.5882
16731SOL    HW152446   8.276   5.321  10.222 -0.0379  1.7040 -0.4799
16731SOL    HW252447   8.150   5.402  10.199 -0.3814  1.0117 -1.0750
16732SOL     OW52448   6.409   5.218   6.286  0.2832  0.2875  0.2378
16732SOL    HW152449   6.410   5.126   6.259  0.2946  0.7396 -1.3955
16732SOL    HW252450   6.411   5.214   6.382  1.9535 -1.3887  0.2086
16733SOL     OW52451   6.303   4.415   1.541  0.0290 -0.1445 -0.1060
16733SOL    HW152452   6.243   4.384   1.609  0.7533  1.4722  1.3797
16733SOL    HW252453   6.267   4.499   1.514  0.0168 -0.5559 -1.4199
16734SOL     OW52454   6.766   7.172   6.162  0.3171 -0.0013 -0.0326
16734SOL    HW152455   6.798   7.091   6.202 -0.5725 -0.0059  0.6977
16734SOL    HW252456   6.710   7.212   6.229 -1.6785 -0.2973 -1.4317
16735SOL     OW52457   8.984   3.747   1.366 -0.1473 -0.7045 -0.3659
16735SOL    HW152458   8.944   3.707   1.289 -2.8127 -0.8556  0.9754
16735SOL    HW252459   9.036   3.677   1.405 -0.7957 -1.3820 -0.6990
16736SOL     OW52460   8.533   9.893   8.080 -0.0403  0.2629  0.3229
16736SOL    HW152461   8.565   9.803   8.079 -0.1924  0.2079  0.4024
16736SOL    HW252462   8.461   9.894   8.016  0.3246  0.4628 -0.0909
16737SOL     OW52463   4.817   8.667   8.485 -0.4390 -1.2084 -0.3079
16737SOL    HW152464   4.729   8.671   8.522  0.7219  0.8556  2.6594
16737SOL    HW252465   4.812   8.718   8.404 -1.4804  1.2855  1.2107
16738SOL     OW52466   1.839   7.396   5.091 -0.1820  0.1039 -0.2217
16738SOL    HW152467   1.790   7.316   5.109 -0.7643  0.4588 -0.2075
16738SOL    HW252468   1.774   7.466   5.096 -0.0512  0.3979 -2.0071
16739SOL     OW52469   3.246   1.457   5.896 -0.2423  0.5024  0.2815
16739SOL    HW152470   3.178   1.493   5.839  1.5500 -1.1551 -3.2188
16739SOL    HW252471   3.287   1.388   5.843  3.8836  1.0911  2.3310
16740SOL     OW52472   9.558   6.163   6.207 -0.6070 -0.4315 -0.9491
16740SOL    HW152473   9.525   6.185   6.295 -0.3112 -2.9339 -0.1593
16740SOL    HW252474   9.648   6.196   6.207  0.0138 -1.9939  0.3920
16741SOL     OW52475   6.527   4.283   9.401  0.2658 -0.5612  0.1726
16741SOL    HW152476   6.623   4.285   9.392  0.2541 -0.6014  0.0453
16741SOL    HW252477   6.513   4.278   9.496  0.4006 -1.3191  0.1595
16742SOL     OW52478   8.093   9.244   7.482 -0.0867 -0.9142  0.3059
16742SOL    HW152479   8.010   9.198   7.495  0.0979 -1.2088  0.4386
16742SOL    HW252480   8.137   9.195   7.413 -0.8557  0.3565 -1.1600
16743SOL     OW52481   6.402   1.453   0.884  0.4270 -0.3380 -0.2870
16743SOL    HW152482   6.479   1.414   0.843 -0.0555 -0.8786 -0.7018
16743SOL    HW252483   6.393   1.407   0.968  0.7499 -0.0335 -0.0836
16744SOL     OW52484   0.187   1.458   5.942  0.5536 -0.4067  0.2731
16744SOL    HW152485   0.138   1.531   5.905 -0.7039 -2.0849 -1.4882
16744SOL    HW252486   0.272   1.462   5.899  0.1445 -0.5478 -0.5605
16745SOL     OW52487   9.049   9.150   4.899 -0.1706  0.4175 -0.0879
16745SOL    HW152488   8.992   9.153   4.976  1.6976  1.7439  1.3758
16745SOL    HW252489   9.136   9.170   4.934  0.8493  0.5276 -2.5013
16746SOL     OW52490   9.771   8.508   2.188 -0.0346  0.2859 -0.0175
16746SOL    HW152491   9.678   8.514   2.166  0.0885 -0.9633 -0.9682
16746SOL    HW252492   9.784   8.575   2.255 -1.5684  0.6322 -0.0331
16747SOL     OW52493   1.147   6.180   1.543 -0.7404 -0.1731 -0.2323
16747SOL    HW152494   1.077   6.122   1.573  0.3894  0.2956  3.8197
16747SOL    HW252495   1.228   6.135   1.567  0.2839  0.9802 -1.3746
16748SOL     OW52496   0.050   4.164   2.533 -0.0674 -0.3376 -0.0824
16748SOL    HW152497   0.118   4.107   2.568 -0.8203  0.7712  3.6598
16748SOL    HW252498  -0.024   4.106   2.517  0.6370 -1.0387 -0.8780
16749SOL     OW52499   8.507   8.396   9.471  0.4717 -0.3922 -0.1516
16749SOL    HW152500   8.549   8.311   9.458  0.2173 -0.6534  0.6597
16749SOL    HW252501   8.419   8.384   9.437  0.4055 -0.4809  0.0515
16750SOL     OW52502   2.893   0.063   2.915 -0.2766  0.3081  0.0590
16750SOL    HW152503   2.984   0.073   2.943  0.0343 -0.2127 -0.7324
16750SOL    HW252504   2.852   0.147   2.936 -0.4314 -0.4359  3.2323
16751SOL     OW52505   8.548   7.202   2.399 -0.2694  0.0349 -0.5372
16751SOL    HW152506   8.573   7.272   2.459  0.8402  1.0838 -2.1784
16751SOL    HW252507   8.485   7.242   2.340 -0.8286 -0.8057 -0.5355
16752SOL     OW52508   0.912   0.535   0.125 -0.1402 -0.1522 -0.3917
16752SOL    HW152509   0.980   0.468   0.122  0.3379  0.2100  1.1665
16752SOL    HW252510   0.885   0.536   0.217 -0.8519  1.0855 -0.5999
16753SOL     OW52511   1.690   0.674   1.236  0.4661 -0.7461 -0.4507
16753SOL    HW152512   1.669   0.658   1.144 -1.7526 -1.1286  0.0645
16753SOL    HW252513   1.759   0.741   1.233 -1.6917  1.6400 -2.4037
16754SOL     OW52514   9.136   4.268   4.937  0.3476 -0.3128  0.6536
16754SOL    HW152515   9.072   4.249   4.869 -0.7846 -0.2911  1.6821
16754SOL    HW252516   9.105   4.349   4.978  0.7024 -0.6164  1.5534
16755SOL     OW52517   5.469   3.875   3.312  0.4639  0.0854 -0.0919
16755SOL    HW152518   5.390   3.909   3.355 -1.3962 -2.5785 -1.1197
16755SOL    HW252519   5.493   3.942   3.248 -1.6529  0.5252 -0.4923
16756SOL     OW52520   5.063   0.755   6.010 -0.5876 -0.1809 -0.1977
16756SOL    HW152521   5.131   0.732   5.946 -0.6367 -1.6737  0.2326
16756SOL    HW252522   5.107   0.814   6.071 -0.7348  1.8732 -1.9580
16757SOL     OW52523  10.222   7.401   3.578 -0.4609 -0.3297  0.1124
16757SOL    HW152524  10.132   7.377   3.553 -0.3892 -0.6135  0.1235
16757SOL    HW252525  10.250   7.462   3.509 -0.2379 -1.1749 -0.5684
16758SOL     OW52526   1.836   3.122   4.306  0.2119 -0.2750 -0.2041
16758SOL    HW152527   1.831   3.107   4.401  0.6182 -1.7429 -0.3902
16758SOL    HW252528   1.928   3.143   4.290  0.1620 -0.1225 -0.2984
16759SOL     OW52529   2.772   9.349   8.426 -0.2784 -0.2375  0.7037
16759SOL    HW152530   2.803   9.354   8.516  0.4613  1.4095  0.3948
16759SOL    HW252531   2.683   9.385   8.429  0.1169  0.7710  0.6324
16760SOL     OW52532  10.036   0.622   5.592  0.3557 -0.2886 -0.1544
16760SOL    HW152533  10.049   0.703   5.642  1.8910 -0.3162 -0.4383
16760SOL    HW252534   9.993   0.651   5.511 -0.3576  0.0406  0.3401
16761SOL     OW52535   6.909   2.286   6.075 -0.4247 -0.4260  0.0174
16761SOL    HW152536   6.973   2.279   6.005 -1.1847 -1.1494 -0.6286
16761SOL    HW252537   6.953   2.337   6.143 -0.0342  1.1546 -1.3834
16762SOL     OW52538  10.582   1.747   3.818  0.2296 -0.1044  0.3968
16762SOL    HW152539  10.526   1.721   3.745  1.0443  0.1505 -0.3302
16762SOL    HW252540  10.531   1.812   3.866  0.3721  1.0384 -0.9547
16763SOL     OW52541   5.462   4.418   4.060 -0.0416 -0.6726 -0.3388
16763SOL    HW152542   5.393   4.443   3.998 -0.4683  0.4690  0.5655
16763SOL    HW252543   5.444   4.469   4.138  3.3487  1.7909 -0.9504
16764SOL     OW52544   2.054   7.298   7.693  0.0000 -0.4194  0.4532
16764SOL    HW152545   2.007   7.271   7.772  0.1399 -2.4562 -0.0955
16764SOL    HW252546   2.006   7.255   7.621  1.4998 -0.9187 -0.2949
16765SOL     OW52547   1.482   9.796   4.746 -0.2083  0.2151  0.2284
16765SOL    HW152548   1.545   9.752   4.690 -0.1562 -1.0871  1.2523
16765SOL    HW252549   1.397   9.776   4.708 -0.0734  1.3159 -0.7024
16766SOL     OW52550   3.692   4.394  10.589 -0.1991  0.4016 -1.2761
16766SOL    HW152551   3.721   4.483  10.569  1.7025 -0.2287 -1.5905
16766SOL    HW252552   3.694   4.348  10.505 -1.0519  0.0229 -1.0999
16767SOL     OW52553  10.474   9.457   5.513 -0.3938  0.5121 -0.0335
16767SOL    HW152554  10.446   9.370   5.540  1.7412  0.3585  2.1049
16767SOL    HW252555  10.554   9.441   5.462 -0.4809  1.1818 -0.3880
16768SOL     OW52556   6.013   1.964   2.234  0.3146 -0.4535  0.0507
16768SOL    HW152557   5.932   1.947   2.282 -1.7797  1.7289 -2.3953
16768SOL    HW252558   6.004   1.912   2.154  1.2226  0.0255 -0.3717
16769SOL     OW52559   2.777  10.419   1.145  0.5026 -0.3374  0.2122
16769SOL    HW152560   2.779  10.341   1.090 -2.3626 -0.2366 -0.1703
16769SOL    HW252561   2.747  10.388   1.230  1.4134  0.0716  0.7035
16770SOL     OW52562   3.846   3.088   4.928 -0.3385  0.3676 -0.3185
16770SOL    HW152563   3.888   3.099   5.014 -1.5235 -0.1583  0.3457
16770SOL    HW252564   3.892   3.149   4.871 -0.6843  2.0161  1.0964
16771SOL     OW52565   9.195   4.853   9.635  0.0992  0.1008  0.2021
16771SOL    HW152566   9.161   4.852   9.545 -0.7735 -1.9096  0.4956
16771SOL    HW252567   9.178   4.942   9.666 -1.8534  0.1478 -0.8037
16772SOL     OW52568   8.778   1.431   0.912  0.1370  0.3872  0.0660
16772SOL    HW152569   8.718   1.356   0.911  2.1937 -1.3561  0.7724
16772SOL    HW252570   8.831   1.420   0.833 -1.4809  2.9189 -1.5633
16773SOL     OW52571   2.794   8.140   2.772 -0.1650 -0.3407 -0.4971
16773SOL    HW152572   2.736   8.213   2.793 -0.2604 -0.0833 -1.6194
16773SOL    HW252573   2.881   8.179   2.766  0.2583 -0.8033  1.6647
16774SOL     OW52574   3.627   1.136   4.344  0.7198  0.3060  0.6372
16774SOL    HW152575   3.543   1.091   4.351  1.4798 -1.0070  1.8996
16774SOL    HW252576   3.607   1.228   4.363 -0.8094  0.5179 -1.6681
16775SOL     OW52577   7.029   4.270   9.350 -0.4082  0.5290  0.0122
16775SOL    HW152578   7.061   4.188   9.312  0.5842  0.1641  1.5298
16775SOL    HW252579   7.107   4.309   9.390 -1.4225  0.6794  1.9810
16776SOL     OW52580   4.028  10.489   4.739 -0.5054 -0.1151 -0.5697
16776SOL    HW152581   4.112  10.533   4.753 -0.1227 -1.1816  0.7514
16776SOL    HW252582   4.052  10.397   4.726 -1.5127 -0.5910  0.7815
16777SOL     OW52583   7.749   6.275  10.371 -0.4734 -0.3308  0.6950
16777SOL    HW152584   7.718   6.365  10.370 -0.1574 -0.2213  0.7294
16777SOL    HW252585   7.766   6.256  10.463 -2.0728 -0.9582  0.8928
16778SOL     OW52586   3.036   8.607   6.553  0.1515 -0.1511  0.2801
16778SOL    HW152587   2.999   8.558   6.626 -3.2680 -0.2083 -1.3155
16778SOL    HW252588   3.015   8.555   6.475  0.7225  1.4816 -1.0455
16779SOL     OW52589   9.274   7.595   9.021  0.0462  0.2744  0.0028
16779SOL    HW152590   9.188   7.558   9.040 -0.5713  1.8051  0.3941
16779SOL    HW252591   9.305   7.546   8.946 -1.4693  0.1213 -0.5609
16780SOL     OW52592   7.821   9.610   6.729  0.1177 -0.2054  0.0528
16780SOL    HW152593   7.854   9.699   6.719  0.3276 -0.4363 -1.7902
16780SOL    HW252594   7.892   9.562   6.770  0.4315  0.2379  0.0298
16781SOL     OW52595   5.131   4.673   6.682  0.2179 -0.4547 -0.2417
16781SOL    HW152596   5.220   4.640   6.694  0.1589 -0.7951 -0.7137
16781SOL    HW252597   5.080   4.595   6.660  0.4028  0.1571 -3.2494
16782SOL     OW52598   0.873   0.298   7.518 -0.6599  0.3135 -0.0705
16782SOL    HW152599   0.859   0.205   7.500  2.2254 -0.1160 -0.4673
16782SOL    HW252600   0.924   0.300   7.599  0.3097  1.4849 -0.6750
16783SOL     OW52601   9.348   6.781  10.517 -0.2929  0.0225 -0.1017
16783SOL    HW152602   9.273   6.797  10.460  0.9487  1.0181 -1.5421
16783SOL    HW252603   9.327   6.700  10.563 -3.4835  1.6978  1.6947
16784SOL     OW52604   3.897   1.254   5.828  0.3903 -0.6925 -0.2412
16784SOL    HW152605   3.919   1.161   5.825  0.0628 -0.8988  1.7743
16784SOL    HW252606   3.851   1.265   5.912  0.6628  1.3243 -0.2931
16785SOL     OW52607   3.730   7.464   8.766 -0.1846 -0.6461  0.6545
16785SOL    HW152608   3.751   7.555   8.745 -2.2888 -0.1455  0.5067
16785SOL    HW252609   3.805   7.433   8.816  0.3410  1.3634  1.2062
16786SOL     OW52610   0.851   4.544   1.630 -0.2505  0.2426  0.2177
16786SOL    HW152611   0.814   4.529   1.717 -1.0013 -0.1469 -0.1626
16786SOL    HW252612   0.775   4.551   1.573  0.2449  0.3395 -0.4370
16787SOL     OW52613   8.978   3.177   5.476 -0.7140 -0.0423 -0.5514
16787SOL    HW152614   8.938   3.248   5.426  0.1439  0.2617 -0.8343
16787SOL    HW252615   8.931   3.177   5.560 -0.6581  0.9345 -0.5062
16788SOL     OW52616   0.579   4.925   1.637  0.4911  0.1096 -0.0668
16788SOL    HW152617   0.572   5.013   1.674 -1.3868 -0.0204 -0.0084
16788SOL    HW252618   0.538   4.868   1.703  0.8530 -0.6918 -0.5147
16789SOL     OW52619   7.253   3.270   3.212  0.2992 -0.6578 -0.8691
16789SOL    HW152620   7.191   3.202   3.186 -0.0701 -0.0025 -1.7761
16789SOL    HW252621   7.331   3.253   3.160  0.5335 -0.9095 -0.4398
16790SOL     OW52622  10.467   9.106   7.156 -0.2985  0.7241 -0.7203
16790SOL    HW152623  10.449   9.182   7.210  2.1652  0.8314  0.0881
16790SOL    HW252624  10.546   9.129   7.107  0.6487 -1.3436 -0.2919
16791SOL     OW52625   8.393   2.717   4.990  0.7914 -0.1540  0.3619
16791SOL    HW152626   8.431   2.704   4.904 -0.2017  0.1297 -0.1311
16791SOL    HW252627   8.367   2.629   5.019  0.6852 -0.1843  0.1703
16792SOL     OW52628   4.316   2.835   1.884  0.4166  0.4282  0.2533
16792SOL    HW152629   4.282   2.805   1.968 -2.1695 -0.5863 -1.0731
16792SOL    HW252630   4.336   2.755   1.836 -2.6994  0.7201 -1.8008
16793SOL     OW52631   1.874   8.719   2.025  0.5067 -0.0452 -0.1238
16793SOL    HW152632   1.827   8.788   2.072  0.8370  0.5614 -0.6720
16793SOL    HW252633   1.925   8.765   1.959  0.3606 -0.8521 -0.8239
16794SOL     OW52634   7.500   7.895   6.575  0.4397  0.3360 -0.2708
16794SOL    HW152635   7.550   7.814   6.567  0.1301  0.0902  0.2880
16794SOL    HW252636   7.410   7.870   6.556  0.7147  1.0843 -2.9973
16795SOL     OW52637   6.153   4.369   7.892  0.4324 -0.6689  0.4495
16795SOL    HW152638   6.100   4.296   7.925 -0.0454 -0.7858 -0.5549
16795SOL    HW252639   6.231   4.327   7.855  0.0194 -0.7007 -0.3964
16796SOL     OW52640   5.638   1.510   5.571  0.1051 -0.0741 -0.3860
16796SOL    HW152641   5.571   1.444   5.592  0.2534 -0.4851 -1.1535
16796SOL    HW252642   5.720   1.468   5.596  0.2828 -0.5666 -1.7170
16797SOL     OW52643   0.850   8.791   1.736  0.2150 -0.0086  0.0811
16797SOL    HW152644   0.914   8.726   1.766  1.2545  0.1557 -1.6443
16797SOL    HW252645   0.903   8.861   1.699 -0.9419  0.1373 -1.3930
16798SOL     OW52646  10.183   9.131   8.965 -0.3678 -0.4664 -0.3726
16798SOL    HW152647  10.110   9.176   8.923 -0.0576  2.0794  1.5783
16798SOL    HW252648  10.161   9.132   9.058  2.3974  0.9642  0.3624
16799SOL     OW52649   8.611   0.342   8.524 -0.5012  0.4720 -0.6406
16799SOL    HW152650   8.629   0.427   8.564  1.6313 -0.1741 -0.0884
16799SOL    HW252651   8.559   0.362   8.447 -0.7594  2.1977 -0.0583
16800SOL     OW52652   1.522   5.742   1.864 -0.2541 -0.4109 -0.3093
16800SOL    HW152653   1.443   5.772   1.817 -2.0860 -3.3116  0.6528
16800SOL    HW252654   1.540   5.812   1.926 -2.8111 -0.1155  0.2041
16801SOL     OW52655   4.628  10.655  10.439  0.4274 -0.3336  0.0532
16801SOL    HW152656   4.642  10.584  10.502  0.8721  1.9969  2.7972
16801SOL    HW252657   4.634  10.612  10.353  0.5259 -3.5874  1.5142
16802SOL     OW52658   3.924   7.102   6.423  0.1018  0.8149  0.2538
16802SOL    HW152659   3.846   7.096   6.368  0.5391  0.6863 -0.3607
16802SOL    HW252660   3.890   7.116   6.511 -0.5973  1.2674 -0.0824
16803SOL     OW52661   6.828   4.892   1.063 -0.2483  0.4364  0.3672
16803SOL    HW152662   6.834   4.824   0.996 -0.9149  2.5764 -2.0221
16803SOL    HW252663   6.844   4.846   1.146  1.8495 -2.1219 -1.3207
16804SOL     OW52664   2.638   8.023   4.547 -0.2039 -0.3779 -1.0832
16804SOL    HW152665   2.663   8.093   4.487  1.5453 -1.0620 -1.2191
16804SOL    HW252666   2.610   8.068   4.626  1.1591  0.5140 -1.0610
16805SOL     OW52667   3.537   3.533  10.641 -0.2872 -0.3609 -0.1573
16805SOL    HW152668   3.441   3.534  10.649 -0.3375  0.7166 -0.7840
16805SOL    HW252669   3.562   3.626  10.643  0.6210 -0.5598 -1.4284
16806SOL     OW52670   9.048   2.235   0.702 -0.3794  0.0926  0.0626
16806SOL    HW152671   8.967   2.285   0.710 -0.4270  0.0043  0.1488
16806SOL    HW252672   9.054   2.213   0.609 -0.7861 -0.4409  0.1541
16807SOL     OW52673   3.015   7.698   6.978 -0.2295  0.9668 -0.5292
16807SOL    HW152674   3.020   7.603   6.970 -0.5685  1.0599 -2.1389
16807SOL    HW252675   2.931   7.721   6.937  1.0801  2.1846 -2.7184
16808SOL     OW52676   6.229   3.566   7.992  0.4443  0.8428  0.1821
16808SOL    HW152677   6.175   3.641   7.969 -0.4894  0.2858  0.5179
16808SOL    HW252678   6.193   3.493   7.941  0.8235  0.4438  0.4743
16809SOL     OW52679   8.958   1.151   0.166 -0.1144 -0.5400 -0.1461
16809SOL    HW152680   8.863   1.136   0.167 -0.0284 -1.1349  0.6357
16809SOL    HW252681   8.972   1.212   0.094 -1.2038  0.3165  0.3318
16810SOL     OW52682   5.454   0.611   7.103  0.1168 -0.3166 -0.0625
16810SOL    HW152683   5.407   0.527   7.105 -0.0286 -0.3244 -1.9932
16810SOL    HW252684   5.532   0.594   7.051  0.8758  0.3879  0.8180
16811SOL     OW52685   3.186  10.639   0.327 -0.9005 -0.1645  0.6000
16811SOL    HW152686   3.142  10.669   0.248 -1.3669  0.2028  0.9925
16811SOL    HW252687   3.142  10.557   0.350  0.1640 -1.0220 -0.2947
16812SOL     OW52688   4.577   3.080   7.705  0.2620  0.0924  0.4441
16812SOL    HW152689   4.624   3.141   7.647  1.0412  0.7473  1.7000
16812SOL    HW252690   4.520   3.137   7.757  0.2663 -0.3616  0.9488
16813SOL     OW52691   5.905   9.601   1.497 -0.5875  0.0492 -0.1528
16813SOL    HW152692   5.911   9.646   1.582  0.7508  2.2056 -1.3054
16813SOL    HW252693   5.979   9.540   1.498 -0.4042  0.2676  0.1258
16814SOL     OW52694   5.245   4.309   6.290  0.1655  0.0412  0.1285
16814SOL    HW152695   5.183   4.244   6.322 -0.2481  0.0607 -0.6170
16814SOL    HW252696   5.197   4.357   6.222  0.4070  1.2252  0.7591
16815SOL     OW52697   1.989   5.140   4.270 -0.2877 -0.4566  0.3673
16815SOL    HW152698   2.051   5.130   4.342 -0.3612  1.7735  0.7876
16815SOL    HW252699   2.028   5.091   4.198  1.4545  0.0515  0.9274
16816SOL     OW52700   7.090   5.073   5.571  0.0827  0.1002 -0.0819
16816SOL    HW152701   7.011   5.066   5.518 -0.5138  0.5083  0.7320
16816SOL    HW252702   7.078   5.154   5.620  0.7280 -0.1544  0.5067
16817SOL     OW52703   0.285   7.625   7.438  0.0175  0.3416 -0.5017
16817SOL    HW152704   0.352   7.689   7.463 -0.4069  0.4505  0.4294
16817SOL    HW252705   0.298   7.552   7.498  0.8176 -0.6892 -1.8893
16818SOL     OW52706   4.149   2.606   9.932  0.0983 -0.3913 -0.6863
16818SOL    HW152707   4.074   2.649   9.891  0.0506 -1.9797 -2.4122
16818SOL    HW252708   4.225   2.655   9.901 -0.1459  1.1356  0.9549
16819SOL     OW52709  10.357   6.711   5.979 -0.2380  0.1220  0.2868
16819SOL    HW152710  10.284   6.664   6.019 -0.0169 -0.6162 -0.1696
16819SOL    HW252711  10.318   6.754   5.902 -0.0101 -1.0744 -0.5265
16820SOL     OW52712   3.796   0.222   3.062  0.0077 -0.0503  0.7369
16820SOL    HW152713   3.822   0.153   3.001 -0.6383 -0.1844  0.6099
16820SOL    HW252714   3.781   0.176   3.145  3.7767  0.4660  1.9122
16821SOL     OW52715   4.304   2.239   1.828  0.5711 -0.2569 -0.5113
16821SOL    HW152716   4.307   2.160   1.882 -1.8125 -1.0319 -1.3993
16821SOL    HW252717   4.353   2.304   1.878  1.3805 -1.8800  0.9167
16822SOL     OW52718   2.617   7.089   3.189  0.3247  0.2380 -0.2175
16822SOL    HW152719   2.549   7.150   3.215  0.4019 -0.8264  2.7892
16822SOL    HW252720   2.571   7.020   3.141 -0.2905  0.7876 -0.4275
16823SOL     OW52721   7.211   5.803   4.185 -0.0804 -0.2393 -0.1832
16823SOL    HW152722   7.144   5.851   4.136 -0.2845  0.4506  0.7459
16823SOL    HW252723   7.271   5.870   4.217  0.9318 -0.8249 -0.7867
16824SOL     OW52724   1.730   9.033   5.451  0.7285 -0.0124  0.5543
16824SOL    HW152725   1.647   8.988   5.467  0.8527 -1.3987 -2.1273
16824SOL    HW252726   1.704   9.123   5.429  0.0815 -0.0321  1.1975
16825SOL     OW52727   2.194   1.377   4.733  0.7219 -0.2927  0.0884
16825SOL    HW152728   2.198   1.288   4.769 -0.1494 -0.2243  0.3906
16825SOL    HW252729   2.171   1.364   4.640 -1.6202 -0.3602  0.6032
16826SOL     OW52730   3.129   6.297   8.324  0.0153 -0.3982  0.3343
16826SOL    HW152731   3.194   6.363   8.300 -1.5259  0.1638 -2.9122
16826SOL    HW252732   3.045   6.343   8.318 -0.9338 -2.0505  0.3735
16827SOL     OW52733   0.132   9.923   8.777  0.5060  0.0172  0.2543
16827SOL    HW152734   0.062   9.906   8.714  1.4037 -0.9218 -0.5242
16827SOL    HW252735   0.099   9.995   8.830 -2.0143 -1.8469  1.4182
16828SOL     OW52736   2.574   4.823   9.776  0.1723  0.4516 -0.2786
16828SOL    HW152737   2.609   4.787   9.694 -0.8422  0.7906 -0.8833
16828SOL    HW252738   2.555   4.746   9.830  2.2604  0.2681  0.2749
16829SOL     OW52739   3.972   6.223   2.252 -0.2277  0.0380  0.8142
16829SOL    HW152740   4.055   6.218   2.203 -0.9493  2.7922 -0.8887
16829SOL    HW252741   3.998   6.245   2.341  0.9208  2.7978 -0.0986
16830SOL     OW52742   6.880   6.602   0.982 -0.4748  0.1431  0.8270
16830SOL    HW152743   6.946   6.624   0.916 -2.1114  2.3045 -0.2289
16830SOL    HW252744   6.820   6.543   0.937 -0.9000  0.6119  0.7662
16831SOL     OW52745   2.690   7.530   5.742 -0.3290  0.0991  0.6478
16831SOL    HW152746   2.625   7.599   5.757  0.3912  0.5973  1.5833
16831SOL    HW252747   2.721   7.544   5.653  0.8389  1.9076  1.2869
16832SOL     OW52748   8.247   9.739   1.836  0.5175  0.7351 -0.3628
16832SOL    HW152749   8.159   9.727   1.798  0.5475  1.3961 -0.6474
16832SOL    HW252750   8.305   9.693   1.775  0.0741 -2.8918  1.6313
16833SOL     OW52751   6.844   0.113   1.669 -0.5074  0.1244  0.3301
16833SOL    HW152752   6.912   0.141   1.730  0.4240  0.6491 -0.9108
16833SOL    HW252753   6.775   0.078   1.725  0.2214  0.7835  1.6879
16834SOL     OW52754  10.186   1.639   7.866  0.0271  0.1829 -0.6089
16834SOL    HW152755  10.109   1.651   7.811  0.0910  0.3961 -0.6569
16834SOL    HW252756  10.208   1.547   7.858 -0.5371  0.0040 -0.1730
16835SOL     OW52757   7.000   3.280   3.919 -0.1935  0.0347 -0.4810
16835SOL    HW152758   7.024   3.356   3.866  0.8731 -0.7603 -1.1797
16835SOL    HW252759   7.036   3.300   4.006 -1.6429  1.1847 -0.0973
16836SOL     OW52760   2.970   6.336   7.526 -0.7760 -0.6421 -0.1725
16836SOL    HW152761   2.952   6.428   7.507  0.8568 -0.3454 -0.3920
16836SOL    HW252762   3.060   6.322   7.496 -1.2444 -2.5202 -0.8870
16837SOL     OW52763   2.628   3.481   0.133  0.1409  0.1999  0.9920
16837SOL    HW152764   2.674   3.398   0.121 -0.9217 -0.0824 -1.9102
16837SOL    HW252765   2.567   3.464   0.205 -0.6706 -1.9086 -0.1005
16838SOL     OW52766   1.463   5.417   8.804  0.7711  0.5014  0.2538
16838SOL    HW152767   1.378   5.377   8.824  0.3141  1.0996 -0.4379
16838SOL    HW252768   1.441   5.498   8.759  1.7140  0.8017  0.3167
16839SOL     OW52769   9.696   0.887  10.552  0.0182  0.4056  0.6706
16839SOL    HW152770   9.619   0.933  10.584  0.1075 -0.0238  1.5414
16839SOL    HW252771   9.729   0.941  10.480 -0.8252  0.8243  0.5858
16840SOL     OW52772   9.238   0.515   4.811 -0.3493  0.7728 -0.0318
16840SOL    HW152773   9.266   0.445   4.871 -0.6827 -0.3503 -1.1535
16840SOL    HW252774   9.144   0.524   4.827 -0.7364 -0.5646 -1.3897
16841SOL     OW52775   6.008   3.833   1.625 -0.1145  0.1161  0.2262
16841SOL    HW152776   6.006   3.738   1.635 -0.0933  0.1446  0.5154
16841SOL    HW252777   5.945   3.865   1.690  0.8936  0.3809  1.0996
16842SOL     OW52778   4.449   4.045   4.990 -0.0239 -0.2300  0.1582
16842SOL    HW152779   4.491   4.085   4.914 -0.1511 -0.2461  0.0781
16842SOL    HW252780   4.508   3.974   5.016 -0.9634 -1.5868 -1.2110
16843SOL     OW52781   4.591   8.288   6.281 -0.0307 -0.5603  0.8526
16843SOL    HW152782   4.529   8.339   6.333  0.1815 -2.3202  3.0138
16843SOL    HW252783   4.540   8.213   6.251  0.1863 -0.2026 -0.4530
16844SOL     OW52784   7.550   6.022   7.860 -0.3806 -0.0506 -0.5292
16844SOL    HW152785   7.463   6.042   7.897  0.1993  2.1755 -0.2053
16844SOL    HW252786   7.612   6.058   7.924  0.7283  0.2362 -1.7227
16845SOL     OW52787   1.412   9.345   8.557 -0.4375 -0.0841  0.8605
16845SOL    HW152788   1.344   9.373   8.618  0.2662 -0.1173  1.6669
16845SOL    HW252789   1.472   9.292   8.610 -0.7650 -1.6081 -0.2288
16846SOL     OW52790  10.319   5.957   9.820 -0.4540  0.1493 -0.2693
16846SOL    HW152791  10.371   6.009   9.759 -1.3285 -0.2789 -1.4151
16846SOL    HW252792  10.229   5.983   9.803 -0.6814  0.5489  1.3698
16847SOL     OW52793   1.852   9.908   3.170 -0.1653  0.4572 -0.0901
16847SOL    HW152794   1.862   9.813   3.162  1.5522  0.6737 -0.9364
16847SOL    HW252795   1.833   9.923   3.262  0.2589 -0.6527  0.1890
16848SOL     OW52796   8.464   8.316   8.810  0.3370  0.4491 -0.3775
16848SOL    HW152797   8.391   8.255   8.812  0.2220  0.5486 -1.2764
16848SOL    HW252798   8.510   8.301   8.893 -1.3697  1.2425  0.7774
16849SOL     OW52799   0.499   7.322   4.412  0.4362  0.6666  0.0027
16849SOL    HW152800   0.426   7.382   4.425  0.7222  1.0181 -0.0153
16849SOL    HW252801   0.570   7.358   4.464  0.2545 -0.3224  0.9911
16850SOL     OW52802   2.114   9.257   1.445  0.6367 -0.8881  0.0947
16850SOL    HW152803   2.142   9.335   1.492  0.9839 -0.4988 -0.7304
16850SOL    HW252804   2.020   9.250   1.463  0.7766 -0.8076  0.8972
16851SOL     OW52805   4.174   3.946   5.221 -0.4656 -0.2789  0.2465
16851SOL    HW152806   4.102   3.974   5.277  1.8245  0.6003  2.9475
16851SOL    HW252807   4.222   4.027   5.202  1.4691 -1.1872  1.0582
16852SOL     OW52808   4.472   8.772  10.079 -0.1796  0.0868  0.8089
16852SOL    HW152809   4.393   8.826  10.074 -0.5200 -0.4806 -0.8244
16852SOL    HW252810   4.483   8.754  10.172 -1.8702  0.3417  1.0991
16853SOL     OW52811   0.196   9.661   1.887 -0.1530 -1.0272 -0.2615
16853SOL    HW152812   0.245   9.607   1.948 -0.6764 -0.5723  0.5853
16853SOL    HW252813   0.219   9.751   1.910 -0.0015 -0.8574 -1.0439
16854SOL     OW52814   5.724   8.303   7.293 -0.1798 -0.2137  0.0377
16854SOL    HW152815   5.705   8.247   7.368 -2.0331 -0.6553 -0.6937
16854SOL    HW252816   5.667   8.379   7.305 -2.1410 -1.2602 -1.9231
16855SOL     OW52817   0.330   9.901   2.012 -0.1365  0.9848 -0.0909
16855SOL    HW152818   0.280   9.948   2.079 -0.8323  0.7090 -0.4138
16855SOL    HW252819   0.415   9.944   2.011  0.0127  0.7718  1.2287
16856SOL     OW52820   2.945   6.120   7.983  0.3486 -0.1759  0.5600
16856SOL    HW152821   2.999   6.061   8.036  0.4376 -1.8663 -1.2964
16856SOL    HW252822   2.855   6.095   8.003  0.3312 -3.2786 -2.4061
16857SOL     OW52823   4.490   4.536   5.482 -0.0675 -0.2164 -0.6245
16857SOL    HW152824   4.548   4.472   5.523  0.9951  1.0537 -0.0661
16857SOL    HW252825   4.422   4.551   5.547 -0.2802 -0.7017 -0.7274
16858SOL     OW52826  10.118   4.019   8.664  0.1352  0.9031 -0.2708
16858SOL    HW152827  10.145   4.020   8.572 -0.8162  0.1992 -0.5783
16858SOL    HW252828  10.196   3.990   8.712  0.5085  0.8494 -0.8989
16859SOL     OW52829   7.612   1.213   7.454  0.1710  0.0877 -0.0077
16859SOL    HW152830   7.593   1.227   7.361 -1.5303 -3.1053 -0.2735
16859SOL    HW252831   7.537   1.250   7.499 -1.5979 -2.7621 -0.3587
16860SOL     OW52832   9.602   8.861   5.368 -0.0438  0.3596  0.3787
16860SOL    HW152833   9.514   8.827   5.386 -0.4873  0.4892 -1.4151
16860SOL    HW252834   9.658   8.783   5.371 -0.5213 -0.0234 -0.3648
16861SOL     OW52835   7.827   0.182   1.476  0.2924  0.8321 -0.0552
16861SOL    HW152836   7.813   0.159   1.384 -0.3481 -0.5227  0.3617
16861SOL    HW252837   7.920   0.206   1.480  0.8874 -1.1499 -0.6725
16862SOL     OW52838   0.012   3.754  10.600  0.6993 -0.0943 -0.1792
16862SOL    HW152839  -0.006   3.660  10.602 -0.8586  0.0890 -2.1543
16862SOL    HW252840  -0.070   3.795  10.629  0.6608  0.6649 -1.2979
16863SOL     OW52841   9.298   7.650   3.272 -0.3224  0.3197  0.5744
16863SOL    HW152842   9.367   7.637   3.337  1.2590 -0.2441 -1.1333
16863SOL    HW252843   9.242   7.573   3.282  0.6577 -0.4367  0.3962
16864SOL     OW52844   8.519   0.279   9.278 -0.7772  0.0257 -0.1246
16864SOL    HW152845   8.427   0.302   9.267 -0.8315  0.0325  0.3305
16864SOL    HW252846   8.519   0.184   9.291 -0.4433 -0.5418 -3.3765
16865SOL     OW52847   6.947   1.395   4.328 -0.0254  0.0822  0.4163
16865SOL    HW152848   7.004   1.322   4.305 -0.9479 -0.0621 -1.5854
16865SOL    HW252849   6.965   1.462   4.262 -1.4228  0.4325  0.3509
16866SOL     OW52850   2.267   1.145   5.778  0.0910  0.5048  0.3418
16866SOL    HW152851   2.198   1.190   5.730  1.4465  2.0322 -0.2570
16866SOL    HW252852   2.319   1.215   5.816  1.4750 -0.6020  0.5493
16867SOL     OW52853   3.893  10.073   5.711  0.2586  0.4405 -0.5405
16867SOL    HW152854   3.984  10.086   5.735  0.0611  1.0781 -0.1272
16867SOL    HW252855   3.843  10.113   5.782 -0.3672 -1.3819  0.1210
16868SOL     OW52856   6.238   9.284   6.766  0.1823  0.2937 -0.1841
16868SOL    HW152857   6.328   9.304   6.743  0.4095 -0.3345  0.1590
16868SOL    HW252858   6.198   9.370   6.780  0.2993  0.6596 -1.8728
16869SOL     OW52859   8.406   4.658   2.438 -0.1752 -0.3311 -0.0185
16869SOL    HW152860   8.416   4.741   2.392 -3.3190  0.2753  0.1900
16869SOL    HW252861   8.495   4.623   2.443  1.0612  2.3076 -1.3773
16870SOL     OW52862   9.895   3.480   1.979  0.0944 -0.4232 -0.2205
16870SOL    HW152863   9.805   3.463   2.008  0.7671 -1.1220  1.6015
16870SOL    HW252864   9.941   3.506   2.059  1.3613  0.6125 -1.2571
16871SOL     OW52865   5.469   1.849   9.257 -0.1650 -0.0268  0.2116
16871SOL    HW152866   5.398   1.796   9.294 -0.3848  0.4163  0.4399
16871SOL    HW252867   5.513   1.886   9.333  0.6168 -0.6821  0.0843
16872SOL     OW52868   9.742   6.553   3.841 -0.3870  0.1181  0.1081
16872SOL    HW152869   9.789   6.628   3.876 -1.1075  0.6322  0.0086
16872SOL    HW252870   9.710   6.506   3.917  0.0685 -0.0885  0.1711
16873SOL     OW52871   0.330   5.504   4.860 -0.1421  0.0072 -0.1654
16873SOL    HW152872   0.353   5.463   4.776 -0.6635  0.5282 -0.5725
16873SOL    HW252873   0.367   5.445   4.926  1.1242  0.0819 -0.7670
16874SOL     OW52874   0.336   9.109   0.219  0.4147  0.0127  0.0877
16874SOL    HW152875   0.277   9.095   0.145  2.1204  0.5664 -1.4287
16874SOL    HW252876   0.318   9.036   0.278 -1.6606  0.0760 -0.3764
16875SOL     OW52877   6.830   3.887   7.452  0.2834 -0.8146  0.3614
16875SOL    HW152878   6.770   3.897   7.527  0.6798 -1.4930  0.7816
16875SOL    HW252879   6.784   3.828   7.393 -0.3460  0.2828 -0.2908
16876SOL     OW52880   7.046   6.111   6.964  0.2121 -0.2698 -0.0853
16876SOL    HW152881   7.086   6.041   6.911 -1.4336 -0.8432 -0.6456
16876SOL    HW252882   7.063   6.085   7.054 -0.4953 -1.5181 -0.2787
16877SOL     OW52883   3.749   7.270   2.798 -0.1192  0.0352  0.0442
16877SOL    HW152884   3.712   7.191   2.839 -0.7815 -0.2755 -1.1206
16877SOL    HW252885   3.838   7.244   2.773  0.0165 -0.0189  0.5662
16878SOL     OW52886   3.148   0.347   5.541  0.0249 -0.2055 -0.0007
16878SOL    HW152887   3.054   0.344   5.556  0.0012 -1.3884 -0.2956
16878SOL    HW252888   3.160   0.309   5.454  0.7852 -0.2142  0.1023
16879SOL     OW52889   5.302   0.655   0.199  1.0349 -0.0307  0.0551
16879SOL    HW152890   5.364   0.706   0.252  1.2624 -0.6766  0.4190
16879SOL    HW252891   5.314   0.565   0.229  0.0494 -0.1895 -0.0029
16880SOL     OW52892  10.029   1.251   2.230  0.1283 -0.2099  0.0157
16880SOL    HW152893   9.994   1.319   2.287 -1.3978 -1.6497  0.9155
16880SOL    HW252894  10.054   1.297   2.149 -1.2149  1.3515  0.4300
16881SOL     OW52895   7.528   1.372   5.197  0.0382  0.1079 -0.1310
16881SOL    HW152896   7.533   1.399   5.105 -2.3025  2.8689  0.3902
16881SOL    HW252897   7.616   1.344   5.219  1.3644  2.0429 -2.4897
16882SOL     OW52898   5.975   4.267  10.230 -0.0259  0.5849 -0.2947
16882SOL    HW152899   6.059   4.221  10.227 -0.1874  0.3384 -1.4619
16882SOL    HW252900   5.912   4.199  10.256 -0.1574  0.2782 -1.3538
16883SOL     OW52901  10.067   2.248   2.669 -0.1537 -0.1474 -0.2020
16883SOL    HW152902  10.127   2.253   2.743 -0.4397 -1.0938  0.0972
16883SOL    HW252903  10.096   2.171   2.620  0.6927  1.0428 -1.6760
16884SOL     OW52904   1.759   8.146   9.810  0.1846  0.3958  0.3111
16884SOL    HW152905   1.832   8.195   9.773 -0.6329  1.2580 -0.1935
16884SOL    HW252906   1.732   8.086   9.740  2.7748 -2.6769  1.7334
16885SOL     OW52907   9.332   0.088   0.904 -0.0679 -0.0187  0.2582
16885SOL    HW152908   9.424   0.063   0.915  0.5187  1.8879  0.0405
16885SOL    HW252909   9.291   0.010   0.867  1.6604 -0.6265 -0.5252
16886SOL     OW52910  10.396   7.396   3.314  0.6131 -0.0608 -0.3994
16886SOL    HW152911  10.338   7.319   3.314  0.1293  0.2777 -1.5244
16886SOL    HW252912  10.484   7.359   3.321  0.3878 -0.7310 -0.9716
16887SOL     OW52913   9.656  10.102   2.706 -0.3483 -0.1467 -0.1776
16887SOL    HW152914   9.624  10.098   2.616 -1.5596 -0.3333  0.2368
16887SOL    HW252915   9.664  10.010   2.733 -2.6373 -0.1426  0.7569
16888SOL     OW52916   7.164   1.399   0.913  0.0873  0.1227  0.2230
16888SOL    HW152917   7.172   1.455   0.990 -0.1173  1.4167 -0.6666
16888SOL    HW252918   7.073   1.368   0.916  0.6179 -1.5046  1.5642
16889SOL     OW52919   1.762   9.611   1.370 -0.0884  0.3036 -0.1435
16889SOL    HW152920   1.831   9.560   1.328  0.3470  1.5104 -0.9235
16889SOL    HW252921   1.682   9.586   1.324  0.0824  0.1247 -0.3447
16890SOL     OW52922   6.864   1.007   2.583  0.1912  0.2024  0.0580
16890SOL    HW152923   6.893   0.996   2.674 -0.0538  0.9151  0.2316
16890SOL    HW252924   6.784   0.955   2.577 -0.5537  1.2227  0.6545
16891SOL     OW52925   9.154   6.954   7.987 -0.3714  0.1763  0.4235
16891SOL    HW152926   9.191   7.035   7.954  0.8241 -0.5768 -0.1278
16891SOL    HW252927   9.210   6.929   8.060  0.9051 -1.4944 -1.0434
16892SOL     OW52928   7.782   7.171   9.284  0.4462  0.3339 -0.4802
16892SOL    HW152929   7.762   7.091   9.333  0.9000 -0.7763 -2.0356
16892SOL    HW252930   7.726   7.238   9.324 -0.3581 -0.8726  0.5072
16893SOL     OW52931   1.266   4.404   1.620 -0.0249  0.3397 -0.7017
16893SOL    HW152932   1.195   4.351   1.585  1.0593 -2.1998  0.6742
16893SOL    HW252933   1.229   4.445   1.698 -0.1212 -0.7193 -0.1705
16894SOL     OW52934   9.821   6.532  10.142  0.3741  0.8034 -0.1160
16894SOL    HW152935   9.859   6.599  10.084 -1.3097 -0.4405 -2.9017
16894SOL    HW252936   9.732   6.563  10.159 -0.0165 -0.0955 -0.4378
16895SOL     OW52937   4.179   3.601   9.345  0.0660  0.4248  0.1962
16895SOL    HW152938   4.132   3.622   9.426  0.3528 -0.8180  0.6916
16895SOL    HW252939   4.179   3.684   9.296  0.6623  1.4330  1.8409
16896SOL     OW52940   0.002   3.972   4.380  0.5097  0.1128  0.0396
16896SOL    HW152941   0.042   3.921   4.451 -0.6564 -0.4913  0.2955
16896SOL    HW252942  -0.008   3.909   4.309 -2.7539 -0.6882  1.0145
16897SOL     OW52943   0.574   4.514   7.342 -0.2890  0.7647 -0.3722
16897SOL    HW152944   0.503   4.574   7.320 -0.0781  0.6999 -1.2952
16897SOL    HW252945   0.534   4.427   7.338 -0.3292  0.7729 -0.1576
16898SOL     OW52946   9.902   2.822   1.305 -0.8318  0.9736 -0.2280
16898SOL    HW152947   9.888   2.904   1.258 -4.1188  1.6370  1.5854
16898SOL    HW252948   9.872   2.754   1.245 -1.1603  1.4314 -0.5858
16899SOL     OW52949   4.093   2.947  10.099  0.0828 -0.6013 -0.0823
16899SOL    HW152950   4.038   2.881  10.141  1.2743 -1.6767 -0.1441
16899SOL    HW252951   4.047   2.970  10.018 -0.1172 -1.7416 -0.3070
16900SOL     OW52952   7.469   6.602   4.136 -0.2177 -0.3364  0.6462
16900SOL    HW152953   7.536   6.552   4.182 -0.9393 -1.0113  1.0059
16900SOL    HW252954   7.482   6.582   4.044  0.9189  0.6220  0.5787
16901SOL     OW52955   7.318   5.506   7.722 -0.0724 -0.2943 -0.1015
16901SOL    HW152956   7.339   5.526   7.631 -0.1191  0.7097  0.1039
16901SOL    HW252957   7.223   5.520   7.729 -0.0028  0.0320  0.2025
16902SOL     OW52958   0.855   4.102   3.844 -0.7982  0.8992  0.0074
16902SOL    HW152959   0.827   4.168   3.781 -0.3448  1.5397  0.4678
16902SOL    HW252960   0.939   4.134   3.877 -0.3575 -0.1228 -0.0802
16903SOL     OW52961   9.290   6.190   8.192 -0.7172  0.3244 -0.0700
16903SOL    HW152962   9.320   6.215   8.105 -1.1637 -0.4478 -0.4498
16903SOL    HW252963   9.280   6.095   8.188  0.2686  0.1457  1.1463
16904SOL     OW52964   3.971   7.817   9.181  0.4116 -0.8218 -0.2453
16904SOL    HW152965   3.983   7.798   9.088  0.7707 -1.4728 -0.0698
16904SOL    HW252966   3.916   7.746   9.214  0.8939 -0.9984  0.1945
16905SOL     OW52967   5.592   5.739   4.949 -0.2438 -0.5219 -0.7072
16905SOL    HW152968   5.559   5.827   4.962  0.7921 -0.0509 -1.1578
16905SOL    HW252969   5.587   5.698   5.036  0.8517  0.5414 -0.1183
16906SOL     OW52970   4.037  10.418   8.523 -0.2041  0.5527 -0.1430
16906SOL    HW152971   3.987  10.344   8.555  1.5918 -0.6999 -0.0852
16906SOL    HW252972   4.003  10.493   8.571 -0.6330 -0.5728  1.3807
16907SOL     OW52973   4.315   7.444   7.895 -0.2114 -1.0173  0.5707
16907SOL    HW152974   4.281   7.496   7.968 -0.6938 -1.3047  0.5592
16907SOL    HW252975   4.298   7.497   7.817 -1.4765 -1.5278  0.4635
16908SOL     OW52976   5.458   1.866   9.716  0.1314 -0.2274  0.4079
16908SOL    HW152977   5.383   1.814   9.688  0.1837  0.2700 -0.7047
16908SOL    HW252978   5.479   1.921   9.641 -0.2883  1.8279  1.6907
16909SOL     OW52979   6.377   1.975  10.539 -0.0734 -0.3423  0.3646
16909SOL    HW152980   6.304   2.021  10.582 -2.7743 -1.9250 -2.1990
16909SOL    HW252981   6.353   1.883  10.542  1.7885 -0.9153 -0.7080
16910SOL     OW52982   0.206   9.140   3.835  0.0203 -0.0211 -0.3928
16910SOL    HW152983   0.239   9.173   3.919 -1.1568 -0.3064  0.2115
16910SOL    HW252984   0.222   9.046   3.839 -0.0912 -0.0424 -0.4584
16911SOL     OW52985   2.445   1.561   9.359 -0.3088 -0.1091  0.7537
16911SOL    HW152986   2.536   1.537   9.376 -0.0159 -1.6229 -2.2268
16911SOL    HW252987   2.395   1.483   9.380 -0.2446 -1.0214 -1.9958
16912SOL     OW52988   9.673   8.891   0.075  0.2460  0.2419 -0.6475
16912SOL    HW152989   9.679   8.877   0.169  2.1179  1.2012 -0.5713
16912SOL    HW252990   9.699   8.808   0.036 -1.3123 -0.4094 -0.3544
16913SOL     OW52991   7.854   0.462   0.371 -0.1975  0.4159  0.3110
16913SOL    HW152992   7.822   0.552   0.371  1.7537  1.1452  0.0922
16913SOL    HW252993   7.949   0.470   0.368  0.1265 -1.6185  2.2860
16914SOL     OW52994   8.020   3.031   9.216 -0.3216 -0.1727 -0.4200
16914SOL    HW152995   7.952   3.098   9.230  0.7915  0.9557 -0.2075
16914SOL    HW252996   7.984   2.952   9.256 -1.3180  0.5158  0.1032
16915SOL     OW52997   1.648   0.809   8.157  0.6285  0.3343 -0.5651
16915SOL    HW152998   1.629   0.902   8.146 -0.3560  0.2558  0.3637
16915SOL    HW252999   1.583   0.765   8.101  0.4158  0.1791 -0.1995
16916SOL     OW53000   8.287   8.592   6.640 -0.1377 -0.4047 -0.4177
16916SOL    HW153001   8.208   8.606   6.692 -0.7079  0.4128 -1.4459
16916SOL    HW253002   8.358   8.583   6.704 -1.0960 -1.4809  0.5351
16917SOL     OW53003   5.184   2.566   4.377  0.4683  0.5881 -0.0152
16917SOL    HW153004   5.206   2.620   4.301 -1.1403  0.6023 -0.5180
16917SOL    HW253005   5.219   2.479   4.356 -2.0609 -0.0676 -1.9788
16918SOL     OW53006   5.192   5.225   2.924 -0.1583  0.1715 -0.2103
16918SOL    HW153007   5.148   5.220   3.009  0.8190 -0.0053  0.3044
16918SOL    HW253008   5.264   5.287   2.937  0.8490 -0.8919 -0.4927
16919SOL     OW53009   5.218   5.876   7.404  0.8265  0.1915  0.2694
16919SOL    HW153010   5.205   5.942   7.473 -0.1228 -0.2419  0.5198
16919SOL    HW253011   5.144   5.816   7.414  1.2399 -0.4577 -0.4798
16920SOL     OW53012   5.403   9.450   9.430 -0.0952 -0.2053  0.0537
16920SOL    HW153013   5.330   9.408   9.475  0.7386  0.3458  2.0339
16920SOL    HW253014   5.479   9.397   9.453  0.2571 -0.4104 -1.4756
16921SOL     OW53015   4.469   3.114   2.680 -0.1134 -0.1921  0.4106
16921SOL    HW153016   4.517   3.031   2.677 -0.3637 -0.3259  0.0083
16921SOL    HW253017   4.381   3.091   2.707 -0.3116 -0.1193 -0.1685
16922SOL     OW53018   1.960   5.976   4.147  0.5191  0.1094  0.3013
16922SOL    HW153019   1.980   5.883   4.154 -0.3432 -0.1644 -0.7057
16922SOL    HW253020   1.877   5.980   4.101  0.4316  1.3798  0.5203
16923SOL     OW53021   6.046   2.342   5.483 -0.0594  0.0679  0.7991
16923SOL    HW153022   6.028   2.289   5.405 -0.6156  0.7799  0.4389
16923SOL    HW253023   5.965   2.338   5.534 -0.2432  0.8984  0.5773
16924SOL     OW53024   1.193  10.041   8.701  0.3451 -0.8887 -0.0013
16924SOL    HW153025   1.146  10.026   8.783  0.6852  0.9729  0.5828
16924SOL    HW253026   1.276   9.995   8.712  0.0950 -1.2440  0.4116
16925SOL     OW53027   9.814   0.176   5.113 -0.1654 -0.3467  0.2146
16925SOL    HW153028   9.894   0.215   5.077  1.3179 -0.4394  3.0993
16925SOL    HW253029   9.755   0.251   5.125  0.2312  0.0232 -0.0887
16926SOL     OW53030  10.073   1.984   3.355 -0.0726  0.0141 -0.2270
16926SOL    HW153031  10.054   2.078   3.354 -0.6582 -0.0689  1.0251
16926SOL    HW253032  10.164   1.978   3.328  0.2614  1.0333  0.5937
16927SOL     OW53033   6.948   4.806   9.643 -0.5111 -0.3808  0.1745
16927SOL    HW153034   6.867   4.817   9.593 -0.1442 -0.5366 -0.4667
16927SOL    HW253035   6.938   4.720   9.685  1.1416 -2.6001 -3.4753
16928SOL     OW53036   6.835   1.021   9.523 -0.3023  0.6578  0.1774
16928SOL    HW153037   6.870   0.975   9.599  0.2002  0.6999 -0.0270
16928SOL    HW253038   6.764   1.075   9.559  0.0499  0.8206  0.6506
16929SOL     OW53039   0.553   1.120   0.040 -0.1433 -0.6143  0.0538
16929SOL    HW153040   0.645   1.128   0.062 -0.4294 -0.2197  1.1471
16929SOL    HW253041   0.508   1.179   0.100 -0.9494  0.7365 -1.7605
16930SOL     OW53042   3.602   3.118   3.238 -0.3009  0.2423  0.2361
16930SOL    HW153043   3.683   3.164   3.214 -0.7929  2.3488  2.2731
16930SOL    HW253044   3.608   3.107   3.333 -2.1306 -0.1332  0.3426
16931SOL     OW53045   7.596   0.787   7.772  0.3536 -0.0819  0.1491
16931SOL    HW153046   7.567   0.761   7.860 -1.2483 -1.0082 -0.6090
16931SOL    HW253047   7.678   0.740   7.759  0.0320 -0.8231  0.7365
16932SOL     OW53048   9.911   8.332   6.076 -0.3946  0.0052  0.7963
16932SOL    HW153049   9.912   8.389   6.153  0.0112 -1.7276  2.1635
16932SOL    HW253050  10.002   8.324   6.050 -0.6875  2.2335 -1.2578
16933SOL     OW53051   4.456   5.914   3.472  0.3456 -0.6953 -0.2975
16933SOL    HW153052   4.406   5.925   3.553  0.3528  0.5918 -0.4541
16933SOL    HW253053   4.545   5.894   3.501  0.6309  0.9369  0.0662
16934SOL     OW53054   4.416   2.089   4.377  0.4268 -0.5203  0.1639
16934SOL    HW153055   4.503   2.109   4.412  0.3216  1.3135 -0.5210
16934SOL    HW253056   4.393   2.165   4.324 -1.4298 -1.1531 -0.0170
16935SOL     OW53057   3.728   3.018   1.992 -0.0372  0.1630  0.3450
16935SOL    HW153058   3.709   2.949   2.056 -0.9025  1.0286  1.0591
16935SOL    HW253059   3.643   3.035   1.950  0.0383  1.1528  0.5644
16936SOL     OW53060   6.646   8.718   9.026 -0.5830 -0.7357  0.5126
16936SOL    HW153061   6.648   8.748   8.935 -2.2688 -0.6128  0.4782
16936SOL    HW253062   6.682   8.791   9.076 -1.2717 -0.0900  0.0927
16937SOL     OW53063   6.756   0.522   6.459 -0.5501  0.6952  0.1033
16937SOL    HW153064   6.849   0.543   6.451 -0.6386  1.0677  0.0315
16937SOL    HW253065   6.719   0.594   6.510 -0.8626  0.7208 -0.1569
16938SOL     OW53066   6.048   2.165   8.903 -0.1735 -0.1527 -0.7532
16938SOL    HW153067   6.025   2.212   8.823  2.4429  0.0293 -1.4875
16938SOL    HW253068   6.144   2.172   8.908 -0.2292 -0.3415  2.2907
16939SOL     OW53069   2.026   6.763   4.214  0.2496 -0.1355  0.3108
16939SOL    HW153070   2.053   6.851   4.188 -0.6820  0.0010 -0.2353
16939SOL    HW253071   2.108   6.714   4.221  0.8669  1.0381  1.6612
16940SOL     OW53072   4.212   5.397   7.305  0.1974  0.4478  0.2646
16940SOL    HW153073   4.279   5.340   7.267 -1.0535 -0.3446 -0.8564
16940SOL    HW253074   4.172   5.343   7.374  2.2953  1.7895  2.7440
16941SOL     OW53075   7.298   6.671   0.459  0.4282  0.0093 -0.8463
16941SOL    HW153076   7.205   6.654   0.444  0.3931  0.8180 -1.5477
16941SOL    HW253077   7.306   6.671   0.555 -0.7163  2.1121 -0.7070
16942SOL     OW53078   9.337   7.349   3.163 -0.1820  0.3489 -0.1493
16942SOL    HW153079   9.267   7.284   3.161 -0.2402  0.4102 -0.1623
16942SOL    HW253080   9.302   7.422   3.112  0.4445 -0.1750 -1.3741
16943SOL     OW53081  10.583   4.439   3.495 -0.3200 -0.1716 -0.5982
16943SOL    HW153082  10.546   4.474   3.413  0.6429 -0.0189 -0.9838
16943SOL    HW253083  10.670   4.409   3.470  0.4850  1.0532  0.6399
16944SOL     OW53084   5.461   2.232   5.991  0.2775  0.3893  0.0419
16944SOL    HW153085   5.512   2.237   6.072  1.3202  1.2590 -0.6529
16944SOL    HW253086   5.394   2.300   6.000 -1.5266 -1.4325  1.4120
16945SOL     OW53087   2.386   8.879   1.378 -0.4181 -0.4156  0.1943
16945SOL    HW153088   2.404   8.970   1.358 -1.5249 -0.7863 -3.0317
16945SOL    HW253089   2.308   8.881   1.434  1.3779  0.6211  2.8342
16946SOL     OW53090   4.307   1.234   9.939 -0.2173  0.8452  0.1064
16946SOL    HW153091   4.242   1.273   9.880 -0.3720 -0.8411 -0.8710
16946SOL    HW253092   4.260   1.164   9.984  0.5152  0.6388  0.5722
16947SOL     OW53093   7.610   5.477   8.928  0.2342  0.0915  0.4196
16947SOL    HW153094   7.648   5.389   8.919 -0.4573 -0.1093 -0.7037
16947SOL    HW253095   7.545   5.482   8.858  1.4654  2.1591 -0.6228
16948SOL     OW53096   4.935   6.329   6.191  0.1052 -0.3810  0.3750
16948SOL    HW153097   4.893   6.279   6.262  1.8984 -1.3796  0.7974
16948SOL    HW253098   5.028   6.329   6.214  0.3397  2.1542 -0.2705
16949SOL     OW53099   3.477   1.835  10.371  0.1821  0.1455 -0.1375
16949SOL    HW153100   3.418   1.771  10.331 -0.5133  0.9736 -0.4572
16949SOL    HW253101   3.474   1.816  10.465  1.4203 -1.4773 -0.3807
16950SOL     OW53102  10.429   3.849   3.371 -0.5259  0.6054  0.9929
16950SOL    HW153103  10.475   3.887   3.296  0.4214 -2.3406 -0.0600
16950SOL    HW253104  10.339   3.880   3.361  0.1267  2.3902  0.1883
16951SOL     OW53105   1.456   9.260   6.357  0.3311  0.1341 -0.3722
16951SOL    HW153106   1.372   9.242   6.398  0.3045 -2.5567 -1.3782
16951SOL    HW253107   1.520   9.217   6.413  0.9244  1.1722 -0.2315
16952SOL     OW53108  10.104   3.376   4.777 -0.1721 -0.1493  0.0575
16952SOL    HW153109  10.199   3.388   4.781 -0.3602  1.0840  1.4130
16952SOL    HW253110  10.091   3.317   4.703  1.8138 -2.1511  1.1883
16953SOL     OW53111   1.959   2.818   0.296  0.2527 -0.1621 -0.1083
16953SOL    HW153112   2.002   2.821   0.382  1.0061 -0.3546 -0.4630
16953SOL    HW253113   1.908   2.899   0.292  0.1653 -0.1817  0.5476
16954SOL     OW53114   1.617   7.241   2.415  0.4827 -0.3324  0.1498
16954SOL    HW153115   1.544   7.280   2.464  1.0497 -0.0492  0.7812
16954SOL    HW253116   1.684   7.310   2.413  0.9837 -0.8186  0.1299
16955SOL     OW53117   5.327   0.479   6.703 -0.6533 -0.7124  1.1403
16955SOL    HW153118   5.339   0.405   6.762  0.4809 -0.2685  1.4827
16955SOL    HW253119   5.260   0.533   6.745 -2.0416 -1.8876  0.5237
16956SOL     OW53120  10.592   9.272   4.999 -0.1999 -0.1694  0.1417
16956SOL    HW153121  10.510   9.303   4.961 -0.5292 -0.0141  0.9617
16956SOL    HW253122  10.654   9.343   4.985 -0.7008  0.4804  1.1693
16957SOL     OW53123   2.580   0.097   4.337 -0.2433  0.1918  0.0151
16957SOL    HW153124   2.570   0.077   4.244 -4.4705  0.2981  0.2484
16957SOL    HW253125   2.574   0.011   4.380 -0.7598  0.3625  0.2859
16958SOL     OW53126   7.711   8.640   4.795  0.2852 -0.1688 -0.3791
16958SOL    HW153127   7.774   8.567   4.800  0.9524  0.4513  0.4936
16958SOL    HW253128   7.689   8.646   4.702  2.0054  0.0008 -0.8071
16959SOL     OW53129   0.952   1.037   6.942  0.0228  0.1279 -0.1211
16959SOL    HW153130   1.045   1.056   6.956  0.0171 -0.4166  0.7632
16959SOL    HW253131   0.908   1.119   6.961  0.2831  0.2316  0.0439
16960SOL     OW53132   7.148   6.403   1.473  0.1995  0.2905  0.2189
16960SOL    HW153133   7.140   6.451   1.391 -1.7962  1.6052  1.1078
16960SOL    HW253134   7.074   6.341   1.472  1.0563 -0.7737  0.3695
16961SOL     OW53135   6.586   5.084   3.568  0.7550  0.2280  0.2347
16961SOL    HW153136   6.591   5.123   3.655  0.9771 -1.0291  0.8120
16961SOL    HW253137   6.642   5.007   3.573 -0.0963 -0.4801 -0.6804
16962SOL     OW53138   9.391  10.379   0.816 -1.0006  0.3852  0.1355
16962SOL    HW153139   9.473  10.351   0.774 -0.6876  0.1800  0.8651
16962SOL    HW253140   9.418  10.445   0.880 -1.6123  1.6057 -0.8160
16963SOL     OW53141   7.994   1.399   9.516  0.4726 -0.0478  0.3273
16963SOL    HW153142   7.963   1.348   9.591  2.4767 -1.8168  0.0637
16963SOL    HW253143   7.929   1.383   9.448 -0.0676 -0.4878  0.9401
16964SOL     OW53144   4.924   0.657   9.666  0.3694 -0.3686  0.1415
16964SOL    HW153145   4.947   0.566   9.646  0.6790 -0.4881  0.9952
16964SOL    HW253146   4.830   0.662   9.652 -0.0148 -1.3839  2.0939
16965SOL     OW53147  10.304   7.313  10.453 -0.7004 -0.2875 -0.0459
16965SOL    HW153148  10.309   7.248  10.383 -0.8653 -1.5952  1.1179
16965SOL    HW253149  10.355   7.388  10.420  3.1745 -2.5431  0.1478
16966SOL     OW53150   6.138   0.857   2.956  0.0068  0.1182  0.4039
16966SOL    HW153151   6.066   0.803   2.923  1.0599 -0.6118 -0.7375
16966SOL    HW253152   6.168   0.810   3.034  2.9756 -2.8698 -2.2427
16967SOL     OW53153   1.004   8.963   2.218 -0.3554 -0.5529 -0.1905
16967SOL    HW153154   0.995   8.885   2.164 -2.6876 -0.2996 -0.2711
16967SOL    HW253155   1.002   9.036   2.156 -0.0557 -0.3511  0.0294
16968SOL     OW53156   7.809   2.780   7.825 -0.7036  0.5983 -0.4985
16968SOL    HW153157   7.807   2.705   7.884 -2.7899  0.7190 -0.3471
16968SOL    HW253158   7.765   2.750   7.746  0.9687  0.8212 -1.5655
16969SOL     OW53159   5.601   1.956   7.217  0.8480 -0.4251 -0.1440
16969SOL    HW153160   5.534   1.952   7.149 -0.2393  0.9210  0.7712
16969SOL    HW253161   5.679   1.987   7.172 -0.1090  1.3873 -0.6534
16970SOL     OW53162   5.497   5.884   3.660 -0.4598 -0.9568  0.0764
16970SOL    HW153163   5.409   5.892   3.695 -1.0296 -2.4945 -0.9170
16970SOL    HW253164   5.552   5.934   3.721 -2.2470  1.9594 -0.4764
16971SOL     OW53165   3.249   8.326   5.968  0.2950 -0.8436  0.2282
16971SOL    HW153166   3.307   8.393   6.004  0.7986 -0.9515 -0.3584
16971SOL    HW253167   3.238   8.264   6.040  2.0451 -1.5475 -0.0547
16972SOL     OW53168   5.106   2.364   2.720 -0.4160  0.1136 -0.1625
16972SOL    HW153169   5.095   2.348   2.627 -0.3884 -1.0545  0.0155
16972SOL    HW253170   5.141   2.453   2.726  1.0009 -0.3310 -1.3519
16973SOL     OW53171   7.293   4.073   4.011  0.7508  0.5458 -0.0687
16973SOL    HW153172   7.199   4.093   4.017  0.5435 -0.6862  1.6497
16973SOL    HW253173   7.297   3.994   3.957  0.7010  0.1677  0.4668
16974SOL     OW53174   1.190   9.197   6.422 -0.3314  0.2592  0.0442
16974SOL    HW153175   1.125   9.218   6.356  0.2449  0.9266 -0.3210
16974SOL    HW253176   1.201   9.277   6.473  0.0253  0.0817  0.2591
16975SOL     OW53177   5.834   4.644   9.422 -0.0815  0.1077  0.9185
16975SOL    HW153178   5.870   4.611   9.340  0.6125  1.0370  0.8286
16975SOL    HW253179   5.815   4.566   9.474 -1.7259 -0.5711 -0.5914
16976SOL     OW53180   4.830   8.581   1.267 -0.0833  0.0332 -0.2208
16976SOL    HW153181   4.765   8.541   1.209  1.0438 -0.4154 -1.2192
16976SOL    HW253182   4.833   8.673   1.240 -0.9359  0.2782  0.4532
16977SOL     OW53183   7.277   2.804   2.322  0.0070  0.1443  0.2451
16977SOL    HW153184   7.309   2.717   2.302  0.2980  0.2163  0.3911
16977SOL    HW253185   7.187   2.805   2.290 -0.8246 -0.9879  2.3326
16978SOL     OW53186   9.736   5.740   6.175  0.3376 -0.2066 -0.3302
16978SOL    HW153187   9.670   5.716   6.110  1.3176 -0.0132 -1.4355
16978SOL    HW253188   9.688   5.785   6.244 -0.7915 -0.8185 -0.7048
16979SOL     OW53189   9.952   3.913   2.125  0.4580 -0.1227 -0.7102
16979SOL    HW153190   9.910   3.954   2.049  2.0574  0.8397 -1.1187
16979SOL    HW253191  10.042   3.896   2.097  0.9278 -0.2689  0.7916
16980SOL     OW53192   4.692   8.039   3.977  0.2007 -0.4830  0.0150
16980SOL    HW153193   4.686   7.946   3.958  0.8415 -0.1698 -1.8978
16980SOL    HW253194   4.641   8.051   4.057  0.2274 -2.4808  0.3642
16981SOL     OW53195   4.455   4.035   6.492 -0.5595 -0.1814 -0.5278
16981SOL    HW153196   4.439   4.056   6.583 -0.7308  1.1695 -0.8508
16981SOL    HW253197   4.397   4.093   6.443  0.4832  0.0532 -1.5284
16982SOL     OW53198   1.438   4.713   0.488 -0.4152  0.2119  0.0093
16982SOL    HW153199   1.499   4.781   0.459 -1.2275  1.1144  0.3598
16982SOL    HW253200   1.407   4.673   0.406  1.8104 -1.3761 -0.1504
16983SOL     OW53201   4.978   6.660   6.307  0.1845  0.1527 -0.1138
16983SOL    HW153202   5.060   6.620   6.277 -0.1641 -0.7517  0.1276
16983SOL    HW253203   4.912   6.630   6.244 -0.4085 -1.1386  1.0669
16984SOL     OW53204   0.332   8.111  10.183  0.2295  0.1958  0.4051
16984SOL    HW153205   0.262   8.080  10.125  0.4624  0.8634 -0.2550
16984SOL    HW253206   0.286   8.154  10.255 -0.0905 -1.4537  1.2351
16985SOL     OW53207   3.320   6.528   8.761 -0.0272  0.5067  0.1321
16985SOL    HW153208   3.368   6.445   8.757 -0.8669  0.0339 -0.2296
16985SOL    HW253209   3.389   6.594   8.760  0.6303 -0.1612 -0.5319
16986SOL     OW53210   4.204  10.509   4.489 -0.5297 -0.2176  0.0717
16986SOL    HW153211   4.115  10.544   4.480 -0.0949  0.4341 -2.3357
16986SOL    HW253212   4.198  10.421   4.452 -0.4976 -0.8144  1.4291
16987SOL     OW53213   6.857   7.695   4.826 -0.6438  0.4117 -0.3468
16987SOL    HW153214   6.876   7.635   4.754  2.2206 -0.1118  0.7059
16987SOL    HW253215   6.841   7.780   4.784 -1.0530 -0.2935 -1.6538
16988SOL     OW53216  10.004   9.291   3.063 -0.4719 -0.3645 -0.0183
16988SOL    HW153217   9.976   9.248   2.982  0.9302 -1.1521 -0.1287
16988SOL    HW253218  10.086   9.247   3.085 -1.2918 -0.8676  2.3726
16989SOL     OW53219   3.688   4.006   7.030 -0.3833  0.0994 -0.8440
16989SOL    HW153220   3.748   4.067   7.074 -0.6498 -1.6933  2.3797
16989SOL    HW253221   3.611   4.004   7.087 -1.7247 -0.8361 -2.6066
16990SOL     OW53222   2.377   1.922   2.155 -0.2346 -0.0555  0.0138
16990SOL    HW153223   2.423   1.909   2.238 -0.5306  1.1390  0.3727
16990SOL    HW253224   2.339   1.836   2.136  0.1182 -0.4352  0.9322
16991SOL     OW53225   8.215   1.412   5.611 -0.2038  0.5685 -0.2067
16991SOL    HW153226   8.261   1.343   5.564 -1.8706 -0.4901 -0.3608
16991SOL    HW253227   8.252   1.409   5.699 -0.3605 -0.6331 -0.1680
16992SOL     OW53228   4.211   7.087   2.625 -0.0164  0.6099  0.1497
16992SOL    HW153229   4.220   7.103   2.531 -0.2556 -0.6995 -0.1301
16992SOL    HW253230   4.265   7.009   2.641  0.8399  1.4237  1.3095
16993SOL     OW53231   6.344   5.018   0.267 -0.2706 -0.8545  0.4310
16993SOL    HW153232   6.319   5.080   0.199 -0.5781 -1.1924  0.2339
16993SOL    HW253233   6.298   5.049   0.345 -0.2876 -0.7379  0.3756
16994SOL     OW53234   2.742   2.249   0.798  0.0358 -0.0532  0.2531
16994SOL    HW153235   2.698   2.171   0.762  0.5953  0.3044 -1.2920
16994SOL    HW253236   2.779   2.219   0.881 -0.6052 -1.1641  0.1611
16995SOL     OW53237   1.896   4.526   4.219  0.0954 -0.3277 -0.5402
16995SOL    HW153238   1.880   4.614   4.251  1.1113 -0.2371 -0.2412
16995SOL    HW253239   1.929   4.539   4.130 -1.0008 -0.4876 -0.9878
16996SOL     OW53240  10.155   7.680   3.681  0.2249 -0.4578  0.0411
16996SOL    HW153241  10.168   7.647   3.592 -0.7602 -0.9000  0.0514
16996SOL    HW253242  10.078   7.736   3.675  0.4331 -0.1179  0.5243
16997SOL     OW53243   6.393   5.672   7.427  0.2710  0.4330 -0.1276
16997SOL    HW153244   6.451   5.642   7.357  1.8496  0.6801  1.0216
16997SOL    HW253245   6.367   5.591   7.472  0.6279  0.4051  0.0309
16998SOL     OW53246   0.665   9.511   1.981 -0.1818 -0.3597 -0.3067
16998SOL    HW153247   0.757   9.491   2.001 -0.1150 -0.6460 -0.8604
16998SOL    HW253248   0.665   9.604   1.958  0.3103 -0.7764 -2.1209
16999SOL     OW53249  10.562   0.172   1.997 -0.4117  0.1273 -0.3497
16999SOL    HW153250  10.602   0.245   1.950  1.6785  0.3121  1.5427
16999SOL    HW253251  10.627   0.103   1.995 -1.0042 -0.4835  0.7040
17000SOL     OW53252   8.126   7.816   5.776 -0.3224 -0.4890 -0.3673
17000SOL    HW153253   8.143   7.799   5.869  0.5947  0.2761 -0.3797
17000SOL    HW253254   8.067   7.892   5.776  0.0814 -0.1708 -0.4116
17001SOL     OW53255   4.100   6.306   5.894 -0.0648  0.1888 -0.4548
17001SOL    HW153256   4.073   6.379   5.949 -0.4718 -0.1121 -0.2480
17001SOL    HW253257   4.063   6.228   5.937  0.3880 -0.1415 -0.6503
17002SOL     OW53258   0.812   6.336   2.429 -0.1952  0.1900 -0.0499
17002SOL    HW153259   0.806   6.409   2.490 -2.5683  0.8925 -0.9911
17002SOL    HW253260   0.817   6.258   2.484 -0.3523  0.9157  1.0091
17003SOL     OW53261   9.748   0.355   3.345  0.0215  0.4928 -0.1549
17003SOL    HW153262   9.752   0.443   3.382 -0.5324  1.3112 -1.9259
17003SOL    HW253263   9.733   0.298   3.420  0.9627  1.8278  1.1079
17004SOL     OW53264   6.917   6.752   5.029 -0.2687  0.3423 -0.3426
17004SOL    HW153265   6.896   6.659   5.031 -2.3266  0.7661 -0.3156
17004SOL    HW253266   6.861   6.788   4.960 -0.4991  1.7742  0.5575
17005SOL     OW53267   5.845  10.519   8.609  0.0267  0.2742  0.2030
17005SOL    HW153268   5.941  10.522   8.604  0.1078 -1.7875 -0.4953
17005SOL    HW253269   5.826  10.535   8.701  0.9368  2.0662  0.1094
17006SOL     OW53270   0.642  10.310   9.036 -0.5092  0.2249  0.0825
17006SOL    HW153271   0.686  10.328   9.119 -2.2367  0.0977  1.0916
17006SOL    HW253272   0.629  10.215   9.036  0.5926  0.0470 -0.9618
17007SOL     OW53273   2.417   7.678   6.294  0.1009  0.2228 -0.8878
17007SOL    HW153274   2.453   7.721   6.217  0.2528  1.3431 -0.2168
17007SOL    HW253275   2.470   7.710   6.367 -0.1279 -0.7055 -0.2911
17008SOL     OW53276   2.297   1.173   4.478  0.0505  0.1117  0.3256
17008SOL    HW153277   2.247   1.123   4.541  0.5376 -1.2967 -0.3706
17008SOL    HW253278   2.384   1.181   4.516 -0.2850  1.3153  0.8823
17009SOL     OW53279   5.994   1.033   1.013  0.3081 -0.0562 -0.7695
17009SOL    HW153280   5.902   1.047   0.990  0.0328  0.5760  0.5788
17009SOL    HW253281   5.992   1.016   1.107  1.4657 -1.3236 -0.9561
17010SOL     OW53282   8.075   6.957   1.317  0.3497 -0.3736  0.2479
17010SOL    HW153283   8.168   6.975   1.304  0.0974 -0.6513 -2.7295
17010SOL    HW253284   8.064   6.867   1.286 -1.0545 -0.0157 -0.3382
17011SOL     OW53285   1.185   7.384   6.532  0.0790 -0.0312 -0.1068
17011SOL    HW153286   1.206   7.448   6.463 -1.7183  0.2301 -0.4558
17011SOL    HW253287   1.199   7.299   6.491  1.3697  0.1103 -0.0019
17012SOL     OW53288   1.425   4.035   4.679 -0.2016  0.0112  0.4434
17012SOL    HW153289   1.412   4.121   4.720 -0.2671 -0.4346  1.3759
17012SOL    HW253290   1.389   3.973   4.742 -0.0170 -0.7189 -0.1599
17013SOL     OW53291   1.168   7.142   2.679  0.9066  0.4092 -0.6615
17013SOL    HW153292   1.232   7.121   2.747  0.2461  2.3374  0.6456
17013SOL    HW253293   1.220   7.159   2.601  1.7151 -1.3988 -0.5706
17014SOL     OW53294   6.252   3.523   3.079  0.2028 -0.2701 -0.0131
17014SOL    HW153295   6.189   3.496   3.013 -1.0426 -0.6037  1.2702
17014SOL    HW253296   6.282   3.441   3.119  2.1596 -0.1913 -1.1783
17015SOL     OW53297   1.873   1.060   4.114  0.0737  0.0473  0.1273
17015SOL    HW153298   1.782   1.058   4.086  0.3835 -0.1484 -0.9186
17015SOL    HW253299   1.915   1.124   4.056  0.6054  0.1044  0.5705
17016SOL     OW53300   7.144   1.431   5.940  0.2300  0.0053  0.1911
17016SOL    HW153301   7.140   1.510   5.886 -0.7487 -0.4288 -0.3938
17016SOL    HW253302   7.233   1.399   5.926  0.8225  1.2752  0.8574
17017SOL     OW53303   0.415   9.230   7.131  0.2644 -0.0930 -0.2999
17017SOL    HW153304   0.396   9.316   7.094 -1.0237 -0.8611 -1.4890
17017SOL    HW253305   0.390   9.168   7.063  0.7372 -1.4378  0.7097
17018SOL     OW53306  10.119   6.707   3.496  0.0751 -0.4178 -0.3631
17018SOL    HW153307  10.069   6.651   3.556 -0.8485  0.8595  0.0966
17018SOL    HW253308  10.133   6.788   3.544 -0.7614  0.6856 -1.8908
17019SOL     OW53309   9.121   5.040   7.618 -0.0060  0.1706 -0.4779
17019SOL    HW153310   9.051   5.071   7.560 -0.9727 -0.5011  0.2939
17019SOL    HW253311   9.114   5.095   7.696  0.5051  0.2739 -0.5030
17020SOL     OW53312   8.195   4.133  10.610  0.2071 -0.2596  0.5602
17020SOL    HW153313   8.183   4.040  10.590 -0.9768 -0.5789  2.4428
17020SOL    HW253314   8.255   4.165  10.543  3.2023 -3.0919  1.5870
17021SOL     OW53315   8.174   6.883   1.600  0.3882  0.0455 -0.1691
17021SOL    HW153316   8.220   6.925   1.527  0.1903  0.4450 -0.0663
17021SOL    HW253317   8.241   6.830   1.643  0.9107  1.0653  0.3224
17022SOL     OW53318   2.943   8.334   7.504  0.2721  0.0033  0.0865
17022SOL    HW153319   2.964   8.366   7.416 -1.1900 -1.1844 -0.7514
17022SOL    HW253320   2.997   8.255   7.514  1.3718  0.8061  0.8053
17023SOL     OW53321   6.754   6.782   8.530  0.1754  0.2369  0.0709
17023SOL    HW153322   6.847   6.795   8.551  0.2457  0.3940 -0.3211
17023SOL    HW253323   6.754   6.711   8.465 -0.0428 -0.2936  0.6463
17024SOL     OW53324   5.342   6.237   4.090  0.8857 -0.3850  0.1854
17024SOL    HW153325   5.340   6.145   4.063  1.7341 -0.3417 -0.0471
17024SOL    HW253326   5.411   6.276   4.038  0.3430  0.4621  0.0757
17025SOL     OW53327   1.196   7.577  10.528 -0.2119  0.6442 -0.3975
17025SOL    HW153328   1.221   7.503  10.583 -3.8078  1.2012  2.3876
17025SOL    HW253329   1.127   7.543  10.472 -0.4190  1.4015 -0.6181
17026SOL     OW53330   1.424   6.350   9.200  0.2398  0.3555 -0.0078
17026SOL    HW153331   1.421   6.436   9.159 -1.6217 -0.0313 -0.7956
17026SOL    HW253332   1.332   6.322   9.203  0.6843 -1.1098  1.2904
17027SOL     OW53333  10.484   4.562   6.312  0.3948  0.0224  0.2526
17027SOL    HW153334  10.444   4.507   6.244  0.1385 -0.2969  0.6597
17027SOL    HW253335  10.572   4.579   6.279  0.2439 -0.0550 -0.2049
17028SOL     OW53336   6.457   2.546   2.747  0.2552  0.7464  0.4081
17028SOL    HW153337   6.479   2.454   2.734  0.3065  0.5421  1.7120
17028SOL    HW253338   6.371   2.557   2.707 -1.2569 -0.7098  2.9383
17029SOL     OW53339   4.223   4.348   3.778  0.2414  0.2338  0.0958
17029SOL    HW153340   4.221   4.304   3.693 -0.1255 -0.1607  0.3112
17029SOL    HW253341   4.266   4.286   3.836  1.5751  0.9606 -0.0523
17030SOL     OW53342   7.562   5.451   0.713 -0.0952  0.5111  0.4631
17030SOL    HW153343   7.511   5.395   0.654 -0.3674 -0.7564  1.8434
17030SOL    HW253344   7.610   5.509   0.654  0.3400 -1.2906 -1.0959
17031SOL     OW53345   8.530   0.644  10.086 -0.4462  0.2195 -0.7933
17031SOL    HW153346   8.494   0.726  10.051  0.1424  0.1581 -1.5788
17031SOL    HW253347   8.559   0.597  10.008 -1.3431 -1.0157 -0.4055
17032SOL     OW53348   7.930   9.193   6.977  0.1619  0.1807 -0.1909
17032SOL    HW153349   7.982   9.113   6.983 -1.4009 -0.9237 -0.9118
17032SOL    HW253350   7.974   9.246   6.910  2.2441  0.7825  1.5496
17033SOL     OW53351   9.765   6.843   0.851  0.4281 -0.4878  0.0539
17033SOL    HW153352   9.705   6.862   0.923  0.4786 -1.9729  0.5203
17033SOL    HW253353   9.822   6.774   0.884  0.5957 -1.0483 -1.3351
17034SOL     OW53354   6.204   8.229  10.516  0.2657  0.2650  0.2602
17034SOL    HW153355   6.191   8.305  10.459  0.3682  0.7609  0.8904
17034SOL    HW253356   6.145   8.162  10.480 -1.0088  1.1460  0.6336
17035SOL     OW53357   5.046   8.277   1.230  0.2125  0.0911 -0.1977
17035SOL    HW153358   5.074   8.356   1.184 -1.9603  0.6640 -0.6084
17035SOL    HW253359   5.046   8.209   1.162 -0.0004  0.2342 -0.3430
17036SOL     OW53360   5.424   0.896   3.369  0.3846 -0.2205 -0.4285
17036SOL    HW153361   5.479   0.855   3.303 -0.6896 -2.4344 -0.0530
17036SOL    HW253362   5.480   0.901   3.447  0.9574  0.3177 -0.8671
17037SOL     OW53363   0.593   5.988   9.168 -0.0843 -0.2949  0.1436
17037SOL    HW153364   0.523   6.011   9.107  0.5051  0.5018 -0.2374
17037SOL    HW253365   0.587   6.053   9.238  0.0650 -0.4330  0.2862
17038SOL     OW53366  10.474   3.625   6.870  0.3562 -0.3845 -0.4750
17038SOL    HW153367  10.382   3.652   6.874 -0.0971 -1.6862 -1.2352
17038SOL    HW253368  10.478   3.548   6.927  0.8774 -0.5595 -0.7435
17039SOL     OW53369   6.358   2.775   8.223  0.1906  0.1818 -0.1415
17039SOL    HW153370   6.287   2.715   8.242  0.9084 -0.6365  0.0199
17039SOL    HW253371   6.317   2.862   8.220 -0.5510 -0.0724  1.5900
17040SOL     OW53372   3.719   1.896   5.054 -0.0979 -0.1900  0.1646
17040SOL    HW153373   3.673   1.919   5.135 -1.6808 -0.2800 -0.6678
17040SOL    HW253374   3.751   1.807   5.069 -0.4051 -0.2186  0.6707
17041SOL     OW53375   5.419   4.135   6.648 -0.0570 -0.1953  0.1752
17041SOL    HW153376   5.451   4.158   6.561 -0.2099 -0.9910 -0.0921
17041SOL    HW253377   5.489   4.084   6.687 -0.7313 -1.4201 -0.1816
17042SOL     OW53378   1.892   0.173   4.803  0.2252 -0.1988 -0.2795
17042SOL    HW153379   1.924   0.128   4.725  0.2577  0.7944 -0.8538
17042SOL    HW253380   1.951   0.248   4.814  0.1729 -0.2854  0.6575
17043SOL     OW53381   2.593   7.567   7.812  0.1748 -0.0687 -0.4786
17043SOL    HW153382   2.634   7.547   7.896 -0.1046 -0.0046 -0.3237
17043SOL    HW253383   2.665   7.593   7.755  0.1364  2.9213  0.6242
17044SOL     OW53384   7.663   5.059   0.598 -0.1117 -0.1939  0.2920
17044SOL    HW153385   7.591   5.018   0.551 -0.1513  0.2224 -0.0196
17044SOL    HW253386   7.620   5.119   0.660 -0.0447 -0.2103  0.3540
17045SOL     OW53387   5.704   8.086   3.477 -0.1534 -0.3843 -0.0155
17045SOL    HW153388   5.720   7.997   3.448  0.2254 -0.2313 -0.2806
17045SOL    HW253389   5.784   8.111   3.523 -0.0377  0.0146 -0.4280
17046SOL     OW53390   0.931   3.989   7.167  0.5843 -0.4380  0.0605
17046SOL    HW153391   0.991   3.916   7.153  0.2124 -0.4793 -1.4755
17046SOL    HW253392   0.973   4.041   7.236  1.9732 -0.9149 -0.3752
17047SOL     OW53393   5.423   8.548   5.799 -0.6787 -0.0286 -0.0942
17047SOL    HW153394   5.395   8.619   5.857  1.2035  0.9712 -0.3392
17047SOL    HW253395   5.439   8.474   5.857  0.4630  0.7378  0.6015
17048SOL     OW53396   6.930   2.717   6.548 -0.0003  0.2908 -0.1088
17048SOL    HW153397   6.895   2.775   6.480  0.5092  0.1017 -0.5405
17048SOL    HW253398   6.857   2.660   6.571  0.1448 -0.4267 -1.3461
17049SOL     OW53399   6.010  10.126   6.141 -0.6689  0.1164  0.2353
17049SOL    HW153400   6.001  10.200   6.201 -1.6076  0.9483 -0.8904
17049SOL    HW253401   5.981  10.159   6.056 -0.5410 -1.3756 -0.4363
17050SOL     OW53402   1.200   4.845   9.715  0.1097 -0.6194  0.1920
17050SOL    HW153403   1.228   4.783   9.647  1.9580  1.1201 -0.7243
17050SOL    HW253404   1.119   4.883   9.682  0.8935  0.0673 -0.9888
17051SOL     OW53405   1.279  10.653   5.369  0.3061 -0.0101 -0.1028
17051SOL    HW153406   1.220  10.728   5.380  0.6352  0.2701 -0.2473
17051SOL    HW253407   1.322  10.644   5.454  1.6086  1.1086 -0.6014
17052SOL     OW53408   2.798   0.335   5.036 -0.0197  0.1684  0.1023
17052SOL    HW153409   2.809   0.400   5.106 -0.4895  0.0134  0.3250
17052SOL    HW253410   2.705   0.338   5.015 -0.0358 -0.3896  0.0785
17053SOL     OW53411   1.930   8.616   8.284 -0.3543  0.3019  0.3994
17053SOL    HW153412   1.867   8.681   8.313 -2.3080 -1.6491  0.8281
17053SOL    HW253413   1.891   8.579   8.204  0.4998 -0.5912  0.3741
17054SOL     OW53414   8.401  10.205  10.442 -0.2159  0.5264  0.0524
17054SOL    HW153415   8.314  10.242  10.457 -1.3602 -2.2030  0.7456
17054SOL    HW253416   8.458  10.252  10.503 -1.9948 -0.2334  2.4613
17055SOL     OW53417   8.710   4.103   6.197  0.1310 -0.3253  0.2562
17055SOL    HW153418   8.618   4.127   6.206 -0.1251 -0.2159 -2.0471
17055SOL    HW253419   8.708   4.012   6.165  0.7511  0.0054 -0.7766
17056SOL     OW53420   0.897   5.030  10.307 -0.0903  0.1831 -0.5333
17056SOL    HW153421   0.834   4.959  10.301  0.2216 -0.0140 -1.6186
17056SOL    HW253422   0.845   5.110  10.294 -0.5436  0.2374  1.2932
17057SOL     OW53423   9.344   1.145   7.788  0.1011 -0.2504  0.3352
17057SOL    HW153424   9.391   1.198   7.853 -0.8127  0.0578  0.7640
17057SOL    HW253425   9.413   1.100   7.739  0.8089 -0.9830  1.9317
17058SOL     OW53426   1.800   9.217   1.949  0.3894 -0.3727  0.4345
17058SOL    HW153427   1.716   9.214   1.902  0.9925 -0.0733 -0.7070
17058SOL    HW253428   1.790   9.288   2.011 -0.2398 -0.4049  0.3827
17059SOL     OW53429   0.980   6.274   5.379  0.2079 -0.1296 -0.0647
17059SOL    HW153430   1.059   6.285   5.327  0.1247  1.1122  0.0374
17059SOL    HW253431   0.981   6.348   5.440 -0.3528 -0.8353  0.8401
17060SOL     OW53432   8.756   5.617   2.207  0.3364  0.3031 -0.5060
17060SOL    HW153433   8.662   5.603   2.191  0.3409 -0.8188  0.4002
17060SOL    HW253434   8.800   5.556   2.148  0.5708  1.8028 -1.9639
17061SOL     OW53435   0.229   2.076  10.107  0.3941 -0.0121  0.0631
17061SOL    HW153436   0.178   2.132  10.166  1.9117  1.2908  0.1945
17061SOL    HW253437   0.212   2.111  10.020  1.3500  0.7089  0.1459
17062SOL     OW53438   5.958   9.044   1.859 -0.0430  0.2183 -0.0960
17062SOL    HW153439   6.012   9.122   1.845  1.9529 -1.0060  0.2758
17062SOL    HW253440   5.869   9.071   1.835  0.3775  2.8849  0.9913
17063SOL     OW53441   2.692   4.920   9.254  0.0143 -0.4083 -0.2327
17063SOL    HW153442   2.652   4.896   9.338 -0.1525  1.4477  0.2677
17063SOL    HW253443   2.621   4.961   9.204 -0.2517 -2.6826 -1.8932
17064SOL     OW53444   7.714   1.495   9.815  0.0731  0.3958 -0.1811
17064SOL    HW153445   7.679   1.535   9.736  1.5836 -1.2423 -1.7703
17064SOL    HW253446   7.639   1.491   9.875 -1.0446  1.9042 -1.3959
17065SOL     OW53447   3.644  10.401   8.783 -0.2320  0.3944 -0.1220
17065SOL    HW153448   3.586  10.388   8.708  0.6566 -1.0256 -0.5842
17065SOL    HW253449   3.595  10.366   8.858 -0.0516 -0.7047 -0.4965
17066SOL     OW53450   7.496   7.540   9.026 -0.0015 -0.0873 -0.1986
17066SOL    HW153451   7.434   7.608   9.052  1.2371  1.2415 -0.5202
17066SOL    HW253452   7.525   7.501   9.109  0.1443  0.6079  0.0882
17067SOL     OW53453   9.662   5.358   4.585  0.6118 -0.3992 -0.2079
17067SOL    HW153454   9.626   5.342   4.672  2.4137  0.9429  0.8608
17067SOL    HW253455   9.741   5.304   4.582  0.9336  0.0876 -0.7427
17068SOL     OW53456   9.016   3.744   2.521  0.0203 -0.3799  0.2633
17068SOL    HW153457   9.039   3.829   2.484  1.6513 -0.2197  1.5645
17068SOL    HW253458   8.948   3.763   2.586  0.7088 -0.0086  0.8752
17069SOL     OW53459   6.844   9.700   6.444 -0.5433  0.0461 -0.0294
17069SOL    HW153460   6.860   9.684   6.537  1.0584  0.8608 -0.1291
17069SOL    HW253461   6.784   9.630   6.418 -1.6726  0.2725  1.7785
17070SOL     OW53462   2.253   6.362   7.921  0.2780  0.1499  0.0800
17070SOL    HW153463   2.283   6.448   7.893  0.1873  0.3245  0.5136
17070SOL    HW253464   2.315   6.335   7.988 -0.5721  0.5725  1.0770
17071SOL     OW53465   5.990   0.557   1.210  0.0272 -0.0539 -0.1520
17071SOL    HW153466   6.030   0.506   1.139  0.1443 -0.4797  0.2166
17071SOL    HW253467   5.977   0.644   1.172 -0.3761 -0.4098 -0.8620
17072SOL     OW53468   5.231   0.825   1.085 -0.1508  0.0368 -0.2611
17072SOL    HW153469   5.216   0.919   1.088  1.2232  0.2533  1.0352
17072SOL    HW253470   5.223   0.797   1.176  0.8836 -0.8434 -0.4226
17073SOL     OW53471   6.682   7.288   6.397  0.1883  0.3981  0.1007
17073SOL    HW153472   6.732   7.235   6.460 -0.7467  0.1504  0.6430
17073SOL    HW253473   6.594   7.252   6.399 -0.4779  1.9622  0.4795
17074SOL     OW53474  10.339   0.661   7.395  0.0386 -0.0898 -0.0120
17074SOL    HW153475  10.421   0.697   7.429 -0.5892  1.0192  0.3747
17074SOL    HW253476  10.305   0.607   7.466 -0.7523  1.3889  0.7687
17075SOL     OW53477   0.019   5.788   8.844 -0.0766 -0.3820  0.7048
17075SOL    HW153478   0.015   5.836   8.927 -0.5996  0.5738  0.1431
17075SOL    HW253479  -0.056   5.819   8.795  1.8293  1.3655 -1.3444
17076SOL     OW53480   6.912   3.260   8.012  0.3552 -0.6144 -0.8531
17076SOL    HW153481   6.919   3.165   8.027  0.5885 -0.6506 -1.1801
17076SOL    HW253482   6.953   3.299   8.089  1.4502 -0.8000 -1.3275
17077SOL     OW53483   6.734   3.389   1.063  0.4255  0.0330 -0.3065
17077SOL    HW153484   6.664   3.406   1.000  2.2279  0.0638 -2.4088
17077SOL    HW253485   6.755   3.475   1.100  1.1303  0.4547 -1.6530
17078SOL     OW53486   3.510   8.214   1.922  0.7323  0.9221  0.2991
17078SOL    HW153487   3.585   8.162   1.947 -1.1577 -1.8745  0.5523
17078SOL    HW253488   3.506   8.283   1.989  2.2934  0.3663  1.0215
17079SOL     OW53489   4.409   2.906   7.345  0.5910 -0.3564  0.6197
17079SOL    HW153490   4.344   2.847   7.384 -2.5421  2.8377  0.7703
17079SOL    HW253491   4.382   2.913   7.253  0.1172  1.6793  0.8806
17080SOL     OW53492   4.046   8.462   9.078  0.2122 -0.1277 -0.5682
17080SOL    HW153493   3.994   8.457   8.998  0.8399 -1.4183 -0.9291
17080SOL    HW253494   4.135   8.439   9.050  0.5212 -0.1742  0.4244
17081SOL     OW53495   5.483   7.029   7.962 -0.4265  0.6728  0.1021
17081SOL    HW153496   5.516   6.993   8.045 -0.5749  2.7109  1.1154
17081SOL    HW253497   5.424   6.961   7.929  1.4054 -1.1767  0.4540
17082SOL     OW53498   0.106   4.051   8.398 -0.0422  0.4841  0.1372
17082SOL    HW153499   0.152   4.032   8.316  0.7845 -1.8190  1.0416
17082SOL    HW253500   0.109   3.968   8.446  1.5460  2.3083  3.4987
17083SOL     OW53501   6.614   1.675   7.668  0.2743  0.2110 -0.0713
17083SOL    HW153502   6.641   1.583   7.671  1.3040  0.4922 -0.2433
17083SOL    HW253503   6.605   1.695   7.575  1.3932  0.6379 -0.1073
17084SOL     OW53504   4.305   4.217   8.075  0.0296 -0.3522 -0.4908
17084SOL    HW153505   4.345   4.188   8.157 -1.3546 -2.0994 -0.3877
17084SOL    HW253506   4.338   4.306   8.063  0.2538 -0.0348  1.9715
17085SOL     OW53507   3.572  10.044  10.242  0.6733  0.7008  0.1037
17085SOL    HW153508   3.482  10.022  10.265  0.7414 -0.9691 -1.0675
17085SOL    HW253509   3.621  10.033  10.324  0.0905 -0.0398  0.3660
17086SOL     OW53510   9.591   5.549   4.015  0.3589  0.1506 -0.5390
17086SOL    HW153511   9.533   5.492   3.964  0.0506  0.5670 -0.6625
17086SOL    HW253512   9.653   5.490   4.056 -0.1175 -0.2991 -0.4614
17087SOL     OW53513   7.084   7.178   2.529 -0.0836  0.2997 -0.7946
17087SOL    HW153514   7.000   7.219   2.550 -0.9237 -0.5233 -2.2885
17087SOL    HW253515   7.101   7.118   2.601 -1.1086  0.0218 -0.7743
17088SOL     OW53516   6.017   6.838   2.958 -0.4651  1.0529  0.1324
17088SOL    HW153517   5.977   6.817   3.042 -1.2000  1.6141 -0.0679
17088SOL    HW253518   5.948   6.819   2.894  0.2548  0.1314 -0.3975
17089SOL     OW53519  10.609   0.873   3.745 -0.1419  0.1247  0.0831
17089SOL    HW153520  10.581   0.802   3.687 -1.0809 -0.2435  0.9429
17089SOL    HW253521  10.660   0.931   3.690  0.7123 -1.2570 -0.6297
17090SOL     OW53522   1.284   9.315   7.153  0.1243  0.2676 -0.0027
17090SOL    HW153523   1.209   9.357   7.196  0.0732 -0.3245  0.4996
17090SOL    HW253524   1.245   9.267   7.080  0.2073  1.2410 -0.7216
17091SOL     OW53525   8.619   5.635   3.551  0.0845  0.1046  0.0592
17091SOL    HW153526   8.703   5.666   3.586  0.3854 -0.3190 -0.2804
17091SOL    HW253527   8.600   5.556   3.601  1.0986 -1.1750 -1.4876
17092SOL     OW53528   1.764   2.130   7.123 -0.6933  0.7495  0.1945
17092SOL    HW153529   1.690   2.185   7.148 -1.2646  0.0787  0.0065
17092SOL    HW253530   1.724   2.047   7.094  0.1836 -0.1582  1.4665
17093SOL     OW53531   7.175   7.508   6.236  0.0096  0.0996  0.0396
17093SOL    HW153532   7.079   7.502   6.242 -0.0981 -0.7747 -1.8702
17093SOL    HW253533   7.191   7.542   6.148  1.4946 -3.3812 -1.1874
17094SOL     OW53534   9.582   9.173  10.259 -0.1395 -0.7517 -0.4583
17094SOL    HW153535   9.550   9.263  10.254 -0.7416 -0.8915  0.4977
17094SOL    HW253536   9.675   9.182  10.281 -0.6140 -0.3265  1.6621
17095SOL     OW53537   7.937   5.385   8.597  0.9489  0.1635 -0.7815
17095SOL    HW153538   8.015   5.426   8.635  0.1319  1.6729 -0.6590
17095SOL    HW253539   7.972   5.322   8.533  2.3143 -1.4490  1.4256
17096SOL     OW53540   9.653   1.397   7.087  0.2645 -0.2142  0.7417
17096SOL    HW153541   9.592   1.323   7.092  1.1030 -1.1755 -1.8993
17096SOL    HW253542   9.599   1.470   7.058  0.2337 -0.9868 -1.2896
17097SOL     OW53543   8.748   3.479   8.023  0.0081  0.2042 -0.0086
17097SOL    HW153544   8.714   3.460   8.110 -0.5787 -1.4396 -0.5552
17097SOL    HW253545   8.671   3.476   7.966  0.7481 -1.6979 -1.0020
17098SOL     OW53546   7.078   7.400   7.586  0.2176  0.5344  0.0050
17098SOL    HW153547   7.139   7.328   7.568  0.3575  0.4932  0.6156
17098SOL    HW253548   7.088   7.459   7.511 -0.9478 -0.7692 -1.2524
17099SOL     OW53549   1.665   1.380   1.733 -0.3417 -0.7352 -0.1489
17099SOL    HW153550   1.573   1.407   1.738 -0.0825  0.0975  0.3813
17099SOL    HW253551   1.690   1.362   1.824  0.0665 -0.7927 -0.2694
17100SOL     OW53552   9.689   4.699   3.791 -0.4925 -0.7180 -0.3170
17100SOL    HW153553   9.609   4.647   3.782 -1.3989  0.7155 -0.8203
17100SOL    HW253554   9.661   4.779   3.835  0.8317 -0.5306  0.2286
17101SOL     OW53555  10.018  10.205   7.002  0.2979  0.3882 -0.2061
17101SOL    HW153556  10.024  10.265   7.076  1.4244  0.2124 -0.1332
17101SOL    HW253557  10.067  10.249   6.932  2.6997 -1.1853  0.3841
17102SOL     OW53558   1.590   4.859   0.136 -0.2787  0.5425 -0.9147
17102SOL    HW153559   1.502   4.877   0.168  0.3063  2.5480 -0.2707
17102SOL    HW253560   1.637   4.826   0.213  0.5287  3.2575 -0.1194
17103SOL     OW53561   4.233   9.174   7.571 -0.2795  0.3606 -0.1270
17103SOL    HW153562   4.276   9.253   7.605 -0.1040  1.9087 -3.5070
17103SOL    HW253563   4.304   9.115   7.549 -0.2106  0.6218 -0.6074
17104SOL     OW53564   6.559   7.684   8.821  0.0423 -0.2760 -1.1374
17104SOL    HW153565   6.468   7.694   8.795 -0.0496 -0.3444 -0.8522
17104SOL    HW253566   6.570   7.744   8.895  0.4469  0.3306 -1.6748
17105SOL     OW53567  10.067   6.973   0.634  0.3826  0.0378  0.2772
17105SOL    HW153568  10.066   6.976   0.538  0.0827 -0.5443  0.2564
17105SOL    HW253569   9.991   7.025   0.660  0.5719  0.3526  0.2063
17106SOL     OW53570   6.055   7.867   5.797  0.3455 -0.2689 -0.1411
17106SOL    HW153571   6.008   7.915   5.865  0.9236  0.0367  0.0529
17106SOL    HW253572   6.033   7.775   5.812 -0.4443 -0.1055 -0.2628
17107SOL     OW53573   8.134   0.519   8.614 -0.0896  0.0208  0.2250
17107SOL    HW153574   8.091   0.484   8.535  1.1993 -1.6033  0.1919
17107SOL    HW253575   8.071   0.502   8.684 -0.2714 -0.6889 -0.0952
17108SOL     OW53576   0.962   6.393   8.586  0.1438 -0.2764 -0.1618
17108SOL    HW153577   0.979   6.327   8.519 -0.5823 -1.3005  0.6509
17108SOL    HW253578   0.987   6.476   8.544  0.5848 -0.9960 -1.3654
17109SOL     OW53579   3.376   9.025   8.330 -0.8146 -0.3561 -0.4478
17109SOL    HW153580   3.400   9.116   8.312  1.0286 -0.7514 -0.1963
17109SOL    HW253581   3.281   9.021   8.314 -1.2043  1.9292  0.9338
17110SOL     OW53582   4.051   1.622   9.034 -0.0906  0.3076 -0.0450
17110SOL    HW153583   4.089   1.707   9.056 -0.2926 -0.0016  1.6610
17110SOL    HW253584   4.024   1.585   9.119  0.9929 -1.9298 -0.5884
17111SOL     OW53585   5.636   9.327   5.064  0.5356 -0.5916  0.2076
17111SOL    HW153586   5.607   9.332   5.155  1.9363  2.1750  0.6180
17111SOL    HW253587   5.562   9.289   5.017 -2.3572  2.6482  1.7169
17112SOL     OW53588   5.744   0.786   8.187  0.9118  0.5128 -0.0461
17112SOL    HW153589   5.744   0.830   8.272  0.6015  1.2018 -0.3968
17112SOL    HW253590   5.788   0.848   8.128  1.3618 -0.0734 -0.3317
17113SOL     OW53591   8.760  10.524   9.281  0.3514 -0.5749 -0.0619
17113SOL    HW153592   8.833  10.580   9.308 -0.5166 -0.6104  2.6525
17113SOL    HW253593   8.768  10.519   9.186  3.1692  0.3721  0.0287
17114SOL     OW53594   1.967   3.470   2.321  0.7869  0.2559  0.1704
17114SOL    HW153595   1.988   3.534   2.389 -1.5216 -0.4243  1.6252
17114SOL    HW253596   1.984   3.385   2.362  0.4041 -0.1405 -0.4818
17115SOL     OW53597   5.697  10.295   3.907  0.9053  0.1876 -0.4328
17115SOL    HW153598   5.754  10.283   3.983  0.2130 -1.9646 -0.1873
17115SOL    HW253599   5.707  10.215   3.857 -0.9234  0.3086 -1.0560
17116SOL     OW53600   2.525   3.241   2.288  0.0620 -0.1161  0.2888
17116SOL    HW153601   2.498   3.209   2.202  0.5148 -0.0693  0.1313
17116SOL    HW253602   2.516   3.336   2.281  1.9327  0.0454 -0.3409
17117SOL     OW53603   2.421   4.758   8.840  0.2469  1.0055 -0.9764
17117SOL    HW153604   2.373   4.761   8.923  0.9900  1.8508 -0.5583
17117SOL    HW253605   2.382   4.827   8.788  0.4770  1.1675 -0.9348
17118SOL     OW53606  10.110   5.740   4.505 -1.4108  0.1192 -0.2802
17118SOL    HW153607  10.040   5.785   4.459 -1.0215  1.4150  0.3382
17118SOL    HW253608  10.083   5.742   4.597 -0.7892  0.2455 -0.0909
17119SOL     OW53609   5.803   9.713   4.813  0.1879  0.0872 -0.6975
17119SOL    HW153610   5.743   9.723   4.739  1.5215  1.4210 -1.6809
17119SOL    HW253611   5.751   9.740   4.890 -1.6917 -2.7969 -0.8293
17120SOL     OW53612   1.218   5.565   6.709  0.2593  0.4706 -0.3785
17120SOL    HW153613   1.203   5.471   6.719 -0.0259  0.3805 -1.5541
17120SOL    HW253614   1.186   5.585   6.622  1.7956  1.3574 -0.7790
17121SOL     OW53615   9.972   2.231   3.867 -0.0999  0.0982 -0.3968
17121SOL    HW153616   9.947   2.235   3.959  2.2679  0.2573  0.3137
17121SOL    HW253617  10.068   2.222   3.869  0.2711  2.3346 -2.8430
17122SOL     OW53618   9.103   9.406   4.181 -0.1504 -0.0027 -0.2667
17122SOL    HW153619   9.076   9.317   4.202 -1.1533  0.1792 -0.7102
17122SOL    HW253620   9.131   9.402   4.089  0.3052  0.0377 -0.1333
17123SOL     OW53621   1.287   3.262   1.107  0.5101 -0.1179 -0.2973
17123SOL    HW153622   1.308   3.193   1.045  1.2395  0.9811 -1.3200
17123SOL    HW253623   1.371   3.306   1.123  0.0139  0.6988  0.1136
17124SOL     OW53624   6.429   3.702   7.006  0.5077  0.4317 -0.0561
17124SOL    HW153625   6.487   3.694   6.930 -0.1422 -1.3630 -0.4100
17124SOL    HW253626   6.347   3.662   6.978 -0.0989  0.6851  1.2670
17125SOL     OW53627   2.198   4.554   3.404 -0.2073 -0.5976  0.2385
17125SOL    HW153628   2.183   4.645   3.430 -1.8787 -0.3052 -1.5216
17125SOL    HW253629   2.224   4.559   3.312 -3.0778 -1.9547 -0.7866
17126SOL     OW53630   8.921   8.170   2.512  0.1200 -0.0279  0.1596
17126SOL    HW153631   8.917   8.171   2.608  0.4588  1.2857  0.1798
17126SOL    HW253632   8.995   8.113   2.492 -0.2725 -0.7279  0.6561
17127SOL     OW53633   4.297   2.196   8.928 -1.2408  0.2277 -0.0123
17127SOL    HW153634   4.283   2.210   9.021 -1.2167  0.7951 -0.0883
17127SOL    HW253635   4.285   2.102   8.915 -4.4401  0.4947  0.0495
17128SOL     OW53636   3.366   7.851  10.062 -0.3429  0.0903  0.2710
17128SOL    HW153637   3.437   7.810  10.111  1.1236 -0.1348 -1.9277
17128SOL    HW253638   3.325   7.910  10.125  0.7914 -0.9138  2.0378
17129SOL     OW53639   1.068   4.048   4.895 -0.0177  0.0802 -0.0331
17129SOL    HW153640   1.120   4.052   4.975 -2.2582 -0.7797  1.5652
17129SOL    HW253641   1.094   4.126   4.845  1.6563  0.4710  1.3586
17130SOL     OW53642   5.482   9.323   9.162  0.1407  0.0431  0.2879
17130SOL    HW153643   5.505   9.236   9.128  2.0350  0.2313  0.9137
17130SOL    HW253644   5.440   9.305   9.246  1.7704 -0.2899  1.0764
17131SOL     OW53645   2.383   0.421   4.107  0.6369  0.3486 -0.0057
17131SOL    HW153646   2.331   0.496   4.135  0.0670 -0.4794  1.2180
17131SOL    HW253647   2.363   0.352   4.170  0.2061 -1.2518 -1.7986
17132SOL     OW53648   4.691   9.713   1.525 -0.0465 -0.3706  0.1190
17132SOL    HW153649   4.759   9.780   1.522 -0.8681  0.4310 -1.4489
17132SOL    HW253650   4.682   9.683   1.435 -1.0487 -1.2033  0.4747
17133SOL     OW53651   0.654   6.618   8.366  0.2750 -0.6447  0.1299
17133SOL    HW153652   0.639   6.540   8.420  2.0268 -1.3927 -0.3815
17133SOL    HW253653   0.647   6.586   8.276  1.9627 -0.4525 -0.0920
17134SOL     OW53654   3.342   2.094   6.302  0.2303  0.3969  0.1796
17134SOL    HW153655   3.328   2.071   6.210  0.4487  0.8979  0.0167
17134SOL    HW253656   3.300   2.180   6.312 -0.8470 -0.1889  0.8538
17135SOL     OW53657   6.581   4.958  10.568  0.0239  0.0076 -0.1955
17135SOL    HW153658   6.601   4.959  10.661 -0.0845 -0.4565 -0.1635
17135SOL    HW253659   6.488   4.934  10.563 -0.0250  0.2301 -0.4152
17136SOL     OW53660   6.371   6.364   9.028 -0.0443  0.2936  0.4220
17136SOL    HW153661   6.319   6.295   9.068 -1.8682  0.8557 -0.8561
17136SOL    HW253662   6.415   6.407   9.102 -1.0627 -0.4693  1.5028
17137SOL     OW53663   3.492   8.089   2.336 -0.0036 -0.2469 -0.2078
17137SOL    HW153664   3.555   8.017   2.345  0.7002  0.5188  1.4410
17137SOL    HW253665   3.408   8.045   2.318  0.8031 -1.3284 -1.4700
17138SOL     OW53666   8.746   1.096   8.555 -0.7820 -0.3675  0.0243
17138SOL    HW153667   8.695   1.067   8.479  0.3972  0.7879 -1.2749
17138SOL    HW253668   8.796   1.018   8.580  1.6756  0.0938 -2.8434
17139SOL     OW53669   5.816   5.436   5.460  0.6230  0.0221  0.4659
17139SOL    HW153670   5.766   5.358   5.483  2.1845 -1.1536  0.0754
17139SOL    HW253671   5.834   5.479   5.543  0.8732 -0.7775  0.8364
17140SOL     OW53672   6.768   5.098   6.594 -0.2586 -0.1930 -0.3026
17140SOL    HW153673   6.678   5.128   6.604  0.3938  1.9265 -0.3755
17140SOL    HW253674   6.775   5.025   6.656 -1.1639  1.6067  2.0956
17141SOL     OW53675   1.409   2.999   1.820 -0.1167  0.0786 -0.0618
17141SOL    HW153676   1.408   3.078   1.766 -2.6662  0.4922  0.4765
17141SOL    HW253677   1.498   2.965   1.809  0.2543  1.5140 -2.4659
17142SOL     OW53678   4.263   4.622   9.116  0.2928  0.6125 -0.1626
17142SOL    HW153679   4.237   4.695   9.060 -0.9129 -0.6013 -1.2553
17142SOL    HW253680   4.191   4.614   9.179 -0.0982 -0.2373 -0.6911
17143SOL     OW53681   8.584   3.930   6.571  0.6701  0.6490  0.7262
17143SOL    HW153682   8.600   4.021   6.549 -0.4572  0.3888 -1.4584
17143SOL    HW253683   8.508   3.932   6.629  1.0959  1.1002  1.2916
17144SOL     OW53684   2.829   6.643   1.031  0.4332  0.1204 -0.4935
17144SOL    HW153685   2.846   6.698   0.954 -0.1047 -0.4967 -1.0620
17144SOL    HW253686   2.881   6.683   1.101  1.9464 -0.0590 -1.4702
17145SOL     OW53687   4.300   9.631   1.505  0.4819  0.1904 -0.2844
17145SOL    HW153688   4.217   9.676   1.518  0.8752  1.1384 -1.0082
17145SOL    HW253689   4.292   9.552   1.559 -0.4167  0.8478  0.5847
17146SOL     OW53690   3.815   5.730   2.273  0.0024 -0.5278 -0.7169
17146SOL    HW153691   3.879   5.690   2.215 -0.1355 -1.2428 -0.3912
17146SOL    HW253692   3.732   5.725   2.225 -0.3696 -2.3163  0.0310
17147SOL     OW53693   3.387   2.014  10.597 -0.0807  0.4456  0.7855
17147SOL    HW153694   3.435   2.008  10.679  0.9945  1.2967  0.2560
17147SOL    HW253695   3.446   2.062  10.538 -0.3917 -0.9791 -0.7867
17148SOL     OW53696   8.473   8.792   5.145  0.3563 -0.0798  0.1388
17148SOL    HW153697   8.556   8.826   5.176  0.3202 -0.5672  0.7992
17148SOL    HW253698   8.433   8.751   5.222 -0.3302 -0.1718 -0.2509
17149SOL     OW53699   7.879   0.775   4.001  0.9183  0.6317 -0.0277
17149SOL    HW153700   7.873   0.816   3.914  0.5819  0.2478 -0.1933
17149SOL    HW253701   7.928   0.837   4.054  2.5777  0.1411 -0.9347
17150SOL     OW53702  10.327   9.384   4.914  0.5808 -0.2914 -0.1887
17150SOL    HW153703  10.356   9.448   4.979 -0.6494  1.5676 -1.3886
17150SOL    HW253704  10.238   9.361   4.941  0.7413 -0.9516 -0.1951
17151SOL     OW53705   2.594   2.807   9.965  0.6785 -0.2151 -0.2231
17151SOL    HW153706   2.646   2.887   9.965  1.3097 -0.6113 -0.0200
17151SOL    HW253707   2.638   2.750  10.029 -0.2272 -0.4256  0.2425
17152SOL     OW53708   7.204   3.208   3.495  0.8892 -0.2886 -0.5107
17152SOL    HW153709   7.263   3.220   3.421  0.5849 -2.8368 -1.2635
17152SOL    HW253710   7.117   3.203   3.456  0.5997 -0.5584  0.1516
17153SOL     OW53711   3.896   7.784   0.062 -0.0983  0.2619  0.1467
17153SOL    HW153712   3.989   7.760   0.061  0.5118  2.2768  1.2262
17153SOL    HW253713   3.878   7.816  -0.026  0.9749  2.0970  0.5205
17154SOL     OW53714   7.063   7.355   3.810 -0.6238  0.1577 -0.1490
17154SOL    HW153715   7.020   7.270   3.804  0.1875 -0.4603  1.9253
17154SOL    HW253716   6.991   7.417   3.826 -1.1137 -0.2812 -0.6138
17155SOL     OW53717   0.042   0.985   4.829  0.3790  0.3698 -0.1450
17155SOL    HW153718  -0.011   0.992   4.750  2.4885  2.1671 -1.5248
17155SOL    HW253719  -0.017   1.011   4.900 -1.6112 -1.4710 -1.0248
17156SOL     OW53720   8.887   1.849   1.248 -0.2304  0.6709  0.1223
17156SOL    HW153721   8.854   1.823   1.334  0.6213  0.0585  0.2901
17156SOL    HW253722   8.814   1.833   1.188  0.2223 -2.3281  0.1983
17157SOL     OW53723   9.908  10.415   9.193 -0.2638 -0.6899  0.0181
17157SOL    HW153724   9.930  10.464   9.272  2.8564  1.1642 -1.7994
17157SOL    HW253725   9.863  10.337   9.225 -1.3164  1.1264  3.3788
17158SOL     OW53726   1.522   8.202   7.382  0.7756 -0.0618  0.0186
17158SOL    HW153727   1.469   8.187   7.461 -0.0215  0.1865 -0.4605
17158SOL    HW253728   1.602   8.243   7.415  0.3386  0.2833  0.6783
17159SOL     OW53729  10.558   3.053   1.397  0.2722  0.4156  0.0970
17159SOL    HW153730  10.463   3.067   1.397  0.1219 -0.1784  2.3144
17159SOL    HW253731  10.592   3.116   1.333 -1.5279  1.2977 -0.0415
17160SOL     OW53732   1.517   6.338   1.252  0.1560  0.0575 -0.0486
17160SOL    HW153733   1.518   6.291   1.169 -0.7180  0.5424 -0.3517
17160SOL    HW253734   1.424   6.343   1.276  0.4440 -0.7154  1.3408
17161SOL     OW53735   0.910   8.069   1.113  0.5379  0.1347 -0.1079
17161SOL    HW153736   0.914   8.021   1.030  1.0998  0.3002 -0.1810
17161SOL    HW253737   0.930   8.159   1.090  0.7946  0.1642  0.2210
17162SOL     OW53738   9.298   0.013   1.684 -0.0140  0.0224 -0.0794
17162SOL    HW153739   9.337   0.100   1.693 -0.8542  0.5879 -1.6897
17162SOL    HW253740   9.324  -0.033   1.765 -0.9851  2.2940  1.6228
17163SOL     OW53741   7.837   0.877   2.069 -0.3750  0.0112  0.6146
17163SOL    HW153742   7.923   0.845   2.095 -0.4521  1.5246  3.0579
17163SOL    HW253743   7.855   0.939   1.998  0.6779  0.9009  1.6195
17164SOL     OW53744   1.548   0.037   8.734 -0.5412 -0.1713  0.5219
17164SOL    HW153745   1.483   0.061   8.800  0.7975 -1.2484  2.3444
17164SOL    HW253746   1.625   0.089   8.756 -1.0099  2.0042 -2.3372
17165SOL     OW53747   1.528   6.606   8.930 -0.4667  0.0758  0.1900
17165SOL    HW153748   1.483   6.539   8.878 -0.2615  0.2232 -0.1879
17165SOL    HW253749   1.563   6.667   8.864 -1.1591  0.8817  0.5426
17166SOL     OW53750   7.178   4.528   5.440  0.0821  0.3211 -0.1989
17166SOL    HW153751   7.114   4.463   5.411 -0.2401  0.5581 -0.0242
17166SOL    HW253752   7.125   4.602   5.470  0.4193  0.3214  0.4109
17167SOL     OW53753   2.672   9.579   7.981 -0.0354  0.4631 -0.3684
17167SOL    HW153754   2.682   9.613   8.070  2.2699 -1.9728  0.4451
17167SOL    HW253755   2.577   9.571   7.970 -0.4008  0.7593  1.9097
17168SOL     OW53756  10.635   9.387   1.242 -0.1545  0.2739 -0.1312
17168SOL    HW153757  10.700   9.365   1.308 -0.3099  0.6656  0.1574
17168SOL    HW253758  10.631   9.310   1.185  0.1629  0.0350  0.1676
17169SOL     OW53759   7.786   6.432   6.918 -0.2137 -0.2083  0.3495
17169SOL    HW153760   7.751   6.377   6.988 -0.5290  1.2693  1.4112
17169SOL    HW253761   7.749   6.396   6.838 -1.0034 -1.0784  1.0867
17170SOL     OW53762   3.489   8.420   8.548  0.5934 -0.5137  0.8352
17170SOL    HW153763   3.558   8.441   8.485  0.7310  0.2135  1.2109
17170SOL    HW253764   3.409   8.417   8.496  0.6041  0.7800  0.7128
17171SOL     OW53765   8.648   4.236   7.597  0.1084  0.0429  0.5020
17171SOL    HW153766   8.556   4.249   7.574 -0.3746 -0.7360  1.8392
17171SOL    HW253767   8.678   4.166   7.540 -0.1195  0.3247  0.0368
17172SOL     OW53768   1.845   2.391   5.316  0.0667  0.0870  0.4550
17172SOL    HW153769   1.813   2.377   5.227  1.2206 -1.4289  0.2432
17172SOL    HW253770   1.863   2.303   5.349  0.4941  0.6863  1.8711
17173SOL     OW53771   3.171   2.152  10.447  0.4332  0.0412  0.1720
17173SOL    HW153772   3.219   2.103  10.514 -1.0454 -1.0819  0.4622
17173SOL    HW253773   3.084   2.165  10.485 -0.2533 -0.1269 -1.2970
17174SOL     OW53774   5.819   3.213   6.844 -0.6091 -0.7578 -0.1913
17174SOL    HW153775   5.754   3.246   6.783  0.4591  1.0189 -0.4592
17174SOL    HW253776   5.784   3.236   6.931 -0.9857 -1.0711 -0.2596
17175SOL     OW53777   5.785  10.529   0.855  0.0442  0.1878 -0.2669
17175SOL    HW153778   5.736  10.576   0.923 -0.2878 -0.8504  0.2291
17175SOL    HW253779   5.776  10.584   0.777  0.9362  1.7009  0.6462
17176SOL     OW53780   9.583   1.250   4.843  0.3951 -0.3861  0.2685
17176SOL    HW153781   9.637   1.318   4.803  0.6936 -0.2424  0.9027
17176SOL    HW253782   9.636   1.217   4.916 -0.5216  0.0467  1.1554
17177SOL     OW53783   1.697   9.543   9.565 -0.3596 -0.0411  0.0050
17177SOL    HW153784   1.693   9.468   9.507  1.4658 -0.3780  0.2352
17177SOL    HW253785   1.777   9.529   9.616 -0.4861  1.5823  0.7157
17178SOL     OW53786   9.863   4.779   8.685  0.1675 -0.2118 -0.3513
17178SOL    HW153787   9.887   4.689   8.663  1.3112 -0.2184  0.7961
17178SOL    HW253788   9.946   4.825   8.692 -0.0160 -0.0969  3.2632
17179SOL     OW53789   9.063   2.864   6.172  0.0364 -0.0363  0.3823
17179SOL    HW153790   9.095   2.913   6.248  2.3091  1.2722 -1.2883
17179SOL    HW253791   9.142   2.827   6.133 -1.0818 -0.7897 -1.2582
17180SOL     OW53792   8.752   7.868   6.754 -0.3932 -0.1212  0.0174
17180SOL    HW153793   8.668   7.846   6.794 -1.6310  1.7394 -1.4347
17180SOL    HW253794   8.752   7.963   6.747  2.1633  0.0009  0.5983
17181SOL     OW53795   1.797   3.831   9.691  0.5594 -0.5677 -0.0666
17181SOL    HW153796   1.789   3.778   9.612 -0.3411 -0.2369 -0.2137
17181SOL    HW253797   1.707   3.841   9.722  0.9838 -1.4724  1.5283
17182SOL     OW53798   6.456   4.176   2.621 -0.0417 -0.1850 -0.0834
17182SOL    HW153799   6.502   4.102   2.662 -1.5002 -2.0099 -1.5225
17182SOL    HW253800   6.366   4.168   2.651 -0.2390  0.9987 -0.3136
17183SOL     OW53801   0.296   1.058  10.300  0.4835 -0.0653 -0.5265
17183SOL    HW153802   0.340   1.142  10.298  0.8113 -0.2152  0.3479
17183SOL    HW253803   0.362   0.996  10.331 -0.3044 -0.3071  0.7239
17184SOL     OW53804   1.124   3.556   0.021  0.0492 -0.1241 -0.0306
17184SOL    HW153805   1.042   3.602   0.005 -0.3748 -1.4244 -1.9906
17184SOL    HW253806   1.098   3.465   0.034  1.0306 -0.2161  1.5619
17185SOL     OW53807   9.994   0.209   3.666  0.0147  0.8134  0.0668
17185SOL    HW153808  10.009   0.297   3.632 -1.4031  0.9812 -0.1846
17185SOL    HW253809  10.037   0.152   3.602  0.7196  1.3067  0.0915
17186SOL     OW53810   9.012   6.805   1.248  0.2258  0.5109  0.2341
17186SOL    HW153811   9.004   6.725   1.300  3.2328  0.1957  0.3874
17186SOL    HW253812   8.959   6.870   1.295  1.3734 -0.2379  2.7066
17187SOL     OW53813   8.227   0.418   2.808  0.6801  0.6156  0.5275
17187SOL    HW153814   8.222   0.445   2.900  0.8003  1.8235  0.1967
17187SOL    HW253815   8.183   0.489   2.760 -0.6139 -0.6423 -0.2428
17188SOL     OW53816   4.842   2.966   4.704  0.6111  0.1780  0.6285
17188SOL    HW153817   4.915   3.027   4.694  0.1616  0.8028  1.1438
17188SOL    HW253818   4.768   3.020   4.729  0.4127 -0.6767  1.9850
17189SOL     OW53819   2.699   0.872   8.392 -0.0197  0.1458 -0.7862
17189SOL    HW153820   2.733   0.952   8.432  0.6975  0.0612 -1.2103
17189SOL    HW253821   2.632   0.902   8.330  1.2295  0.5486 -1.9943
17190SOL     OW53822   9.501   5.157   0.804  0.3522 -0.0956  0.4558
17190SOL    HW153823   9.586   5.174   0.765  0.6750 -1.8845  0.2659
17190SOL    HW253824   9.439   5.202   0.747  1.0276 -0.4264 -0.5630
17191SOL     OW53825   5.972   5.139   2.421 -0.6065  0.5149 -0.8290
17191SOL    HW153826   6.007   5.207   2.477  0.2083  0.6310 -1.4525
17191SOL    HW253827   5.880   5.132   2.445 -0.7949  2.1051 -1.0320
17192SOL     OW53828   3.240   2.341   4.758  0.4252  0.4965 -0.0696
17192SOL    HW153829   3.318   2.349   4.814  1.9016  1.6548 -2.1549
17192SOL    HW253830   3.220   2.430   4.732 -0.5031  0.0231 -1.0301
17193SOL     OW53831   9.314  10.628   7.804 -0.0998 -0.2235 -0.2658
17193SOL    HW153832   9.284  10.600   7.717  1.1937  0.5746 -1.0128
17193SOL    HW253833   9.263  10.708   7.821 -0.1946 -0.2552 -0.3969
17194SOL     OW53834   2.554   1.061  10.247 -0.5978 -0.1573  0.4426
17194SOL    HW153835   2.597   1.019  10.322 -0.7179  1.5231  1.4940
17194SOL    HW253836   2.499   1.129  10.286 -2.7585 -0.9979 -1.0088
17195SOL     OW53837   5.432   0.852   5.118 -0.2829  0.1436  0.0640
17195SOL    HW153838   5.348   0.813   5.092 -0.3820 -0.4751  1.2428
17195SOL    HW253839   5.426   0.943   5.089  0.2522 -0.7897 -3.4186
17196SOL     OW53840   5.210   5.402   7.560  0.5439  0.6727 -0.3436
17196SOL    HW153841   5.244   5.356   7.636  1.3807  0.8198 -0.6205
17196SOL    HW253842   5.178   5.485   7.594  1.0903  0.8178 -0.1730
17197SOL     OW53843   3.363   2.415   6.522 -0.3566 -0.4937 -0.2568
17197SOL    HW153844   3.351   2.387   6.613  0.6411  2.8320  1.0469
17197SOL    HW253845   3.440   2.366   6.492  1.8078  1.1635  2.1524
17198SOL     OW53846   1.140   0.065  10.571  0.1247  0.1738  0.2977
17198SOL    HW153847   1.072   0.041  10.634 -1.1606  2.3772 -0.1534
17198SOL    HW253848   1.189  -0.016  10.557 -3.0271 -1.8443 -0.1436
17199SOL     OW53849   7.639   0.192   4.027 -0.1420 -0.1714  0.0669
17199SOL    HW153850   7.690   0.205   3.947  0.3811  1.0834  0.5721
17199SOL    HW253851   7.561   0.144   3.999  1.0932 -1.7807 -0.8076
17200SOL     OW53852   6.357   0.883   3.284  0.2039  0.0395  0.2273
17200SOL    HW153853   6.325   0.793   3.279 -0.0453  0.1436 -0.0715
17200SOL    HW253854   6.282   0.937   3.259  0.5557  0.2919 -0.3136
17201SOL     OW53855   0.098   8.044   2.418 -0.1092  0.4031 -0.7298
17201SOL    HW153856   0.186   8.068   2.447  0.0605 -2.7938  2.0824
17201SOL    HW253857   0.111   7.967   2.362 -1.0917  0.3414 -0.8955
17202SOL     OW53858   2.294   5.476   8.073  0.7576 -0.2449  0.4167
17202SOL    HW153859   2.312   5.387   8.103  2.2203 -0.2538 -0.3746
17202SOL    HW253860   2.355   5.490   8.000 -2.0801  0.0439 -2.0784
17203SOL     OW53861   4.945   2.021   4.550  0.1455 -0.5964 -0.2390
17203SOL    HW153862   5.041   2.024   4.547  0.1411  1.2193  0.5289
17203SOL    HW253863   4.918   2.061   4.467  0.0731  0.8186  0.4465
17204SOL     OW53864   2.431   7.804   1.451  0.8015  0.0835 -0.7221
17204SOL    HW153865   2.392   7.795   1.365  0.4469 -1.5122 -0.4367
17204SOL    HW253866   2.384   7.876   1.493 -1.3697 -1.2931 -0.6567
17205SOL     OW53867   0.934   9.244   8.882 -0.5710  0.0725 -0.2737
17205SOL    HW153868   0.973   9.169   8.835  1.6351  0.0003  1.4832
17205SOL    HW253869   0.903   9.207   8.964 -0.6932  0.8763  0.0503
17206SOL     OW53870   5.653   9.071   1.846 -0.6689 -0.8386  0.3774
17206SOL    HW153871   5.637   9.057   1.752  2.4955 -0.3288 -0.3514
17206SOL    HW253872   5.573   9.113   1.878 -0.7710  1.8122 -2.7966
17207SOL     OW53873   5.781   1.976   1.790 -0.1072 -0.2075 -0.0209
17207SOL    HW153874   5.707   1.919   1.767  0.1690 -0.0443 -1.4528
17207SOL    HW253875   5.740   2.057   1.820 -0.5053 -1.1668  2.2129
17208SOL     OW53876   9.324   0.775   6.023 -0.6319  0.0894 -0.3009
17208SOL    HW153877   9.310   0.688   6.058  0.7218 -0.4561 -1.0448
17208SOL    HW253878   9.323   0.833   6.099 -0.0153 -0.7786  0.3813
17209SOL     OW53879   8.357   9.303   0.937  0.3947 -0.2303 -0.0155
17209SOL    HW153880   8.427   9.358   0.902  0.4760 -0.2877  0.0573
17209SOL    HW253881   8.355   9.323   1.030  2.0556 -2.1300  0.4945
17210SOL     OW53882  10.583   0.074   6.938  0.2265 -0.3461  0.0272
17210SOL    HW153883  10.631   0.087   7.020 -0.8398 -0.2714  0.6599
17210SOL    HW253884  10.644   0.101   6.870  1.8745 -2.2944  0.6271
17211SOL     OW53885   6.455   1.121   7.840  0.4740  0.2105  0.1675
17211SOL    HW153886   6.384   1.154   7.785  0.2181  0.9445  0.9259
17211SOL    HW253887   6.430   1.145   7.929  0.5893 -1.4827  0.6957
17212SOL     OW53888   2.445   0.103   7.002  0.3982  0.1840  0.2113
17212SOL    HW153889   2.428   0.189   6.964 -0.2084 -0.2122 -0.4453
17212SOL    HW253890   2.410   0.041   6.938  0.3574 -0.5379  0.9094
17213SOL     OW53891   6.130   2.974   5.848 -0.0703 -0.0771  0.2059
17213SOL    HW153892   6.069   2.901   5.833  1.7892 -1.4660 -0.9050
17213SOL    HW253893   6.176   2.951   5.929  0.8087 -0.3571 -0.3651
17214SOL     OW53894   0.973  10.368   4.074  0.0836  0.0326  0.6090
17214SOL    HW153895   1.023  10.289   4.056  0.6956  0.2685  1.2290
17214SOL    HW253896   1.015  10.436   4.021 -1.7912 -0.4665 -1.6525
17215SOL     OW53897   0.208   4.174   2.278  0.0825  0.0782  0.4148
17215SOL    HW153898   0.222   4.138   2.366 -0.9616  0.5454  0.7833
17215SOL    HW253899   0.295   4.200   2.249  0.8414 -2.3734  0.2833
17216SOL     OW53900   0.138   1.676   1.717 -0.0612 -0.1965 -0.7400
17216SOL    HW153901   0.198   1.697   1.789 -0.2208  1.1806 -0.9787
17216SOL    HW253902   0.067   1.626   1.758 -0.3700  0.9374  0.1671
17217SOL     OW53903   6.174   3.647   1.190 -0.0906  0.0871 -0.2149
17217SOL    HW153904   6.169   3.556   1.162  1.6469 -0.3913  0.9127
17217SOL    HW253905   6.095   3.687   1.154 -1.3440 -2.0488 -0.0255
17218SOL     OW53906   6.503   3.211   3.975  0.4975  0.0070  0.1297
17218SOL    HW153907   6.590   3.231   3.940  0.2027 -0.2590 -0.7915
17218SOL    HW253908   6.519   3.186   4.065  1.5782 -1.5421 -0.4452
17219SOL     OW53909   1.846   2.431   6.953 -0.3432  0.6033 -0.4664
17219SOL    HW153910   1.886   2.392   7.031  0.1496  0.7697 -0.6332
17219SOL    HW253911   1.867   2.524   6.960 -0.3232  0.6214 -0.7856
17220SOL     OW53912   9.294   4.990   7.081  0.1326 -0.1571  0.2283
17220SOL    HW153913   9.236   5.048   7.130 -0.0636  0.1411 -0.3533
17220SOL    HW253914   9.382   5.018   7.104  0.0558 -0.5775  1.0747
17221SOL     OW53915   9.420   4.936   8.809 -0.3742 -0.1254  0.2305
17221SOL    HW153916   9.393   4.955   8.899  1.0068  3.1264  0.1194
17221SOL    HW253917   9.515   4.923   8.814 -0.0983  1.2040 -0.8316
17222SOL     OW53918   4.866   5.939   4.718  0.2918 -0.5138  0.0808
17222SOL    HW153919   4.866   5.962   4.811  0.3716  1.8253 -0.4497
17222SOL    HW253920   4.777   5.908   4.702  0.7531 -2.6698  1.2676
17223SOL     OW53921   8.141   5.122   4.733  0.0556  0.5115 -0.1108
17223SOL    HW153922   8.228   5.091   4.759  0.2499  0.4314 -0.8316
17223SOL    HW253923   8.082   5.049   4.753  0.6959 -0.9179 -3.0110
17224SOL     OW53924  10.191   9.915  10.117  0.4009  0.2024 -0.7535
17224SOL    HW153925  10.234   9.879  10.195 -0.6990 -1.4640 -0.8643
17224SOL    HW253926  10.098   9.894  10.129  0.1453  0.3126 -2.3098
17225SOL     OW53927  10.316   6.429   5.652  0.0467  0.5549  0.5007
17225SOL    HW153928  10.310   6.524   5.642 -0.7011  0.4947  0.3106
17225SOL    HW253929  10.405   6.414   5.684  0.2002  1.3105  0.4534
17226SOL     OW53930   7.713   5.115   7.764 -0.1391  0.0203 -0.3447
17226SOL    HW153931   7.674   5.072   7.688 -1.8625  0.8138  0.0229
17226SOL    HW253932   7.708   5.050   7.833 -1.9785  0.4579 -0.0042
17227SOL     OW53933   2.400   7.644   3.568  0.4422 -0.5406  0.2497
17227SOL    HW153934   2.396   7.570   3.507 -1.4716 -0.3454  0.0882
17227SOL    HW253935   2.339   7.622   3.638  1.3537  0.0003  1.2479
17228SOL     OW53936   3.954   1.665  10.393  0.1585 -0.0034 -0.8497
17228SOL    HW153937   3.872   1.681  10.346  0.0792  1.2251 -0.3578
17228SOL    HW253938   4.011   1.737  10.366  0.6901 -0.2262 -0.3452
17229SOL     OW53939   2.934   2.998   2.685  0.4324  0.1680 -0.2311
17229SOL    HW153940   2.929   2.910   2.647  0.9231 -0.1284  0.3905
17229SOL    HW253941   3.025   3.008   2.713  0.0200  0.2904  1.0967
17230SOL     OW53942   4.042   8.215   2.574  0.4127  0.4656  0.1510
17230SOL    HW153943   4.021   8.188   2.663  0.1611 -1.1884 -0.3753
17230SOL    HW253944   4.130   8.254   2.580  0.3558  0.4536  1.1205
17231SOL     OW53945   5.732   2.470   7.907 -0.3741 -0.5269  0.0472
17231SOL    HW153946   5.739   2.378   7.930  0.9451 -0.6824 -0.8601
17231SOL    HW253947   5.818   2.493   7.872 -1.1770  0.5999 -1.3259
17232SOL     OW53948   7.161   1.623   9.418 -0.0946  0.4456 -0.3680
17232SOL    HW153949   7.204   1.548   9.458  0.1291  1.1069  0.6775
17232SOL    HW253950   7.215   1.698   9.442 -0.1687  0.9260 -1.6097
17233SOL     OW53951   3.181   4.246   7.319 -0.0662  0.4651  0.1210
17233SOL    HW153952   3.224   4.233   7.404 -0.0855 -3.8035 -0.3084
17233SOL    HW253953   3.089   4.264   7.342  0.1275  0.3873  1.0186
17234SOL     OW53954   2.644   0.630   1.572 -0.4415 -0.1538 -0.0854
17234SOL    HW153955   2.656   0.722   1.549  2.8474 -0.1891  1.0646
17234SOL    HW253956   2.634   0.629   1.667 -0.1724 -1.0069 -0.0539
17235SOL     OW53957   3.529   8.521   3.996 -0.1170 -0.0149  0.1963
17235SOL    HW153958   3.479   8.519   4.077  1.0436  0.0447  0.9373
17235SOL    HW253959   3.544   8.614   3.978 -3.8825  0.3137 -2.3920
17236SOL     OW53960   4.402   6.298   5.929  0.5259  0.1615  0.2965
17236SOL    HW153961   4.365   6.373   5.975  0.3512 -0.5394  1.3256
17236SOL    HW253962   4.341   6.227   5.947  0.5683 -0.1908 -0.8523
17237SOL     OW53963   4.792  10.109   2.488 -0.4286 -0.3897  0.2123
17237SOL    HW153964   4.860  10.173   2.465 -1.3440  0.1578 -1.1297
17237SOL    HW253965   4.714  10.140   2.442 -1.2535 -1.7378  0.6450
17238SOL     OW53966   9.098   4.810   6.353  0.0436 -0.0874 -0.6373
17238SOL    HW153967   9.057   4.730   6.384 -0.6823  0.2863 -0.6299
17238SOL    HW253968   9.058   4.826   6.268  1.0961 -0.4069 -1.2219
17239SOL     OW53969   0.579   0.698   8.884 -0.4599 -0.0397  0.1940
17239SOL    HW153970   0.623   0.617   8.908  0.9610  0.7657  0.4294
17239SOL    HW253971   0.580   0.699   8.788  1.6703  0.7706  0.1723
17240SOL     OW53972   7.153   8.532  10.554 -0.1334 -0.0088  0.2021
17240SOL    HW153973   7.143   8.627  10.546 -1.8474 -0.2528 -1.3431
17240SOL    HW253974   7.231   8.520  10.607  2.0097  2.2576 -2.1529
17241SOL     OW53975   7.490   9.922  10.460 -0.2043 -0.2207 -0.1195
17241SOL    HW153976   7.417   9.885  10.410 -0.4900  0.6681 -0.3759
17241SOL    HW253977   7.544   9.964  10.394 -0.2522  0.4167  0.2441
17242SOL     OW53978   7.201   7.096  10.431 -0.7489 -0.0314  0.1138
17242SOL    HW153979   7.129   7.052  10.386 -0.9650  1.0342 -0.6052
17242SOL    HW253980   7.182   7.190  10.422 -0.3685  0.2373  1.7229
17243SOL     OW53981   1.161  10.400   4.993  0.0023  0.1823  0.6986
17243SOL    HW153982   1.137  10.444   5.074 -1.6288  1.7063 -0.5150
17243SOL    HW253983   1.188  10.471   4.934 -3.2833 -0.1532 -1.5171
17244SOL     OW53984   0.856   1.191   9.056  0.7000  0.1507  0.0570
17244SOL    HW153985   0.911   1.257   9.098  0.0096  0.4247  0.5547
17244SOL    HW253986   0.862   1.211   8.963  2.2936 -0.4970 -0.0204
17245SOL     OW53987   5.195  10.348   7.210 -0.1231 -0.1306 -0.3978
17245SOL    HW153988   5.233  10.295   7.280 -0.2749 -2.4544 -1.9645
17245SOL    HW253989   5.251  10.425   7.204 -0.7964  0.7993  3.0264
17246SOL     OW53990   4.384   6.332   3.737 -0.4261  0.3136  0.1650
17246SOL    HW153991   4.374   6.315   3.644 -0.5887  1.3158 -0.0168
17246SOL    HW253992   4.301   6.304   3.776  0.0466 -1.1311  0.1838
17247SOL     OW53993   9.726   8.705   7.445  0.3561 -0.3773 -0.1114
17247SOL    HW153994   9.802   8.649   7.456  0.0206 -0.5239  1.8282
17247SOL    HW253995   9.716   8.749   7.530  0.5024  2.5166 -1.4755
17248SOL     OW53996   9.170  10.240   0.502 -0.0432  0.3234  0.0685
17248SOL    HW153997   9.126  10.156   0.494 -1.6026  0.9141  1.8088
17248SOL    HW253998   9.215  10.251   0.418 -0.7015 -1.7097 -0.6220
17249SOL     OW53999   8.799   9.073   8.230  0.2062  0.3719  0.0107
17249SOL    HW154000   8.884   9.092   8.270  0.5973  1.8485 -1.3693
17249SOL    HW254001   8.817   9.075   8.136 -1.3451  0.7090 -0.3044
17250SOL     OW54002   0.947   1.955   5.559 -0.0700 -0.0722 -0.7026
17250SOL    HW154003   0.994   1.961   5.642 -1.2579  0.7658 -0.0663
17250SOL    HW254004   0.976   2.031   5.509 -1.2865  0.8863  0.0003
17251SOL     OW54005   8.883   9.554  10.053 -0.1511  0.4140 -0.0937
17251SOL    HW154006   8.904   9.605  10.131  2.7381 -0.5580 -0.1253
17251SOL    HW254007   8.812   9.602  10.011  0.7074  2.9829  1.2006
17252SOL     OW54008   6.987   6.188   3.784 -0.2099 -0.2446  0.2514
17252SOL    HW154009   7.060   6.241   3.816  1.2914 -0.9383 -1.8193
17252SOL    HW254010   6.914   6.211   3.842  1.7667  0.0010  2.8314
17253SOL     OW54011   7.419   0.368  10.466  0.0381 -0.4234 -0.6227
17253SOL    HW154012   7.389   0.308  10.534 -0.3321 -0.4247 -0.7851
17253SOL    HW254013   7.510   0.345  10.452  0.3102 -0.0000  0.3327
17254SOL     OW54014   7.738   5.216   9.592  0.3447  0.2305 -0.1716
17254SOL    HW154015   7.647   5.242   9.576 -0.0558 -0.7017  0.5161
17254SOL    HW254016   7.787   5.298   9.585 -0.6657  0.9044  0.3442
17255SOL     OW54017   4.567   4.392   1.942  0.1082  0.5181  0.1109
17255SOL    HW154018   4.549   4.319   1.883  0.0262  0.9925 -0.4599
17255SOL    HW254019   4.485   4.405   1.990  0.5093 -0.5877  1.1512
17256SOL     OW54020   0.484  10.552  10.568  0.4286  0.0441 -0.2502
17256SOL    HW154021   0.527  10.495  10.630 -1.1154 -0.7971  0.1077
17256SOL    HW254022   0.427  10.608  10.621  0.4241  0.5448 -0.7640
17257SOL     OW54023   3.500   5.195   9.103  0.0010 -0.1321 -0.8121
17257SOL    HW154024   3.411   5.222   9.123  0.0552 -1.2997  1.2094
17257SOL    HW254025   3.490   5.119   9.046 -0.5273 -2.6101  2.3041
17258SOL     OW54026   3.750   6.979   0.497 -0.2161 -0.3433  0.2134
17258SOL    HW154027   3.801   6.901   0.476 -0.9890 -0.7032 -0.3812
17258SOL    HW254028   3.697   6.995   0.419 -0.9689  0.0529  0.7916
17259SOL     OW54029   1.813   0.229   8.103  0.6709 -0.1868 -0.1852
17259SOL    HW154030   1.810   0.134   8.110 -0.2833 -0.1919 -0.4454
17259SOL    HW254031   1.722   0.255   8.089  1.0102  0.7012 -0.8767
17260SOL     OW54032   0.133   6.486   2.559  0.2484 -0.0234  0.4683
17260SOL    HW154033   0.080   6.410   2.580 -0.1190 -0.2337 -1.0938
17260SOL    HW254034   0.194   6.455   2.492  0.9316  0.7514  0.7155
17261SOL     OW54035   6.711   6.420   3.250  0.2309 -0.1415 -0.1170
17261SOL    HW154036   6.697   6.512   3.227  0.9392 -0.0965 -0.3699
17261SOL    HW254037   6.790   6.395   3.204  1.1189 -0.3491  1.4546
17262SOL     OW54038   5.083  10.637   8.110  0.3579 -0.0401 -0.1663
17262SOL    HW154039   5.090  10.585   8.029  0.7502 -1.9439  1.0103
17262SOL    HW254040   5.153  10.603   8.165 -0.5626  0.4677  1.3727
17263SOL     OW54041   0.169   1.419   4.959 -0.1419  0.1042 -0.4686
17263SOL    HW154042   0.146   1.328   4.978  0.8698 -0.0711 -0.0365
17263SOL    HW254043   0.262   1.417   4.936 -0.3585  0.8828 -1.5353
17264SOL     OW54044   1.178   9.602   4.346 -0.2786  0.3745 -0.4412
17264SOL    HW154045   1.130   9.557   4.277  0.6643  0.5221 -1.2233
17264SOL    HW254046   1.270   9.581   4.328 -0.0126  0.4655  0.7413
17265SOL     OW54047   7.730   0.012  10.179  0.2824 -0.3041 -0.5758
17265SOL    HW154048   7.780   0.018  10.260  1.9111  0.3812 -1.5843
17265SOL    HW254049   7.677  -0.067  10.190  3.2939 -2.5001 -0.2968
17266SOL     OW54050   1.504   6.710   0.192 -0.2437  0.3934  0.0769
17266SOL    HW154051   1.440   6.708   0.121  0.3819  1.9062 -0.5842
17266SOL    HW254052   1.526   6.618   0.208 -0.1122  0.0175 -1.9887
17267SOL     OW54053   5.902   4.204   1.337  0.3130 -0.7047  0.2173
17267SOL    HW154054   5.807   4.206   1.346  0.4678 -0.0410  2.2459
17267SOL    HW254055   5.934   4.181   1.424  2.0409 -0.0630 -0.1996
17268SOL     OW54056   0.505   5.098   7.448 -0.1776  0.0817 -0.1887
17268SOL    HW154057   0.425   5.149   7.462 -0.6705 -0.2968 -1.5617
17268SOL    HW254058   0.484   5.010   7.480 -0.4723 -0.1417 -0.9946
17269SOL     OW54059   4.500   2.036   0.336  0.0182 -0.1971 -0.0023
17269SOL    HW154060   4.421   2.081   0.306  0.1343  0.1766  0.2445
17269SOL    HW254061   4.472   1.947   0.355 -0.3112 -0.1047 -0.0618
17270SOL     OW54062   9.017   1.338   1.973 -0.2906  0.0983  0.3918
17270SOL    HW154063   9.107   1.345   2.003 -0.6091 -1.8039  1.9754
17270SOL    HW254064   8.989   1.428   1.961  2.3761  0.7472 -2.0828
17271SOL     OW54065   7.118   1.659   6.776  0.4451 -0.0480 -0.3160
17271SOL    HW154066   7.082   1.572   6.765  1.1396 -0.1691 -1.8729
17271SOL    HW254067   7.119   1.696   6.688  1.3979  1.0267  0.1208
17272SOL     OW54068  10.211   0.644   4.643  0.2500  0.5900 -0.0589
17272SOL    HW154069  10.268   0.590   4.699  0.0173 -0.2811 -0.6446
17272SOL    HW254070  10.179   0.713   4.701  2.1651  1.3204  0.2127
17273SOL     OW54071   1.992   3.734   7.343  0.4934 -0.3923  0.6845
17273SOL    HW154072   1.970   3.827   7.337  1.0798 -0.3257 -1.4391
17273SOL    HW254073   2.058   3.728   7.412  0.5544  0.7909  0.7370
17274SOL     OW54074   2.339   8.211   1.999  0.4558 -0.1702 -0.3939
17274SOL    HW154075   2.325   8.297   1.958 -2.1949  0.4241  1.4366
17274SOL    HW254076   2.411   8.226   2.061 -0.5156  1.0492  0.5067
17275SOL     OW54077   7.311   8.067   2.426  0.2756  0.2675  0.3578
17275SOL    HW154078   7.349   8.128   2.490  1.5904 -0.5378  0.3900
17275SOL    HW254079   7.282   7.993   2.478  0.6209 -0.0457  0.1072
17276SOL     OW54080   0.666   8.405   8.358  0.0086  0.3924 -0.1983
17276SOL    HW154081   0.638   8.434   8.445  2.9219 -1.3670  1.4989
17276SOL    HW254082   0.614   8.327   8.342 -1.0219  1.0934 -0.3983
17277SOL     OW54083   4.094   8.092   4.343 -0.3109 -0.0856  0.1466
17277SOL    HW154084   4.047   8.070   4.424 -1.2664 -0.9802 -0.6290
17277SOL    HW254085   4.144   8.013   4.322 -1.3725 -0.4633 -1.0241
17278SOL     OW54086   5.939   8.392   3.881 -0.0392  0.5499  0.9818
17278SOL    HW154087   5.991   8.314   3.902  2.4324  1.4071 -1.3560
17278SOL    HW254088   6.000   8.465   3.891 -0.9675  1.7010 -1.1247
17279SOL     OW54089   0.601   6.896  10.330 -0.0061 -0.2286 -0.6916
17279SOL    HW154090   0.602   6.932  10.241  0.3796  1.5958  0.0092
17279SOL    HW254091   0.693   6.889  10.354 -0.1176  0.2858 -0.0770
17280SOL     OW54092   4.508   3.434   2.137 -0.2852  0.4314  0.0912
17280SOL    HW154093   4.494   3.339   2.137  2.4151 -0.0304  0.4814
17280SOL    HW254094   4.482   3.463   2.224  1.2207 -0.3984  0.8487
17281SOL     OW54095   0.837   8.502   4.820  0.5100  0.7092 -0.7875
17281SOL    HW154096   0.862   8.410   4.828 -0.3658  0.5576  0.3945
17281SOL    HW254097   0.809   8.527   4.908 -1.1794  1.5303 -1.5240
17282SOL     OW54098   9.140   5.005   2.959 -0.3998 -0.2412 -0.5453
17282SOL    HW154099   9.078   4.932   2.956 -1.1436  0.0823  2.9855
17282SOL    HW254100   9.192   4.988   3.038  0.6215  2.1240 -0.6440
17283SOL     OW54101   0.458   0.017   4.923  0.1359  0.1901 -0.2321
17283SOL    HW154102   0.414   0.052   5.000 -0.4170 -0.3984 -0.2643
17283SOL    HW254103   0.421   0.066   4.849  1.0235  1.0899 -0.0847
17284SOL     OW54104   0.300   4.534  10.216  0.1926 -0.0163  0.5998
17284SOL    HW154105   0.247   4.557  10.140 -1.3224 -0.4121  1.4962
17284SOL    HW254106   0.322   4.442  10.204 -0.9617 -0.3760  1.1445
17285SOL     OW54107   0.434   9.474   6.132  0.2386  0.0663  0.5055
17285SOL    HW154108   0.434   9.467   6.228 -2.0277 -1.6460  0.4698
17285SOL    HW254109   0.471   9.391   6.102  0.3209  0.3189 -0.1073
17286SOL     OW54110   7.343   9.005   8.660  0.1154  0.6450  0.3177
17286SOL    HW154111   7.303   8.918   8.658 -0.4901  0.9181  0.5332
17286SOL    HW254112   7.292   9.054   8.723  1.8998  0.4671  2.0067
17287SOL     OW54113   7.034   8.635   1.130  0.0448 -0.1459  0.3668
17287SOL    HW154114   7.024   8.627   1.035  0.1206  0.9315  0.2560
17287SOL    HW254115   6.948   8.663   1.161  0.5054  1.3562  0.3672
17288SOL     OW54116   8.703   6.529   2.685  0.3095  1.0285  0.5191
17288SOL    HW154117   8.717   6.596   2.618  0.2167  1.0209  0.4927
17288SOL    HW254118   8.615   6.546   2.718 -0.7483 -0.6583 -1.2672
17289SOL     OW54119   8.673   7.140   9.422 -0.3011  0.2882 -0.4619
17289SOL    HW154120   8.765   7.114   9.413 -0.3153  0.2623 -0.5288
17289SOL    HW254121   8.675   7.236   9.421 -0.2734  0.2880 -0.4494
17290SOL     OW54122   6.947   7.749   2.883  0.0291 -0.1554 -0.0695
17290SOL    HW154123   6.901   7.785   2.958 -0.9428  0.9506 -1.1518
17290SOL    HW254124   6.916   7.800   2.809  0.8319 -1.3138 -1.2576
17291SOL     OW54125   9.858   4.174   1.667  0.5938 -0.0918 -0.2279
17291SOL    HW154126   9.841   4.235   1.596 -0.9121 -0.0826  0.1006
17291SOL    HW254127   9.898   4.099   1.626  1.5270  0.6947 -0.7893
17292SOL     OW54128   8.346   1.068   3.314  0.0980 -0.1020 -0.3098
17292SOL    HW154129   8.351   1.136   3.247  2.7039 -0.4388 -0.5783
17292SOL    HW254130   8.299   0.996   3.271 -0.6260  0.6644 -0.8231
17293SOL     OW54131   4.804   4.232   5.043  0.0226 -0.0119  0.1469
17293SOL    HW154132   4.743   4.164   5.074 -1.3692  0.9181 -0.4275
17293SOL    HW254133   4.846   4.194   4.966  1.5011 -1.3154  1.5236
17294SOL     OW54134   3.646   6.424   0.317 -0.1941  0.1005  0.0789
17294SOL    HW154135   3.610   6.343   0.279  1.2140 -0.4546 -0.1379
17294SOL    HW254136   3.726   6.396   0.360 -0.3107  1.2088  1.0615
17295SOL     OW54137   4.258   6.768   8.405 -0.0314  0.4156  0.1566
17295SOL    HW154138   4.207   6.737   8.330  2.5301 -0.0973 -1.4981
17295SOL    HW254139   4.302   6.690   8.438  1.5674  1.1810 -0.0563
17296SOL     OW54140   0.116   3.958   6.524  0.1459 -0.0069  0.1152
17296SOL    HW154141   0.082   3.892   6.585 -1.7252  0.8821  0.1173
17296SOL    HW254142   0.187   3.914   6.478  1.2968 -0.8872  2.5416
17297SOL     OW54143   7.351   2.257   9.107  0.0002  0.2277  0.0478
17297SOL    HW154144   7.304   2.248   9.024 -0.9024 -0.0630  0.5823
17297SOL    HW254145   7.412   2.330   9.092  0.4390 -0.3582 -1.1327
17298SOL     OW54146   1.813   4.058   6.315  0.4518  0.5625  0.0758
17298SOL    HW154147   1.908   4.053   6.312  0.3607 -1.3661 -1.0050
17298SOL    HW254148   1.787   4.076   6.224 -0.2619 -0.9176 -0.0405
17299SOL     OW54149   9.067   6.436   2.121 -0.3329  0.3019  0.1065
17299SOL    HW154150   8.988   6.399   2.082  0.0706 -0.5205  0.0489
17299SOL    HW254151   9.055   6.531   2.115 -2.2377  0.2373  1.9537
17300SOL     OW54152   3.086   6.585   6.366 -0.0291  0.2233 -0.6138
17300SOL    HW154153   3.049   6.523   6.303 -1.0539 -1.2924  1.3779
17300SOL    HW254154   3.010   6.628   6.406  0.6280  1.8424 -0.9953
17301SOL     OW54155   4.680   8.358   3.016  0.7083 -0.0757  0.6521
17301SOL    HW154156   4.769   8.385   2.994 -0.0255  2.6689  0.7928
17301SOL    HW254157   4.666   8.389   3.105 -1.3124  2.2775 -0.3654
17302SOL     OW54158   1.299   7.366   0.052 -0.2360  0.0266 -0.3155
17302SOL    HW154159   1.330   7.432   0.114  2.1383  0.9104 -2.2965
17302SOL    HW254160   1.291   7.286   0.104  2.6507  0.4734  1.0012
17303SOL     OW54161   3.852   6.730   1.932 -0.3043  0.4145  0.0798
17303SOL    HW154162   3.927   6.687   1.973 -2.1629  0.5151  4.1157
17303SOL    HW254163   3.848   6.693   1.844  1.9539 -2.8695  1.1475
17304SOL     OW54164   5.242   7.987   6.823  0.0976  0.5907  0.3640
17304SOL    HW154165   5.328   7.955   6.848 -0.4977 -3.1405 -1.6076
17304SOL    HW254166   5.203   7.915   6.773 -3.2765  2.9716 -0.8355
17305SOL     OW54167   6.231   5.413   4.166 -0.4213  0.3768  0.0141
17305SOL    HW154168   6.305   5.384   4.219 -0.6839  0.0141  0.1831
17305SOL    HW254169   6.212   5.339   4.108 -1.2311  0.1022  0.5969
17306SOL     OW54170   8.877   2.136   3.515 -0.3401  1.0717  0.6179
17306SOL    HW154171   8.869   2.060   3.573  1.2387  0.8012  0.5310
17306SOL    HW254172   8.929   2.198   3.565  3.1929 -0.0973 -1.2660
17307SOL     OW54173   3.575   7.639   4.674 -0.0558  0.0759 -0.3613
17307SOL    HW154174   3.555   7.555   4.713 -1.5737 -0.3231 -1.8886
17307SOL    HW254175   3.671   7.644   4.674  0.0130 -0.7061  1.6023
17308SOL     OW54176   3.056  10.321   6.744 -0.3992 -0.2515 -0.3000
17308SOL    HW154177   3.073  10.276   6.661 -0.6234 -1.9039  0.5005
17308SOL    HW254178   2.970  10.361   6.732 -0.6975 -0.9811 -0.6860
17309SOL     OW54179   2.818   1.935   1.617  0.2541 -0.2377 -0.0489
17309SOL    HW154180   2.731   1.894   1.624  0.1565 -0.5475 -2.4269
17309SOL    HW254181   2.879   1.861   1.613  0.5739 -0.0295  0.7581
17310SOL     OW54182   4.450   8.877   1.622 -0.2810  0.6024  0.3082
17310SOL    HW154183   4.475   8.865   1.530 -0.0961  0.2031  0.4087
17310SOL    HW254184   4.505   8.815   1.670  0.6194  1.7789  0.8401
17311SOL     OW54185   8.529   9.936   9.867 -0.1283  0.1254  0.0138
17311SOL    HW154186   8.536   9.972   9.779  0.0816  0.0355 -0.0076
17311SOL    HW254187   8.598   9.980   9.917 -0.2584  0.1893  0.1374
17312SOL     OW54188   0.337   2.767   5.254  0.3076 -0.7420 -0.3550
17312SOL    HW154189   0.359   2.795   5.343  0.5176 -1.1953 -0.2627
17312SOL    HW254190   0.414   2.791   5.202 -0.7864  1.8331 -0.9222
17313SOL     OW54191  10.035   9.942   7.378 -0.2392  0.3006 -0.1600
17313SOL    HW154192   9.993  10.024   7.352  0.6940  0.8858  0.1347
17313SOL    HW254193  10.053   9.897   7.295 -0.8949  0.3232 -0.3160
17314SOL     OW54194   5.429   3.649   8.447 -0.3320  0.1985 -0.1781
17314SOL    HW154195   5.365   3.598   8.397 -1.9060  0.1313  1.7761
17314SOL    HW254196   5.403   3.637   8.538  0.9387  2.2737  0.5242
17315SOL     OW54197   3.074   9.709   1.161  0.0700  0.2905 -0.5254
17315SOL    HW154198   3.103   9.767   1.232 -0.9813  1.3744 -0.9382
17315SOL    HW254199   3.088   9.621   1.195  1.1979  0.7729  0.3510
17316SOL     OW54200   8.841   6.400   7.169 -0.2066  0.0097  0.1116
17316SOL    HW154201   8.821   6.469   7.232  2.1706  0.4829  0.4146
17316SOL    HW254202   8.904   6.439   7.109  1.0853 -1.8297  0.1939
17317SOL     OW54203  10.645   3.204   1.886  0.0302  0.0805 -0.1645
17317SOL    HW154204  10.730   3.176   1.853 -0.4884  0.6143 -2.0568
17317SOL    HW254205  10.653   3.299   1.898  0.7339 -0.2823  3.0058
17318SOL     OW54206   2.175   1.716   9.849 -0.4403  0.3370  0.3121
17318SOL    HW154207   2.270   1.704   9.839 -0.6018  0.5973 -1.9419
17318SOL    HW254208   2.167   1.774   9.925  1.2921  1.1978 -0.1036
17319SOL     OW54209   2.386   5.409   8.422  0.7939  0.2224 -0.1328
17319SOL    HW154210   2.459   5.465   8.396 -0.8656  1.7480 -1.8128
17319SOL    HW254211   2.364   5.359   8.343  0.2934 -0.5574  0.4748
17320SOL     OW54212   9.530   0.220   0.363 -0.2977  0.1876  0.8812
17320SOL    HW154213   9.474   0.144   0.382  1.2596 -0.6723  2.3747
17320SOL    HW254214   9.523   0.274   0.441 -1.8968  1.9996 -0.4273
17321SOL     OW54215   1.851   1.443  10.350  0.0412  0.6975  0.3532
17321SOL    HW154216   1.938   1.476  10.327  0.1783 -0.3905 -0.8069
17321SOL    HW254217   1.849   1.354  10.315 -1.5554  0.7057  0.3379
17322SOL     OW54218   0.475  10.624   3.516 -0.1363  0.2728  0.1757
17322SOL    HW154219   0.470  10.711   3.556 -0.3292  0.8068 -0.9782
17322SOL    HW254220   0.388  10.609   3.480 -0.2248 -0.5835  0.7153
17323SOL     OW54221   0.319   0.124   8.055 -0.1292  0.4373 -0.2034
17323SOL    HW154222   0.329   0.075   8.137  1.7897  2.4383  0.8686
17323SOL    HW254223   0.236   0.170   8.064  0.4998  1.3860  1.1148
17324SOL     OW54224   5.059   0.809   4.697  0.2214  0.0208 -0.3554
17324SOL    HW154225   5.041   0.872   4.766 -0.8944 -0.9573  0.2836
17324SOL    HW254226   5.059   0.861   4.616  0.2087  0.9566  0.2387
17325SOL     OW54227   5.399   3.389   5.489  0.7862 -0.0726 -0.2077
17325SOL    HW154228   5.337   3.342   5.545 -0.9207  1.0087 -1.1178
17325SOL    HW254229   5.416   3.471   5.535  0.6588  0.1087 -0.4786
17326SOL     OW54230   1.272   2.102   5.059  1.0812  0.7352 -0.3976
17326SOL    HW154231   1.242   2.176   5.006  2.2053 -0.3122 -2.6713
17326SOL    HW254232   1.367   2.113   5.062  1.1887 -0.2037 -0.1367
17327SOL     OW54233   9.889   8.560   3.142  0.2647 -0.0386 -0.0713
17327SOL    HW154234   9.982   8.570   3.165  0.2010  2.4186 -0.5727
17327SOL    HW254235   9.844   8.561   3.227  0.4547  3.1704  0.1205
17328SOL     OW54236   8.992   7.806   2.081  0.1636  0.1213 -0.1352
17328SOL    HW154237   9.049   7.795   2.004 -0.6399  0.4824 -0.8007
17328SOL    HW254238   9.014   7.893   2.114 -0.8980  0.8300 -1.1895
17329SOL     OW54239   4.111   1.667   7.356 -0.6097 -0.0546  0.1849
17329SOL    HW154240   4.040   1.606   7.378  0.8738 -1.3273  1.8617
17329SOL    HW254241   4.187   1.631   7.402  1.0760  1.3842 -1.3329
17330SOL     OW54242   4.339   1.350   4.059 -0.1146 -0.1917 -0.3898
17330SOL    HW154243   4.353   1.258   4.081  0.1804  0.2020  1.1870
17330SOL    HW254244   4.247   1.355   4.033 -0.1470 -0.9081 -0.4477
17331SOL     OW54245   8.170   0.090  10.393  0.3259 -0.5448 -0.0684
17331SOL    HW154246   8.106   0.140  10.343 -0.2734 -1.3041 -0.0728
17331SOL    HW254247   8.202   0.151  10.459  0.6881  0.2866 -0.9839
17332SOL     OW54248   0.712   0.605   9.687 -0.0554 -0.1429  0.4034
17332SOL    HW154249   0.690   0.570   9.601  0.9840 -0.3987  0.2210
17332SOL    HW254250   0.638   0.583   9.742 -0.3893 -0.6664 -0.2471
17333SOL     OW54251   7.378   0.606   1.171  0.2161 -0.4606 -0.4025
17333SOL    HW154252   7.313   0.644   1.111  1.4164  1.7172 -0.4327
17333SOL    HW254253   7.388   0.516   1.141 -2.1142 -0.6012 -0.9403
17334SOL     OW54254   5.606   7.309   9.168  0.2966 -0.1793 -0.2180
17334SOL    HW154255   5.527   7.360   9.150 -0.6346 -1.1439  0.9510
17334SOL    HW254256   5.579   7.218   9.161  1.0208 -0.5447  1.1969
17335SOL     OW54257   0.651   0.392   2.248 -0.1436  0.4349 -0.5471
17335SOL    HW154258   0.647   0.376   2.343 -1.2935  2.0547 -0.2809
17335SOL    HW254259   0.599   0.471   2.235  0.5234  0.6073 -2.4681
17336SOL     OW54260   8.411  10.371   5.180  0.9133  0.2032  0.1414
17336SOL    HW154261   8.398  10.287   5.136  0.2866 -0.4629  1.5263
17336SOL    HW254262   8.462  10.349   5.258  2.0550  1.3549 -0.2516
17337SOL     OW54263   8.508   2.104   8.215 -0.3201  0.1776  0.3986
17337SOL    HW154264   8.594   2.070   8.192 -0.6790 -0.6699  0.2613
17337SOL    HW254265   8.465   2.121   8.130 -1.4257 -2.3929  0.3307
17338SOL     OW54266   4.647   2.892   4.989  0.0093 -0.2552 -0.1127
17338SOL    HW154267   4.638   2.962   4.925 -0.3235 -0.2191 -0.0275
17338SOL    HW254268   4.559   2.857   4.999 -0.1695  0.4853  1.1633
17339SOL     OW54269   9.330   7.317   0.806 -0.3558 -0.0965  0.5821
17339SOL    HW154270   9.358   7.405   0.830  2.4861 -0.7705  0.1100
17339SOL    HW254271   9.317   7.273   0.890 -2.2828  0.8324  0.8308
17340SOL     OW54272   9.513   2.435   9.867  0.8141 -0.0547  0.2943
17340SOL    HW154273   9.437   2.453   9.813  0.3917 -3.0247 -0.2850
17340SOL    HW254274   9.478   2.416   9.954  0.9961 -0.2628  0.3253
17341SOL     OW54275  10.349   6.807   9.404 -0.1294  0.0919 -0.6519
17341SOL    HW154276  10.262   6.773   9.380 -1.5295  2.5477  0.5255
17341SOL    HW254277  10.373   6.864   9.332  0.9245 -1.1282 -1.3175
17342SOL     OW54278   0.806   7.354   4.367 -0.5521 -0.2809  0.4796
17342SOL    HW154279   0.851   7.438   4.358  3.4144 -2.1023  0.9794
17342SOL    HW254280   0.797   7.322   4.278  1.3297 -0.7997  0.4209
17343SOL     OW54281   8.925   8.407   1.391  0.3482  0.1075 -0.1285
17343SOL    HW154282   8.940   8.436   1.481 -0.9711  1.0191 -0.1718
17343SOL    HW254283   8.962   8.319   1.387  4.4087  1.5824  0.0560
17344SOL     OW54284   9.681   9.177   4.339 -0.0507  0.2291  0.3075
17344SOL    HW154285   9.699   9.089   4.374  0.4185  0.0813 -0.2767
17344SOL    HW254286   9.723   9.177   4.252 -2.0643  0.2232 -0.7169
17345SOL     OW54287   1.855   1.160   5.864 -0.1886  0.8042  0.0504
17345SOL    HW154288   1.800   1.198   5.933 -1.2511 -1.1323  0.3370
17345SOL    HW254289   1.926   1.115   5.912 -0.4927  0.1142 -0.1379
17346SOL     OW54290   8.549   0.014   4.880 -0.2652  0.1992 -0.3898
17346SOL    HW154291   8.548   0.064   4.799  0.8409  1.8146  0.5303
17346SOL    HW254292   8.470   0.040   4.926  0.3350  1.2052  0.1110
17347SOL     OW54293   0.721   5.993  10.419  0.3185  0.2958 -0.6688
17347SOL    HW154294   0.756   5.970  10.505  0.0296 -2.4013 -1.1788
17347SOL    HW254295   0.669   6.072  10.434 -1.4056 -1.2127  2.1036
17348SOL     OW54296   2.088   8.297   6.149 -0.4458 -0.6614  0.0697
17348SOL    HW154297   2.005   8.250   6.142 -0.6039 -0.3197 -0.4642
17348SOL    HW254298   2.091   8.327   6.239 -1.3063  0.0245 -0.1135
17349SOL     OW54299   9.707   5.468   7.900 -0.2130 -0.3639  0.2826
17349SOL    HW154300   9.650   5.394   7.919 -0.4601  0.1567  1.6603
17349SOL    HW254301   9.692   5.487   7.807 -1.4330 -0.9357  0.3503
17350SOL     OW54302   4.362  10.074   5.711  0.4763  0.3473 -0.2840
17350SOL    HW154303   4.337  10.070   5.803  1.8783 -0.2672  0.0964
17350SOL    HW254304   4.457  10.074   5.712  0.5606 -1.9394 -1.8143
17351SOL     OW54305   3.174   6.129   8.545 -0.5157 -0.3395 -0.1348
17351SOL    HW154306   3.094   6.116   8.596 -1.2431  2.4935 -0.3905
17351SOL    HW254307   3.151   6.193   8.478  1.7015 -0.2329 -0.9073
17352SOL     OW54308   2.924   6.509   4.992  0.2971  0.1406  0.0238
17352SOL    HW154309   2.950   6.573   5.059 -1.7613 -0.0075  1.0382
17352SOL    HW254310   2.849   6.463   5.030 -0.7575 -0.1793 -2.2550
17353SOL     OW54311   9.291   3.261   9.789  0.4606  0.0129  0.0805
17353SOL    HW154312   9.258   3.211   9.864 -3.1276 -0.9370 -1.8957
17353SOL    HW254313   9.337   3.197   9.735 -2.9984 -1.2076 -1.7883
17354SOL     OW54314   9.698   6.337   1.824  0.2419  0.1133 -0.4827
17354SOL    HW154315   9.718   6.254   1.780 -1.0871 -0.3749 -0.2115
17354SOL    HW254316   9.604   6.348   1.813  0.2564  1.1463  0.2660
17355SOL     OW54317   1.722   0.097   6.382 -0.3957 -0.0872 -0.2885
17355SOL    HW154318   1.777   0.061   6.312  0.5939 -0.4625  0.6641
17355SOL    HW254319   1.663   0.157   6.337 -0.3948 -1.0027 -1.5778
17356SOL     OW54320   3.175   4.892  10.275 -0.8204 -0.1217 -0.3086
17356SOL    HW154321   3.154   4.985  10.281 -0.2001 -0.0457  0.8832
17356SOL    HW254322   3.107   4.848  10.326 -0.0181 -0.1466  0.7688
17357SOL     OW54323   8.370   2.861   7.359  0.3805 -0.5592 -0.5219
17357SOL    HW154324   8.456   2.837   7.324  0.7930  0.2941 -0.1282
17357SOL    HW254325   8.373   2.957   7.366 -0.7352 -0.4941 -0.8366
17358SOL     OW54326   3.781   1.682   6.850  0.2318  0.4504 -0.5749
17358SOL    HW154327   3.741   1.702   6.765 -0.1225  0.9084 -0.3063
17358SOL    HW254328   3.777   1.765   6.898 -2.6112 -0.4969  1.1264
17359SOL     OW54329   5.886   4.467   2.277 -0.4466 -0.0813  0.0271
17359SOL    HW154330   5.956   4.472   2.341 -1.6394  0.6124  1.3410
17359SOL    HW254331   5.833   4.545   2.293 -0.7571  0.1399 -1.8592
17360SOL     OW54332   6.383  10.511   2.028  0.1527  0.6247 -0.0876
17360SOL    HW154333   6.447  10.441   2.025 -0.2053  0.2964 -0.0768
17360SOL    HW254334   6.361  10.528   1.936  0.6534  1.1123 -0.1255
17361SOL     OW54335   9.194   9.289   0.993 -0.5790  0.0732 -0.6920
17361SOL    HW154336   9.175   9.239   1.073  0.3936 -1.1709 -1.1999
17361SOL    HW254337   9.289   9.290   0.988 -0.6235  0.3048 -1.7252
17362SOL     OW54338   0.340   2.375   5.755 -0.2929 -0.4538  0.0248
17362SOL    HW154339   0.435   2.377   5.745 -0.2602  0.3458  0.4460
17362SOL    HW254340   0.307   2.414   5.673 -0.3428 -2.3549 -0.9250
17363SOL     OW54341   9.379   9.455   3.751  0.4175  0.8103  0.3373
17363SOL    HW154342   9.355   9.510   3.677 -0.7641 -1.4195 -1.0510
17363SOL    HW254343   9.466   9.422   3.730  0.1632  0.3329  0.0078
17364SOL     OW54344   6.376   2.665   6.241 -0.0658  0.1456  0.1191
17364SOL    HW154345   6.317   2.643   6.169  1.2578 -0.5803 -0.7919
17364SOL    HW254346   6.346   2.611   6.314  0.0586 -0.9838 -0.6298
17365SOL     OW54347   8.929   0.677   6.593  0.3263 -0.0787  0.7462
17365SOL    HW154348   8.850   0.664   6.645  0.4086  2.4744  1.6658
17365SOL    HW254349   8.999   0.638   6.644  0.3257  1.9276  2.4071
17366SOL     OW54350   1.467   2.760   7.724 -0.7087  0.1247  0.0832
17366SOL    HW154351   1.547   2.811   7.711  0.5906 -1.2290  2.1837
17366SOL    HW254352   1.423   2.762   7.640  1.0624  1.7277 -0.8644
17367SOL     OW54353   7.801   6.165   8.456 -0.2782 -0.2988 -0.5686
17367SOL    HW154354   7.751   6.104   8.511 -1.7921  0.4677 -1.0319
17367SOL    HW254355   7.836   6.229   8.518  0.1995 -0.8799 -0.2284
17368SOL     OW54356   4.131   2.274   7.817  0.1825  0.0734  0.0606
17368SOL    HW154357   4.074   2.214   7.768 -1.8421  0.7372  1.5130
17368SOL    HW254358   4.116   2.360   7.777  0.0784  0.2723  0.5240
17369SOL     OW54359   2.423   4.677   2.066 -0.3710  0.1062  0.1931
17369SOL    HW154360   2.518   4.671   2.052 -0.3953  0.3766 -0.1086
17369SOL    HW254361   2.386   4.609   2.010 -0.4590  1.0982 -0.9901
17370SOL     OW54362   3.055   4.830   5.732 -1.0442 -0.0565  0.2995
17370SOL    HW154363   3.125   4.765   5.741 -0.1981  0.6999 -0.5864
17370SOL    HW254364   3.036   4.858   5.822  0.7558  0.6988  0.4805
17371SOL     OW54365   0.465   8.714   5.076 -0.0473  0.1715  0.4774
17371SOL    HW154366   0.537   8.661   5.043 -0.6594  0.6114 -1.6983
17371SOL    HW254367   0.469   8.703   5.171  2.1671 -0.6989  0.3359
17372SOL     OW54368   5.584   9.521  10.518 -0.5544  0.0664  0.0947
17372SOL    HW154369   5.520   9.590  10.501  0.0263  1.0709  1.7785
17372SOL    HW254370   5.532   9.442  10.529 -1.2638  0.2780 -1.4602
17373SOL     OW54371  10.142   8.063   5.843 -0.0440  0.1939  0.1553
17373SOL    HW154372  10.134   8.146   5.889 -1.9686  0.1437 -0.0090
17373SOL    HW254373  10.144   7.997   5.912 -0.6200  0.2585  0.2376
17374SOL     OW54374   1.445   9.236   3.062  0.9664 -0.3965 -0.1513
17374SOL    HW154375   1.359   9.200   3.041  1.5679 -1.2353 -1.3028
17374SOL    HW254376   1.486   9.169   3.118  1.5088 -0.8310 -1.0407
17375SOL     OW54377   3.067   5.800   4.165  0.5277 -1.0689  0.0111
17375SOL    HW154378   3.114   5.724   4.199  1.3173 -0.7447 -0.3245
17375SOL    HW254379   3.123   5.874   4.186  1.3152 -0.8965 -2.3617
17376SOL     OW54380   8.200   6.553   3.969 -0.0133 -0.6243  0.0298
17376SOL    HW154381   8.193   6.621   3.902  0.3985 -1.1926 -0.6050
17376SOL    HW254382   8.170   6.595   4.049 -0.7372  0.0010 -0.5528
17377SOL     OW54383   4.445   3.918   8.594  0.2791  0.2409 -0.9616
17377SOL    HW154384   4.426   3.884   8.507 -1.1666  0.8504 -0.9074
17377SOL    HW254385   4.363   3.904   8.643  1.2596 -0.6786  0.4956
17378SOL     OW54386   6.916   2.805   3.596  0.1603 -0.1272  0.3332
17378SOL    HW154387   6.976   2.792   3.668  1.6485  0.6713 -0.6994
17378SOL    HW254388   6.955   2.758   3.522 -1.1759 -0.7047 -0.0358
17379SOL     OW54389   3.636   1.684   8.960  0.3388  0.1952 -0.2069
17379SOL    HW154390   3.708   1.704   9.020 -0.7963 -1.1267  1.7236
17379SOL    HW254391   3.567   1.650   9.017 -1.2058 -0.1332 -2.1824
17380SOL     OW54392   7.728   4.159   3.716  0.2405  0.3437 -0.5637
17380SOL    HW154393   7.689   4.072   3.706  1.6455 -0.2564 -0.9882
17380SOL    HW254394   7.818   4.143   3.743  0.0045  1.7172  1.2954
17381SOL     OW54395   2.768   6.828   8.951 -0.1425  0.0160 -0.0469
17381SOL    HW154396   2.708   6.778   9.007  0.4495 -0.3022  0.3211
17381SOL    HW254397   2.718   6.905   8.924 -1.2651 -1.0385 -1.0759
17382SOL     OW54398   8.821   4.889   3.434 -0.0260  0.2814  0.6679
17382SOL    HW154399   8.876   4.967   3.421 -0.3975  0.3439 -0.6773
17382SOL    HW254400   8.861   4.843   3.507 -0.2305  2.1170  2.0169
17383SOL     OW54401   1.054   0.098   2.528  0.4104  0.0237  0.5842
17383SOL    HW154402   1.029   0.125   2.616 -1.4453 -0.5277  0.2758
17383SOL    HW254403   0.977   0.050   2.495  1.5829 -0.9727 -0.8172
17384SOL     OW54404   3.584   8.336   4.931  1.0786  0.0932  0.1126
17384SOL    HW154405   3.543   8.413   4.971 -0.1367  0.2745 -1.4353
17384SOL    HW254406   3.512   8.277   4.910  1.9845 -1.5694  1.3307
17385SOL     OW54407   6.783   9.958   5.982 -0.2647 -0.4023 -0.3914
17385SOL    HW154408   6.748   9.875   6.014  0.4228 -0.3566  0.5202
17385SOL    HW254409   6.711  10.020   5.992  0.1442 -0.2065  1.8776
17386SOL     OW54410   5.938   0.665   7.255 -0.0321 -0.1543 -0.2262
17386SOL    HW154411   5.968   0.597   7.195 -0.4510 -0.8702  0.3636
17386SOL    HW254412   5.913   0.738   7.197  1.0814 -0.2161 -0.8230
17387SOL     OW54413   2.845  10.245   5.190  0.3733 -0.5282 -0.1737
17387SOL    HW154414   2.804  10.325   5.222 -0.5126 -0.5540 -1.1985
17387SOL    HW254415   2.838  10.184   5.263 -1.0288 -0.3837 -0.1572
17388SOL     OW54416   0.260   4.960   8.679 -0.2267  0.6185 -0.3564
17388SOL    HW154417   0.299   4.875   8.659  3.1145  2.3096 -1.8450
17388SOL    HW254418   0.255   4.962   8.775  0.3986 -0.9385 -0.2567
17389SOL     OW54419   4.549   5.014   6.482  0.1629  0.0382  0.4082
17389SOL    HW154420   4.472   4.959   6.495  0.7204 -0.9326 -0.2947
17389SOL    HW254421   4.584   5.028   6.570 -0.8474  0.5617  0.7438
17390SOL     OW54422   2.017   4.104   8.152  0.0325 -0.3652  0.1537
17390SOL    HW154423   2.033   4.029   8.208 -1.5638 -0.6016  0.3412
17390SOL    HW254424   1.945   4.078   8.096  0.6119  0.4113 -1.0001
17391SOL     OW54425   3.260   9.265   7.371  0.0257 -0.3808 -1.1877
17391SOL    HW154426   3.286   9.272   7.279  0.4267 -0.0302 -1.0456
17391SOL    HW254427   3.287   9.347   7.411  0.2471 -0.7062 -0.6541
17392SOL     OW54428   8.423   3.788   5.687 -0.5410  0.1647 -0.2426
17392SOL    HW154429   8.498   3.753   5.735  0.3267  0.5751 -1.2613
17392SOL    HW254430   8.444   3.879   5.672 -2.4686  1.0540  1.7551
17393SOL     OW54431   5.963   0.196   2.131 -0.6139 -0.4886  0.0736
17393SOL    HW154432   5.984   0.119   2.078 -0.8222 -0.6724  0.2606
17393SOL    HW254433   5.895   0.167   2.191 -2.5810  0.4936 -1.5753
17394SOL     OW54434   6.742   3.096   5.726 -0.2585 -0.3338  0.3195
17394SOL    HW154435   6.729   3.175   5.779  0.7182 -0.5274  0.8766
17394SOL    HW254436   6.659   3.049   5.733  0.2557 -1.0455  2.9223
17395SOL     OW54437   7.751   9.028   5.114 -0.0824 -0.4926 -0.1646
17395SOL    HW154438   7.690   8.954   5.108 -0.3674 -0.2857  0.1112
17395SOL    HW254439   7.826   9.002   5.061 -0.1310 -1.0273  0.0190
17396SOL     OW54440  10.335   3.794   6.238 -0.4686  0.0147 -0.2462
17396SOL    HW154441  10.415   3.842   6.217  1.0156 -1.4764  1.5276
17396SOL    HW254442  10.309   3.828   6.324 -0.4459 -1.0517  0.1934
17397SOL     OW54443   1.179   5.100   6.308  0.5158  0.0514 -0.6864
17397SOL    HW154444   1.181   5.052   6.225  0.1139  2.1404 -1.9799
17397SOL    HW254445   1.258   5.154   6.306 -0.1603  1.0782 -0.3266
17398SOL     OW54446   1.374   0.868   5.531  0.5756  0.7582 -0.2254
17398SOL    HW154447   1.281   0.882   5.551  0.2666  0.4593 -1.3893
17398SOL    HW254448   1.411   0.956   5.525  0.3004  0.8871 -0.0534
17399SOL     OW54449   5.632   6.742   5.967 -0.4628  0.0780  0.0139
17399SOL    HW154450   5.705   6.684   5.944 -0.8086 -0.1326 -0.5628
17399SOL    HW254451   5.554   6.698   5.933 -0.9230  0.0666  1.0383
17400SOL     OW54452   7.663   8.632   4.051  0.5043  0.2803  0.1625
17400SOL    HW154453   7.715   8.588   3.983  0.9267  0.7946  0.1396
17400SOL    HW254454   7.581   8.583   4.054  1.4795 -1.4075  1.1327
17401SOL     OW54455   3.254   8.777   9.334  0.1339 -0.1426 -0.1039
17401SOL    HW154456   3.284   8.695   9.374  1.0772 -0.0780 -0.6491
17401SOL    HW254457   3.251   8.758   9.240  1.4196  0.7516 -0.3497
17402SOL     OW54458   5.945   8.330   3.148  0.0249 -0.1779  0.1592
17402SOL    HW154459   6.040   8.312   3.148 -0.1370 -1.1266 -0.8820
17402SOL    HW254460   5.939   8.423   3.168  1.1942 -0.0479  0.0096
17403SOL     OW54461   1.106   9.911   0.461 -0.0352  0.0820  0.0862
17403SOL    HW154462   1.100  10.005   0.442  1.9419  0.1852 -0.2438
17403SOL    HW254463   1.171   9.905   0.531 -1.4401 -0.9410  1.3731
17404SOL     OW54464   5.019   1.143   6.645 -0.1785  0.5426  0.3727
17404SOL    HW154465   5.050   1.128   6.734  0.7373  0.1869  0.0007
17404SOL    HW254466   4.984   1.059   6.616 -0.3097  0.6101  0.3346
17405SOL     OW54467   7.669   8.489   1.035 -0.2684 -0.6025 -0.6016
17405SOL    HW154468   7.611   8.428   1.081 -0.1699  0.1001  0.5002
17405SOL    HW254469   7.753   8.481   1.082 -0.4577  0.8972  0.0523
17406SOL     OW54470   1.803   4.079   3.797 -0.0836 -0.5293 -0.0798
17406SOL    HW154471   1.725   4.093   3.851 -0.1654 -1.2133 -0.0193
17406SOL    HW254472   1.771   4.086   3.707 -0.4421 -1.9543 -0.0764
17407SOL     OW54473   8.510   8.366   6.293 -0.1029 -0.1848 -0.1481
17407SOL    HW154474   8.436   8.424   6.311 -0.3810 -0.2166 -1.1231
17407SOL    HW254475   8.587   8.418   6.311 -0.3503 -0.4358  1.7665
17408SOL     OW54476   3.628   3.491   7.713 -0.6205 -0.5632 -0.1421
17408SOL    HW154477   3.546   3.501   7.761  0.0084  1.7980  0.5982
17408SOL    HW254478   3.602   3.496   7.621 -1.2912  0.8221  0.0936
17409SOL     OW54479   8.375   8.806   1.193  0.7258  0.6437 -0.4795
17409SOL    HW154480   8.456   8.856   1.201  1.6318 -0.8823  0.3507
17409SOL    HW254481   8.389   8.748   1.119  0.5889  0.0261 -0.0305
17410SOL     OW54482   9.088   3.293   2.297  0.1663  0.1015  0.0955
17410SOL    HW154483   9.139   3.262   2.371  1.1528  0.9631 -0.1894
17410SOL    HW254484   9.088   3.220   2.235 -1.2330 -0.8694  1.1843
17411SOL     OW54485   5.952   2.324   9.958  0.0806 -0.2791 -0.2235
17411SOL    HW154486   5.865   2.361   9.945  0.3024 -0.2204 -1.7219
17411SOL    HW254487   5.965   2.325  10.053 -0.6759  1.6945 -0.1035
17412SOL     OW54488   8.792   3.863   1.548  0.1214 -0.1623 -0.0680
17412SOL    HW154489   8.876   3.824   1.522  0.3543  0.6804 -0.6101
17412SOL    HW254490   8.809   3.957   1.550 -0.8608  0.0344 -0.3738
17413SOL     OW54491   1.812   9.658   0.440  0.4098  0.5026  0.2874
17413SOL    HW154492   1.859   9.582   0.476 -0.5872  0.0772  0.7338
17413SOL    HW254493   1.795   9.713   0.516 -0.6957  0.1590  0.2975
17414SOL     OW54494   4.320   3.621  10.393  0.1357 -0.0207 -0.1641
17414SOL    HW154495   4.343   3.607  10.301 -2.2644 -0.6199 -0.7520
17414SOL    HW254496   4.293   3.535  10.424 -0.7805  0.5183  0.5699
17415SOL     OW54497   7.850   7.204   9.015  0.3831 -0.1860 -0.2740
17415SOL    HW154498   7.824   7.181   9.104 -0.5343 -0.8166 -0.6928
17415SOL    HW254499   7.768   7.222   8.969  0.6855 -1.7068 -1.4862
17416SOL     OW54500   7.366   9.529   6.458 -0.5829 -0.0172  0.1876
17416SOL    HW154501   7.406   9.546   6.542  0.3224  3.6055 -0.8164
17416SOL    HW254502   7.276   9.561   6.467 -0.4947  0.3487 -0.1718
17417SOL     OW54503   1.270   8.695   8.594  0.0064 -0.1794  0.1203
17417SOL    HW154504   1.305   8.778   8.561  0.3872 -0.7362 -0.9364
17417SOL    HW254505   1.345   8.635   8.593 -0.4718 -0.7881 -0.0598
17418SOL     OW54506   2.888   0.722   5.399  0.2072  0.0122  0.0059
17418SOL    HW154507   2.855   0.633   5.395 -0.2035  0.1785 -0.2800
17418SOL    HW254508   2.899   0.739   5.493 -0.7131  0.0319  0.1149
17419SOL     OW54509   5.719   1.873   6.753  0.1090  0.2675 -0.2263
17419SOL    HW154510   5.778   1.839   6.686 -0.3868 -0.6962 -0.1944
17419SOL    HW254511   5.771   1.874   6.833 -0.0084 -0.9209 -0.1218
17420SOL     OW54512   1.812   8.885   6.855 -0.2048  0.2408 -0.1206
17420SOL    HW154513   1.738   8.946   6.851  0.3133  0.8564 -0.6306
17420SOL    HW254514   1.852   8.890   6.768  0.6586  0.2029  0.2579
17421SOL     OW54515   1.234   6.478  10.393  0.5453  0.4745 -0.2498
17421SOL    HW154516   1.315   6.526  10.410 -0.5802  2.2659  0.3348
17421SOL    HW254517   1.195   6.464  10.479 -0.2680  0.5435 -0.5958
17422SOL     OW54518   2.568   5.645   9.819  0.0006  0.3700 -0.2531
17422SOL    HW154519   2.479   5.620   9.844  0.3370 -2.6448 -1.5899
17422SOL    HW254520   2.623   5.613   9.890  0.1535  0.5628 -0.2844
17423SOL     OW54521   6.056   4.273   9.894  0.1073 -0.5928  0.2064
17423SOL    HW154522   5.970   4.272   9.853 -0.2884  0.4029  0.9634
17423SOL    HW254523   6.087   4.363   9.882  0.6210 -0.6833  0.7872
17424SOL     OW54524   8.812   3.282   6.024 -0.2716  0.1178 -0.2472
17424SOL    HW154525   8.906   3.289   6.042 -0.5990  2.0727  1.0110
17424SOL    HW254526   8.800   3.192   5.994  1.9415 -0.2757 -0.1321
17425SOL     OW54527   0.750   0.061   7.478 -0.2698 -0.4440 -0.0203
17425SOL    HW154528   0.717  -0.013   7.529  0.3544  0.0467  1.1344
17425SOL    HW254529   0.673   0.095   7.433 -0.7201 -1.2800  0.1002
17426SOL     OW54530   4.192   8.718   2.493  0.5158 -0.1032 -0.3108
17426SOL    HW154531   4.187   8.753   2.404 -1.1606 -0.0947 -0.2517
17426SOL    HW254532   4.117   8.659   2.500  0.5225  0.0172  1.1471
17427SOL     OW54533   1.677   5.190   5.646 -0.1148  0.0553 -0.2398
17427SOL    HW154534   1.645   5.267   5.695  0.7375  0.1765  0.1424
17427SOL    HW254535   1.676   5.218   5.555 -3.0050 -0.6166 -0.5087
17428SOL     OW54536   1.998   4.539   8.028 -0.6880  0.0618 -0.0213
17428SOL    HW154537   2.022   4.625   8.064 -0.4610 -0.0832  0.1698
17428SOL    HW254538   2.026   4.543   7.936  0.2426 -0.1753  0.2460
17429SOL     OW54539   1.591   0.309   9.360 -0.3487  0.2627  0.5006
17429SOL    HW154540   1.584   0.362   9.439 -0.7499 -1.2927  1.5583
17429SOL    HW254541   1.657   0.243   9.381  0.4798  0.5703 -0.9525
17430SOL     OW54542   1.381   4.713   8.279 -0.1931 -0.1475  0.5357
17430SOL    HW154543   1.386   4.776   8.207  0.0043 -1.1028 -0.3059
17430SOL    HW254544   1.291   4.721   8.312 -0.5132 -0.2391 -0.3102
17431SOL     OW54545   7.930   9.395   4.261  0.9840 -0.0486  0.6782
17431SOL    HW154546   7.844   9.368   4.227  2.2702 -1.4266 -1.7730
17431SOL    HW254547   7.958   9.322   4.316  0.4019  0.6145  1.8708
17432SOL     OW54548   5.460   8.083   1.644  0.4543 -0.0138 -0.2068
17432SOL    HW154549   5.522   8.010   1.638  0.0156 -0.3061 -1.5588
17432SOL    HW254550   5.407   8.063   1.721 -0.6396 -1.9460 -1.3904
17433SOL     OW54551   0.548   8.497   2.420  0.2584 -0.3850  0.1337
17433SOL    HW154552   0.461   8.503   2.460  0.0588 -2.0666  0.0251
17433SOL    HW254553   0.547   8.414   2.373  1.6827 -0.0762 -0.4894
17434SOL     OW54554   5.172  10.312   1.679  0.9782 -0.1633 -0.1620
17434SOL    HW154555   5.107  10.244   1.663  1.2726 -0.1620 -1.4641
17434SOL    HW254556   5.131  10.369   1.744  0.9127 -1.8012  1.3145
17435SOL     OW54557   0.532   4.609   2.234 -0.3261 -0.0622 -0.1567
17435SOL    HW154558   0.445   4.633   2.202  0.1306  0.3439 -1.1350
17435SOL    HW254559   0.545   4.665   2.311 -1.3555 -0.9074  0.6627
17436SOL     OW54560   7.398   4.306   2.340  0.2430 -0.6745  0.3892
17436SOL    HW154561   7.407   4.223   2.292 -1.9790 -1.4543  1.2034
17436SOL    HW254562   7.418   4.373   2.274  0.4142 -1.7920 -0.7516
17437SOL     OW54563   4.581   3.575   3.705  0.0288 -0.1053  0.8225
17437SOL    HW154564   4.631   3.504   3.665  0.1984 -0.0951  1.0153
17437SOL    HW254565   4.559   3.632   3.632 -1.7396 -1.3126  0.3474
17438SOL     OW54566   2.348   7.333   5.138  0.4435  0.1477  0.0092
17438SOL    HW154567   2.322   7.362   5.051  1.4929 -0.9323 -0.7074
17438SOL    HW254568   2.353   7.413   5.190  1.4184  1.0372 -1.3825
17439SOL     OW54569  10.220   2.556   7.322  0.4180  0.1386  0.1753
17439SOL    HW154570  10.135   2.597   7.339  0.5068  0.5454 -0.3628
17439SOL    HW254571  10.224   2.483   7.385  0.1953  0.8535  1.0457
17440SOL     OW54572   2.564   2.272   3.196  0.3800  0.1142  0.1990
17440SOL    HW154573   2.474   2.288   3.225 -0.1371 -1.5103 -0.4163
17440SOL    HW254574   2.567   2.306   3.107  0.4480  0.3712  0.2982
17441SOL     OW54575   8.778   2.523   2.452  0.0455  0.5554  0.2617
17441SOL    HW154576   8.699   2.469   2.448  0.6243 -0.3111  0.3940
17441SOL    HW254577   8.845   2.466   2.487  0.8059  1.2064 -0.0905
17442SOL     OW54578   3.188   8.776  10.399 -0.0818 -0.1442 -0.3547
17442SOL    HW154579   3.211   8.867  10.421  1.2430 -0.2333 -1.2276
17442SOL    HW254580   3.161   8.780  10.307 -0.0985 -0.6226 -0.3706
17443SOL     OW54581   6.402   4.122   3.011  0.2367  0.1981 -0.6081
17443SOL    HW154582   6.342   4.192   2.984  1.1558  0.0909 -3.2200
17443SOL    HW254583   6.357   4.079   3.084 -0.7935  2.8571  0.4679
17444SOL     OW54584   7.496  10.333   6.724 -0.1992 -0.2800  0.4087
17444SOL    HW154585   7.442  10.326   6.646  0.5058 -2.1913  0.0351
17444SOL    HW254586   7.494  10.245   6.762  1.5681 -0.0590  1.1040
17445SOL     OW54587   8.061   4.359   1.306  0.5091 -0.3047  0.3614
17445SOL    HW154588   8.136   4.347   1.363  1.1824  0.7360 -0.2741
17445SOL    HW254589   8.034   4.450   1.320  1.9699  0.6743 -2.4141
17446SOL     OW54590   3.637   0.788   0.558 -0.0419  0.5410 -0.2003
17446SOL    HW154591   3.727   0.768   0.535 -0.3307  0.1531 -1.0324
17446SOL    HW254592   3.584   0.743   0.493 -0.8797  0.0571  0.7741
17447SOL     OW54593  10.519  10.494   5.520  0.4170 -0.0437  0.5533
17447SOL    HW154594  10.522  10.413   5.571 -2.2252  1.4879  3.4874
17447SOL    HW254595  10.435  10.490   5.474 -0.4857  1.6116  1.9604
17448SOL     OW54596   0.347   4.156   6.538 -0.0617 -0.0716 -0.3290
17448SOL    HW154597   0.260   4.142   6.501  0.5003 -0.3467 -1.5796
17448SOL    HW254598   0.337   4.133   6.631 -1.3813  0.1784 -0.3892
17449SOL     OW54599   9.883   6.950   4.219 -0.0403  0.7443  0.4014
17449SOL    HW154600   9.914   7.040   4.230 -2.0594  1.4863  0.4638
17449SOL    HW254601   9.819   6.939   4.290  0.3404 -0.8347  0.5294
17450SOL     OW54602   1.981   8.274   9.028  0.1876 -0.6910 -0.5857
17450SOL    HW154603   1.997   8.201   8.968  1.8371  0.6597 -1.8651
17450SOL    HW254604   2.027   8.250   9.108 -0.7263 -1.7971 -0.3602
17451SOL     OW54605   5.188   9.025  10.267  0.8311 -0.7082  0.1236
17451SOL    HW154606   5.195   9.096  10.204  0.8207 -0.4567  0.4040
17451SOL    HW254607   5.163   9.068  10.349 -0.2153 -1.1516  0.0444
17452SOL     OW54608   1.695   6.004   8.470  0.5276 -0.3302 -0.6524
17452SOL    HW154609   1.697   5.923   8.520 -0.8650 -0.7960 -1.2991
17452SOL    HW254610   1.716   5.978   8.380  1.1933  0.2032 -0.6538
17453SOL     OW54611  10.420   9.449   1.412  0.3392  0.0106 -0.2487
17453SOL    HW154612  10.449   9.374   1.465  1.2441  1.3101  1.2019
17453SOL    HW254613  10.482   9.452   1.339  0.5645 -0.4160 -0.0786
17454SOL     OW54614   7.489   1.108   8.660 -0.0035 -0.1563  0.4435
17454SOL    HW154615   7.473   1.176   8.595  0.5082  0.7003  1.1885
17454SOL    HW254616   7.559   1.143   8.715  0.3386 -1.3345  0.7883
17455SOL     OW54617   2.294   9.909   0.558 -0.3374 -0.7301 -0.3940
17455SOL    HW154618   2.325   9.949   0.639 -0.9880  0.0690 -0.5237
17455SOL    HW254619   2.267   9.821   0.583 -2.0637  0.0434  0.6266
17456SOL     OW54620   3.895   1.792   1.375 -0.6192 -0.0361  0.0185
17456SOL    HW154621   3.869   1.822   1.462  0.0909 -1.1833  0.6406
17456SOL    HW254622   3.866   1.701   1.371 -1.7939  0.3605 -1.4463
17457SOL     OW54623   4.884   7.129   1.422 -0.1899  0.1503 -0.0978
17457SOL    HW154624   4.799   7.102   1.387 -0.1198  0.9105 -0.8794
17457SOL    HW254625   4.917   7.052   1.469 -0.4437 -0.7937 -1.4344
17458SOL     OW54626   7.056   1.165  10.559 -0.4339 -0.5104  0.1449
17458SOL    HW154627   7.078   1.218  10.482  0.8990 -2.7280 -1.1085
17458SOL    HW254628   7.137   1.159  10.609 -0.2989 -2.0658 -0.2194
17459SOL     OW54629   2.508   1.893   2.410  0.2624 -0.5134  0.4581
17459SOL    HW154630   2.510   1.818   2.469 -1.2693 -1.8024 -1.0561
17459SOL    HW254631   2.599   1.923   2.408  0.6699 -1.4854  2.0885
17460SOL     OW54632   2.544   8.194   1.290 -0.2141 -0.4817  0.2705
17460SOL    HW154633   2.550   8.099   1.277  0.5519 -0.2084 -1.7532
17460SOL    HW254634   2.541   8.230   1.202 -0.5633  1.3925  1.0037
17461SOL     OW54635   7.984   0.877   2.634 -0.3383  0.1002  0.3563
17461SOL    HW154636   7.897   0.907   2.659 -0.6697 -0.0477 -0.5645
17461SOL    HW254637   8.033   0.957   2.618 -0.4746  0.1778  0.3264
17462SOL     OW54638   4.091   8.865   2.756  0.0480 -0.5074  0.0583
17462SOL    HW154639   4.021   8.800   2.751 -0.6770  0.2244  0.5697
17462SOL    HW254640   4.150   8.841   2.684 -0.3652 -1.5344  0.0358
17463SOL     OW54641   4.397   8.609   3.281  0.2288 -0.4220 -0.3655
17463SOL    HW154642   4.450   8.681   3.315  0.1482 -0.4837 -0.1049
17463SOL    HW254643   4.355   8.645   3.203  0.3084 -0.2354 -0.3243
17464SOL     OW54644   1.941   7.231   1.768  0.4820  0.2367  0.4670
17464SOL    HW154645   1.908   7.159   1.822  2.1866 -0.8072  0.1977
17464SOL    HW254646   2.035   7.232   1.785  0.6438  1.7031 -0.3874
17465SOL     OW54647   1.662   4.384   4.294 -0.2791 -0.0574 -0.2649
17465SOL    HW154648   1.746   4.417   4.262 -0.0967  0.3534  0.6110
17465SOL    HW254649   1.677   4.291   4.309 -0.3455 -0.2429 -1.2810
17466SOL     OW54650   8.579   4.187   1.797  0.5769 -0.6821 -0.2179
17466SOL    HW154651   8.544   4.254   1.855  1.6685 -1.3023  1.1941
17466SOL    HW254652   8.542   4.105   1.830  0.3284 -0.9368 -1.0951
17467SOL     OW54653   1.385   2.164   5.598  0.3620 -0.3011 -1.1508
17467SOL    HW154654   1.373   2.100   5.527 -1.0330 -0.8685 -0.4462
17467SOL    HW254655   1.457   2.128   5.650 -0.2706 -1.2022 -0.8801
17468SOL     OW54656   3.406   0.546   8.276 -0.6570 -0.2538 -0.3355
17468SOL    HW154657   3.347   0.619   8.293  1.1461  1.0539  0.7091
17468SOL    HW254658   3.382   0.481   8.342 -0.8789  0.3053  0.1462
17469SOL     OW54659   0.644   7.939   0.628 -0.1378  0.7294  0.0947
17469SOL    HW154660   0.561   7.919   0.585  0.5771 -0.5797 -0.7348
17469SOL    HW254661   0.625   8.017   0.680 -2.3958 -0.6252  1.4694
17470SOL     OW54662   6.669   0.726   4.102  0.1287 -0.0612  0.3125
17470SOL    HW154663   6.616   0.652   4.072  0.5317 -0.2637  0.0972
17470SOL    HW254664   6.685   0.707   4.195  1.5469 -1.0469 -0.1135
17471SOL     OW54665  10.411   7.911  10.216  0.5366  0.5059  0.0163
17471SOL    HW154666  10.441   7.877  10.132 -0.0260  0.2826 -0.0990
17471SOL    HW254667  10.491   7.919  10.268  0.7822 -0.2447 -0.2213
17472SOL     OW54668  10.173   5.445   7.170 -0.2185  0.3001 -0.3901
17472SOL    HW154669  10.215   5.362   7.192 -1.6342  0.2419  2.5044
17472SOL    HW254670  10.242   5.497   7.128  0.9486 -1.9642 -1.4129
17473SOL     OW54671   0.313   2.155   4.222  0.1313  0.8198  0.1776
17473SOL    HW154672   0.298   2.066   4.190  0.0092  0.6336  0.7319
17473SOL    HW254673   0.348   2.143   4.311 -0.9502  1.3296  0.6921
17474SOL     OW54674   3.791   0.301   5.446 -0.2456 -0.3850 -0.4882
17474SOL    HW154675   3.753   0.385   5.470  1.3139  0.0270  0.7829
17474SOL    HW254676   3.871   0.295   5.500  0.2278 -2.2061 -1.3077
17475SOL     OW54677   7.518   9.302  10.280  0.5487  0.5597  0.6359
17475SOL    HW154678   7.426   9.285  10.297  0.6376  0.6162  1.1746
17475SOL    HW254679   7.564   9.228  10.318  0.7249  0.4839  0.2843
17476SOL     OW54680   2.352   2.484   4.040  0.5561 -0.2535  0.3466
17476SOL    HW154681   2.431   2.439   4.011  0.8524 -0.2894  1.1870
17476SOL    HW254682   2.383   2.547   4.105 -0.2059 -0.9399  1.4096
17477SOL     OW54683   6.119   8.526   4.763 -0.3659  0.1120  0.0716
17477SOL    HW154684   6.127   8.603   4.819  1.0624  1.2948 -1.6365
17477SOL    HW254685   6.180   8.462   4.800 -0.3993  0.3841  0.6021
17478SOL     OW54686   0.776   9.975   9.717  0.1560  0.1044  0.3589
17478SOL    HW154687   0.786   9.880   9.707  0.6019  0.0056  1.6415
17478SOL    HW254688   0.843  10.012   9.659  0.2352 -0.3691  0.1399
17479SOL     OW54689   6.806   2.512   3.114  0.0359 -0.2015 -0.5106
17479SOL    HW154690   6.744   2.439   3.122 -0.0335 -0.3918 -2.2854
17479SOL    HW254691   6.828   2.514   3.020  1.7077  0.6914 -0.1442
17480SOL     OW54692   6.497   4.309  10.177 -0.0369  0.5394  0.3615
17480SOL    HW154693   6.505   4.370  10.250 -0.2539 -0.8506  1.6134
17480SOL    HW254694   6.585   4.272  10.167 -0.4028 -0.6322  1.2069
17481SOL     OW54695   1.403   1.272   6.333 -0.0627  0.0224  0.1806
17481SOL    HW154696   1.444   1.208   6.275  0.4443  1.0709 -0.6479
17481SOL    HW254697   1.341   1.221   6.385 -0.2665 -1.0117 -1.0247
17482SOL     OW54698   3.227   0.569   4.302 -0.3647  0.1783  0.5093
17482SOL    HW154699   3.309   0.538   4.265 -0.5793 -0.8220  0.8164
17482SOL    HW254700   3.216   0.657   4.267  0.1313 -0.2055 -0.6658
17483SOL     OW54701   2.986   5.857   8.386  0.4068 -0.5876 -0.2460
17483SOL    HW154702   2.974   5.935   8.440  0.7457  0.1709 -1.2331
17483SOL    HW254703   2.907   5.805   8.399 -0.6144  0.7573 -0.9092
17484SOL     OW54704   9.317   5.796   1.692  0.1548  0.3020  0.5004
17484SOL    HW154705   9.240   5.790   1.637 -0.3678  2.1603  0.9448
17484SOL    HW254706   9.391   5.804   1.631  0.1010 -1.9208  0.0689
17485SOL     OW54707   9.226   6.034   6.353  0.4757 -0.4926  0.6521
17485SOL    HW154708   9.145   6.081   6.369 -0.0076 -0.1570 -2.2243
17485SOL    HW254709   9.295   6.099   6.364  0.5025 -0.8777  3.5348
17486SOL     OW54710   9.217  10.142   8.924 -0.4110  0.1007  0.1845
17486SOL    HW154711   9.123  10.127   8.923 -0.3880 -0.1952 -2.0132
17486SOL    HW254712   9.252  10.081   8.859  1.0646  1.4437 -0.3401
17487SOL     OW54713   9.074   7.018   0.976  0.2650  0.1317 -0.0031
17487SOL    HW154714   8.995   7.014   1.030  0.4853 -0.4567  0.2775
17487SOL    HW254715   9.040   7.018   0.886 -0.0959  1.0091  0.1254
17488SOL     OW54716   0.098   1.691   9.446  0.0364  0.2075 -0.4562
17488SOL    HW154717   0.140   1.778   9.446 -1.3108  0.9044  0.9060
17488SOL    HW254718   0.066   1.680   9.356  1.0495  0.6717 -0.8992
17489SOL     OW54719   7.879   1.276   3.803  0.1738  0.0894 -0.0113
17489SOL    HW154720   7.854   1.367   3.786  0.2104  0.6407  2.4616
17489SOL    HW254721   7.914   1.277   3.892  1.2359 -2.1707 -0.3302
17490SOL     OW54722   2.517   2.005   2.900 -0.6773 -0.6129  0.1757
17490SOL    HW154723   2.479   2.032   2.983  0.1179  1.0695  0.0258
17490SOL    HW254724   2.566   1.926   2.920  0.6083  0.4877  1.6290
17491SOL     OW54725   2.378   3.473   9.768 -0.1284  0.1243  0.0519
17491SOL    HW154726   2.306   3.411   9.754 -0.2796 -0.3741  2.4805
17491SOL    HW254727   2.337   3.547   9.813  0.5224  0.8274 -0.4851
17492SOL     OW54728  10.458   6.730   2.637 -0.0631 -0.4794 -0.3083
17492SOL    HW154729  10.416   6.737   2.722  0.1042  1.4088 -0.3401
17492SOL    HW254730  10.403   6.668   2.588 -1.2742 -0.1119  0.5327
17493SOL     OW54731   8.933   0.797   0.811 -0.0422 -0.0022  0.0413
17493SOL    HW154732   9.011   0.754   0.846  0.6357  0.7703 -0.4519
17493SOL    HW254733   8.917   0.870   0.871 -0.7941 -0.5507  0.5139
17494SOL     OW54734   9.350   2.015   9.426  0.2116 -0.0757 -0.0474
17494SOL    HW154735   9.398   1.942   9.388  0.3695 -0.3727  0.6976
17494SOL    HW254736   9.372   2.012   9.519 -3.0576 -1.7104  0.8234
17495SOL     OW54737   5.039   0.825   7.988  0.2008 -0.1747 -0.0253
17495SOL    HW154738   4.979   0.753   7.970  0.4460 -0.5806  0.7420
17495SOL    HW254739   5.071   0.852   7.902  0.3282 -1.1724 -0.2960
17496SOL     OW54740   0.395  10.185   0.411 -0.2212  0.4134 -0.0118
17496SOL    HW154741   0.412  10.252   0.478 -0.9766  1.3746 -0.7462
17496SOL    HW254742   0.445  10.109   0.440 -0.6193  0.7673  1.6908
17497SOL     OW54743   5.716   1.971  10.379 -0.5222 -0.0313  0.9839
17497SOL    HW154744   5.698   2.043  10.441  0.4616  0.8503  0.2733
17497SOL    HW254745   5.808   1.950  10.392  0.1127  1.1509 -1.1360
17498SOL     OW54746   9.224   5.797   6.514 -0.2087  0.1093  0.1803
17498SOL    HW154747   9.141   5.819   6.557 -2.8221 -0.4423 -3.9466
17498SOL    HW254748   9.243   5.874   6.460  0.9916 -0.4609 -0.2351
17499SOL     OW54749   2.428   6.092   0.121 -0.2602 -0.4607 -0.3504
17499SOL    HW154750   2.390   6.014   0.160  0.0943 -1.0391 -1.1313
17499SOL    HW254751   2.396   6.092   0.030 -0.5801  0.5198 -0.2576
17500SOL     OW54752   6.755   4.674   8.607  0.4510  0.4060  0.2792
17500SOL    HW154753   6.661   4.667   8.595  0.2278  1.2893  1.3158
17500SOL    HW254754   6.777   4.761   8.574  0.7632  0.5410  0.8319
17501SOL     OW54755   0.588   1.156   8.046 -0.2019 -0.0120 -0.1204
17501SOL    HW154756   0.505   1.108   8.051 -0.0218 -0.3078  0.0157
17501SOL    HW254757   0.586   1.197   7.960 -1.7273  2.2347  0.8737
17502SOL     OW54758   1.945   6.068   1.959  0.3648  0.0093 -0.6254
17502SOL    HW154759   1.956   6.024   2.043  0.7106  2.1378  0.5163
17502SOL    HW254760   1.880   6.015   1.913 -1.1179 -0.3352  1.6811
17503SOL     OW54761   4.080   2.019   4.841 -0.0596 -0.0188 -0.3128
17503SOL    HW154762   4.009   2.066   4.798  0.0738 -0.7733 -1.4152
17503SOL    HW254763   4.160   2.061   4.810  0.0125  0.5419  0.5790
17504SOL     OW54764   1.209   0.425   1.076 -0.5148 -0.2738 -0.3232
17504SOL    HW154765   1.295   0.404   1.038  0.3920  0.8550  1.0133
17504SOL    HW254766   1.155   0.449   1.000  0.2995 -1.0792 -1.1924
17505SOL     OW54767   9.408  10.211   3.211  0.3565  0.1412 -0.5351
17505SOL    HW154768   9.403  10.270   3.286 -1.9410 -1.8683  1.0486
17505SOL    HW254769   9.379  10.264   3.137 -0.9612  1.2462  0.7030
17506SOL     OW54770   2.276   0.303   0.155 -0.3178  0.9266 -0.3335
17506SOL    HW154771   2.338   0.286   0.226 -0.2973 -1.6664 -0.8991
17506SOL    HW254772   2.190   0.298   0.197 -0.3111 -0.7319 -0.4698
17507SOL     OW54773   3.527   3.337   1.458  0.5898 -0.3117  0.1834
17507SOL    HW154774   3.532   3.432   1.450  1.1122 -0.2665  1.0315
17507SOL    HW254775   3.497   3.321   1.547  0.5925 -0.9472  0.0771
17508SOL     OW54776   2.863   1.401   2.488  0.6151  0.4698  0.0251
17508SOL    HW154777   2.884   1.406   2.581  1.7963  0.8064 -0.2443
17508SOL    HW254778   2.775   1.365   2.486  0.2059  1.3140  1.3029
17509SOL     OW54779   4.775   4.295   7.298  0.3776  0.7119  0.0248
17509SOL    HW154780   4.801   4.261   7.213 -0.0554  1.7257 -0.5282
17509SOL    HW254781   4.736   4.381   7.279  0.0181  0.8288  1.2090
17510SOL     OW54782   2.877   0.304   5.540  0.4605  0.6089 -0.4313
17510SOL    HW154783   2.811   0.240   5.515  0.7251  0.0702  0.2163
17510SOL    HW254784   2.828   0.374   5.583  0.1540  0.9300 -1.2653
17511SOL     OW54785   1.509   8.666   9.474  0.5302 -0.3176  0.0071
17511SOL    HW154786   1.528   8.648   9.382 -0.3928  1.2254 -0.5194
17511SOL    HW254787   1.468   8.752   9.474  0.0045 -0.5189  1.8118
17512SOL     OW54788   7.809   3.721   5.255 -0.3645 -0.2108  0.0553
17512SOL    HW154789   7.744   3.660   5.219 -1.5740  0.8484  0.3850
17512SOL    HW254790   7.860   3.748   5.178 -1.3042  0.1147 -0.4697
17513SOL     OW54791   4.805   9.390   1.759  0.4841 -0.2189 -0.0992
17513SOL    HW154792   4.779   9.387   1.667  0.4641 -0.3135 -0.0900
17513SOL    HW254793   4.865   9.316   1.770 -0.4027 -0.9013  0.2431
17514SOL     OW54794   4.483   1.729   9.509 -0.2719  0.5342  0.4365
17514SOL    HW154795   4.412   1.694   9.455 -0.8296  1.1913  0.7322
17514SOL    HW254796   4.459   1.821   9.524  0.4409  0.6566  0.8737
17515SOL     OW54797   3.755   5.872   1.915 -0.1540 -0.1981  0.0432
17515SOL    HW154798   3.766   5.928   1.992  0.4753  0.3574 -0.4352
17515SOL    HW254799   3.684   5.813   1.938 -0.4068  0.3865  0.8077
17516SOL     OW54800   1.961   4.396   0.262  0.1502  0.1242 -0.0646
17516SOL    HW154801   2.033   4.440   0.216 -0.5793 -0.2772 -1.6509
17516SOL    HW254802   1.986   4.304   0.263 -1.1733 -0.3362 -2.3891
17517SOL     OW54803   5.254   5.139   4.288 -0.2373 -0.6094 -0.1346
17517SOL    HW154804   5.246   5.045   4.300 -0.2917 -0.8064 -1.4678
17517SOL    HW254805   5.174   5.175   4.326 -0.9380 -1.2584 -0.9475
17518SOL     OW54806   0.672   2.856   6.090 -0.4834  0.3884 -0.2059
17518SOL    HW154807   0.666   2.868   5.995 -1.2333  3.2478  0.1239
17518SOL    HW254808   0.755   2.896   6.114 -0.2709 -0.3711  0.3562
17519SOL     OW54809   7.526   5.534   2.156 -0.0831 -0.3027  0.2546
17519SOL    HW154810   7.529   5.479   2.078 -0.1670 -0.9973  0.7369
17519SOL    HW254811   7.585   5.491   2.219 -2.0594 -1.2756  1.5383
17520SOL     OW54812   0.566   3.065   3.120  0.0492  0.5654 -0.0293
17520SOL    HW154813   0.653   3.091   3.090  0.4445  0.0311  0.6275
17520SOL    HW254814   0.507   3.093   3.049  0.9449 -0.7163 -1.3381
17521SOL     OW54815   2.107   3.359  10.236  0.1500 -0.0781  0.2164
17521SOL    HW154816   2.147   3.445  10.222 -0.1280 -0.1093 -0.8951
17521SOL    HW254817   2.016   3.370  10.208  0.2755 -0.8960 -0.5667
17522SOL     OW54818   1.029   4.828   0.638 -0.8450 -0.0737 -0.3707
17522SOL    HW154819   0.940   4.864   0.628 -1.0556 -0.0155  1.5130
17522SOL    HW254820   1.062   4.867   0.718  0.1305 -1.6719  0.0390
17523SOL     OW54821   0.802   1.182   3.263 -0.0352 -0.5961  0.3882
17523SOL    HW154822   0.739   1.153   3.197  0.8982  2.0774 -1.8774
17523SOL    HW254823   0.755   1.246   3.316  0.5673  1.2326 -1.1627
17524SOL     OW54824   2.195   7.533   7.195  0.1744 -1.1920  0.5207
17524SOL    HW154825   2.240   7.517   7.113  1.0615  0.7005  0.5983
17524SOL    HW254826   2.265   7.542   7.260 -0.5144 -3.9923  1.8409
17525SOL     OW54827   9.513   4.675   9.658 -0.2065 -0.4691  0.2715
17525SOL    HW154828   9.541   4.764   9.675 -1.0114  0.2693 -1.9457
17525SOL    HW254829   9.560   4.622   9.723  1.0403  1.4258  0.9922
17526SOL     OW54830   8.935   6.683   4.030  0.4486 -0.2281 -0.2230
17526SOL    HW154831   8.851   6.645   4.003  0.5307  0.3492 -1.3342
17526SOL    HW254832   8.916   6.723   4.115 -0.5653  0.4119 -0.7301
17527SOL     OW54833   9.898   1.410   9.913 -0.0530  0.2745 -0.4410
17527SOL    HW154834   9.949   1.485   9.881  0.2804  0.3147  0.1597
17527SOL    HW254835   9.812   1.420   9.872 -0.4212  1.6852  0.5895
17528SOL     OW54836   9.768   4.498   2.897 -0.4423 -0.7563  0.0535
17528SOL    HW154837   9.729   4.466   2.815  0.9773 -0.4118 -0.7911
17528SOL    HW254838   9.747   4.430   2.961  1.2595 -2.7873 -1.3783
17529SOL     OW54839  10.155   5.702   1.228  0.4204  0.3022 -0.0347
17529SOL    HW154840  10.082   5.761   1.210 -0.1709 -0.4102 -0.0695
17529SOL    HW254841  10.181   5.668   1.142  0.4417  0.1614  0.0260
17530SOL     OW54842   0.334   3.966   5.487  0.6222 -0.0937  0.0650
17530SOL    HW154843   0.275   3.901   5.525  0.1447 -0.2316 -0.8844
17530SOL    HW254844   0.421   3.941   5.518  0.5476 -1.6173 -0.8232
17531SOL     OW54845   7.749   1.118   0.399 -0.1454 -0.2358  0.4320
17531SOL    HW154846   7.802   1.147   0.473  1.7704 -0.6728 -0.7043
17531SOL    HW254847   7.703   1.197   0.371  1.3528  0.6382  0.3159
17532SOL     OW54848   9.062   1.358   7.589  0.4692  0.7792  0.0407
17532SOL    HW154849   9.005   1.318   7.655  2.3379 -3.4174 -0.5693
17532SOL    HW254850   9.011   1.352   7.508  0.3089  0.6429  0.1505
17533SOL     OW54851   5.805   5.946   3.600  0.0813  0.0878 -0.0512
17533SOL    HW154852   5.873   5.899   3.647 -0.2559 -1.4029 -0.9870
17533SOL    HW254853   5.727   5.935   3.654  0.2610  0.6429  0.3375
17534SOL     OW54854   5.824   7.462   8.181  0.0262  0.3393 -0.1096
17534SOL    HW154855   5.851   7.518   8.108  1.2882  1.2202  0.9810
17534SOL    HW254856   5.891   7.393   8.184 -0.6604 -0.3661 -0.4731
17535SOL     OW54857   6.536   5.152   6.730 -0.3181 -0.2415 -0.2625
17535SOL    HW154858   6.460   5.158   6.672  0.4013  1.6332 -1.0792
17535SOL    HW254859   6.527   5.226   6.790  1.3694  0.6759 -1.0648
17536SOL     OW54860   8.878   0.398   4.550 -0.1324 -0.0058  0.2740
17536SOL    HW154861   8.820   0.340   4.599  1.9181 -0.6543  2.0977
17536SOL    HW254862   8.925   0.341   4.490 -0.5556  0.3485 -0.4139
17537SOL     OW54863   2.314   0.229   4.314 -1.1201  0.5649 -0.3792
17537SOL    HW154864   2.402   0.195   4.331 -0.9982  1.2663  0.4373
17537SOL    HW254865   2.258   0.151   4.313 -0.4367  0.0702 -1.3372
17538SOL     OW54866   4.406   8.162   7.122 -0.4004  0.4921  0.4102
17538SOL    HW154867   4.362   8.085   7.085  1.4095 -1.0072  1.1946
17538SOL    HW254868   4.434   8.134   7.209  0.2490  2.0739  0.7466
17539SOL     OW54869   6.576  10.321   2.101 -0.9499  0.4766  0.3008
17539SOL    HW154870   6.625  10.242   2.081 -0.1703  1.2201 -0.8601
17539SOL    HW254871   6.614  10.353   2.183  0.6741  1.1488 -0.6789
17540SOL     OW54872   3.678   6.445   2.033  0.0682  0.6634  0.0132
17540SOL    HW154873   3.630   6.498   1.969 -1.9999 -0.2168  0.7432
17540SOL    HW254874   3.751   6.500   2.060 -0.7909  2.2857 -0.8145
17541SOL     OW54875   5.134   2.124   1.379  0.5364 -0.0779  0.1011
17541SOL    HW154876   5.156   2.205   1.424 -1.4118  0.1006  0.8044
17541SOL    HW254877   5.200   2.061   1.408  1.2460  0.8831  0.6124
17542SOL     OW54878   2.561   4.087   0.543 -0.1535 -0.0297 -0.3536
17542SOL    HW154879   2.474   4.066   0.578  0.1795 -1.4667 -0.3413
17542SOL    HW254880   2.596   4.003   0.514  0.8509  0.6794 -1.2495
17543SOL     OW54881   2.568   4.591   0.568  0.2807 -0.0153  0.6234
17543SOL    HW154882   2.583   4.519   0.507 -0.9846  1.7353 -1.9308
17543SOL    HW254883   2.653   4.634   0.576  0.5141 -0.4160  0.3411
17544SOL     OW54884   3.921   7.415  10.173 -0.1013  0.5037 -0.4088
17544SOL    HW154885   3.849   7.371  10.218 -0.2649  2.1585  1.0431
17544SOL    HW254886   3.881   7.452  10.094 -0.3889 -0.2493 -0.6232
17545SOL     OW54887   7.757   5.152   3.439  0.6464 -0.4324 -0.0840
17545SOL    HW154888   7.744   5.185   3.528 -3.0970 -0.6993 -0.3815
17545SOL    HW254889   7.747   5.057   3.447  1.5460 -0.5773 -0.6269
17546SOL     OW54890   9.360   1.641   1.018  0.5316 -0.1740 -0.0270
17546SOL    HW154891   9.291   1.669   1.079  1.5116  0.9375  0.6089
17546SOL    HW254892   9.420   1.715   1.014  1.6610 -1.0892 -0.6350
17547SOL     OW54893   1.931   0.258   6.268 -0.0877  0.2462  0.1786
17547SOL    HW154894   2.010   0.263   6.322  0.3263 -0.5470 -0.3299
17547SOL    HW254895   1.883   0.338   6.289 -0.0219 -0.1038  1.8415
17548SOL     OW54896   8.805   2.365   0.630 -0.0986 -0.0299  0.3113
17548SOL    HW154897   8.834   2.413   0.553  0.8217 -1.1295 -0.0557
17548SOL    HW254898   8.765   2.431   0.686  0.6971  1.0664 -0.3741
17549SOL     OW54899   3.929   2.058   6.250 -0.3037 -0.6769 -0.2266
17549SOL    HW154900   3.939   2.145   6.211 -1.0203 -0.8744 -0.8775
17549SOL    HW254901   3.913   2.075   6.343  0.8382 -0.1752 -0.1081
17550SOL     OW54902   1.179   6.093   6.777  0.5485 -0.0650 -0.1818
17550SOL    HW154903   1.170   6.016   6.721  0.6954 -0.6586  0.5828
17550SOL    HW254904   1.228   6.156   6.725 -2.3548  0.8144 -2.0857
17551SOL     OW54905   6.117   8.785  10.525 -0.0945 -0.0818  0.2884
17551SOL    HW154906   6.167   8.752  10.450  1.0845  1.5754  0.2966
17551SOL    HW254907   6.156   8.870  10.544 -3.0281  1.3947  0.2155
17552SOL     OW54908  10.056   4.464   1.614  0.3171  0.3513 -0.2179
17552SOL    HW154909  10.023   4.489   1.528 -0.3210  0.4446  0.0530
17552SOL    HW254910   9.978   4.451   1.668  0.6812 -0.5359  0.1196
17553SOL     OW54911   0.969   5.620   7.206 -0.2173  1.0273 -0.4180
17553SOL    HW154912   1.054   5.636   7.166  0.3493 -0.6127  0.0503
17553SOL    HW254913   0.934   5.544   7.160 -0.6937  0.6972  0.4538
17554SOL     OW54914   7.872   2.142   6.189 -0.0361 -0.0231 -0.0116
17554SOL    HW154915   7.896   2.178   6.274  1.6148  0.6180 -0.7055
17554SOL    HW254916   7.847   2.219   6.137  1.2143 -0.1234 -0.7924
17555SOL     OW54917   0.453   8.207   8.348 -0.3572  0.3469 -0.1112
17555SOL    HW154918   0.432   8.182   8.258 -2.2113  0.8503  0.1393
17555SOL    HW254919   0.376   8.256   8.378 -0.0200 -0.2670  1.9189
17556SOL     OW54920   3.265   4.357   1.853  0.2808  0.0299 -0.0748
17556SOL    HW154921   3.213   4.433   1.880  0.9575  0.8711 -1.0680
17556SOL    HW254922   3.351   4.370   1.892 -0.3691 -1.7430  2.1960
17557SOL     OW54923   8.588   0.953   3.427  0.0118 -0.1900  0.0663
17557SOL    HW154924   8.659   1.011   3.401  0.7741 -1.1353 -0.0043
17557SOL    HW254925   8.509   1.008   3.422  0.6470  0.6964 -0.4598
17558SOL     OW54926   4.441   5.957   0.993 -0.2070 -0.4771  0.0028
17558SOL    HW154927   4.520   5.960   0.938  0.3628 -2.4930  0.6085
17558SOL    HW254928   4.450   6.030   1.053  0.9894 -0.4067 -0.2431
17559SOL     OW54929   8.683   9.370   4.217  0.0043 -0.0178 -0.8697
17559SOL    HW154930   8.613   9.405   4.162  0.9752  0.1113 -2.0499
17559SOL    HW254931   8.708   9.288   4.174  1.5485  0.6483 -1.2779
17560SOL     OW54932   5.849   6.478   8.347 -0.0019 -0.4518  0.1387
17560SOL    HW154933   5.894   6.502   8.428  0.5901  1.1725 -0.6301
17560SOL    HW254934   5.758   6.461   8.374 -0.0668  1.0858  1.0243
17561SOL     OW54935   4.421  10.394   7.437  0.1997 -0.0992 -0.1509
17561SOL    HW154936   4.404  10.486   7.415  1.2239  1.2179  3.6752
17561SOL    HW254937   4.367  10.378   7.515 -0.5493 -3.0738 -1.1659
17562SOL     OW54938   1.752   5.884   2.481  0.4127 -0.0476  0.0056
17562SOL    HW154939   1.718   5.833   2.407  2.9027 -0.6004 -0.8852
17562SOL    HW254940   1.822   5.829   2.517  0.8184  1.2420  1.2626
17563SOL     OW54941   8.934   0.658   3.779 -0.3870 -0.0846 -0.2598
17563SOL    HW154942   8.933   0.632   3.871 -2.1527  0.3819 -0.1160
17563SOL    HW254943   8.998   0.599   3.738  1.4851  0.6200  1.4796
17564SOL     OW54944   2.869   9.019   0.218 -0.9003 -0.3127  0.4123
17564SOL    HW154945   2.846   8.957   0.287 -1.5769 -2.1071 -1.3228
17564SOL    HW254946   2.942   9.069   0.255 -0.6547 -1.7964  2.0952
17565SOL     OW54947   9.713   6.618   3.164 -0.0201 -0.5247 -0.2951
17565SOL    HW154948   9.667   6.701   3.180 -1.4152 -1.2150 -0.6459
17565SOL    HW254949   9.776   6.612   3.236  0.0188  0.7748 -0.1963
17566SOL     OW54950   6.409   1.322   1.160  0.3250 -0.0844 -0.0635
17566SOL    HW154951   6.495   1.280   1.167 -0.0767 -0.7059  1.9583
17566SOL    HW254952   6.401   1.374   1.241 -0.9763  0.4055 -0.4794
17567SOL     OW54953   9.135   7.062   7.344 -0.0762 -0.1709  0.0404
17567SOL    HW154954   9.164   7.093   7.430  1.2850 -0.7134 -0.1847
17567SOL    HW254955   9.054   7.109   7.327  0.3085  0.9108  1.0514
17568SOL     OW54956   8.920   0.965   7.246  0.0576 -0.1374 -0.0297
17568SOL    HW154957   8.982   0.935   7.180  0.5267 -0.6267  0.6175
17568SOL    HW254958   8.876   0.885   7.276 -0.8389  0.1902 -0.4130
17569SOL     OW54959   8.696   0.575   8.622  0.0366 -0.4315 -0.5157
17569SOL    HW154960   8.778   0.543   8.660 -0.7921 -1.4770  0.4724
17569SOL    HW254961   8.720   0.655   8.575  1.1373  1.0720  2.3628
17570SOL     OW54962   6.374   7.911   4.059  0.0564  0.1327  0.3574
17570SOL    HW154963   6.468   7.919   4.075  0.1735 -0.0371 -0.1976
17570SOL    HW254964   6.357   7.817   4.064  0.1118  0.0627 -0.5184
17571SOL     OW54965   5.792   8.607   2.423  0.3337 -0.6186 -0.5994
17571SOL    HW154966   5.748   8.692   2.418  0.1326 -0.5814  1.2349
17571SOL    HW254967   5.723   8.545   2.445  0.5335 -1.2221 -1.6179
17572SOL     OW54968   7.354   7.695  10.635  0.1609 -0.8287 -0.0760
17572SOL    HW154969   7.348   7.600  10.643 -0.6001 -0.7953 -0.2452
17572SOL    HW254970   7.278   7.728  10.683  2.3959 -0.1181  3.3944
17573SOL     OW54971  10.187   5.750   3.810 -0.7127  0.1437  0.2474
17573SOL    HW154972  10.101   5.742   3.769 -1.1610  0.4047  1.1202
17573SOL    HW254973  10.248   5.751   3.736 -1.3113 -1.7520 -0.3420
17574SOL     OW54974   9.517   9.134   0.057 -0.2067 -0.7174  0.0800
17574SOL    HW154975   9.574   9.064   0.089  1.4366  0.1388 -0.8103
17574SOL    HW254976   9.448   9.141   0.123 -0.8683 -3.6279 -0.1639
17575SOL     OW54977   8.672   8.702   9.121 -0.4742  0.2876  0.0936
17575SOL    HW154978   8.744   8.765   9.116  0.2030 -0.4946 -0.2300
17575SOL    HW254979   8.709   8.625   9.163 -0.7593 -0.5899 -1.1889
17576SOL     OW54980   3.585  10.539   7.212 -0.2853 -0.2208 -0.3468
17576SOL    HW154981   3.566  10.453   7.249 -0.2766 -0.6319 -1.2476
17576SOL    HW254982   3.668  10.565   7.251  0.7168 -1.5219 -1.5028
17577SOL     OW54983  10.593   9.587  10.517  0.0639  0.1472 -0.6293
17577SOL    HW154984  10.568   9.613  10.428 -1.3850  1.6928  0.1774
17577SOL    HW254985  10.511   9.589  10.566  1.0799  0.9283  1.1105
17578SOL     OW54986   1.922  10.017   7.265  0.1181 -0.5878 -0.7211
17578SOL    HW154987   2.012   9.983   7.264 -0.8402 -3.3417 -0.8994
17578SOL    HW254988   1.896  10.021   7.173 -0.0608 -0.0326 -0.6546
17579SOL     OW54989   4.896   9.515   3.107 -0.2102  0.2979 -0.5241
17579SOL    HW154990   4.812   9.499   3.064 -0.6840  0.3587  0.3490
17579SOL    HW254991   4.909   9.610   3.098 -1.5183  0.7366  1.5443
17580SOL     OW54992   9.523   1.745   6.938 -0.0960  1.0610 -0.2973
17580SOL    HW154993   9.598   1.798   6.964 -0.1838  1.1397 -0.2067
17580SOL    HW254994   9.449   1.805   6.938 -0.0984  1.0582 -0.7142
17581SOL     OW54995   3.601   5.038   0.596 -0.2905  0.6129 -0.1646
17581SOL    HW154996   3.693   5.040   0.623 -0.1421  2.6384 -0.6316
17581SOL    HW254997   3.601   4.992   0.513  0.5216  1.6592 -0.7767
17582SOL     OW54998   2.905   5.361   8.730 -0.3319  0.2163  0.2949
17582SOL    HW154999   2.853   5.294   8.685 -1.1120  0.0464  1.4194
17582SOL    HW255000   2.892   5.441   8.678  0.9743 -0.5426 -1.3355
17583SOL     OW55001   6.080   0.169   0.873  0.3627  0.0524 -0.4298
17583SOL    HW155002   6.139   0.103   0.909  1.4114  0.5434 -1.1838
17583SOL    HW255003   6.049   0.130   0.791 -0.4654 -0.2442  0.0104
17584SOL     OW55004   8.315   0.599   6.169 -0.6023 -0.2745 -0.1274
17584SOL    HW155005   8.256   0.590   6.094  1.8090 -1.4155 -2.0048
17584SOL    HW255006   8.279   0.540   6.235 -2.6089  0.5225 -0.4401
17585SOL     OW55007   7.100   0.915   1.313 -0.2772  0.0667  0.1676
17585SOL    HW155008   7.162   0.966   1.364 -1.2604  0.8599  0.6093
17585SOL    HW255009   7.064   0.852   1.376  0.2698 -0.5778 -0.1547
17586SOL     OW55010   2.180   3.975   8.874 -0.2301  0.5748 -0.0944
17586SOL    HW155011   2.226   4.046   8.918  0.4212 -0.4556  0.9473
17586SOL    HW255012   2.242   3.902   8.873 -0.6796  0.1707 -1.6341
17587SOL     OW55013   1.205   7.360   8.337  0.3110  0.6083 -0.5460
17587SOL    HW155014   1.111   7.345   8.332 -0.1512  2.7837  0.5812
17587SOL    HW255015   1.215   7.435   8.396  2.7813  0.1784 -0.3025
17588SOL     OW55016   4.697   7.413   1.854  0.1337  0.1294  0.3852
17588SOL    HW155017   4.753   7.358   1.800 -1.1383  0.4324 -1.3159
17588SOL    HW255018   4.673   7.357   1.928  0.4055 -0.9552 -0.3256
17589SOL     OW55019   5.498   2.434   4.332  0.3290  0.0498 -0.2733
17589SOL    HW155020   5.533   2.403   4.415  0.4712 -2.4146 -1.1716
17589SOL    HW255021   5.416   2.387   4.322  1.0096 -0.8014 -2.1729
17590SOL     OW55022   7.459  10.099   6.115  0.1608  0.3335  0.0147
17590SOL    HW155023   7.496  10.186   6.099  1.2824 -0.4319 -1.8662
17590SOL    HW255024   7.364  10.113   6.114  0.3069  1.4055 -1.2533
17591SOL     OW55025   6.679   9.796   6.658  0.1634 -0.4993 -0.6368
17591SOL    HW155026   6.592   9.762   6.677 -0.2463  0.4981 -0.6574
17591SOL    HW255027   6.679   9.812   6.563 -0.1138  0.7600 -0.4421
17592SOL     OW55028   5.195   1.221   8.398 -0.0020 -0.3401  0.3748
17592SOL    HW155029   5.175   1.313   8.417 -0.3933 -0.3047 -0.1929
17592SOL    HW255030   5.211   1.182   8.484 -1.7392 -0.1790  0.8081
17593SOL     OW55031   8.153   0.776   8.516  0.2736 -0.8093  0.1340
17593SOL    HW155032   8.133   0.692   8.558 -1.3077 -0.3249  0.3848
17593SOL    HW255033   8.076   0.796   8.464  0.5682  0.5848  0.2088
17594SOL     OW55034   7.842   9.271   1.282 -0.3204  0.1447  0.5438
17594SOL    HW155035   7.906   9.306   1.220 -1.4022  1.6857  0.2359
17594SOL    HW255036   7.778   9.342   1.293 -2.8707 -1.8758 -0.3817
17595SOL     OW55037   3.628   8.516   6.869 -0.5003  0.3583  0.8742
17595SOL    HW155038   3.599   8.607   6.869 -1.0167  0.2550 -1.2833
17595SOL    HW255039   3.715   8.519   6.908 -0.1835  1.9256  0.1634
17596SOL     OW55040   4.534   8.429  10.111  0.2910  0.2252 -0.0278
17596SOL    HW155041   4.617   8.466  10.082  0.7980  0.9757  2.2153
17596SOL    HW255042   4.540   8.336  10.089  1.3060  0.4417 -0.7513
17597SOL     OW55043   3.679   8.560   2.262 -0.2467  0.0648  0.1711
17597SOL    HW155044   3.756   8.617   2.265 -0.3320  0.1653  0.5804
17597SOL    HW255045   3.715   8.471   2.262 -0.1098  0.1181 -0.6496
17598SOL     OW55046  10.165   3.153   9.177  0.6397  0.3306  0.1369
17598SOL    HW155047  10.194   3.221   9.117  1.3586 -1.6130 -1.8878
17598SOL    HW255048  10.233   3.150   9.245  2.1145 -0.1648 -1.2871
17599SOL     OW55049   3.666   3.539   3.918 -0.0641 -0.2593  0.4285
17599SOL    HW155050   3.679   3.452   3.957  0.1745 -0.8153 -0.8673
17599SOL    HW255051   3.571   3.552   3.921 -0.0171 -0.0288  1.7082
17600SOL     OW55052   3.826   7.499   2.978 -0.4724 -0.0732 -0.2029
17600SOL    HW155053   3.754   7.551   3.015 -0.0824  1.1509 -1.1195
17600SOL    HW255054   3.782   7.430   2.928 -1.0011  0.0091  0.1306
17601SOL     OW55055   3.064   2.093   1.113 -0.3240 -0.3512 -0.3548
17601SOL    HW155056   3.100   2.008   1.087 -1.4079 -1.4784  1.5470
17601SOL    HW255057   3.140   2.150   1.122  0.2498 -0.2142 -4.3329
17602SOL     OW55058   8.639   6.521   0.911  0.1880 -0.2421  0.0712
17602SOL    HW155059   8.570   6.457   0.927 -2.0196  1.8315 -0.5368
17602SOL    HW255060   8.653   6.564   0.996  0.0784 -0.0757  0.0068
17603SOL     OW55061   5.260   3.821   1.998  0.1545 -0.2401  0.1295
17603SOL    HW155062   5.353   3.833   1.976  0.2358  1.7206  1.2863
17603SOL    HW255063   5.220   3.906   1.980 -1.4065 -1.0009 -0.1784
17604SOL     OW55064   1.854   0.791   8.693 -0.3635 -0.0858 -0.1015
17604SOL    HW155065   1.880   0.723   8.631 -1.6335  0.2109 -1.0036
17604SOL    HW255066   1.873   0.873   8.648 -2.0562  0.1357 -0.4930
17605SOL     OW55067   7.284   1.220   3.717  0.1989 -0.6640 -0.1050
17605SOL    HW155068   7.314   1.218   3.626  0.2458 -0.6307 -0.0900
17605SOL    HW255069   7.362   1.242   3.768 -0.2281  1.2469 -0.2126
17606SOL     OW55070   4.722   5.643   7.340 -0.1004  0.6030  0.9428
17606SOL    HW155071   4.635   5.605   7.332  0.6041 -0.6793 -2.1795
17606SOL    HW255072   4.727   5.708   7.270  2.1502 -1.0540 -0.5973
17607SOL     OW55073   0.755   4.618   7.514 -0.3883 -0.3818  0.4968
17607SOL    HW155074   0.836   4.643   7.469 -0.0711  0.0054  1.2658
17607SOL    HW255075   0.706   4.567   7.449  0.9916 -1.6414  0.3802
17608SOL     OW55076   4.323   7.425   6.397 -0.0137  0.4033 -0.4647
17608SOL    HW155077   4.367   7.341   6.407 -0.6473  0.1231  0.0247
17608SOL    HW255078   4.338   7.449   6.305  2.7805  1.2478  0.0990
17609SOL     OW55079   8.042   5.416   0.316  0.0463  0.0531 -0.0806
17609SOL    HW155080   8.059   5.325   0.290 -1.8965 -1.6909  3.8047
17609SOL    HW255081   8.110   5.435   0.381 -1.0821  0.3328  1.0623
17610SOL     OW55082   7.075  10.244   4.120 -0.0036  0.2416 -0.6549
17610SOL    HW155083   6.993  10.231   4.073 -0.6571  0.0505  0.5201
17610SOL    HW255084   7.102  10.333   4.097 -2.5749  1.8666  1.9438
17611SOL     OW55085   2.158   5.389   6.459 -0.2446  0.1792 -0.3431
17611SOL    HW155086   2.148   5.376   6.553  0.7727 -2.0271 -0.4674
17611SOL    HW255087   2.217   5.463   6.450  0.4515 -0.2093  0.8002
17612SOL     OW55088   8.001   6.321   8.266 -0.6662  0.3125 -0.2050
17612SOL    HW155089   7.912   6.304   8.298 -0.6161  0.7452  0.1673
17612SOL    HW255090   7.990   6.386   8.198 -0.6186  0.4882 -0.0453
17613SOL     OW55091   1.573   2.664  10.364  0.3099  0.0630 -0.0190
17613SOL    HW155092   1.550   2.603  10.294  1.5590  0.0050 -0.4066
17613SOL    HW255093   1.493   2.715  10.379  0.0128  0.0688 -1.4786
17614SOL     OW55094   5.086   9.921   1.430  0.0695  0.0448 -0.4174
17614SOL    HW155095   5.098  10.009   1.395 -0.9209  0.6574  0.7012
17614SOL    HW255096   4.998   9.921   1.466 -1.0701 -2.3005 -2.8499
17615SOL     OW55097  10.608   9.400   3.127 -0.1787 -0.2214 -0.2314
17615SOL    HW155098  10.591   9.312   3.093 -1.7015 -0.1871  0.3448
17615SOL    HW255099  10.548   9.409   3.201  1.3316  0.6060  0.9403
17616SOL     OW55100   8.988   7.374   8.427  0.4844  0.3141  0.1560
17616SOL    HW155101   9.032   7.288   8.433  1.2226  0.5774 -1.1152
17616SOL    HW255102   8.990   7.395   8.334  0.3556  1.7477  0.4612
17617SOL     OW55103   8.717   0.548   4.922  0.4440  0.5062  0.4972
17617SOL    HW155104   8.724   0.637   4.889 -0.2102 -0.1220 -1.4275
17617SOL    HW255105   8.634   0.547   4.970 -0.5878  0.4237 -1.2358
17618SOL     OW55106   4.488   6.092   1.899 -0.4856 -0.3814  0.9065
17618SOL    HW155107   4.426   6.019   1.909 -1.7573  0.4500 -0.3705
17618SOL    HW255108   4.496   6.102   1.804  0.9039  0.1473  1.0694
17619SOL     OW55109   1.440   0.257  10.272 -0.3654 -0.0883  0.0470
17619SOL    HW155110   1.430   0.162  10.281 -0.9216  0.0651  1.1892
17619SOL    HW255111   1.530   0.274  10.300 -1.0607 -0.0037  2.3571
17620SOL     OW55112   1.227   2.285   9.858  0.6885  0.4821 -0.0018
17620SOL    HW155113   1.319   2.257   9.856  0.2304 -1.3440  1.4010
17620SOL    HW255114   1.179   2.212   9.820 -0.3458  0.4182  1.3403
17621SOL     OW55115   1.266   5.791   8.096  0.1667 -0.0367  0.3897
17621SOL    HW155116   1.198   5.730   8.067 -0.5887  0.6810  0.6294
17621SOL    HW255117   1.303   5.750   8.174  0.3938 -0.7001 -0.0587
17622SOL     OW55118   7.071   6.770   8.982  0.2342 -0.1609  0.1774
17622SOL    HW155119   7.126   6.833   9.028  0.6467  0.9356 -1.7034
17622SOL    HW255120   7.133   6.714   8.935 -0.1693 -1.3189  0.9798
17623SOL     OW55121   4.691  10.027   1.855 -0.7747 -0.3195 -0.2892
17623SOL    HW155122   4.637  10.092   1.810 -0.7269  0.2034  0.3807
17623SOL    HW255123   4.729  10.075   1.929  1.3362 -0.4237 -1.2438
17624SOL     OW55124   3.085   1.898   3.094  0.3281 -0.0260  0.0963
17624SOL    HW155125   3.128   1.903   3.009  2.2695 -1.4953  0.9185
17624SOL    HW255126   3.094   1.807   3.121 -0.0378  0.4422  1.9582
17625SOL     OW55127   2.823   5.315   6.647  0.7786  0.1294 -0.1046
17625SOL    HW155128   2.778   5.231   6.659  1.3625 -0.2212 -0.3256
17625SOL    HW255129   2.904   5.307   6.699  0.0507  1.2004  1.2693
17626SOL     OW55130   1.043   7.252   9.316 -0.3113  0.6159  0.5044
17626SOL    HW155131   1.073   7.318   9.378 -0.5686  2.3312 -1.1071
17626SOL    HW255132   1.014   7.179   9.371 -1.2245  2.3222  2.4355
17627SOL     OW55133   1.351   6.219   0.172 -0.3992 -0.1838 -0.4760
17627SOL    HW155134   1.286   6.220   0.102 -1.4615  0.0878  0.4965
17627SOL    HW255135   1.338   6.135   0.217  1.9827 -1.5636 -2.0970
17628SOL     OW55136   1.907   9.067  10.461 -0.0884 -0.1406  0.6625
17628SOL    HW155137   1.862   9.116  10.530  1.4195  0.1314  1.4884
17628SOL    HW255138   1.921   9.132  10.392  1.2911  0.4501  1.4712
17629SOL     OW55139   8.825   0.651   2.992 -0.4930  0.2024  0.4805
17629SOL    HW155140   8.809   0.695   2.908 -1.9100  1.6564  1.4426
17629SOL    HW255141   8.914   0.618   2.985 -0.3190  0.9316 -1.3302
17630SOL     OW55142  10.445   9.728   7.914 -0.7290  0.4937 -0.0953
17630SOL    HW155143  10.456   9.760   8.003  1.2637 -2.5752  0.9216
17630SOL    HW255144  10.525   9.755   7.868 -1.1013  0.8216 -0.5694
17631SOL     OW55145   5.520   4.342   5.665  0.3848 -1.0984  0.1905
17631SOL    HW155146   5.444   4.357   5.609  0.7487  0.3668  0.0622
17631SOL    HW255147   5.503   4.393   5.744  1.4782 -0.2772 -0.0785
17632SOL     OW55148   8.186   4.007   1.279  0.3332 -0.5901  0.5573
17632SOL    HW155149   8.273   3.968   1.278  0.9071  0.4744  2.6178
17632SOL    HW255150   8.151   3.991   1.192  2.7401 -0.7086 -0.4629
17633SOL     OW55151   5.264   2.668   5.808 -0.1927  0.1575 -0.1744
17633SOL    HW155152   5.303   2.595   5.760  0.0998  0.9766 -1.2360
17633SOL    HW255153   5.233   2.727   5.739 -2.7271 -0.1266  0.6112
17634SOL     OW55154   1.175  10.165   7.916 -0.5017 -0.1685 -0.3321
17634SOL    HW155155   1.118  10.098   7.954 -1.0569  0.2867 -0.3411
17634SOL    HW255156   1.245  10.177   7.979 -0.5269 -0.5914 -0.2225
17635SOL     OW55157   8.350   6.236   8.775 -0.4929 -0.3216 -0.2726
17635SOL    HW155158   8.430   6.186   8.758 -0.0918 -0.2427  1.3026
17635SOL    HW255159   8.281   6.170   8.781 -0.2747 -0.5305 -0.0435
17636SOL     OW55160   4.355   3.562  10.121  0.5503 -0.2638  0.6102
17636SOL    HW155161   4.383   3.625  10.054  0.8123 -2.3061 -1.3315
17636SOL    HW255162   4.269   3.532  10.091 -0.2503  0.2305  2.3212
17637SOL     OW55163   0.516   0.978   6.650  0.0909  0.1433 -0.1163
17637SOL    HW155164   0.535   1.007   6.739 -1.2961  0.3466  0.1383
17637SOL    HW255165   0.598   0.940   6.619  0.1989 -1.3101  1.7778
17638SOL     OW55166   4.999   9.860  10.293  0.1941 -0.0117 -0.1020
17638SOL    HW155167   5.001   9.949  10.328 -1.2868 -0.9167  2.5708
17638SOL    HW255168   4.911   9.850  10.257  0.0022 -0.6802  0.5187
17639SOL     OW55169  10.623   7.004  10.287  0.3805  0.2395 -0.3636
17639SOL    HW155170  10.667   7.081  10.323  0.5536 -0.3225  0.6469
17639SOL    HW255171  10.597   6.952  10.363  0.8449 -1.0220 -1.0255
17640SOL     OW55172   0.263   5.989   9.428 -0.4585  0.1437  0.4044
17640SOL    HW155173   0.263   6.014   9.336 -0.2187 -0.5222  0.2130
17640SOL    HW255174   0.263   5.893   9.426 -1.3362  0.1202  1.1009
17641SOL     OW55175   5.891   2.054   9.789 -0.0372  0.7584 -0.6664
17641SOL    HW155176   5.940   2.053   9.871 -1.0874  0.2833 -0.0238
17641SOL    HW255177   5.924   2.132   9.742  0.0068  1.4979  0.5493
17642SOL     OW55178   9.970   1.844   0.333  0.3354  0.1883  0.2910
17642SOL    HW155179   9.929   1.789   0.400  0.4593 -1.0326 -0.6061
17642SOL    HW255180   9.929   1.930   0.345 -0.4796 -0.2994  1.1841
17643SOL     OW55181  10.286   2.252   9.065 -0.4285  0.1810 -0.1425
17643SOL    HW155182  10.332   2.304   9.130 -0.0321 -0.5636  0.1920
17643SOL    HW255183  10.296   2.300   8.983  0.1291  0.5082  0.1133
17644SOL     OW55184   3.980   6.801   2.348 -0.6011  0.3589  0.0651
17644SOL    HW155185   3.934   6.734   2.296 -2.4148  1.7771 -0.2910
17644SOL    HW255186   3.985   6.763   2.436 -1.0883 -0.4707 -0.2458
17645SOL     OW55187   5.816   1.240   8.967  0.2953 -0.0107 -0.1323
17645SOL    HW155188   5.857   1.217   9.051 -0.8177  1.1147  0.7437
17645SOL    HW255189   5.723   1.229   8.983  0.0444  0.7262 -1.0797
17646SOL     OW55190   1.185   0.484   4.177  0.1136  0.6438 -0.4338
17646SOL    HW155191   1.187   0.578   4.195 -0.9846  0.4692  0.7728
17646SOL    HW255192   1.197   0.443   4.263 -2.0565 -0.2755 -0.4926
17647SOL     OW55193   6.030   3.533   2.176 -0.2524 -0.5279  0.3516
17647SOL    HW155194   6.096   3.535   2.246  1.2351 -1.0082 -0.9692
17647SOL    HW255195   6.041   3.617   2.131 -0.8458 -0.4368  0.3689
17648SOL     OW55196   9.842   9.284   0.593 -0.3598  0.4328 -0.1832
17648SOL    HW155197   9.803   9.359   0.638 -0.3779  0.5293 -0.3583
17648SOL    HW255198   9.771   9.247   0.541 -0.1030  0.9020 -0.8811
17649SOL     OW55199   8.707   3.566   3.819  0.7832 -0.1353  0.4889
17649SOL    HW155200   8.669   3.481   3.795 -2.2910  0.7380  1.7687
17649SOL    HW255201   8.667   3.627   3.757  0.8619  0.7406  1.2953
17650SOL     OW55202   8.815   0.203   0.178 -0.2525  0.1500  0.7723
17650SOL    HW155203   8.830   0.268   0.110  1.2165 -0.3928  0.5361
17650SOL    HW255204   8.816   0.252   0.260 -1.5743  0.7418  0.4512
17651SOL     OW55205   6.987   7.532   9.086  0.3136 -0.0877 -0.2896
17651SOL    HW155206   6.932   7.552   9.011  0.5425  0.4429 -0.3159
17651SOL    HW255207   7.001   7.616   9.130 -0.0584 -0.4290  0.5128
17652SOL     OW55208   5.443   1.624   8.418 -0.0584  0.1093 -1.0566
17652SOL    HW155209   5.385   1.580   8.480  1.5203 -0.6561 -0.0282
17652SOL    HW255210   5.421   1.585   8.333 -1.7546  0.6401 -0.8961
17653SOL     OW55211   7.247   3.970   5.192 -0.4107  0.1500  0.1216
17653SOL    HW155212   7.305   4.036   5.230 -1.0746  0.9368 -0.2121
17653SOL    HW255213   7.256   3.981   5.097 -3.1151  2.1799 -0.0180
17654SOL     OW55214   6.241   9.851   8.157 -0.6053  0.4627  0.0311
17654SOL    HW155215   6.316   9.793   8.170 -0.9363  0.3988  2.1287
17654SOL    HW255216   6.165   9.796   8.176 -0.9463  1.4286  1.6692
17655SOL     OW55217   5.883   9.058   9.673 -0.0671 -0.3658  0.2744
17655SOL    HW155218   5.824   8.988   9.701 -0.0680 -0.6684 -0.4629
17655SOL    HW255219   5.901   9.039   9.581  2.0076 -0.8454  0.7333
17656SOL     OW55220   4.827   8.889   8.049  1.1086 -0.5026  0.3315
17656SOL    HW155221   4.914   8.930   8.051  0.5595  0.6401  1.9700
17656SOL    HW255222   4.844   8.798   8.074  1.8170 -0.2585  0.7815
17657SOL     OW55223   4.450   5.590   7.327  0.2507 -0.5294  0.5547
17657SOL    HW155224   4.383   5.528   7.300  0.2665 -0.2503 -0.1426
17657SOL    HW255225   4.436   5.601   7.421  0.8101 -2.2769  0.8846
17658SOL     OW55226   3.559   4.218   4.394 -0.2440 -0.0761  0.1166
17658SOL    HW155227   3.512   4.270   4.328  1.0465 -0.4508 -1.1473
17658SOL    HW255228   3.505   4.225   4.473 -2.9663 -1.2589 -1.4752
17659SOL     OW55229   8.677   5.379   7.066  0.1629  0.2413 -0.1348
17659SOL    HW155230   8.634   5.345   6.987 -0.1063  1.0055 -0.3332
17659SOL    HW255231   8.725   5.456   7.035 -0.7597  1.1451  0.6183
17660SOL     OW55232   9.926   8.015   0.351 -0.2207 -0.6911  0.5537
17660SOL    HW155233   9.871   8.029   0.274  1.7435 -1.0065 -1.0157
17660SOL    HW255234   9.961   7.927   0.338 -0.4065 -1.0304  2.2207
17661SOL     OW55235   7.919  10.547   0.403  0.0723 -0.2708 -0.2643
17661SOL    HW155236   7.961  10.493   0.471 -0.3741  0.1276  0.3418
17661SOL    HW255237   7.902  10.631   0.446  0.2925  0.1840 -1.0438
17662SOL     OW55238   4.237   3.587   5.243  0.3184  0.6308 -0.0081
17662SOL    HW155239   4.206   3.678   5.246 -0.8409  0.2277  1.8704
17662SOL    HW255240   4.324   3.590   5.282  0.5716  1.0267 -0.5903
17663SOL     OW55241   6.436   3.822   4.491 -0.4199 -1.1861  0.5603
17663SOL    HW155242   6.385   3.794   4.567 -1.0441  0.2196  0.6938
17663SOL    HW255243   6.512   3.764   4.490 -0.4042 -1.2477  2.2623
17664SOL     OW55244   1.393   5.970   1.368  0.1994 -0.0303  0.2579
17664SOL    HW155245   1.469   6.003   1.416 -0.0143  0.6997  0.1138
17664SOL    HW255246   1.413   5.879   1.350  0.5823 -0.1227  1.1328
17665SOL     OW55247   3.876   3.829   4.561 -0.6315  0.1397  0.0439
17665SOL    HW155248   3.821   3.905   4.539  0.5706  1.3019  0.8734
17665SOL    HW255249   3.958   3.868   4.592 -0.6010 -1.4600  2.1612
17666SOL     OW55250   7.828   3.202   9.283 -0.3860  0.1502  0.4585
17666SOL    HW155251   7.734   3.208   9.271 -0.5899 -0.6365  1.5292
17666SOL    HW255252   7.846   3.258   9.359  0.2574  1.6106 -0.7225
17667SOL     OW55253   4.020   8.501   7.693 -0.1022 -0.1453  0.1476
17667SOL    HW155254   4.041   8.587   7.728 -0.2250 -0.4490  0.9865
17667SOL    HW255255   4.089   8.444   7.725  0.4769 -0.2087 -1.1352
17668SOL     OW55256   0.447   3.743   7.864  0.4706 -0.0804  0.0133
17668SOL    HW155257   0.359   3.741   7.902 -0.1438 -0.1857 -1.3754
17668SOL    HW255258   0.467   3.835   7.852  2.0123  0.2070  3.4729
17669SOL     OW55259   9.825   1.439   3.007  0.1026 -0.1117  0.4876
17669SOL    HW155260   9.795   1.526   3.036 -1.1250 -0.3222 -0.1256
17669SOL    HW255261   9.859   1.398   3.087 -3.9469 -0.9864  1.9622
17670SOL     OW55262   4.821   5.822   5.325 -0.0812  0.2773 -0.2873
17670SOL    HW155263   4.914   5.806   5.309  0.4889 -0.3330  2.8450
17670SOL    HW255264   4.779   5.737   5.313  0.4406 -0.3258  1.7889
17671SOL     OW55265   1.049   8.438   1.859 -0.6627 -0.0427 -0.1426
17671SOL    HW155266   1.059   8.426   1.954 -1.4781  2.3742  0.3264
17671SOL    HW255267   1.105   8.371   1.820  0.0542 -0.7972  2.0422
17672SOL     OW55268   2.402   4.516   1.083  0.0871  0.3307 -0.5353
17672SOL    HW155269   2.474   4.527   1.021  2.6927  1.3719  2.4682
17672SOL    HW255270   2.410   4.426   1.114  0.5421  0.6578  0.3099
17673SOL     OW55271   4.460   0.254   8.360 -0.2708  0.4493 -0.3535
17673SOL    HW155272   4.404   0.329   8.380  0.1627  0.5809  0.4349
17673SOL    HW255273   4.492   0.270   8.271 -0.8940  0.7399 -0.5318
17674SOL     OW55274   2.811   7.806   9.333 -0.5114  0.1890  0.3504
17674SOL    HW155275   2.792   7.804   9.427  0.5126  0.6109  0.5787
17674SOL    HW255276   2.830   7.898   9.315 -1.8011  0.3217 -0.5200
17675SOL     OW55277   5.242   2.581   4.092  0.3892  0.1257  0.0071
17675SOL    HW155278   5.328   2.540   4.078  0.8578  1.0233  0.1555
17675SOL    HW255279   5.209   2.598   4.004  0.7842  0.6060 -0.0564
17676SOL     OW55280   4.788   3.419   3.022 -0.0724  0.4072 -0.2486
17676SOL    HW155281   4.757   3.495   3.072 -1.8103 -1.3633  1.6101
17676SOL    HW255282   4.845   3.372   3.083 -0.7963 -0.8902 -0.5317
17677SOL     OW55283   9.604   2.293   1.294 -0.5400 -0.3054  0.1982
17677SOL    HW155284   9.682   2.242   1.317  1.0202  1.3887 -1.0078
17677SOL    HW255285   9.531   2.242   1.329  1.0040 -2.5638  0.3938
17678SOL     OW55286   2.927   8.900   6.845 -0.3258  0.3171 -0.1693
17678SOL    HW155287   2.873   8.822   6.835 -0.2447  0.3747 -1.2505
17678SOL    HW255288   2.990   8.878   6.913 -0.1222 -0.6804 -0.6619
17679SOL     OW55289   5.082   7.712   7.325 -0.0503 -0.4086  0.1730
17679SOL    HW155290   5.030   7.632   7.319  2.1548 -2.0101  1.2643
17679SOL    HW255291   5.059   7.761   7.246 -2.5427 -1.3848  0.1924
17680SOL     OW55292   1.184   1.683   2.176  0.2866 -0.3884  0.3321
17680SOL    HW155293   1.189   1.588   2.187 -0.8548 -0.4454  0.5277
17680SOL    HW255294   1.090   1.702   2.180  0.3822  0.5763 -1.1767
17681SOL     OW55295   3.891   7.894   1.323 -0.2307 -0.3084  0.2379
17681SOL    HW155296   3.934   7.973   1.290 -0.8507  0.3936  1.0385
17681SOL    HW255297   3.884   7.909   1.418  0.4500 -1.7350  0.5309
17682SOL     OW55298   9.793   4.341   3.799  0.5911  0.0311  0.3951
17682SOL    HW155299   9.769   4.409   3.736  0.5458 -0.6584 -0.3506
17682SOL    HW255300   9.863   4.292   3.757 -0.3567 -1.2925  0.2627
17683SOL     OW55301   4.052   6.868   4.112 -0.0002  0.0062  0.5736
17683SOL    HW155302   3.999   6.794   4.142  0.5524 -0.3200  0.7407
17683SOL    HW255303   4.141   6.849   4.141  0.0143  1.1541  1.3815
17684SOL     OW55304   3.491   2.536   8.646 -0.3257 -0.4354 -0.5114
17684SOL    HW155305   3.433   2.578   8.709 -1.0511 -0.6830 -1.0055
17684SOL    HW255306   3.561   2.497   8.699  0.1733  1.0661 -0.0063
17685SOL     OW55307   8.877   7.065   4.074 -0.3353 -0.1830  0.2100
17685SOL    HW155308   8.805   7.065   4.137 -1.2038  0.8511 -0.7398
17685SOL    HW255309   8.841   7.024   3.996  0.4376 -0.6003  0.0621
17686SOL     OW55310   0.938   0.182   9.427  0.0605 -0.1085  0.2361
17686SOL    HW155311   0.902   0.094   9.435  0.8579 -0.5403 -0.7755
17686SOL    HW255312   0.889   0.222   9.355  1.6066 -0.7434 -1.2390
17687SOL     OW55313   6.791   2.498   7.716  0.2929  0.5285 -0.3023
17687SOL    HW155314   6.831   2.412   7.732  0.7534  0.9111  0.6751
17687SOL    HW255315   6.711   2.478   7.667 -1.6395 -0.8408  3.0437
17688SOL     OW55316   2.079   2.570   7.895 -0.1493  0.4143  0.3746
17688SOL    HW155317   2.031   2.650   7.915  0.6536  1.5928 -2.0416
17688SOL    HW255318   2.148   2.598   7.835  1.2947 -1.8190  0.8704
17689SOL     OW55319   2.783   4.890   0.744 -0.1646  0.0314 -0.1447
17689SOL    HW155320   2.838   4.813   0.727  1.5976  1.2315 -0.1451
17689SOL    HW255321   2.738   4.869   0.825  1.8518 -0.2290  0.9878
17690SOL     OW55322   4.476   4.237   7.448  0.1614 -0.3064  0.1379
17690SOL    HW155323   4.411   4.289   7.496  0.7475  1.4120 -0.8462
17690SOL    HW255324   4.439   4.149   7.447 -0.7272 -0.0075  2.1351
17691SOL     OW55325   8.675   6.060   6.964 -0.6212 -0.2160 -0.1962
17691SOL    HW155326   8.747   6.100   6.915  0.6245 -1.0972  0.8660
17691SOL    HW255327   8.629   6.006   6.899  0.5353 -0.7520 -0.5836
17692SOL     OW55328   2.787   2.942   0.407 -0.0083  0.5380  0.1579
17692SOL    HW155329   2.875   2.950   0.371 -0.2705  1.2635 -0.3568
17692SOL    HW255330   2.800   2.932   0.501  0.7680 -3.2401 -0.2120
17693SOL     OW55331   2.712   8.230   4.357  0.2152 -0.1496 -0.0004
17693SOL    HW155332   2.624   8.255   4.329 -0.0564 -0.6725  0.3672
17693SOL    HW255333   2.760   8.217   4.276  0.3076  1.3073 -0.2143
17694SOL     OW55334   5.777   3.866   7.961 -0.0987 -0.6339 -0.2230
17694SOL    HW155335   5.681   3.864   7.960 -0.1449  0.0285 -2.6268
17694SOL    HW255336   5.800   3.881   8.053 -2.2983 -0.4454  0.3427
17695SOL     OW55337   6.742   7.781  10.526 -0.4893 -0.6529  0.6209
17695SOL    HW155338   6.716   7.794  10.435  0.3555 -0.2326  0.4314
17695SOL    HW255339   6.660   7.775  10.574 -0.9627 -1.5694 -0.2580
17696SOL     OW55340   9.148   0.866   4.672 -0.2846  0.1085 -0.3678
17696SOL    HW155341   9.243   0.866   4.687 -0.5027 -0.3607  1.2018
17696SOL    HW255342   9.110   0.852   4.759 -1.7066 -2.7116 -1.3061
17697SOL     OW55343   6.605   9.646  10.145 -0.0069  0.4193  0.3721
17697SOL    HW155344   6.608   9.581  10.074  0.1762 -0.5085  1.2132
17697SOL    HW255345   6.554   9.604  10.214  1.3414  0.5574  1.5092
17698SOL     OW55346   1.926   2.620   0.871  0.2683  0.5745 -0.2988
17698SOL    HW155347   2.004   2.671   0.892 -0.5129  1.2136  1.1825
17698SOL    HW255348   1.935   2.539   0.920  1.3089 -0.6303 -2.3320
17699SOL     OW55349   2.620   4.258   2.887 -0.3798 -0.4739 -0.0365
17699SOL    HW155350   2.677   4.268   2.811 -1.1412  3.0466 -0.2923
17699SOL    HW255351   2.552   4.197   2.858  1.4928 -2.4090 -0.6998
17700SOL     OW55352   9.245   0.710  10.410 -0.1790 -0.6399 -0.3280
17700SOL    HW155353   9.205   0.759  10.482 -1.2510 -1.7398 -0.1304
17700SOL    HW255354   9.318   0.664  10.450  0.7848  0.6951 -0.4992
17701SOL     OW55355   0.833   5.036   2.647  0.3176  0.3337 -0.1698
17701SOL    HW155356   0.880   4.968   2.695  0.8453 -0.2139 -1.4173
17701SOL    HW255357   0.899   5.077   2.592 -0.5672 -0.2304 -1.7238
17702SOL     OW55358  10.444   8.322   4.092 -0.0459 -0.0361  0.4298
17702SOL    HW155359  10.414   8.231   4.101 -2.0839  0.2946 -1.9253
17702SOL    HW255360  10.459   8.333   3.999 -0.2028  2.1372  0.6215
17703SOL     OW55361   5.562   3.231   4.797 -0.3447  0.3877 -0.0299
17703SOL    HW155362   5.631   3.180   4.838 -0.5095 -0.3660 -0.6737
17703SOL    HW255363   5.600   3.318   4.785 -0.5292  0.8818  2.3826
17704SOL     OW55364   5.855   0.637   0.878  0.7215 -0.3707  0.0566
17704SOL    HW155365   5.854   0.544   0.857  0.7159 -0.6778  1.3395
17704SOL    HW255366   5.932   0.648   0.934  0.8808  0.4554 -0.3067
17705SOL     OW55367   5.491   0.301   7.272  0.0601  0.5777 -0.0120
17705SOL    HW155368   5.416   0.242   7.277  0.7812 -0.3542 -0.0239
17705SOL    HW255369   5.543   0.281   7.350  0.6975  0.6547 -0.4087
17706SOL     OW55370   4.324   5.234   7.808 -0.1088 -0.6319 -0.2535
17706SOL    HW155371   4.243   5.203   7.769 -0.7741  1.1079 -0.3345
17706SOL    HW255372   4.372   5.275   7.736  0.2227 -0.4459  0.0652
17707SOL     OW55373   8.049   1.886   4.711  0.1314  0.1241  0.3663
17707SOL    HW155374   8.131   1.837   4.718  0.5229  1.0123  2.6943
17707SOL    HW255375   7.981   1.824   4.736  0.0829 -0.4678 -1.0895
17708SOL     OW55376   9.206   7.597   0.684  0.0904 -0.6190 -0.0393
17708SOL    HW155377   9.174   7.625   0.598 -0.6608  3.1023  1.2674
17708SOL    HW255378   9.128   7.564   0.728  0.0738 -0.6370 -0.0803
17709SOL     OW55379   3.655   1.721   3.271 -0.0563 -0.3724 -0.0919
17709SOL    HW155380   3.654   1.657   3.342  1.6508 -1.0953 -0.6863
17709SOL    HW255381   3.604   1.795   3.306  0.3058 -0.9084  1.6893
17710SOL     OW55382   4.871   5.127   7.515  0.5819 -0.1071 -0.1380
17710SOL    HW155383   4.897   5.172   7.595  1.3664 -0.3074 -0.2693
17710SOL    HW255384   4.935   5.156   7.449 -0.0545  0.0623 -0.6944
17711SOL     OW55385   0.548   1.412   8.258 -0.1673  0.2333  0.4469
17711SOL    HW155386   0.490   1.380   8.190 -0.7783 -0.5274  1.2990
17711SOL    HW255387   0.595   1.334   8.287  1.1159  0.7879 -0.0497
17712SOL     OW55388   8.417   7.090   7.909 -0.0617  0.3461 -0.1890
17712SOL    HW155389   8.461   7.016   7.867 -0.2445  1.3169 -2.2196
17712SOL    HW255390   8.423   7.071   8.003  3.0218 -0.4828 -0.4544
17713SOL     OW55391   3.469   0.190  10.494  0.0298 -0.3163 -0.1582
17713SOL    HW155392   3.554   0.149  10.510 -1.1368 -3.0195 -0.4037
17713SOL    HW255393   3.438   0.215  10.581  0.5029 -0.5465  0.0813
17714SOL     OW55394   6.534   0.939   9.931 -0.4645  0.5909 -0.5750
17714SOL    HW155395   6.520   0.973  10.019 -2.1307  0.1188 -0.6242
17714SOL    HW255396   6.499   0.849   9.934 -1.4500  0.8948 -1.9482
17715SOL     OW55397   9.177   1.081   1.771 -0.0221 -0.0309  0.3085
17715SOL    HW155398   9.205   1.083   1.680 -0.4112  2.1546  0.1893
17715SOL    HW255399   9.085   1.057   1.767  0.0071 -0.1244  0.1613
17716SOL     OW55400   2.744   2.160   2.808  0.1012 -0.4469 -0.2983
17716SOL    HW155401   2.766   2.173   2.900 -1.4945  0.4793 -0.0203
17716SOL    HW255402   2.668   2.102   2.810 -0.7939  0.6886 -0.9646
17717SOL     OW55403   8.139   9.962   3.979 -0.3217 -0.1254  0.0130
17717SOL    HW155404   8.083  10.014   4.037 -0.3084  1.3383 -1.2186
17717SOL    HW255405   8.192  10.027   3.933  1.2243 -1.3863 -0.0578
17718SOL     OW55406   7.977   9.702   1.717 -0.4443 -0.0310  0.6064
17718SOL    HW155407   7.985   9.661   1.631 -1.3023  0.4505  0.2828
17718SOL    HW255408   7.952   9.631   1.776  1.8550 -0.7326  0.8430
17719SOL     OW55409   3.457   3.845   7.514 -0.2661  0.0712 -0.1665
17719SOL    HW155410   3.380   3.888   7.478 -1.2521  0.1756  1.9669
17719SOL    HW255411   3.441   3.840   7.608  1.5702 -1.4455  0.1329
17720SOL     OW55412   7.939   9.354   1.588  0.3561 -0.5484  0.3174
17720SOL    HW155413   7.920   9.333   1.679  2.3789 -0.9568  0.7011
17720SOL    HW255414   7.891   9.288   1.537 -0.8538 -0.2688  1.0474
17721SOL     OW55415   3.112  10.019   0.932 -0.0360  0.4522 -0.3151
17721SOL    HW155416   3.193  10.014   0.982 -0.1267 -1.5786 -0.2845
17721SOL    HW255417   3.125   9.956   0.860 -1.7103 -0.1949 -0.0886
17722SOL     OW55418   8.639  10.058   3.673  0.0993  0.4154 -0.3099
17722SOL    HW155419   8.597  10.106   3.602  1.3162  1.2354 -0.5012
17722SOL    HW255420   8.696  10.121   3.715  0.7077 -0.5146  0.3084
17723SOL     OW55421   6.273   7.665   3.918 -0.2449 -0.3907  0.2337
17723SOL    HW155422   6.223   7.617   3.984 -0.3147 -0.9532 -0.2158
17723SOL    HW255423   6.327   7.598   3.876  1.9153  0.3775  1.5977
17724SOL     OW55424   6.575   2.961   7.662 -0.0416  0.1826  0.3565
17724SOL    HW155425   6.629   2.884   7.645  1.0967  0.6278  1.7622
17724SOL    HW255426   6.624   3.010   7.727 -1.9767  0.8044  1.4027
17725SOL     OW55427   8.521   3.514   4.709 -0.2096 -0.2444  0.1901
17725SOL    HW155428   8.518   3.459   4.787 -0.3613  0.2921  0.5675
17725SOL    HW255429   8.436   3.558   4.708 -0.2854 -0.3948 -0.3875
17726SOL     OW55430   1.343   7.573   9.864 -0.0753  0.1470  0.1556
17726SOL    HW155431   1.428   7.546   9.899  1.1720  1.6627 -1.4827
17726SOL    HW255432   1.364   7.610   9.778 -2.3736  0.8195 -0.1642
17727SOL     OW55433   0.954   4.473  10.366 -0.1065 -0.0742 -0.1971
17727SOL    HW155434   0.970   4.406  10.300  0.8707  0.9731 -1.0642
17727SOL    HW255435   0.871   4.447  10.407  0.8116 -2.4348  0.3238
17728SOL     OW55436   5.954   4.650  10.126  0.1623  0.3170 -0.2006
17728SOL    HW155437   5.895   4.575  10.119  1.0641 -0.4503  0.1833
17728SOL    HW255438   6.019   4.636  10.057 -0.3091  1.3820 -0.9061
17729SOL     OW55439   5.337   1.062   2.342  0.6756 -0.0250 -0.1936
17729SOL    HW155440   5.350   1.074   2.436  0.3984 -0.3197 -0.1166
17729SOL    HW255441   5.250   1.099   2.326  0.4590 -0.5494 -0.2233
17730SOL     OW55442   1.147   1.460   3.258  0.1881 -0.0411 -0.3411
17730SOL    HW155443   1.099   1.426   3.333  0.8750  0.5469  0.3834
17730SOL    HW255444   1.116   1.550   3.248 -0.5397 -0.3812 -1.3267
17731SOL     OW55445   1.709   8.267   5.360 -0.1082  0.3822 -0.1002
17731SOL    HW155446   1.693   8.333   5.428  1.6665 -0.0953  0.8702
17731SOL    HW255447   1.715   8.184   5.409  1.2703  0.0363 -0.7989
17732SOL     OW55448   8.959   1.375  10.638  0.3001  0.7095 -1.1449
17732SOL    HW155449   8.913   1.450  10.674 -1.0814 -0.2395 -0.8644
17732SOL    HW255450   8.891   1.324  10.593  1.3580  0.0648 -2.0787
17733SOL     OW55451   7.863   7.298   4.588  0.0446 -0.3216  0.1196
17733SOL    HW155452   7.887   7.217   4.544  1.5397  0.6973 -0.9923
17733SOL    HW255453   7.941   7.353   4.583 -0.9106  1.1738  0.9129
17734SOL     OW55454   4.364   2.626   8.710 -0.1481 -0.0737 -0.0345
17734SOL    HW155455   4.407   2.614   8.626  0.6296  0.9026  0.2071
17734SOL    HW255456   4.392   2.550   8.762 -0.7402 -0.7475 -0.6895
17735SOL     OW55457   3.504   5.898   1.513 -0.1186 -0.2604  0.4781
17735SOL    HW155458   3.467   5.939   1.591 -3.3925 -1.8486 -0.0542
17735SOL    HW255459   3.515   5.970   1.450 -1.8519  0.4014  0.8985
17736SOL     OW55460   9.228   1.331  10.074  0.2232 -1.2033 -0.3602
17736SOL    HW155461   9.266   1.343  10.161  0.9342  0.0166 -0.8144
17736SOL    HW255462   9.300   1.350  10.013 -0.9993  1.0772 -1.2419
17737SOL     OW55463   1.554   3.799   8.233 -0.4230  0.5560  0.7655
17737SOL    HW155464   1.606   3.734   8.184  1.1846  1.0565  1.7349
17737SOL    HW255465   1.472   3.754   8.252 -0.6071 -0.0848 -1.2873
17738SOL     OW55466   5.774   2.517   7.403 -0.0332 -0.0974  0.0065
17738SOL    HW155467   5.774   2.611   7.381  0.0708 -0.4248 -1.5371
17738SOL    HW255468   5.683   2.497   7.421  0.0466  0.4487  1.0857
17739SOL     OW55469  10.063   3.100  10.442  0.0026  0.4372  0.1018
17739SOL    HW155470  10.117   3.060  10.511  0.5776  1.8182  0.4865
17739SOL    HW255471  10.096   3.190  10.436 -3.1201  1.7879  1.2787
17740SOL     OW55472   4.585   6.167   5.488 -0.1992  0.0472  0.5278
17740SOL    HW155473   4.559   6.156   5.397  0.8162 -1.6146  0.3987
17740SOL    HW255474   4.653   6.101   5.502  0.2935  0.8552  2.2482
17741SOL     OW55475   0.608   2.951   2.850  0.1830  0.6415  0.6158
17741SOL    HW155476   0.673   2.896   2.807  0.4256  0.6023  1.0336
17741SOL    HW255477   0.646   2.972   2.936  0.8023  2.7519 -0.1098
17742SOL     OW55478   7.311   6.101   0.566 -0.2853  0.7724  0.2284
17742SOL    HW155479   7.402   6.127   0.559 -0.4339  1.7311  1.5047
17742SOL    HW255480   7.303   6.062   0.653 -1.5819  2.9983  1.1974
17743SOL     OW55481   7.153   3.864  10.340  0.8055  0.0503  0.4549
17743SOL    HW155482   7.143   3.869  10.435  0.6532 -1.0486  0.5073
17743SOL    HW255483   7.074   3.819  10.309 -0.1257  2.1413 -0.4215
17744SOL     OW55484   7.769   6.221   3.717 -0.1989 -0.2854  0.1380
17744SOL    HW155485   7.781   6.296   3.775  0.4642 -0.5658  0.3723
17744SOL    HW255486   7.778   6.258   3.629 -0.8973  0.0843  0.2127
17745SOL     OW55487   8.808   8.921   4.395  0.0328 -0.3802 -0.2932
17745SOL    HW155488   8.793   8.875   4.312  0.1403 -0.6803 -0.1486
17745SOL    HW255489   8.863   8.862   4.446  2.1557  0.9173 -0.9884
17746SOL     OW55490   8.618   1.339   0.474  0.9373  0.2517 -0.3432
17746SOL    HW155491   8.625   1.419   0.526  0.9093 -0.3679  0.6262
17746SOL    HW255492   8.700   1.336   0.424  1.2017  0.5769  0.0677
17747SOL     OW55493   1.326   2.552   8.198 -0.0267  0.0922  0.0887
17747SOL    HW155494   1.366   2.483   8.250  1.8703  1.4338  0.4993
17747SOL    HW255495   1.253   2.508   8.153 -0.8361 -1.4406  2.6762
17748SOL     OW55496   2.787   1.558   0.379 -0.3273  0.1505 -0.0276
17748SOL    HW155497   2.697   1.578   0.354  0.2115  1.0302 -1.4145
17748SOL    HW255498   2.836   1.637   0.355  0.7796 -0.2177  0.9247
17749SOL     OW55499   4.846   9.852   8.918  0.3422  0.0827  0.6089
17749SOL    HW155500   4.883   9.769   8.888 -0.9956 -0.2703 -0.1722
17749SOL    HW255501   4.798   9.829   8.998 -0.1100  0.0693  0.3388
17750SOL     OW55502   7.297   1.192   5.241 -0.4793 -0.0647  0.1660
17750SOL    HW155503   7.333   1.131   5.305 -0.0617 -1.1546 -1.0662
17750SOL    HW255504   7.371   1.248   5.218  0.7030 -2.5401 -2.6439
17751SOL     OW55505   9.766   5.481   9.424 -0.5473 -0.0371  0.8412
17751SOL    HW155506   9.692   5.464   9.482  0.0206 -1.2526  1.2353
17751SOL    HW255507   9.785   5.574   9.436 -2.5765  0.5545  0.0324
17752SOL     OW55508   0.704   1.711   1.750 -0.4049  0.3585  0.8861
17752SOL    HW155509   0.782   1.764   1.732 -0.4206 -0.0479 -0.4695
17752SOL    HW255510   0.711   1.637   1.690 -2.1019  0.5871  0.3620
17753SOL     OW55511   9.333   1.260   3.717  0.4822 -0.9973 -0.0045
17753SOL    HW155512   9.253   1.208   3.712  0.8538 -1.4963 -0.8226
17753SOL    HW255513   9.381   1.221   3.790  0.2960 -1.1308  0.0498
17754SOL     OW55514   4.475   6.817   5.398  0.0763  0.2513 -0.4903
17754SOL    HW155515   4.549   6.795   5.342 -0.4312  0.7106 -1.3694
17754SOL    HW255516   4.432   6.734   5.417  0.7368 -0.0013 -0.0709
17755SOL     OW55517   1.022  10.342   3.534  0.4883 -0.2585 -0.0272
17755SOL    HW155518   1.002  10.278   3.603  0.5789 -0.7131 -0.4117
17755SOL    HW255519   1.061  10.416   3.580 -1.4131  0.3770  0.6904
17756SOL     OW55520   4.241   8.682   7.244  0.3601 -0.2033 -0.2352
17756SOL    HW155521   4.303   8.672   7.172  0.0482  0.3133 -0.5824
17756SOL    HW255522   4.205   8.770   7.233 -0.2051 -0.3785  0.1462
17757SOL     OW55523  10.147   2.779   1.409 -0.1871  0.2245  0.6668
17757SOL    HW155524  10.053   2.782   1.391  0.2342 -0.1950 -1.9444
17757SOL    HW255525  10.176   2.870   1.399  0.1633 -0.0991 -1.9101
17758SOL     OW55526   3.358   6.615   8.086 -0.2946  0.7673  0.7435
17758SOL    HW155527   3.437   6.664   8.111 -0.0626  0.8408 -0.1252
17758SOL    HW255528   3.329   6.575   8.168 -0.8647  2.8638  1.6356
17759SOL     OW55529   3.349   4.508   8.904 -0.3133  0.0923  0.1460
17759SOL    HW155530   3.270   4.526   8.852 -1.2231  0.4140  1.5819
17759SOL    HW255531   3.357   4.582   8.963  1.5038  0.4117 -0.4262
17760SOL     OW55532   4.475   0.609   7.549  0.0180  0.3224 -0.0799
17760SOL    HW155533   4.446   0.531   7.597  0.6839  1.5869  2.5575
17760SOL    HW255534   4.569   0.612   7.564  0.0619  1.3721 -0.5304
17761SOL     OW55535  10.583   6.562   4.692  0.0767  0.1482  0.5464
17761SOL    HW155536  10.618   6.588   4.607 -0.5086 -0.1970  0.1925
17761SOL    HW255537  10.609   6.633   4.751  3.5223 -1.1929  0.8840
17762SOL     OW55538   6.187   4.250   6.059  0.4475 -0.1581 -0.3007
17762SOL    HW155539   6.202   4.227   5.967 -1.2019 -1.5059 -0.2717
17762SOL    HW255540   6.201   4.168   6.106 -1.5422 -0.1941  0.3027
17763SOL     OW55541   5.187  10.509   9.166 -0.7792 -0.1751  0.2745
17763SOL    HW155542   5.202  10.418   9.190  0.0093 -0.7454 -2.1131
17763SOL    HW255543   5.147  10.548   9.244 -0.3660 -2.3252  1.6525
17764SOL     OW55544   2.414   8.228  10.573 -0.3038 -0.2218  0.0878
17764SOL    HW155545   2.383   8.138  10.562 -0.3595 -0.1087 -0.7692
17764SOL    HW255546   2.337   8.282  10.553 -0.3155  0.0162  0.7646
17765SOL     OW55547   9.625   2.225   7.963 -0.3897  0.4249 -0.0607
17765SOL    HW155548   9.552   2.223   7.901 -0.7978 -3.2084  0.3348
17765SOL    HW255549   9.590   2.189   8.044  1.3816  0.4114  0.7583
17766SOL     OW55550   8.599   2.907   6.673 -0.1792 -0.5738  0.3218
17766SOL    HW155551   8.606   2.826   6.724  2.7092 -0.6372 -0.0224
17766SOL    HW255552   8.603   2.879   6.582 -0.7428 -0.1291  0.1539
17767SOL     OW55553   2.310   2.921   9.347 -0.3022 -0.0153 -0.1125
17767SOL    HW155554   2.389   2.881   9.310 -0.4280  0.0334 -0.4359
17767SOL    HW255555   2.298   3.002   9.298  1.3904  1.7817  2.1812
17768SOL     OW55556   0.563   9.657   0.746  0.1331 -0.2678  0.4546
17768SOL    HW155557   0.603   9.585   0.794  0.4259  0.2079  0.9402
17768SOL    HW255558   0.472   9.657   0.774  0.1851 -0.3101  0.6247
17769SOL     OW55559   2.168   5.178   0.853 -0.0266 -0.3196  0.1056
17769SOL    HW155560   2.253   5.210   0.824 -0.4684  0.9299  0.1090
17769SOL    HW255561   2.173   5.083   0.846  0.7713 -0.1698 -1.5355
17770SOL     OW55562   4.756   3.161   0.930 -0.0347 -0.2565 -0.4638
17770SOL    HW155563   4.663   3.178   0.948  0.1356 -0.3314  0.5305
17770SOL    HW255564   4.764   3.174   0.835 -1.0242 -0.0913 -0.5438
17771SOL     OW55565   5.308   3.933   5.603  0.0798 -0.2114  0.1855
17771SOL    HW155566   5.249   4.008   5.605  0.7188  0.2870  1.1306
17771SOL    HW255567   5.377   3.959   5.542 -0.4968 -0.6665 -0.6760
17772SOL     OW55568   1.562   3.726   1.146 -0.0670  0.6512 -0.2955
17772SOL    HW155569   1.633   3.696   1.089  0.1228 -0.4058  0.4728
17772SOL    HW255570   1.600   3.799   1.196  0.6040 -0.1140  0.3414
17773SOL     OW55571   1.192   5.639  10.459 -1.0093  0.0038  0.5433
17773SOL    HW155572   1.232   5.613  10.376 -0.7614 -0.0866  0.6921
17773SOL    HW255573   1.266   5.664  10.515 -1.1098 -0.7642  1.0350
17774SOL     OW55574   2.243   7.757   0.670 -0.2459  0.1144  0.5771
17774SOL    HW155575   2.253   7.820   0.741  0.0347  0.9652 -0.1956
17774SOL    HW255576   2.194   7.804   0.603 -0.7356 -0.7602  0.3038
17775SOL     OW55577   1.241   3.566   4.176 -0.2561  0.5426 -0.2750
17775SOL    HW155578   1.253   3.641   4.234  0.5066 -0.2196  0.5768
17775SOL    HW255579   1.329   3.532   4.161 -0.6030 -0.2918 -0.4949
17776SOL     OW55580   4.670   4.278   7.661 -0.4602  0.0448 -0.2010
17776SOL    HW155581   4.645   4.248   7.574 -0.1912 -0.9490  0.0496
17776SOL    HW255582   4.685   4.197   7.710  2.0156  0.5456  0.0015
17777SOL     OW55583   0.547   6.863   0.235 -0.8035 -0.1619 -0.6302
17777SOL    HW155584   0.575   6.909   0.156  0.0087 -0.9836 -0.8373
17777SOL    HW255585   0.600   6.901   0.305 -2.0113  1.0579 -0.3272
17778SOL     OW55586   8.842   7.346   7.440 -0.9209 -0.3618 -0.0985
17778SOL    HW155587   8.772   7.282   7.427 -2.1021  0.8442  0.0967
17778SOL    HW255588   8.814   7.396   7.516 -0.7095  1.2695 -1.0564
17779SOL     OW55589   7.611   4.825   7.234  0.4571 -0.3477 -0.4545
17779SOL    HW155590   7.649   4.826   7.322 -0.5339 -1.9383  0.0267
17779SOL    HW255591   7.579   4.914   7.221  0.3264 -0.1764  0.9237
17780SOL     OW55592   1.523   7.375   4.339  0.4236  0.4903  1.0191
17780SOL    HW155593   1.525   7.280   4.336  1.4413  0.5189 -1.2632
17780SOL    HW255594   1.578   7.398   4.414  0.4312 -0.6902  1.4006
17781SOL     OW55595   6.268   7.646   4.244  0.3723  0.0394  0.1527
17781SOL    HW155596   6.221   7.573   4.284  1.0108 -0.3075  0.2933
17781SOL    HW255597   6.202   7.714   4.232  0.0456 -0.0389  1.3240
17782SOL     OW55598   2.753   1.312   3.889 -0.1819 -0.3324  0.3166
17782SOL    HW155599   2.731   1.251   3.958 -1.6408 -0.3161 -0.1023
17782SOL    HW255600   2.713   1.275   3.810  1.2332 -0.2245 -0.4866
17783SOL     OW55601   0.842   6.225   0.415 -0.3183  0.2801  0.5638
17783SOL    HW155602   0.754   6.261   0.404 -0.3956  1.1874  3.3368
17783SOL    HW255603   0.830   6.149   0.471  0.7280  1.1586  2.0666
17784SOL     OW55604   4.897   2.418   7.681  0.6564  0.9790 -0.0737
17784SOL    HW155605   4.948   2.413   7.761  0.4174  0.6230  0.0628
17784SOL    HW255606   4.838   2.492   7.694  0.3335  0.6698  0.2559
17785SOL     OW55607   3.348   4.312   2.999 -0.6868 -0.2892 -0.4978
17785SOL    HW155608   3.292   4.381   2.964 -0.4784 -0.7499 -1.7901
17785SOL    HW255609   3.409   4.292   2.928  1.6035  0.6609  1.0797
17786SOL     OW55610   1.914  10.133   8.020  0.9583  0.2757 -0.0823
17786SOL    HW155611   1.843  10.198   8.019 -0.5826 -1.3213 -2.0715
17786SOL    HW255612   1.897  10.081   8.099 -0.2763 -0.2325 -0.6501
17787SOL     OW55613   0.580   8.562   4.413  0.0348  0.0264  0.1573
17787SOL    HW155614   0.500   8.510   4.414 -0.2028  0.3683 -0.6310
17787SOL    HW255615   0.551   8.651   4.432  0.0245  0.3989 -1.4774
17788SOL     OW55616   1.685   4.070   3.550  0.1062  0.3586 -0.3971
17788SOL    HW155617   1.599   4.094   3.516 -0.2184 -0.5964 -0.2650
17788SOL    HW255618   1.705   3.986   3.508 -0.2142 -0.7626  1.5981
17789SOL     OW55619   6.097  10.400   0.425  0.2304 -0.3371  0.0773
17789SOL    HW155620   6.044  10.370   0.499 -3.1149 -0.8350 -2.2808
17789SOL    HW255621   6.072  10.492   0.414  3.2963  0.7823  1.5042
17790SOL     OW55622   7.057   2.871   1.659 -0.0993 -0.0176 -0.3515
17790SOL    HW155623   7.145   2.899   1.634 -0.4947  1.3871 -0.2664
17790SOL    HW255624   7.033   2.927   1.733 -0.6906 -1.0670  0.2891
17791SOL     OW55625   1.930   2.295   8.789 -0.1814 -0.1743 -0.5435
17791SOL    HW155626   1.982   2.217   8.769  0.2646 -0.0613  0.1266
17791SOL    HW255627   1.924   2.295   8.885 -4.9316 -2.4908 -0.5134
17792SOL     OW55628   9.714   2.485  10.273 -1.0543  0.0833 -0.5731
17792SOL    HW155629   9.756   2.400  10.288  0.1977  0.8653  0.4529
17792SOL    HW255630   9.627   2.476  10.312 -0.0613  0.0431  1.7770
17793SOL     OW55631   8.521   6.693   8.109 -0.4749  0.8387 -0.5360
17793SOL    HW155632   8.583   6.756   8.146 -0.0592  0.7691 -1.1058
17793SOL    HW255633   8.499   6.635   8.182  1.4810 -0.2196 -0.7327
17794SOL     OW55634   4.845   2.637   0.381 -0.5746 -0.3463  0.4501
17794SOL    HW155635   4.866   2.614   0.472 -1.5852 -0.9104  0.5522
17794SOL    HW255636   4.845   2.554   0.334 -2.3856 -0.3783  0.4351
17795SOL     OW55637   0.184   8.109   0.083 -0.1094  0.7280 -0.4155
17795SOL    HW155638   0.222   8.056   0.153 -2.2342 -0.8160 -0.3288
17795SOL    HW255639   0.217   8.069   0.003 -1.1276 -0.3648 -0.3304
17796SOL     OW55640   4.789   1.034   4.657 -0.0354 -0.1585  0.2752
17796SOL    HW155641   4.807   1.127   4.647  0.4886 -0.2966 -0.1309
17796SOL    HW255642   4.762   1.005   4.570  0.2058 -0.4636  0.2967
17797SOL     OW55643   0.642   9.546   8.193  0.6624 -0.5472 -0.2316
17797SOL    HW155644   0.674   9.629   8.226  1.1998 -0.4990 -0.8441
17797SOL    HW255645   0.690   9.532   8.111 -0.5109 -0.7262 -0.9198
17798SOL     OW55646   6.578   9.327   4.347 -0.0779 -0.2709  0.2056
17798SOL    HW155647   6.548   9.415   4.370 -3.3500 -1.6768  2.0173
17798SOL    HW255648   6.650   9.309   4.409 -1.1914  0.1982  1.6956
17799SOL     OW55649   9.454   9.248   4.821 -0.1278 -0.4777 -1.2304
17799SOL    HW155650   9.407   9.251   4.904  0.8919 -0.0365 -0.6549
17799SOL    HW255651   9.533   9.300   4.836  1.4452 -2.6014 -1.6170
17800SOL     OW55652   9.435   4.622   8.886  0.1773 -0.4951 -0.1218
17800SOL    HW155653   9.503   4.557   8.865 -0.2147 -0.8279 -0.3804
17800SOL    HW255654   9.402   4.595   8.971  0.9092  0.1303  0.3745
17801SOL     OW55655   6.803   3.550   2.544  0.5883 -0.6805  0.8237
17801SOL    HW155656   6.726   3.506   2.509  2.4331 -3.1704 -0.4204
17801SOL    HW255657   6.811   3.515   2.633 -0.4629  0.7128  1.5103
17802SOL     OW55658   8.344   0.242   0.806  0.3274  0.4292  0.3142
17802SOL    HW155659   8.276   0.225   0.871 -0.3823  1.0357 -0.2665
17802SOL    HW255660   8.300   0.235   0.722  1.0415  0.5868 -0.0829
17803SOL     OW55661   8.171   7.321   0.765  0.2673 -0.6371  0.3820
17803SOL    HW155662   8.093   7.347   0.716 -0.3229 -1.6876  0.7207
17803SOL    HW255663   8.195   7.398   0.816  0.3290  0.1664 -0.8262
17804SOL     OW55664   7.554   7.630   6.431 -0.5699  0.1453  0.0091
17804SOL    HW155665   7.516   7.674   6.355  1.4434  1.4822 -0.3013
17804SOL    HW255666   7.648   7.638   6.419 -0.0588  2.7558  3.8645
17805SOL     OW55667  10.591   5.294   0.064 -0.3068  0.3891 -0.3439
17805SOL    HW155668  10.568   5.236   0.137 -2.1569 -0.0898 -1.2420
17805SOL    HW255669  10.685   5.282   0.052 -0.1747 -0.3407  1.2533
17806SOL     OW55670   0.335   4.837   4.512  0.4084  0.4030 -0.0555
17806SOL    HW155671   0.333   4.829   4.417 -0.0100  1.2716 -0.1293
17806SOL    HW255672   0.298   4.755   4.544 -0.6972  0.6364 -0.6786
17807SOL     OW55673   3.196   4.927   1.650  0.1063 -0.3868  0.5083
17807SOL    HW155674   3.152   4.942   1.567  0.3041  1.0057  0.6257
17807SOL    HW255675   3.243   4.845   1.639 -1.6080 -1.3277  0.0077
17808SOL     OW55676   0.735   2.600   5.649 -0.4765 -0.2614  0.0574
17808SOL    HW155677   0.753   2.639   5.563 -1.0657  1.0510  0.5110
17808SOL    HW255678   0.797   2.643   5.708 -1.1135 -0.0402  0.5652
17809SOL     OW55679   4.076   7.834   3.473 -0.1911  0.4725 -0.0837
17809SOL    HW155680   4.093   7.820   3.566 -1.3493  0.6427  0.1704
17809SOL    HW255681   4.130   7.909   3.450  0.9593 -0.2508  0.1679
17810SOL     OW55682   0.565   6.408   1.732 -0.7124 -0.4754 -0.4910
17810SOL    HW155683   0.547   6.360   1.651 -1.1579  0.2941 -0.8626
17810SOL    HW255684   0.577   6.340   1.798 -2.5616 -1.1088 -0.7389
17811SOL     OW55685   5.057   7.010   2.016 -0.0759  0.2174  0.8759
17811SOL    HW155686   4.976   7.028   2.064 -0.2752 -0.7632  0.9265
17811SOL    HW255687   5.125   7.050   2.068 -0.3650 -0.2756  1.6469
17812SOL     OW55688  10.277   3.739   0.926  0.0540  0.3226 -0.5676
17812SOL    HW155689  10.353   3.772   0.878 -0.2050  2.4404  0.3921
17812SOL    HW255690  10.303   3.651   0.955  1.3996  0.2627 -1.8408
17813SOL     OW55691  10.326   5.253   4.776 -0.1147  0.4551  0.3299
17813SOL    HW155692  10.294   5.267   4.865 -2.2033  1.6802 -0.5466
17813SOL    HW255693  10.262   5.296   4.720  1.6514  0.5627 -1.7492
17814SOL     OW55694   7.811   2.533   3.322 -0.5058 -0.2320 -0.4333
17814SOL    HW155695   7.732   2.574   3.357 -0.0049  1.6113 -1.3230
17814SOL    HW255696   7.868   2.524   3.398 -1.0199 -0.2156 -0.0380
17815SOL     OW55697   0.229   8.032   3.546  0.2736  0.0995  0.0232
17815SOL    HW155698   0.306   8.000   3.500  0.6204  1.6965 -0.5647
17815SOL    HW255699   0.156   8.010   3.488  0.4379 -0.1463 -0.0911
17816SOL     OW55700   5.908   7.662   1.321 -0.0306  0.2565 -0.1116
17816SOL    HW155701   5.893   7.583   1.373  0.3337  0.8336  0.8955
17816SOL    HW255702   5.846   7.726   1.356  2.4416  1.6984  1.9838
17817SOL     OW55703   3.650   3.591   8.014 -0.4121 -0.4424  0.6044
17817SOL    HW155704   3.680   3.598   7.923  0.9909  1.2159  1.1364
17817SOL    HW255705   3.712   3.530   8.054 -0.7844 -0.8606  0.5415
17818SOL     OW55706   7.372   4.785   0.336 -0.3411 -0.3021  0.3806
17818SOL    HW155707   7.385   4.766   0.243 -0.8054  1.1543 -0.0163
17818SOL    HW255708   7.451   4.752   0.379  0.1715 -0.4035 -0.6245
17819SOL     OW55709   6.768   3.787  10.626  0.4220 -0.1662  0.2900
17819SOL    HW155710   6.798   3.709  10.581 -0.8477  0.7221 -2.2546
17819SOL    HW255711   6.774   3.857  10.561  0.5945  1.7045  2.1770
17820SOL     OW55712   2.274   8.389   5.703 -0.1171 -0.3466  0.0833
17820SOL    HW155713   2.252   8.481   5.713 -2.6318 -0.9958  1.4090
17820SOL    HW255714   2.370   8.387   5.696 -0.0741  2.3985 -1.0436
17821SOL     OW55715   7.138   7.838   0.097  0.1260 -0.3304  0.7299
17821SOL    HW155716   7.068   7.889   0.057  0.7125 -1.9848 -2.7569
17821SOL    HW255717   7.196   7.904   0.136 -1.4985  1.2957  0.5369
17822SOL     OW55718   0.347   4.930   9.963 -0.4293  0.0115 -0.4018
17822SOL    HW155719   0.376   5.019   9.979 -0.8047  0.1707 -0.6005
17822SOL    HW255720   0.255   4.929   9.990 -0.4573 -0.2878 -0.4966
17823SOL     OW55721  10.633   1.394   6.217  0.4829  0.0602  0.6277
17823SOL    HW155722  10.715   1.347   6.203  0.6431  0.5931 -0.2765
17823SOL    HW255723  10.657   1.486   6.211 -0.3955  0.2200 -1.0216
17824SOL     OW55724   7.427   5.740   1.073  0.0069 -0.1148  0.0414
17824SOL    HW155725   7.477   5.691   1.009 -0.3632 -1.5912  0.8448
17824SOL    HW255726   7.491   5.771   1.137  0.2136  0.2755 -0.3534
17825SOL     OW55727   0.564   5.097   8.230 -0.2822  0.2974 -0.1952
17825SOL    HW155728   0.507   5.028   8.195  0.1205  1.3991 -3.3443
17825SOL    HW255729   0.651   5.057   8.234 -0.4767 -0.0789  0.3582
17826SOL     OW55730   7.328   5.135   9.516 -0.2598  0.2627  0.5295
17826SOL    HW155731   7.385   5.061   9.497 -2.3789 -1.5867  0.8770
17826SOL    HW255732   7.263   5.134   9.446 -0.3736  1.7815  0.5804
17827SOL     OW55733   5.963   3.778   9.863  1.1171  0.2526  0.4031
17827SOL    HW155734   6.033   3.720   9.893  0.9449 -0.7155 -0.9617
17827SOL    HW255735   5.989   3.803   9.775  0.3189  0.8292  0.3203
17828SOL     OW55736   8.602   3.794   4.005 -0.2952 -0.3252  0.2577
17828SOL    HW155737   8.531   3.827   3.950  0.5220  0.0206 -0.6107
17828SOL    HW255738   8.655   3.871   4.024  0.2173 -0.6958  0.3489
17829SOL     OW55739   3.634   3.794   0.016  0.3868 -0.1035  0.1052
17829SOL    HW155740   3.587   3.853  -0.043  0.3860 -0.5156 -0.3083
17829SOL    HW255741   3.657   3.849   0.091 -0.7334  0.1200  0.3035
17830SOL     OW55742   3.283   4.199   7.594  0.4898 -0.4624  0.3614
17830SOL    HW155743   3.311   4.283   7.631 -0.8770 -0.3609  1.2398
17830SOL    HW255744   3.317   4.133   7.655 -0.1173 -0.4117  0.7645
17831SOL     OW55745   0.963   1.177   9.550 -0.0591  0.0729  0.1599
17831SOL    HW155746   0.876   1.189   9.511  0.2728  0.0387 -0.6057
17831SOL    HW255747   0.945   1.150   9.640 -0.8784 -1.6968 -0.4796
17832SOL     OW55748   6.903   2.595   9.273  0.0448 -0.4419  0.2863
17832SOL    HW155749   6.853   2.656   9.327  0.6368 -0.8389  1.3206
17832SOL    HW255750   6.884   2.621   9.183 -0.8882  0.3040  0.6835
17833SOL     OW55751   2.538  10.432   8.771  0.3724 -0.2958  0.2259
17833SOL    HW155752   2.527  10.517   8.727 -2.6679 -1.0486 -0.7091
17833SOL    HW255753   2.588  10.379   8.710  0.5610  0.2210 -0.0723
17834SOL     OW55754   4.308   0.714  10.363  0.0226  0.3452  0.8031
17834SOL    HW155755   4.341   0.665  10.439  0.2677  0.5026  0.7992
17834SOL    HW255756   4.253   0.783  10.401  2.6044  2.4082  1.0739
17835SOL     OW55757   6.778  10.588  10.288  0.9692  0.5763 -0.0707
17835SOL    HW155758   6.710  10.528  10.316  1.7597 -1.1412 -1.6085
17835SOL    HW255759   6.736  10.642  10.221  0.2108  1.9130  1.4298
17836SOL     OW55760   3.615   9.358   0.028 -0.0694 -0.6348  0.1149
17836SOL    HW155761   3.702   9.319   0.041  1.6709  2.4789 -1.1317
17836SOL    HW255762   3.620   9.443   0.072 -1.1976  1.0896 -2.7942
17837SOL     OW55763  10.264   8.115   0.339  0.0536 -0.1375  0.2457
17837SOL    HW155764  10.220   8.133   0.256 -1.3544  0.0314  1.0032
17837SOL    HW255765  10.204   8.148   0.406  2.8608  3.5565  1.2934
17838SOL     OW55766   6.847   1.590   4.533  0.2307  0.2247  0.9901
17838SOL    HW155767   6.896   1.539   4.468 -0.2687  0.8607  0.1006
17838SOL    HW255768   6.905   1.663   4.555  0.2159  0.2506  0.9411
17839SOL     OW55769   1.789   4.644   4.515 -0.4442  0.1213 -0.0144
17839SOL    HW155770   1.799   4.634   4.421 -1.0381 -0.4064 -0.0241
17839SOL    HW255771   1.767   4.736   4.527 -1.8836 -0.1299 -0.5328
17840SOL     OW55772   0.527   7.476   5.264  0.1435 -0.6752  0.0914
17840SOL    HW155773   0.485   7.440   5.342 -1.9966  0.5835 -0.3776
17840SOL    HW255774   0.610   7.512   5.296 -0.1569 -1.2011  1.5560
17841SOL     OW55775   0.517  10.327   7.378 -0.7183 -0.0460 -0.0475
17841SOL    HW155776   0.469  10.401   7.417  0.1788  0.0372  0.9505
17841SOL    HW255777   0.467  10.250   7.405 -0.2952  0.0356  1.0234
17842SOL     OW55778   1.929   6.081  10.618 -0.4682 -0.6028  0.1164
17842SOL    HW155779   2.000   6.133  10.656 -0.2152 -0.4605 -0.5384
17842SOL    HW255780   1.971   6.031  10.549 -1.0774 -0.2044 -0.5526
17843SOL     OW55781   6.793   3.653   1.179  0.2337 -0.1508 -0.0356
17843SOL    HW155782   6.745   3.733   1.159  0.5559 -0.4675 -2.4915
17843SOL    HW255783   6.878   3.665   1.137  0.5868 -1.4387  0.2609
17844SOL     OW55784   6.768   3.554   9.262 -0.3357  0.1147 -0.4346
17844SOL    HW155785   6.688   3.602   9.284  0.2966  1.1166 -0.2725
17844SOL    HW255786   6.828   3.621   9.229 -0.1398 -0.8578 -2.1786
17845SOL     OW55787   7.227   8.773   9.576 -0.5317  0.1803  0.5110
17845SOL    HW155788   7.225   8.785   9.671 -0.1800  3.2414  0.2546
17845SOL    HW255789   7.138   8.794   9.548 -0.1644  1.2332  0.0621
17846SOL     OW55790   0.799   4.447   6.678  0.4089 -0.0998  0.2971
17846SOL    HW155791   0.802   4.505   6.754 -0.9253  0.9415 -0.4005
17846SOL    HW255792   0.865   4.482   6.619  0.2612  0.1383  0.2719
17847SOL     OW55793  10.538   5.139   5.038 -1.3254 -0.4889  0.3633
17847SOL    HW155794  10.515   5.064   4.984 -2.0681 -0.2081  0.2814
17847SOL    HW255795  10.515   5.215   4.985 -0.2301 -0.1907  0.2901
17848SOL     OW55796   1.097   5.090   5.833 -0.3113 -0.9298 -0.1342
17848SOL    HW155797   1.177   5.118   5.788  0.1161 -2.3030 -0.2594
17848SOL    HW255798   1.077   5.005   5.796 -0.9643 -1.2865  1.0054
17849SOL     OW55799   0.031   1.394   4.158 -0.4684  0.2130  0.4162
17849SOL    HW155800  -0.039   1.328   4.159 -0.3118  0.0472  0.4349
17849SOL    HW255801  -0.000   1.460   4.095 -0.2011 -0.3495 -0.3305
17850SOL     OW55802   8.099  10.009   7.752  0.2691  0.2141 -0.2387
17850SOL    HW155803   8.106  10.041   7.841 -0.6321  0.1414 -0.1242
17850SOL    HW255804   8.030  10.063   7.712  0.1963 -0.1883 -0.6783
17851SOL     OW55805   1.343   3.244   9.814  0.5173  0.3790 -0.0958
17851SOL    HW155806   1.399   3.191   9.757  0.5221  1.1222 -0.8051
17851SOL    HW255807   1.339   3.329   9.771 -1.5916  0.2033 -0.3638
17852SOL     OW55808   0.548   9.672   4.001 -0.3062  0.2453  0.2259
17852SOL    HW155809   0.474   9.726   3.972 -0.8893 -1.2010 -1.0745
17852SOL    HW255810   0.625   9.720   3.971 -0.8427 -1.2184 -4.1310
17853SOL     OW55811   8.967   9.465   1.888 -0.5815 -0.3451  0.4087
17853SOL    HW155812   9.006   9.547   1.857  0.0526 -1.2464 -1.3559
17853SOL    HW255813   9.017   9.444   1.967  1.2744 -0.4525 -0.7082
17854SOL     OW55814   7.292   2.226   0.037 -0.3345 -0.2952  0.3345
17854SOL    HW155815   7.310   2.293  -0.029  0.9606 -0.5351  0.4227
17854SOL    HW255816   7.200   2.240   0.060 -0.5498  0.3881 -0.8354
17855SOL     OW55817   9.666   4.020   9.758 -0.3825 -0.1911 -0.5470
17855SOL    HW155818   9.616   4.085   9.709 -1.8971  0.5359  1.7739
17855SOL    HW255819   9.745   4.067   9.786 -0.8961  0.2996  0.1085
17856SOL     OW55820   5.591   2.226   5.738 -0.2857  0.0979 -0.3396
17856SOL    HW155821   5.553   2.220   5.826 -1.2296 -0.2182 -0.7532
17856SOL    HW255822   5.622   2.137   5.720 -0.4235  0.0745 -0.4652
17857SOL     OW55823  10.053   1.754   7.148 -0.3467 -0.5360  0.3173
17857SOL    HW155824   9.976   1.735   7.203  0.4181  0.7853  1.9499
17857SOL    HW255825  10.127   1.725   7.201  0.3593 -0.3703 -0.5694
17858SOL     OW55826   1.721   2.818   3.592  0.0101 -0.2673  0.3646
17858SOL    HW155827   1.654   2.750   3.594 -0.4140  0.1203 -0.2872
17858SOL    HW255828   1.803   2.770   3.579 -0.2943 -0.6565 -0.1586
17859SOL     OW55829   7.171   0.526   6.641 -0.3131  0.8619  0.1167
17859SOL    HW155830   7.095   0.582   6.624 -1.8203 -1.3212 -0.8875
17859SOL    HW255831   7.140   0.461   6.704  0.6932 -0.0942 -0.3258
17860SOL     OW55832   8.952   7.611   1.299  0.1645  0.3385  0.3959
17860SOL    HW155833   8.938   7.641   1.210 -1.4088  1.3014  0.9193
17860SOL    HW255834   8.932   7.687   1.354  3.6661  0.6208  1.5315
17861SOL     OW55835   5.903   3.146   1.893 -0.1332  0.0966  0.1236
17861SOL    HW155836   5.808   3.135   1.885 -0.6646  3.4563  0.3509
17861SOL    HW255837   5.935   3.137   1.803 -1.1291  1.8262 -0.4604
17862SOL     OW55838   6.607   3.688   6.134 -0.5304 -0.0552  0.6219
17862SOL    HW155839   6.665   3.691   6.210  0.3987 -0.2614 -0.0557
17862SOL    HW255840   6.664   3.710   6.060 -0.6785 -2.7830 -0.4161
17863SOL     OW55841   5.602   6.565   5.105 -0.2190 -0.2255 -0.4857
17863SOL    HW155842   5.649   6.551   5.188 -0.1265  1.5848 -0.1878
17863SOL    HW255843   5.633   6.494   5.048 -0.3933 -1.5969  1.0526
17864SOL     OW55844   4.946   9.761  10.598  0.0284  0.2257  0.1113
17864SOL    HW155845   4.949   9.691  10.663  0.4405 -0.9151 -1.0884
17864SOL    HW255846   4.863   9.748  10.552 -0.1592  0.8803  0.2628
17865SOL     OW55847   1.609   0.772   8.804  0.0533  0.2231 -0.4470
17865SOL    HW155848   1.548   0.729   8.745 -0.7075 -0.1508  0.5794
17865SOL    HW255849   1.694   0.763   8.761 -0.4786 -0.0100 -1.4809
17866SOL     OW55850   0.657   2.462   9.355 -0.0741 -0.0628  0.4576
17866SOL    HW155851   0.701   2.531   9.404 -0.1584  1.0095 -0.9159
17866SOL    HW255852   0.729   2.412   9.315 -0.0350  0.7296 -0.5061
17867SOL     OW55853   2.212   9.127   4.892 -0.2854  0.1123  0.4848
17867SOL    HW155854   2.257   9.045   4.909 -1.3966 -0.2686  1.7472
17867SOL    HW255855   2.221   9.140   4.797  0.5605 -1.0451  0.3816
17868SOL     OW55856   9.063   9.471  10.388 -0.1292  0.0441  0.7922
17868SOL    HW155857   9.112   9.474  10.306  0.0021  0.6008  0.8842
17868SOL    HW255858   9.101   9.398  10.436 -1.3357 -1.3787 -0.3349
17869SOL     OW55859   5.217   3.539   8.601 -0.7751 -0.3215  0.3674
17869SOL    HW155860   5.136   3.534   8.550 -0.6651 -0.5484  0.2162
17869SOL    HW255861   5.205   3.475   8.672 -0.6689 -0.4573  0.2625
17870SOL     OW55862   2.808   4.995   9.776  0.1745  0.0348 -0.0266
17870SOL    HW155863   2.821   5.030   9.687  0.5037  1.5258  0.5662
17870SOL    HW255864   2.720   4.958   9.775 -0.0024  0.4501 -0.8661
17871SOL     OW55865   7.032   4.959   6.145  0.0871 -0.1703  0.1313
17871SOL    HW155866   6.983   4.895   6.196 -0.9711  0.5008  0.0013
17871SOL    HW255867   7.117   4.965   6.189 -1.7383  2.6929  3.9302
17872SOL     OW55868   0.497   8.644   3.719 -0.3926 -0.2857  0.5963
17872SOL    HW155869   0.550   8.578   3.674 -0.5354  0.7148 -1.1516
17872SOL    HW255870   0.413   8.601   3.736 -0.6056 -0.4765 -0.8279
17873SOL     OW55871   7.118   7.155  10.111  0.2605 -0.5228  0.4361
17873SOL    HW155872   7.067   7.088  10.156  0.7841 -0.9368  0.4213
17873SOL    HW255873   7.208   7.122  10.113  0.2931 -0.5500 -0.9287
17874SOL     OW55874   1.345   9.518   0.727  0.1085  0.3192  0.1097
17874SOL    HW155875   1.267   9.481   0.685  0.7896  0.3728 -1.2541
17874SOL    HW255876   1.311   9.591   0.779 -0.6255  1.2316 -1.5755
17875SOL     OW55877   8.264   9.446   2.345 -0.3875  0.3219 -0.0842
17875SOL    HW155878   8.192   9.394   2.310 -0.1629  0.4670 -0.7766
17875SOL    HW255879   8.290   9.399   2.425 -2.1800  1.0587  0.9954
17876SOL     OW55880   6.369   6.062   8.441 -0.2078 -0.0047 -0.1909
17876SOL    HW155881   6.359   5.976   8.483 -0.8967  0.6866  1.1140
17876SOL    HW255882   6.358   6.125   8.512  2.3098  1.1708 -0.7145
17877SOL     OW55883   0.432   4.386   9.660  0.1654  0.3183 -0.0112
17877SOL    HW155884   0.366   4.405   9.727 -0.9179 -1.2747 -0.5645
17877SOL    HW255885   0.392   4.413   9.578  0.7167  0.5023 -0.2218
17878SOL     OW55886   4.491   7.631   6.924 -0.4107 -0.2843 -0.4255
17878SOL    HW155887   4.416   7.587   6.883 -1.8012  1.5939 -0.0284
17878SOL    HW255888   4.539   7.668   6.850 -0.9681  0.1549 -0.5747
17879SOL     OW55889   1.269   6.673   0.041  0.1055  0.1870  0.3802
17879SOL    HW155890   1.212   6.617   0.094 -0.3862  1.3841  1.1767
17879SOL    HW255891   1.324   6.612  -0.008 -0.8427 -0.9850  0.7190
17880SOL     OW55892   9.756   7.174   1.608  0.0774 -0.2639 -0.0081
17880SOL    HW155893   9.812   7.251   1.617 -1.7701  1.0932  0.5874
17880SOL    HW255894   9.762   7.131   1.694 -1.0553  0.8342  0.6579
17881SOL     OW55895   8.249   6.386   8.372  0.5154  0.5536  0.8259
17881SOL    HW155896   8.299   6.315   8.332 -0.1837 -0.5541  1.8473
17881SOL    HW255897   8.159   6.372   8.343  0.0265 -0.1625  2.5581
17882SOL     OW55898   0.601   6.986  10.063 -0.1526  0.0258 -0.3854
17882SOL    HW155899   0.683   6.999  10.111 -0.3292  4.5913 -0.8063
17882SOL    HW255900   0.626   6.988   9.971 -0.6020  0.7446 -0.5052
17883SOL     OW55901   4.436   8.072   6.138  0.1799  0.4252 -0.0677
17883SOL    HW155902   4.458   7.987   6.101 -0.1685  0.7199 -0.9902
17883SOL    HW255903   4.344   8.064   6.163 -0.5298  1.1565 -2.1618
17884SOL     OW55904   0.924   3.253   3.216 -0.1104  0.1413  0.4602
17884SOL    HW155905   0.888   3.203   3.142  0.0421 -0.0886  0.5403
17884SOL    HW255906   0.850   3.305   3.248  0.3487  1.9603 -1.2480
17885SOL     OW55907  10.035   5.789   0.551  1.0747 -0.1087 -0.3000
17885SOL    HW155908   9.985   5.751   0.478  1.7460  0.7481 -1.2184
17885SOL    HW255909  10.093   5.718   0.579  2.3465  0.1737 -2.0289
17886SOL     OW55910   8.695   7.663   4.872  0.0078  0.0905  0.2327
17886SOL    HW155911   8.644   7.744   4.866  0.7989  0.6420  0.7682
17886SOL    HW255912   8.675   7.628   4.959  0.3203  0.1734  0.3424
17887SOL     OW55913   6.589   7.514   6.244  0.0922 -0.0930  0.0267
17887SOL    HW155914   6.622   7.436   6.289  1.3443  0.9297  0.9572
17887SOL    HW255915   6.648   7.525   6.169 -0.4518 -0.3504 -0.4530
17888SOL     OW55916   2.076   4.104   0.909  1.0408 -0.4220 -0.4639
17888SOL    HW155917   1.998   4.049   0.904 -0.8041  2.0567 -0.8476
17888SOL    HW255918   2.063   4.158   0.987  0.4856  2.5109 -2.3903
17889SOL     OW55919   1.528   1.076   3.989  0.1709 -0.3088 -0.0784
17889SOL    HW155920   1.593   1.068   3.919  0.7216  0.4178  0.3480
17889SOL    HW255921   1.495   1.165   3.982  1.2385  0.2386  1.4511
17890SOL     OW55922   1.559   2.945   5.203  0.1084 -0.0813  0.0142
17890SOL    HW155923   1.496   2.915   5.137 -0.4090  0.9696  0.0040
17890SOL    HW255924   1.533   3.035   5.222  0.2374 -0.3554  1.6674
17891SOL     OW55925   0.771   2.633   9.549  0.1032  0.1389  0.3897
17891SOL    HW155926   0.736   2.707   9.499  2.3933 -0.8020 -2.9312
17891SOL    HW255927   0.796   2.671   9.633 -3.4794  1.9364  0.8727
17892SOL     OW55928   8.806   6.598   4.674  0.7120  0.1172  0.0104
17892SOL    HW155929   8.738   6.545   4.716  0.0580  0.1734 -0.9301
17892SOL    HW255930   8.832   6.662   4.740  0.3561 -0.3568  0.6195
17893SOL     OW55931   8.101   4.815   6.328  0.1859 -0.3442 -0.1571
17893SOL    HW155932   8.027   4.876   6.326 -0.3606 -1.0101 -1.1520
17893SOL    HW255933   8.117   4.793   6.236  0.0410 -2.0948  0.1968
17894SOL     OW55934   9.686   3.924   6.013 -0.3912 -0.0790 -0.1455
17894SOL    HW155935   9.712   4.016   6.026  0.1082 -0.0879 -1.0069
17894SOL    HW255936   9.695   3.910   5.919 -0.8544 -0.9018 -0.0733
17895SOL     OW55937   7.896   0.770   7.198  0.2232  0.0077  0.6098
17895SOL    HW155938   7.981   0.815   7.196 -0.5806  1.6037  1.2194
17895SOL    HW255939   7.864   0.782   7.287 -0.7913 -0.3388  0.3050
17896SOL     OW55940   7.955  10.515   3.035 -0.1125 -0.8433 -0.1264
17896SOL    HW155941   7.957  10.548   2.945 -0.7488 -1.5634 -0.4139
17896SOL    HW255942   7.865  10.527   3.063  0.4918  1.2067  1.1386
17897SOL     OW55943   6.431   2.379   2.145  0.6443 -0.0801  0.6451
17897SOL    HW155944   6.384   2.444   2.094  2.5294  0.9835  0.2001
17897SOL    HW255945   6.458   2.313   2.082  1.6179  0.4287  0.5231
17898SOL     OW55946   1.884   2.393   9.817 -0.0828 -0.3181  0.0123
17898SOL    HW155947   1.907   2.425   9.730  0.8822 -2.3227 -0.5096
17898SOL    HW255948   1.790   2.408   9.824 -0.1534 -0.0557 -1.3306
17899SOL     OW55949   9.627   2.723   1.198 -0.4815  0.2927 -0.0566
17899SOL    HW155950   9.566   2.785   1.236 -0.7938  0.0502 -0.1611
17899SOL    HW255951   9.652   2.762   1.114  1.0841  1.3816  0.8708
17900SOL     OW55952   2.691  10.106   0.521 -0.5493  0.3962 -0.3573
17900SOL    HW155953   2.759  10.039   0.514 -0.3811 -0.1439  3.8261
17900SOL    HW255954   2.620  10.074   0.466  0.3780 -2.1448 -0.2013
17901SOL     OW55955   7.931   0.347  10.437 -0.1370 -0.0979  1.0804
17901SOL    HW155956   7.836   0.358  10.443 -0.1195 -0.6093  2.6644
17901SOL    HW255957   7.943   0.289  10.362 -0.9058  1.6164 -0.4596
17902SOL     OW55958   8.226   0.092   5.411 -0.2123  0.0670 -0.2787
17902SOL    HW155959   8.183   0.068   5.492  0.7325  3.9485  1.6143
17902SOL    HW255960   8.160   0.076   5.343 -1.1937 -2.8358  1.1891
17903SOL     OW55961  10.033   5.707   7.330  0.1038 -0.0319 -0.0924
17903SOL    HW155962   9.976   5.696   7.406 -0.2027  0.0058 -0.3116
17903SOL    HW255963  10.092   5.632   7.333  0.3246  0.1640  0.3810
17904SOL     OW55964   4.280   8.055  10.051  0.5035 -0.1604  0.1177
17904SOL    HW155965   4.258   7.962  10.052  1.9584 -0.5351 -0.5821
17904SOL    HW255966   4.244   8.088   9.969  0.7872 -0.3087 -0.0647
17905SOL     OW55967   7.090   2.292   5.567  0.0924 -0.1903  0.5206
17905SOL    HW155968   7.064   2.383   5.556 -0.4901 -0.4939 -0.8271
17905SOL    HW255969   7.139   2.271   5.488 -2.3759 -1.8836 -0.7093
17906SOL     OW55970   3.925  10.182  10.347 -0.6018  0.9154  0.2028
17906SOL    HW155971   3.875  10.226  10.279  0.6903  2.6005  0.2906
17906SOL    HW255972   3.947  10.097  10.309 -0.1832  1.6875 -1.3859
17907SOL     OW55973   1.792   9.712   5.287  0.0953  0.5149  0.0296
17907SOL    HW155974   1.710   9.714   5.336  0.1921  1.6877  0.1825
17907SOL    HW255975   1.791   9.794   5.236  0.1871 -0.4652 -1.6052
17908SOL     OW55976   5.256   7.896   2.286 -0.8961 -0.0600 -0.2185
17908SOL    HW155977   5.324   7.830   2.296  0.3638  1.2439  0.2744
17908SOL    HW255978   5.193   7.877   2.355 -1.0882 -1.3462 -0.7363
17909SOL     OW55979   3.504   8.844   6.537  0.2267  0.0378  0.0143
17909SOL    HW155980   3.550   8.829   6.455 -1.4711 -1.1559 -0.7795
17909SOL    HW255981   3.493   8.939   6.542  1.9795  0.2886 -0.1643
17910SOL     OW55982   4.127   0.411   0.845  0.1478 -0.0921 -0.4367
17910SOL    HW155983   4.106   0.466   0.770 -0.6822  1.2320  0.7268
17910SOL    HW255984   4.115   0.321   0.812 -0.0194  0.4435 -1.9211
17911SOL     OW55985   1.402   3.248   1.648  0.0232 -0.4321 -0.5911
17911SOL    HW155986   1.328   3.296   1.685 -0.1304 -0.8221 -0.3898
17911SOL    HW255987   1.423   3.295   1.567 -2.0202 -1.7213 -1.9531
17912SOL     OW55988   3.825   0.687   7.382  0.0287  0.5689  0.8573
17912SOL    HW155989   3.779   0.610   7.415  0.6823 -0.0696  0.3312
17912SOL    HW255990   3.918   0.663   7.389  0.2075  0.2388 -1.7158
17913SOL     OW55991   8.195   0.698   7.439  0.2815  0.5830  0.6321
17913SOL    HW155992   8.133   0.635   7.475  0.4194  1.1000  1.8054
17913SOL    HW255993   8.277   0.648   7.430 -0.3415 -0.2024 -1.2705
17914SOL     OW55994   8.643   4.316   4.534 -0.1254  0.1904 -0.4193
17914SOL    HW155995   8.571   4.340   4.476 -0.6532  0.2401  0.2495
17914SOL    HW255996   8.719   4.362   4.498 -0.2980 -0.3173 -1.4650
17915SOL     OW55997   9.172   6.186   2.199  0.5407 -0.4211 -0.4311
17915SOL    HW155998   9.110   6.238   2.149  1.2738  2.1409  1.1666
17915SOL    HW255999   9.258   6.214   2.168  0.9874  0.6442  1.6153
17916SOL     OW56000   6.356   9.147   3.748  1.1641  0.3392  0.1593
17916SOL    HW156001   6.269   9.179   3.770  0.4605 -0.2800 -1.5312
17916SOL    HW256002   6.353   9.053   3.765  2.0127  0.5199  1.4970
17917SOL     OW56003   6.497   4.117   9.982  0.1687 -0.1447 -0.0734
17917SOL    HW156004   6.425   4.071   9.939  0.4964  0.7116 -1.5976
17917SOL    HW256005   6.457   4.197  10.017  0.8800  2.1215 -3.9490
17918SOL     OW56006   7.259   4.256   7.745  0.1089 -0.0868  0.5859
17918SOL    HW156007   7.318   4.190   7.706 -0.8645 -0.5955 -0.0664
17918SOL    HW256008   7.260   4.237   7.838  0.2497 -0.6909  0.4651
17919SOL     OW56009   9.334   0.623   6.917 -0.1005 -0.0603  0.1674
17919SOL    HW156010   9.298   0.681   6.983  1.0330 -0.3146  1.0428
17919SOL    HW256011   9.361   0.545   6.965  1.1111 -0.0947 -0.5119
17920SOL     OW56012   6.961  10.202  10.269 -0.0183  0.7151  0.5563
17920SOL    HW156013   7.056  10.186  10.274 -0.2996 -1.1273  0.4138
17920SOL    HW256014   6.939  10.235  10.356  1.3621  5.3504 -0.5222
17921SOL     OW56015   4.518   6.315   8.777  0.3417  0.1329  0.1849
17921SOL    HW156016   4.577   6.291   8.705  2.7160 -1.6862  2.5412
17921SOL    HW256017   4.542   6.405   8.798 -0.2025  0.5936 -1.0877
17922SOL     OW56018   1.199   3.063   6.429 -0.0354 -0.3511 -0.3679
17922SOL    HW156019   1.214   3.152   6.397  1.3199  0.3229  1.9408
17922SOL    HW256020   1.112   3.067   6.469 -0.0482 -0.0950 -0.4192
17923SOL     OW56021   1.931   9.234  10.266 -0.3923 -0.4923  0.7104
17923SOL    HW156022   1.875   9.254  10.191 -1.3382  0.5582  1.6584
17923SOL    HW256023   2.019   9.260  10.238 -0.8036  0.2845  0.0898
17924SOL     OW56024   4.485   9.306   9.930  0.1347 -0.2470 -0.1770
17924SOL    HW156025   4.412   9.291   9.871 -0.3187  0.1823  0.2646
17924SOL    HW256026   4.449   9.360  10.001  1.3459  1.8837 -1.0663
17925SOL     OW56027   2.301   7.645   6.780 -0.2382 -0.1861  0.4623
17925SOL    HW156028   2.378   7.701   6.770 -0.4893  0.2927  1.1281
17925SOL    HW256029   2.329   7.560   6.748 -0.0418  0.4541 -1.2110
17926SOL     OW56030   0.397   5.009   5.052  0.6939 -0.1344  0.2649
17926SOL    HW156031   0.315   5.058   5.045  0.2259 -0.7380  1.2274
17926SOL    HW256032   0.465   5.075   5.062  0.3033  0.3688 -0.3743
17927SOL     OW56033  10.162   5.685   9.979  0.1106 -0.6303  0.0878
17927SOL    HW156034  10.086   5.680  10.037 -1.1505 -3.4881 -1.5876
17927SOL    HW256035  10.131   5.731   9.901  0.0564 -1.7482 -0.5783
17928SOL     OW56036   4.889   9.710   4.487 -0.2010  0.3223 -0.2061
17928SOL    HW156037   4.926   9.765   4.418  0.4841 -0.7057 -0.6957
17928SOL    HW256038   4.823   9.657   4.443 -1.7613  1.5791  0.5101
17929SOL     OW56039   0.770   2.512   3.226  0.0123 -0.2443  0.2705
17929SOL    HW156040   0.817   2.586   3.188  0.2500 -1.3930 -1.8216
17929SOL    HW256041   0.694   2.500   3.170 -1.5438  0.0982  2.2228
17930SOL     OW56042   8.929   9.723   8.969 -0.0106  0.0868  0.0385
17930SOL    HW156043   8.918   9.777   9.048  0.5255  0.8065 -0.3672
17930SOL    HW256044   8.931   9.633   9.001  0.7880  0.4051  0.9086
17931SOL     OW56045   1.141   0.865   7.121 -0.0845 -0.1961  0.1486
17931SOL    HW156046   1.184   0.948   7.101  3.6763 -1.7841  0.7534
17931SOL    HW256047   1.116   0.873   7.213 -0.5110  0.5422 -0.0236
17932SOL     OW56048   9.297   9.954   8.749 -0.3307 -0.2333  0.2867
17932SOL    HW156049   9.280   9.871   8.793  1.2309 -1.2177 -0.8569
17932SOL    HW256050   9.334   9.929   8.664 -0.3875  1.6299 -0.3325
17933SOL     OW56051   4.146   3.377   1.972 -0.5419 -0.1534  0.2862
17933SOL    HW156052   4.190   3.442   1.918  1.1372 -0.5005  1.1706
17933SOL    HW256053   4.109   3.427   2.045 -3.7307  0.4820 -1.5363
17934SOL     OW56054   1.880   1.763   5.869  0.1108  0.0024 -0.4086
17934SOL    HW156055   1.958   1.716   5.898  0.3590  0.8718  0.3966
17934SOL    HW256056   1.843   1.709   5.799  0.9704 -0.8326 -0.2298
17935SOL     OW56057   0.059   6.881   9.259 -0.3014 -0.1581  0.5059
17935SOL    HW156058   0.032   6.790   9.264  0.3453 -0.6671 -2.6865
17935SOL    HW256059   0.153   6.879   9.276 -0.0882 -0.2811 -0.6313
17936SOL     OW56060   3.504   1.264   6.767  0.0522 -0.0826 -0.3873
17936SOL    HW156061   3.512   1.358   6.754 -0.7614 -0.2173 -2.0847
17936SOL    HW256062   3.440   1.255   6.838 -0.4603  0.6353 -0.7431
17937SOL     OW56063   0.660   2.330   4.046  0.1731  0.0841  0.1742
17937SOL    HW156064   0.740   2.381   4.039 -0.3173  0.6414 -3.3491
17937SOL    HW256065   0.683   2.244   4.012 -0.4609 -0.1153  0.2323
17938SOL     OW56066   4.234   2.224  10.560  0.1421  0.0629  0.3187
17938SOL    HW156067   4.283   2.176  10.494  1.7666  0.5086  1.1362
17938SOL    HW256068   4.281   2.307  10.569 -1.3548  0.9358  0.4590
17939SOL     OW56069   9.443   5.919   1.242  0.2754  0.4096  0.1450
17939SOL    HW156070   9.443   6.014   1.253 -1.5964  0.7702 -2.1659
17939SOL    HW256071   9.363   5.900   1.194  0.4592 -2.4007  0.7711
17940SOL     OW56072   3.066   1.179   1.648  0.0589 -0.3074  0.0692
17940SOL    HW156073   3.043   1.102   1.699  1.8266 -0.9923 -0.0837
17940SOL    HW256074   3.024   1.166   1.563  0.6512 -1.3034 -0.0792
17941SOL     OW56075   7.458   1.942   2.621  0.1587 -0.3955  0.7730
17941SOL    HW156076   7.516   1.969   2.692  1.5130  0.2420 -0.5203
17941SOL    HW256077   7.500   1.976   2.541 -2.4145  0.8191 -0.1825
17942SOL     OW56078   1.247   3.196   4.110  0.0455 -0.3184  0.0656
17942SOL    HW156079   1.334   3.154   4.110 -0.1743 -0.9470  2.6023
17942SOL    HW256080   1.266   3.289   4.097  1.0166 -0.5437 -0.2712
17943SOL     OW56081   3.437   2.309   4.938  0.1447  0.8468  1.3706
17943SOL    HW156082   3.499   2.242   4.910 -0.2081  0.8280  0.5931
17943SOL    HW256083   3.491   2.375   4.982  1.0985  1.8931 -1.1586
17944SOL     OW56084   8.925   8.264   7.173 -0.2374 -0.1509  0.5155
17944SOL    HW156085   8.959   8.309   7.096  1.2700 -0.4088  0.9984
17944SOL    HW256086   9.001   8.217   7.209 -1.8998 -4.2701 -0.7333
17945SOL     OW56087   7.990   5.467   4.678  0.0973 -0.2345 -0.3812
17945SOL    HW156088   8.068   5.452   4.731  0.5470  0.3750 -0.8578
17945SOL    HW256089   7.979   5.387   4.627  0.8567 -0.0435 -0.8624
17946SOL     OW56090   3.373   8.532   9.751  0.2395  0.1298  0.2670
17946SOL    HW156091   3.359   8.568   9.839  0.3813 -1.5884  1.0168
17946SOL    HW256092   3.325   8.450   9.750  1.6996 -0.7531 -0.6590
17947SOL     OW56093   9.609   6.758   3.531 -0.4780  0.8094 -1.1433
17947SOL    HW156094   9.671   6.699   3.489  1.3100  1.9453 -0.2068
17947SOL    HW256095   9.573   6.707   3.604  0.2843  0.5299 -0.9559
17948SOL     OW56096   9.119   1.501   6.803 -0.4027  0.5697 -0.2013
17948SOL    HW156097   9.191   1.536   6.751 -2.6866  2.8444 -2.1461
17948SOL    HW256098   9.125   1.547   6.887  2.1007 -1.5795  0.9073
17949SOL     OW56099   1.878  10.565   3.630 -0.3218 -0.2250 -0.0419
17949SOL    HW156100   1.920  10.635   3.680 -0.3187  0.3842 -0.8674
17949SOL    HW256101   1.784  10.577   3.648 -0.6695  2.0925 -2.6554
17950SOL     OW56102   3.594   0.832   4.712  0.0211 -0.4933  0.5163
17950SOL    HW156103   3.600   0.801   4.622  0.9081  0.6258  0.1670
17950SOL    HW256104   3.528   0.776   4.752 -0.8935 -0.5694 -1.0165
17951SOL     OW56105   0.458   2.297   8.503  0.3336  0.5159 -0.1083
17951SOL    HW156106   0.411   2.234   8.449 -0.5590 -1.7293  3.0110
17951SOL    HW256107   0.405   2.377   8.499  0.0690  0.2789 -2.1051
17952SOL     OW56108   6.996   5.792   1.452 -0.3151 -0.5339 -0.0314
17952SOL    HW156109   7.068   5.740   1.415 -1.0735 -0.6719 -1.3887
17952SOL    HW256110   7.039   5.860   1.502  0.7815 -0.5250 -0.9420
17953SOL     OW56111   0.080   0.054   9.390  0.0736 -0.1539  1.0232
17953SOL    HW156112   0.146  -0.016   9.390 -1.4168 -1.6618 -0.7002
17953SOL    HW256113   0.123   0.127   9.345  0.3851 -1.3532 -0.7355
17954SOL     OW56114   0.957   3.455   4.220  0.2368  0.2754 -0.2239
17954SOL    HW156115   1.051   3.471   4.210  0.5350 -0.9831  0.4148
17954SOL    HW256116   0.950   3.360   4.230 -0.8416  0.5806  2.5750
17955SOL     OW56117   9.536  10.308   0.431 -0.2266 -0.0746 -0.1031
17955SOL    HW156118   9.585  10.267   0.360  0.3394  0.1150  0.1764
17955SOL    HW256119   9.453  10.335   0.390 -0.2324 -0.6691 -0.5039
17956SOL     OW56120   5.887   1.164   3.358  0.3270 -0.0524  0.2651
17956SOL    HW156121   5.971   1.182   3.399  0.9339 -2.2650  0.1228
17956SOL    HW256122   5.828   1.148   3.432 -0.0652  1.7146  0.3711
17957SOL     OW56123   1.640   1.266   2.359 -0.1404 -0.2480 -0.2010
17957SOL    HW156124   1.582   1.222   2.296 -0.1312 -1.2518  0.4647
17957SOL    HW256125   1.609   1.356   2.361  1.1317  0.3428 -3.1328
17958SOL     OW56126   5.595  10.363   1.392 -0.0861  0.1314 -0.0833
17958SOL    HW156127   5.643  10.357   1.475 -3.8669  1.6555  2.4622
17958SOL    HW256128   5.530  10.293   1.396  0.7643 -0.9718 -2.7577
17959SOL     OW56129   3.074   2.436   2.665  1.4410  0.3754 -0.2282
17959SOL    HW156130   3.014   2.372   2.628  0.5395  0.0941  1.6111
17959SOL    HW256131   3.161   2.398   2.651  1.3608  1.0966 -3.5060
17960SOL     OW56132   5.543   4.818   4.786  0.2572  0.2587  0.3617
17960SOL    HW156133   5.579   4.841   4.872  0.8998 -1.0698  0.4757
17960SOL    HW256134   5.619   4.788   4.736 -0.4054 -0.8475 -0.0114
17961SOL     OW56135   0.618   3.734   0.896 -0.3262 -0.2233  0.3047
17961SOL    HW156136   0.547   3.746   0.959 -0.9142 -0.4142 -0.3094
17961SOL    HW256137   0.573   3.717   0.813  0.3893  1.8162 -0.5608
17962SOL     OW56138   3.509   1.407   0.220  0.4262 -0.3742 -0.5095
17962SOL    HW156139   3.453   1.333   0.200 -0.3439 -0.3629  1.4870
17962SOL    HW256140   3.523   1.404   0.314 -0.5514  2.6203 -0.1409
17963SOL     OW56141   4.545   7.784   2.519 -0.4833 -0.1122 -0.4876
17963SOL    HW156142   4.482   7.744   2.579 -1.6729  2.9490  0.4814
17963SOL    HW256143   4.614   7.819   2.575  0.6313 -0.9105 -1.3146
17964SOL     OW56144   7.162   3.487   6.764 -0.2253  0.2721  0.1454
17964SOL    HW156145   7.233   3.551   6.771  1.4914 -1.4927 -0.3770
17964SOL    HW256146   7.152   3.453   6.853 -0.3714  0.4560  0.2008
17965SOL     OW56147   0.390   8.297  10.604  0.6732 -0.0252  0.4410
17965SOL    HW156148   0.426   8.384  10.620 -0.4776  0.3513  1.1390
17965SOL    HW256149   0.414   8.278  10.513  2.2913  0.3238  0.7621
17966SOL     OW56150   2.710   3.773   7.120  0.1701 -0.0622  0.9009
17966SOL    HW156151   2.686   3.715   7.048  0.7041  1.7113 -0.7825
17966SOL    HW256152   2.778   3.725   7.168 -0.9833 -1.7394  0.9389
17967SOL     OW56153   7.301   8.025   2.073 -0.0057 -0.6368 -0.1610
17967SOL    HW156154   7.309   8.020   1.977  1.7843 -1.6440  0.0007
17967SOL    HW256155   7.322   8.116   2.093 -2.4435  0.1587 -0.8282
17968SOL     OW56156  10.292   4.049   0.530 -0.0292  0.3981 -0.2919
17968SOL    HW156157  10.278   3.961   0.494  0.8208 -0.9772  2.4555
17968SOL    HW256158  10.387   4.058   0.535 -0.1118  0.8253  0.8305
17969SOL     OW56159   9.756   8.880   7.761 -0.0524 -0.8220  0.1282
17969SOL    HW156160   9.763   8.798   7.809 -0.2689 -0.2144  1.2312
17969SOL    HW256161   9.667   8.880   7.725 -0.0742 -1.0433  0.1836
17970SOL     OW56162   1.534   3.218   5.259 -0.2305 -0.1559 -0.4554
17970SOL    HW156163   1.604   3.280   5.277  0.5485 -1.1339  0.0122
17970SOL    HW256164   1.477   3.263   5.197  0.7738  0.6950 -0.7886
17971SOL     OW56165   2.332   6.490   1.178  0.0169 -0.0441 -0.0561
17971SOL    HW156166   2.402   6.483   1.242 -2.0622 -1.7823  2.1937
17971SOL    HW256167   2.255   6.515   1.229 -1.8149 -1.8489 -1.7488
17972SOL     OW56168   9.649   9.921   6.494 -0.7205  0.3235 -0.1496
17972SOL    HW156169   9.665   9.887   6.406 -2.6387 -3.1082  0.6588
17972SOL    HW256170   9.560   9.957   6.490 -0.2251  1.6340  0.0506
17973SOL     OW56171   0.004   3.989  10.425  0.1220  0.8281  0.1401
17973SOL    HW156172  -0.001   3.952  10.513  0.3040 -0.3561 -0.3418
17973SOL    HW256173  -0.013   4.083  10.438 -0.2844  0.5977  1.3761
17974SOL     OW56174   2.452   4.553   1.403 -0.2524 -0.1736 -0.2198
17974SOL    HW156175   2.506   4.604   1.341 -0.4244  0.4989  0.1715
17974SOL    HW256176   2.493   4.569   1.488 -1.2349  0.6085  0.1350
17975SOL     OW56177   0.439   1.843   0.260 -0.3191  0.5351  0.1079
17975SOL    HW156178   0.431   1.922   0.206  0.2298  2.2330  2.3767
17975SOL    HW256179   0.373   1.853   0.328 -0.9440 -1.5174 -0.1242
17976SOL     OW56180   9.615   3.140   9.017 -0.5614  0.2031  0.8032
17976SOL    HW156181   9.704   3.164   9.043 -0.0768  0.2134 -0.7205
17976SOL    HW256182   9.582   3.218   8.971 -0.5207 -0.5327 -0.5390
17977SOL     OW56183  10.203   7.192   6.968 -0.2116 -0.1106  0.5286
17977SOL    HW156184  10.108   7.183   6.973 -0.0847 -0.9208  3.0453
17977SOL    HW256185  10.221   7.278   7.006  0.0508  0.1400 -0.1571
17978SOL     OW56186   3.087   5.651   7.333  0.4857  0.3870  0.5112
17978SOL    HW156187   3.172   5.637   7.373  1.0316  1.2883 -0.3012
17978SOL    HW256188   3.103   5.714   7.262 -0.4040 -1.3075 -1.2858
17979SOL     OW56189   2.302   7.831   4.859  0.0893 -0.1385 -0.1738
17979SOL    HW156190   2.336   7.805   4.773 -0.0169 -1.1696  0.0864
17979SOL    HW256191   2.352   7.909   4.882 -0.9376  1.1081 -1.8677
17980SOL     OW56192   9.665   4.082   8.025 -0.2522  0.0481 -0.1464
17980SOL    HW156193   9.700   3.997   7.999 -2.8383 -0.8722 -0.9127
17980SOL    HW256194   9.728   4.115   8.089  1.7997 -1.5641 -1.2193
17981SOL     OW56195   2.185   2.423   5.286 -0.2212  0.4395 -0.6222
17981SOL    HW156196   2.225   2.472   5.215 -1.0021 -0.3545 -1.6451
17981SOL    HW256197   2.169   2.488   5.355  0.7995  1.1656 -1.0500
17982SOL     OW56198   8.638   6.440   5.445  0.3974 -0.6763 -0.3096
17982SOL    HW156199   8.698   6.424   5.517  0.3203 -0.1984 -0.1362
17982SOL    HW256200   8.602   6.354   5.425  0.2429 -0.7820  0.3800
17983SOL     OW56201   3.361   1.686   1.017  0.4779 -0.9483  0.3560
17983SOL    HW156202   3.427   1.701   1.086 -1.2314 -1.6316  2.2408
17983SOL    HW256203   3.327   1.598   1.036 -3.1727  0.5541  1.4658
17984SOL     OW56204   9.860   5.437  10.595 -0.2650 -0.8350 -0.0712
17984SOL    HW156205   9.905   5.354  10.581 -2.0740 -2.5253  3.0396
17984SOL    HW256206   9.907   5.479  10.667 -1.2987 -0.8168  0.6267
17985SOL     OW56207   8.936   2.809  10.069  0.0722 -0.5903  0.0302
17985SOL    HW156208   8.863   2.857  10.109 -1.4603 -0.7056 -2.4086
17985SOL    HW256209   8.977   2.872  10.009  0.2893 -1.2898 -0.5758
17986SOL     OW56210   4.939   1.271   1.142 -0.6159 -0.2245 -0.5215
17986SOL    HW156211   4.871   1.288   1.207 -0.5436 -2.2182  0.1511
17986SOL    HW256212   5.019   1.263   1.193 -0.5936 -2.0394 -0.7657
17987SOL     OW56213  10.283   3.028   9.980  0.2817  0.0753 -0.1455
17987SOL    HW156214  10.248   3.112  10.010  0.9022 -0.0239  0.9204
17987SOL    HW256215  10.376   3.045   9.964  0.0462  0.0342 -1.7529
17988SOL     OW56216   7.999   3.523   2.294 -0.5325  0.1453 -0.4452
17988SOL    HW156217   7.999   3.613   2.326 -1.3694 -0.1165  0.3639
17988SOL    HW256218   7.974   3.530   2.202  0.9603  0.8473 -0.8156
17989SOL     OW56219  10.109   2.356   2.210  0.4792 -0.8513 -0.6748
17989SOL    HW156220  10.066   2.385   2.290  4.5084 -0.8185  1.7624
17989SOL    HW256221  10.063   2.403   2.140 -2.9037 -0.4587  1.5447
17990SOL     OW56222   2.308   2.477   8.384 -0.2540 -0.0530 -0.0508
17990SOL    HW156223   2.257   2.533   8.442 -0.2695 -0.8336  0.7074
17990SOL    HW256224   2.292   2.513   8.297 -0.5668  0.8786  0.3733
17991SOL     OW56225  10.075   2.693   0.254  0.0447 -0.2035 -0.3865
17991SOL    HW156226   9.981   2.680   0.240  0.3366 -2.2706 -0.6851
17991SOL    HW256227  10.115   2.612   0.224  1.6550 -0.7481  2.8192
17992SOL     OW56228   0.087   4.540   7.059 -0.1022  0.3950  0.2103
17992SOL    HW156229   0.121   4.629   7.048 -0.5290  0.4149 -1.1490
17992SOL    HW256230  -0.008   4.551   7.065 -0.2742 -0.0344 -1.2660
17993SOL     OW56231   0.189   9.928  10.303 -0.5412 -0.4320  0.3753
17993SOL    HW156232   0.239   9.973  10.234 -1.7740  0.6864  0.1592
17993SOL    HW256233   0.243   9.853  10.327  0.7319  0.1376 -0.5820
17994SOL     OW56234   1.002   4.290   1.307  0.2686  0.3389  0.6745
17994SOL    HW156235   1.036   4.369   1.266  0.3373  0.9717  1.9037
17994SOL    HW256236   0.934   4.259   1.247  0.7824  0.8749 -0.2083
17995SOL     OW56237   0.892   2.040   1.807 -0.3127  0.1677  0.0541
17995SOL    HW156238   0.798   2.046   1.791 -0.1560 -1.0064 -1.4982
17995SOL    HW256239   0.932   2.056   1.721  0.8727 -0.2151  0.5175
17996SOL     OW56240   0.385   1.087   9.045  0.5086 -0.1707  0.3588
17996SOL    HW156241   0.464   1.038   9.018  0.1231  0.1400 -1.4565
17996SOL    HW256242   0.407   1.178   9.027 -0.0470 -0.0310  0.3902
17997SOL     OW56243   2.412   9.839   9.317 -0.4931  0.2546 -0.6838
17997SOL    HW156244   2.460   9.921   9.325 -0.8845  0.3266  3.0440
17997SOL    HW256245   2.330   9.854   9.365 -1.2505 -1.8349 -1.2133
17998SOL     OW56246   5.192   8.441   8.299 -0.1879  0.0296  0.1532
17998SOL    HW156247   5.172   8.533   8.318  1.3921  0.1425  1.5873
17998SOL    HW256248   5.168   8.394   8.379 -2.3583 -1.0996 -1.0718
17999SOL     OW56249   3.227   6.534   9.814  0.1398  0.4605 -0.2791
17999SOL    HW156250   3.171   6.491   9.750  0.8120 -0.6382 -0.1555
17999SOL    HW256251   3.302   6.565   9.763  0.1551  0.5579 -0.1980
18000SOL     OW56252   8.532   6.166   8.291  0.1094 -0.6036  0.0660
18000SOL    HW156253   8.620   6.163   8.252  0.2129 -0.5429  0.2898
18000SOL    HW256254   8.495   6.248   8.260  0.0046 -0.7833 -0.2950
18001SOL     OW56255   6.803   4.866   6.797 -0.1504  0.0281  0.3984
18001SOL    HW156256   6.739   4.797   6.815  0.4043 -1.0337 -1.4595
18001SOL    HW256257   6.859   4.867   6.875 -0.1780 -1.6423  0.4683
18002SOL     OW56258   3.579   4.054   6.546 -0.2433 -0.0198 -0.4892
18002SOL    HW156259   3.496   4.090   6.515 -0.8483 -1.0213 -0.0706
18002SOL    HW256260   3.569   3.959   6.538  0.4080 -0.2123  0.6754
18003SOL     OW56261   4.723   7.557   8.181 -0.0790  0.4147  0.3230
18003SOL    HW156262   4.691   7.600   8.261 -1.4382 -0.4062  0.2524
18003SOL    HW256263   4.709   7.463   8.198  3.7907 -0.2006  0.9216
18004SOL     OW56264   2.964   4.268   9.844  1.0219  0.0241  0.0951
18004SOL    HW156265   3.052   4.293   9.871  0.9839  1.6281 -1.1236
18004SOL    HW256266   2.912   4.347   9.856  0.5514  0.2091 -2.5410
18005SOL     OW56267   8.086   2.156   3.378  0.6831 -0.1477 -0.1418
18005SOL    HW156268   8.060   2.208   3.454  1.9817 -0.6230  0.6627
18005SOL    HW256269   8.107   2.221   3.311  1.7870  0.3883  0.6803
18006SOL     OW56270   1.684   7.074   8.594  0.8273 -0.5308  0.2096
18006SOL    HW156271   1.715   7.106   8.679  2.1465 -0.3552 -0.3142
18006SOL    HW256272   1.588   7.077   8.601  0.8756  1.6585  0.9113
18007SOL     OW56273   9.864   2.571   2.387  0.4091  0.0041 -0.7335
18007SOL    HW156274   9.936   2.574   2.450  0.5494  0.0967 -0.8973
18007SOL    HW256275   9.791   2.533   2.436  1.0224 -1.5850 -1.0182
18008SOL     OW56276   8.172   7.021   5.137 -0.1194  0.5228  0.1089
18008SOL    HW156277   8.264   7.022   5.112 -0.2171 -0.4992 -0.3332
18008SOL    HW256278   8.125   7.011   5.054 -0.5685 -0.2590  0.4472
18009SOL     OW56279   1.847   7.977   4.432  0.0913  0.4916  0.4397
18009SOL    HW156280   1.799   7.921   4.493  1.5847 -1.0056  0.3226
18009SOL    HW256281   1.797   7.973   4.350 -0.1150 -0.2486  0.5986
18010SOL     OW56282   3.389   0.160   2.567 -0.0495 -0.7133  0.4984
18010SOL    HW156283   3.437   0.242   2.552 -0.8624 -0.3660 -0.3167
18010SOL    HW256284   3.453   0.091   2.552  0.5153 -0.2344  0.6857
18011SOL     OW56285   1.392   8.845   3.811 -0.1202 -0.5451  0.2271
18011SOL    HW156286   1.447   8.788   3.865  1.4968  0.1943 -0.5595
18011SOL    HW256287   1.339   8.893   3.874  0.6434 -0.7838  1.0810
18012SOL     OW56288   4.498   1.781   4.542  0.1629  0.3700  0.5922
18012SOL    HW156289   4.555   1.845   4.585  1.0489  0.0918 -0.1256
18012SOL    HW256290   4.540   1.765   4.457  0.1706 -1.4305  0.8868
18013SOL     OW56291   9.960   5.435   0.656  0.5861 -0.4766 -0.0771
18013SOL    HW156292   9.865   5.446   0.654  0.6153  0.3855  1.5309
18013SOL    HW256293   9.994   5.522   0.681  1.9026 -0.3988 -1.9497
18014SOL     OW56294   1.597  10.118   3.486 -0.5110 -0.2021  0.1842
18014SOL    HW156295   1.608  10.070   3.568  0.7067  0.9296  0.7304
18014SOL    HW256296   1.556  10.056   3.426 -1.7701 -0.9412  1.7514
18015SOL     OW56297   0.831   4.696   4.202 -0.1282  0.5068 -0.3931
18015SOL    HW156298   0.756   4.681   4.144 -0.5550 -0.6275  0.4289
18015SOL    HW256299   0.884   4.760   4.155 -1.0892  0.5560 -1.4661
18016SOL     OW56300   4.370   8.939   7.536  0.2735 -0.1288 -0.5025
18016SOL    HW156301   4.395   8.955   7.445 -0.5676  0.2235 -0.6850
18016SOL    HW256302   4.297   8.878   7.530  0.3742 -0.2935 -0.0463
18017SOL     OW56303   4.491   1.884   2.884 -0.8893  0.2448  0.1713
18017SOL    HW156304   4.405   1.852   2.855 -0.8325  0.5805 -0.3790
18017SOL    HW256305   4.531   1.920   2.805 -0.3779  0.3970  0.4965
18018SOL     OW56306   9.417   5.257   6.422 -0.2135  0.0315  0.5337
18018SOL    HW156307   9.346   5.319   6.434 -0.8430 -1.0187  2.6493
18018SOL    HW256308   9.374   5.174   6.403  0.5347 -0.2939  0.1668
18019SOL     OW56309   8.217   9.947   2.025 -0.0786  0.3335 -0.0745
18019SOL    HW156310   8.305   9.954   2.061  0.4016  0.2498 -1.1957
18019SOL    HW256311   8.228   9.896   1.944 -0.6894  2.6579 -1.7290
18020SOL     OW56312   0.009   9.832   7.759  0.2590  0.0520  0.8483
18020SOL    HW156313   0.097   9.821   7.796  1.1129  0.7281 -0.8734
18020SOL    HW256314  -0.006   9.927   7.762 -0.3741 -0.0506  1.0298
18021SOL     OW56315   4.821   5.894   6.076  0.8362 -0.0268  0.6987
18021SOL    HW156316   4.902   5.900   6.024  1.2305  0.8333  1.3848
18021SOL    HW256317   4.795   5.985   6.089 -1.1096 -0.2945 -0.8100
18022SOL     OW56318   6.434   6.286   5.906 -0.4959 -0.1716 -0.3643
18022SOL    HW156319   6.492   6.223   5.864  1.3538  0.3140  1.3251
18022SOL    HW256320   6.423   6.355   5.841  2.4908  0.6882 -0.1264
18023SOL     OW56321   6.974   9.939   4.075 -0.0704  0.1097 -0.5873
18023SOL    HW156322   7.053   9.936   4.129 -0.0608 -1.5078 -0.6539
18023SOL    HW256323   6.958   9.848   4.049 -0.3591  0.7575 -2.9153
18024SOL     OW56324  10.260   1.914   8.945  0.6301 -0.0105 -0.4468
18024SOL    HW156325  10.356   1.907   8.940  0.6553  0.9288 -2.2245
18024SOL    HW256326  10.242   2.003   8.913 -0.7309  0.7148  2.0443
18025SOL     OW56327   3.805   2.497   7.864  0.0038 -0.1535  1.1046
18025SOL    HW156328   3.795   2.592   7.860 -0.2374 -0.2140 -0.8182
18025SOL    HW256329   3.716   2.463   7.851  0.3730 -0.6060 -0.5722
18026SOL     OW56330   4.348   9.189   0.084 -0.0163  0.1325  0.0970
18026SOL    HW156331   4.380   9.273   0.052  0.6258 -0.8235 -1.9282
18026SOL    HW256332   4.400   9.172   0.163  0.3920  1.2463  0.0862
18027SOL     OW56333   8.526   2.299   7.534  0.0630 -0.0492 -0.2924
18027SOL    HW156334   8.537   2.335   7.445 -1.8173 -2.6824 -1.7349
18027SOL    HW256335   8.590   2.228   7.539 -1.5829 -1.6400 -0.6630
18028SOL     OW56336  10.243   3.273   0.261 -0.5711  0.5570  0.1359
18028SOL    HW156337  10.296   3.212   0.210 -0.4423  1.3400 -0.6988
18028SOL    HW256338  10.180   3.309   0.198 -2.4400 -0.7132  1.2267
18029SOL     OW56339  10.317   1.891   5.589  0.3673 -0.0405 -0.4508
18029SOL    HW156340  10.302   1.951   5.662  1.6026  1.6854 -1.5340
18029SOL    HW256341  10.370   1.942   5.527  2.9408 -2.7639 -0.7110
18030SOL     OW56342   6.393   0.373   5.378 -0.1860  0.1518  0.0318
18030SOL    HW156343   6.416   0.282   5.393 -0.2871 -0.0328 -0.8913
18030SOL    HW256344   6.319   0.390   5.436  0.8689  0.1379  1.4415
18031SOL     OW56345   4.966   4.284   5.938  0.1298 -0.1914  0.0957
18031SOL    HW156346   4.947   4.310   5.848  2.1267 -0.1868 -0.3768
18031SOL    HW256347   4.880   4.266   5.976 -0.9297  1.8851 -1.1437
18032SOL     OW56348   4.688   1.946   7.368 -0.8538  0.2491 -0.1225
18032SOL    HW156349   4.612   1.961   7.312 -1.1118  2.1520  0.6975
18032SOL    HW256350   4.652   1.911   7.449 -0.7812  0.4908  0.0130
18033SOL     OW56351   7.753   3.676   1.643 -0.1588  0.0302 -0.1622
18033SOL    HW156352   7.658   3.668   1.635 -0.2199  1.3302 -1.0428
18033SOL    HW256353   7.781   3.711   1.558  1.2368 -1.2675 -0.2764
18034SOL     OW56354   9.290  10.358   3.000 -0.4307 -0.0407  0.3321
18034SOL    HW156355   9.345  10.346   2.923 -0.4329 -1.2587  0.5063
18034SOL    HW256356   9.296  10.452   3.019  1.3610 -0.0953  0.2036
18035SOL     OW56357   9.025   8.836   9.878 -0.4360 -0.3395 -0.0751
18035SOL    HW156358   9.096   8.894   9.850 -1.1654  0.7879  0.3351
18035SOL    HW256359   8.947   8.890   9.872 -0.9880 -0.9058  1.4913
18036SOL     OW56360   3.321   4.840   7.767 -0.0901 -0.1605 -0.0157
18036SOL    HW156361   3.299   4.861   7.858  1.4266  1.2163  0.0672
18036SOL    HW256362   3.320   4.924   7.721 -0.2605 -0.7632 -1.1550
18037SOL     OW56363   5.666   6.528   3.874 -0.4466 -0.3853  0.0207
18037SOL    HW156364   5.759   6.509   3.862 -0.1590  0.8057  0.2368
18037SOL    HW256365   5.664   6.614   3.916 -1.5977 -1.0777  1.4919
18038SOL     OW56366   1.128  10.396   1.506 -0.2610  0.7943  0.4075
18038SOL    HW156367   1.179  10.457   1.559  1.4631 -0.9642  0.8620
18038SOL    HW256368   1.147  10.422   1.416  1.8033 -0.0667  0.5607
18039SOL     OW56369   1.455  10.000   1.745 -0.3482  0.1532 -0.0689
18039SOL    HW156370   1.383   9.948   1.711 -0.9838  0.1266  1.2307
18039SOL    HW256371   1.413  10.075   1.788  0.3991  0.2892  0.4554
18040SOL     OW56372   0.450   2.601   4.677  0.2310  0.0790  0.7553
18040SOL    HW156373   0.486   2.635   4.759 -0.7373  0.5963  0.9826
18040SOL    HW256374   0.527   2.584   4.623  0.8302  1.4096  1.1295
18041SOL     OW56375   4.946   8.626   4.696 -0.1429  0.0106 -0.0268
18041SOL    HW156376   4.954   8.598   4.787 -2.8911  1.3753  0.7461
18041SOL    HW256377   4.891   8.559   4.655 -1.0415  0.6791  0.0431
18042SOL     OW56378   8.565   7.128   1.033  0.3292  0.2482 -0.5286
18042SOL    HW156379   8.632   7.089   1.089 -2.0774 -0.3783  2.1426
18042SOL    HW256380   8.575   7.222   1.045  1.2623  0.1876 -0.8193
18043SOL     OW56381   9.661   3.387   2.083 -0.6888 -0.0294  0.6162
18043SOL    HW156382   9.609   3.320   2.038  0.4490 -1.0528  0.7836
18043SOL    HW256383   9.683   3.348   2.167 -0.7032  0.9007  1.0701
18044SOL     OW56384   4.783   1.908  10.018  0.1921 -0.7479 -0.1669
18044SOL    HW156385   4.700   1.953  10.035  1.1789  0.3937  2.1875
18044SOL    HW256386   4.820   1.955   9.943 -0.3734  0.1344  0.0810
18045SOL     OW56387   4.726   5.748   3.392  0.4957 -0.3799 -0.1166
18045SOL    HW156388   4.811   5.729   3.354  0.2329 -3.0401  0.3801
18045SOL    HW256389   4.745   5.790   3.476  1.2331  0.5441 -0.7293
18046SOL     OW56390   2.691   6.899   3.841 -0.4117 -0.2075 -0.0004
18046SOL    HW156391   2.739   6.845   3.903 -1.2235 -0.8472  0.0951
18046SOL    HW256392   2.647   6.836   3.783 -0.0635  0.3689 -0.9251
18047SOL     OW56393   4.228   2.889   5.866  1.0245 -0.2628  0.0315
18047SOL    HW156394   4.147   2.933   5.837  1.1613  1.1606  1.6334
18047SOL    HW256395   4.205   2.852   5.951  1.6664 -1.1242 -0.1635
18048SOL     OW56396   8.712   3.981   4.373  0.3444  0.1204  0.1633
18048SOL    HW156397   8.700   3.962   4.466  0.0998 -1.5411 -0.1713
18048SOL    HW256398   8.777   4.051   4.371  0.1785  0.3486  1.5840
18049SOL     OW56399   9.690   6.150   0.912  0.4726  0.0463  0.0498
18049SOL    HW156400   9.747   6.217   0.876  1.9746 -1.4414 -0.4933
18049SOL    HW256401   9.693   6.165   1.007  0.2664  1.1029 -0.0957
18050SOL     OW56402   3.518   0.189   3.803  0.0606  0.2016 -0.1048
18050SOL    HW156403   3.549   0.254   3.866  0.2487 -0.9081  0.9730
18050SOL    HW256404   3.480   0.241   3.732  0.7516  1.4943  0.4415
18051SOL     OW56405   9.110   3.297   1.206  0.2962 -0.2673  0.0747
18051SOL    HW156406   9.122   3.226   1.142 -0.3582 -1.2251  0.9673
18051SOL    HW256407   9.191   3.298   1.257  0.0431 -0.8464  0.4977
18052SOL     OW56408   3.456   3.248   0.816  0.0598 -0.4828  0.1248
18052SOL    HW156409   3.408   3.178   0.861  0.0536 -0.2378  0.5012
18052SOL    HW256410   3.539   3.207   0.790  0.3132 -0.4609  0.8871
18053SOL     OW56411   7.526   8.524   0.818 -0.2487  0.0259 -0.4133
18053SOL    HW156412   7.472   8.599   0.845  0.8283  1.5067 -2.1535
18053SOL    HW256413   7.586   8.511   0.892 -1.8875 -0.6508  0.8774
18054SOL     OW56414  10.204   2.103   6.822  0.1602 -0.0735 -0.3004
18054SOL    HW156415  10.244   2.021   6.793  1.8299  0.1108  1.3059
18054SOL    HW256416  10.204   2.098   6.917 -3.0594  0.2998 -0.1619
18055SOL     OW56417  10.556   1.755   5.688  0.9106 -0.0455 -0.1392
18055SOL    HW156418  10.530   1.666   5.663  0.5379  0.4123 -1.4920
18055SOL    HW256419  10.490   1.811   5.649  2.6606  1.0053 -1.7991
18056SOL     OW56420   5.332   6.048   2.364  0.2265  0.0529  0.1819
18056SOL    HW156421   5.398   6.105   2.403 -0.0307  1.5913 -1.5006
18056SOL    HW256422   5.379   5.970   2.337  1.0812  0.5530  0.2095
18057SOL     OW56423   7.954   4.382   2.118  0.5066  0.1215  0.1673
18057SOL    HW156424   8.013   4.336   2.058  0.1754 -0.4217  0.2526
18057SOL    HW256425   7.872   4.389   2.071  0.5438  0.6137  0.1664
18058SOL     OW56426   5.792   0.131   8.572  0.3239 -0.1925 -0.6678
18058SOL    HW156427   5.807   0.038   8.590 -0.1407 -0.2531 -0.5804
18058SOL    HW256428   5.736   0.131   8.495  0.4290  0.0212 -0.7444
18059SOL     OW56429   7.745   1.165   6.891 -0.4525  0.1835 -0.2509
18059SOL    HW156430   7.679   1.116   6.939  0.3594  0.5273  1.2855
18059SOL    HW256431   7.790   1.100   6.838 -0.9935 -0.3122 -0.1067
18060SOL     OW56432   9.216   1.635   4.523  0.4885 -0.7469  0.2159
18060SOL    HW156433   9.153   1.585   4.472 -1.6514  1.4620  0.5008
18060SOL    HW256434   9.301   1.615   4.484 -0.7137 -1.5262 -2.1487
18061SOL     OW56435   8.162   4.793   9.642 -0.2465  0.4351  0.0518
18061SOL    HW156436   8.222   4.749   9.582 -0.4692 -2.0042  1.4960
18061SOL    HW256437   8.096   4.727   9.663 -1.5612  1.9901  1.0771
18062SOL     OW56438   4.841   8.233  10.651 -0.1017 -0.0134  0.3057
18062SOL    HW156439   4.930   8.248  10.683 -0.0339 -2.0149  1.2009
18062SOL    HW256440   4.853   8.200  10.562  0.0685 -0.4044  0.4707
18063SOL     OW56441   0.416   2.781   0.869  0.1856  0.1124 -0.1548
18063SOL    HW156442   0.331   2.750   0.899  0.3464  1.0057  1.3332
18063SOL    HW256443   0.431   2.735   0.786 -1.1537 -1.0316  0.2036
18064SOL     OW56444   9.397   3.770   5.393 -0.5419  0.1815 -0.4473
18064SOL    HW156445   9.372   3.860   5.414 -1.7671 -0.0456 -0.8796
18064SOL    HW256446   9.315   3.725   5.378 -0.0739 -1.4769  1.4937
18065SOL     OW56447   3.213   5.759   4.949 -0.1037  0.4384 -0.4245
18065SOL    HW156448   3.157   5.834   4.928  0.4639  0.6220 -1.3417
18065SOL    HW256449   3.278   5.757   4.879  2.3287  1.4936  1.6485
18066SOL     OW56450   4.675   3.383   3.964 -0.3957  0.4866 -0.6777
18066SOL    HW156451   4.679   3.441   3.888  0.2357  2.1855  0.6061
18066SOL    HW256452   4.763   3.346   3.971 -0.5419  0.0772 -0.9386
18067SOL     OW56453   1.003   4.322   1.579 -0.3143  0.1099 -0.2032
18067SOL    HW156454   1.000   4.315   1.484 -1.0143 -1.2831 -0.1020
18067SOL    HW256455   0.945   4.395   1.600  1.1876  1.5748 -0.9137
18068SOL     OW56456   8.439   0.672   0.971  0.1341 -0.4485  0.2005
18068SOL    HW156457   8.528   0.658   0.938  0.0793  0.0405 -0.1655
18068SOL    HW256458   8.408   0.749   0.923 -0.2373 -0.2054  0.8229
18069SOL     OW56459   5.264   3.048   7.818 -0.6159  0.3272  0.0343
18069SOL    HW156460   5.207   2.972   7.821 -0.2398  0.0331 -0.2238
18069SOL    HW256461   5.251   3.086   7.731  1.7554 -1.4515 -1.2073
18070SOL     OW56462   0.327   6.851   7.093  0.0643 -0.2148  0.2782
18070SOL    HW156463   0.350   6.777   7.149 -4.1099 -2.6500 -0.8140
18070SOL    HW256464   0.256   6.895   7.139 -0.6142  0.2796 -1.1975
18071SOL     OW56465   3.153   4.118   0.642  0.3405  0.2457 -0.2069
18071SOL    HW156466   3.197   4.071   0.571  1.6708  2.0969 -0.6678
18071SOL    HW256467   3.097   4.182   0.598 -1.6734 -0.9987  0.4096
18072SOL     OW56468   9.749   6.056   9.586 -0.0527  0.6950  0.4073
18072SOL    HW156469   9.793   6.141   9.586 -0.0291  0.7255  2.5765
18072SOL    HW256470   9.755   6.026   9.676 -1.2858 -0.9902 -0.0338
18073SOL     OW56471   5.244   8.923   0.297  0.3326 -0.0441  0.0356
18073SOL    HW156472   5.275   9.005   0.259 -0.8002  0.1977 -0.4324
18073SOL    HW256473   5.319   8.888   0.344  0.8807  1.1855  0.1168
18074SOL     OW56474   0.877   1.783   6.276 -0.8487 -0.1130  0.7274
18074SOL    HW156475   0.853   1.834   6.354  1.9749 -0.3061  1.8140
18074SOL    HW256476   0.927   1.843   6.222 -0.2862 -0.8032  0.4628
18075SOL     OW56477   5.579   2.177   8.186 -0.1749 -0.2737 -0.1875
18075SOL    HW156478   5.494   2.167   8.143 -0.3417 -1.7983  0.3996
18075SOL    HW256479   5.642   2.186   8.115 -0.7670  0.2324 -0.6481
18076SOL     OW56480   0.876   3.623   2.800  0.0215  0.0882 -0.1228
18076SOL    HW156481   0.843   3.677   2.728  1.3576 -0.8380 -1.4927
18076SOL    HW256482   0.931   3.681   2.851 -0.4358  0.6041 -0.2112
18077SOL     OW56483   2.406   3.307   2.972  0.4669 -0.2395  0.3309
18077SOL    HW156484   2.394   3.300   2.877 -0.5420 -1.6801  0.5296
18077SOL    HW256485   2.479   3.248   2.991 -0.5647 -1.4753  0.6402
18078SOL     OW56486   6.904   5.031   4.502  0.0299  0.0225  0.3504
18078SOL    HW156487   6.984   5.040   4.450 -0.2805 -1.9520 -0.5436
18078SOL    HW256488   6.840   5.087   4.456 -0.1615 -1.4710 -1.3143
18079SOL     OW56489   4.134   4.018   4.272  0.2050 -0.0547  0.2739
18079SOL    HW156490   4.181   3.966   4.338  0.8310  1.2760  0.9177
18079SOL    HW256491   4.183   4.099   4.267 -1.1467  0.7601 -0.1941
18080SOL     OW56492   8.290   3.303   8.366 -0.2892 -0.0285  0.0771
18080SOL    HW156493   8.313   3.277   8.277 -0.1697  0.5073 -0.0522
18080SOL    HW256494   8.219   3.366   8.355  0.1134  0.4722  0.3300
18081SOL     OW56495   8.903   8.294   7.959 -0.0544 -0.1946 -0.2710
18081SOL    HW156496   8.954   8.374   7.943 -1.3588  0.4546 -1.4097
18081SOL    HW256497   8.961   8.223   7.931  0.8850  0.3905  0.1469
18082SOL     OW56498   0.040   9.429   5.338 -0.1344 -0.2396 -0.0581
18082SOL    HW156499   0.059   9.348   5.293 -1.0627 -0.7741  0.4691
18082SOL    HW256500   0.084   9.497   5.287 -1.1317 -0.8121 -1.7633
18083SOL     OW56501   0.675   1.886  10.138 -0.2668  0.1249 -0.0972
18083SOL    HW156502   0.687   1.955  10.074 -1.7293 -0.5070 -1.0987
18083SOL    HW256503   0.581   1.881  10.152 -0.3211 -2.2887 -0.8054
18084SOL     OW56504   7.819   9.179   4.486  0.4544 -0.3249  0.3376
18084SOL    HW156505   7.791   9.260   4.529 -0.0904 -0.7288  0.7531
18084SOL    HW256506   7.913   9.191   4.471  0.3915  0.3544  0.4546
18085SOL     OW56507   4.941   3.535   8.576 -0.7748 -0.3885 -0.2872
18085SOL    HW156508   4.941   3.482   8.656  0.7763  0.6956  0.4799
18085SOL    HW256509   4.878   3.605   8.593 -0.3279 -0.0661  0.0811
18086SOL     OW56510   7.995   6.360   9.869  0.4427  0.5935 -0.1075
18086SOL    HW156511   7.931   6.424   9.901  0.6153  0.5371  0.3581
18086SOL    HW256512   8.058   6.412   9.819 -0.2419  0.5847 -1.0128
18087SOL     OW56513   2.797   6.991   0.618  0.2659  0.4751 -0.1516
18087SOL    HW156514   2.720   7.039   0.648  0.2063 -0.0931  0.6076
18087SOL    HW256515   2.785   6.984   0.523  0.0547  1.5581 -0.2178
18088SOL     OW56516   5.135   1.821   8.652  0.0206 -0.1069  0.3091
18088SOL    HW156517   5.082   1.749   8.618 -0.1044  0.9376 -1.8892
18088SOL    HW256518   5.071   1.891   8.670  0.3037  0.0023  0.8976
18089SOL     OW56519   2.010   8.091   7.164  0.5075  0.0707 -0.1203
18089SOL    HW156520   2.045   8.018   7.214  1.2334  1.1417  1.0092
18089SOL    HW256521   1.937   8.054   7.114  0.9347 -1.4244  0.3139
18090SOL     OW56522   5.933   5.433   8.526 -0.3855 -0.2177  0.1684
18090SOL    HW156523   5.854   5.382   8.508  0.3624 -0.6447 -2.2310
18090SOL    HW256524   6.005   5.379   8.493  0.4258  2.3123 -2.6770
18091SOL     OW56525  10.650   4.825   2.776  0.7642  0.3448 -0.3350
18091SOL    HW156526  10.611   4.851   2.692 -0.7276  0.3454  0.3267
18091SOL    HW256527  10.603   4.877   2.841 -0.0777 -1.6521  0.7481
18092SOL     OW56528   1.748   8.011   3.614 -0.1951  0.7245 -0.4812
18092SOL    HW156529   1.696   7.991   3.536 -2.3467  1.6385  0.6352
18092SOL    HW256530   1.791   7.928   3.637 -1.3959 -0.1515 -1.3025
18093SOL     OW56531   3.170   0.700   5.768 -0.0363 -0.3338  0.5849
18093SOL    HW156532   3.263   0.722   5.764  0.1875 -1.2969  0.0035
18093SOL    HW256533   3.146   0.711   5.860  1.0433 -1.5323  1.0380
18094SOL     OW56534   5.351   2.611   7.148  0.5127 -0.6618 -0.2378
18094SOL    HW156535   5.446   2.603   7.153  0.6958  0.5257 -1.3183
18094SOL    HW256536   5.336   2.700   7.116 -0.9127 -1.3711 -1.6444
18095SOL     OW56537   0.868  10.287   6.459 -0.3552 -0.5922  0.3436
18095SOL    HW156538   0.948  10.331   6.488 -0.6877  0.5514 -0.4321
18095SOL    HW256539   0.809  10.291   6.534 -0.5699  0.7614  0.1147
18096SOL     OW56540  10.270   0.692   1.281  0.2418 -0.1682  0.0313
18096SOL    HW156541  10.277   0.597   1.279 -2.3568 -0.4629  0.6427
18096SOL    HW256542  10.299   0.720   1.194 -0.7506 -1.7320 -0.8471
18097SOL     OW56543   2.239   2.504   8.126  0.0633 -0.0777 -0.0120
18097SOL    HW156544   2.160   2.495   8.071 -0.6195  0.6822  0.8109
18097SOL    HW256545   2.258   2.597   8.125  0.4179 -0.1408  0.5303
18098SOL     OW56546   7.028   8.406   7.525  0.2138  0.1093 -0.3430
18098SOL    HW156547   7.010   8.436   7.614  0.9446 -0.8923  0.1667
18098SOL    HW256548   7.118   8.435   7.508  0.5554 -0.8574 -0.2364
18099SOL     OW56549   5.036   6.732   4.181  0.1055  0.1735  0.0733
18099SOL    HW156550   5.002   6.684   4.106 -1.2903 -1.3951  1.6171
18099SOL    HW256551   4.982   6.811   4.187 -1.3393 -0.8209  0.7209
18100SOL     OW56552  10.591   7.595   3.658 -0.7282  0.1038  0.5654
18100SOL    HW156553  10.563   7.646   3.582  0.5704 -0.7343 -0.5274
18100SOL    HW256554  10.677   7.629   3.680  0.3802 -1.8155 -0.4791
18101SOL     OW56555   5.809  10.429   1.589  0.4391 -0.0208 -0.1590
18101SOL    HW156556   5.799  10.512   1.634 -1.2244 -0.3003  0.0710
18101SOL    HW256557   5.750  10.369   1.635  1.0144 -1.1258 -0.7977
18102SOL     OW56558   1.326   7.893   2.651 -0.4100  0.0761 -0.3186
18102SOL    HW156559   1.311   7.974   2.602 -1.0104  0.0032 -0.2623
18102SOL    HW256560   1.347   7.828   2.584  3.0666  0.8825 -0.2016
18103SOL     OW56561   6.729   8.092   5.318  0.0002 -0.4413 -0.1252
18103SOL    HW156562   6.702   8.106   5.409 -0.5677  0.0237 -0.3580
18103SOL    HW256563   6.825   8.097   5.320 -0.0552  1.5556  0.1493
18104SOL     OW56564   7.477   5.355   2.535  0.4231 -0.2113  0.1726
18104SOL    HW156565   7.459   5.318   2.448  0.4901 -1.2629  0.5851
18104SOL    HW256566   7.568   5.333   2.552  0.3710 -0.1266  0.5680
18105SOL     OW56567   4.213   8.044   7.398  0.0021  0.2084  0.0750
18105SOL    HW156568   4.202   8.134   7.426 -0.7235 -0.5930  2.6578
18105SOL    HW256569   4.308   8.032   7.389  0.2976  0.6162  2.1470
18106SOL     OW56570   8.606   2.541   3.860 -0.5822 -0.1292  0.2164
18106SOL    HW156571   8.641   2.599   3.927  2.8566  2.0977 -3.0741
18106SOL    HW256572   8.677   2.478   3.843 -1.7750 -1.3179 -0.5726
18107SOL     OW56573  10.050   4.107   7.164 -0.5169 -0.3550 -0.2624
18107SOL    HW156574  10.037   4.127   7.072 -1.5236 -0.3438 -0.1281
18107SOL    HW256575   9.994   4.170   7.211  1.9238  1.3823  0.4981
18108SOL     OW56576   7.675   2.968   7.211 -0.5548 -0.2170  0.6784
18108SOL    HW156577   7.769   2.986   7.203 -0.9458  1.7521 -0.1217
18108SOL    HW256578   7.670   2.874   7.229  1.5559 -0.3959  0.5863
18109SOL     OW56579  10.311   4.871   5.528  0.0438  0.0278 -0.4852
18109SOL    HW156580  10.278   4.938   5.468 -0.7493 -0.2748 -0.3942
18109SOL    HW256581  10.243   4.862   5.594 -0.4081 -1.7020 -1.1297
18110SOL     OW56582   1.316   6.592   3.299  0.2879 -0.3290  0.5751
18110SOL    HW156583   1.275   6.571   3.215  0.0701 -2.0130  1.0737
18110SOL    HW256584   1.265   6.666   3.332  1.1730  1.2056 -1.3164
18111SOL     OW56585   2.932   6.371   8.691 -0.1925  0.2806  0.0358
18111SOL    HW156586   2.868   6.313   8.730 -0.0800 -0.0684 -0.2941
18111SOL    HW256587   2.995   6.387   8.761  0.1527 -0.5558 -0.0689
18112SOL     OW56588   3.617   9.696   6.611 -0.3879 -0.1179 -0.2677
18112SOL    HW156589   3.608   9.671   6.520 -0.7414 -0.9173 -0.0216
18112SOL    HW256590   3.535   9.669   6.652  0.6397 -1.9406  0.7559
18113SOL     OW56591   2.380   0.254   8.041 -0.4431  0.0669 -0.2039
18113SOL    HW156592   2.343   0.340   8.021  0.3408  0.5379  0.3266
18113SOL    HW256593   2.376   0.249   8.137  1.7854  0.5776 -0.0341
18114SOL     OW56594   4.866   9.375   8.972  0.2034 -0.4826 -0.0916
18114SOL    HW156595   4.793   9.333   9.017  0.0997 -0.1848  0.0156
18114SOL    HW256596   4.828   9.451   8.929  0.2994 -0.7682 -0.6971
18115SOL     OW56597   1.689  10.549   1.852  0.2282 -0.2451 -0.0581
18115SOL    HW156598   1.606  10.530   1.808 -0.1072 -0.1943  0.5518
18115SOL    HW256599   1.738  10.601   1.788 -1.3913  2.3082  0.6325
18116SOL     OW56600   3.136   5.223   8.701  0.2766 -0.3367 -0.3058
18116SOL    HW156601   3.178   5.298   8.659 -0.4811  1.3330  1.7107
18116SOL    HW256602   3.049   5.255   8.724  0.2432 -1.5375  1.4007
18117SOL     OW56603   4.748   5.040   1.334 -0.0511  0.1323  0.6223
18117SOL    HW156604   4.698   4.991   1.400 -0.3776 -2.1078 -1.1519
18117SOL    HW256605   4.787   4.973   1.279  1.8312  1.9016 -0.3374
18118SOL     OW56606   2.026   4.517   1.061  0.4113 -0.3377  0.0371
18118SOL    HW156607   2.063   4.562   1.137 -0.2472 -1.0197  0.7919
18118SOL    HW256608   2.098   4.465   1.026  0.3900 -1.0798  1.0354
18119SOL     OW56609   9.118  10.305   6.472 -0.0235  0.3766 -0.5366
18119SOL    HW156610   9.082  10.230   6.425  1.2731 -0.0673 -0.8643
18119SOL    HW256611   9.205  10.276   6.500  0.9499  2.1174 -1.5989
18120SOL     OW56612   9.328   5.135   5.816 -0.3999 -0.2794  0.4544
18120SOL    HW156613   9.303   5.228   5.810  0.0841 -0.1538  0.2859
18120SOL    HW256614   9.395   5.125   5.748 -0.1540 -0.6513  0.7528
18121SOL     OW56615   0.112   6.180   8.728  0.0051 -0.7078 -0.0859
18121SOL    HW156616   0.098   6.157   8.820 -0.1031 -1.9314 -0.3860
18121SOL    HW256617   0.151   6.267   8.731 -1.9117  0.1793  1.0374
18122SOL     OW56618   1.989   6.547   5.053  0.4277  0.0437 -0.1195
18122SOL    HW156619   1.999   6.604   4.976  1.8089 -1.0042 -0.7673
18122SOL    HW256620   2.048   6.584   5.118 -1.1677  1.2688  0.6952
18123SOL     OW56621   8.824   6.297   3.994  0.1044 -0.0680 -0.7984
18123SOL    HW156622   8.751   6.350   4.024  1.4706 -0.1850  3.3098
18123SOL    HW256623   8.809   6.210   4.031  1.3062 -0.6682 -1.6215
18124SOL     OW56624   9.237   2.468   1.642  0.7184 -0.1199 -0.2845
18124SOL    HW156625   9.328   2.484   1.617  0.6874 -0.1811 -0.4383
18124SOL    HW256626   9.189   2.470   1.559  0.3579  1.3756 -0.0671
18125SOL     OW56627   4.889   5.893   6.818  0.3622  0.4534  0.0689
18125SOL    HW156628   4.794   5.886   6.804  0.6930 -1.0836 -1.9719
18125SOL    HW256629   4.901   5.976   6.864 -1.9758  0.6018  0.5259
18126SOL     OW56630   7.562   0.639   8.645  0.5781  0.6157 -0.1017
18126SOL    HW156631   7.468   0.622   8.647  0.9384 -1.6627  0.7610
18126SOL    HW256632   7.571   0.721   8.597 -1.9836  1.9686  1.5273
18127SOL     OW56633   7.542   8.231   7.809  0.3729 -0.1646 -0.0728
18127SOL    HW156634   7.475   8.171   7.844  2.0339 -1.3272  1.3402
18127SOL    HW256635   7.559   8.292   7.881  2.9406 -1.7977  0.8603
18128SOL     OW56636   1.894   3.679   6.889 -0.0746 -0.2184  0.1419
18128SOL    HW156637   1.955   3.713   6.824 -0.6235  1.7758  0.5715
18128SOL    HW256638   1.840   3.755   6.912 -2.7341 -1.8536 -0.2298
18129SOL     OW56639   8.292   4.084   4.545 -0.1445 -0.3700 -0.5119
18129SOL    HW156640   8.285   4.175   4.517 -0.9051 -0.0718  0.5580
18129SOL    HW256641   8.347   4.042   4.479  4.2396  1.8791  1.2871
18130SOL     OW56642   9.763   8.242   5.393 -0.0144 -0.4540 -0.0130
18130SOL    HW156643   9.789   8.261   5.303  0.4220  1.6704  0.5256
18130SOL    HW256644   9.832   8.186   5.427  0.7400  0.1946 -0.4609
18131SOL     OW56645  10.412   5.341   1.692 -0.3822  0.1667  0.4380
18131SOL    HW156646  10.425   5.404   1.621  0.2662 -2.3398 -1.8530
18131SOL    HW256647  10.318   5.326   1.694 -0.5085  0.9742  0.8121
18132SOL     OW56648   3.421   5.859   5.619 -0.1125 -0.3370 -0.0148
18132SOL    HW156649   3.456   5.893   5.701  0.7081 -0.1375 -0.4408
18132SOL    HW256650   3.462   5.773   5.609 -1.3788 -1.0394  0.5350
18133SOL     OW56651   4.211   2.530   0.910  0.3332 -0.1451 -0.2264
18133SOL    HW156652   4.161   2.610   0.894 -0.9056 -0.8121  0.1685
18133SOL    HW256653   4.298   2.561   0.935 -0.0982  1.0776 -0.1677
18134SOL     OW56654   0.583   5.255   3.218  0.1526 -0.0042  0.3341
18134SOL    HW156655   0.536   5.237   3.137  0.3508  0.9561 -0.0016
18134SOL    HW256656   0.615   5.345   3.209 -1.2214  0.7288  2.1404
18135SOL     OW56657   6.554   0.744   3.006  0.0853 -0.0807  0.1517
18135SOL    HW156658   6.500   0.795   2.946 -0.5071 -0.2042  0.5629
18135SOL    HW256659   6.507   0.661   3.015  0.6335 -0.3996  0.0905
18136SOL     OW56660   3.569   7.572   3.071  0.0758  0.4260  0.0449
18136SOL    HW156661   3.496   7.576   3.010  1.2258  1.8910 -1.3188
18136SOL    HW256662   3.533   7.604   3.154 -1.3384 -0.9646  0.0009
18137SOL     OW56663   9.697   4.759   1.448 -0.6482 -0.0285 -0.4587
18137SOL    HW156664   9.726   4.844   1.413  0.1356 -0.3093 -0.5193
18137SOL    HW256665   9.694   4.772   1.543  2.6162 -0.7909 -0.1346
18138SOL     OW56666   4.777   9.589   2.551  1.1438  0.3196  0.3360
18138SOL    HW156667   4.865   9.572   2.517  0.7574 -0.9744 -0.0970
18138SOL    HW256668   4.723   9.521   2.511  0.2235  0.1871  1.7287
18139SOL     OW56669   6.892   3.330   6.772  0.0920 -0.0726  0.9339
18139SOL    HW156670   6.862   3.306   6.860  2.0783  1.9440  2.2705
18139SOL    HW256671   6.962   3.267   6.753 -0.6392 -0.7930  0.5618
18140SOL     OW56672   0.825   1.756   4.971  0.0958  0.1252 -0.2502
18140SOL    HW156673   0.837   1.813   5.047  0.9564 -0.6694  0.2302
18140SOL    HW256674   0.841   1.667   5.004 -0.0861 -0.2965 -1.2341
18141SOL     OW56675   0.571  10.106   5.150  0.2966  0.3050 -0.3285
18141SOL    HW156676   0.584  10.192   5.190  1.4441  0.1841 -0.4263
18141SOL    HW256677   0.652  10.089   5.102  0.3746 -1.1479  0.2830
18142SOL     OW56678   8.082   3.994   6.913  0.1979 -0.0249  0.7309
18142SOL    HW156679   8.078   4.088   6.932  1.4406  0.3343 -0.5894
18142SOL    HW256680   8.113   3.989   6.822  1.2237 -1.7254  1.1277
18143SOL     OW56681   1.693   7.003   2.533  0.3743 -0.6304 -0.6371
18143SOL    HW156682   1.650   7.070   2.480 -1.5752 -1.7014 -0.5158
18143SOL    HW256683   1.720   6.936   2.471 -0.3605 -1.0875 -0.4743
18144SOL     OW56684   1.748   6.725   0.379 -0.3056 -0.2963  0.5746
18144SOL    HW156685   1.801   6.792   0.422 -1.2009  0.2841  0.7931
18144SOL    HW256686   1.783   6.719   0.290  0.6466 -0.5075  0.9507
18145SOL     OW56687  10.530   2.872   2.183  0.2769 -0.1293 -0.2191
18145SOL    HW156688  10.546   2.800   2.122 -0.0445 -0.0784 -0.3685
18145SOL    HW256689  10.435   2.882   2.183  0.1548 -1.0024  1.2813
18146SOL     OW56690   6.873   6.771   3.290  0.6079  0.0183 -0.3805
18146SOL    HW156691   6.891   6.697   3.231 -1.3771  0.1223 -1.1975
18146SOL    HW256692   6.909   6.847   3.245 -1.3221  0.1700 -1.7743
18147SOL     OW56693   9.481   1.392   0.020  0.1902  0.4458  0.3641
18147SOL    HW156694   9.465   1.310   0.068 -0.2993 -0.2520 -0.9528
18147SOL    HW256695   9.395   1.430   0.008  0.4818  1.6452  1.7304
18148SOL     OW56696   6.687   6.279  10.228 -0.4322  0.7185 -0.4114
18148SOL    HW156697   6.723   6.362  10.196 -0.0168  1.5684  1.9699
18148SOL    HW256698   6.733   6.265  10.311 -0.5630 -1.8866 -0.7147
18149SOL     OW56699   3.612   8.723   5.736 -0.1719 -0.2365  0.1237
18149SOL    HW156700   3.660   8.791   5.690  1.0507 -0.8252  0.4993
18149SOL    HW256701   3.618   8.748   5.828 -3.9565  1.8254  0.0255
18150SOL     OW56702   8.223   1.206   2.531  0.3685  0.5707  0.5152
18150SOL    HW156703   8.303   1.195   2.583 -0.5823  2.0006  2.3821
18150SOL    HW256704   8.250   1.259   2.456  1.4572 -0.2383  0.3129
18151SOL     OW56705   6.346   0.136   7.736  0.1932  0.3762 -0.7789
18151SOL    HW156706   6.261   0.120   7.778 -0.4600  1.4161 -1.6429
18151SOL    HW256707   6.397   0.183   7.802  0.5003 -1.1617  0.1211
18152SOL     OW56708   7.851  10.454   4.938 -0.8206  0.0677 -0.3946
18152SOL    HW156709   7.824  10.434   5.028 -0.9842  2.7968  0.2645
18152SOL    HW256710   7.770  10.454   4.888 -1.0507  0.7361 -0.0368
18153SOL     OW56711   9.435   8.023   1.763  0.0611  0.2916 -1.3464
18153SOL    HW156712   9.411   8.023   1.670  0.8069  2.0255 -1.5823
18153SOL    HW256713   9.360   7.984   1.807 -0.6818  0.2308 -2.5990
18154SOL     OW56714   2.195   0.078   4.976  0.0474 -0.7376  0.1597
18154SOL    HW156715   2.173  -0.005   4.934 -1.0770  0.3338 -1.4604
18154SOL    HW256716   2.210   0.139   4.903  0.4114  0.6102  1.3108
18155SOL     OW56717   5.425   7.409   2.676  0.3639  0.0155 -0.1189
18155SOL    HW156718   5.399   7.337   2.733  1.8211  0.4072  1.0991
18155SOL    HW256719   5.452   7.479   2.736  2.4609  0.2482 -1.2645
18156SOL     OW56720  10.020   4.882   1.604 -0.3968  0.4001 -0.1822
18156SOL    HW156721   9.940   4.922   1.570 -0.1216  0.1423 -1.1620
18156SOL    HW256722   9.989   4.820   1.670 -1.0334  0.0687 -0.7783
18157SOL     OW56723   9.403   6.743   6.391 -0.0859  0.3627  0.7473
18157SOL    HW156724   9.368   6.769   6.306 -0.4947  1.1784  1.1560
18157SOL    HW256725   9.447   6.660   6.374  1.8132  1.5729 -0.7381
18158SOL     OW56726   1.665   6.947   3.899 -0.2595  0.1118 -0.1935
18158SOL    HW156727   1.696   7.035   3.877 -0.9462  0.1975 -0.8936
18158SOL    HW256728   1.694   6.932   3.989 -1.8366  1.8530  0.6707
18159SOL     OW56729   3.925   5.494   8.447 -0.4080  0.7145 -0.1032
18159SOL    HW156730   3.984   5.433   8.491 -0.3391  1.6361  1.1448
18159SOL    HW256731   3.984   5.560   8.409 -0.5377  0.5884 -0.5283
18160SOL     OW56732   2.611   8.135   8.724 -0.6018 -0.1243  0.0328
18160SOL    HW156733   2.520   8.108   8.738 -0.0315 -2.3396 -0.0564
18160SOL    HW256734   2.617   8.149   8.629 -0.7076 -0.6671 -0.0613
18161SOL     OW56735   5.915   1.907   5.775 -0.5578  0.6666  0.2187
18161SOL    HW156736   5.933   1.904   5.681  0.1141  0.7983  0.3390
18161SOL    HW256737   5.961   1.831   5.811 -0.2702  0.9845  0.5268
18162SOL     OW56738   0.731   0.289   2.505  0.2143 -0.1490  0.2138
18162SOL    HW156739   0.798   0.355   2.522  0.4852  0.1760 -1.8101
18162SOL    HW256740   0.700   0.262   2.591  3.0884 -0.4755  1.2511
18163SOL     OW56741   2.357   5.173   9.258 -0.5636  0.1261 -0.2237
18163SOL    HW156742   2.427   5.122   9.217  2.5124  2.5457  1.6230
18163SOL    HW256743   2.331   5.236   9.192 -2.6232 -2.0283 -1.6341
18164SOL     OW56744   6.024   1.830   1.570 -0.2734 -0.0038  0.3743
18164SOL    HW156745   6.050   1.901   1.630  1.2118  0.2096 -0.4842
18164SOL    HW256746   6.011   1.874   1.486 -0.0419 -0.6458  0.0012
18165SOL     OW56747  10.379   5.871   1.090 -0.1363  0.1926 -0.0313
18165SOL    HW156748  10.304   5.856   1.032  0.7422  0.3686 -1.2470
18165SOL    HW256749  10.453   5.829   1.046  0.9025  1.8271  0.0615
18166SOL     OW56750   1.876   9.345   6.258 -0.1075  0.1734  0.1269
18166SOL    HW156751   1.880   9.382   6.170 -2.2662 -1.6816 -0.8382
18166SOL    HW256752   1.954   9.289   6.264  0.1590  0.4644 -0.5302
18167SOL     OW56753   6.843   6.468   5.064  0.5288  0.4001  0.4667
18167SOL    HW156754   6.781   6.400   5.038  0.3495 -0.1438  2.2112
18167SOL    HW256755   6.814   6.495   5.151  0.0941  3.3636 -0.5090
18168SOL     OW56756   5.270   6.505   2.994 -0.2900  0.8212 -0.2106
18168SOL    HW156757   5.240   6.518   3.084  0.1113 -0.6756  0.1583
18168SOL    HW256758   5.365   6.509   2.999 -0.2801  2.0362 -0.8114
18169SOL     OW56759   2.726   0.792  10.422  0.2239  0.2732 -0.1881
18169SOL    HW156760   2.702   0.854  10.491 -1.0967  0.1311 -0.4834
18169SOL    HW256761   2.661   0.722  10.430  0.7152 -0.2669 -0.8850
18170SOL     OW56762   2.402   1.752   5.465 -0.4469 -0.1332 -0.0215
18170SOL    HW156763   2.395   1.749   5.370  1.6077  1.5244 -0.2993
18170SOL    HW256764   2.420   1.844   5.485  0.0064 -0.5835  1.8906
18171SOL     OW56765   5.073   3.633   4.879 -0.2406 -0.1833  0.1699
18171SOL    HW156766   5.156   3.666   4.845  0.3276 -0.9787  0.7627
18171SOL    HW256767   5.025   3.712   4.905  0.0987  0.3116 -0.6659
18172SOL     OW56768   0.046   2.914  10.440  0.0563 -0.2314  0.2184
18172SOL    HW156769   0.022   2.863  10.517  2.1927 -1.0765  0.3732
18172SOL    HW256770   0.124   2.871  10.405 -0.1294  0.8632 -1.7157
18173SOL     OW56771   1.326   3.639   8.263 -0.7020  0.2990 -0.7564
18173SOL    HW156772   1.235   3.611   8.252 -0.6353  0.0772 -0.7482
18173SOL    HW256773   1.374   3.591   8.194 -0.5499  0.2064 -0.5866
18174SOL     OW56774   4.699  10.608   6.517  0.0947 -0.6009 -0.0207
18174SOL    HW156775   4.758  10.682   6.505  0.8956 -0.9175  1.6388
18174SOL    HW256776   4.624  10.645   6.564  0.0169 -0.6431 -0.1122
18175SOL     OW56777   2.460   3.731   0.747  0.1522  0.2826 -0.2252
18175SOL    HW156778   2.538   3.784   0.763 -0.3835  1.1993 -0.5659
18175SOL    HW256779   2.404   3.787   0.693 -0.6748 -0.4223 -0.1153
18176SOL     OW56780   9.930   8.608   8.897 -0.0409  0.1279 -0.1373
18176SOL    HW156781   9.930   8.542   8.967  1.3346 -0.7491 -0.9134
18176SOL    HW256782   9.880   8.567   8.826  0.6703 -0.0385 -0.5587
18177SOL     OW56783   1.817   2.262   0.455 -0.3471  0.1647  0.0470
18177SOL    HW156784   1.884   2.318   0.416 -0.3061  1.2450  1.5621
18177SOL    HW256785   1.826   2.276   0.549 -1.1811 -1.4630  0.4027
18178SOL     OW56786   7.486   9.891   8.212  0.2077  0.6480  0.2877
18178SOL    HW156787   7.534   9.964   8.173 -0.7388  0.4868 -1.2403
18178SOL    HW256788   7.425   9.863   8.144  0.2425 -1.3014  1.0040
18179SOL     OW56789   4.830   4.073   2.305  0.6551  0.2479 -0.0216
18179SOL    HW156790   4.766   4.077   2.377  0.2374 -1.5827 -0.2484
18179SOL    HW256791   4.793   4.130   2.237 -0.2972 -0.0716  0.2087
18180SOL     OW56792   3.001   0.985   8.498  0.2779  0.5382  0.0381
18180SOL    HW156793   3.031   0.995   8.588 -0.1365 -1.8414  0.5064
18180SOL    HW256794   2.928   1.046   8.490  1.2759  1.8820  0.8035
18181SOL     OW56795   1.749  10.520   9.789 -0.1168 -0.1418 -0.2637
18181SOL    HW156796   1.690  10.539   9.716 -0.7734  0.5153  0.4139
18181SOL    HW256797   1.734  10.428   9.809  0.2613 -0.3903 -1.1246
18182SOL     OW56798   2.445   5.826   4.467  0.9086 -0.1707  0.0997
18182SOL    HW156799   2.507   5.830   4.393 -0.3462  1.4130 -0.9386
18182SOL    HW256800   2.496   5.858   4.542  2.0797 -1.4016 -0.1265
18183SOL     OW56801   9.890   9.939   2.203 -0.2660  0.3859  1.0607
18183SOL    HW156802   9.884   9.918   2.110  0.0368  2.1421  0.6146
18183SOL    HW256803   9.918   9.857   2.244  0.6507 -0.1377 -0.5198
18184SOL     OW56804   0.333   4.216   8.625  0.2064  0.5358 -0.3126
18184SOL    HW156805   0.421   4.205   8.660 -0.3216 -1.0052  0.6360
18184SOL    HW256806   0.344   4.209   8.530  1.1983  1.2117 -0.2655
18185SOL     OW56807   7.600   1.020   7.080  0.0463  0.4181 -0.1956
18185SOL    HW156808   7.515   0.982   7.101  0.7793 -1.3223 -0.1840
18185SOL    HW256809   7.610   1.092   7.142 -1.2830  0.4579  0.0000
18186SOL     OW56810   6.797   7.297   2.688  0.1622 -0.4808  0.3497
18186SOL    HW156811   6.859   7.321   2.757  2.0005 -1.1645 -0.9913
18186SOL    HW256812   6.807   7.203   2.678  0.4714 -0.3021 -1.2994
18187SOL     OW56813   5.511   0.802  10.638 -0.4990  0.5825  0.1926
18187SOL    HW156814   5.417   0.784  10.634 -0.5588  0.9459 -0.0905
18187SOL    HW256815   5.552   0.720  10.611 -0.7206  0.2576  0.8213
18188SOL     OW56816   3.628   8.683   4.298 -0.5332 -0.5225  0.8410
18188SOL    HW156817   3.639   8.778   4.301 -0.5932 -0.5168  0.8771
18188SOL    HW256818   3.535   8.670   4.281 -0.4680 -0.5702  0.5112
18189SOL     OW56819  10.289   2.713   4.315  0.5816  1.0919  0.0421
18189SOL    HW156820  10.195   2.725   4.328 -0.3502 -0.3799 -3.9992
18189SOL    HW256821  10.314   2.784   4.257  0.5630 -1.4606 -3.3966
18190SOL     OW56822  10.048   5.131   9.053 -0.2764 -0.2975  0.0549
18190SOL    HW156823  10.074   5.169   8.969 -1.1963  0.7390  0.2107
18190SOL    HW256824   9.982   5.192   9.087 -0.7571 -1.3114  0.9933
18191SOL     OW56825   0.366   8.567  10.387 -0.3024 -0.1603  0.2710
18191SOL    HW156826   0.446   8.523  10.362 -0.6044 -0.9013  0.5897
18191SOL    HW256827   0.369   8.569  10.483 -0.1207  0.8393  0.2568
18192SOL     OW56828   0.639   3.911   7.171  0.0783 -0.4002  0.4857
18192SOL    HW156829   0.727   3.941   7.149 -0.2177 -0.0851 -0.3409
18192SOL    HW256830   0.581   3.971   7.124 -0.6607  0.8053  2.7782
18193SOL     OW56831   8.734   3.959   1.265 -0.2208  0.4129  0.4391
18193SOL    HW156832   8.687   4.036   1.232  1.2498  0.1503 -2.6338
18193SOL    HW256833   8.827   3.985   1.262  0.2697 -1.2907 -0.2780
18194SOL     OW56834   3.730   9.258   8.941 -0.0083  0.0696  0.0624
18194SOL    HW156835   3.778   9.185   8.902 -0.3347 -0.1872  0.1265
18194SOL    HW256836   3.753   9.255   9.034 -0.3678 -0.2372  0.1465
18195SOL     OW56837   8.867   0.083   4.146  0.1994 -0.3857 -0.0672
18195SOL    HW156838   8.790   0.028   4.130 -0.5180  0.4376  0.4915
18195SOL    HW256839   8.855   0.159   4.090  0.3989 -0.0551  0.3357
18196SOL     OW56840   5.391   8.980   6.321 -0.1026 -0.3080 -0.8230
18196SOL    HW156841   5.371   8.889   6.343 -0.0581 -0.5285 -1.6654
18196SOL    HW256842   5.318   9.008   6.266  0.1604 -0.0186 -1.0316
18197SOL     OW56843   4.166   9.355   7.372 -0.0769  0.2503  0.1359
18197SOL    HW156844   4.178   9.301   7.450  0.4231  1.8102  1.1912
18197SOL    HW256845   4.250   9.351   7.327 -0.6055 -1.2922 -0.8045
18198SOL     OW56846   9.903   6.987   6.788  0.6051  0.5213  0.3085
18198SOL    HW156847   9.911   6.917   6.852  0.3680  0.2304  0.0236
18198SOL    HW256848   9.893   7.067   6.840  0.8862  0.3442  0.6332
18199SOL     OW56849   3.091   6.104   0.299 -0.1458 -0.2063 -0.1209
18199SOL    HW156850   3.152   6.147   0.359  0.6246  1.2931 -1.8711
18199SOL    HW256851   3.127   6.017   0.285  1.6691  0.6648 -1.1368
18200SOL     OW56852   9.274   4.541   1.861 -0.2114 -0.1844 -0.7688
18200SOL    HW156853   9.289   4.447   1.848 -0.1399 -0.3889  0.6221
18200SOL    HW256854   9.362   4.579   1.862 -0.1347 -0.3578  0.3111
18201SOL     OW56855   8.527   2.292   0.845 -0.6815  0.3021 -0.0580
18201SOL    HW156856   8.496   2.209   0.880 -0.4406  0.7802  1.3660
18201SOL    HW256857   8.551   2.343   0.923  0.7829  1.0758 -0.9793
18202SOL     OW56858   1.363   3.185   5.522  0.3358 -0.2027  0.2418
18202SOL    HW156859   1.274   3.167   5.491  0.4121  1.0746 -0.8167
18202SOL    HW256860   1.416   3.188   5.443  1.0854  0.2666  0.7493
18203SOL     OW56861   3.491   5.979   4.555  0.4539 -0.2514 -0.0878
18203SOL    HW156862   3.495   6.008   4.464  0.5330  2.9027  0.8304
18203SOL    HW256863   3.399   5.993   4.580  0.5910 -0.4514  0.5286
18204SOL     OW56864   2.954   6.322   5.197  0.3629 -0.6402  0.1224
18204SOL    HW156865   2.910   6.260   5.139  1.0079 -1.2407  0.2708
18204SOL    HW256866   2.942   6.286   5.285 -0.9461  0.4673  0.4292
18205SOL     OW56867   1.776   9.605   7.872  0.4312 -0.4758  0.4083
18205SOL    HW156868   1.860   9.629   7.833  0.4821 -1.0206  0.1747
18205SOL    HW256869   1.742   9.687   7.908  0.8369 -0.1577  0.0749
18206SOL     OW56870   8.338   6.767   2.468 -0.6174  0.0804 -0.8507
18206SOL    HW156871   8.252   6.750   2.507 -0.3652 -1.3123 -0.8569
18206SOL    HW256872   8.355   6.859   2.488 -0.9828 -0.2761  1.3775
18207SOL     OW56873   3.609   6.862   1.083 -0.2964  0.3728  0.4121
18207SOL    HW156874   3.648   6.824   1.004 -1.6264 -0.4526  0.1121
18207SOL    HW256875   3.637   6.953   1.083 -1.1597  0.7001 -1.6547
18208SOL     OW56876   6.050   9.299   1.608  0.2017  0.4354 -0.5018
18208SOL    HW156877   6.108   9.228   1.637 -0.7666 -0.2130 -0.0896
18208SOL    HW256878   6.013   9.334   1.688 -0.1427  0.6964 -0.7722
18209SOL     OW56879   3.248   6.930   8.520 -0.4634 -0.2598 -0.8446
18209SOL    HW156880   3.199   6.973   8.450 -3.0738 -3.3579 -1.1415
18209SOL    HW256881   3.202   6.955   8.600  0.0856  0.1316 -0.6462
18210SOL     OW56882   4.265   8.432   9.653  0.5996  0.2870 -0.3316
18210SOL    HW156883   4.296   8.436   9.743  0.4852  1.3214 -0.3276
18210SOL    HW256884   4.296   8.347   9.621  1.6377  0.4021  0.3115
18211SOL     OW56885   8.384   6.105   3.852 -0.0169  0.3858 -0.0676
18211SOL    HW156886   8.296   6.076   3.876 -0.2230  1.4146  0.4841
18211SOL    HW256887   8.372   6.196   3.825  1.2164  1.3785  2.4204
18212SOL     OW56888   2.209   3.753   8.427 -0.3857 -0.6410 -0.1888
18212SOL    HW156889   2.213   3.845   8.402  0.4251 -0.6093  0.0240
18212SOL    HW256890   2.300   3.726   8.436 -0.6271 -1.0919  1.1042
18213SOL     OW56891  10.045   1.857   9.121 -0.4169 -0.1128  0.5155
18213SOL    HW156892  10.111   1.900   9.067  0.8013  0.2760  2.2300
18213SOL    HW256893  10.013   1.785   9.067  0.8423  0.1743 -0.6616
18214SOL     OW56894   5.967   3.137   4.714  0.4392  0.5154 -0.3872
18214SOL    HW156895   5.970   3.070   4.646 -0.9457 -0.6060  0.5979
18214SOL    HW256896   5.992   3.218   4.669 -0.1317 -0.2359 -2.1463
18215SOL     OW56897   1.992   1.531   4.916 -0.0500  0.0168 -0.1830
18215SOL    HW156898   2.031   1.477   4.848  3.0416  2.6418 -0.7383
18215SOL    HW256899   2.017   1.488   4.998  0.5793 -0.4798 -0.6309
18216SOL     OW56900   5.382   6.597   8.453 -0.8279  0.4229 -0.2738
18216SOL    HW156901   5.365   6.670   8.393  1.1169 -0.6095 -2.2215
18216SOL    HW256902   5.404   6.638   8.536  0.8410  2.1389 -1.4858
18217SOL     OW56903   4.806   9.481   2.073  0.1643  0.0642  0.3480
18217SOL    HW156904   4.712   9.468   2.083  0.6013 -3.4643  1.0487
18217SOL    HW256905   4.823   9.466   1.980  0.1769 -0.6811  0.4650
18218SOL     OW56906   6.428   8.758   4.416  0.2769  0.4818  0.8338
18218SOL    HW156907   6.474   8.683   4.453 -0.6913 -0.3879  0.3068
18218SOL    HW256908   6.496   8.807   4.369  0.8560 -0.2095  0.9325
18219SOL     OW56909   1.203   4.042   9.642 -0.0124 -0.2977  0.2587
18219SOL    HW156910   1.283   4.061   9.691  1.0597  0.3009 -1.6160
18219SOL    HW256911   1.190   4.119   9.587 -1.5642 -0.6412  0.0974
18220SOL     OW56912   3.672   8.481  10.365 -0.0257  0.3088 -0.0344
18220SOL    HW156913   3.698   8.565  10.326  0.0493 -0.0151 -0.6820
18220SOL    HW256914   3.589   8.499  10.408 -0.7647  0.3564 -1.4514
18221SOL     OW56915   5.940   0.741   5.714 -0.3771 -0.3336 -0.6288
18221SOL    HW156916   5.940   0.781   5.627 -1.1104 -1.3861 -1.1417
18221SOL    HW256917   5.859   0.690   5.717  0.2969 -1.4133  0.1569
18222SOL     OW56918   7.742   1.122   7.683  0.1229  0.3557 -0.0949
18222SOL    HW156919   7.837   1.123   7.670 -0.0143  0.7146 -1.1795
18222SOL    HW256920   7.708   1.176   7.612 -0.9735 -0.7947 -0.4757
18223SOL     OW56921   8.556   3.190   8.158  0.3564  1.3299 -0.3767
18223SOL    HW156922   8.617   3.232   8.098 -1.1949  0.2574 -2.8875
18223SOL    HW256923   8.469   3.210   8.123 -0.5725 -0.7724  0.5029
18224SOL     OW56924   5.544   6.767   3.198 -0.5873  0.0689 -0.6203
18224SOL    HW156925   5.557   6.672   3.204 -1.0369 -0.0553 -1.3877
18224SOL    HW256926   5.493   6.789   3.276 -0.7363 -0.3708 -0.5895
18225SOL     OW56927   2.792   9.279   7.005  0.6875  0.6782 -0.1139
18225SOL    HW156928   2.728   9.251   6.939  0.8987  1.1670 -0.5378
18225SOL    HW256929   2.809   9.201   7.057  0.7935  0.1799 -0.8757
18226SOL     OW56930   0.299   7.819   9.099 -0.0180  0.1338 -0.5673
18226SOL    HW156931   0.296   7.914   9.091 -0.0333  0.0092 -2.7640
18226SOL    HW256932   0.377   7.793   9.050  0.5356 -0.9385  0.8252
18227SOL     OW56933   9.924   3.472   2.251 -0.3374  0.0803 -0.2073
18227SOL    HW156934   9.932   3.510   2.339  0.2477 -0.0356 -0.2070
18227SOL    HW256935   9.873   3.392   2.264  1.2593 -0.9000  0.3271
18228SOL     OW56936   4.856   1.677   7.484  0.0753  0.2667 -0.0448
18228SOL    HW156937   4.862   1.629   7.401  1.2766  0.2136  0.0592
18228SOL    HW256938   4.861   1.608   7.551 -0.6539  0.3314  0.0822
18229SOL     OW56939   6.960   1.778  10.564  0.1208 -0.4524  0.3331
18229SOL    HW156940   7.011   1.762  10.485  1.0289 -1.1264  1.0191
18229SOL    HW256941   6.940   1.871  10.562  2.7637  0.2267  0.7645
18230SOL     OW56942   2.821   9.367   7.515 -0.3053 -0.2978 -0.4259
18230SOL    HW156943   2.879   9.435   7.479  1.5053 -1.0365  0.9756
18230SOL    HW256944   2.875   9.320   7.579 -2.6354 -0.6473  1.4125
18231SOL     OW56945   9.510   1.943   4.065  0.1644  0.3243  0.0922
18231SOL    HW156946   9.588   1.893   4.044  0.5705  1.6098 -1.6636
18231SOL    HW256947   9.441   1.877   4.078  1.1090 -0.7428 -0.1966
18232SOL     OW56948   5.752   8.262   9.724  0.1806  0.1047  0.3271
18232SOL    HW156949   5.795   8.305   9.650  1.9357  1.7037  2.1726
18232SOL    HW256950   5.676   8.317   9.743  0.9218  0.9132  1.0080
18233SOL     OW56951   8.709   9.881   7.558  0.5575  0.2829 -0.1720
18233SOL    HW156952   8.721   9.861   7.651 -0.7796  0.2386  0.0150
18233SOL    HW256953   8.661   9.806   7.523 -0.7119  1.1759 -0.4290
18234SOL     OW56954  10.237   2.846   6.043 -0.5341  0.1715 -0.4680
18234SOL    HW156955  10.229   2.845   6.138 -0.4617  0.8412 -0.4501
18234SOL    HW256956  10.150   2.870   6.011 -0.6985 -0.5833 -0.5946
18235SOL     OW56957   8.583   9.457   0.879 -0.3136  0.1542 -0.7123
18235SOL    HW156958   8.619   9.481   0.794 -0.7650 -1.6673 -1.4686
18235SOL    HW256959   8.625   9.518   0.941  0.9220  0.7489 -2.0695
18236SOL     OW56960   2.876   4.931   2.639 -0.5474  0.7238 -0.2725
18236SOL    HW156961   2.955   4.980   2.659  0.3186 -0.3636 -0.8576
18236SOL    HW256962   2.815   4.996   2.606  0.4275  1.4700 -0.6689
18237SOL     OW56963   3.905   9.037   9.394 -0.5464 -0.0987 -0.7242
18237SOL    HW156964   3.842   8.965   9.389 -0.5352 -0.1088 -0.7168
18237SOL    HW256965   3.990   8.995   9.379 -0.4587 -0.2158  0.0624
18238SOL     OW56966   7.569   5.102   1.277 -0.2556  0.4819  0.2331
18238SOL    HW156967   7.608   5.155   1.208 -1.6889  0.0023 -1.0039
18238SOL    HW256968   7.642   5.052   1.313  0.2996 -0.5302 -2.1132
18239SOL     OW56969   0.715   9.657   1.433 -0.5153  0.1514  0.2524
18239SOL    HW156970   0.653   9.697   1.494 -1.4576  0.7160 -1.0303
18239SOL    HW256971   0.691   9.565   1.431 -1.3602  0.3707 -0.2543
18240SOL     OW56972   6.337  10.357   6.029 -0.2306  0.3104  0.3744
18240SOL    HW156973   6.318  10.277   6.079  1.0948  1.3796  2.7609
18240SOL    HW256974   6.410  10.332   5.971 -0.9030 -0.6087 -0.1011
18241SOL     OW56975  10.356   2.779   6.990  0.6947 -0.5426  0.1307
18241SOL    HW156976  10.266   2.752   7.008  0.3412 -0.5150 -1.4530
18241SOL    HW256977  10.384   2.824   7.070 -0.0453 -2.1376  1.3438
18242SOL     OW56978   9.785   6.379   2.073  0.3357 -0.2654 -0.2282
18242SOL    HW156979   9.708   6.350   2.123 -0.6462 -0.0776 -1.5842
18242SOL    HW256980   9.756   6.379   1.982  1.9990 -0.2971 -0.7867
18243SOL     OW56981  10.138  10.108   6.000 -0.0491 -0.3157  0.5393
18243SOL    HW156982  10.103  10.044   5.938 -1.8782  0.4458  0.7173
18243SOL    HW256983  10.133  10.065   6.085  0.7184 -0.6813  0.4094
18244SOL     OW56984   9.717   9.109   9.728  0.1025  0.3999  0.1741
18244SOL    HW156985   9.737   9.033   9.783 -1.0914  0.6855  1.0479
18244SOL    HW256986   9.719   9.184   9.788 -2.2861  0.5891  0.1179
18245SOL     OW56987   8.695   5.622   4.154  0.6187 -0.3680  0.6723
18245SOL    HW156988   8.655   5.607   4.069  0.9395 -0.5619  0.5561
18245SOL    HW256989   8.631   5.589   4.217  0.3762 -0.2146  0.5106
18246SOL     OW56990   0.986   8.527   1.053  0.3151 -0.3091 -0.2545
18246SOL    HW156991   0.961   8.550   0.963  0.8100 -2.2300 -0.9516
18246SOL    HW256992   1.067   8.576   1.068 -0.0981  0.5096 -0.6110
18247SOL     OW56993   5.497  10.580   4.715  0.2573  0.2132 -0.5520
18247SOL    HW156994   5.563  10.540   4.770  0.7027  1.0152 -0.4818
18247SOL    HW256995   5.414  10.564   4.760  0.5346  0.2132 -0.0437
18248SOL     OW56996   2.947   0.711   8.399  0.4176 -0.2121 -0.2777
18248SOL    HW156997   2.930   0.804   8.416 -0.1298 -0.4673  0.6393
18248SOL    HW256998   2.861   0.670   8.400  0.7467 -0.9303  0.6243
18249SOL     OW56999   8.198   5.024   5.396 -0.0926  0.0119  0.0196
18249SOL    HW157000   8.257   5.033   5.470  0.0847 -0.9950  0.0043
18249SOL    HW257001   8.213   4.936   5.363  1.4753  1.1122 -2.5957
18250SOL     OW57002   5.589   7.902   5.500 -0.3255 -0.0044 -0.1435
18250SOL    HW157003   5.651   7.964   5.462  0.7602 -0.7577  0.3407
18250SOL    HW257004   5.547   7.860   5.425 -0.1113  0.3797 -0.4798
18251SOL     OW57005   9.497   0.120   5.047  0.2590 -0.0301  0.4167
18251SOL    HW157006   9.588   0.097   5.029  0.1216  0.7901 -1.5903
18251SOL    HW257007   9.448   0.040   5.028  0.4287 -0.0883  0.2264
18252SOL     OW57008   8.035   7.536   3.733 -0.4400  0.3495  0.3017
18252SOL    HW157009   8.101   7.605   3.730 -1.1100  1.0643  1.3543
18252SOL    HW257010   8.036   7.506   3.824 -0.7991 -0.4017  0.0656
18253SOL     OW57011   6.581   9.742   3.798 -0.3365 -0.3724  0.1441
18253SOL    HW157012   6.583   9.775   3.708 -0.6072 -0.4964  0.0888
18253SOL    HW257013   6.492   9.708   3.809 -0.6931  0.7515  0.8640
18254SOL     OW57014   4.642   4.657   2.796  0.7694 -0.0438 -0.2690
18254SOL    HW157015   4.599   4.742   2.786 -0.0994 -0.5265 -0.8188
18254SOL    HW257016   4.606   4.604   2.725 -0.3717 -1.5272  1.3296
18255SOL     OW57017   5.608   8.224   8.872 -0.4614 -0.1247 -0.4330
18255SOL    HW157018   5.682   8.174   8.839 -1.3576 -0.4450 -2.0518
18255SOL    HW257019   5.639   8.260   8.955  2.3138  1.6026 -2.0414
18256SOL     OW57020   1.192   5.973   6.469  0.3920  0.5945  0.0500
18256SOL    HW157021   1.274   5.994   6.423  0.7311  0.3860  0.5475
18256SOL    HW257022   1.182   5.879   6.457  0.8272  0.4229  0.9369
18257SOL     OW57023   4.188   4.259   4.723  0.1923  0.3485 -0.5072
18257SOL    HW157024   4.215   4.284   4.812 -1.0547 -1.3056  0.3913
18257SOL    HW257025   4.199   4.339   4.671  1.4597  1.2127  1.0016
18258SOL     OW57026   8.516   1.997   9.745 -0.0501  0.3074 -0.2392
18258SOL    HW157027   8.605   1.981   9.774 -0.2365 -2.5095 -0.9491
18258SOL    HW257028   8.463   1.991   9.824  0.4019  2.9748  0.3530
18259SOL     OW57029   9.052   9.642   4.332 -0.1835  0.4019  0.3303
18259SOL    HW157030   9.075   9.558   4.291  0.4415  0.6177  0.2330
18259SOL    HW257031   9.116   9.653   4.402  0.4815  1.3601 -0.4128
18260SOL     OW57032   4.707   5.329   1.609  0.2424 -0.6554 -0.3159
18260SOL    HW157033   4.709   5.234   1.595  0.8774 -0.6163 -0.5427
18260SOL    HW257034   4.727   5.366   1.522  0.8069 -0.3321 -0.0519
18261SOL     OW57035   9.168   3.124   0.969 -0.2610  0.1645  0.4086
18261SOL    HW157036   9.177   3.033   0.941  1.4611  1.2148 -2.9610
18261SOL    HW257037   9.090   3.156   0.924  1.4271  1.3510 -1.8733
18262SOL     OW57038   6.285   6.333   8.096 -0.0686 -0.3950 -0.0227
18262SOL    HW157039   6.378   6.345   8.073 -0.2022 -1.0583 -0.9732
18262SOL    HW257040   6.238   6.395   8.041 -0.2798 -0.9268 -0.4491
18263SOL     OW57041   5.424   9.942   7.599  0.4265 -0.1975 -0.1208
18263SOL    HW157042   5.489   9.886   7.641 -1.3573 -1.5280  1.0353
18263SOL    HW257043   5.449   9.942   7.506  1.9217 -0.8394  0.2575
18264SOL     OW57044   4.930   1.100   1.820  0.1562  0.3889  0.1258
18264SOL    HW157045   5.013   1.057   1.840  0.3827 -0.0583 -1.5989
18264SOL    HW257046   4.951   1.194   1.819 -0.1237  0.5653  2.9085
18265SOL     OW57047   0.645   8.664   3.380  0.2122 -0.4329  0.0734
18265SOL    HW157048   0.653   8.587   3.435 -0.5423  1.1570  2.5801
18265SOL    HW257049   0.550   8.679   3.373  0.3293 -0.0678 -0.8887
18266SOL     OW57050   3.385   0.235   3.546 -0.1187 -0.0676 -0.3408
18266SOL    HW157051   3.291   0.252   3.553 -0.2246 -0.6117 -0.3872
18266SOL    HW257052   3.414   0.289   3.473 -0.9650 -2.0897 -2.2846
18267SOL     OW57053   3.756   8.212   4.686 -0.0672  0.2643  0.4053
18267SOL    HW157054   3.724   8.301   4.668 -2.5414 -0.4568  0.7737
18267SOL    HW257055   3.779   8.213   4.778 -2.1197  0.0614  0.9828
18268SOL     OW57056   6.898   4.697   1.514  0.1527 -0.0136 -0.2197
18268SOL    HW157057   6.989   4.678   1.534 -0.8119 -2.2837  2.7760
18268SOL    HW257058   6.862   4.615   1.479 -1.0312  0.4354 -0.1285
18269SOL     OW57059   6.317   8.870   0.995 -0.0300 -0.4381 -0.3210
18269SOL    HW157060   6.331   8.953   0.950  2.1989 -1.4221 -1.6559
18269SOL    HW257061   6.306   8.894   1.087  0.7027  1.3427 -0.6499
18270SOL     OW57062  10.304   5.774   0.378  0.0769 -0.4975 -0.7597
18270SOL    HW157063  10.232   5.823   0.338 -1.2156 -1.6542  0.0582
18270SOL    HW257064  10.284   5.775   0.472  0.9049 -1.1977 -0.5678
18271SOL     OW57065  10.363   7.816   2.080  0.0636  0.6632  0.1456
18271SOL    HW157066  10.276   7.824   2.041  0.3163  2.5818 -0.0900
18271SOL    HW257067  10.362   7.729   2.122 -2.0743  0.7758  0.4516
18272SOL     OW57068   8.862   8.913   9.230  0.1587  0.3793  0.2495
18272SOL    HW157069   8.898   8.967   9.160 -2.1096  2.3582  0.4525
18272SOL    HW257070   8.883   8.961   9.311  0.6330 -0.5916  0.7152
18273SOL     OW57071   8.112   5.739   4.276  0.2468 -0.4178  0.5459
18273SOL    HW157072   8.158   5.704   4.200  0.9376 -0.0600  0.7909
18273SOL    HW257073   8.148   5.690   4.351  0.3955  0.0209  0.7638
18274SOL     OW57074   0.134   9.038   1.610 -0.3681  0.0748  0.1567
18274SOL    HW157075   0.066   9.028   1.543 -1.7588 -0.9509  1.6239
18274SOL    HW257076   0.088   9.078   1.684  0.7826 -0.0402  0.9530
18275SOL     OW57077   0.588   0.404   3.619 -0.1799 -0.0018 -0.1133
18275SOL    HW157078   0.608   0.416   3.526  0.5381 -0.5537 -0.0463
18275SOL    HW257079   0.531   0.327   3.622 -1.8953  1.2095 -0.2506
18276SOL     OW57080  10.182   2.163   6.123  0.2781  0.4948 -0.3948
18276SOL    HW157081  10.238   2.105   6.174 -0.4803  0.5599  0.5546
18276SOL    HW257082  10.241   2.206   6.062  0.9789 -0.6950 -0.5927
18277SOL     OW57083   0.418   0.308   6.296 -0.7654 -0.2522 -1.0582
18277SOL    HW157084   0.336   0.347   6.327 -0.6347 -0.7777 -0.0184
18277SOL    HW257085   0.463   0.281   6.375 -0.1633 -1.1267 -1.6839
18278SOL     OW57086   5.720   9.032   6.265  0.0328 -0.3265  0.3472
18278SOL    HW157087   5.626   9.023   6.280 -0.1443 -3.6973 -1.6992
18278SOL    HW257088   5.761   8.999   6.345 -0.4600  1.0976  1.2236
18279SOL     OW57089   4.552   5.234   5.726 -0.0147  0.2358 -0.1498
18279SOL    HW157090   4.644   5.256   5.741  0.1524 -0.0077 -0.7803
18279SOL    HW257091   4.533   5.167   5.792  0.8075 -1.0732 -1.1751
18280SOL     OW57092   8.739   8.026   1.977 -0.0912 -0.1692 -0.0460
18280SOL    HW157093   8.686   8.001   2.053  2.4535 -0.0294  1.9044
18280SOL    HW257094   8.761   7.943   1.936 -0.0442 -0.3960  0.4225
18281SOL     OW57095   2.374   4.077   2.773  0.2426 -0.2017 -0.2246
18281SOL    HW157096   2.285   4.101   2.800  0.4368  1.4363 -0.8550
18281SOL    HW257097   2.387   3.989   2.806 -0.8573  0.2982  1.6943
18282SOL     OW57098   1.773   4.292   9.904 -0.3797 -0.1685  0.2678
18282SOL    HW157099   1.807   4.241   9.978  0.3000  0.2374  0.2491
18282SOL    HW257100   1.798   4.241   9.827  0.8795  0.4802  0.2123
18283SOL     OW57101   9.730   1.916   8.353 -0.3278 -0.3506  0.5724
18283SOL    HW157102   9.722   1.835   8.402  2.1838 -2.0303 -1.5200
18283SOL    HW257103   9.780   1.974   8.410 -1.0848 -0.6726  1.5999
18284SOL     OW57104   6.777   3.680   1.846  0.0107 -0.2381 -0.2064
18284SOL    HW157105   6.763   3.741   1.774  0.2601 -1.2492 -1.1264
18284SOL    HW257106   6.814   3.602   1.805  0.2138 -0.8101  1.0253
18285SOL     OW57107   9.040   0.651   4.030 -0.3784 -0.4597  0.1215
18285SOL    HW157108   9.101   0.585   4.065  0.7140  1.3909  1.8948
18285SOL    HW257109   9.024   0.710   4.103 -2.8987  0.1792 -0.8569
18286SOL     OW57110   7.884   8.787   5.324  0.7423  0.1170  0.4675
18286SOL    HW157111   7.807   8.825   5.366  0.3614 -0.1334 -0.0031
18286SOL    HW257112   7.906   8.711   5.378 -0.2155 -0.6656 -0.2014
18287SOL     OW57113   0.087   5.189   2.015 -0.5875 -0.3345  0.0134
18287SOL    HW157114   0.092   5.187   2.110  0.0944 -1.1833 -0.0269
18287SOL    HW257115   0.133   5.269   1.990  0.0894 -0.6079  0.3606
18288SOL     OW57116   8.737   5.129   0.821 -0.6833  0.4728 -0.1473
18288SOL    HW157117   8.675   5.074   0.868  0.5451  0.2562  1.3081
18288SOL    HW257118   8.709   5.218   0.839 -0.0594  0.4020  1.3040
18289SOL     OW57119   8.639   7.832   8.982 -0.1569 -0.6016  0.1194
18289SOL    HW157120   8.560   7.779   8.973 -0.0267 -1.1894  2.1110
18289SOL    HW257121   8.703   7.775   9.023  0.4493  0.6585  1.0028
18290SOL     OW57122   0.836   9.299   9.876  0.1708 -0.3556  0.0288
18290SOL    HW157123   0.831   9.333   9.787 -1.5162 -0.8242 -0.0881
18290SOL    HW257124   0.774   9.226   9.878  1.3285 -1.3715  1.1701
18291SOL     OW57125   6.021   6.367   4.713 -0.3674 -0.0394 -0.4115
18291SOL    HW157126   6.107   6.355   4.674 -0.2354 -1.9121  0.3330
18291SOL    HW257127   5.963   6.310   4.662 -0.3054 -2.0588  1.6294
18292SOL     OW57128   9.125   6.687   1.027 -0.2909 -0.0560 -0.1450
18292SOL    HW157129   9.170   6.715   0.947  0.5401  0.1447  0.3851
18292SOL    HW257130   9.081   6.765   1.059  1.3915  0.4890  0.9142
18293SOL     OW57131   3.172   6.676   0.102 -0.0818 -0.2989 -0.1902
18293SOL    HW157132   3.143   6.630   0.023 -0.9756 -0.7867  0.4002
18293SOL    HW257133   3.197   6.606   0.163 -2.4300 -0.1166  1.0912
18294SOL     OW57134   5.944   3.649   5.720 -0.4267  0.1699  0.2786
18294SOL    HW157135   5.925   3.556   5.729 -0.1029  0.2093  1.5928
18294SOL    HW257136   5.984   3.674   5.803  1.2082  1.0754 -0.7178
18295SOL     OW57137   8.695   2.583   7.045  0.0651  0.8282  0.5565
18295SOL    HW157138   8.640   2.631   6.982 -0.7772 -1.3064 -0.4108
18295SOL    HW257139   8.651   2.499   7.056  3.5596 -1.3906 -0.9149
18296SOL     OW57140   4.705   2.609   1.331 -0.1412  0.0108 -0.2040
18296SOL    HW157141   4.776   2.594   1.393 -0.1945 -2.2260 -0.5976
18296SOL    HW257142   4.735   2.681   1.276  1.4856 -0.4066  0.1065
18297SOL     OW57143   9.319   8.410   6.376  0.4260  0.2429 -0.4839
18297SOL    HW157144   9.284   8.321   6.374 -2.0272  1.0379  1.5005
18297SOL    HW257145   9.401   8.403   6.425 -0.2695 -0.8040  0.5908
18298SOL     OW57146   2.174   6.383   7.364  0.6085  0.3876 -0.0347
18298SOL    HW157147   2.135   6.468   7.385  2.1479  1.2678 -0.5926
18298SOL    HW257148   2.129   6.355   7.285 -1.7721 -0.6324  1.5530
18299SOL     OW57149   8.706   0.272   9.738  0.1690  0.3138 -0.0199
18299SOL    HW157150   8.757   0.194   9.716  1.5904  1.4984 -1.1643
18299SOL    HW257151   8.638   0.276   9.671 -0.9590 -0.8105  1.0152
18300SOL     OW57152   8.738   7.483   0.896 -0.1864 -0.0162 -0.0627
18300SOL    HW157153   8.656   7.453   0.856 -0.4813 -0.2536  0.7081
18300SOL    HW257154   8.713   7.557   0.952 -0.0156 -0.6133  0.8242
18301SOL     OW57155   3.187   6.148   4.658 -0.0668 -0.0182 -0.6141
18301SOL    HW157156   3.145   6.064   4.678  2.9740 -1.3956  0.6234
18301SOL    HW257157   3.170   6.202   4.735  0.4832 -0.6034 -0.0705
18302SOL     OW57158   3.955   6.137   7.867  0.0781  0.2803  0.0140
18302SOL    HW157159   3.937   6.186   7.947 -0.5082  0.5528 -0.2813
18302SOL    HW257160   3.942   6.046   7.892 -0.4668  0.3888  0.1335
18303SOL     OW57161   0.563   6.093   9.679  0.3669 -0.0624  0.0288
18303SOL    HW157162   0.553   6.048   9.763 -0.0061  1.9608  1.1237
18303SOL    HW257163   0.648   6.063   9.646  0.1808 -1.4629  0.7493
18304SOL     OW57164   0.733   1.018   1.948  0.0382  0.0335  0.0109
18304SOL    HW157165   0.801   1.009   1.881  1.7027 -0.0068  1.6448
18304SOL    HW257166   0.651   1.010   1.899  1.1851 -0.4327 -1.9537
18305SOL     OW57167   1.220   2.005   3.310  0.2284  0.1159  0.0624
18305SOL    HW157168   1.197   1.958   3.390  3.0924  0.5038  1.2560
18305SOL    HW257169   1.284   1.948   3.267  1.7051  1.6304  0.1361
18306SOL     OW57170   5.991   0.258   0.411  0.1057 -0.5413  0.0408
18306SOL    HW157171   6.048   0.325   0.374  2.1634 -1.7019  0.9845
18306SOL    HW257172   5.938   0.306   0.476  1.7090  0.1636  0.8835
18307SOL     OW57173   5.922   9.773   6.780  0.0934 -0.1192  0.1457
18307SOL    HW157174   5.941   9.807   6.693  2.6928  0.4610  0.8510
18307SOL    HW257175   5.894   9.682   6.764  0.2022  0.0709 -1.2810
18308SOL     OW57176   3.991   1.874   6.026  0.7135  0.0970  0.2346
18308SOL    HW157177   3.996   1.792   6.076 -1.4948 -1.2068 -1.4996
18308SOL    HW257178   3.978   1.942   6.092 -1.1198 -1.4287  1.5578
18309SOL     OW57179   9.854   9.960   7.903  0.2059 -1.1650  0.2764
18309SOL    HW157180   9.884   9.880   7.946  0.0745 -1.2227  0.2606
18309SOL    HW257181   9.923  10.024   7.922 -0.5199 -0.7887  1.7904
18310SOL     OW57182   0.881   5.266   6.730  0.0748 -0.0478  0.3974
18310SOL    HW157183   0.843   5.350   6.704 -0.6159  0.0763  1.7348
18310SOL    HW257184   0.906   5.224   6.647 -1.4698  0.5857 -0.4264
18311SOL     OW57185   9.088   0.072   8.349  0.5717  0.3011  0.2697
18311SOL    HW157186   9.087  -0.019   8.379 -1.0735  0.1574 -0.0972
18311SOL    HW257187   9.013   0.113   8.392  1.3976  1.5539  0.5792
18312SOL     OW57188   6.128   9.188   4.644 -0.2487  0.3085 -0.2303
18312SOL    HW157189   6.071   9.260   4.670 -0.5499 -0.2594  0.7129
18312SOL    HW257190   6.074   9.134   4.586 -0.5930 -0.0807  0.4430
18313SOL     OW57191   7.756   6.636   3.450 -0.0394 -0.0952  0.1191
18313SOL    HW157192   7.667   6.633   3.416  0.0995  4.0152 -1.1287
18313SOL    HW257193   7.748   6.677   3.536  0.4502 -3.0850  1.7438
18314SOL     OW57194   2.452   6.918   0.836  0.0157  0.3696  0.4875
18314SOL    HW157195   2.476   6.881   0.921 -1.4255 -0.0369  0.7539
18314SOL    HW257196   2.483   6.854   0.772 -3.2684 -1.9819  0.9724
18315SOL     OW57197   7.549   8.013   8.547 -0.3481 -0.1639  0.1862
18315SOL    HW157198   7.613   7.980   8.483  2.5913  0.4399  2.5921
18315SOL    HW257199   7.483   8.058   8.494  1.9660  0.4169 -2.4351
18316SOL     OW57200   7.507   5.067   0.857 -0.2501 -0.3057 -1.2309
18316SOL    HW157201   7.432   5.056   0.916  2.2660 -2.1485  1.9543
18316SOL    HW257202   7.506   4.988   0.802 -0.6810 -0.2653 -1.2842
18317SOL     OW57203   1.596   4.527   3.195  0.7263 -0.1033 -0.1624
18317SOL    HW157204   1.571   4.619   3.209  0.3066 -0.0228 -1.2880
18317SOL    HW257205   1.689   4.531   3.173  0.2712  0.3202 -2.2623
18318SOL     OW57206   9.508   0.928   3.755 -0.3127  0.4715 -0.4074
18318SOL    HW157207   9.588   0.878   3.739 -0.4332 -0.1283  0.7386
18318SOL    HW257208   9.437   0.874   3.720 -0.2246  1.1267 -1.6729
18319SOL     OW57209   3.235   4.037   2.088 -0.3048  0.9778 -0.0851
18319SOL    HW157210   3.195   4.102   2.145  2.8958  3.8903 -0.7980
18319SOL    HW257211   3.191   4.049   2.004 -0.4971  1.4840  0.0823
18320SOL     OW57212   9.449   2.964   5.904 -0.4729 -0.4766  0.1212
18320SOL    HW157213   9.434   2.891   5.844  0.4766 -0.2699 -0.3939
18320SOL    HW257214   9.515   3.018   5.860 -0.1800 -0.0114  1.0895
18321SOL     OW57215  10.617   0.822   4.045 -0.0266  0.0314  0.3163
18321SOL    HW157216  10.626   0.901   4.099  1.8873 -0.1968  0.3704
18321SOL    HW257217  10.630   0.852   3.956  1.0790 -0.2592  0.3673
18322SOL     OW57218   0.353   3.679   1.085 -0.2372  0.5011 -0.3659
18322SOL    HW157219   0.301   3.599   1.080 -0.4301  0.5567  0.6214
18322SOL    HW257220   0.435   3.652   1.125 -0.4525  0.8649  0.3270
18323SOL     OW57221   3.635  10.353   6.732  0.8501 -0.2486 -0.0874
18323SOL    HW157222   3.672  10.301   6.803 -0.0606 -0.5547  0.1737
18323SOL    HW257223   3.553  10.387   6.767  0.7003  0.1205 -0.7797
18324SOL     OW57224   5.223   0.889   7.755 -0.2378 -0.4429 -0.0229
18324SOL    HW157225   5.316   0.910   7.748  0.4179 -3.0770 -0.1288
18324SOL    HW257226   5.186   0.915   7.671  0.2567  1.0996  0.2096
18325SOL     OW57227   9.897   8.245   3.810 -0.9605 -0.4931  0.6271
18325SOL    HW157228   9.833   8.273   3.876 -2.1087 -2.7111  0.5257
18325SOL    HW257229   9.853   8.175   3.761  0.9855 -1.0149 -0.4926
18326SOL     OW57230   0.444   3.758   6.121  0.4124  0.0598  0.1251
18326SOL    HW157231   0.398   3.729   6.042 -0.8478  1.7589  0.2031
18326SOL    HW257232   0.537   3.754   6.096  0.0579  0.2609 -1.3368
18327SOL     OW57233   7.855   9.311   0.296 -0.1528  0.2181 -0.9039
18327SOL    HW157234   7.805   9.388   0.269  0.1156  1.9301  2.8750
18327SOL    HW257235   7.944   9.343   0.305 -0.0008 -0.5405  0.5178
18328SOL     OW57236   7.549   1.544   8.289 -0.0485  0.1857 -0.4267
18328SOL    HW157237   7.546   1.511   8.199  0.3209 -0.0472 -0.3542
18328SOL    HW257238   7.542   1.639   8.280 -0.5798  0.1319 -0.6680
18329SOL     OW57239   1.414   4.551   4.402  0.4294 -0.1897 -0.3869
18329SOL    HW157240   1.431   4.563   4.496 -0.9057 -0.5983 -0.0707
18329SOL    HW257241   1.489   4.501   4.371  1.3429  0.7378  0.2644
18330SOL     OW57242   8.358   0.926   0.820 -0.2544  0.0593  0.0083
18330SOL    HW157243   8.329   0.877   0.742 -1.2589  1.2635 -0.4078
18330SOL    HW257244   8.453   0.931   0.810 -0.4535  1.1982 -1.7894
18331SOL     OW57245  10.061   2.172   0.369  0.3268 -0.2880 -0.1486
18331SOL    HW157246  10.043   2.256   0.412  0.4453  0.5100 -1.6191
18331SOL    HW257247   9.975   2.134   0.354  0.3007 -1.0043  1.5417
18332SOL     OW57248   6.598   2.846   4.556  0.2307 -0.1807 -0.1900
18332SOL    HW157249   6.571   2.822   4.467 -1.2064 -0.0851  0.1929
18332SOL    HW257250   6.693   2.858   4.550 -0.0354  1.4247 -2.0670
18333SOL     OW57251   3.419   6.253   7.203  0.1791 -0.0327  0.5263
18333SOL    HW157252   3.413   6.221   7.293  1.8614  0.7023  0.9404
18333SOL    HW257253   3.472   6.332   7.209 -1.8308  1.4972 -0.7951
18334SOL     OW57254   2.937   6.107   3.982 -0.1768 -0.3581 -0.0702
18334SOL    HW157255   2.935   6.161   3.902 -2.0576  0.0086  0.1568
18334SOL    HW257256   3.027   6.114   4.014 -0.4111  3.3132  0.3220
18335SOL     OW57257   5.658   1.118   4.382  0.1309 -0.7910  0.4901
18335SOL    HW157258   5.717   1.078   4.445 -1.0323 -1.5012  1.1636
18335SOL    HW257259   5.632   1.201   4.423  1.3420 -0.0196 -0.2236
18336SOL     OW57260   7.533   2.397   9.623 -0.6147 -0.2467  0.0842
18336SOL    HW157261   7.626   2.421   9.624 -1.2622  2.5130  1.3167
18336SOL    HW257262   7.533   2.306   9.591  2.3250  0.3059 -1.9426
18337SOL     OW57263   6.345   0.154   3.459 -0.8701 -0.3986  0.9473
18337SOL    HW157264   6.438   0.166   3.479 -0.7215  1.9081 -0.8031
18337SOL    HW257265   6.332   0.059   3.464  0.9523 -0.6385  3.5892
18338SOL     OW57266   4.235   6.091   6.073  0.5091  0.0374  0.0793
18338SOL    HW157267   4.157   6.047   6.107  1.0193 -0.8525  0.1377
18338SOL    HW257268   4.238   6.066   5.981  1.8693 -1.7038  0.5478
18339SOL     OW57269   8.603   0.270   1.026  0.5649  0.0133 -0.3215
18339SOL    HW157270   8.537   0.269   1.094  0.5434  3.4612 -0.1308
18339SOL    HW257271   8.596   0.184   0.984 -2.3128 -0.6281  1.2500
18340SOL     OW57272   2.205   2.087   2.009 -0.0818  0.0839  0.0973
18340SOL    HW157273   2.152   2.093   2.088 -1.8510 -1.3173 -0.8864
18340SOL    HW257274   2.258   2.008   2.021  0.7594  0.6929  0.4789
18341SOL     OW57275   8.969   7.945   6.995 -0.1466 -0.1950  0.6061
18341SOL    HW157276   8.908   8.016   7.009  0.8464  0.7873  0.1052
18341SOL    HW257277   8.929   7.891   6.927  0.5585  1.7319 -1.4430
18342SOL     OW57278   0.645   9.351   1.184  0.2776  0.2838 -0.9101
18342SOL    HW157279   0.566   9.301   1.204  0.6233 -0.3434 -1.0867
18342SOL    HW257280   0.615   9.442   1.175 -0.2755  0.2032 -0.0353
18343SOL     OW57281   7.719  10.073   0.243  0.2446  0.4223 -0.0842
18343SOL    HW157282   7.730   9.983   0.211 -0.3269 -0.1625  1.3258
18343SOL    HW257283   7.805  10.097   0.276  0.0769 -0.0906  0.7366
18344SOL     OW57284   6.766   9.622   9.308 -0.4608 -0.1779 -0.1065
18344SOL    HW157285   6.737   9.665   9.227  1.5998  0.2578 -0.6587
18344SOL    HW257286   6.686   9.611   9.359 -1.5518  1.1171 -1.4576
18345SOL     OW57287   6.579   9.330   3.279 -0.0099  0.1336  0.4144
18345SOL    HW157288   6.609   9.241   3.299  0.0030  0.4447  1.8578
18345SOL    HW257289   6.657   9.375   3.248 -0.3617 -0.8084 -2.1347
18346SOL     OW57290   8.966   7.243   5.271  0.1768 -0.2135  0.0411
18346SOL    HW157291   8.933   7.178   5.333  0.4069 -0.6593 -0.3017
18346SOL    HW257292   9.024   7.298   5.323  2.9491 -2.5115 -0.3960
18347SOL     OW57293   3.142   8.799   7.005  0.1476  0.0301  0.2413
18347SOL    HW157294   3.111   8.771   7.092  1.2582 -0.7518  0.4006
18347SOL    HW257295   3.176   8.719   6.965  0.0084  0.4691 -0.7757
18348SOL     OW57296   1.068   9.641   3.183 -0.4982 -0.0448 -0.7017
18348SOL    HW157297   0.973   9.633   3.175 -0.3757 -1.0069 -1.4015
18348SOL    HW257298   1.087   9.731   3.156 -1.4059  0.9833  1.7639
18349SOL     OW57299   0.766   2.608   7.613  0.4377  0.4538  0.2381
18349SOL    HW157300   0.719   2.536   7.570  1.4134  0.3143 -0.6374
18349SOL    HW257301   0.713   2.629   7.690 -0.9600  0.1871 -0.6143
18350SOL     OW57302   1.128   4.285   9.527  0.5219  0.2920 -0.1638
18350SOL    HW157303   1.038   4.303   9.554  1.3632  0.1706  3.1031
18350SOL    HW257304   1.180   4.352   9.572  2.4144 -2.1782  1.5561
18351SOL     OW57305   3.552   9.770   5.474 -0.0144  0.8092  0.2799
18351SOL    HW157306   3.644   9.759   5.452  0.5810  3.0580  1.2916
18351SOL    HW257307   3.525   9.687   5.513  1.5903  0.1595  0.0534
18352SOL     OW57308   1.437   0.838   4.520  0.1704  0.8167 -0.3588
18352SOL    HW157309   1.354   0.828   4.472 -0.1339  0.0538  0.3081
18352SOL    HW257310   1.467   0.926   4.496 -0.3642  0.7561 -1.3304
18353SOL     OW57311   8.834  10.301   1.330 -0.0408  0.0092  0.3180
18353SOL    HW157312   8.919  10.319   1.290  0.6824 -1.4195  1.1504
18353SOL    HW257313   8.823  10.370   1.395  0.1305  0.6115 -0.2782
18354SOL     OW57314   6.072   9.686   5.828  0.6477  0.2870 -0.0224
18354SOL    HW157315   6.092   9.780   5.838 -2.7122  1.0486  0.8202
18354SOL    HW257316   6.047   9.676   5.737 -1.2968  0.8438  0.3884
18355SOL     OW57317   0.188   0.802   8.245  0.2381  0.4304  0.1300
18355SOL    HW157318   0.216   0.824   8.334  0.2301  1.6693 -0.1673
18355SOL    HW257319   0.116   0.740   8.258  1.4352 -0.8768  0.9364
18356SOL     OW57320   8.314   9.725   9.911 -0.5531 -0.1656 -0.7487
18356SOL    HW157321   8.310   9.704   9.818  1.1222  1.4418 -1.2430
18356SOL    HW257322   8.298   9.820   9.915 -1.0637 -0.2930  0.6452
18357SOL     OW57323   5.227  10.167   8.569 -0.2676 -0.0323  0.0107
18357SOL    HW157324   5.289  10.168   8.642 -0.1898 -0.3399 -0.0496
18357SOL    HW257325   5.142  10.153   8.611 -0.3406  0.7247  0.1224
18358SOL     OW57326  10.169   6.203   4.656 -0.2786  0.1892  0.5326
18358SOL    HW157327  10.200   6.293   4.667 -0.2423  0.3746 -0.9033
18358SOL    HW257328  10.219   6.169   4.582 -1.5442 -0.4368 -0.0672
18359SOL     OW57329   8.250   8.117   8.830 -0.1960  0.1207  0.2374
18359SOL    HW157330   8.245   8.130   8.924  0.5841 -3.2846  0.8752
18359SOL    HW257331   8.192   8.043   8.812  0.3757  0.1008 -1.7992
18360SOL     OW57332   2.176   5.403   3.558  0.6896 -0.0425 -0.0665
18360SOL    HW157333   2.180   5.498   3.542  1.2445  0.1081  0.8929
18360SOL    HW257334   2.089   5.389   3.596  0.1607 -0.1030 -1.2496
18361SOL     OW57335   6.365   3.282   3.178  0.3948  0.7888  0.0006
18361SOL    HW157336   6.453   3.267   3.214 -0.2578 -0.2644  1.2198
18361SOL    HW257337   6.375   3.264   3.084  1.1486 -0.9177  0.3657
18362SOL     OW57338   1.681   0.997   9.478 -0.3444  0.5631 -0.5613
18362SOL    HW157339   1.705   1.044   9.558  3.2829 -0.5694 -0.8096
18362SOL    HW257340   1.641   0.916   9.509 -0.3819  0.8010  0.0328
18363SOL     OW57341   2.068   9.842  10.242 -0.4300  0.4520 -0.2254
18363SOL    HW157342   2.088   9.752  10.217 -0.5263  0.1329  0.7943
18363SOL    HW257343   2.139   9.867  10.301 -1.9204 -0.0322  1.9017
18364SOL     OW57344   4.476   1.231   7.763  0.1376 -0.3188 -0.5123
18364SOL    HW157345   4.530   1.304   7.795  0.9691 -0.5642 -1.3024
18364SOL    HW257346   4.443   1.189   7.842 -0.2946  0.8722 -0.0462
18365SOL     OW57347   2.189   0.231   1.049 -0.6393  0.4465  0.3892
18365SOL    HW157348   2.266   0.187   1.014 -1.0401 -1.1849  1.4470
18365SOL    HW257349   2.124   0.225   0.978 -0.9544 -1.4806  0.7840
18366SOL     OW57350   8.769   3.914   7.627  0.2055 -0.3615 -0.0897
18366SOL    HW157351   8.741   3.962   7.549  0.1116  2.8320  1.7456
18366SOL    HW257352   8.688   3.885   7.668  0.2192 -1.2774 -0.6807
18367SOL     OW57353   7.663   2.783   9.669  0.6751 -0.3884  0.6730
18367SOL    HW157354   7.702   2.713   9.720  0.3549  0.2706  1.8607
18367SOL    HW257355   7.635   2.742   9.587  0.8584 -1.5413  1.1837
18368SOL     OW57356   4.030   6.793   6.758 -0.1397  0.2640  0.2406
18368SOL    HW157357   4.021   6.746   6.675  2.5771  1.4267 -0.8081
18368SOL    HW257358   3.940   6.820   6.780 -0.8341  0.7401 -2.8036
18369SOL     OW57359   3.788   9.546   4.987 -0.2826 -0.2821  0.2992
18369SOL    HW157360   3.729   9.506   4.924  1.0576 -2.0300  0.0860
18369SOL    HW257361   3.733   9.564   5.064 -1.1862 -1.4814 -0.0391
18370SOL     OW57362   1.855   9.729   7.200 -0.2783  0.1669 -0.2153
18370SOL    HW157363   1.773   9.694   7.233  0.2464  0.2404  1.2155
18370SOL    HW257364   1.854   9.821   7.225 -0.5800  0.6467 -1.8661
18371SOL     OW57365   1.502   2.744   6.117 -0.2284  0.0952  0.5054
18371SOL    HW157366   1.518   2.838   6.105  0.3337  0.2000  1.9105
18371SOL    HW257367   1.587   2.708   6.143  0.0145 -1.1678 -1.8355
18372SOL     OW57368   6.818   6.295   8.811  0.1194  0.0042 -0.1475
18372SOL    HW157369   6.906   6.261   8.794  0.5985  0.7652  0.7160
18372SOL    HW257370   6.762   6.217   8.814  1.1395 -0.7061  1.5453
18373SOL     OW57371   3.125   0.203   2.301  0.1831 -0.4278 -0.2482
18373SOL    HW157372   3.095   0.197   2.210 -0.1998  0.5182 -0.1913
18373SOL    HW257373   3.210   0.158   2.301  1.2107  1.4045 -1.5395
18374SOL     OW57374   0.481   6.053   8.732 -0.3612 -0.1928 -0.7180
18374SOL    HW157375   0.490   5.968   8.688 -0.3497  0.3795 -1.8538
18374SOL    HW257376   0.427   6.034   8.809  1.4728 -1.6429  0.2958
18375SOL     OW57377   6.314   3.998   2.438 -0.4092  0.0886  0.3561
18375SOL    HW157378   6.269   3.940   2.377  0.3598  0.2415 -0.3725
18375SOL    HW257379   6.323   3.947   2.518  1.0618 -1.1553 -0.5586
18376SOL     OW57380   6.598   1.912   9.450 -0.4559 -0.0461 -0.0413
18376SOL    HW157381   6.542   1.974   9.403 -0.8326 -0.2448  0.1377
18376SOL    HW257382   6.569   1.918   9.541 -0.5462 -0.5401 -0.0359
18377SOL     OW57383   1.424   0.195   9.934 -0.4746  0.2506 -0.1296
18377SOL    HW157384   1.388   0.154   9.856 -0.9464  1.3389 -0.4893
18377SOL    HW257385   1.500   0.140   9.956 -1.3807 -1.1321 -0.2807
18378SOL     OW57386   6.748   2.023   0.067 -0.5388  0.4869 -0.7632
18378SOL    HW157387   6.675   1.965   0.090  0.4150 -0.3069  0.4050
18378SOL    HW257388   6.770   2.000  -0.023 -0.3756 -0.7768 -0.4251
18379SOL     OW57389   1.462   8.300   6.193  0.3504  0.3208 -0.5139
18379SOL    HW157390   1.531   8.277   6.256 -0.3588 -0.5420 -0.0192
18379SOL    HW257391   1.470   8.394   6.181  0.4909  0.5134  0.9255
18380SOL     OW57392   0.124   6.241   7.512  0.5335 -0.8794  0.1848
18380SOL    HW157393   0.171   6.294   7.576 -1.3632  1.2101 -0.0331
18380SOL    HW257394   0.179   6.244   7.433  0.3867  1.0204  0.1093
18381SOL     OW57395   3.409   6.774   9.126  0.7438  0.3754  0.6069
18381SOL    HW157396   3.394   6.693   9.173 -1.0143 -0.5025 -1.3065
18381SOL    HW257397   3.448   6.746   9.043  0.4726  1.5119  0.0793
18382SOL     OW57398   3.111   2.447   8.087 -0.3426 -0.7050 -0.5343
18382SOL    HW157399   3.017   2.438   8.100 -0.3814 -1.1487 -1.0650
18382SOL    HW257400   3.123   2.537   8.058 -0.6220 -0.6830 -0.5828
18383SOL     OW57401   0.880   2.549   8.082  0.2711 -0.2435 -0.4058
18383SOL    HW157402   0.874   2.516   7.992  3.0875 -1.0250 -0.3893
18383SOL    HW257403   0.956   2.504   8.119 -1.0889 -0.2984  2.5663
18384SOL     OW57404   6.644   2.449   1.164 -0.4967  0.0065  0.1935
18384SOL    HW157405   6.565   2.397   1.148 -0.8426  1.2280 -2.4975
18384SOL    HW257406   6.714   2.385   1.176 -1.8267 -1.1127  2.8930
18385SOL     OW57407   6.021   9.638   7.513  0.1787  0.6406 -0.5684
18385SOL    HW157408   5.976   9.703   7.460 -0.6227  0.7813  0.2502
18385SOL    HW257409   5.957   9.614   7.580  0.9724  0.0750  0.0033
18386SOL     OW57410   2.428   2.396   0.846  0.0461  0.3661  0.2004
18386SOL    HW157411   2.380   2.342   0.784 -2.8746  3.0272 -0.1053
18386SOL    HW257412   2.497   2.438   0.794  0.7778 -1.0916 -0.0621
18387SOL     OW57413   0.144   5.050   0.633  0.0624  0.2503  1.1986
18387SOL    HW157414   0.097   5.133   0.632  0.7281  0.6681 -0.6862
18387SOL    HW257415   0.099   4.998   0.699 -2.9310  0.6960 -0.2875
18388SOL     OW57416   4.053   0.308   5.046  0.0326  0.0052  0.3164
18388SOL    HW157417   4.029   0.394   5.012  4.1635  1.5420  0.7074
18388SOL    HW257418   4.126   0.280   4.991 -0.4587 -2.7945  0.9326
18389SOL     OW57419   2.105   7.204   8.532 -0.7309  0.1371 -0.2731
18389SOL    HW157420   2.170   7.261   8.490 -1.4799  0.3237 -1.2251
18389SOL    HW257421   2.153   7.123   8.549 -0.1336  0.4128 -0.5825
18390SOL     OW57422   3.314   2.818   1.873 -0.7193 -0.3358 -0.1033
18390SOL    HW157423   3.246   2.796   1.937  0.2515 -0.4979  0.9109
18390SOL    HW257424   3.293   2.906   1.844  0.4678  1.0070  2.7501
18391SOL     OW57425   8.665   9.128   0.608 -0.1563 -0.3891 -0.4815
18391SOL    HW157426   8.591   9.071   0.628 -0.0679  0.2268  1.8228
18391SOL    HW257427   8.626   9.212   0.584 -0.2117 -0.5618 -1.0215
18392SOL     OW57428  10.146   1.766   6.577 -0.2026 -0.2234 -0.2361
18392SOL    HW157429  10.063   1.719   6.582  0.2435 -1.2661 -1.8522
18392SOL    HW257430  10.197   1.733   6.651 -1.1433  0.2972  0.6595
18393SOL     OW57431   0.812   7.438   0.458 -0.1620  0.2898  0.0344
18393SOL    HW157432   0.829   7.451   0.552  0.8720  0.2609 -0.1395
18393SOL    HW257433   0.891   7.470   0.415 -0.1801 -0.7075 -0.7702
18394SOL     OW57434   1.713   3.643   8.031 -0.9589 -0.0556  0.4401
18394SOL    HW157435   1.796   3.678   8.065 -1.5542  0.1627  1.7418
18394SOL    HW257436   1.712   3.668   7.939 -0.8086  2.3886  1.0270
18395SOL     OW57437  10.389   3.557   8.909  0.1593  0.1095 -0.7282
18395SOL    HW157438  10.354   3.591   8.827  0.0933 -0.4314 -0.9312
18395SOL    HW257439  10.388   3.632   8.969  1.0634  0.7410 -1.4725
18396SOL     OW57440   5.305   0.698   6.282 -0.5264  0.3337  0.6763
18396SOL    HW157441   5.289   0.702   6.376  0.7217 -2.0591  1.0669
18396SOL    HW257442   5.245   0.630   6.250  0.5674 -0.4360  0.1775
18397SOL     OW57443   9.208   7.594   6.465 -0.0175  0.1436 -0.1698
18397SOL    HW157444   9.279   7.532   6.484  1.2304  1.4839 -0.3177
18397SOL    HW257445   9.139   7.540   6.425  0.0727 -1.5461  1.7726
18398SOL     OW57446   0.405   2.839   6.963  0.2819  0.3022 -0.0358
18398SOL    HW157447   0.405   2.770   6.897 -2.3136 -0.0077  0.1751
18398SOL    HW257448   0.494   2.838   6.998  0.8621 -1.6219 -1.3745
18399SOL     OW57449  10.242   8.312   4.751 -0.3489 -0.3044  0.4436
18399SOL    HW157450  10.193   8.393   4.738 -0.8237 -0.5485  0.7213
18399SOL    HW257451  10.330   8.333   4.718 -0.8983 -0.1855 -1.0169
18400SOL     OW57452   4.321   3.753   5.961  0.3379  0.5082  0.5607
18400SOL    HW157453   4.286   3.824   5.908  2.3386  1.4276  0.3792
18400SOL    HW257454   4.289   3.770   6.049  1.1703  1.9436  0.6108
18401SOL     OW57455   6.844   6.758   9.126 -0.2333 -0.3653 -0.5026
18401SOL    HW157456   6.874   6.796   9.209 -0.0854  1.1179 -1.2135
18401SOL    HW257457   6.922   6.755   9.071 -0.7233  0.6029 -1.2847
18402SOL     OW57458   3.100   1.460   5.447 -0.0311 -0.1019  0.3657
18402SOL    HW157459   3.099   1.412   5.530 -0.5637  1.3946  1.2558
18402SOL    HW257460   3.022   1.515   5.449 -0.8320 -1.0205 -1.7665
18403SOL     OW57461   7.676   8.885   5.454 -0.1809  0.1750  0.7907
18403SOL    HW157462   7.611   8.948   5.422  0.4909  0.3199 -0.3145
18403SOL    HW257463   7.655   8.875   5.547 -1.3193  0.7822  0.6189
18404SOL     OW57464   8.388   2.288   2.728  0.1706  0.2231  0.0278
18404SOL    HW157465   8.446   2.239   2.669 -0.7229  1.3384 -1.8635
18404SOL    HW257466   8.328   2.222   2.762  0.0398 -0.3042 -1.1616
18405SOL     OW57467   7.574   9.246   0.487  0.5879 -0.4906  0.1157
18405SOL    HW157468   7.573   9.201   0.403 -0.3903 -1.1216  0.4444
18405SOL    HW257469   7.482   9.264   0.506  0.7935 -0.3298  1.0306
18406SOL     OW57470   2.149   5.093   6.716  0.2468 -0.0153 -0.2917
18406SOL    HW157471   2.126   5.062   6.629 -3.0515  1.2631 -0.0056
18406SOL    HW257472   2.131   5.187   6.714  2.3221  0.4991  1.1606
18407SOL     OW57473   6.978   8.122   1.598 -0.0291  0.8350 -0.5796
18407SOL    HW157474   6.892   8.092   1.628  1.0918 -0.5893  1.5055
18407SOL    HW257475   7.024   8.041   1.573  1.8566  1.0798  1.7412
18408SOL     OW57476   5.953   0.043   5.700  0.1043 -0.2820  0.7851
18408SOL    HW157477   5.924   0.123   5.744 -1.3538 -0.2505 -0.1808
18408SOL    HW257478   5.990   0.073   5.617 -0.3095 -0.5990  0.4853
18409SOL     OW57479   1.742   2.320   1.529  0.2413 -0.2047 -0.1798
18409SOL    HW157480   1.661   2.275   1.555  0.5844 -1.1520 -0.6973
18409SOL    HW257481   1.712   2.406   1.498 -0.3776  0.1456  1.2702
18410SOL     OW57482   8.021   2.157   8.654 -0.0103 -0.0337  0.0230
18410SOL    HW157483   8.046   2.195   8.738  0.2438 -0.9163  0.3599
18410SOL    HW257484   8.000   2.232   8.599  1.8402  0.6707  0.2228
18411SOL     OW57485   3.958   2.415   3.928 -0.4897  0.4112  0.1068
18411SOL    HW157486   3.945   2.508   3.910  0.1653  0.7322  1.1583
18411SOL    HW257487   4.012   2.414   4.007 -1.2202 -0.8719  0.6133
18412SOL     OW57488   2.126   9.906   7.668  0.3783  0.5589  0.4138
18412SOL    HW157489   2.183   9.858   7.728 -0.1030  0.4704  0.8086
18412SOL    HW257490   2.183   9.933   7.597  0.9595  0.6552  0.9082
18413SOL     OW57491   8.204   0.905   3.150 -0.4142  0.3492 -0.1012
18413SOL    HW157492   8.199   0.945   3.064 -2.7702  0.5117  0.0476
18413SOL    HW257493   8.121   0.857   3.159  0.1971 -0.4605  1.6831
18414SOL     OW57494   4.685   3.624   2.435  0.0862  0.3828  0.2742
18414SOL    HW157495   4.736   3.619   2.516 -0.1530 -0.6589  0.3690
18414SOL    HW257496   4.600   3.659   2.462 -0.1141 -0.2933  0.5441
18415SOL     OW57497   3.052   5.177   8.373 -0.2743  0.6599 -0.2681
18415SOL    HW157498   3.101   5.257   8.389 -2.1706  1.3746  2.7092
18415SOL    HW257499   3.096   5.111   8.426 -0.3961  0.4368 -0.4434
18416SOL     OW57500   9.348  10.164  10.262 -0.2858 -0.5939 -0.0673
18416SOL    HW157501   9.362  10.071  10.280  0.3104 -0.5960 -0.5238
18416SOL    HW257502   9.435  10.199  10.246 -0.4708  0.1257  0.4569
18417SOL     OW57503   8.889   4.611   7.461  0.5116  0.2212 -0.3784
18417SOL    HW157504   8.832   4.686   7.443  0.3819  0.2738  0.2217
18417SOL    HW257505   8.854   4.540   7.408  1.3937  0.9106 -1.9367
18418SOL     OW57506   7.830   2.108   4.389  0.4089  0.3507  0.0836
18418SOL    HW157507   7.781   2.115   4.471  1.1262 -3.5550  1.0616
18418SOL    HW257508   7.919   2.135   4.411  0.7111 -1.1382  0.7886
18419SOL     OW57509   3.601   8.547   7.496  0.3882 -0.1029  0.3471
18419SOL    HW157510   3.523   8.519   7.543 -0.4068 -1.4067 -1.6205
18419SOL    HW257511   3.671   8.492   7.530  0.0229 -0.3932  0.6305
18420SOL     OW57512   9.459   9.790   4.404  0.4133  0.3501 -0.1756
18420SOL    HW157513   9.438   9.698   4.389  1.5776  0.2316 -1.2793
18420SOL    HW257514   9.464   9.798   4.500  1.5485 -1.0628 -0.0759
18421SOL     OW57515   4.769   3.718   3.870 -0.4851 -0.2127 -0.5246
18421SOL    HW157516   4.692   3.697   3.817  0.0501 -1.9372 -0.6804
18421SOL    HW257517   4.836   3.744   3.806  0.0193 -1.8534 -0.7244
18422SOL     OW57518   9.678   9.754   3.564 -0.3098 -1.1358  0.6647
18422SOL    HW157519   9.659   9.832   3.616 -0.6491 -1.2390  0.7038
18422SOL    HW257520   9.737   9.703   3.617  0.2884 -0.6874  0.4414
18423SOL     OW57521   2.596   5.081   2.118  0.6892 -0.7224  0.7758
18423SOL    HW157522   2.629   5.000   2.079 -1.4612 -2.3730  2.1235
18423SOL    HW257523   2.597   5.145   2.046  2.9301 -1.7370 -0.1895
18424SOL     OW57524   7.531  10.322   2.926  0.1747 -0.3453 -0.2938
18424SOL    HW157525   7.598  10.256   2.912  1.1273  0.6453 -0.5776
18424SOL    HW257526   7.524  10.368   2.842  2.5515  2.5771  0.8996
18425SOL     OW57527   2.305   2.549   7.702 -0.2684  0.2598 -0.1616
18425SOL    HW157528   2.350   2.465   7.692 -0.1298  0.2459  0.5018
18425SOL    HW257529   2.363   2.613   7.663  0.0972  0.1721  0.2283
18426SOL     OW57530   1.243   6.091   2.422  0.0339 -0.2128 -0.1377
18426SOL    HW157531   1.206   6.178   2.409 -1.0408 -0.9861 -2.9948
18426SOL    HW257532   1.336   6.106   2.440 -0.5173  1.5469  1.5332
18427SOL     OW57533   2.283   6.650   3.242 -0.3801  0.6708  0.1051
18427SOL    HW157534   2.309   6.589   3.173  3.0302  0.5686  1.2706
18427SOL    HW257535   2.220   6.709   3.200 -0.9929 -1.3654 -2.0731
18428SOL     OW57536   3.626  10.320   3.303 -0.6771 -0.1953  0.0396
18428SOL    HW157537   3.668  10.310   3.388 -1.5159  2.5016  0.8895
18428SOL    HW257538   3.639  10.236   3.259  0.7470 -1.2922  2.3735
18429SOL     OW57539   5.415   9.983   3.431  0.0142  0.0470 -0.2029
18429SOL    HW157540   5.445  10.043   3.363 -0.6413  0.9886  0.3140
18429SOL    HW257541   5.320   9.975   3.416  0.2816 -2.0402 -1.1610
18430SOL     OW57542   5.851   6.400   7.466 -0.0748 -0.1599 -0.2915
18430SOL    HW157543   5.835   6.355   7.383  2.4550 -1.1533 -0.3240
18430SOL    HW257544   5.883   6.332   7.525 -0.7821  0.7326  1.1972
18431SOL     OW57545   1.752   5.830   2.851  0.4558 -0.6527  0.1571
18431SOL    HW157546   1.824   5.773   2.878  0.5931 -1.8090 -2.2824
18431SOL    HW257547   1.695   5.772   2.800  0.4492  1.2694 -2.2075
18432SOL     OW57548   5.360   3.636   3.236 -0.1049  0.4493 -0.0142
18432SOL    HW157549   5.390   3.724   3.261 -3.2442  1.3511  1.1055
18432SOL    HW257550   5.368   3.633   3.141  2.8081  0.7438  0.1287
18433SOL     OW57551   4.494   5.630   4.490 -0.0909  0.0057  0.0084
18433SOL    HW157552   4.493   5.535   4.485 -0.2533  0.0562 -1.1069
18433SOL    HW257553   4.408   5.657   4.459  0.7079  0.5763 -1.8763
18434SOL     OW57554   9.161   2.448   7.493 -0.2281 -0.0202 -0.7465
18434SOL    HW157555   9.085   2.411   7.538 -0.1040  0.0861 -0.4467
18434SOL    HW257556   9.134   2.454   7.401 -1.0430  1.1847 -0.4548
18435SOL     OW57557   3.995  10.065   1.262  0.2545 -0.0110 -0.4008
18435SOL    HW157558   4.016   9.972   1.275  1.6730  0.4724  1.1722
18435SOL    HW257559   4.026  10.084   1.173  1.4681 -0.6851 -0.1446
18436SOL     OW57560   8.015   7.107   1.662 -0.0758  0.3756 -1.0644
18436SOL    HW157561   7.963   7.072   1.734 -0.0840 -0.7456 -1.6015
18436SOL    HW257562   8.067   7.033   1.631 -0.7121  0.5929 -2.7735
18437SOL     OW57563   7.366   3.682   6.753 -0.5550  0.4515  0.0439
18437SOL    HW157564   7.458   3.672   6.727 -0.7547 -1.7817  0.0669
18437SOL    HW257565   7.368   3.752   6.818  1.1567  0.3536  0.1562
18438SOL     OW57566   9.389   5.093   1.295 -0.2425 -0.2634  0.5035
18438SOL    HW157567   9.394   5.013   1.348 -0.5083  0.3280  1.4552
18438SOL    HW257568   9.480   5.120   1.283 -0.2162  0.1765  1.5868
18439SOL     OW57569   4.535   4.442   3.404  0.5122  0.1659 -0.0761
18439SOL    HW157570   4.569   4.456   3.492 -0.2046  2.2135 -0.0585
18439SOL    HW257571   4.467   4.375   3.415  0.9984 -0.2105  0.7552
18440SOL     OW57572   8.080   0.983   0.340  0.5315  0.1101  0.0988
18440SOL    HW157573   8.147   1.025   0.395  1.2713  2.5543 -2.4282
18440SOL    HW257574   8.009   1.047   0.337 -1.3045 -1.7384  1.3569
18441SOL     OW57575   8.814   9.287   7.336  0.1387 -0.2473 -0.2075
18441SOL    HW157576   8.745   9.234   7.374  0.3250 -0.1275  0.3071
18441SOL    HW257577   8.792   9.377   7.361  0.3268 -0.1797 -0.2798
18442SOL     OW57578   3.042   0.313   4.629 -0.6875  0.1379  0.5032
18442SOL    HW157579   3.118   0.257   4.641 -0.5049  0.5907  1.5481
18442SOL    HW257580   2.975   0.274   4.686 -0.3733  1.3008  1.7053
18443SOL     OW57581   6.741   0.633   4.357  0.7476 -0.7664 -0.0930
18443SOL    HW157582   6.727   0.539   4.351  0.5351 -0.6606 -3.2582
18443SOL    HW257583   6.666   0.666   4.406  0.1287 -2.1229 -0.0860
18444SOL     OW57584   5.689   3.514   9.614  0.7367  0.0298  0.2117
18444SOL    HW157585   5.760   3.575   9.596  0.4477  0.2801 -0.0841
18444SOL    HW257586   5.613   3.570   9.633 -0.1927 -0.1606 -2.4921
18445SOL     OW57587   6.565   6.584   5.267 -0.5211 -0.0821  0.3026
18445SOL    HW157588   6.648   6.571   5.312  0.7665  0.6015 -1.7244
18445SOL    HW257589   6.551   6.679   5.268 -1.9087 -0.2645  1.6226
18446SOL     OW57590   8.211   1.388   4.240 -0.6710 -0.1229 -0.4630
18446SOL    HW157591   8.280   1.429   4.188  0.3508 -0.6828  0.4187
18446SOL    HW257592   8.136   1.382   4.180 -0.1893  1.1214 -1.2210
18447SOL     OW57593   1.758   8.651   0.199 -0.1465  0.0271 -0.1344
18447SOL    HW157594   1.827   8.712   0.171 -0.1487  0.3954  0.6427
18447SOL    HW257595   1.724   8.689   0.280 -0.9382 -0.4080 -0.2588
18448SOL     OW57596   9.467   4.309   9.057  0.3524  0.0803  0.1774
18448SOL    HW157597   9.513   4.255   9.121 -1.5278 -0.8823  0.8033
18448SOL    HW257598   9.455   4.252   8.981 -0.7244 -0.0881  0.4458
18449SOL     OW57599   4.835   1.455   6.874  0.3944  0.4731  0.1046
18449SOL    HW157600   4.816   1.521   6.940 -0.4479 -0.0294  0.3877
18449SOL    HW257601   4.805   1.494   6.792  0.2368  0.5905  0.2179
18450SOL     OW57602   2.575   2.834   8.076 -0.0044  0.2982  0.0443
18450SOL    HW157603   2.667   2.811   8.065 -0.2143 -0.5296 -0.1015
18450SOL    HW257604   2.536   2.816   7.990 -0.7729 -1.7731  0.7556
18451SOL     OW57605   7.160   4.502   7.727 -0.0551 -0.2577 -0.0355
18451SOL    HW157606   7.187   4.410   7.733 -0.0051 -0.1826  1.2201
18451SOL    HW257607   7.153   4.519   7.633  0.3999 -1.4080 -0.2976
18452SOL     OW57608   2.426   3.361   7.831 -0.0401  0.2257  0.8647
18452SOL    HW157609   2.480   3.371   7.752  0.6353 -0.0396  1.2835
18452SOL    HW257610   2.460   3.427   7.892  0.2344 -0.3590  1.3542
18453SOL     OW57611   8.337   2.519   3.350  0.3566 -0.6504 -0.5182
18453SOL    HW157612   8.390   2.585   3.305 -1.3287  0.8009 -0.4941
18453SOL    HW257613   8.289   2.568   3.416  1.2412 -2.4197  1.5565
18454SOL     OW57614   0.152   4.049  10.225 -0.7903 -0.0858  0.1251
18454SOL    HW157615   0.130   4.142  10.220 -2.5176 -0.4688 -0.1263
18454SOL    HW257616   0.092   4.014  10.291 -0.3575 -1.0712  0.0074
18455SOL     OW57617   2.504   7.466   3.976 -0.5513 -0.1837  0.2114
18455SOL    HW157618   2.454   7.385   3.966 -0.3320 -0.5922  2.0676
18455SOL    HW257619   2.552   7.475   3.894 -0.5958 -1.9164 -0.0412
18456SOL     OW57620   8.069   7.990   2.669 -0.3254  0.0857  0.1484
18456SOL    HW157621   8.104   7.923   2.728  1.5807  0.8136 -0.0927
18456SOL    HW257622   7.976   7.969   2.662  0.4487 -3.6653 -1.3461
18457SOL     OW57623   1.438   6.784   7.810 -0.4928  0.5566 -0.8976
18457SOL    HW157624   1.393   6.856   7.765  0.5863  1.3671 -0.7286
18457SOL    HW257625   1.395   6.779   7.895 -0.3818  1.2340 -0.7894
18458SOL     OW57626   1.634   1.695  10.525  0.0395  0.2377 -0.2423
18458SOL    HW157627   1.715   1.678  10.477 -0.3757 -2.9978 -0.0421
18458SOL    HW257628   1.566   1.649  10.475 -1.1097  0.1714  1.3035
18459SOL     OW57629   0.627   1.524   6.715 -0.0325 -0.3309 -0.2208
18459SOL    HW157630   0.670   1.609   6.701 -0.8927  0.6086  2.3134
18459SOL    HW257631   0.694   1.470   6.757 -0.0812 -0.2171  0.0076
18460SOL     OW57632   2.064   4.304   9.782  0.5683  0.2642 -0.5497
18460SOL    HW157633   2.139   4.244   9.790  0.9656  0.7257 -0.7574
18460SOL    HW257634   1.994   4.250   9.746  0.8441 -0.1390 -0.4903
18461SOL     OW57635   8.512   3.101   5.315  0.2517  0.2147 -0.0897
18461SOL    HW157636   8.590   3.143   5.278 -0.4118  1.3752 -0.1866
18461SOL    HW257637   8.540   3.070   5.401  0.6390  1.2097  0.1492
18462SOL     OW57638   3.073   9.216   0.342  0.1801  0.3931 -0.0450
18462SOL    HW157639   3.108   9.169   0.418  0.1804 -0.2520 -0.4371
18462SOL    HW257640   3.144   9.212   0.277  0.9571  2.6471  0.5895
18463SOL     OW57641   9.362   9.792   1.953  0.0085  0.1620  0.6170
18463SOL    HW157642   9.272   9.761   1.941  0.2053 -0.0207 -0.5854
18463SOL    HW257643   9.353   9.876   1.997 -0.7383  0.0302  0.7327
18464SOL     OW57644   2.910   7.024   9.917  0.5158  0.2167 -0.3883
18464SOL    HW157645   2.960   7.091   9.963  0.7066  0.5348 -1.0456
18464SOL    HW257646   2.943   6.941   9.952 -0.8555  0.4571  1.6171
18465SOL     OW57647   2.868   1.560  10.440  0.3572  0.0786 -0.1375
18465SOL    HW157648   2.831   1.472  10.448 -0.4673  0.4817  0.7009
18465SOL    HW257649   2.877   1.591  10.530  0.9068  0.7465 -0.4145
18466SOL     OW57650   6.015   8.398   7.976  0.1813  0.3133  0.0487
18466SOL    HW157651   5.999   8.493   7.981  0.4739  0.3062  1.9433
18466SOL    HW257652   6.064   8.378   8.056 -1.4347 -1.7334  0.6257
18467SOL     OW57653   1.053   3.199  10.012  0.2335  0.3810 -0.3084
18467SOL    HW157654   1.007   3.266  10.063 -0.7504 -0.1787 -0.4252
18467SOL    HW257655   1.033   3.221   9.921 -0.6577 -0.4393 -0.3269
18468SOL     OW57656   1.498   4.921   6.290  0.6837 -1.3443  0.0749
18468SOL    HW157657   1.569   4.959   6.342  0.0672 -1.9320  1.3953
18468SOL    HW257658   1.473   4.842   6.338 -2.0023 -0.2703  0.6236
18469SOL     OW57659   2.945   5.338   1.091  0.2348  0.5025 -0.3270
18469SOL    HW157660   2.885   5.408   1.116  0.1227  0.0321  0.7946
18469SOL    HW257661   2.985   5.311   1.174  0.0721 -0.9528 -0.7091
18470SOL     OW57662   8.538   0.876   1.871  0.4898  0.1704  0.3496
18470SOL    HW157663   8.579   0.866   1.956  2.5885 -1.4392 -0.7769
18470SOL    HW257664   8.526   0.787   1.838 -2.6454  0.5936 -0.0551
18471SOL     OW57665   5.688   3.100   6.314  0.0433 -0.2596 -0.3626
18471SOL    HW157666   5.679   3.158   6.238 -1.5887 -0.9468 -0.7405
18471SOL    HW257667   5.604   3.107   6.359  0.6135 -0.6864  0.7961
18472SOL     OW57668   9.821   8.720   0.760 -0.1732  0.3129  0.8240
18472SOL    HW157669   9.787   8.754   0.843  0.7363  1.5150  0.7311
18472SOL    HW257670   9.914   8.705   0.776 -0.4119 -1.6119  0.6599
18473SOL     OW57671   0.895   8.724   1.474  0.1432 -0.3697  0.0268
18473SOL    HW157672   0.919   8.813   1.450  1.5145 -0.6181  0.3635
18473SOL    HW257673   0.870   8.729   1.566  0.5161 -0.3718  0.1308
18474SOL     OW57674   5.753   3.998   5.753  0.3013  0.1157 -0.1984
18474SOL    HW157675   5.783   4.002   5.662 -0.1739 -3.6807 -0.6816
18474SOL    HW257676   5.833   3.988   5.805  0.4891  0.9052 -0.3320
18475SOL     OW57677   9.796   4.452   4.580 -0.3885 -0.3224  0.4552
18475SOL    HW157678   9.801   4.482   4.489  1.6092 -1.3623  0.1814
18475SOL    HW257679   9.754   4.366   4.575  1.3977 -1.2223  0.2548
18476SOL     OW57680   7.289   6.391   2.750  0.2577 -0.1354  0.3313
18476SOL    HW157681   7.332   6.309   2.724  0.6264 -0.4500  1.8308
18476SOL    HW257682   7.360   6.453   2.760 -0.1505  0.9367 -2.4902
18477SOL     OW57683   9.943   9.048   8.587 -0.4760  0.1747 -0.3371
18477SOL    HW157684   9.969   9.138   8.567  1.9292 -0.5559 -0.8240
18477SOL    HW257685   9.934   9.006   8.502 -0.7944 -0.2474 -0.1001
18478SOL     OW57686   4.476   9.813   4.510 -0.3880  0.3512  0.0448
18478SOL    HW157687   4.504   9.887   4.564  0.3735 -0.5689  0.9349
18478SOL    HW257688   4.424   9.759   4.568 -0.1757 -0.2764 -0.3393
18479SOL     OW57689   9.716   7.194   9.157  0.2523 -0.5234  0.6738
18479SOL    HW157690   9.714   7.160   9.067  0.8762 -1.0656  0.8572
18479SOL    HW257691   9.805   7.177   9.186  0.8608  1.9784  0.5117
18480SOL     OW57692   6.217   8.778   8.609 -0.1983  0.2956  0.1998
18480SOL    HW157693   6.256   8.823   8.534  0.4978 -0.7332 -0.0852
18480SOL    HW257694   6.281   8.710   8.632  0.0282  1.1579  2.3125
18481SOL     OW57695   8.814   3.367   1.029 -0.4690 -0.1300  0.3241
18481SOL    HW157696   8.759   3.418   0.970 -0.2218 -1.7970 -1.4409
18481SOL    HW257697   8.844   3.430   1.094 -0.6815  1.8315 -1.3769
18482SOL     OW57698   3.216   4.968   8.695 -0.2383  0.0502  0.2675
18482SOL    HW157699   3.197   4.953   8.788  0.5174 -0.3821  0.3605
18482SOL    HW257700   3.189   5.059   8.680  1.5057  0.8113  1.4409
18483SOL     OW57701   5.149   4.401   1.784 -0.0318 -0.5657  0.3256
18483SOL    HW157702   5.123   4.316   1.749 -1.4631  0.2845 -0.8149
18483SOL    HW257703   5.186   4.381   1.870  0.8097 -2.4365 -0.4199
18484SOL     OW57704   7.906   2.780   1.611 -0.1631  0.3817 -0.3346
18484SOL    HW157705   8.000   2.787   1.600 -0.2972  1.6431 -0.8093
18484SOL    HW257706   7.881   2.860   1.658 -0.8033 -0.6698  1.2144
18485SOL     OW57707   8.183   0.859   5.463  0.1140 -0.1151  0.1618
18485SOL    HW157708   8.099   0.827   5.496 -0.6462  0.8314 -0.7692
18485SOL    HW257709   8.189   0.949   5.495 -0.0257  0.3772 -1.1270
18486SOL     OW57710   1.993   5.310   0.688  0.2345  0.7072  0.4129
18486SOL    HW157711   2.037   5.243   0.741  2.2178  1.2915 -0.3962
18486SOL    HW257712   1.944   5.362   0.752  1.1216  0.3161  1.4461
18487SOL     OW57713   1.590   0.544   9.172  0.4855 -0.1990  0.0254
18487SOL    HW157714   1.647   0.621   9.183  1.4205 -0.8875  0.0957
18487SOL    HW257715   1.632   0.475   9.223  0.0488 -0.9654 -0.6252
18488SOL     OW57716   7.726   2.860   2.656 -0.5036 -0.1217  0.4253
18488SOL    HW157717   7.676   2.942   2.660  0.2759  0.4377 -0.6088
18488SOL    HW257718   7.715   2.829   2.567  0.8246 -0.0759  0.2172
18489SOL     OW57719   4.386   2.699   3.434  0.1722  0.3506 -0.3633
18489SOL    HW157720   4.316   2.764   3.436 -1.4859 -1.3271 -0.4684
18489SOL    HW257721   4.379   2.654   3.518  0.8975 -0.0677 -0.5203
18490SOL     OW57722   7.132   7.847   7.270 -0.3582  0.0477 -0.1626
18490SOL    HW157723   7.213   7.799   7.251 -0.5163 -0.6305  0.7997
18490SOL    HW257724   7.064   7.798   7.225 -0.7097 -1.4654  1.8522
18491SOL     OW57725   5.347   1.152   5.165 -0.0296  0.1969 -0.3468
18491SOL    HW157726   5.324   1.241   5.191 -0.6720 -0.3073  0.9365
18491SOL    HW257727   5.357   1.156   5.070  0.5352  1.7468 -0.2485
18492SOL     OW57728   6.134   9.124   7.014 -0.9759 -0.5746  0.5688
18492SOL    HW157729   6.066   9.068   6.977 -1.2021 -0.1191  0.2899
18492SOL    HW257730   6.185   9.153   6.938 -1.7999  0.8432  0.5275
18493SOL     OW57731   3.022   8.260   4.685  0.0412 -0.0325 -0.0640
18493SOL    HW157732   3.056   8.195   4.624 -1.1206  1.3161 -2.2762
18493SOL    HW257733   2.963   8.210   4.743 -0.5300 -1.0213 -1.4514
18494SOL     OW57734   9.687   3.048   3.109 -0.1409  0.2143 -0.5172
18494SOL    HW157735   9.758   2.994   3.143 -0.5331 -0.3873 -0.6214
18494SOL    HW257736   9.608   3.011   3.150 -0.4200  0.6836 -0.6237
18495SOL     OW57737   7.029   9.010   4.001  0.2898 -0.2820 -0.1136
18495SOL    HW157738   6.973   8.936   3.976 -1.7206  1.4328 -0.9733
18495SOL    HW257739   7.118   8.979   3.983 -0.6038 -1.7901 -2.4694
18496SOL     OW57740   7.272   1.908   8.602  0.3173 -0.0152  0.2360
18496SOL    HW157741   7.322   1.959   8.667  0.0472  0.7690 -0.1603
18496SOL    HW257742   7.218   1.849   8.655  0.7122  0.0324  0.7022
18497SOL     OW57743   2.162   5.811   4.495  0.0757  0.3557 -0.5341
18497SOL    HW157744   2.159   5.827   4.589  0.5948  3.0869 -0.9020
18497SOL    HW257745   2.255   5.814   4.473  0.0392 -1.2524 -1.0346
18498SOL     OW57746   2.195   5.602   7.791 -0.1343  0.0432 -0.0749
18498SOL    HW157747   2.148   5.590   7.874 -0.3722 -0.2990 -0.2576
18498SOL    HW257748   2.282   5.566   7.808 -0.5856 -1.2441 -0.3676
18499SOL     OW57749   9.567  10.279   9.502  0.1352 -0.8986  0.2867
18499SOL    HW157750   9.621  10.254   9.427 -1.2457  1.2915 -1.5613
18499SOL    HW257751   9.483  10.237   9.486 -0.7775  1.1132 -0.4821
18500SOL     OW57752   5.259   3.811   3.624 -1.0192 -0.2317 -0.2631
18500SOL    HW157753   5.198   3.807   3.697 -0.5340 -0.5108  0.1411
18500SOL    HW257754   5.224   3.878   3.566  0.1397  2.2262  1.6546
18501SOL     OW57755   3.195   0.893   1.398  0.0775  0.1601  0.4033
18501SOL    HW157756   3.131   0.825   1.420 -0.6975  0.4862 -0.7731
18501SOL    HW257757   3.274   0.867   1.445 -0.7242 -0.5884  1.3930
18502SOL     OW57758   2.825   6.123   6.719 -0.4105  0.0052  0.4323
18502SOL    HW157759   2.742   6.089   6.750 -0.0399  0.6501  2.2515
18502SOL    HW257760   2.857   6.057   6.657 -2.4751 -0.0071 -0.6913
18503SOL     OW57761   5.256   7.860   1.681  0.2872  0.3910 -0.5012
18503SOL    HW157762   5.194   7.788   1.687 -0.1468  0.6783 -1.3675
18503SOL    HW257763   5.217   7.920   1.618  0.5370  1.4900  0.3520
18504SOL     OW57764   8.961   9.563   0.878  0.2288  0.2079 -0.1544
18504SOL    HW157765   8.960   9.484   0.824 -0.2792  0.0144  0.1316
18504SOL    HW257766   8.889   9.551   0.939  0.4194  0.7013  0.1734
18505SOL     OW57767   3.214   2.127   2.147 -0.4989 -0.2765  0.3509
18505SOL    HW157768   3.241   2.056   2.206 -1.2042  0.6697  1.8945
18505SOL    HW257769   3.248   2.206   2.188  0.8564  0.2660 -1.6891
18506SOL     OW57770   3.860   1.558   1.565  0.0333  0.0376  0.0251
18506SOL    HW157771   3.922   1.573   1.637 -0.4440 -0.4229  0.5398
18506SOL    HW257772   3.780   1.529   1.608 -0.5980  0.7836 -0.6257
18507SOL     OW57773   2.882   8.156   5.809 -0.5014  0.1137 -0.2087
18507SOL    HW157774   2.800   8.125   5.770 -1.6279  2.6605 -0.1083
18507SOL    HW257775   2.855   8.230   5.864  1.8484  0.8755  0.0257
18508SOL     OW57776   1.907   9.616   1.048 -0.2894  0.5362  0.0020
18508SOL    HW157777   1.955   9.576   1.120  0.0486  0.4991 -0.2392
18508SOL    HW257778   1.849   9.548   1.016  2.9620 -1.1955 -2.9292
18509SOL     OW57779   1.750   9.425   6.504 -0.4774  0.3068 -0.1604
18509SOL    HW157780   1.721   9.343   6.543 -0.1259  0.9649  1.5613
18509SOL    HW257781   1.806   9.398   6.430 -0.4083 -0.9989  0.3469
18510SOL     OW57782   5.600   2.665  10.597 -0.6149 -0.5134 -0.3200
18510SOL    HW157783   5.603   2.619  10.680 -1.6483 -2.3971 -1.2607
18510SOL    HW257784   5.513   2.705  10.594 -0.2922  0.2199 -0.1773
18511SOL     OW57785   8.860   9.201   1.462 -0.7098 -0.2560  0.1723
18511SOL    HW157786   8.914   9.277   1.483 -3.2456  1.6395  0.1672
18511SOL    HW257787   8.846   9.206   1.367 -2.1427  0.1960  0.3854
18512SOL     OW57788   9.193   6.907   7.642  0.2178  0.1814 -0.1853
18512SOL    HW157789   9.228   6.949   7.721  0.8405  0.0373 -0.3809
18512SOL    HW257790   9.153   6.979   7.593 -0.1483  0.2787  0.2361
18513SOL     OW57791   0.725   3.077   9.322 -0.3476  0.4816  0.4254
18513SOL    HW157792   0.711   2.996   9.371 -0.2587 -0.0428 -0.3943
18513SOL    HW257793   0.677   3.144   9.371 -0.3955 -0.0576  1.1256
18514SOL     OW57794   1.044  10.174   4.734  0.0589 -0.8121  0.3114
18514SOL    HW157795   0.961  10.127   4.730  0.7953 -2.4017  1.8870
18514SOL    HW257796   1.034  10.235   4.808  0.4300 -1.3752  0.8412
18515SOL     OW57797   4.920   3.201   0.201  0.0997  0.0798 -0.7742
18515SOL    HW157798   4.853   3.205   0.133 -0.4475 -1.1272 -0.3320
18515SOL    HW257799   4.932   3.108   0.218  1.9227  0.2684 -0.8532
18516SOL     OW57800   1.666   3.471   0.582  0.0066 -0.3553 -0.0160
18516SOL    HW157801   1.705   3.559   0.579  1.2277 -0.8909 -0.5976
18516SOL    HW257802   1.673   3.445   0.673  2.1256 -0.8752 -0.2622
18517SOL     OW57803   9.621   5.682   1.001 -0.1927  0.3945 -0.0953
18517SOL    HW157804   9.669   5.765   0.995  0.4110  0.1583  1.2686
18517SOL    HW257805   9.529   5.708   1.003 -0.0464  0.9737 -0.5627
18518SOL     OW57806   4.944   0.029   1.323 -0.2199  0.2727  0.3299
18518SOL    HW157807   4.865   0.022   1.376 -0.5109  1.1808  0.0282
18518SOL    HW257808   5.008  -0.027   1.369 -1.3625 -1.4825 -0.1129
18519SOL     OW57809   1.077   8.074   8.175  0.7652  0.4054  0.7202
18519SOL    HW157810   1.091   8.148   8.116 -2.5957  0.2861 -0.4566
18519SOL    HW257811   1.118   8.000   8.132  0.7078  0.8414 -0.0980
18520SOL     OW57812   2.524   6.085   3.610  0.6512  0.4760 -0.1276
18520SOL    HW157813   2.436   6.048   3.617  0.9117  0.0397  1.2222
18520SOL    HW257814   2.567   6.031   3.543  0.1826  0.0805 -0.1207
18521SOL     OW57815   3.999   6.844   8.840  0.6976  0.1117 -0.5172
18521SOL    HW157816   3.986   6.873   8.750  0.3571 -1.0727 -0.8807
18521SOL    HW257817   4.080   6.793   8.837  0.2375 -0.6556 -0.3666
18522SOL     OW57818   6.975   5.427   8.634 -0.2965 -0.0003  0.2138
18522SOL    HW157819   7.000   5.515   8.606  0.6419 -0.0015  0.9787
18522SOL    HW257820   6.982   5.429   8.730 -4.5250  0.3457  0.7040
18523SOL     OW57821   0.297   6.544   5.819  0.1973 -0.3968  0.1151
18523SOL    HW157822   0.279   6.629   5.779  0.2996  0.0008  0.8779
18523SOL    HW257823   0.212   6.500   5.824  0.3283 -0.8599 -1.4077
18524SOL     OW57824   8.190  10.624   2.893  0.0291  0.0831  0.1389
18524SOL    HW157825   8.239  10.690   2.844  0.3624  0.8333  1.4292
18524SOL    HW257826   8.188  10.657   2.983  0.6838 -1.9096  0.9513
18525SOL     OW57827   1.560   1.400   4.110  0.1998  0.8031 -0.3086
18525SOL    HW157828   1.510   1.363   4.037 -0.1558 -2.7102  1.4951
18525SOL    HW257829   1.496   1.413   4.179  0.9910  0.9731  0.4117
18526SOL     OW57830   9.887   9.756   1.454 -0.0416  0.2193 -0.4405
18526SOL    HW157831   9.810   9.724   1.408 -0.0559  0.0358 -0.2884
18526SOL    HW257832   9.959   9.745   1.392 -0.5389  2.8507 -1.6074
18527SOL     OW57833   9.431   3.088   0.262 -0.4385 -0.2735 -1.0138
18527SOL    HW157834   9.434   2.993   0.248 -1.0263 -0.2869 -1.0654
18527SOL    HW257835   9.345   3.104   0.299  0.3549  0.0080  0.8221
18528SOL     OW57836   2.629   7.284   1.338  0.5461 -0.5067  0.1971
18528SOL    HW157837   2.548   7.313   1.379  1.7520  0.3188  2.0953
18528SOL    HW257838   2.664   7.361   1.294  0.8980 -0.5341  0.4191
18529SOL     OW57839  10.343   2.756   2.660  0.4171 -0.7558  0.3355
18529SOL    HW157840  10.361   2.662   2.658 -0.9265 -1.0524  0.7995
18529SOL    HW257841  10.421   2.797   2.622  1.3973 -1.9955  0.9449
18530SOL     OW57842   8.477   2.728   3.200  0.1809 -0.1846  0.1202
18530SOL    HW157843   8.412   2.731   3.130  0.2109 -1.6388  0.0060
18530SOL    HW257844   8.475   2.816   3.238 -1.5651 -0.0766 -0.1406
18531SOL     OW57845   8.192   9.390   5.115  0.0232 -0.4717 -1.0411
18531SOL    HW157846   8.193   9.430   5.028  0.0539  1.3679 -0.2412
18531SOL    HW257847   8.107   9.413   5.152 -0.0613 -1.3866 -0.6492
18532SOL     OW57848   3.485   1.271   4.046 -0.4042 -0.5662 -0.1209
18532SOL    HW157849   3.413   1.242   4.102 -0.5632 -1.1113 -0.5930
18532SOL    HW257850   3.500   1.362   4.071 -0.3671 -0.8455  0.9088
18533SOL     OW57851   6.715   8.544   7.159  0.0231 -0.0725 -0.0843
18533SOL    HW157852   6.644   8.492   7.196 -0.0130  0.6165  0.8533
18533SOL    HW257853   6.781   8.480   7.135 -0.8945 -0.7299 -0.9656
18534SOL     OW57854   2.849   6.412   0.504 -0.0361  0.4800  0.0167
18534SOL    HW157855   2.909   6.486   0.516  0.1788  0.2304  0.5107
18534SOL    HW257856   2.891   6.356   0.440  0.5446  0.0168  0.7869
18535SOL     OW57857   4.968  10.634   6.251 -0.6439 -0.3478  0.2021
18535SOL    HW157858   5.016  10.554   6.231 -0.3272 -0.3659  1.0074
18535SOL    HW257859   5.029  10.686   6.302 -1.8457 -0.8639  2.2670
18536SOL     OW57860   9.170   8.910   1.812 -0.8563 -0.0567  0.0532
18536SOL    HW157861   9.106   8.840   1.816 -0.0991 -0.7261  0.5987
18536SOL    HW257862   9.124   8.987   1.847 -1.3399 -0.5315  0.4600
18537SOL     OW57863   9.197   5.327   9.479 -0.1318  0.2698  0.3709
18537SOL    HW157864   9.125   5.336   9.416  0.2933  2.0222  0.0875
18537SOL    HW257865   9.163   5.366   9.559  0.1110  0.0791  0.5651
18538SOL     OW57866   3.775   3.423   6.047  0.1096  0.4293 -0.4563
18538SOL    HW157867   3.752   3.366   5.974  0.5844  0.4737 -0.6446
18538SOL    HW257868   3.864   3.452   6.027  0.6788 -0.4463  0.6990
18539SOL     OW57869   6.356   5.391   0.861  0.3084  0.0050 -0.3619
18539SOL    HW157870   6.424   5.360   0.802 -1.0981 -0.6009 -1.7386
18539SOL    HW257871   6.391   5.376   0.949  2.7138  1.4972 -0.9675
18540SOL     OW57872   9.799   9.871   1.166 -0.6008 -0.7751 -0.2324
18540SOL    HW157873   9.823   9.943   1.224  1.0319 -1.6094  0.1966
18540SOL    HW257874   9.828   9.900   1.079 -0.7699 -0.5517 -0.2154
18541SOL     OW57875   0.698   3.457   5.026 -0.1772 -0.0749 -0.6113
18541SOL    HW157876   0.711   3.547   5.056  1.0097  0.1554 -1.7225
18541SOL    HW257877   0.781   3.433   4.984 -1.0137 -1.1210 -1.7448
18542SOL     OW57878   0.329   4.797   5.233 -0.3697  0.0952 -0.3126
18542SOL    HW157879   0.357   4.863   5.169  0.7983 -1.4958 -1.5458
18542SOL    HW257880   0.273   4.844   5.294 -0.4855  1.9710 -1.7788
18543SOL     OW57881   8.907  10.318   4.469 -0.5499  0.1288 -0.1351
18543SOL    HW157882   8.940  10.234   4.438  3.1918  1.3359  0.0802
18543SOL    HW257883   8.901  10.372   4.390 -0.8946  0.2610 -0.0179
18544SOL     OW57884   2.249   3.214   3.791  0.4787 -0.1994 -0.6463
18544SOL    HW157885   2.235   3.174   3.877  0.0143 -0.2686 -0.7506
18544SOL    HW257886   2.249   3.139   3.731  1.2720 -0.1951 -0.6535
18545SOL     OW57887   3.832   9.225   3.521  0.0527  0.4453  0.2325
18545SOL    HW157888   3.816   9.280   3.445 -2.2288  1.6502  1.4698
18545SOL    HW257889   3.887   9.154   3.489 -0.2436  1.2970 -2.3506
18546SOL     OW57890   0.303   7.504   4.480  0.1082 -0.3280  0.0414
18546SOL    HW157891   0.263   7.524   4.396  0.2109 -0.1082  0.0431
18546SOL    HW257892   0.233   7.463   4.531  0.6766 -2.7388 -0.9748
18547SOL     OW57893   2.145   6.547   1.796  0.4988 -0.1479  0.2851
18547SOL    HW157894   2.108   6.604   1.864  0.8210  0.2002  0.1665
18547SOL    HW257895   2.225   6.591   1.768  1.2507 -1.1122  0.8504
18548SOL     OW57896   8.082   7.715   2.398 -0.2531  0.2766 -0.3765
18548SOL    HW157897   8.094   7.807   2.374 -1.1650  1.5022  3.3110
18548SOL    HW257898   7.996   7.693   2.361 -0.8039  1.4668  0.1196
18549SOL     OW57899   5.925   1.962   4.851 -0.2363  0.4890 -0.5091
18549SOL    HW157900   5.902   1.870   4.861  1.1978  0.1656  0.1656
18549SOL    HW257901   5.881   1.989   4.771  1.5995 -1.6020 -2.3666
18550SOL     OW57902   2.593   0.985   2.869  0.2307 -0.4518  0.6130
18550SOL    HW157903   2.618   1.018   2.955 -0.2810  1.5455  0.0581
18550SOL    HW257904   2.638   0.901   2.861  2.5383  0.5892  1.7117
18551SOL     OW57905   6.890   9.334   5.904 -0.0690 -0.0739 -0.2495
18551SOL    HW157906   6.900   9.251   5.858  1.4903  0.5116 -1.0393
18551SOL    HW257907   6.976   9.349   5.944 -0.0822  1.5113 -0.7632
18552SOL     OW57908   2.307   1.985  10.240  0.7259  0.1165 -0.5797
18552SOL    HW157909   2.291   2.056  10.301 -0.5437 -0.6932  0.0676
18552SOL    HW257910   2.395   1.953  10.263  0.0597 -0.5383  1.2343
18553SOL     OW57911   6.988   6.432   5.658  0.0216  0.2259 -0.0572
18553SOL    HW157912   6.912   6.471   5.701 -0.4990  0.4702 -1.1658
18553SOL    HW257913   7.060   6.447   5.718 -0.9285 -0.6139  1.3472
18554SOL     OW57914   2.190   1.041  10.637  0.2363  0.6728 -0.0071
18554SOL    HW157915   2.165   0.958  10.677 -0.1282  0.0917 -1.3830
18554SOL    HW257916   2.196   1.103  10.711 -2.3330  0.1448  0.7272
18555SOL     OW57917   0.435   6.642   9.476 -0.2056 -0.6188  0.3555
18555SOL    HW157918   0.392   6.590   9.544 -2.4252 -0.2547 -0.6590
18555SOL    HW257919   0.391   6.615   9.395 -0.3533  1.6744 -0.4014
18556SOL     OW57920   4.729   2.959   1.145  0.2954 -0.3412 -0.5654
18556SOL    HW157921   4.808   2.905   1.139  0.9890  0.5906 -0.1407
18556SOL    HW257922   4.719   2.997   1.058  0.9431  0.3709 -0.3418
18557SOL     OW57923   6.778   7.904   7.943 -0.0209  0.0349  0.3499
18557SOL    HW157924   6.849   7.872   7.888  0.7624  0.5804  1.0320
18557SOL    HW257925   6.774   7.841   8.015 -2.0891 -1.5983 -1.0676
18558SOL     OW57926   2.061   0.477   1.640 -0.2902  0.0464 -0.3876
18558SOL    HW157927   2.147   0.436   1.649 -1.2534 -1.9376  0.6160
18558SOL    HW257928   2.050   0.528   1.720 -0.4317 -0.5475 -0.0174
18559SOL     OW57929   2.211   6.432   9.263 -0.4740 -0.4669  0.2139
18559SOL    HW157930   2.134   6.467   9.307 -0.0124 -1.0668  1.5374
18559SOL    HW257931   2.176   6.369   9.199 -1.0927 -0.3513  0.4323
18560SOL     OW57932   5.547   2.888   6.595  0.6415 -0.0639  0.8521
18560SOL    HW157933   5.494   2.811   6.614  0.1377  0.3804  1.2694
18560SOL    HW257934   5.500   2.933   6.525  1.0064 -0.2019  0.5115
18561SOL     OW57935   8.597   3.965   9.166 -0.4337  0.5274  0.4151
18561SOL    HW157936   8.575   3.872   9.159 -0.4611  0.6504 -1.8540
18561SOL    HW257937   8.528   4.010   9.118  1.7013  1.3434 -2.1672
18562SOL     OW57938   6.395   5.245   1.887 -0.1517  0.3241 -0.2498
18562SOL    HW157939   6.416   5.240   1.794  0.0568 -0.7744 -0.1579
18562SOL    HW257940   6.311   5.201   1.895 -1.1772  2.1780 -0.1853
18563SOL     OW57941   8.843   5.184   4.361  0.5078  0.1877 -0.8367
18563SOL    HW157942   8.805   5.139   4.436  1.0434 -0.6130 -1.0327
18563SOL    HW257943   8.899   5.252   4.400  0.0588  0.3821 -0.5303
18564SOL     OW57944   4.374   7.380   1.345 -0.4071 -0.0194 -0.1807
18564SOL    HW157945   4.306   7.445   1.362 -0.0486  0.4461 -0.5206
18564SOL    HW257946   4.455   7.421   1.374  0.1864  0.6914 -2.6675
18565SOL     OW57947   5.476   3.979   4.465 -0.1163  0.5507  0.9616
18565SOL    HW157948   5.489   3.922   4.540  2.1478  0.4582  0.5779
18565SOL    HW257949   5.540   4.049   4.477  1.3535 -0.2268 -1.5231
18566SOL     OW57950   2.277   7.444   4.855 -0.4893  0.6444  0.0254
18566SOL    HW157951   2.190   7.466   4.824  0.0693 -0.2208 -2.3475
18566SOL    HW257952   2.303   7.367   4.804  1.9038  1.2480  0.1861
18567SOL     OW57953  10.331   9.782   2.008  0.5905  0.6276  0.2396
18567SOL    HW157954  10.414   9.771   2.055 -0.3221  0.9196  2.0151
18567SOL    HW257955  10.327   9.875   1.986  0.9098  0.5360 -0.2122
18568SOL     OW57956   9.280   0.183   9.367  0.4080 -0.1824  0.2375
18568SOL    HW157957   9.362   0.162   9.413 -0.3840  0.3114  1.9857
18568SOL    HW257958   9.271   0.114   9.301  1.0260 -1.6742  1.6402
18569SOL     OW57959   8.288  10.194   0.603 -0.2974 -0.4936  0.2678
18569SOL    HW157960   8.358  10.135   0.631  0.7755  0.4294 -0.4024
18569SOL    HW257961   8.266  10.244   0.682  1.0915  0.4906  0.0441
18570SOL     OW57962   8.754  10.361   2.269 -0.6020 -0.5927  0.3003
18570SOL    HW157963   8.795  10.276   2.259 -0.7259 -0.6544  0.3115
18570SOL    HW257964   8.662  10.342   2.289 -0.5808 -0.4596  0.5269
18571SOL     OW57965   6.913   7.992   0.417 -0.3321  0.0823 -0.8738
18571SOL    HW157966   6.845   7.943   0.371 -0.8741 -0.4228  0.4090
18571SOL    HW257967   6.974   7.925   0.448  0.8707  0.5444 -2.1403
18572SOL     OW57968   0.276   3.547   3.865 -0.5090  0.8934 -0.3457
18572SOL    HW157969   0.298   3.569   3.955 -0.1550  1.7180 -0.6255
18572SOL    HW257970   0.343   3.484   3.839 -0.7892  0.4222  0.0572
18573SOL     OW57971   6.426   4.438   3.599 -0.0933  0.6553  0.4514
18573SOL    HW157972   6.368   4.456   3.673 -1.7266 -0.8408 -0.4138
18573SOL    HW257973   6.479   4.364   3.627 -0.7612  0.0427  0.1304
18574SOL     OW57974   8.130   0.161   8.181 -0.6407 -0.0820  0.3687
18574SOL    HW157975   8.167   0.205   8.257  0.8476  0.7188 -0.7644
18574SOL    HW257976   8.198   0.099   8.154 -0.5451  0.6100 -1.0880
18575SOL     OW57977   1.242   2.601   3.772 -0.0886  0.7246  0.1881
18575SOL    HW157978   1.257   2.540   3.700 -0.7007  0.5172  0.2247
18575SOL    HW257979   1.156   2.638   3.754 -0.2847  0.6058  0.8561
18576SOL     OW57980   6.097   0.719   7.473  0.2176 -0.3004 -0.6400
18576SOL    HW157981   6.030   0.699   7.408  0.3818 -0.2924 -0.8130
18576SOL    HW257982   6.075   0.808   7.503  0.9092  0.2457 -1.6649
18577SOL     OW57983   8.807   6.050   5.239 -0.5425  0.5515  0.3325
18577SOL    HW157984   8.796   6.055   5.335 -0.2693 -2.0762  0.5611
18577SOL    HW257985   8.882   6.107   5.221  0.1422  0.1892  1.8454
18578SOL     OW57986  10.365   3.879   6.680 -0.5077  0.0352 -0.1165
18578SOL    HW157987  10.422   3.942   6.724 -1.1589  0.5885 -0.0649
18578SOL    HW257988  10.303   3.852   6.747 -1.1542  0.4566 -0.5434
18579SOL     OW57989   7.636   2.249   3.517 -0.0094 -0.0399 -0.0134
18579SOL    HW157990   7.623   2.272   3.425 -0.0399 -1.3773 -0.3714
18579SOL    HW257991   7.561   2.193   3.538 -0.7287  1.3571  1.2422
18580SOL     OW57992   7.670   1.905   2.018 -0.0345 -0.0578 -0.1899
18580SOL    HW157993   7.591   1.854   1.998  0.1937  0.1069 -1.5407
18580SOL    HW257994   7.724   1.899   1.939  0.9947  0.4351  0.4531
18581SOL     OW57995   0.779   2.751   0.332 -0.2992  0.5014 -0.3139
18581SOL    HW157996   0.774   2.786   0.243  1.0927  1.2354 -0.1442
18581SOL    HW257997   0.789   2.829   0.387 -0.2373  0.0046  0.3814
18582SOL     OW57998   8.984   0.340   9.885  0.0747 -0.1626 -0.3574
18582SOL    HW157999   8.925   0.348   9.810  1.0942  0.6688 -1.0956
18582SOL    HW258000   8.951   0.402   9.949  0.9596  1.3881 -1.3477
18583SOL     OW58001   4.663   0.064   8.878 -0.1732  0.1417 -0.1009
18583SOL    HW158002   4.572   0.091   8.893 -0.4482 -0.3945 -0.7294
18583SOL    HW258003   4.695   0.039   8.964 -0.9085 -0.5084 -0.0081
18584SOL     OW58004  10.061   8.220   0.483  0.5113  0.5490  0.2049
18584SOL    HW158005   9.987   8.271   0.514  0.5309  0.9692 -0.4250
18584SOL    HW258006  10.021   8.147   0.435  0.5071  0.7451 -0.0880
18585SOL     OW58007   1.990   5.046   2.596 -0.1523 -0.2506 -0.0119
18585SOL    HW158008   2.067   4.989   2.603  0.0968 -0.1529 -1.6858
18585SOL    HW258009   1.919   4.986   2.573 -0.6947 -0.3850  1.8017
18586SOL     OW58010   9.803   7.427   4.372 -0.2656  0.7113  0.1528
18586SOL    HW158011   9.735   7.479   4.415  1.3393  1.9748  1.2941
18586SOL    HW258012   9.807   7.463   4.283 -1.5016  0.1638 -0.1564
18587SOL     OW58013   5.995   9.961   7.743 -0.2809  0.3449  0.0246
18587SOL    HW158014   6.003   9.878   7.791 -1.1823  0.2965  0.1096
18587SOL    HW258015   6.084   9.979   7.711  0.4993  0.6886  2.2240
18588SOL     OW58016   4.580   4.454   0.351  0.1440  0.1447  0.3239
18588SOL    HW158017   4.675   4.461   0.345 -0.0689  3.2858 -1.5837
18588SOL    HW258018   4.560   4.464   0.444  1.5768  1.8725  0.4791
18589SOL     OW58019   7.400   0.381   6.045  0.0927  0.8882  0.2788
18589SOL    HW158020   7.385   0.297   6.000 -1.0636  0.7945  0.8145
18589SOL    HW258021   7.436   0.438   5.977 -0.4767  0.3811 -0.4620
18590SOL     OW58022   6.974   2.149   0.115 -0.6139  0.4340  0.0462
18590SOL    HW158023   6.951   2.167   0.206 -2.6955  0.2015 -0.3924
18590SOL    HW258024   6.898   2.103   0.079  0.9213 -1.2511 -1.3035
18591SOL     OW58025   0.822   8.518   2.410 -0.0956  0.3594  0.6280
18591SOL    HW158026   0.817   8.603   2.367  1.6734  0.6912  1.0063
18591SOL    HW258027   0.735   8.505   2.447 -1.7560  0.0394 -2.9703
18592SOL     OW58028   2.394   0.036   1.016 -0.2239 -0.0267  0.6863
18592SOL    HW158029   2.364  -0.052   1.039  1.0756 -0.6792  0.0236
18592SOL    HW258030   2.479   0.044   1.060 -0.3814  0.9501  0.8383
18593SOL     OW58031   0.364   6.922   8.604  0.1747 -0.0843  0.5119
18593SOL    HW158032   0.313   6.969   8.670  0.2185  0.1792  0.3622
18593SOL    HW258033   0.437   6.884   8.652  1.6172  2.1614  0.2909
18594SOL     OW58034   9.654   4.699  10.168  0.2576 -0.2568  0.1031
18594SOL    HW158035   9.654   4.613  10.125  0.9465 -0.3950  0.3669
18594SOL    HW258036   9.677   4.761  10.099 -0.5248 -0.2386 -0.1551
18595SOL     OW58037   3.873  10.084   8.383 -0.1731 -0.4355 -0.3242
18595SOL    HW158038   3.824  10.147   8.435 -1.4337 -0.1857 -1.7334
18595SOL    HW258039   3.834  10.000   8.404  0.1194 -0.4817  0.0270
18596SOL     OW58040   0.961   3.977   2.716  0.0178 -0.5927  0.1649
18596SOL    HW158041   0.943   3.891   2.678  3.3472 -0.4897 -2.0873
18596SOL    HW258042   1.003   4.026   2.645  1.9863  1.4429  2.5565
18597SOL     OW58043   2.704   3.473   8.916  0.2480  0.1743  0.3546
18597SOL    HW158044   2.727   3.399   8.971  3.3509  0.8439  0.1556
18597SOL    HW258045   2.737   3.450   8.829  1.1412  1.6688  0.2508
18598SOL     OW58046   8.603   2.785   7.251  0.0667 -0.0750  0.2938
18598SOL    HW158047   8.627   2.704   7.206  1.9436  0.4901  0.1885
18598SOL    HW258048   8.665   2.850   7.218  0.1696  0.8424  2.1640
18599SOL     OW58049  10.049   3.558   3.252  0.5929  0.4843  0.0268
18599SOL    HW158050  10.112   3.597   3.190  2.8793 -1.7895  0.7250
18599SOL    HW258051  10.085   3.472   3.270  0.1340  1.0189  4.6251
18600SOL     OW58052   4.900   9.963   0.480 -0.1496 -0.4119 -0.3614
18600SOL    HW158053   4.856  10.048   0.489 -0.3634 -0.7067  2.1109
18600SOL    HW258054   4.889   9.941   0.388  0.8829  2.7298 -1.3858
18601SOL     OW58055   6.737   8.903   2.300 -0.1499  0.3028 -0.2990
18601SOL    HW158056   6.687   8.938   2.226  0.6805  1.0797 -0.5091
18601SOL    HW258057   6.671   8.877   2.364 -0.8442  0.5015 -0.9258
18602SOL     OW58058   0.687   3.769  10.456 -0.1240 -0.6085  0.1309
18602SOL    HW158059   0.682   3.736  10.366 -1.2126  0.0150 -0.0419
18602SOL    HW258060   0.686   3.864  10.448 -2.9513 -0.4923  0.8995
18603SOL     OW58061   4.630   7.580   5.346  0.7763 -0.1862  0.1768
18603SOL    HW158062   4.695   7.556   5.412  1.4099 -0.0996 -0.4051
18603SOL    HW258063   4.674   7.646   5.293  0.5998 -0.8797 -0.8629
18604SOL     OW58064   4.455   4.687   5.256  0.4773 -0.8439 -0.3709
18604SOL    HW158065   4.466   4.655   5.345  1.0737 -1.5762 -0.6907
18604SOL    HW258066   4.366   4.721   5.252  1.1704  1.3618  1.1540
18605SOL     OW58067   6.064   9.360   7.623 -0.2684  0.1973  0.0304
18605SOL    HW158068   6.124   9.430   7.596  0.7360 -1.1611 -1.4384
18605SOL    HW258069   6.093   9.283   7.574 -1.7273 -1.1158  1.1244
18606SOL     OW58070   8.342   1.941   4.336  0.0922  0.0128  1.0004
18606SOL    HW158071   8.307   1.852   4.333 -0.4261  0.2343 -0.0226
18606SOL    HW258072   8.388   1.946   4.419  0.8434 -1.4911  0.7186
18607SOL     OW58073   6.399   9.734   5.501  0.2831 -0.6046 -0.3311
18607SOL    HW158074   6.336   9.758   5.433 -0.1788  0.3507  0.4083
18607SOL    HW258075   6.396   9.638   5.504 -1.5871 -0.5714  0.0827
18608SOL     OW58076   7.625   4.564   3.749 -0.4620 -0.1440 -0.0642
18608SOL    HW158077   7.572   4.485   3.747  2.0437 -1.9545 -0.8222
18608SOL    HW258078   7.680   4.558   3.671  1.6758  0.9281  1.2527
18609SOL     OW58079   0.617   1.655   0.326  0.3565  0.7292  0.1736
18609SOL    HW158080   0.532   1.691   0.302 -0.5509 -1.8319 -0.7240
18609SOL    HW258081   0.612   1.642   0.420 -0.9914 -1.0400 -0.0918
18610SOL     OW58082   0.350   8.398   9.346  0.5173 -0.1531 -0.3715
18610SOL    HW158083   0.424   8.458   9.351  0.1528  0.2518  0.2556
18610SOL    HW258084   0.376   8.334   9.279  1.1402  0.3752 -0.6499
18611SOL     OW58085   7.758   7.685   0.573  0.6751 -0.3038  0.0411
18611SOL    HW158086   7.691   7.621   0.597  1.1149 -0.5840  0.5620
18611SOL    HW258087   7.767   7.741   0.650  0.5042  0.2024 -0.3046
18612SOL     OW58088  10.538   3.075   3.723  0.0891 -0.4986  0.1655
18612SOL    HW158089  10.572   3.093   3.811 -1.5034  1.3023  0.4886
18612SOL    HW258090  10.518   2.982   3.723 -1.6999 -0.2083  2.4509
18613SOL     OW58091   0.483   8.749   8.483  0.1521 -0.4773  0.2138
18613SOL    HW158092   0.521   8.757   8.570 -1.2809 -0.6448  0.8958
18613SOL    HW258093   0.446   8.835   8.464  0.9775 -0.2637 -0.5136
18614SOL     OW58094   5.526  10.071   5.890  0.0600  0.5108 -0.2436
18614SOL    HW158095   5.516  10.003   5.956 -1.8202  0.1681 -0.8232
18614SOL    HW258096   5.436  10.099   5.870  0.5294  0.4042 -2.8523
18615SOL     OW58097   4.611   1.460   7.478 -0.0604  0.3741  0.1357
18615SOL    HW158098   4.551   1.519   7.433  1.4489  2.1110  0.2754
18615SOL    HW258099   4.596   1.374   7.437 -2.3106  0.8260 -0.0622
18616SOL     OW58100   7.980   9.312   2.048 -0.1809 -0.1329  0.0817
18616SOL    HW158101   7.885   9.305   2.052 -0.3404  1.2964 -0.6679
18616SOL    HW258102   8.005   9.346   2.134 -0.5758  1.4894 -0.4171
18617SOL     OW58103  10.595   9.544   6.353 -0.0375 -1.0283  0.0747
18617SOL    HW158104  10.502   9.535   6.371 -0.1116  1.7458  1.5698
18617SOL    HW258105  10.599   9.597   6.273  0.2737 -0.9904  0.1134
18618SOL     OW58106   8.343  10.382   0.022 -0.9273  0.2710  0.5590
18618SOL    HW158107   8.318  10.392   0.114 -0.3065 -0.0213  0.7634
18618SOL    HW258108   8.266  10.344  -0.020 -1.1978  0.3655  0.9661
18619SOL     OW58109   7.679   7.384   7.489  0.1393 -0.6471  0.1969
18619SOL    HW158110   7.719   7.350   7.569  2.6582  0.7200 -0.3939
18619SOL    HW258111   7.608   7.440   7.520 -0.1278 -1.5957  1.3710
18620SOL     OW58112   6.285   6.541   6.678  0.2590  0.1428 -0.3630
18620SOL    HW158113   6.339   6.497   6.613  1.6463 -0.1041  0.8886
18620SOL    HW258114   6.279   6.478   6.750  0.0864  0.9962  0.3890
18621SOL     OW58115   4.991   7.578   8.108 -0.0425 -0.2718  0.1042
18621SOL    HW158116   5.025   7.549   8.193 -1.3881  1.3638  1.2880
18621SOL    HW258117   4.896   7.576   8.119 -0.2599 -0.8702 -1.6961
18622SOL     OW58118   6.690  10.432   2.646 -0.7777 -0.6550  0.1838
18622SOL    HW158119   6.674  10.451   2.739  0.0804 -1.6463  0.5622
18622SOL    HW258120   6.722  10.514   2.609  1.1266 -0.8214  1.3246
18623SOL     OW58121   6.712   6.008   0.194  0.0676 -0.4381 -0.5815
18623SOL    HW158122   6.725   6.054   0.278 -1.3519 -0.3074 -0.4157
18623SOL    HW258123   6.767   5.930   0.200 -2.4265 -2.1933  1.8694
18624SOL     OW58124  10.116   0.977   2.284 -0.2907 -0.5716 -0.2971
18624SOL    HW158125  10.122   1.012   2.373  1.2681 -0.2422 -0.4895
18624SOL    HW258126  10.104   1.053   2.228  0.1839 -0.6179 -0.4725
18625SOL     OW58127   5.592   3.698   0.705  0.1726  0.1440  0.4856
18625SOL    HW158128   5.676   3.658   0.679 -0.3641  0.1376 -1.3864
18625SOL    HW258129   5.578   3.767   0.640 -2.4236 -1.4233 -0.7571
18626SOL     OW58130   8.223   8.082   5.992 -0.7492  0.1803 -0.1894
18626SOL    HW158131   8.153   8.097   6.056 -0.6213 -1.0287  0.2462
18626SOL    HW258132   8.197   8.135   5.916 -1.5940  0.5678  0.3558
18627SOL     OW58133   9.498   1.632   0.474  0.3084 -0.5897  0.5575
18627SOL    HW158134   9.438   1.690   0.426  0.3965  0.9249  2.1891
18627SOL    HW258135   9.501   1.552   0.421 -0.4634  0.5753 -1.3427
18628SOL     OW58136   3.167   2.442   0.451  0.0067 -0.2028 -1.0318
18628SOL    HW158137   3.092   2.416   0.504 -0.1415  1.2617 -0.4722
18628SOL    HW258138   3.134   2.512   0.395  1.1150  1.0216 -0.2218
18629SOL     OW58139   8.500   1.292   0.901 -0.1471  0.0171  0.3638
18629SOL    HW158140   8.435   1.323   0.964  0.2076 -0.2850  0.8852
18629SOL    HW258141   8.475   1.334   0.818 -1.8256 -1.1728  0.2226
18630SOL     OW58142   2.173   2.328   9.797  0.5609 -0.6006  0.0642
18630SOL    HW158143   2.121   2.407   9.781 -0.1580 -0.3391  3.0258
18630SOL    HW258144   2.145   2.298   9.883  2.8451 -2.4907  0.2589
18631SOL     OW58145   6.145  10.417   4.286 -0.0215 -0.0457  0.0331
18631SOL    HW158146   6.198  10.440   4.210  0.4904  0.2084  0.4568
18631SOL    HW258147   6.063  10.466   4.274 -0.1680 -0.4452 -0.6256
18632SOL     OW58148   2.368   2.298   7.627 -0.6727 -0.0434 -0.5251
18632SOL    HW158149   2.463   2.306   7.618 -0.3002 -2.2053  0.9673
18632SOL    HW258150   2.355   2.239   7.701 -3.1590 -1.4635 -1.9689
18633SOL     OW58151   8.257   2.902   0.033  0.0096 -0.3534  0.1797
18633SOL    HW158152   8.246   2.997   0.028 -0.7338 -0.3529  1.4561
18633SOL    HW258153   8.169   2.867   0.024 -0.2348 -0.7228  3.0821
18634SOL     OW58154   7.133   5.340   4.429  0.5210  0.0065 -0.2174
18634SOL    HW158155   7.096   5.368   4.345  0.8275 -0.8695 -0.6685
18634SOL    HW258156   7.202   5.404   4.448  1.0893 -0.3106 -1.1271
18635SOL     OW58157   1.560   2.624   3.608  0.1990 -0.3444 -0.0415
18635SOL    HW158158   1.471   2.614   3.573 -0.9360  3.1808  1.3872
18635SOL    HW258159   1.558   2.577   3.691 -0.5607  0.2595  0.2917
18636SOL     OW58160   0.907  10.041   2.676  0.1543  0.3340 -0.1864
18636SOL    HW158161   0.906  10.132   2.646 -0.0768  0.1288 -0.8327
18636SOL    HW258162   0.989  10.005   2.642 -0.2987 -0.0131 -0.9400
18637SOL     OW58163   8.985   8.547  10.594  0.1420  0.5874  0.2882
18637SOL    HW158164   9.008   8.459  10.565 -0.4654  0.1685  1.0384
18637SOL    HW258165   8.901   8.565  10.551  0.0428  0.6130  0.4898
18638SOL     OW58166   4.490   9.863   5.918  0.1375 -0.1331 -0.0433
18638SOL    HW158167   4.407   9.840   5.959 -0.0196  1.7225  0.7343
18638SOL    HW258168   4.552   9.868   5.991  0.4973  0.4061 -0.3863
18639SOL     OW58169   8.426   8.093   3.931 -0.4648  0.6686  0.2004
18639SOL    HW158170   8.401   8.028   3.997 -0.9398  1.4971  0.8564
18639SOL    HW258171   8.494   8.049   3.880 -0.2764 -0.0972  1.0658
18640SOL     OW58172   2.583   9.649   4.878  0.5731 -0.5286  0.0511
18640SOL    HW158173   2.558   9.738   4.905 -1.8309 -0.9988 -0.3938
18640SOL    HW258174   2.640   9.662   4.802 -1.7985  0.7026 -1.6623
18641SOL     OW58175   8.161   6.519   4.269 -0.1000 -0.4920  0.3816
18641SOL    HW158176   8.253   6.505   4.292 -0.5528 -0.4053  2.4707
18641SOL    HW258177   8.156   6.612   4.247  0.4281 -0.6548 -0.4870
18642SOL     OW58178   5.571   0.140   7.003  0.5258  0.2635  0.4398
18642SOL    HW158179   5.645   0.083   7.024 -0.2538 -0.4081  1.4319
18642SOL    HW258180   5.563   0.198   7.079 -0.2905 -0.0174  0.5718
18643SOL     OW58181   3.867   9.580   0.135 -0.2018 -0.1158  0.2748
18643SOL    HW158182   3.831   9.561   0.221 -0.4624 -2.7921 -0.3231
18643SOL    HW258183   3.927   9.507   0.117  2.2277  1.9246 -0.5968
18644SOL     OW58184  10.571   4.735   7.490  0.8329 -0.0038 -0.2374
18644SOL    HW158185  10.585   4.767   7.579 -0.5553  1.8637 -0.6359
18644SOL    HW258186  10.483   4.698   7.491  0.9183 -0.2233 -0.7587
18645SOL     OW58187   0.287   6.336   3.307 -0.2355 -0.5103 -0.3803
18645SOL    HW158188   0.283   6.393   3.230  0.7375  0.5034  0.2826
18645SOL    HW258189   0.228   6.264   3.286  0.6520 -0.7127 -2.4315
18646SOL     OW58190   1.351   2.042   3.966 -0.4378  0.0741  0.2008
18646SOL    HW158191   1.267   2.064   3.926 -0.1110  0.8124 -0.0944
18646SOL    HW258192   1.395   2.126   3.978  0.4793 -0.3404 -0.1272
18647SOL     OW58193   7.393   5.011   0.484  0.4585  0.1765 -0.0642
18647SOL    HW158194   7.363   4.954   0.556  0.4812 -0.0892 -0.2615
18647SOL    HW258195   7.372   4.961   0.405  0.1403  0.6059 -0.2560
18648SOL     OW58196   6.533   2.871   0.222  0.3805 -0.0287  0.1549
18648SOL    HW158197   6.486   2.826   0.291  1.4788 -0.3802  0.6992
18648SOL    HW258198   6.565   2.952   0.263 -0.6702  0.7478 -0.5159
18649SOL     OW58199   0.486   6.165   3.556 -0.2965  0.3482  0.7093
18649SOL    HW158200   0.477   6.082   3.510 -1.9788 -0.3458  2.1568
18649SOL    HW258201   0.422   6.223   3.514  1.0329  1.0337 -0.4485
18650SOL     OW58202   3.390   3.922  10.421  0.0271  0.0328  0.1402
18650SOL    HW158203   3.349   3.997  10.464  0.3239 -0.0019  0.4885
18650SOL    HW258204   3.481   3.947  10.409  0.2420 -0.4450  0.6926
18651SOL     OW58205   0.882   5.094   3.589 -0.3654 -0.0114  0.0311
18651SOL    HW158206   0.879   5.016   3.533  0.2607 -0.0317  0.0264
18651SOL    HW258207   0.912   5.164   3.531  2.9067 -0.5374  0.8759
18652SOL     OW58208   6.074   4.460   3.145 -0.3073 -0.2449 -0.5586
18652SOL    HW158209   6.118   4.453   3.061 -0.0968  1.7040 -0.6566
18652SOL    HW258210   6.145   4.460   3.210 -0.4184 -0.9585 -0.4334
18653SOL     OW58211   6.100   2.639   8.351  0.4002 -0.4541 -0.4601
18653SOL    HW158212   6.033   2.598   8.297  0.5131 -0.0671 -0.9047
18653SOL    HW258213   6.079   2.613   8.440 -0.7247  0.1677 -0.5237
18654SOL     OW58214   7.955  10.102   2.440  0.0067  0.1150  0.1188
18654SOL    HW158215   7.944  10.125   2.532 -0.3746  1.7263 -0.3074
18654SOL    HW258216   7.982  10.183   2.398 -1.7464 -0.0830 -1.5163
18655SOL     OW58217   2.845   6.932   5.821 -0.0140  0.5839 -0.1347
18655SOL    HW158218   2.871   7.010   5.771 -0.4263  0.7336 -0.1169
18655SOL    HW258219   2.891   6.860   5.778 -2.2840  0.3269 -2.3639
18656SOL     OW58220   7.339   9.805   3.053 -0.4628  0.0538 -0.2052
18656SOL    HW158221   7.267   9.857   3.089 -0.7320 -0.8292  0.5961
18656SOL    HW258222   7.408   9.812   3.119 -0.1091  0.2589 -0.5973
18657SOL     OW58223   4.092   7.355   0.516  0.2362  0.0807 -0.3104
18657SOL    HW158224   4.124   7.267   0.495  1.0137 -0.0123  1.1081
18657SOL    HW258225   4.030   7.375   0.446 -0.5395 -1.8946 -0.2560
18658SOL     OW58226   6.880   2.272  10.089 -0.2971 -0.3157 -0.1610
18658SOL    HW158227   6.794   2.233  10.105 -0.2986 -1.0742 -1.8373
18658SOL    HW258228   6.864   2.345  10.029 -0.1156  1.5237  1.9054
18659SOL     OW58229   8.696   9.733   6.031 -0.0634  0.5312 -0.5897
18659SOL    HW158230   8.758   9.766   6.096 -0.7594 -1.9630  1.5336
18659SOL    HW258231   8.631   9.802   6.022  1.1071  1.7328 -0.1544
18660SOL     OW58232   1.101   5.252   9.490 -0.1666 -0.1530 -0.7715
18660SOL    HW158233   1.153   5.299   9.425  1.5462 -0.7881  0.0683
18660SOL    HW258234   1.160   5.184   9.523 -1.1640 -0.1970  1.0449
18661SOL     OW58235   0.336   4.090   3.546 -0.1421 -0.0973  0.3285
18661SOL    HW158236   0.306   4.138   3.623 -1.6983 -1.6100  0.7096
18661SOL    HW258237   0.425   4.062   3.568 -0.0109  0.7859  0.9445
18662SOL     OW58238   0.258   0.356   4.181  0.4044  0.2291  0.4308
18662SOL    HW158239   0.229   0.445   4.199 -0.5549 -0.0782  0.4531
18662SOL    HW258240   0.190   0.300   4.219  0.3538 -0.4964 -0.6803
18663SOL     OW58241   1.796   0.135   9.459 -0.1509 -0.3629  0.0271
18663SOL    HW158242   1.845   0.054   9.469 -0.3370 -0.8422 -2.2824
18663SOL    HW258243   1.852   0.189   9.402 -1.6781 -0.4331 -1.6243
18664SOL     OW58244   0.637   7.601   9.846 -0.0379 -0.2129  0.3997
18664SOL    HW158245   0.624   7.512   9.878 -0.6936 -1.2855 -2.5531
18664SOL    HW258246   0.550   7.631   9.821  0.1937  1.2617  1.2100
18665SOL     OW58247   4.718   0.845  10.178 -0.0597 -0.4510  0.0379
18665SOL    HW158248   4.759   0.768  10.139 -0.4633 -0.6604  0.0264
18665SOL    HW258249   4.643   0.863  10.122  0.4382  0.3896 -0.3886
18666SOL     OW58250   7.976   8.376   5.179  0.3883 -0.6721 -0.4473
18666SOL    HW158251   8.020   8.394   5.262  0.3896  2.1802 -0.9934
18666SOL    HW258252   7.910   8.445   5.171 -2.3008 -3.0692 -1.0743
18667SOL     OW58253   7.349   3.388  10.247  0.2890  0.1233  0.2670
18667SOL    HW158254   7.340   3.395  10.152 -0.9242  0.6285  0.4015
18667SOL    HW258255   7.278   3.330  10.274  0.7775 -0.2145  0.8444
18668SOL     OW58256   2.457   0.979   3.347 -0.4509 -0.1217 -0.2072
18668SOL    HW158257   2.495   1.056   3.306 -0.4432 -0.2172 -0.3817
18668SOL    HW258258   2.363   0.998   3.352 -0.8399 -1.0423 -2.4244
18669SOL     OW58259   1.693   8.017   4.207  0.5213 -0.1610  0.3083
18669SOL    HW158260   1.598   8.023   4.207  0.3768 -1.2151 -2.4750
18669SOL    HW258261   1.722   8.098   4.165  0.7552 -0.4637 -0.1232
18670SOL     OW58262   4.944   9.635   8.788 -0.0823  0.0362  0.1828
18670SOL    HW158263   5.019   9.694   8.789 -0.3861  0.4303 -0.2323
18670SOL    HW258264   4.974   9.558   8.740  0.3365 -0.1852  0.7870
18671SOL     OW58265   5.951   5.038   0.754 -0.3218  0.1401 -0.2184
18671SOL    HW158266   5.903   5.096   0.695  0.3791 -0.5093 -1.4654
18671SOL    HW258267   6.040   5.073   0.754 -0.1587 -0.2745 -0.0980
18672SOL     OW58268   0.638   2.148   1.788 -0.3413  0.3798  0.1398
18672SOL    HW158269   0.607   2.104   1.709 -2.1429  1.9529 -0.0991
18672SOL    HW258270   0.670   2.233   1.757 -1.5679  1.2350  1.1234
18673SOL     OW58271   0.296   1.385   8.781  0.0806 -0.6145 -0.2567
18673SOL    HW158272   0.325   1.475   8.764 -0.4792 -0.5492 -0.9079
18673SOL    HW258273   0.279   1.349   8.694  0.0897 -1.2818  0.0126
18674SOL     OW58274   2.464  10.130   3.086 -0.3086  0.0597 -0.2606
18674SOL    HW158275   2.483  10.194   3.018 -2.3316  0.2934 -0.6783
18674SOL    HW258276   2.536  10.067   3.081  1.6394  2.1345  0.0339
18675SOL     OW58277   3.503  10.593   9.941  0.3164  0.1830 -0.1005
18675SOL    HW158278   3.524  10.646  10.017  1.0264  2.0791 -1.5288
18675SOL    HW258279   3.467  10.512   9.977  1.3387  0.6816  2.2354
18676SOL     OW58280   5.551   8.129   1.182  0.3725  0.7297 -0.1193
18676SOL    HW158281   5.589   8.043   1.166  1.2559  0.9036  0.9578
18676SOL    HW258282   5.623   8.181   1.218 -0.4593  1.5756  0.3649
18677SOL     OW58283   2.633   8.823  10.196 -0.3959  0.0719  0.3439
18677SOL    HW158284   2.634   8.736  10.157  0.3189 -0.4794  1.5335
18677SOL    HW258285   2.615   8.808  10.288 -1.2322  1.2734  0.3946
18678SOL     OW58286   2.558   8.152   9.343 -0.0529  0.3726 -0.4393
18678SOL    HW158287   2.648   8.182   9.336  0.1905 -0.0999  0.4283
18678SOL    HW258288   2.509   8.229   9.372  0.3686  0.2323  0.6829
18679SOL     OW58289   5.065   0.700   3.213  0.2985 -0.1579  0.6390
18679SOL    HW158290   4.977   0.737   3.214 -0.0932 -0.9986  2.5957
18679SOL    HW258291   5.105   0.731   3.295  1.2456 -1.0548  0.5360
18680SOL     OW58292   3.231   7.155   4.554  0.1297  0.1804  0.1323
18680SOL    HW158293   3.229   7.226   4.619 -1.0229 -1.1171  1.6190
18680SOL    HW258294   3.211   7.197   4.471  1.4066  1.8757  0.6294
18681SOL     OW58295   2.832   2.447   9.966  0.5476  0.2797 -0.6663
18681SOL    HW158296   2.777   2.417  10.038  1.0599  1.4909  0.2654
18681SOL    HW258297   2.778   2.434   9.887 -1.8857  3.1104  0.3522
18682SOL     OW58298   2.254   9.744   6.234 -0.0604 -0.6283  0.4006
18682SOL    HW158299   2.255   9.656   6.272 -2.7830 -0.2964  1.4145
18682SOL    HW258300   2.186   9.741   6.167  0.9956  0.2838 -0.7687
18683SOL     OW58301   1.832   3.010   8.651  0.2282 -0.0663 -0.3756
18683SOL    HW158302   1.880   3.055   8.581 -0.3264  1.1486  0.0012
18683SOL    HW258303   1.745   3.049   8.650  0.4068  0.4871  1.4464
18684SOL     OW58304   6.967   6.937   5.251 -0.4759  0.3089 -0.1476
18684SOL    HW158305   6.951   6.859   5.198 -1.4495 -0.0318  0.6147
18684SOL    HW258306   7.039   6.982   5.207  0.4059 -1.2512 -0.3445
18685SOL     OW58307   2.005   6.354   2.665 -0.3045 -0.0303  0.4852
18685SOL    HW158308   2.098   6.332   2.664 -0.3259 -0.1518 -0.6903
18685SOL    HW258309   1.961   6.274   2.637 -0.5614  0.7243 -1.4049
18686SOL     OW58310   2.150   6.488   3.919  0.1442 -0.0271 -0.2925
18686SOL    HW158311   2.216   6.527   3.861 -0.2696  0.1954 -0.6129
18686SOL    HW258312   2.066   6.517   3.883 -0.1700 -1.1109 -0.4712
18687SOL     OW58313   8.575   7.382   1.139 -0.0019 -0.1194 -0.1687
18687SOL    HW158314   8.552   7.466   1.100  0.2623 -0.1605 -0.4170
18687SOL    HW258315   8.550   7.391   1.231 -1.3375 -0.2887 -0.4847
18688SOL     OW58316  10.555   7.717   4.357 -0.3163 -0.3073 -0.6423
18688SOL    HW158317  10.540   7.623   4.350 -1.2423 -0.2012 -0.2003
18688SOL    HW258318  10.543   7.750   4.268 -0.0268 -0.5995 -0.7921
18689SOL     OW58319   7.592   1.772   6.831  0.3347  0.4005 -0.4260
18689SOL    HW158320   7.669   1.804   6.878 -0.2450  0.6333  0.3935
18689SOL    HW258321   7.529   1.844   6.838 -0.9587 -0.8441  1.3583
18690SOL     OW58322   7.309   4.134   4.593 -0.1988  0.0222  0.5380
18690SOL    HW158323   7.240   4.069   4.591  0.1677 -0.3839  0.7965
18690SOL    HW258324   7.372   4.100   4.657 -0.1177  0.7432  0.8519
18691SOL     OW58325   8.621   4.922   4.599 -0.7802  0.6039  0.9701
18691SOL    HW158326   8.684   4.850   4.598 -0.9175  0.4841 -0.0737
18691SOL    HW258327   8.563   4.902   4.672  0.1873  0.5511  1.7556
18692SOL     OW58328   6.751   9.894   5.046 -0.3442  0.9718 -0.2767
18692SOL    HW158329   6.738   9.987   5.064  0.8304  1.2352 -0.6948
18692SOL    HW258330   6.688   9.850   5.103 -0.1451  1.9748  0.7736
18693SOL     OW58331   6.223   4.694   1.798  0.3047  0.3150 -0.0834
18693SOL    HW158332   6.153   4.758   1.783 -0.6332 -0.5052  0.5988
18693SOL    HW258333   6.273   4.694   1.716 -0.5148  0.9105 -0.6040
18694SOL     OW58334   8.570   7.828   5.671 -0.2939 -0.0625 -0.0937
18694SOL    HW158335   8.501   7.870   5.619  0.8789  2.0141 -0.0859
18694SOL    HW258336   8.541   7.839   5.762  0.2033  1.1854 -0.0672
18695SOL     OW58337   0.523   4.117   1.491 -0.5544 -0.1687 -0.4768
18695SOL    HW158338   0.560   4.032   1.512 -0.9577 -0.3167 -0.3669
18695SOL    HW258339   0.491   4.151   1.575 -0.6106 -0.0106 -0.5608
18696SOL     OW58340  10.124   3.202   8.241 -0.3176  0.2595  0.2845
18696SOL    HW158341  10.096   3.282   8.284 -0.5029  0.1636  0.3403
18696SOL    HW258342  10.043   3.153   8.224 -0.4103  0.9768 -1.5424
18697SOL     OW58343   0.628   2.971   8.582  0.5317 -0.0171  0.4448
18697SOL    HW158344   0.541   2.970   8.623 -0.3930 -0.2411 -1.3878
18697SOL    HW258345   0.642   3.063   8.560 -0.3103 -0.2459 -1.2632
18698SOL     OW58346   6.616  10.104   3.768 -0.1389 -0.5424  0.0475
18698SOL    HW158347   6.584  10.189   3.796 -0.1710 -0.2446 -0.8520
18698SOL    HW258348   6.668  10.072   3.841  0.1594  0.3999  0.2576
18699SOL     OW58349   7.205   9.332   6.729  0.0600 -0.5118 -0.2723
18699SOL    HW158350   7.133   9.331   6.792 -0.9316  2.4968 -1.1998
18699SOL    HW258351   7.283   9.346   6.783 -0.4077 -0.7561  0.4870
18700SOL     OW58352   7.531   6.810   0.989 -0.4389  0.7137  0.1257
18700SOL    HW158353   7.507   6.718   0.979 -0.4221  0.6749  0.4271
18700SOL    HW258354   7.519   6.847   0.902  1.2820  0.0338 -0.4328
18701SOL     OW58355   1.638   8.457   4.643  0.2046  0.0363  0.3339
18701SOL    HW158356   1.663   8.368   4.666 -0.2615  0.2979  1.9482
18701SOL    HW258357   1.570   8.481   4.706 -0.5875  1.1028 -0.8463
18702SOL     OW58358   1.303   2.732   8.425 -0.7198 -0.2987  0.1725
18702SOL    HW158359   1.276   2.672   8.356  0.7952  0.0840 -0.8134
18702SOL    HW258360   1.222   2.762   8.465 -1.5358 -2.2464  0.0440
18703SOL     OW58361   2.542   0.558   8.165  0.4704  0.4676  0.4422
18703SOL    HW158362   2.458   0.582   8.205 -0.1291  0.3379 -0.6659
18703SOL    HW258363   2.605   0.560   8.236 -0.6717 -0.4868  1.5161
18704SOL     OW58364   5.728   0.053   4.342 -0.2435  0.4730 -0.0614
18704SOL    HW158365   5.745   0.146   4.326  0.2629  0.3143 -0.4623
18704SOL    HW258366   5.633   0.045   4.341 -0.2688  0.8278 -0.9757
18705SOL     OW58367   4.761   5.524   5.579 -0.4808 -0.2733  0.0953
18705SOL    HW158368   4.793   5.579   5.651 -0.2172 -0.0298 -0.2066
18705SOL    HW258369   4.789   5.436   5.603  0.9890  0.0085 -0.4621
18706SOL     OW58370   7.721   8.787   7.561 -0.0305 -0.3471 -0.1423
18706SOL    HW158371   7.791   8.747   7.511 -1.0394 -1.3025 -0.8491
18706SOL    HW258372   7.652   8.805   7.497 -1.1110 -1.0386  0.7605
18707SOL     OW58373   5.028   6.922   5.731  0.4048 -0.2380 -0.0522
18707SOL    HW158374   5.045   6.850   5.791 -1.2082 -1.1398 -0.6126
18707SOL    HW258375   4.934   6.918   5.715  0.6306  0.6397 -1.8148
18708SOL     OW58376  10.106   3.549   9.602  0.0921 -0.9756 -0.5996
18708SOL    HW158377  10.201   3.539   9.613  0.0783 -0.7293 -0.2641
18708SOL    HW258378  10.092   3.644   9.597 -0.3856 -0.8900  1.5970
18709SOL     OW58379   8.948   6.446   6.592  0.3587 -0.0004  0.5756
18709SOL    HW158380   8.903   6.487   6.519 -0.0942 -1.0753  0.2225
18709SOL    HW258381   8.885   6.448   6.664  0.3141 -0.1188  0.5407
18710SOL     OW58382   7.929   6.755   3.725 -0.0301  0.0196  1.2060
18710SOL    HW158383   7.978   6.822   3.679  1.0367 -2.2882 -1.2760
18710SOL    HW258384   7.975   6.744   3.808  0.5081  1.4349  1.1145
18711SOL     OW58385   2.498   8.320   7.608  0.1105  0.0224 -0.3389
18711SOL    HW158386   2.581   8.350   7.644 -0.5661  0.0954  1.2387
18711SOL    HW258387   2.499   8.225   7.620 -0.4603  0.1318  0.6755
18712SOL     OW58388   1.242   2.382   0.478  0.3433  0.0453 -0.1603
18712SOL    HW158389   1.269   2.381   0.570  0.9186 -0.6839 -0.3196
18712SOL    HW258390   1.196   2.299   0.466  0.1207  0.2158 -0.4882
18713SOL     OW58391   4.798   5.188   3.705 -0.3667  0.3781 -0.6450
18713SOL    HW158392   4.796   5.272   3.659  1.1218  1.2951  0.8732
18713SOL    HW258393   4.831   5.126   3.640  2.2195  1.7411 -0.7603
18714SOL     OW58394   8.738   3.752   6.810 -0.1006 -0.4974  0.4315
18714SOL    HW158395   8.754   3.819   6.744  0.1436  1.6162  2.4882
18714SOL    HW258396   8.801   3.683   6.791 -1.3326 -0.9151 -2.6273
18715SOL     OW58397   5.366   3.274   0.828 -0.1480  0.1516  0.3885
18715SOL    HW158398   5.316   3.193   0.815 -2.0912  1.6574 -2.6986
18715SOL    HW258399   5.312   3.327   0.885 -1.1175  0.9261 -1.1857
18716SOL     OW58400   5.441   1.118   4.889 -0.5760 -0.2243 -0.4680
18716SOL    HW158401   5.534   1.136   4.899 -0.6826  0.6745 -0.9356
18716SOL    HW258402   5.434   1.071   4.806 -0.6576  0.9636 -1.1664
18717SOL     OW58403   0.178   8.958   6.285  0.3705  0.4664  0.2769
18717SOL    HW158404   0.260   8.967   6.237  0.0375  1.1258 -0.1761
18717SOL    HW258405   0.201   8.981   6.375  0.8748 -0.2382  0.3356
18718SOL     OW58406   2.059   7.105   3.105 -0.0139 -0.6357  0.2413
18718SOL    HW158407   2.064   7.035   3.169 -0.6926 -1.9778 -1.1019
18718SOL    HW258408   2.123   7.169   3.134 -0.2829 -1.2068  2.2093
18719SOL     OW58409   3.143   8.546   4.575  0.2267  0.1424 -0.0011
18719SOL    HW158410   3.075   8.487   4.606 -0.1446  0.3649 -0.3879
18719SOL    HW258411   3.225   8.504   4.602 -0.0351 -0.4939 -0.1806
18720SOL     OW58412   6.507   4.911   3.844 -0.4313 -0.6391 -0.3288
18720SOL    HW158413   6.524   4.904   3.938 -0.5352 -1.9938 -0.3897
18720SOL    HW258414   6.546   4.832   3.807  0.7399  0.4739 -1.6170
18721SOL     OW58415   6.484   5.764   6.396 -0.2233 -0.0127 -0.2441
18721SOL    HW158416   6.490   5.857   6.374 -0.8785 -0.3854 -2.1955
18721SOL    HW258417   6.458   5.762   6.488  1.0490  1.7114  0.1984
18722SOL     OW58418   8.212   8.097   8.465 -0.4767 -0.1536 -0.3841
18722SOL    HW158419   8.195   8.022   8.522 -0.8354  0.1519 -0.0790
18722SOL    HW258420   8.169   8.075   8.382  0.6188 -0.8964 -0.7705
18723SOL     OW58421   1.532   3.245   6.349 -0.7916 -0.1110  0.2574
18723SOL    HW158422   1.575   3.329   6.361  0.1748 -0.4308 -0.8002
18723SOL    HW258423   1.576   3.186   6.411  0.8869 -0.6229 -1.3550
18724SOL     OW58424  10.137   2.907   2.427 -0.2339 -0.1503  0.2606
18724SOL    HW158425  10.196   2.916   2.501 -1.3511  2.1075  0.9667
18724SOL    HW258426  10.049   2.913   2.465 -0.8360  0.6834 -1.1762
18725SOL     OW58427   9.620   0.777   1.638 -0.5524 -0.2656 -0.1907
18725SOL    HW158428   9.681   0.780   1.564 -0.6754 -0.3536 -0.2951
18725SOL    HW258429   9.535   0.761   1.599 -1.0595  2.2717 -0.2769
18726SOL     OW58430   3.051   5.793   9.417 -0.0399  0.2379  0.0487
18726SOL    HW158431   3.026   5.884   9.403  0.6865  0.4953  0.3968
18726SOL    HW258432   3.064   5.786   9.512  0.2600 -0.1329 -0.0161
18727SOL     OW58433   6.283   5.035   9.884  0.5090 -0.1228 -0.0640
18727SOL    HW158434   6.286   5.125   9.916  0.2865 -0.2366  0.2784
18727SOL    HW258435   6.267   4.982   9.962  0.7821 -0.4727 -0.2403
18728SOL     OW58436   9.201   5.975   2.501 -0.0640  0.3419 -0.1600
18728SOL    HW158437   9.174   5.957   2.411  0.1101  2.0878 -0.6018
18728SOL    HW258438   9.135   6.035   2.535  0.7895  1.0599  0.2808
18729SOL     OW58439   9.149   3.068   3.145  0.0884 -0.2202 -0.2524
18729SOL    HW158440   9.057   3.042   3.150 -0.1008  0.5949  0.8977
18729SOL    HW258441   9.197   2.986   3.137 -0.7305 -0.6492 -0.9990
18730SOL     OW58442   7.380   1.592   0.844  0.0481 -0.0728  0.1927
18730SOL    HW158443   7.306   1.533   0.854  0.0867 -0.1388  0.0947
18730SOL    HW258444   7.439   1.569   0.915  0.8304 -1.2955 -0.8028
18731SOL     OW58445   6.344   7.685   3.215 -0.1083  0.0625 -0.3957
18731SOL    HW158446   6.409   7.755   3.223  0.3232 -0.3449 -0.2880
18731SOL    HW258447   6.273   7.725   3.165  0.2653  0.4870 -0.6064
18732SOL     OW58448  10.619   0.429   9.359 -0.2914 -0.3636  0.2979
18732SOL    HW158449  10.666   0.431   9.275  0.6808  0.0201  0.8432
18732SOL    HW258450  10.560   0.504   9.355  1.1202  0.7914  0.7245
18733SOL     OW58451   1.883   8.787   3.373  0.2768 -0.3316  0.5447
18733SOL    HW158452   1.799   8.829   3.389  0.7292  0.5288  0.7431
18733SOL    HW258453   1.930   8.796   3.457  0.5596 -0.8218  0.4444
18734SOL     OW58454   6.210   0.527   9.456  0.1281  0.1313 -0.4700
18734SOL    HW158455   6.122   0.559   9.476 -1.4617 -3.7840 -0.4095
18734SOL    HW258456   6.214   0.526   9.360  0.1529  0.3590 -0.4725
18735SOL     OW58457   3.168   0.841   4.259  0.7853  0.3405 -0.2570
18735SOL    HW158458   3.113   0.822   4.183  2.5866 -1.2150 -1.2436
18735SOL    HW258459   3.108   0.840   4.333 -1.0213  1.8329 -1.6029
18736SOL     OW58460   2.990   3.821   8.340  0.1465  0.4607  0.3855
18736SOL    HW158461   3.039   3.771   8.274 -0.1100  0.5012  0.1629
18736SOL    HW258462   3.047   3.822   8.417  0.6543  0.8094  0.0119
18737SOL     OW58463   8.463   7.353   2.847  0.5365 -0.6923  0.1565
18737SOL    HW158464   8.536   7.414   2.843  0.1527 -0.2982 -2.1101
18737SOL    HW258465   8.412   7.381   2.924  0.2799  1.9781 -0.9058
18738SOL     OW58466   2.068   3.109   3.478  0.3419  0.3072 -0.3815
18738SOL    HW158467   2.089   3.037   3.538 -1.2419 -0.1080 -0.2869
18738SOL    HW258468   2.151   3.129   3.435  0.4967 -2.8374 -1.7933
18739SOL     OW58469   0.489   2.810   6.294  0.3438  0.1666  0.1927
18739SOL    HW158470   0.421   2.762   6.247  0.0891 -0.2008  0.9329
18739SOL    HW258471   0.549   2.839   6.225 -0.7450  0.8131 -0.5091
18740SOL     OW58472   8.079   9.103   7.786 -0.7532 -0.3415 -0.1474
18740SOL    HW158473   8.126   9.183   7.763 -0.3891 -0.5880 -0.2700
18740SOL    HW258474   8.093   9.045   7.712 -0.3118 -0.8186  0.3013
18741SOL     OW58475   8.947   9.489   2.533  0.3120  0.9041  0.2588
18741SOL    HW158476   8.912   9.426   2.470 -0.2282  1.1991  0.2539
18741SOL    HW258477   8.999   9.437   2.594  0.4756  0.5565 -0.1726
18742SOL     OW58478   1.467   3.435   3.280 -0.4613  0.4092  0.2985
18742SOL    HW158479   1.389   3.411   3.230 -1.1806  0.9707  1.1289
18742SOL    HW258480   1.449   3.404   3.368  0.5341 -0.0154  0.3575
18743SOL     OW58481   7.055   4.628   5.143 -0.0279  0.5114  0.1121
18743SOL    HW158482   7.112   4.664   5.076  1.3656  2.6555  2.3129
18743SOL    HW258483   7.009   4.703   5.179 -1.2637 -0.6767  1.1271
18744SOL     OW58484   8.051   6.732   8.762  0.4615  0.4941  0.2504
18744SOL    HW158485   8.072   6.692   8.678  0.5566  2.2663 -0.6285
18744SOL    HW258486   8.097   6.679   8.826  1.0168 -0.4538 -0.8903
18745SOL     OW58487   9.015   8.696   2.646  0.3992 -0.0163  0.5935
18745SOL    HW158488   8.980   8.620   2.691  1.2950 -2.3519 -2.3319
18745SOL    HW258489   9.098   8.666   2.608  0.2623  2.0457 -1.5707
18746SOL     OW58490   0.338   9.025  10.054  0.8569  0.5011 -0.2112
18746SOL    HW158491   0.250   8.998  10.080  0.3335  1.4838 -0.8957
18746SOL    HW258492   0.324   9.107  10.006  1.9427 -0.2717 -1.9384
18747SOL     OW58493  10.317   7.309   4.770 -0.1465  0.2136 -0.0027
18747SOL    HW158494  10.251   7.298   4.839 -0.1803  0.5548  0.0164
18747SOL    HW258495  10.272   7.283   4.690 -0.4034  0.7658 -0.0381
18748SOL     OW58496   8.760   8.893   9.960 -0.0265  0.2983  0.5232
18748SOL    HW158497   8.817   8.856  10.027 -0.1300 -3.0334 -1.0358
18748SOL    HW258498   8.673   8.857   9.979 -0.2733  0.1776 -0.7380
18749SOL     OW58499   4.753   2.504   2.413 -0.2425  0.6270  0.3440
18749SOL    HW158500   4.821   2.569   2.430 -0.5657  1.1347 -0.2772
18749SOL    HW258501   4.778   2.429   2.466  0.1542  1.2444  1.0502
18750SOL     OW58502   7.485   6.300   2.217  0.1791  0.2021  0.4758
18750SOL    HW158503   7.549   6.309   2.287 -0.2640  1.7729  0.7216
18750SOL    HW258504   7.508   6.368   2.153 -0.4354 -0.0924 -0.0799
18751SOL     OW58505   3.207   2.497   1.145  0.4360  0.1121  0.5097
18751SOL    HW158506   3.121   2.516   1.182 -1.0223  0.3599 -2.6370
18751SOL    HW258507   3.199   2.522   1.053  3.4431 -1.2057 -0.2328
18752SOL     OW58508   2.620   1.558   6.302  0.0587 -0.0850  0.3534
18752SOL    HW158509   2.575   1.641   6.314  1.4031  0.6713  0.3591
18752SOL    HW258510   2.652   1.560   6.212 -1.0818 -1.2238 -0.1107
18753SOL     OW58511   1.774   4.846   9.151 -0.2394 -0.3721  0.4485
18753SOL    HW158512   1.810   4.921   9.103  0.7021 -0.7765  0.5143
18753SOL    HW258513   1.790   4.771   9.093  0.0656 -0.7245  0.9859
18754SOL     OW58514   6.513   3.075   6.138 -0.3167  0.1874  0.1196
18754SOL    HW158515   6.447   3.042   6.078  0.0823  0.9044 -0.7378
18754SOL    HW258516   6.486   3.166   6.155  0.1260  0.2959  0.2438
18755SOL     OW58517   4.966   7.220   3.414 -0.1419 -0.2306 -0.6584
18755SOL    HW158518   4.963   7.211   3.509  0.5837  2.4673 -0.3169
18755SOL    HW258519   4.875   7.225   3.387 -0.3377  0.9565  0.1615
18756SOL     OW58520   7.746   4.883   3.503  0.3042 -0.3939  0.3684
18756SOL    HW158521   7.722   4.873   3.595  0.4801 -0.7935  0.3760
18756SOL    HW258522   7.841   4.877   3.503  0.2947 -0.5624  0.1442
18757SOL     OW58523   8.980   2.311   2.252  0.0302 -0.3099  0.4804
18757SOL    HW158524   8.915   2.349   2.193  1.0346 -0.1509 -0.5810
18757SOL    HW258525   9.016   2.237   2.202  1.5126  0.3565  0.5042
18758SOL     OW58526   2.705  10.515   5.587  0.2558 -0.2158  0.5737
18758SOL    HW158527   2.671  10.426   5.591  0.5637 -0.3952 -0.4937
18758SOL    HW258528   2.797  10.507   5.614  0.5128 -0.3601 -0.3335
18759SOL     OW58529  10.431   4.317   8.438  0.6322  0.0674  0.2503
18759SOL    HW158530  10.457   4.371   8.364  4.0501 -2.1662 -0.4216
18759SOL    HW258531  10.397   4.236   8.399 -1.1304  0.2992  1.2031
18760SOL     OW58532  10.434   2.202   2.987  0.0174  0.4636 -0.0989
18760SOL    HW158533  10.457   2.140   3.056 -0.3406 -0.6030 -0.8916
18760SOL    HW258534  10.517   2.224   2.945 -0.0691 -1.6074 -1.5098
18761SOL     OW58535   5.708   2.369   9.176 -0.1788  0.0885 -0.3426
18761SOL    HW158536   5.619   2.397   9.153  0.1981  0.7908 -1.0266
18761SOL    HW258537   5.765   2.423   9.119  0.6967 -0.0100  0.4176
18762SOL     OW58538   2.414   8.897   9.324  0.1648 -0.0997  0.7462
18762SOL    HW158539   2.362   8.819   9.342 -1.9788  0.9359 -0.5508
18762SOL    HW258540   2.369   8.967   9.371 -0.8587  1.1646 -1.8822
18763SOL     OW58541   5.999   2.599   5.631  0.3175 -0.0283 -0.3638
18763SOL    HW158542   6.054   2.653   5.573 -0.2110  2.0176  0.9152
18763SOL    HW258543   5.989   2.516   5.585  1.3431  0.8955 -2.3691
18764SOL     OW58544   5.382   1.515   2.919  0.0680 -0.4260 -0.5079
18764SOL    HW158545   5.382   1.548   2.830 -0.0259 -0.7152 -0.6164
18764SOL    HW258546   5.301   1.548   2.958  0.2028 -0.1384 -0.4661
18765SOL     OW58547   3.549   9.832   0.202  0.1302  0.0214  0.0748
18765SOL    HW158548   3.571   9.864   0.289  0.3794 -1.3587  0.5361
18765SOL    HW258549   3.526   9.911   0.152  0.4032  0.8617  1.2569
18766SOL     OW58550   9.843   3.056   1.143  0.4275 -0.4249  0.4482
18766SOL    HW158551   9.798   3.139   1.159  0.4685 -0.3635  0.2563
18766SOL    HW258552   9.936   3.077   1.151  0.4426 -0.4275  0.2970
18767SOL     OW58553   0.204   3.457   1.073  1.1645  0.2788  0.1607
18767SOL    HW158554   0.137   3.483   1.009 -0.0535  0.3243  1.4128
18767SOL    HW258555   0.203   3.361   1.070  1.6145  0.2838 -0.3760
18768SOL     OW58556   2.532   0.059   2.865  0.1434 -0.0107  0.1997
18768SOL    HW158557   2.513   0.078   2.957 -0.1359  0.1568  0.1090
18768SOL    HW258558   2.468   0.111   2.816  0.5371  0.1980 -0.1018
18769SOL     OW58559   9.123   8.954   0.278 -0.4865  0.0165 -0.2127
18769SOL    HW158560   9.127   8.863   0.249  1.0265 -0.0820  0.2221
18769SOL    HW258561   9.060   8.995   0.219  1.1565 -0.5854 -2.5077
18770SOL     OW58562   8.727   8.649   6.539 -0.4549  0.2161  0.1536
18770SOL    HW158563   8.788   8.716   6.507 -1.8082  1.4026 -0.0531
18770SOL    HW258564   8.650   8.698   6.568 -1.2423 -1.2143  0.6103
18771SOL     OW58565  10.417   0.258   9.338 -0.2194 -0.3544  0.0849
18771SOL    HW158566  10.496   0.309   9.357 -0.3256 -0.8593  2.1285
18771SOL    HW258567  10.345   0.316   9.360 -0.3737 -0.6404  0.3402
18772SOL     OW58568   4.724   6.418   6.028  0.6318 -0.0142 -0.4359
18772SOL    HW158569   4.684   6.342   5.986 -1.9307 -0.0963  1.8562
18772SOL    HW258570   4.799   6.383   6.076 -0.5171 -1.1558  0.5842
18773SOL     OW58571   9.089   9.357   2.108 -0.4971 -0.4420 -0.0174
18773SOL    HW158572   9.157   9.405   2.155  1.5000  0.4861 -3.4688
18773SOL    HW258573   9.122   9.267   2.103  0.3801 -0.0919 -1.2829
18774SOL     OW58574   2.533   8.177   3.388 -0.4126 -0.2788 -0.0588
18774SOL    HW158575   2.483   8.143   3.313 -2.0867 -0.5991  1.1381
18774SOL    HW258576   2.616   8.131   3.385 -1.2387 -1.8027 -0.5704
18775SOL     OW58577   8.961   6.546   4.435  0.3678 -0.1261  0.3947
18775SOL    HW158578   8.909   6.531   4.514 -2.0535  0.0683 -1.0548
18775SOL    HW258579   8.930   6.630   4.401  0.9688 -0.4426 -1.0362
18776SOL     OW58580   1.480   6.805   4.285  0.0003 -0.6443  0.1109
18776SOL    HW158581   1.438   6.888   4.308  0.3955  0.3220 -2.3148
18776SOL    HW258582   1.511   6.770   4.368 -0.8322  1.2745  1.3014
18777SOL     OW58583   9.333   0.310   6.584  0.1560 -0.6140 -0.0890
18777SOL    HW158584   9.412   0.285   6.631 -0.1196 -0.5536  0.4196
18777SOL    HW258585   9.346   0.279   6.495  0.3103 -1.5278  0.2456
18778SOL     OW58586   6.958   8.096   2.846 -0.4918 -0.6747  0.2885
18778SOL    HW158587   6.996   8.055   2.768  1.6654 -0.2195  1.0454
18778SOL    HW258588   6.919   8.177   2.814  0.9091 -0.1888 -0.2438
18779SOL     OW58589   1.147  10.153   6.898  0.1743  0.2926  0.5849
18779SOL    HW158590   1.118  10.235   6.939  2.1358  0.9018  0.8192
18779SOL    HW258591   1.239  10.167   6.879  0.5583 -1.8846  0.6377
18780SOL     OW58592   0.612   5.279   6.936  0.0905  0.1036 -0.1180
18780SOL    HW158593   0.639   5.249   6.850 -0.0964 -0.4472  0.0075
18780SOL    HW258594   0.683   5.253   6.994 -0.4004 -0.7879  0.1113
18781SOL     OW58595   6.453   3.964   3.699  0.2110 -0.2625  0.1940
18781SOL    HW158596   6.495   4.000   3.621 -0.3887  0.8706  0.3852
18781SOL    HW258597   6.492   3.877   3.708  1.0710  0.0015 -0.7512
18782SOL     OW58598   4.786   6.796   8.017 -0.3970  0.1606  0.3791
18782SOL    HW158599   4.806   6.865   8.080 -0.2899  0.6776 -0.2118
18782SOL    HW258600   4.756   6.843   7.940  0.4716 -0.4122 -0.3262
18783SOL     OW58601   1.302   6.744   8.368  0.2949 -0.2801  0.5682
18783SOL    HW158602   1.395   6.751   8.346  0.3087 -1.1785  0.2926
18783SOL    HW258603   1.265   6.829   8.345  0.6450 -0.6044 -1.3438
18784SOL     OW58604   0.641   8.975   5.428 -0.1781 -0.8055  0.3157
18784SOL    HW158605   0.569   9.019   5.474  1.7224  1.9003  0.9752
18784SOL    HW258606   0.605   8.952   5.343 -2.5805 -2.1447  1.5809
18785SOL     OW58607   0.615   2.844   9.441  0.6114 -0.3758  0.6596
18785SOL    HW158608   0.546   2.831   9.376  0.7736 -0.9991  0.6026
18785SOL    HW258609   0.569   2.879   9.517  0.2566 -0.6102  0.5556
18786SOL     OW58610   4.036   5.498   4.880 -0.5778 -0.2132  0.0213
18786SOL    HW158611   3.998   5.428   4.827 -2.4464  1.1588 -0.5331
18786SOL    HW258612   4.031   5.465   4.970 -0.5635 -1.1613 -0.3107
18787SOL     OW58613   7.514   8.698  10.110  0.2305  0.2636 -0.5082
18787SOL    HW158614   7.441   8.638  10.127  1.8236 -1.6630 -0.0953
18787SOL    HW258615   7.484   8.782  10.143 -1.4630 -0.6732  0.4693
18788SOL     OW58616   7.883   9.858   6.315  0.2688  0.0743  0.5827
18788SOL    HW158617   7.834   9.783   6.349  1.8103 -1.4986 -0.4474
18788SOL    HW258618   7.817   9.924   6.296 -1.2307 -1.2840  0.8679
18789SOL     OW58619  10.250   9.032   7.682 -0.1331  0.2400 -0.1306
18789SOL    HW158620  10.252   9.100   7.749 -0.5723 -0.1669  0.3059
18789SOL    HW258621  10.333   9.041   7.636 -0.0095  0.7995  0.1939
18790SOL     OW58622   7.292  10.168   2.425  0.5915 -0.0104 -0.1063
18790SOL    HW158623   7.287  10.244   2.368 -1.4528  0.1222  0.1652
18790SOL    HW258624   7.270  10.094   2.368  0.4108 -0.1101  0.0908
18791SOL     OW58625   1.102   2.847   5.456 -1.1021 -0.2634 -0.6201
18791SOL    HW158626   1.184   2.800   5.474 -0.1600 -0.0991 -3.8151
18791SOL    HW258627   1.089   2.903   5.532  0.6667 -1.7356  0.8675
18792SOL     OW58628   1.336   8.203   4.415 -0.2640 -0.3598  0.4508
18792SOL    HW158629   1.397   8.211   4.489 -0.0505 -0.5528  0.2979
18792SOL    HW258630   1.353   8.281   4.362 -3.1212  1.9132  2.5557
18793SOL     OW58631   5.190   3.177   6.868 -0.1569  0.1381  0.5109
18793SOL    HW158632   5.132   3.107   6.899 -0.3525  0.5945  1.1958
18793SOL    HW258633   5.238   3.204   6.947  0.6001  0.1303  0.0592
18794SOL     OW58634   6.954   8.370   2.383 -0.1342 -0.1713 -0.0075
18794SOL    HW158635   7.012   8.294   2.373 -0.1903 -0.3274  0.8457
18794SOL    HW258636   7.001   8.429   2.440  0.4568  1.0206 -1.6472
18795SOL     OW58637   8.257   8.655   9.001 -0.6031  0.4788  0.1524
18795SOL    HW158638   8.221   8.644   8.913  0.7381  0.8367 -0.4711
18795SOL    HW258639   8.352   8.660   8.988 -0.2092 -1.3002  1.8021
18796SOL     OW58640   1.877   7.780   9.479  0.2256  0.2031 -0.3769
18796SOL    HW158641   1.804   7.842   9.490  1.2987  1.3580  0.5107
18796SOL    HW258642   1.866   7.719   9.552  0.7861  1.0866  0.4824
18797SOL     OW58643   2.490   9.352   8.999  0.0846 -0.1605 -0.4298
18797SOL    HW158644   2.411   9.325   9.046  0.7893  0.0685  0.9191
18797SOL    HW258645   2.531   9.270   8.971  0.4251 -0.3674  0.6519
18798SOL     OW58646   7.314  10.544   8.785 -0.0249  0.9559  0.5469
18798SOL    HW158647   7.301  10.551   8.880 -1.7321  1.1536  0.3434
18798SOL    HW258648   7.241  10.595   8.748  0.0398  0.0581 -0.8758
18799SOL     OW58649   5.568  10.615   8.791 -0.1422  0.0662  0.3041
18799SOL    HW158650   5.578  10.563   8.711  1.0011  2.1091 -0.9567
18799SOL    HW258651   5.478  10.599   8.818  0.6208 -4.0656  1.1482
18800SOL     OW58652   1.194  10.249   2.077  0.3805 -0.3009 -0.0505
18800SOL    HW158653   1.162  10.339   2.068  2.3856  0.4377 -0.2936
18800SOL    HW258654   1.176  10.227   2.169  1.7233  1.1437  0.6061
18801SOL     OW58655   8.056   2.320   4.848 -0.3406 -0.0433 -0.7116
18801SOL    HW158656   8.027   2.230   4.861 -0.9441  0.3958  1.4537
18801SOL    HW258657   8.152   2.315   4.845 -0.3895 -0.8007 -1.1440
18802SOL     OW58658  10.188   2.102   8.273  0.1654  0.2754  0.0863
18802SOL    HW158659  10.226   2.085   8.186 -1.7718  1.5073 -1.0794
18802SOL    HW258660  10.201   2.021   8.321  0.4299 -0.7963 -1.7057
18803SOL     OW58661   3.113   4.971   1.380  1.0342 -0.2248 -0.6569
18803SOL    HW158662   3.152   4.935   1.300  0.2543  0.5420 -1.4095
18803SOL    HW258663   3.104   5.065   1.362  1.0130 -0.0143  0.4072
18804SOL     OW58664   2.753   5.678   6.621  0.5119 -0.2529  0.4959
18804SOL    HW158665   2.806   5.675   6.701  1.9252  0.7807 -0.3674
18804SOL    HW258666   2.816   5.693   6.551 -0.6530 -1.6168 -0.8990
18805SOL     OW58667   9.776   9.175   5.469 -0.0092 -0.0943  0.0523
18805SOL    HW158668   9.722   9.205   5.542  1.9795  2.2631  0.6834
18805SOL    HW258669   9.808   9.089   5.496  0.6611  0.7275  1.9664
18806SOL     OW58670   9.683   8.514   1.033  0.1072  0.5313 -0.2628
18806SOL    HW158671   9.771   8.508   0.996  0.1010 -1.6284 -0.0805
18806SOL    HW258672   9.626   8.523   0.956  0.3201 -0.9058 -0.6296
18807SOL     OW58673   0.792   2.511  10.310  0.2981  0.0047 -0.3179
18807SOL    HW158674   0.828   2.457  10.239 -1.0141 -0.3610 -0.7362
18807SOL    HW258675   0.801   2.457  10.388 -0.2691 -0.5054 -0.5970
18808SOL     OW58676   8.199   0.409  10.512 -0.3547  0.6123 -0.8939
18808SOL    HW158677   8.114   0.392  10.471 -0.4376 -0.7164 -0.2294
18808SOL    HW258678   8.179   0.432  10.602 -0.0372  1.1011 -0.9413
18809SOL     OW58679   4.889   0.174  10.640  0.0947 -0.0827  0.1488
18809SOL    HW158680   4.814   0.232  10.657 -0.9629 -1.5072  0.5977
18809SOL    HW258681   4.955   0.201  10.704  0.0197  1.2707 -0.3235
18810SOL     OW58682   0.760   1.530   1.958 -0.4849  0.2059 -0.4323
18810SOL    HW158683   0.721   1.594   1.899  0.2507  0.5257 -0.5793
18810SOL    HW258684   0.695   1.459   1.963 -0.4943  0.1112 -1.7164
18811SOL     OW58685   6.737   9.152   2.579 -0.0098 -0.6274  0.4769
18811SOL    HW158686   6.712   9.225   2.635  1.4954  1.0342 -0.8935
18811SOL    HW258687   6.655   9.120   2.542 -0.6394  1.0164  0.3710
18812SOL     OW58688   4.417   3.276   5.149 -0.0038 -0.1068 -0.1205
18812SOL    HW158689   4.422   3.285   5.244  0.7536  0.8448 -0.2348
18812SOL    HW258690   4.474   3.201   5.129 -2.8280 -2.5736  0.4410
18813SOL     OW58691   2.931   3.513   7.678 -0.4372  0.1031  0.1302
18813SOL    HW158692   2.919   3.476   7.590 -1.1826 -0.2545  0.3710
18813SOL    HW258693   2.967   3.600   7.663  0.0080 -0.1871 -0.5070
18814SOL     OW58694   8.262   9.768   8.920  0.5849  0.4558 -0.0939
18814SOL    HW158695   8.334   9.799   8.867  0.3293  1.1800 -0.0249
18814SOL    HW258696   8.246   9.679   8.889 -0.9940  1.5701 -2.7739
18815SOL     OW58697   7.761   7.609   8.249 -0.1519 -0.5838 -0.1730
18815SOL    HW158698   7.763   7.641   8.159 -0.7732 -0.0655 -0.0139
18815SOL    HW258699   7.718   7.523   8.243 -0.2081 -0.5435 -0.3691
18816SOL     OW58700   3.311   5.069   5.234 -0.1064 -0.3511 -0.7079
18816SOL    HW158701   3.403   5.092   5.219 -0.3301  0.0658 -1.5221
18816SOL    HW258702   3.304   4.977   5.206  0.4659 -1.0048  1.1650
18817SOL     OW58703   0.564   8.079   3.878 -0.0234  0.1723 -0.2792
18817SOL    HW158704   0.552   8.162   3.924  0.6304  0.5065 -0.6974
18817SOL    HW258705   0.652   8.051   3.902 -0.3937 -0.6273  0.2068
18818SOL     OW58706   8.600   6.884   0.055 -0.5279 -0.0304 -0.1665
18818SOL    HW158707   8.666   6.819   0.033  0.6331  1.2546 -0.5993
18818SOL    HW258708   8.567   6.915  -0.029  0.0810  1.0607 -0.0236
18819SOL     OW58709  10.045   3.844   6.146 -0.4223  0.2464  0.8602
18819SOL    HW158710  10.060   3.890   6.229 -2.4497  1.4648  0.6042
18819SOL    HW258711  10.047   3.912   6.079  0.2367 -0.5917  0.0018
18820SOL     OW58712   3.498   9.662   9.552 -0.0333  0.1131 -0.3341
18820SOL    HW158713   3.439   9.593   9.584 -1.2523  0.0765 -2.4727
18820SOL    HW258714   3.557   9.679   9.626 -1.7093 -0.9757  1.3601
18821SOL     OW58715   9.621   1.669   8.824  0.1422  0.7991  0.1517
18821SOL    HW158716   9.684   1.600   8.802 -0.3808  0.8937 -1.8187
18821SOL    HW258717   9.540   1.621   8.844  0.4347  0.7515  1.3149
18822SOL     OW58718   5.773   9.474   5.624  0.2771 -0.0896 -0.4240
18822SOL    HW158719   5.767   9.379   5.632  0.3474 -0.0057  0.8032
18822SOL    HW258720   5.834   9.489   5.552  0.3700 -0.9660 -0.5342
18823SOL     OW58721   2.396   5.297   0.777  1.1066 -0.2805  0.4634
18823SOL    HW158722   2.488   5.277   0.790  0.7790 -0.6819  2.5675
18823SOL    HW258723   2.386   5.389   0.801  0.9888 -0.1718  0.0134
18824SOL     OW58724   4.598   4.414   6.155  0.2023  0.4424  0.3873
18824SOL    HW158725   4.635   4.468   6.224  1.5081  0.9706 -0.6649
18824SOL    HW258726   4.664   4.346   6.140 -0.6991 -0.5043  0.6018
18825SOL     OW58727   2.437   9.471   8.706  0.0454 -0.7443  0.1861
18825SOL    HW158728   2.443   9.427   8.621  1.0179  0.3802 -0.3561
18825SOL    HW258729   2.453   9.402   8.769 -0.7513 -1.6155 -0.5307
18826SOL     OW58730   9.808   0.872   0.509 -0.1023  0.1630 -0.3003
18826SOL    HW158731   9.851   0.788   0.522 -0.4147  0.2646  1.5645
18826SOL    HW258732   9.724   0.851   0.468 -0.2801 -0.4634  0.3702
18827SOL     OW58733   1.026   2.101  10.071 -0.5237 -0.6568  0.0996
18827SOL    HW158734   1.107   2.107  10.121 -0.4804  0.9455 -0.1294
18827SOL    HW258735   1.052   2.065   9.986 -0.0174  0.0846 -0.0599
18828SOL     OW58736   5.120   8.464   8.040 -0.4592  0.1006  0.4364
18828SOL    HW158737   5.065   8.386   8.028 -1.5035  0.6010  1.6670
18828SOL    HW258738   5.178   8.440   8.112 -0.9918  0.5453  1.0268
18829SOL     OW58739   9.308   1.263   0.679 -0.3932 -0.3874 -0.2281
18829SOL    HW158740   9.311   1.346   0.727 -0.1600 -0.0644 -0.7982
18829SOL    HW258741   9.273   1.286   0.593  1.0471 -0.6227 -0.9044
18830SOL     OW58742   4.096   5.401   6.966 -0.3529  0.1530 -0.1845
18830SOL    HW158743   4.187   5.399   6.936  0.1235  0.8490  1.1527
18830SOL    HW258744   4.061   5.316   6.940  0.9928 -0.5675  0.2172
18831SOL     OW58745   5.535   3.560   0.923 -0.4861  0.3772  0.2708
18831SOL    HW158746   5.539   3.601   0.836 -1.2193 -0.5588 -0.2250
18831SOL    HW258747   5.581   3.477   0.912 -0.9254  0.0768  0.6666
18832SOL     OW58748   5.115   7.361   2.797  0.7681 -0.2960 -0.2387
18832SOL    HW158749   5.085   7.414   2.723 -0.1801  0.7348  0.8343
18832SOL    HW258750   5.076   7.274   2.782 -0.2228  0.1690 -0.4696
18833SOL     OW58751   7.871   6.024   9.586  0.5481  0.1551  0.1913
18833SOL    HW158752   7.863   6.022   9.681 -2.2887  1.1622  0.0724
18833SOL    HW258753   7.920   6.104   9.567  0.2819  0.4685  0.7940
18834SOL     OW58754   0.731   6.918   1.052 -0.0380 -0.0600 -0.6321
18834SOL    HW158755   0.760   6.828   1.043  0.2871 -0.4121  2.6074
18834SOL    HW258756   0.678   6.919   1.132 -0.5149  2.5031 -0.8690
18835SOL     OW58757   0.245   9.770   8.131  0.0759 -0.6498 -0.3259
18835SOL    HW158758   0.223   9.769   8.038  2.0767 -1.5257 -0.8471
18835SOL    HW258759   0.315   9.835   8.139  0.8564 -1.5284  0.2808
18836SOL     OW58760   6.409   2.187   6.967  0.5505 -0.1525 -0.0416
18836SOL    HW158761   6.493   2.157   7.001  0.4305 -0.5406 -0.0801
18836SOL    HW258762   6.344   2.148   7.025  0.3507 -0.7144 -0.6220
18837SOL     OW58763   2.973   7.133   6.637  0.1920 -0.2037 -0.2009
18837SOL    HW158764   2.991   7.144   6.730  0.0488  1.0423 -0.2985
18837SOL    HW258765   2.960   7.039   6.625 -1.2892 -0.2224  1.3100
18838SOL     OW58766   7.340   0.101   1.169  0.1374 -0.2852  0.2843
18838SOL    HW158767   7.383   0.168   1.117  0.6809 -1.3256 -0.6636
18838SOL    HW258768   7.399   0.025   1.163 -2.0490 -1.9973 -1.6174
18839SOL     OW58769   9.618  10.271  10.286 -0.3723  0.0334  0.3924
18839SOL    HW158770   9.637  10.364  10.289  1.2478 -0.3012  1.8733
18839SOL    HW258771   9.614  10.243  10.377 -0.2318 -1.4657 -0.0209
18840SOL     OW58772   8.354   5.229   5.929  0.2281 -0.4698 -0.1971
18840SOL    HW158773   8.355   5.304   5.870  2.3697 -0.4399 -0.1803
18840SOL    HW258774   8.389   5.263   6.012  0.0578 -1.2025  0.1823
18841SOL     OW58775   8.190   0.997   2.869  0.2577 -0.0041  0.2994
18841SOL    HW158776   8.141   1.043   2.801  0.2979 -0.5072 -0.0702
18841SOL    HW258777   8.253   0.943   2.821  0.6186  0.0105  0.7490
18842SOL     OW58778   4.645   6.529   5.729  0.0646  0.3850 -0.0488
18842SOL    HW158779   4.644   6.443   5.769 -0.2950  0.3609 -0.1055
18842SOL    HW258780   4.719   6.527   5.668  0.0825  0.1314 -0.0165
18843SOL     OW58781   2.784   9.527   5.039 -0.5642  0.5055  0.0761
18843SOL    HW158782   2.708   9.566   4.996 -1.1709 -2.2075 -1.5266
18843SOL    HW258783   2.747   9.475   5.111 -0.2013 -0.3152 -0.3154
18844SOL     OW58784   5.245   4.594   0.673  0.2176  0.1601 -0.1223
18844SOL    HW158785   5.266   4.672   0.622 -2.5556  0.9335 -0.2455
18844SOL    HW258786   5.308   4.594   0.746  0.6049  2.1997 -0.4221
18845SOL     OW58787  10.205   9.522   4.022  0.2336  0.3887 -0.7055
18845SOL    HW158788  10.113   9.499   4.022  0.1950  0.4809  0.2872
18845SOL    HW258789  10.215   9.582   4.096  0.7401  1.8447 -1.9139
18846SOL     OW58790   5.590   3.463   2.703  0.0467 -0.4521  0.3082
18846SOL    HW158791   5.537   3.399   2.751 -0.6143  0.8697  1.4181
18846SOL    HW258792   5.533   3.493   2.632 -0.1063 -0.2227  0.5239
18847SOL     OW58793   6.985   0.629   9.707 -0.4084  0.4924  0.3081
18847SOL    HW158794   7.025   0.669   9.629  0.4827 -0.9523 -0.0140
18847SOL    HW258795   6.905   0.588   9.675  0.3926 -0.8351 -0.0408
18848SOL     OW58796   8.821   0.206  10.453 -0.1016  0.3264 -0.5940
18848SOL    HW158797   8.873   0.240  10.380  1.5338 -1.9669 -0.6217
18848SOL    HW258798   8.731   0.206  10.420  0.5838 -0.5731 -2.6284
18849SOL     OW58799   1.121   3.525   3.530  0.2175  0.6940 -0.5879
18849SOL    HW158800   1.125   3.620   3.542 -1.7357  0.5351  2.3179
18849SOL    HW258801   1.027   3.505   3.526  0.5724 -1.1656 -0.6814
18850SOL     OW58802   6.310   9.857   2.598 -0.3717 -0.3625  0.5502
18850SOL    HW158803   6.291   9.827   2.509 -0.8105  1.3455  0.0232
18850SOL    HW258804   6.229   9.842   2.646 -0.6497  0.1220  0.2437
18851SOL     OW58805   6.711   6.528   6.452  0.0075  0.0693 -0.4538
18851SOL    HW158806   6.776   6.590   6.421  1.3825 -0.8835  0.4160
18851SOL    HW258807   6.691   6.556   6.541  0.0428 -0.2712 -0.3375
18852SOL     OW58808   2.609   0.649   5.350 -0.3154  0.2047 -0.1108
18852SOL    HW158809   2.538   0.599   5.311 -0.9288  0.5577  0.5376
18852SOL    HW258810   2.620   0.612   5.437  1.7683 -1.2969 -0.9409
18853SOL     OW58811   1.932   5.134   5.543  0.2062 -0.8431  0.0808
18853SOL    HW158812   1.847   5.121   5.585  0.5420  1.7210  1.7997
18853SOL    HW258813   1.992   5.155   5.615  1.9308 -0.9151 -1.2535
18854SOL     OW58814   9.575   0.178   2.338  0.2933 -0.2144  0.3796
18854SOL    HW158815   9.598   0.271   2.330  1.7956 -0.6273 -0.4969
18854SOL    HW258816   9.554   0.167   2.431 -0.0613  1.0173  0.4738
18855SOL     OW58817   2.025   0.682   7.831  0.7014 -0.5013 -0.5478
18855SOL    HW158818   1.993   0.592   7.833  0.3056 -0.3466  0.9039
18855SOL    HW258819   2.006   0.712   7.742 -1.5221 -1.0247 -0.2937
18856SOL     OW58820   1.498   7.267  10.510 -0.7079 -0.0053 -0.0576
18856SOL    HW158821   1.446   7.346  10.522 -0.8881 -0.1139 -0.1013
18856SOL    HW258822   1.514   7.234  10.598  0.0473  0.5076  0.0031
18857SOL     OW58823   2.149  10.525   9.328 -0.5208 -0.9082 -0.6698
18857SOL    HW158824   2.172  10.608   9.286  1.1633  0.6024  2.8394
18857SOL    HW258825   2.212  10.462   9.293  0.3280  0.0939 -1.0163
18858SOL     OW58826   6.807   9.849   7.968  0.4162  0.5104  0.1342
18858SOL    HW158827   6.872   9.908   8.007 -1.4531  2.1406  0.9096
18858SOL    HW258828   6.813   9.866   7.874  1.4539  0.2195  0.1239
18859SOL     OW58829  10.319   7.563  10.274  0.0421 -0.5316 -0.5972
18859SOL    HW158830  10.375   7.608  10.211  1.0439  0.0820  0.6894
18859SOL    HW258831  10.251   7.523  10.220  1.2188 -0.5875 -2.1377
18860SOL     OW58832   9.249   9.274   4.534 -0.0088  0.0612  0.5250
18860SOL    HW158833   9.274   9.245   4.446 -1.7197 -0.3043  0.1190
18860SOL    HW258834   9.154   9.281   4.530 -0.0754  0.4354  2.2500
18861SOL     OW58835   9.437   7.704   5.589 -0.4621  0.0308  0.2234
18861SOL    HW158836   9.357   7.707   5.537 -1.1548  0.1707  1.2626
18861SOL    HW258837   9.447   7.793   5.623  1.1323  0.5009 -1.3165
18862SOL     OW58838   3.526   9.736  10.074 -0.1188  0.6236  0.6244
18862SOL    HW158839   3.545   9.683  10.151 -2.1373  1.3345  1.6974
18862SOL    HW258840   3.430   9.741  10.072 -0.0440  3.1267 -0.1430
18863SOL     OW58841   6.644   5.771   6.899 -0.4782 -0.3886 -0.0926
18863SOL    HW158842   6.551   5.793   6.904 -0.3255  0.2667 -0.0334
18863SOL    HW258843   6.689   5.847   6.935  0.0743 -0.8244  0.1620
18864SOL     OW58844   2.776   0.759  10.153  0.2158 -0.1345 -0.1819
18864SOL    HW158845   2.751   0.791  10.240  0.2860  0.0509 -0.2303
18864SOL    HW258846   2.821   0.677  10.170 -0.3532 -0.4315 -0.0880
18865SOL     OW58847  10.601   3.133   6.727  0.0944 -0.0694  0.0136
18865SOL    HW158848  10.597   3.152   6.821 -0.1151  2.2083 -0.4022
18865SOL    HW258849  10.684   3.087   6.715  0.2343 -0.1893  1.2616
18866SOL     OW58850   1.265   4.309   0.890 -1.0248 -0.1126  0.1064
18866SOL    HW158851   1.253   4.215   0.902 -2.2658 -0.0183 -0.2291
18866SOL    HW258852   1.332   4.334   0.954  0.4882 -1.4771 -0.8859
18867SOL     OW58853   7.971   6.744   0.068  0.5066  0.6196  0.1210
18867SOL    HW158854   7.924   6.725   0.149 -1.7506  2.5789 -0.5861
18867SOL    HW258855   8.012   6.662   0.044 -0.7870 -0.6537  1.9753
18868SOL     OW58856   8.539   1.202   9.175  0.0794  0.3873  0.3616
18868SOL    HW158857   8.455   1.225   9.134  0.8960 -0.2410 -1.7870
18868SOL    HW258858   8.591   1.282   9.169 -0.2467  0.7018  1.4716
18869SOL     OW58859   5.933   1.401   8.243  0.3110 -0.6321 -0.2107
18869SOL    HW158860   6.004   1.461   8.268  1.5023 -1.3485 -1.7292
18869SOL    HW258861   5.889   1.381   8.325  1.1254  0.7477  0.6097
18870SOL     OW58862   9.835   0.231   6.727  0.4331  0.0654  0.2074
18870SOL    HW158863   9.878   0.316   6.738  0.6622 -0.1505  1.0433
18870SOL    HW258864   9.907   0.168   6.721  0.3489  0.1095 -2.4480
18871SOL     OW58865   4.371   3.676   5.505  0.1777 -0.5166  0.0857
18871SOL    HW158866   4.388   3.588   5.537 -2.3165 -1.8170 -1.8105
18871SOL    HW258867   4.338   3.723   5.582 -1.9366 -2.3725  0.4166
18872SOL     OW58868   0.221   3.306   7.445 -0.3395  0.5720  0.1978
18872SOL    HW158869   0.228   3.213   7.421 -0.5455  0.6846 -0.3118
18872SOL    HW258870   0.241   3.353   7.364 -0.2949  0.9708  0.4420
18873SOL     OW58871   2.825   9.626   3.711  0.3526 -0.2908  0.1746
18873SOL    HW158872   2.739   9.661   3.690  0.0885 -0.6792  0.5908
18873SOL    HW258873   2.887   9.691   3.679 -0.0752 -0.3420 -0.7787
18874SOL     OW58874   8.314   3.176   1.028 -0.3413 -0.2826  0.2648
18874SOL    HW158875   8.332   3.264   1.060  0.6590  0.5554 -2.4126
18874SOL    HW258876   8.373   3.164   0.954 -1.2023 -2.8303 -0.1186
18875SOL     OW58877   8.844   0.650   2.063 -0.2729 -0.4602  0.0532
18875SOL    HW158878   8.765   0.600   2.086 -0.0743 -0.7135  0.1978
18875SOL    HW258879   8.869   0.617   1.977 -0.9911  0.4577 -0.5167
18876SOL     OW58880   3.939   2.074   2.378  0.1608 -0.1358 -0.3781
18876SOL    HW158881   3.849   2.048   2.360 -0.0943 -0.8674  1.6713
18876SOL    HW258882   3.991   1.995   2.364  0.3108 -0.0356 -0.3957
18877SOL     OW58883   9.550  10.101   5.279  0.0151  0.0715 -0.0308
18877SOL    HW158884   9.607  10.033   5.242  0.4682  0.3662  0.1249
18877SOL    HW258885   9.566  10.178   5.225  0.8821  0.5866  0.9422
18878SOL     OW58886   6.663   1.126   0.457 -0.1729  0.3942  0.3543
18878SOL    HW158887   6.574   1.096   0.474  0.3932 -1.0905  0.8477
18878SOL    HW258888   6.704   1.053   0.410  1.1927  0.4836  1.3580
18879SOL     OW58889   3.592   8.485   2.509  0.3394 -0.5537 -0.2664
18879SOL    HW158890   3.607   8.560   2.567 -1.4519 -1.0295  0.8791
18879SOL    HW258891   3.589   8.523   2.421 -0.1152  0.6775  0.2585
18880SOL     OW58892   1.622   2.239  10.421 -0.1653 -0.0460 -0.5161
18880SOL    HW158893   1.677   2.317  10.424 -0.0636 -0.1344  0.3420
18880SOL    HW258894   1.573   2.242  10.503 -0.6936 -0.5029 -0.8127
18881SOL     OW58895   8.727   2.004  10.270  0.2457 -0.1658  0.1845
18881SOL    HW158896   8.697   2.072  10.210 -0.8928 -1.2655 -0.5584
18881SOL    HW258897   8.648   1.973  10.314  0.9329 -0.0520  1.5772
18882SOL     OW58898  10.452   1.133   1.685 -0.1602  0.6594 -0.2180
18882SOL    HW158899  10.516   1.203   1.694 -0.0649  0.4427  0.9933
18882SOL    HW258900  10.429   1.133   1.593  0.7394  1.4875 -0.4593
18883SOL     OW58901  10.536   3.830   7.053  0.8909 -0.5841 -0.3127
18883SOL    HW158902  10.538   3.759   6.989  1.0164  0.5268 -1.5866
18883SOL    HW258903  10.503   3.905   7.004  0.3942  0.1514  1.0994
18884SOL     OW58904   9.272   4.788   7.714  0.2006  0.2956  0.6923
18884SOL    HW158905   9.240   4.713   7.665  1.3619  0.7009 -0.7275
18884SOL    HW258906   9.211   4.858   7.692 -0.4505 -0.0190  1.4401
18885SOL     OW58907   9.958   4.674  10.634 -0.1709  0.6257  0.6408
18885SOL    HW158908   9.906   4.713  10.564 -2.0501  0.6995  2.0274
18885SOL    HW258909   9.909   4.691  10.714  0.1934 -2.3315  1.6176
18886SOL     OW58910   4.635   6.410   2.933  0.6033  0.1287  0.0977
18886SOL    HW158911   4.657   6.320   2.957 -2.1851 -1.0510 -1.2583
18886SOL    HW258912   4.619   6.453   3.017  1.5961 -0.7345  0.7597
18887SOL     OW58913   9.948   4.756   7.910 -0.2363 -0.0745  0.4147
18887SOL    HW158914   9.953   4.736   8.003  1.6596  0.9823  0.5854
18887SOL    HW258915   9.863   4.800   7.899 -1.3025 -1.8112  1.2603
18888SOL     OW58916   7.631   1.853   9.861  0.2260 -0.0163 -0.2262
18888SOL    HW158917   7.544   1.888   9.844 -0.2345 -0.8010  0.4470
18888SOL    HW258918   7.671   1.846   9.774  0.8057  3.2068 -0.3311
18889SOL     OW58919   1.309   1.029   6.431 -0.7103 -0.2221  1.1840
18889SOL    HW158920   1.290   0.985   6.348 -0.0668  2.2361 -0.3674
18889SOL    HW258921   1.400   1.007   6.450  0.3373  1.9953 -0.7451
18890SOL     OW58922   1.073   2.711   0.434 -0.1022  0.2994 -0.4454
18890SOL    HW158923   1.024   2.629   0.445 -0.5879  0.2464 -2.5201
18890SOL    HW258924   1.006   2.779   0.438  0.1663  0.5267  0.2759
18891SOL     OW58925   4.476   1.104   2.398 -0.6145  0.1356 -0.2681
18891SOL    HW158926   4.525   1.028   2.366 -1.0120 -0.8764  1.3848
18891SOL    HW258927   4.413   1.123   2.328 -0.2452 -0.8173 -0.8770
18892SOL     OW58928   9.343   7.086   0.997  0.0718  0.3957  0.0881
18892SOL    HW158929   9.387   7.009   0.961 -0.2245  0.2540  0.0186
18892SOL    HW258930   9.254   7.056   1.014  0.0632  0.6129  0.4375
18893SOL     OW58931   7.211   1.528   0.310 -0.6983  0.4296  0.1894
18893SOL    HW158932   7.151   1.502   0.380 -0.3770 -0.4097  0.1711
18893SOL    HW258933   7.206   1.624   0.308 -2.1029  0.3774  0.1119
18894SOL     OW58934   0.213   3.843   0.891  0.1336  0.1853 -0.0991
18894SOL    HW158935   0.144   3.842   0.956 -1.1521 -2.1922 -1.3743
18894SOL    HW258936   0.276   3.778   0.921 -0.7865 -1.4094 -1.4376
18895SOL     OW58937   3.225   5.447   3.344 -0.2453 -0.1330 -0.1891
18895SOL    HW158938   3.146   5.455   3.291 -0.9301 -0.0308  0.8214
18895SOL    HW258939   3.230   5.530   3.391 -0.7787 -0.9722  1.4197
18896SOL     OW58940   1.790   7.236   7.356  0.4950 -0.3161  0.5835
18896SOL    HW158941   1.774   7.196   7.271  0.6321  3.0485 -1.1888
18896SOL    HW258942   1.716   7.295   7.370  1.9205  1.4392  1.2770
18897SOL     OW58943   9.117   9.129   5.867  0.2063  0.4683  0.7113
18897SOL    HW158944   9.150   9.066   5.803  2.9830  1.5577  0.8942
18897SOL    HW258945   9.051   9.179   5.819  0.5858 -0.2298 -0.5939
18898SOL     OW58946   0.054  10.475   1.759  0.4312  0.6305  0.0181
18898SOL    HW158947   0.101  10.469   1.676 -1.3415 -1.5465 -0.9404
18898SOL    HW258948  -0.038  10.483   1.734 -0.1470 -0.1321  1.7444
18899SOL     OW58949   9.336   8.954   4.434  0.5877  0.0329  0.6777
18899SOL    HW158950   9.392   8.994   4.500  0.8132 -1.0039  1.1409
18899SOL    HW258951   9.265   9.016   4.421  0.4478  0.1778  2.0346
18900SOL     OW58952   4.754   1.926   5.334  0.2260 -0.4043 -0.0471
18900SOL    HW158953   4.675   1.926   5.388  0.8217  0.5428  0.8544
18900SOL    HW258954   4.722   1.942   5.245 -0.7081 -1.3380  0.1024
18901SOL     OW58955   2.723   7.271   8.366  0.0476 -0.1723 -0.2879
18901SOL    HW158956   2.679   7.326   8.302  0.4288 -1.7170 -1.9459
18901SOL    HW258957   2.815   7.298   8.362  0.2321 -0.8693 -1.0918
18902SOL     OW58958   9.182   1.467   6.496 -0.2081  0.1524  0.2896
18902SOL    HW158959   9.207   1.375   6.498 -1.3472 -0.2264 -1.1298
18902SOL    HW258960   9.254   1.513   6.539  0.6193 -1.3432  0.5474
18903SOL     OW58961   1.375   7.653   4.640  0.6102  0.0038  0.3239
18903SOL    HW158962   1.376   7.569   4.685 -0.4098  0.1832  0.7015
18903SOL    HW258963   1.314   7.707   4.690 -0.6497  0.1777 -1.3078
18904SOL     OW58964   3.579   9.010   0.207  0.0728 -0.1339  0.2493
18904SOL    HW158965   3.544   8.961   0.133  0.7137  0.0475 -0.1793
18904SOL    HW258966   3.668   8.975   0.219  0.7921  1.3593 -0.4873
18905SOL     OW58967   6.251  10.344   9.760 -0.5970 -0.2108 -0.1462
18905SOL    HW158968   6.227  10.251   9.760  0.6045 -0.5697  1.2411
18905SOL    HW258969   6.279  10.361   9.850  1.1959  0.9567 -0.8619
18906SOL     OW58970   1.610   1.961   9.188  0.0936 -0.1631  0.3071
18906SOL    HW158971   1.538   1.999   9.137  0.1271 -0.4404  0.0541
18906SOL    HW258972   1.668   1.923   9.123  0.4744  0.0580  0.5108
18907SOL     OW58973   3.965  10.596   4.441  0.2378 -0.0260 -0.8011
18907SOL    HW158974   3.900  10.609   4.511  0.2283  2.6020 -1.1799
18907SOL    HW258975   3.978  10.684   4.405 -0.0663 -1.3038 -4.4040
18908SOL     OW58976   2.582   3.043   5.028  0.1461  0.1729  0.0816
18908SOL    HW158977   2.598   2.980   5.098  0.8806  0.4841  0.2046
18908SOL    HW258978   2.498   3.083   5.051 -1.1032 -1.8333 -0.8387
18909SOL     OW58979   9.892   4.184   4.260  0.1104  0.1185 -0.1892
18909SOL    HW158980   9.944   4.207   4.337  0.5634  2.2732 -1.0867
18909SOL    HW258981   9.957   4.167   4.192 -0.2574 -2.4981 -0.0060
18910SOL     OW58982   1.798   8.965   2.087  0.2494  0.4333 -0.0920
18910SOL    HW158983   1.806   9.043   2.032  0.7431 -0.0023 -0.6553
18910SOL    HW258984   1.712   8.973   2.128  0.4146  1.4179  0.0889
18911SOL     OW58985   4.895   9.368   2.763 -0.1296  0.0359 -0.0496
18911SOL    HW158986   4.862   9.286   2.728  0.7852 -1.1102  1.6529
18911SOL    HW258987   4.946   9.406   2.692 -1.0931 -0.5258 -1.0677
18912SOL     OW58988   8.682   7.928   7.050 -0.3328  0.3568 -0.0307
18912SOL    HW158989   8.702   7.839   7.079  1.4567  0.5556 -0.5046
18912SOL    HW258990   8.587   7.930   7.040 -0.4092 -1.4684  0.0853
18913SOL     OW58991   4.265   7.948   7.030 -0.0294 -0.3096 -0.9529
18913SOL    HW158992   4.176   7.984   7.026  0.1865  0.1600 -2.0156
18913SOL    HW258993   4.257   7.862   6.989 -0.0153 -0.3064 -0.9626
18914SOL     OW58994   6.076   8.640   7.448  0.1265 -0.4539 -0.0456
18914SOL    HW158995   6.062   8.638   7.542  1.2597  1.0435  0.1886
18914SOL    HW258996   5.994   8.673   7.412 -0.0245 -0.2537  0.4790
18915SOL     OW58997   3.418   9.101   4.958  0.1707 -0.3444  0.5495
18915SOL    HW158998   3.473   9.024   4.973 -1.2717 -1.2829  1.2267
18915SOL    HW258999   3.415   9.110   4.863  3.3319  1.1593  0.4586
18916SOL     OW59000   1.320   6.542   1.096 -0.1296 -0.1262 -0.3608
18916SOL    HW159001   1.301   6.470   1.156  1.2777 -0.9602 -0.8647
18916SOL    HW259002   1.372   6.604   1.147  0.5285 -0.5297 -0.5411
18917SOL     OW59003   1.547   7.496   4.044 -0.4002  0.1037  0.5503
18917SOL    HW159004   1.468   7.549   4.042  0.2486  1.1575  1.3398
18917SOL    HW259005   1.558   7.473   4.137  1.0232  1.3128  0.7363
18918SOL     OW59006   6.456   3.567   5.287  0.0545  0.0035  0.2048
18918SOL    HW159007   6.421   3.652   5.316  0.6647  1.5617 -3.1505
18918SOL    HW259008   6.462   3.515   5.368 -0.9773  2.8792  2.3200
18919SOL     OW59009  10.312   4.490   1.729 -0.2394 -0.1520  0.6088
18919SOL    HW159010  10.338   4.580   1.708  2.3617 -1.4521 -2.7759
18919SOL    HW259011  10.222   4.483   1.696  0.6146  0.4848 -2.1972
18920SOL     OW59012   5.863   8.874   3.071  0.1933 -0.1042 -0.4674
18920SOL    HW159013   5.908   8.936   3.013  1.0003 -0.6624 -0.4497
18920SOL    HW259014   5.783   8.851   3.024 -0.7137  1.8244  0.0272
18921SOL     OW59015   2.256   6.892   0.101  0.4284 -0.1590  0.2724
18921SOL    HW159016   2.172   6.912   0.060  1.0069  0.5918 -0.6047
18921SOL    HW259017   2.270   6.799   0.081  0.2271 -0.0573 -0.3830
18922SOL     OW59018   0.910   8.513   5.170 -0.5699 -0.2562  0.2833
18922SOL    HW159019   0.913   8.431   5.219 -0.1647 -0.0068  0.6875
18922SOL    HW259020   1.002   8.541   5.165 -0.4894 -0.7286 -1.4101
18923SOL     OW59021   0.447   8.785   0.072  0.3753  0.0542  0.4463
18923SOL    HW159022   0.431   8.867   0.026 -0.7943  0.3912  1.4148
18923SOL    HW259023   0.492   8.810   0.153  1.8771 -0.4789 -0.1845
18924SOL     OW59024   8.406   1.961   0.231  0.1951  0.1338  0.3359
18924SOL    HW159025   8.345   1.999   0.294 -0.8399  0.5135 -0.8296
18924SOL    HW259026   8.457   1.897   0.281 -0.5618  0.4431  1.5418
18925SOL     OW59027   7.584   9.551   3.162 -0.4031  0.4358  0.2786
18925SOL    HW159028   7.598   9.469   3.115  0.0780  0.3447  0.5662
18925SOL    HW259029   7.621   9.619   3.105  0.1705  0.3272  0.5156
18926SOL     OW59030   3.730   8.993   6.689 -0.0681  0.1049 -0.0988
18926SOL    HW159031   3.773   8.910   6.710 -1.7172 -0.9668 -0.7655
18926SOL    HW259032   3.683   9.017   6.769  0.4475  0.4411  0.1100
18927SOL     OW59033   2.197   6.244   1.102  0.1664 -0.6472 -0.2891
18927SOL    HW159034   2.179   6.201   1.185  0.8782 -2.4885 -1.0484
18927SOL    HW259035   2.253   6.318   1.125 -2.1039  0.7319  1.1933
18928SOL     OW59036   7.883   5.929   8.320  0.3753  0.0193  0.7390
18928SOL    HW159037   7.962   5.961   8.277 -0.3994  1.1715  0.1129
18928SOL    HW259038   7.834   6.008   8.342 -1.0987 -0.6874  0.1330
18929SOL     OW59039   9.330   8.369   0.955 -0.3576 -0.0211 -0.6483
18929SOL    HW159040   9.307   8.443   1.011 -1.8036 -0.5776 -0.4548
18929SOL    HW259041   9.391   8.405   0.891 -0.8721  1.2904 -0.4355
18930SOL     OW59042   6.446  10.555   5.664 -0.0944 -0.1616 -0.2760
18930SOL    HW159043   6.454  10.497   5.588 -0.8782 -0.2731 -0.2834
18930SOL    HW259044   6.352  10.572   5.671  0.1298  1.2899 -0.4064
18931SOL     OW59045   9.972   4.286  10.613  0.1597  0.5315  0.3545
18931SOL    HW159046   9.939   4.332  10.536  0.5988  1.5896  0.7855
18931SOL    HW259047  10.054   4.246  10.585 -0.3924 -0.2985 -0.1174
18932SOL     OW59048   6.963   7.755   3.974 -0.0488 -0.2797 -0.0469
18932SOL    HW159049   6.974   7.841   3.934 -0.7605  0.2769  0.9088
18932SOL    HW259050   7.049   7.735   4.011  0.2364 -0.1809 -0.6560
18933SOL     OW59051   5.649   2.815   6.274  0.0486 -0.1074  0.5017
18933SOL    HW159052   5.556   2.821   6.297  0.5413  1.0565  2.4809
18933SOL    HW259053   5.681   2.905   6.284  1.1997 -0.3154 -1.1074
18934SOL     OW59054   4.300   8.774   3.959 -0.1265 -0.4058  0.7529
18934SOL    HW159055   4.290   8.683   3.987  0.6549  0.2131  3.3026
18934SOL    HW259056   4.227   8.820   4.001 -0.9103  0.1043 -1.0564
18935SOL     OW59057   2.825   9.995   0.808  0.4018 -0.4496  0.0004
18935SOL    HW159058   2.885   9.989   0.734 -1.1858 -1.1334 -1.2815
18935SOL    HW259059   2.769   9.917   0.801 -1.1417  0.5345  0.6621
18936SOL     OW59060   1.477   9.422   4.894 -0.5593 -0.0895 -0.1556
18936SOL    HW159061   1.530   9.501   4.884 -0.3819 -0.4320 -2.5969
18936SOL    HW259062   1.450   9.400   4.805  0.2515 -3.3476  0.2727
18937SOL     OW59063   4.472   0.249   4.179 -0.3985 -0.2677  0.0356
18937SOL    HW159064   4.458   0.256   4.085  0.7472 -1.0603 -0.2090
18937SOL    HW259065   4.417   0.175   4.206 -2.1847  1.0933  0.3506
18938SOL     OW59066   5.900   0.582   3.422  0.4218  0.0916 -0.2964
18938SOL    HW159067   5.925   0.596   3.331  1.7173  0.5032  0.0884
18938SOL    HW259068   5.810   0.549   3.418  0.5525 -0.1656 -1.7226
18939SOL     OW59069   7.203   2.009   4.062  0.1726  0.4691  0.4817
18939SOL    HW159070   7.206   2.097   4.098 -0.0708  0.8411 -0.3661
18939SOL    HW259071   7.130   2.011   4.000  1.3109  0.2419 -0.9452
18940SOL     OW59072   5.318   3.280   9.325 -0.3295  0.1820 -0.6668
18940SOL    HW159073   5.223   3.274   9.317 -0.2475  0.7161 -2.4349
18940SOL    HW259074   5.333   3.366   9.364 -0.5871 -0.4116  0.8051
18941SOL     OW59075   1.216   3.135   2.700 -0.3128  0.1658  0.0455
18941SOL    HW159076   1.236   3.112   2.791 -0.2112  0.2096  0.0338
18941SOL    HW259077   1.299   3.124   2.653 -0.6015 -0.8808 -0.2449
18942SOL     OW59078   7.670   6.955   5.486 -0.5078  0.1338  0.2900
18942SOL    HW159079   7.648   7.045   5.462  1.0626  0.6256  0.5730
18942SOL    HW259080   7.666   6.906   5.404  1.3916  1.0804 -0.4394
18943SOL     OW59081   4.585   4.792   1.837  0.4493 -0.3837  0.0120
18943SOL    HW159082   4.518   4.822   1.776  0.5840 -2.2579 -1.1657
18943SOL    HW259083   4.551   4.814   1.924 -2.3063 -2.2937 -0.4533
18944SOL     OW59084   3.794   4.098   8.694 -0.4854 -0.3968 -0.3344
18944SOL    HW159085   3.812   4.125   8.604 -1.2870  0.8143 -0.1515
18944SOL    HW259086   3.795   4.180   8.744  0.3283 -1.0902  0.8447
18945SOL     OW59087   4.139   4.179   1.251  0.8309  0.2431  0.3391
18945SOL    HW159088   4.101   4.229   1.323  1.7595 -1.7225  2.3104
18945SOL    HW259089   4.233   4.177   1.270  0.8287 -2.2653  0.4539
18946SOL     OW59090   9.167   3.688   4.607 -0.4316  0.1233 -0.3351
18946SOL    HW159091   9.142   3.619   4.546 -0.2018  1.0560 -1.5170
18946SOL    HW259092   9.259   3.672   4.625 -1.0226 -1.4711  1.5721
18947SOL     OW59093   0.585   6.436   9.282 -0.9753 -0.0811  0.6939
18947SOL    HW159094   0.623   6.385   9.353 -0.0168 -0.6060 -0.1658
18947SOL    HW259095   0.655   6.443   9.217 -0.4687  3.7686  1.4364
18948SOL     OW59096   7.351   5.695   2.282  0.1160 -0.5782  0.1694
18948SOL    HW159097   7.423   5.721   2.340 -0.3442  0.7681  0.1777
18948SOL    HW259098   7.388   5.626   2.227  1.1060 -0.6107  0.8482
18949SOL     OW59099   2.775  10.562   7.268 -0.4800 -0.5690  0.9831
18949SOL    HW159100   2.722  10.547   7.190  0.8462  0.5343 -0.1983
18949SOL    HW259101   2.744  10.645   7.302 -0.2120 -0.4310  0.8925
18950SOL     OW59102   1.151   2.251   9.211 -0.0800 -0.2253 -0.0483
18950SOL    HW159103   1.152   2.334   9.162  0.7517  0.1788  0.6213
18950SOL    HW259104   1.243   2.226   9.217 -0.2515 -0.7297  0.5279
18951SOL     OW59105   3.116   3.626   3.974  0.5930 -0.5555  0.5179
18951SOL    HW159106   3.135   3.629   3.880  1.0190  0.6603  0.6282
18951SOL    HW259107   3.020   3.628   3.979  0.4945 -2.2040  0.0931
18952SOL     OW59108   6.841   7.788   6.585  0.1033  0.1605  0.5658
18952SOL    HW159109   6.879   7.838   6.513  2.3478 -0.6869  1.0897
18952SOL    HW259110   6.768   7.740   6.545  0.9434  0.1376 -1.0200
18953SOL     OW59111   7.882   1.109   5.576  0.3934 -0.1935 -0.1676
18953SOL    HW159112   7.907   1.201   5.563  1.2492 -0.5189 -0.9743
18953SOL    HW259113   7.963   1.067   5.606  0.5415 -1.0375 -1.6315
18954SOL     OW59114   3.785   9.538   3.294 -0.1133 -0.5976 -0.3407
18954SOL    HW159115   3.801   9.451   3.257 -1.2081 -0.6487 -0.7435
18954SOL    HW259116   3.713   9.524   3.357 -3.6004  0.6532 -3.6465
18955SOL     OW59117   8.833   0.473   7.443  0.0383  0.3969  0.2472
18955SOL    HW159118   8.755   0.426   7.473  0.8876 -0.5607  1.0262
18955SOL    HW259119   8.872   0.508   7.523  1.0194 -0.1185  0.0037
18956SOL     OW59120   0.728   2.197   8.253 -0.0868 -0.5876  0.2290
18956SOL    HW159121   0.770   2.228   8.173  0.3097  0.7380  0.9259
18956SOL    HW259122   0.799   2.192   8.317 -0.7642  0.5474  1.1033
18957SOL     OW59123   6.889   5.722   2.647 -0.3249  0.3375  0.5090
18957SOL    HW159124   6.952   5.725   2.576 -0.4954 -1.1169  0.2621
18957SOL    HW259125   6.919   5.788   2.710  0.2633  1.0824 -0.5418
18958SOL     OW59126   8.576   8.882  10.303 -0.4204 -0.4059  0.3856
18958SOL    HW159127   8.638   8.934  10.355 -0.5357  0.7350 -0.5675
18958SOL    HW259128   8.500   8.873  10.360 -1.2499  2.3433 -0.1283
18959SOL     OW59129   7.616   7.587   9.281 -0.3027 -0.0476  0.0118
18959SOL    HW159130   7.570   7.671   9.278  0.0856  0.1287 -1.8635
18959SOL    HW259131   7.709   7.611   9.273 -0.1576 -0.6484 -0.1423
18960SOL     OW59132   0.335   5.338   6.833  0.5887  0.1996 -0.3374
18960SOL    HW159133   0.339   5.300   6.745  4.7899 -0.4650 -0.0559
18960SOL    HW259134   0.416   5.310   6.875 -1.3959  0.2052  3.9641
18961SOL     OW59135   8.904   2.026   0.074  0.0931  0.1998 -0.2796
18961SOL    HW159136   8.830   1.985   0.120 -0.1036  0.9588  0.0885
18961SOL    HW259137   8.869   2.045  -0.014 -0.1470  0.5314 -0.1152
18962SOL     OW59138   1.234   9.566   8.121 -0.8114  0.1401  0.3705
18962SOL    HW159139   1.323   9.576   8.085 -0.0896 -0.5886  1.8729
18962SOL    HW259140   1.224   9.472   8.132 -1.5670  0.2616  0.7301
18963SOL     OW59141   5.775   6.980   6.026 -0.2674  0.1270 -0.4798
18963SOL    HW159142   5.715   6.912   5.996  0.0543  0.1718 -1.2514
18963SOL    HW259143   5.772   7.047   5.959 -0.1712  0.6316  0.0107
18964SOL     OW59144   8.137  10.509  10.220 -0.3055  0.1284  0.2467
18964SOL    HW159145   8.145  10.572  10.291  1.2671  0.2248  0.0312
18964SOL    HW259146   8.121  10.563  10.142 -0.0133  0.1807  0.2226
18965SOL     OW59147   4.616   3.133   3.809  0.2061  0.2310  0.0010
18965SOL    HW159148   4.526   3.144   3.842  0.0969  1.1915 -0.5810
18965SOL    HW259149   4.650   3.222   3.801  0.4377  0.0180 -1.8734
18966SOL     OW59150   0.527  10.135  10.371  0.6371 -0.0486  0.2062
18966SOL    HW159151   0.598  10.074  10.393  0.6727  0.4684  1.6554
18966SOL    HW259152   0.466  10.127  10.444 -1.0264 -0.7515 -1.1831
18967SOL     OW59153   6.168   8.615   6.057 -0.2991 -0.2571 -0.0174
18967SOL    HW159154   6.228   8.593   6.129 -1.3669  0.3967  1.1194
18967SOL    HW259155   6.216   8.679   6.004  0.9293 -1.5776 -0.5504
18968SOL     OW59156   4.348   9.132   3.236 -0.7937 -0.1966  0.3338
18968SOL    HW159157   4.317   9.160   3.149  0.5372 -0.7145 -0.3437
18968SOL    HW259158   4.419   9.193   3.257  1.6985 -2.4295 -0.8665
18969SOL     OW59159   9.370   5.838   0.372  0.1356  0.3159 -0.7896
18969SOL    HW159160   9.320   5.864   0.449  1.5771  1.1774 -0.1011
18969SOL    HW259161   9.435   5.775   0.406  0.4843  0.3496 -1.3824
18970SOL     OW59162   9.092   4.481   5.149 -0.1697 -0.3906 -0.4477
18970SOL    HW159163   9.091   4.523   5.235 -0.4539 -0.1769 -0.5513
18970SOL    HW259164   9.096   4.555   5.087  0.0226 -0.5421 -0.6163
18971SOL     OW59165   1.927   5.896   7.166  0.0355 -0.0562 -0.1223
18971SOL    HW159166   2.005   5.937   7.205 -0.7508  0.6947  0.6968
18971SOL    HW259167   1.923   5.810   7.208  0.2890 -0.0114 -0.0001
18972SOL     OW59168   1.089   3.090   0.872  0.2156 -0.5392 -0.3397
18972SOL    HW159169   1.020   3.043   0.918 -1.1923 -0.3537 -2.1334
18972SOL    HW259170   1.170   3.052   0.905 -0.5926  0.4676  3.1557
18973SOL     OW59171   0.965   0.212   2.270 -0.2379  0.5518 -0.3957
18973SOL    HW159172   0.915   0.146   2.222  1.1228 -1.2793  0.5488
18973SOL    HW259173   0.899   0.264   2.315 -1.3563 -1.0890 -0.0333
18974SOL     OW59174   5.810   8.441   8.866 -0.6764 -0.4929  0.3158
18974SOL    HW159175   5.717   8.457   8.884 -0.7014 -1.4235  1.1384
18974SOL    HW259176   5.834   8.372   8.928  0.3137 -0.9690 -0.5705
18975SOL     OW59177   3.686   7.814   9.700  0.2013 -0.1660  0.3341
18975SOL    HW159178   3.634   7.874   9.754 -1.5276 -1.1686 -0.1398
18975SOL    HW259179   3.711   7.743   9.759  2.0507  0.8396  0.8365
18976SOL     OW59180   3.823   8.193   3.268 -0.0020 -0.0416 -0.3208
18976SOL    HW159181   3.917   8.199   3.285 -0.2088  0.4467  0.7046
18976SOL    HW259182   3.813   8.223   3.177  0.8873 -0.6589 -0.6394
18977SOL     OW59183   2.006   1.194   2.626  0.7575 -0.2214 -0.0281
18977SOL    HW159184   2.027   1.193   2.533  0.8333 -1.9797 -0.0194
18977SOL    HW259185   2.089   1.174   2.669  0.2261 -1.9069  0.2705
18978SOL     OW59186   1.011   7.518   9.586 -0.7678  0.8006  0.7137
18978SOL    HW159187   0.984   7.436   9.626 -1.5281  0.8734  0.3657
18978SOL    HW259188   1.102   7.504   9.560 -0.7693  0.2118  1.0283
18979SOL     OW59189   8.213   4.888   4.251  0.2241  0.4550  0.2894
18979SOL    HW159190   8.137   4.944   4.268 -1.0929 -1.1495 -0.0096
18979SOL    HW259191   8.184   4.830   4.180  3.2393  2.6222 -3.0481
18980SOL     OW59192   1.117   1.909   2.687  0.4680 -0.3384  0.2534
18980SOL    HW159193   1.210   1.888   2.681  0.4529 -0.8111  1.4722
18980SOL    HW259194   1.073   1.825   2.677  0.1664 -0.1261 -0.2373
18981SOL     OW59195   0.336   1.887   7.025 -0.1966 -1.2516  0.0274
18981SOL    HW159196   0.281   1.867   7.101 -0.2401 -1.0788  0.0420
18981SOL    HW259197   0.335   1.983   7.020 -0.3282 -1.2702 -0.2916
18982SOL     OW59198   1.333   4.701   9.319  0.5834  0.0413  0.1813
18982SOL    HW159199   1.289   4.722   9.237 -0.6054  2.4884  1.3027
18982SOL    HW259200   1.424   4.729   9.306  0.4514  0.2222 -0.3855
18983SOL     OW59201   4.889   7.165   5.360 -1.0863  0.0944 -0.0762
18983SOL    HW159202   4.961   7.199   5.413 -1.2799  0.7891 -0.2579
18983SOL    HW259203   4.837   7.114   5.422 -0.2428 -0.7399 -0.0180
18984SOL     OW59204   7.342   6.902   4.454  0.0092 -0.2399  0.1388
18984SOL    HW159205   7.389   6.912   4.371 -1.1826  2.0951 -0.3439
18984SOL    HW259206   7.394   6.952   4.517  0.2148 -0.9254  0.5283
18985SOL     OW59207   3.409  10.053   4.125 -0.1627  0.3237  0.0897
18985SOL    HW159208   3.487  10.009   4.092  0.0496  0.0568  0.9231
18985SOL    HW259209   3.336  10.010   4.079  0.0152 -1.1669  1.1302
18986SOL     OW59210  10.202   2.483   8.488  0.4644 -0.0111 -0.1150
18986SOL    HW159211  10.150   2.476   8.568  1.2365 -1.0361  0.3218
18986SOL    HW259212  10.159   2.552   8.437 -0.6459 -0.0586  0.7243
18987SOL     OW59213   3.782   1.665   0.927 -1.1719  0.6602  0.2492
18987SOL    HW159214   3.818   1.753   0.923  1.6712 -0.3981  0.1620
18987SOL    HW259215   3.724   1.665   1.003 -1.4462  2.6175  0.0914
18988SOL     OW59216   2.821  10.326   3.878  0.0271  0.6678 -0.1601
18988SOL    HW159217   2.785  10.406   3.841 -0.3518  0.6716  0.2146
18988SOL    HW259218   2.815  10.262   3.807  1.1441  1.1899 -0.7472
18989SOL     OW59219   4.092   7.475   6.562 -0.1781 -0.3210 -0.4108
18989SOL    HW159220   4.166   7.449   6.507  0.7369 -0.9025  1.0494
18989SOL    HW259221   4.051   7.547   6.514 -0.9648 -2.3884 -3.0824
18990SOL     OW59222   2.611   5.317   4.268 -0.6585  0.7841 -0.1868
18990SOL    HW159223   2.648   5.386   4.213  0.3467 -0.0071 -0.5207
18990SOL    HW259224   2.567   5.258   4.206  2.2120 -1.2324 -0.4795
18991SOL     OW59225   5.359   1.781   3.224 -0.3904  0.0165  0.7814
18991SOL    HW159226   5.408   1.818   3.150 -1.3273 -1.3972 -0.6107
18991SOL    HW259227   5.408   1.808   3.301  1.4903  0.2804 -0.4424
18992SOL     OW59228   7.298   3.970   1.276 -0.4191  0.2768 -0.4501
18992SOL    HW159229   7.378   4.021   1.293 -0.6648  0.3827  0.4410
18992SOL    HW259230   7.302   3.950   1.183  0.1383  1.1612 -0.6290
18993SOL     OW59231   5.019   3.491   5.996  0.7622 -0.1612 -0.1697
18993SOL    HW159232   5.038   3.541   6.075  1.0370 -0.7438  0.1407
18993SOL    HW259233   5.051   3.546   5.925 -0.6922  0.9837 -0.0021
18994SOL     OW59234   3.268   9.694   1.573 -0.2325 -0.3106 -0.2094
18994SOL    HW159235   3.326   9.625   1.543  1.0270  0.6968 -0.1838
18994SOL    HW259236   3.277   9.694   1.668 -0.6083 -0.4202 -0.1708
18995SOL     OW59237   3.888   9.265   2.981 -0.1553  0.2582 -0.6493
18995SOL    HW159238   3.827   9.215   3.035 -0.0520 -0.4777 -1.2061
18995SOL    HW259239   3.955   9.202   2.956  1.9089  1.4611  1.4980
18996SOL     OW59240   9.924   7.626   8.294 -0.6528 -0.6382  0.3126
18996SOL    HW159241   9.959   7.542   8.324 -0.5716 -0.8564 -0.3786
18996SOL    HW259242   9.854   7.603   8.233  1.0139 -0.2631 -1.8778
18997SOL     OW59243   4.805   1.318   4.675  0.0516  0.1280  0.0576
18997SOL    HW159244   4.732   1.371   4.643  0.2778  0.0824 -0.5542
18997SOL    HW259245   4.864   1.309   4.599  0.5186 -0.1307  0.4397
18998SOL     OW59246   6.211   3.598   9.823 -0.3597 -0.0734  0.1059
18998SOL    HW159247   6.279   3.559   9.878 -0.2191  1.6757  1.2768
18998SOL    HW259248   6.258   3.631   9.746  0.1708  1.1102  0.8997
18999SOL     OW59249   5.959   8.308   5.309 -0.1250  0.1194  0.1054
18999SOL    HW159250   5.965   8.222   5.349 -0.4571 -0.1310 -0.3698
18999SOL    HW259251   5.880   8.347   5.347 -0.5383 -0.1864 -0.4255
19000SOL     OW59252   1.851   5.039   3.047  0.2677  0.0587  0.3648
19000SOL    HW159253   1.772   5.020   2.996  0.2398 -1.2858  0.8684
19000SOL    HW259254   1.905   5.092   2.989 -0.8793  0.7897 -0.0833
19001SOL     OW59255   5.919   9.121   2.740  0.0814  0.1085 -0.2800
19001SOL    HW159256   5.973   9.084   2.809  0.2464  0.0882 -0.4202
19001SOL    HW259257   5.838   9.147   2.784  0.2751  0.3005 -0.0424
19002SOL     OW59258   7.553   2.546   8.353 -0.3577 -0.0118  0.1041
19002SOL    HW159259   7.481   2.534   8.415  0.2460 -0.5942  0.7238
19002SOL    HW259260   7.626   2.497   8.392  0.5499  1.0415 -0.2068
19003SOL     OW59261   3.843   9.703   5.374 -0.6922 -0.0651 -0.0856
19003SOL    HW159262   3.921   9.706   5.318  1.2998 -1.3480  2.4204
19003SOL    HW259263   3.861   9.767   5.443 -1.8837 -0.3974  0.5562
19004SOL     OW59264   5.225   0.127   6.967 -0.2356  0.1478  0.2457
19004SOL    HW159265   5.183   0.158   7.047 -1.2428  0.4153 -0.3723
19004SOL    HW259266   5.237   0.205   6.914  2.2718  0.3137  0.9017
19005SOL     OW59267   5.160   8.911   2.557  0.1144  0.4958  0.2430
19005SOL    HW159268   5.149   8.919   2.463  1.6646 -1.2727 -0.1693
19005SOL    HW259269   5.185   8.998   2.586  1.3441  0.7127 -1.3006
19006SOL     OW59270   7.699   3.440   3.015 -0.0989 -0.1072 -0.6127
19006SOL    HW159271   7.603   3.440   3.012 -0.1212 -0.8341  0.0209
19006SOL    HW259272   7.725   3.354   2.984  0.4202  0.5582 -2.1446
19007SOL     OW59273  10.628   4.548   1.335 -0.0547 -0.6200 -0.0956
19007SOL    HW159274  10.681   4.613   1.381  1.0463 -1.2617 -0.4071
19007SOL    HW259275  10.668   4.541   1.248 -0.9588 -0.7762 -0.5136
19008SOL     OW59276   5.739   1.068   2.878  0.1194  0.5981 -0.4343
19008SOL    HW159277   5.777   0.982   2.897 -2.0779 -0.3911 -0.2032
19008SOL    HW259278   5.735   1.112   2.963 -1.0343 -0.0845 -0.1193
19009SOL     OW59279   8.953   1.703   7.700 -0.4333 -0.4272 -0.2443
19009SOL    HW159280   8.925   1.650   7.625 -0.7147  0.9552 -1.1448
19009SOL    HW259281   8.911   1.662   7.775 -1.5099 -0.8582 -1.0604
19010SOL     OW59282   2.417   9.165   7.690 -0.4087  0.3609 -0.0168
19010SOL    HW159283   2.365   9.229   7.643 -1.1138 -0.1786  0.0111
19010SOL    HW259284   2.367   9.084   7.684 -0.1579  0.1051  1.0334
19011SOL     OW59285   3.039   9.585   7.431  0.3184 -0.2104  0.0311
19011SOL    HW159286   3.115   9.601   7.377  0.4385 -1.6713 -0.2597
19011SOL    HW259287   3.049   9.646   7.505  1.4138  0.0672 -0.3302
19012SOL     OW59288   8.528   2.694   6.852  0.2086 -0.7987  0.0832
19012SOL    HW159289   8.452   2.668   6.905  0.5398 -0.2944  0.8251
19012SOL    HW259290   8.527   2.634   6.778 -1.1237 -0.5717 -0.1105
19013SOL     OW59291   9.629   7.069   1.304 -0.0845 -0.1945 -0.1156
19013SOL    HW159292   9.587   7.148   1.272 -0.3234 -0.1546  0.3028
19013SOL    HW259293   9.663   7.092   1.390 -0.4067 -0.6337  0.1303
19014SOL     OW59294   0.806   1.733   5.601 -0.6282 -0.1139 -0.3119
19014SOL    HW159295   0.847   1.811   5.564 -1.9885  0.1801 -1.2762
19014SOL    HW259296   0.799   1.672   5.528 -1.6622 -0.2455 -0.1214
19015SOL     OW59297   4.647   8.431   8.530 -0.3760 -0.0731 -0.3351
19015SOL    HW159298   4.730   8.403   8.567 -0.0759 -0.0753 -0.9864
19015SOL    HW259299   4.611   8.351   8.490 -0.2627  0.1176 -0.8293
19016SOL     OW59300  10.192   6.967   7.589  0.2487  0.2526 -0.4285
19016SOL    HW159301  10.124   6.978   7.655  1.1810  1.0696  0.4292
19016SOL    HW259302  10.160   7.013   7.512 -1.7044 -2.2631 -1.2700
19017SOL     OW59303   3.856   4.482   8.301 -0.1037  0.0212 -0.4725
19017SOL    HW159304   3.879   4.571   8.326 -0.3957 -0.2058  0.6634
19017SOL    HW259305   3.922   4.456   8.237  1.2858  0.2799  0.8053
19018SOL     OW59306   8.672   1.028   9.378  0.2777 -0.0154  0.9045
19018SOL    HW159307   8.686   1.097   9.443 -1.3825  0.0076  1.2890
19018SOL    HW259308   8.647   1.075   9.299  1.5687 -0.0809  0.4410
19019SOL     OW59309   0.045   2.699   0.164 -0.3143  0.0756 -0.4185
19019SOL    HW159310   0.093   2.642   0.104  0.8000  0.5754 -0.0366
19019SOL    HW259311  -0.034   2.724   0.116  0.5167  0.4119 -1.6660
19020SOL     OW59312   3.692   9.573  10.333  0.0464  0.8784  0.2974
19020SOL    HW159313   3.741   9.609  10.407  0.9711  0.6178 -0.1765
19020SOL    HW259314   3.667   9.485  10.361  0.1789  0.8721  0.3930
19021SOL     OW59315   1.458   8.447   5.261  0.5726 -0.0102  0.3158
19021SOL    HW159316   1.504   8.381   5.209 -2.7897 -0.5192 -2.3689
19021SOL    HW259317   1.511   8.527   5.249  1.3260 -0.7460 -1.8000
19022SOL     OW59318   1.759   3.824  10.107  0.3179 -0.7353 -0.3628
19022SOL    HW159319   1.692   3.769  10.067 -0.2694  0.9220 -1.7738
19022SOL    HW259320   1.715   3.908  10.123  1.1542 -0.6384  1.7810
19023SOL     OW59321   7.790   9.114   9.347  0.4390  0.7743 -0.8065
19023SOL    HW159322   7.802   9.196   9.396 -0.3052  0.1491  0.4813
19023SOL    HW259323   7.757   9.142   9.262  1.4943  1.8825 -0.8957
19024SOL     OW59324   2.974   2.876   5.281  0.7816  0.5132  0.2072
19024SOL    HW159325   2.973   2.931   5.359 -0.9164  1.2773 -0.3153
19024SOL    HW259326   2.938   2.931   5.212 -0.0298 -0.9097 -0.5682
19025SOL     OW59327   6.105   2.500   7.984  0.1789  0.1925 -0.0310
19025SOL    HW159328   6.195   2.472   7.972 -0.1247 -0.8295 -0.0188
19025SOL    HW259329   6.057   2.457   7.913 -0.3339  0.5324  0.1053
19026SOL     OW59330   2.340   7.354   1.149 -0.1623 -0.3270  0.0081
19026SOL    HW159331   2.305   7.313   1.069 -2.0401 -1.9978  1.5799
19026SOL    HW259332   2.415   7.404   1.118  0.5578 -2.6706 -2.5339
19027SOL     OW59333   7.327   2.731   4.089 -0.1775  0.5411  0.2011
19027SOL    HW159334   7.364   2.817   4.070  1.9757  0.1173  2.0265
19027SOL    HW259335   7.304   2.735   4.182 -0.3302 -0.7370  0.2353
19028SOL     OW59336   2.674   7.351   9.040  0.4032  0.1175  0.6144
19028SOL    HW159337   2.658   7.414   8.970  0.7571  0.0832  0.4968
19028SOL    HW259338   2.706   7.404   9.114 -0.1007  0.1691  0.7995
19029SOL     OW59339   3.644   0.883   6.913  0.5252  0.8342 -0.7884
19029SOL    HW159340   3.712   0.817   6.920 -1.2447 -1.1222 -0.9345
19029SOL    HW259341   3.618   0.882   6.821 -0.3380  0.8259 -0.5626
19030SOL     OW59342   4.147   4.192   2.808  0.1553  0.4931 -0.6244
19030SOL    HW159343   4.075   4.164   2.864  0.1996  0.4524 -0.5873
19030SOL    HW259344   4.115   4.179   2.719  0.2551  0.1216 -0.6058
19031SOL     OW59345   1.013   0.271   7.745 -0.3601  0.0011 -0.8211
19031SOL    HW159346   1.091   0.274   7.690  0.0177  0.6106 -0.2624
19031SOL    HW259347   1.046   0.278   7.834 -0.9866 -0.7497 -0.5122
19032SOL     OW59348   8.291   5.688   6.469  0.5047  0.0419  0.6505
19032SOL    HW159349   8.315   5.677   6.377 -1.2173 -0.1879  0.1907
19032SOL    HW259350   8.260   5.602   6.496 -0.7473  0.5417  0.8770
19033SOL     OW59351   9.191   7.071   6.473  0.0435  0.1374 -0.4162
19033SOL    HW159352   9.182   7.151   6.525  0.5190  0.0331 -0.1698
19033SOL    HW259353   9.241   7.098   6.396  1.2831 -0.1767  0.2620
19034SOL     OW59354   6.640   0.499   3.362 -0.4523 -0.2487 -0.2226
19034SOL    HW159355   6.615   0.592   3.364  1.8871  0.4762 -1.1133
19034SOL    HW259356   6.641   0.477   3.269  3.8173  0.3828 -0.5231
19035SOL     OW59357   6.642   4.947  10.175  0.5469  0.4138 -0.3280
19035SOL    HW159358   6.688   4.939  10.258 -0.6299  0.3414  0.3332
19035SOL    HW259359   6.643   4.858  10.139  0.1432  0.2362  0.1031
19036SOL     OW59360   1.340   7.553   5.615  0.1503  0.1224 -0.4026
19036SOL    HW159361   1.386   7.631   5.644 -0.4994  0.1999  0.4715
19036SOL    HW259362   1.278   7.534   5.686 -2.4554  1.0700 -2.2668
19037SOL     OW59363  10.577  10.162   0.604  0.1016 -0.1233 -0.4396
19037SOL    HW159364  10.601  10.205   0.687  0.3852 -3.1191  1.1629
19037SOL    HW259365  10.491  10.198   0.583 -0.0691  0.5817  1.2660
19038SOL     OW59366   4.075   1.915   8.386 -0.1801 -0.0308  0.1953
19038SOL    HW159367   4.039   1.999   8.357  0.0823 -0.9903 -3.2914
19038SOL    HW259368   4.005   1.852   8.368  0.7604 -0.9716 -0.2687
19039SOL     OW59369   7.248   0.164   5.207 -0.1548 -0.3018  0.0699
19039SOL    HW159370   7.310   0.112   5.258 -0.3982  0.3057  1.0193
19039SOL    HW259371   7.272   0.148   5.116  1.4793  0.0214  0.4171
19040SOL     OW59372   3.791   5.441   2.973  0.2538  0.3886  0.2603
19040SOL    HW159373   3.818   5.375   2.909 -0.6103  0.3151 -0.0533
19040SOL    HW259374   3.706   5.410   3.004  1.0684 -0.0793  2.1717
19041SOL     OW59375   3.562   9.153   2.736 -0.4067  0.2642 -0.0792
19041SOL    HW159376   3.647   9.198   2.743 -0.4428  0.1017  1.5882
19041SOL    HW259377   3.504   9.201   2.794 -1.3162 -0.0041 -0.7415
19042SOL     OW59378   0.520   8.004  10.615  0.1708 -0.1149 -0.0041
19042SOL    HW159379   0.588   8.043  10.670  0.4111  0.1444 -0.4852
19042SOL    HW259380   0.544   8.028  10.526  1.3060 -2.7548 -0.5225
19043SOL     OW59381   4.348   2.514  10.609  0.5483 -0.0846  0.2405
19043SOL    HW159382   4.422   2.544  10.557  0.5407 -1.4513 -0.5988
19043SOL    HW259383   4.277   2.575  10.587  1.4300  1.3326  1.1810
19044SOL     OW59384   2.436   7.929   3.917  0.0403 -0.2820 -0.5589
19044SOL    HW159385   2.449   8.024   3.920  2.3371 -0.5443 -0.5407
19044SOL    HW259386   2.447   7.901   4.007 -0.1020 -0.6179 -0.6469
19045SOL     OW59387   0.124   9.154  10.569 -0.2024  0.0644  0.1763
19045SOL    HW159388   0.072   9.186  10.496 -0.6005  1.5217  1.0583
19045SOL    HW259389   0.174   9.230  10.598  1.8710 -1.0947 -0.1480
19046SOL     OW59390   3.047   1.516   4.020 -0.2443  0.4718  0.3603
19046SOL    HW159391   3.051   1.579   4.092  0.1739  0.9937 -0.1106
19046SOL    HW259392   3.052   1.431   4.063 -2.7106  0.6460  1.1780
19047SOL     OW59393   5.941   5.203  10.208  0.1045 -0.4600  0.0155
19047SOL    HW159394   5.846   5.211  10.206 -0.0034 -1.3527  0.7160
19047SOL    HW259395   5.964   5.219  10.300  0.8577  1.8700 -0.5395
19048SOL     OW59396   6.394   6.872   7.153 -0.1607 -0.0496 -0.2063
19048SOL    HW159397   6.387   6.834   7.065 -0.3639  0.8032 -0.5606
19048SOL    HW259398   6.306   6.864   7.190 -0.0415 -0.5395 -0.0174
19049SOL     OW59399   2.110   5.604   9.385 -1.0004  0.0219  0.5124
19049SOL    HW159400   2.111   5.520   9.430 -0.2680  0.4093  1.2517
19049SOL    HW259401   2.047   5.657   9.435 -0.0221  0.5247  1.2520
19050SOL     OW59402   7.834   6.073   2.775  0.5571  0.8920  0.2031
19050SOL    HW159403   7.909   6.025   2.810 -0.9966 -0.9628  1.1512
19050SOL    HW259404   7.834   6.052   2.682 -0.6540 -1.8917  0.7498
19051SOL     OW59405  10.556   9.618   8.230  0.1072 -0.6702 -0.4356
19051SOL    HW159406  10.526   9.567   8.305  0.7206 -1.5441 -0.7587
19051SOL    HW259407  10.577   9.552   8.163  0.6777  0.0210 -0.9577
19052SOL     OW59408   8.557   0.699   7.154  0.4515  0.7209 -0.3073
19052SOL    HW159409   8.641   0.665   7.126  1.4596  1.9160  1.1016
19052SOL    HW259410   8.518   0.628   7.205  0.2813 -0.0603 -1.4659
19053SOL     OW59411   1.200   4.435   5.480  0.2525 -0.3288 -0.6346
19053SOL    HW159412   1.146   4.514   5.488  0.4066 -0.3913  1.4494
19053SOL    HW259413   1.195   4.412   5.387 -1.1486  1.1702 -0.9725
19054SOL     OW59414   0.171   8.100   0.944  0.3360 -0.6656 -0.1393
19054SOL    HW159415   0.092   8.144   0.976  0.5245 -1.5183  1.6596
19054SOL    HW259416   0.208   8.160   0.880  1.0109  2.2288  2.7095
19055SOL     OW59417   5.475   0.935   8.899 -0.1112 -0.2113 -0.6240
19055SOL    HW159418   5.458   0.844   8.921  0.1832 -0.7900 -2.6637
19055SOL    HW259419   5.415   0.955   8.828  1.2372  0.5334 -1.6130
19056SOL     OW59420   0.578   3.607   1.264 -0.1079 -0.5477  0.1860
19056SOL    HW159421   0.605   3.515   1.261 -0.9225 -0.8154  0.8130
19056SOL    HW259422   0.654   3.655   1.230 -0.1125 -1.5259 -1.3201
19057SOL     OW59423   3.888   3.337  10.140  0.1833  0.0837  0.4154
19057SOL    HW159424   3.920   3.303  10.224 -1.1896 -0.0390  0.9100
19057SOL    HW259425   3.829   3.408  10.164 -1.7666 -1.2100 -0.3224
19058SOL     OW59426   0.278   4.203   7.362  0.2892 -0.5978 -0.8124
19058SOL    HW159427   0.328   4.122   7.370  0.7146 -0.5234 -2.3863
19058SOL    HW259428   0.244   4.201   7.272  1.2908  1.4961 -1.2998
19059SOL     OW59429   6.894   7.114   1.703  0.1542  0.4302 -0.9209
19059SOL    HW159430   6.863   7.066   1.626 -0.3141  1.2960 -1.2815
19059SOL    HW259431   6.915   7.201   1.670 -0.9471  1.1034  0.0957
19060SOL     OW59432   7.249   2.945   4.973  0.5675  0.3459  0.2758
19060SOL    HW159433   7.200   2.878   5.021 -0.0644  0.0121 -0.8016
19060SOL    HW259434   7.321   2.968   5.032  0.1376 -0.4475  1.1466
19061SOL     OW59435   8.475   3.831   7.724 -0.3806 -0.4814  0.2711
19061SOL    HW159436   8.439   3.751   7.763  3.0730 -1.9213  0.8427
19061SOL    HW259437   8.509   3.880   7.799  2.0490 -0.9947 -0.4170
19062SOL     OW59438   3.232   6.516   4.087 -0.6380  0.3749 -0.2829
19062SOL    HW159439   3.139   6.513   4.066 -0.6479  1.9637 -0.6070
19062SOL    HW259440   3.264   6.593   4.041  0.7226  0.1851  0.3064
19063SOL     OW59441   1.767   1.901   8.979  0.2307 -0.5169 -0.3868
19063SOL    HW159442   1.798   1.977   8.930 -0.7105 -1.3804 -2.4347
19063SOL    HW259443   1.837   1.836   8.971  0.6921 -0.1616  0.6739
19064SOL     OW59444  10.311   9.300   9.468  0.2320  0.6299  0.1268
19064SOL    HW159445  10.319   9.352   9.388  1.3994  0.8371  0.3603
19064SOL    HW259446  10.349   9.356   9.536 -2.7999  1.4479  1.3215
19065SOL     OW59447   4.172   1.939   5.827 -0.4677  0.5732  0.5056
19065SOL    HW159448   4.125   1.903   5.902  1.0127  0.1599  1.2820
19065SOL    HW259449   4.182   1.865   5.767  0.5465  0.2269  1.0653
19066SOL     OW59450   3.321   4.130   6.786  0.1613 -0.1124  0.0499
19066SOL    HW159451   3.334   4.125   6.881 -0.0514  0.0066  0.0864
19066SOL    HW259452   3.337   4.222   6.764 -0.6340  0.0435  0.1031
19067SOL     OW59453   1.330   0.290  10.520  0.3092 -0.2423  0.9471
19067SOL    HW159454   1.367   0.297  10.432  1.6761 -1.3459  1.3848
19067SOL    HW259455   1.252   0.235  10.509  0.4355 -0.3233  0.4124
19068SOL     OW59456  10.217   4.541   9.672 -0.0437 -0.0119 -0.1660
19068SOL    HW159457  10.160   4.558   9.747 -0.6108 -1.4134 -0.2499
19068SOL    HW259458  10.231   4.446   9.673  0.7450  0.0751 -1.2507
19069SOL     OW59459   4.093   4.256   1.567 -0.2520  0.2442  0.2360
19069SOL    HW159460   4.144   4.175   1.555 -2.4781 -1.1958 -0.1143
19069SOL    HW259461   4.009   4.226   1.602 -0.6571  2.5909  1.4549
19070SOL     OW59462   8.581   1.798   8.746  0.5941  0.6907 -0.3379
19070SOL    HW159463   8.511   1.857   8.718  0.1894  0.4992  0.2393
19070SOL    HW259464   8.539   1.741   8.811  1.2540  0.4818 -0.0898
19071SOL     OW59465   5.693   0.858   0.182 -0.1147 -0.6512  0.2140
19071SOL    HW159466   5.635   0.812   0.122  0.2487 -1.9456  0.8139
19071SOL    HW259467   5.687   0.808   0.264  0.9464 -0.1283  0.6311
19072SOL     OW59468   8.683   4.541   2.413  0.2908 -0.5594  0.5892
19072SOL    HW159469   8.698   4.594   2.335 -0.5356 -0.3536  0.5670
19072SOL    HW259470   8.690   4.451   2.381  1.6310 -0.4944  0.6164
19073SOL     OW59471   6.791  10.420   2.312  0.1321  0.0344  0.6082
19073SOL    HW159472   6.831  10.397   2.228 -0.1431  2.0429 -0.1128
19073SOL    HW259473   6.865  10.432   2.371  0.3691 -0.4273  0.4130
19074SOL     OW59474   4.342   8.550   5.385 -0.6788 -0.2616 -0.2016
19074SOL    HW159475   4.362   8.458   5.402 -1.2201 -0.2630  0.4792
19074SOL    HW259476   4.388   8.570   5.303 -1.2172 -1.3573 -0.7989
19075SOL     OW59477   2.764   7.963   2.136  0.2111  0.1193  0.2461
19075SOL    HW159478   2.758   8.058   2.138 -0.2789  0.1253 -0.9172
19075SOL    HW259479   2.778   7.941   2.044  2.0023 -0.8639  0.7178
19076SOL     OW59480   5.249   7.335   7.635 -0.1313  0.0370  0.3745
19076SOL    HW159481   5.185   7.264   7.643  0.8046 -1.0357 -0.9956
19076SOL    HW259482   5.302   7.329   7.715 -0.3434 -0.5277  0.4798
19077SOL     OW59483   7.164   5.541   4.203  0.3127 -0.2019 -0.3861
19077SOL    HW159484   7.179   5.634   4.189  0.5707 -0.2580 -0.4981
19077SOL    HW259485   7.251   5.506   4.225  0.5905 -0.7399 -2.1767
19078SOL     OW59486   7.667   2.238   4.177  0.7844 -0.2177  0.4418
19078SOL    HW159487   7.678   2.174   4.107 -1.2116  0.1760 -0.2978
19078SOL    HW259488   7.716   2.203   4.250  1.8059 -1.3216 -0.7245
19079SOL     OW59489   0.536   9.985   5.845 -0.2503 -0.1800  0.1755
19079SOL    HW159490   0.463  10.040   5.816 -0.3881 -0.7613 -0.6404
19079SOL    HW259491   0.495   9.903   5.871  0.1821 -0.9817 -1.5090
19080SOL     OW59492   4.909   1.623   0.410 -0.4894  0.5114 -0.0634
19080SOL    HW159493   4.957   1.657   0.485 -1.2179  0.8235  0.2742
19080SOL    HW259494   4.906   1.529   0.423  1.6861  0.2435 -1.0851
19081SOL     OW59495   1.515   3.746   6.299  0.1942  0.0155 -0.4217
19081SOL    HW159496   1.460   3.669   6.283  0.1215 -0.0002 -0.1067
19081SOL    HW259497   1.551   3.768   6.213  0.7489 -0.7793 -0.4094
19082SOL     OW59498   3.785   0.917   1.805 -0.0516 -0.0575 -0.1330
19082SOL    HW159499   3.718   0.983   1.826 -0.8641 -0.0970 -2.3162
19082SOL    HW259500   3.746   0.834   1.833 -1.3891 -0.1887 -2.1758
19083SOL     OW59501  10.628   4.428   6.603 -0.1920  0.4235 -0.5818
19083SOL    HW159502  10.622   4.522   6.622 -0.6694 -0.0107  1.6307
19083SOL    HW259503  10.695   4.396   6.664 -0.2053 -0.7170 -1.1478
19084SOL     OW59504   7.199  10.419   2.299 -0.0986 -0.2920  0.4518
19084SOL    HW159505   7.256  10.490   2.329  0.1417 -0.4325  0.3292
19084SOL    HW259506   7.189  10.435   2.205  0.3248 -0.6779  0.3393
19085SOL     OW59507   8.811   9.699   4.241  0.1537 -0.0540 -0.0621
19085SOL    HW159508   8.901   9.687   4.272  0.3971  0.8662 -0.3664
19085SOL    HW259509   8.764   9.621   4.270  1.3580 -1.1725 -1.0651
19086SOL     OW59510   0.960   2.777   1.981  0.4459  0.2342 -0.6353
19086SOL    HW159511   1.033   2.743   2.033  0.2055 -2.7092 -2.0495
19086SOL    HW259512   1.001   2.842   1.923  1.3956  0.6826  0.4877
19087SOL     OW59513   8.532   9.283   1.332 -0.8504 -0.0344 -0.7752
19087SOL    HW159514   8.566   9.220   1.269 -0.0040  0.9286 -1.3310
19087SOL    HW259515   8.471   9.233   1.387 -0.7989 -1.1333 -1.6808
19088SOL     OW59516   3.725   0.123   7.900 -0.2505 -0.6771  0.4278
19088SOL    HW159517   3.707   0.139   7.807 -1.4217 -0.3227  0.7031
19088SOL    HW259518   3.793   0.187   7.922 -0.7648 -0.0021  0.0867
19089SOL     OW59519   0.088   6.577   7.494  0.1204  0.4212  0.0782
19089SOL    HW159520   0.141   6.507   7.532  2.2464  0.9786 -1.7268
19089SOL    HW259521   0.091   6.562   7.400 -1.9314  1.2340 -0.1839
19090SOL     OW59522   8.633   3.714   1.375 -0.6460  0.6957 -0.4933
19090SOL    HW159523   8.661   3.765   1.300 -1.6905  1.7819 -0.1622
19090SOL    HW259524   8.677   3.755   1.450  0.3014 -0.3097 -0.4722
19091SOL     OW59525   7.299   4.190   9.373 -0.5866  0.6129  0.1906
19091SOL    HW159526   7.326   4.282   9.373  1.8742 -0.0086 -0.7204
19091SOL    HW259527   7.292   4.167   9.466 -0.4525  1.5154  0.4347
19092SOL     OW59528   2.366   7.846   3.307  0.2187  0.5098  0.3724
19092SOL    HW159529   2.446   7.802   3.336 -0.2438 -0.6043 -0.0186
19092SOL    HW259530   2.302   7.827   3.375 -0.3320 -0.4936 -0.4115
19093SOL     OW59531   4.355   9.393   7.667 -0.2026  0.3555  0.0464
19093SOL    HW159532   4.342   9.353   7.753 -0.9588 -0.2056 -0.3140
19093SOL    HW259533   4.446   9.423   7.668 -0.0249 -0.1749  0.8213
19094SOL     OW59534   2.610   9.309   7.850 -0.3794  0.3185 -0.2706
19094SOL    HW159535   2.554   9.244   7.806 -0.7725  0.5803 -0.1615
19094SOL    HW259536   2.550   9.360   7.904  0.1680 -0.4353  1.1214
19095SOL     OW59537   1.510   7.057   9.300  0.1082  0.4543 -0.2752
19095SOL    HW159538   1.444   7.038   9.366 -0.1663 -0.8258 -0.8948
19095SOL    HW259539   1.582   6.996   9.319 -0.9124 -1.6029 -2.4728
19096SOL     OW59540   0.504   7.682   8.973 -0.3950  0.6723 -0.0311
19096SOL    HW159541   0.558   7.742   8.923  0.3003  0.1696  0.0963
19096SOL    HW259542   0.533   7.692   9.064 -1.0092  0.9097  0.1455
19097SOL     OW59543   7.297   0.433   8.306  0.0456  0.7387 -0.2655
19097SOL    HW159544   7.371   0.396   8.257 -1.1989 -1.5855 -0.5466
19097SOL    HW259545   7.261   0.499   8.247  0.2355 -0.0746 -1.3303
19098SOL     OW59546   1.277   0.799   2.750 -0.0173 -0.7320 -0.6461
19098SOL    HW159547   1.272   0.862   2.822  0.8302 -0.5757 -0.7135
19098SOL    HW259548   1.264   0.714   2.792  1.0922 -0.6934 -0.2100
19099SOL     OW59549   6.131   0.348  10.093 -0.1157 -0.1958  0.8737
19099SOL    HW159550   6.221   0.368  10.068 -0.4597  0.2970 -0.0078
19099SOL    HW259551   6.139   0.284  10.164  0.9185 -0.7402  0.2846
19100SOL     OW59552   1.626   2.539  10.649 -0.2623  0.0607 -0.5896
19100SOL    HW159553   1.669   2.507  10.569 -0.4909 -2.0417  0.0702
19100SOL    HW259554   1.693   2.589  10.694 -0.1323  1.3118 -2.0749
19101SOL     OW59555   5.092   5.298   2.423  0.1517  0.0741 -0.0957
19101SOL    HW159556   5.186   5.291   2.406  0.1034  0.4384 -0.5342
19101SOL    HW259557   5.056   5.334   2.342 -0.1763  1.2813  0.5688
19102SOL     OW59558   3.663   1.686   2.660  0.2993  0.3517 -0.1823
19102SOL    HW159559   3.690   1.594   2.664  1.3854  0.6606 -0.2872
19102SOL    HW259560   3.640   1.708   2.751  0.3903  0.0796 -0.0914
19103SOL     OW59561  10.526   7.326   0.779  0.8995  0.2435  0.0239
19103SOL    HW159562  10.545   7.235   0.755 -1.4050 -0.5878  1.0184
19103SOL    HW259563  10.439   7.343   0.742  1.1595  1.9639  0.1200
19104SOL     OW59564   7.987  10.125   8.725  0.0355  0.6708 -0.1624
19104SOL    HW159565   7.990  10.039   8.767  0.5545 -0.0328 -1.6036
19104SOL    HW259566   7.894  10.140   8.709  0.0089  0.0116 -0.6451
19105SOL     OW59567   8.942   1.155   0.618  0.4283  0.7716 -0.2921
19105SOL    HW159568   8.979   1.230   0.666  1.1152  2.1544 -2.8224
19105SOL    HW259569   8.860   1.136   0.664  1.3412  1.5343  1.8069
19106SOL     OW59570   4.134   2.525   1.447 -0.1490 -0.2513  0.0872
19106SOL    HW159571   4.067   2.508   1.381  0.3285 -0.0057 -0.4725
19106SOL    HW259572   4.125   2.618   1.467 -0.6852 -0.4536  0.8172
19107SOL     OW59573   7.186   7.027   4.165  0.3460 -0.4189 -0.1111
19107SOL    HW159574   7.234   7.083   4.105  0.7031 -0.4626  0.1342
19107SOL    HW259575   7.249   6.961   4.194  0.3436 -0.0568  0.7512
19108SOL     OW59576   4.369   1.128   8.265  0.2602  0.0304 -0.2666
19108SOL    HW159577   4.313   1.051   8.259  0.9259 -0.4743 -0.1547
19108SOL    HW259578   4.309   1.202   8.259 -0.2209 -0.4517 -2.4387
19109SOL     OW59579   4.004   7.046   9.044  0.5525  0.4194  0.0809
19109SOL    HW159580   4.046   7.001   8.970  1.8076 -0.6452  1.3792
19109SOL    HW259581   3.984   6.976   9.106 -2.3658  1.0146 -0.0489
19110SOL     OW59582   0.381   3.558   2.622 -0.3038  0.7870  0.3166
19110SOL    HW159583   0.385   3.483   2.562  0.0383  0.6732  0.4761
19110SOL    HW259584   0.382   3.519   2.710  1.5979  1.0049  0.4428
19111SOL     OW59585   4.512   1.643  10.044 -0.1497 -0.4375  0.8543
19111SOL    HW159586   4.598   1.605  10.063  0.3837  0.6666  0.7354
19111SOL    HW259587   4.450   1.585  10.088  0.6669 -1.1588  1.0868
19112SOL     OW59588   3.201  10.000   9.902 -0.6329 -0.0047  0.0047
19112SOL    HW159589   3.157   9.988   9.986 -1.2255  2.3078  0.0948
19112SOL    HW259590   3.184   9.918   9.855  0.0068 -1.4912  2.2104
19113SOL     OW59591   9.510   9.988   3.365 -0.2515 -0.3495 -0.1908
19113SOL    HW159592   9.477  10.059   3.310 -0.4163 -0.1545  0.1607
19113SOL    HW259593   9.605   9.999   3.364 -0.2801 -0.0915 -0.0915
19114SOL     OW59594   2.692   0.534   3.551  0.7740 -0.8926 -0.5398
19114SOL    HW159595   2.754   0.552   3.622 -0.4062  1.5210 -0.0266
19114SOL    HW259596   2.607   0.529   3.594 -0.2140  2.3090 -1.8457
19115SOL     OW59597   2.191   6.020   3.995 -0.5865  0.5690  0.2642
19115SOL    HW159598   2.104   6.005   4.032 -0.2286 -1.4711  0.4052
19115SOL    HW259599   2.216   6.107   4.026 -1.9055  0.5150  1.5833
19116SOL     OW59600   6.005   8.191   5.058  0.1453  0.3366  0.8023
19116SOL    HW159601   5.992   8.236   4.975  2.0559 -0.2930  0.0965
19116SOL    HW259602   5.994   8.259   5.124  0.9136  1.3878 -0.1099
19117SOL     OW59603  10.650   9.646   1.413 -0.1660  0.2067  0.2517
19117SOL    HW159604  10.610   9.636   1.327  1.5312 -0.7394 -0.4841
19117SOL    HW259605  10.589   9.604   1.473  0.4951 -2.8951 -1.0696
19118SOL     OW59606   4.044  10.213   4.505 -0.0706  0.5016 -0.1447
19118SOL    HW159607   3.973  10.159   4.539 -0.3912  2.5351  2.7845
19118SOL    HW259608   4.007  10.257   4.429 -0.7931 -1.0138 -0.6957
19119SOL     OW59609   9.671   3.960   2.661 -0.4956  0.2646  0.0124
19119SOL    HW159610   9.692   4.024   2.729  0.4043 -0.5683  0.5398
19119SOL    HW259611   9.651   4.012   2.584 -1.3524  1.2230  0.8634
19120SOL     OW59612   3.389   7.361   5.741 -0.4453  0.1378 -0.2923
19120SOL    HW159613   3.341   7.309   5.805 -0.4543  0.0124 -0.3997
19120SOL    HW259614   3.432   7.296   5.685  0.2196  0.2499  0.0801
19121SOL     OW59615   0.234   0.250   3.328  0.0020  0.0731  0.2793
19121SOL    HW159616   0.267   0.259   3.417 -0.4516 -1.9098  0.7062
19121SOL    HW259617   0.301   0.198   3.283  0.5612  1.6354 -0.7704
19122SOL     OW59618   6.202   4.967   2.548 -0.6930  0.2929  0.6704
19122SOL    HW159619   6.294   4.990   2.561  0.2999 -1.3579 -2.3900
19122SOL    HW259620   6.163   5.045   2.509 -0.6406  0.9956  1.9639
19123SOL     OW59621   2.059   1.421   2.222  0.0113 -0.3290  0.1660
19123SOL    HW159622   1.981   1.438   2.275 -0.6345 -0.5024 -0.7093
19123SOL    HW259623   2.119   1.492   2.245  1.4298 -2.4724  4.1343
19124SOL     OW59624   8.969   8.157   5.182 -0.0267  0.3273 -0.4750
19124SOL    HW159625   9.058   8.133   5.158 -0.3127  0.0807 -1.3275
19124SOL    HW259626   8.925   8.171   5.098 -0.9475 -0.1509 -0.0866
19125SOL     OW59627   9.834   6.559   4.413  0.2775  0.0463  0.3154
19125SOL    HW159628   9.876   6.643   4.431  0.8735 -0.0725 -0.4413
19125SOL    HW259629   9.900   6.510   4.363 -0.1336 -0.7970  0.5875
19126SOL     OW59630   5.814   2.294   7.575  0.1116  0.5474 -0.1755
19126SOL    HW159631   5.724   2.264   7.564  0.4393 -0.1764 -0.9362
19126SOL    HW259632   5.821   2.371   7.519 -0.5199  1.6933  1.2303
19127SOL     OW59633   8.710   7.540   3.030  0.1698 -0.7078 -0.7571
19127SOL    HW159634   8.736   7.467   3.086  0.6765  0.2417  0.2904
19127SOL    HW259635   8.622   7.562   3.059  1.5322  1.8110  1.9983
19128SOL     OW59636   9.702   7.266   4.755 -0.0451 -0.6347  0.1020
19128SOL    HW159637   9.778   7.232   4.707 -0.1923 -1.1127  0.1988
19128SOL    HW259638   9.728   7.353   4.783 -0.3045  0.0652 -1.6859
19129SOL     OW59639   6.619   1.111   1.663  0.1813  0.1748 -0.1583
19129SOL    HW159640   6.622   1.138   1.755  0.6477 -1.5728  0.3723
19129SOL    HW259641   6.711   1.106   1.637  0.0720 -0.0849 -0.4981
19130SOL     OW59642  10.119   4.105   6.279 -0.0614 -0.2070  0.4153
19130SOL    HW159643  10.178   4.087   6.206 -0.8611 -0.2116 -0.2480
19130SOL    HW259644  10.158   4.059   6.353  0.6561 -0.3717 -0.0511
19131SOL     OW59645  10.411  10.183   3.127 -0.5099  0.3877  0.5506
19131SOL    HW159646  10.423  10.186   3.222  1.1546 -1.1225  0.4587
19131SOL    HW259647  10.333  10.129   3.114 -0.1554 -0.2660  1.0587
19132SOL     OW59648   8.146   6.739   9.954 -0.1714  0.0066 -0.2182
19132SOL    HW159649   8.074   6.800   9.943 -1.0342 -0.9912 -0.2809
19132SOL    HW259650   8.208   6.785  10.011 -0.9256  0.8214 -0.0296
19133SOL     OW59651   3.472   6.931  10.263  0.2656 -0.6904  0.3710
19133SOL    HW159652   3.427   6.849  10.242 -1.2201  0.0510  0.5363
19133SOL    HW259653   3.531   6.908  10.335 -0.5634 -1.4826  0.8161
19134SOL     OW59654   3.514   6.547   2.370  0.3871  0.5114 -0.3812
19134SOL    HW159655   3.599   6.511   2.396 -0.3092 -1.3456 -0.5349
19134SOL    HW259656   3.454   6.517   2.438 -0.6447 -0.6383 -1.7420
19135SOL     OW59657   2.872   3.575   5.656 -1.0399  0.3262  0.1689
19135SOL    HW159658   2.968   3.579   5.655 -1.0068 -0.4962 -0.0573
19135SOL    HW259659   2.846   3.593   5.566 -1.0922  0.3043  0.1795
19136SOL     OW59660   0.536   0.155   6.516 -0.3637 -0.5509  0.0072
19136SOL    HW159661   0.445   0.125   6.514 -0.1349 -1.3379 -3.0938
19136SOL    HW259662   0.586   0.078   6.543 -0.2996 -1.4706 -2.4936
19137SOL     OW59663   5.042   8.750   0.407  0.0058  0.0609 -0.2737
19137SOL    HW159664   4.958   8.728   0.366 -1.6208  0.2328  2.6871
19137SOL    HW259665   5.075   8.823   0.355 -2.8090  1.4826 -0.2876
19138SOL     OW59666   7.228   1.804   0.290 -0.6556 -0.4663 -0.4203
19138SOL    HW159667   7.167   1.850   0.346 -1.7098 -2.0911 -0.1656
19138SOL    HW259668   7.305   1.861   0.286 -2.2814  1.8355 -1.0613
19139SOL     OW59669   7.088  10.302   6.828 -0.2235 -0.2811  0.1772
19139SOL    HW159670   7.121  10.380   6.872  1.6986  0.4250 -2.2992
19139SOL    HW259671   7.082  10.327   6.736  2.0821 -3.4767 -1.0080
19140SOL     OW59672   6.343   7.814   9.774 -0.1017 -0.1076  0.4822
19140SOL    HW159673   6.249   7.803   9.760 -0.4872  1.8356  1.1632
19140SOL    HW259674   6.374   7.858   9.695  0.4348 -1.5151 -0.1170
19141SOL     OW59675   3.838   0.048   8.389 -0.1993 -0.6742 -0.0520
19141SOL    HW159676   3.895   0.063   8.465 -0.2493  2.2379 -0.4896
19141SOL    HW259677   3.892   0.072   8.314 -1.1667 -0.4686 -0.6902
19142SOL     OW59678   5.405   2.942   4.843 -0.4848 -0.4070 -0.6392
19142SOL    HW159679   5.317   2.965   4.813  0.1890  2.1406 -0.9471
19142SOL    HW259680   5.429   3.013   4.903  1.5480 -0.7672 -0.9457
19143SOL     OW59681  10.364   0.994   3.210 -0.1593  0.2917 -0.5439
19143SOL    HW159682  10.405   0.949   3.284 -0.2069  0.0991 -0.6356
19143SOL    HW259683  10.288   1.038   3.248 -0.1440  0.2515 -0.4663
19144SOL     OW59684   1.531   1.190   4.768  0.0965 -0.0586 -0.0430
19144SOL    HW159685   1.607   1.144   4.731 -0.5304 -0.4074 -0.9315
19144SOL    HW259686   1.567   1.241   4.840  0.6851 -2.7996  1.7782
19145SOL     OW59687   7.951   3.299   7.240  0.0226 -0.2294  0.5306
19145SOL    HW159688   7.982   3.212   7.216 -0.6224  0.0073 -1.2564
19145SOL    HW259689   7.873   3.284   7.294  0.3499 -0.7460  0.8645
19146SOL     OW59690   5.536  10.083   9.321 -0.4256 -1.0147 -0.0417
19146SOL    HW159691   5.564  10.030   9.246  1.2709 -0.1579 -0.0679
19146SOL    HW259692   5.581  10.167   9.309 -2.4726  0.1912  0.3988
19147SOL     OW59693   7.320   9.397   8.824 -0.0477 -0.4659 -0.3321
19147SOL    HW159694   7.261   9.437   8.761 -1.0547  1.0881  1.4797
19147SOL    HW259695   7.274   9.319   8.855 -0.2704 -0.3354 -0.3351
19148SOL     OW59696   7.585   6.519   9.529  0.2084 -0.2037 -0.0905
19148SOL    HW159697   7.656   6.566   9.486 -1.1293  1.1310 -0.9358
19148SOL    HW259698   7.558   6.576   9.601 -0.1030 -0.6464  0.1538
19149SOL     OW59699   1.089   5.063   0.430 -0.1615  0.0932  0.7786
19149SOL    HW159700   1.161   5.041   0.490  2.5967 -0.7628 -2.5048
19149SOL    HW259701   1.072   4.982   0.382 -1.5910  0.9593 -0.2544
19150SOL     OW59702   1.557   8.444   3.904 -0.3255 -0.4046 -0.4715
19150SOL    HW159703   1.526   8.480   3.821 -0.6663  0.9511  0.2154
19150SOL    HW259704   1.609   8.368   3.879 -0.9955 -0.4306 -1.8800
19151SOL     OW59705   1.681   5.471   6.791 -0.2167 -0.0370 -0.1016
19151SOL    HW159706   1.732   5.486   6.870 -1.2751  2.6490  0.1593
19151SOL    HW259707   1.604   5.423   6.821  0.1687 -0.4858  0.1877
19152SOL     OW59708   5.695   8.538   3.036 -0.7077  0.0602  0.3117
19152SOL    HW159709   5.622   8.490   3.076 -1.1132  0.5001  0.1059
19152SOL    HW259710   5.747   8.470   2.994 -1.2849 -0.2029  0.0101
19153SOL     OW59711   8.686   3.810   2.434 -0.0412  0.0170  0.5790
19153SOL    HW159712   8.663   3.900   2.409 -0.5279 -0.2759 -0.0460
19153SOL    HW259713   8.781   3.810   2.439 -0.0223  0.4764  0.2282
19154SOL     OW59714   1.668   4.428   1.357 -0.0535  0.1228  1.0511
19154SOL    HW159715   1.581   4.388   1.356  0.7656 -1.7473 -0.3866
19154SOL    HW259716   1.662   4.499   1.292  0.0890 -1.5467 -0.9024
19155SOL     OW59717   6.859  10.078   1.725 -0.0654  0.0633 -0.1672
19155SOL    HW159718   6.854  10.044   1.635 -1.1236 -2.6518  0.8005
19155SOL    HW259719   6.775  10.121   1.738  0.3838  1.1314 -0.6798
19156SOL     OW59720   0.435   6.588   9.045 -0.1239  0.2603 -0.5015
19156SOL    HW159721   0.489   6.550   9.114  0.6689  1.9666 -0.1392
19156SOL    HW259722   0.490   6.582   8.966 -0.8552 -1.2763 -0.9414
19157SOL     OW59723   1.250   7.445   8.067  0.1376 -0.1075  0.1642
19157SOL    HW159724   1.156   7.444   8.052  0.2370 -0.0017 -0.5051
19157SOL    HW259725   1.260   7.440   8.162 -0.5664  1.1087  0.3210
19158SOL     OW59726   9.204   3.622   7.016  0.0996 -0.4343 -0.1223
19158SOL    HW159727   9.225   3.628   7.109 -0.9834  1.2469  0.0651
19158SOL    HW259728   9.246   3.699   6.977  0.6986 -1.2226 -1.0773
19159SOL     OW59729   0.564   6.036   2.554  0.1198  0.2010  0.0825
19159SOL    HW159730   0.659   6.021   2.557  0.1944  0.6701  0.1920
19159SOL    HW259731   0.555   6.129   2.531 -0.2909  0.3961  0.9733
19160SOL     OW59732   8.855   3.080   5.708  0.5175  0.3394 -0.5329
19160SOL    HW159733   8.839   3.009   5.646 -0.3626  0.0234  0.0418
19160SOL    HW259734   8.844   3.040   5.794 -2.3066  1.6161 -0.1844
19161SOL     OW59735   1.785   4.329   5.965  0.1473 -0.3311  0.3063
19161SOL    HW159736   1.867   4.354   6.007  1.2493 -1.4228 -1.0751
19161SOL    HW259737   1.736   4.410   5.956  1.7985  0.6321 -0.3341
19162SOL     OW59738   7.090   3.978   4.252 -0.4010 -0.7215 -0.0935
19162SOL    HW159739   7.036   3.988   4.331  0.9495  0.1816  0.7677
19162SOL    HW259740   7.033   4.005   4.180 -1.3100 -0.4603  0.7055
19163SOL     OW59741   8.044   5.499   7.439 -0.2604  0.7934 -0.2492
19163SOL    HW159742   8.122   5.476   7.388  0.1229 -0.7542  0.9553
19163SOL    HW259743   8.009   5.415   7.469 -2.0800  1.4988 -0.2826
19164SOL     OW59744   9.785   9.082   4.093 -0.0881  0.6243  0.3028
19164SOL    HW159745   9.723   9.010   4.084 -1.8783  1.1702  5.2061
19164SOL    HW259746   9.867   9.039   4.118 -0.0745  0.1745 -0.4754
19165SOL     OW59747   4.021   7.717   6.414 -0.1405 -0.5489  0.6773
19165SOL    HW159748   4.052   7.712   6.323 -2.6375  1.2026 -0.3591
19165SOL    HW259749   4.077   7.784   6.454  0.3993 -0.6919  0.1837
19166SOL     OW59750   5.504   4.268   0.290  0.6027 -0.2246 -0.2213
19166SOL    HW159751   5.546   4.342   0.332  0.6429 -0.7705  0.7344
19166SOL    HW259752   5.576   4.212   0.261  0.5844  0.3197 -1.3712
19167SOL     OW59753   9.888   9.521   6.878  0.1333  0.3183 -0.4902
19167SOL    HW159754   9.894   9.608   6.916 -0.5335  0.1466  0.0312
19167SOL    HW259755   9.945   9.466   6.932 -1.4438 -0.1011  0.8374
19168SOL     OW59756   9.178   5.309   8.265 -0.2245 -0.1566 -0.3118
19168SOL    HW159757   9.224   5.228   8.246 -0.5516 -0.6554  0.8985
19168SOL    HW259758   9.111   5.316   8.197 -2.2776 -2.5822  1.3046
19169SOL     OW59759   4.856   9.912   7.563  0.1232 -0.1940  0.1135
19169SOL    HW159760   4.943   9.877   7.548 -0.0879 -0.8256  0.3133
19169SOL    HW259761   4.797   9.837   7.552 -0.2745 -0.0898  1.2895
19170SOL     OW59762   1.691   7.524   5.450 -0.5903  0.5713 -0.3248
19170SOL    HW159763   1.707   7.603   5.501 -1.9364  1.5997 -1.4046
19170SOL    HW259764   1.648   7.464   5.512  0.8333  0.4801  0.6181
19171SOL     OW59765   4.859   2.849   5.517 -0.2033  0.2897 -0.3683
19171SOL    HW159766   4.899   2.927   5.477  0.0198  0.1874 -0.3455
19171SOL    HW259767   4.870   2.781   5.451  0.7799 -0.0527  0.1389
19172SOL     OW59768   3.031   8.086   6.895  0.7069  0.1786 -0.1100
19172SOL    HW159769   2.936   8.080   6.891  0.5108  2.4481 -0.3240
19172SOL    HW259770   3.062   7.997   6.878 -1.3920 -1.6947  4.1727
19173SOL     OW59771   7.071   8.757   3.683  0.3968  1.2410 -0.4761
19173SOL    HW159772   6.978   8.732   3.679  0.1964  2.0270 -2.3568
19173SOL    HW259773   7.097   8.742   3.773 -1.8462  1.9234  0.3480
19174SOL     OW59774   8.185   3.680   7.617 -0.6460 -0.4831 -0.0642
19174SOL    HW159775   8.269   3.668   7.574 -0.6599 -2.3968  0.3611
19174SOL    HW259776   8.159   3.770   7.596  1.5418  0.1770 -0.1022
19175SOL     OW59777   5.552   9.112   2.731  0.8251  1.2517  0.1414
19175SOL    HW159778   5.472   9.073   2.766  1.6713  0.7142  1.5467
19175SOL    HW259779   5.592   9.042   2.679  1.2850  0.9213  0.9317
19176SOL     OW59780   8.407   9.913   8.749  0.1019  0.1060 -0.0131
19176SOL    HW159781   8.400  10.003   8.779 -0.0075  0.7335 -1.7826
19176SOL    HW259782   8.397   9.919   8.654 -1.3126 -1.9167 -0.0532
19177SOL     OW59783   8.388   0.265   8.320  0.0927  0.8360  0.2906
19177SOL    HW159784   8.408   0.228   8.234  2.0744  1.3225  0.5030
19177SOL    HW259785   8.347   0.350   8.300 -2.6617 -0.4660 -0.1585
19178SOL     OW59786   6.827   5.030   7.104 -0.3026 -0.1159 -0.4210
19178SOL    HW159787   6.871   4.997   7.181  1.1240  0.6260 -0.8753
19178SOL    HW259788   6.733   5.022   7.124  0.0306 -0.8874  0.9395
19179SOL     OW59789   9.370   6.662   7.951 -0.2689 -0.7196  0.2207
19179SOL    HW159790   9.372   6.707   7.867  0.0636 -0.0530  0.5733
19179SOL    HW259791   9.409   6.725   8.012  0.7732 -1.7073  0.6133
19180SOL     OW59792   3.564   8.320   7.165  0.1671 -0.5464  0.1465
19180SOL    HW159793   3.639   8.370   7.197 -0.1850  0.7648 -0.9799
19180SOL    HW259794   3.599   8.266   7.094  0.3755 -1.2634  0.7854
19181SOL     OW59795   1.592   0.286   5.751 -0.5962  0.3446  0.2144
19181SOL    HW159796   1.659   0.218   5.758 -1.7155 -0.8013 -0.0468
19181SOL    HW259797   1.642   0.368   5.756  0.8137 -0.4730  0.1522
19182SOL     OW59798   4.005   7.284   5.160  0.5666 -0.3254  0.7621
19182SOL    HW159799   3.951   7.305   5.236  0.8387 -0.4370  0.9872
19182SOL    HW259800   4.094   7.280   5.193  0.6095 -1.0991  0.5873
19183SOL     OW59801  10.168   1.907   1.160  0.7277 -0.0194 -0.1122
19183SOL    HW159802  10.216   1.877   1.237 -1.6965 -0.9709  1.1118
19183SOL    HW259803  10.221   1.876   1.086  1.9449 -1.0605  1.1368
19184SOL     OW59804   7.709   7.880   2.251  0.7107  0.4167 -0.5437
19184SOL    HW159805   7.746   7.918   2.171  1.1138  1.0041 -0.0887
19184SOL    HW259806   7.614   7.886   2.239  0.7067  3.2393  0.2465
19185SOL     OW59807   6.654   3.315   8.148  0.1449 -1.0216  0.2351
19185SOL    HW159808   6.689   3.281   8.065 -3.0003  0.7511 -2.0551
19185SOL    HW259809   6.726   3.367   8.184  1.2776 -0.8672 -2.0378
19186SOL     OW59810   9.058  10.556   6.436  0.3231 -0.1642 -0.3520
19186SOL    HW159811   9.002  10.571   6.511 -2.9521 -1.7823 -2.2808
19186SOL    HW259812   9.090  10.467   6.446 -0.0967 -0.3737 -0.8542
19187SOL     OW59813   0.282   2.009   5.006 -0.6228 -0.1180  0.2454
19187SOL    HW159814   0.299   2.104   5.009 -0.9325 -0.0624  0.2919
19187SOL    HW259815   0.369   1.969   5.001 -0.5149  0.2350 -1.4092
19188SOL     OW59816   8.615   9.696   5.033 -0.7117  0.2168 -0.4468
19188SOL    HW159817   8.551   9.698   4.962 -0.7747  1.5270 -0.3849
19188SOL    HW259818   8.564   9.681   5.112 -0.5059 -2.5464 -0.7711
19189SOL     OW59819   6.765   8.949  10.142  0.0720  0.2710  0.7346
19189SOL    HW159820   6.836   8.952  10.078 -0.6805  0.7500 -0.1204
19189SOL    HW259821   6.784   8.873  10.196  0.3006 -0.6627 -0.5982
19190SOL     OW59822   9.517   5.980   7.127  0.4098  0.4880  0.3578
19190SOL    HW159823   9.509   6.071   7.097  0.1941 -0.0671 -1.4050
19190SOL    HW259824   9.569   5.937   7.059  1.9533 -0.3642  1.9878
19191SOL     OW59825  10.105   2.499   3.211  0.1414 -0.2540 -0.0740
19191SOL    HW159826  10.023   2.538   3.241  0.2446 -1.1785  1.5029
19191SOL    HW259827  10.124   2.544   3.128 -1.0276  1.2130  0.4158
19192SOL     OW59828   9.519   0.732  10.236 -0.2074  0.1505 -0.1430
19192SOL    HW159829   9.604   0.688  10.228  0.2694  1.0876 -0.3962
19192SOL    HW259830   9.457   0.662  10.257  0.4527 -0.6995 -0.9543
19193SOL     OW59831   7.273   4.874   3.331 -0.1749  0.0046  0.0433
19193SOL    HW159832   7.214   4.949   3.336  0.0911  0.1933  0.3858
19193SOL    HW259833   7.217   4.802   3.303 -1.1567 -0.4417  2.8880
19194SOL     OW59834   5.824   9.312   7.902 -0.2326 -0.2841  0.3626
19194SOL    HW159835   5.856   9.223   7.888 -1.0960 -0.6002  0.3584
19194SOL    HW259836   5.787   9.338   7.818 -0.0389  0.0623  0.3801
19195SOL     OW59837   5.916   2.211   1.510 -0.0469  0.3326  0.3909
19195SOL    HW159838   5.824   2.187   1.500 -0.0868  0.9255 -0.8524
19195SOL    HW259839   5.962   2.156   1.446  0.5570 -0.4060  1.4321
19196SOL     OW59840   8.952   6.263   1.469 -0.5241 -0.2085  0.7797
19196SOL    HW159841   8.897   6.223   1.537 -0.4834 -0.9583  0.3865
19196SOL    HW259842   9.009   6.192   1.439 -1.5481 -0.3286 -1.0716
19197SOL     OW59843   1.903   2.795   9.637  0.4072  0.1977 -0.3763
19197SOL    HW159844   1.833   2.741   9.599  0.5480 -0.8524  0.7929
19197SOL    HW259845   1.981   2.740   9.631  0.4363  0.0144  1.3839
19198SOL     OW59846   2.293   6.975   4.120  0.0193 -0.4766 -0.3431
19198SOL    HW159847   2.331   6.952   4.205  0.1784  0.9967  0.0109
19198SOL    HW259848   2.199   6.969   4.133 -0.0491  1.6120  0.5629
19199SOL     OW59849  10.606   5.187   7.429 -0.1551  0.2323  0.3868
19199SOL    HW159850  10.654   5.197   7.510  0.2162 -0.1195  0.2154
19199SOL    HW259851  10.631   5.262   7.376  0.9264 -0.4235 -0.0559
19200SOL     OW59852   8.923   2.704   8.417  0.5656  0.2650  0.8584
19200SOL    HW159853   8.943   2.793   8.387  0.7154  0.0778  0.3972
19200SOL    HW259854   8.846   2.714   8.472 -0.7778  0.3819 -0.9645
19201SOL     OW59855   3.336   6.530   6.724  0.0036  0.2584 -0.7293
19201SOL    HW159856   3.263   6.505   6.668  0.5071 -1.1350 -0.7907
19201SOL    HW259857   3.381   6.600   6.676 -0.3371 -0.0065 -1.4476
19202SOL     OW59858   5.857   1.165   0.133 -0.0753  0.2490 -0.6314
19202SOL    HW159859   5.828   1.104   0.066  0.5951 -0.6268 -0.1452
19202SOL    HW259860   5.778   1.185   0.183 -0.3684  0.0781 -1.0228
19203SOL     OW59861   9.723   6.129   1.173  0.0871 -0.4750 -0.0812
19203SOL    HW159862   9.700   6.043   1.138  0.3321 -1.0106  1.0399
19203SOL    HW259863   9.726   6.116   1.268  2.2867  0.2373 -0.0048
19204SOL     OW59864   4.329   6.588   5.492 -0.0504  0.0408  0.0581
19204SOL    HW159865   4.344   6.494   5.505 -0.5980 -0.0785 -0.1316
19204SOL    HW259866   4.264   6.610   5.559 -1.6721 -0.2226 -1.3505
19205SOL     OW59867   0.116   9.150   2.544 -0.2383  0.5084  0.0651
19205SOL    HW159868   0.150   9.141   2.455 -0.1436  1.1503  0.0318
19205SOL    HW259869   0.055   9.223   2.539 -2.9939 -1.6662 -0.2774
19206SOL     OW59870   8.415   8.052   9.299  0.0460 -0.3374 -0.0008
19206SOL    HW159871   8.372   7.984   9.351  1.1816 -0.5290  0.7129
19206SOL    HW259872   8.504   8.055   9.332  0.4571  0.3980 -1.1205
19207SOL     OW59873   4.358   9.288   4.350  0.1350 -0.4227  0.1874
19207SOL    HW159874   4.447   9.274   4.317  0.8979  0.6839  1.6641
19207SOL    HW259875   4.368   9.292   4.445 -1.2348  1.2402  0.3103
19208SOL     OW59876   9.128   3.846   2.160  0.1254  0.3982 -0.4545
19208SOL    HW159877   9.069   3.892   2.220 -1.0646 -0.1688 -1.1518
19208SOL    HW259878   9.208   3.832   2.211 -1.5022 -1.8122  1.7501
19209SOL     OW59879   2.605   7.123   0.779 -0.2660  0.9799  0.1587
19209SOL    HW159880   2.567   7.206   0.809 -3.7542  0.3690 -2.0256
19209SOL    HW259881   2.553   7.056   0.823  0.7440 -0.0148 -0.1331
19210SOL     OW59882   0.946   4.447   4.184 -0.6088 -0.1924  0.5194
19210SOL    HW159883   0.895   4.366   4.187 -0.8332 -0.3498 -2.8280
19210SOL    HW259884   0.884   4.515   4.212 -1.6399 -0.7867 -0.2137
19211SOL     OW59885   2.145   0.261   4.698  0.1669 -0.0832  0.3953
19211SOL    HW159886   2.229   0.228   4.666  1.3295  2.0351  1.0525
19211SOL    HW259887   2.100   0.292   4.620  0.0315 -1.0724  0.0610
19212SOL     OW59888   6.910   6.248   7.681  0.5942  0.1365  0.2518
19212SOL    HW159889   6.949   6.261   7.594  0.4705 -2.2524 -0.2347
19212SOL    HW259890   6.819   6.276   7.670 -0.0788 -2.2494 -1.1583
19213SOL     OW59891   2.369   1.039   5.479  0.2754  0.0048 -0.0195
19213SOL    HW159892   2.383   1.013   5.387  0.0658 -0.4622  0.0775
19213SOL    HW259893   2.446   1.006   5.525 -0.6634 -1.7527  0.3554
19214SOL     OW59894   2.508   5.683   6.807 -0.6307  0.4847  0.3424
19214SOL    HW159895   2.583   5.677   6.748 -0.0543  1.0603  0.9994
19214SOL    HW259896   2.546   5.685   6.895 -1.4834 -0.6151  0.7676
19215SOL     OW59897  10.340   3.969   9.100  0.0137 -0.0054  0.1498
19215SOL    HW159898  10.359   3.977   9.194  0.4488 -0.9514  0.1542
19215SOL    HW259899  10.284   3.891   9.093  1.8720 -1.3408 -0.5954
19216SOL     OW59900   9.589   3.134   2.039  0.4088  0.4866  0.2098
19216SOL    HW159901   9.528   3.089   1.981 -1.0617  0.5770  1.6410
19216SOL    HW259902   9.669   3.081   2.034  0.2087  0.2723 -1.5607
19217SOL     OW59903  10.644   7.915   9.716  0.6468 -0.0513  0.1478
19217SOL    HW159904  10.694   7.839   9.688  0.0534 -0.1882 -0.5806
19217SOL    HW259905  10.710   7.980   9.740  1.2031 -1.4368  2.7289
19218SOL     OW59906   5.575   8.781   0.792 -0.7588 -0.4604  0.0101
19218SOL    HW159907   5.668   8.757   0.790 -0.2959  1.0303  1.3082
19218SOL    HW259908   5.528   8.698   0.783  0.7235 -1.6034  2.0092
19219SOL     OW59909   7.475   2.718   1.169 -0.0874 -0.6639  0.3882
19219SOL    HW159910   7.420   2.668   1.108 -1.1344  1.5039 -0.5553
19219SOL    HW259911   7.547   2.751   1.115  0.8270 -1.4184  1.0950
19220SOL     OW59912   1.397   8.839   6.340 -0.3420  0.7753  0.1616
19220SOL    HW159913   1.342   8.915   6.320  0.7928  1.5961  0.0699
19220SOL    HW259914   1.478   8.877   6.374  0.5980 -0.3578 -0.7316
19221SOL     OW59915   0.203   6.458   8.071  0.0946 -0.5078  0.3031
19221SOL    HW159916   0.249   6.496   7.996 -0.7802 -1.3213 -0.6860
19221SOL    HW259917   0.263   6.392   8.106  0.1501 -0.7515 -0.2469
19222SOL     OW59918   7.465   2.965   3.496  0.6598 -0.3944  0.5114
19222SOL    HW159919   7.399   2.974   3.428  1.4479 -1.8082 -0.4828
19222SOL    HW259920   7.419   2.925   3.570 -0.3531  1.7510  1.1081
19223SOL     OW59921   7.623  10.124   8.108 -0.0113 -0.4248  0.3120
19223SOL    HW159922   7.578  10.207   8.089  2.2209  1.2645  1.8300
19223SOL    HW259923   7.625  10.079   8.024 -3.0115  0.0967 -0.1637
19224SOL     OW59924   0.436   5.465   6.545  0.5457  0.6080 -0.6452
19224SOL    HW159925   0.472   5.399   6.486  0.0995 -0.3517  0.1385
19224SOL    HW259926   0.341   5.461   6.530  0.4895  0.8370 -0.3606
19225SOL     OW59927   9.509   0.935   0.500 -0.2037  0.0472 -0.1529
19225SOL    HW159928   9.489   0.902   0.412  1.6021 -0.3434 -0.4615
19225SOL    HW259929   9.480   0.865   0.558 -0.2066 -0.2730 -0.5326
19226SOL     OW59930   1.470   7.240   5.308 -0.1265  0.3274 -0.8569
19226SOL    HW159931   1.431   7.327   5.302 -0.7002  0.0359 -1.4494
19226SOL    HW259932   1.537   7.248   5.376  0.3164  1.4222 -1.4020
19227SOL     OW59933   8.960   6.383   0.892  0.0400  0.4526  0.4285
19227SOL    HW159934   8.922   6.467   0.867  0.6961  0.2239 -1.4745
19227SOL    HW259935   9.035   6.372   0.834 -0.8578 -2.0926 -0.3861
19228SOL     OW59936   5.814   1.039   6.483  0.0046  0.5033  0.2985
19228SOL    HW159937   5.783   0.974   6.420  0.4271  0.4069  0.1905
19228SOL    HW259938   5.745   1.106   6.483  0.8728  1.4759 -1.7079
19229SOL     OW59939   7.598   4.451   3.162 -0.0371 -0.2143 -0.1898
19229SOL    HW159940   7.553   4.384   3.214  0.5357 -1.4678 -1.2492
19229SOL    HW259941   7.574   4.431   3.072 -0.8366  1.7915 -0.4782
19230SOL     OW59942   8.293   2.449   5.952  0.0823 -0.1390 -0.0004
19230SOL    HW159943   8.244   2.395   6.014  0.6391 -0.3002  0.3036
19230SOL    HW259944   8.324   2.523   6.004  0.9555 -0.5166  0.0358
19231SOL     OW59945   7.950  10.278   6.997 -0.0634 -0.1828  0.2327
19231SOL    HW159946   7.896  10.205   6.966  2.3547 -1.2875 -1.7545
19231SOL    HW259947   7.890  10.352   7.000 -1.7344 -1.3403 -1.7585
19232SOL     OW59948   4.923   7.562  10.568 -0.1556  0.2102 -0.4308
19232SOL    HW159949   4.986   7.570  10.640 -0.0425  0.9100 -0.5987
19232SOL    HW259950   4.907   7.652  10.540 -1.5099  0.0583 -0.1648
19233SOL     OW59951   8.748   1.990   0.910 -0.4778 -0.1639 -0.3086
19233SOL    HW159952   8.757   1.895   0.922 -1.7667 -0.1847  0.6217
19233SOL    HW259953   8.727   2.024   0.997  1.9175  1.2668 -0.1931
19234SOL     OW59954   6.490   4.740   1.850  0.5736 -0.0240  0.6108
19234SOL    HW159955   6.397   4.721   1.861 -0.3387  3.3027 -0.3642
19234SOL    HW259956   6.533   4.693   1.922 -1.6937 -2.2140  0.6633
19235SOL     OW59957   6.443   4.434   3.976 -0.4501  0.3054 -0.0281
19235SOL    HW159958   6.394   4.355   3.999 -0.3640  0.2917  0.1058
19235SOL    HW259959   6.534   4.413   3.995 -0.6573  1.2531  2.3243
19236SOL     OW59960  10.583   9.263   6.257 -0.1094  0.4569 -0.0921
19236SOL    HW159961  10.671   9.267   6.221  0.6369 -2.3664  1.1315
19236SOL    HW259962  10.576   9.341   6.313  0.8535  1.6985 -1.6107
19237SOL     OW59963   4.986   3.655   9.925 -0.0881  0.3216 -0.3498
19237SOL    HW159964   4.989   3.737   9.975 -2.4219 -0.4890  1.2975
19237SOL    HW259965   4.893   3.631   9.925  0.3651 -1.6734 -1.9145
19238SOL     OW59966   9.523   3.662   0.978 -0.0639 -0.3419 -0.5398
19238SOL    HW159967   9.532   3.583   1.031 -2.2712  1.6744  3.2659
19238SOL    HW259968   9.605   3.709   0.991  0.7646 -1.3274 -1.8451
19239SOL     OW59969   7.591   6.145   4.542 -0.2115  0.4198  0.9007
19239SOL    HW159970   7.560   6.173   4.628 -0.7516 -0.9407  1.1648
19239SOL    HW259971   7.687   6.150   4.549 -0.0792 -2.5116  2.6331
19240SOL     OW59972   1.678   3.340   4.333 -0.2580  0.0128  0.5933
19240SOL    HW159973   1.729   3.267   4.296 -1.1548 -0.6131  0.5712
19240SOL    HW259974   1.742   3.411   4.341  0.1102  0.0160 -1.6838
19241SOL     OW59975   4.424   0.155   3.231 -0.4049 -0.4081  0.1876
19241SOL    HW159976   4.332   0.175   3.247 -0.4875 -1.2207  0.7825
19241SOL    HW259977   4.445   0.085   3.293  0.7328  0.0721  0.3827
19242SOL     OW59978   5.295   9.407   8.966  0.3166  0.2070 -0.1220
19242SOL    HW159979   5.224   9.423   9.028 -0.9193 -0.7352 -1.2193
19242SOL    HW259980   5.367   9.375   9.020 -0.2949  0.6040  0.9611
19243SOL     OW59981   5.043   5.416   6.894 -0.1992 -0.0066 -0.4394
19243SOL    HW159982   5.037   5.336   6.842 -1.4245 -0.2312  0.0133
19243SOL    HW259983   5.092   5.477   6.839  0.2033 -0.8612 -1.0472
19244SOL     OW59984   0.877   4.246   8.424  0.0182  0.0620 -0.2187
19244SOL    HW159985   0.893   4.332   8.387 -2.3381  0.7319  0.1413
19244SOL    HW259986   0.849   4.192   8.350 -1.7541  0.5734  0.0322
19245SOL     OW59987   0.202   3.147   0.334 -0.1121  0.0751  0.2348
19245SOL    HW159988   0.150   3.077   0.374 -0.1584 -0.7473 -1.1710
19245SOL    HW259989   0.288   3.108   0.319 -0.6507 -0.3581 -2.2022
19246SOL     OW59990  10.158   7.107   2.295 -0.0819 -0.1370  0.6353
19246SOL    HW159991  10.091   7.088   2.361 -0.8928  1.9809  0.4753
19246SOL    HW259992  10.114   7.163   2.231  0.6477 -2.1751 -1.8223
19247SOL     OW59993   5.478   7.701   5.035 -0.0005 -0.2409  0.2375
19247SOL    HW159994   5.477   7.731   4.944 -1.0989 -0.1764  0.2685
19247SOL    HW259995   5.402   7.644   5.043 -0.6573  0.7443  1.4428
19248SOL     OW59996   3.050   8.693   0.417  0.6464 -0.2813 -0.2844
19248SOL    HW159997   2.957   8.693   0.395  0.5702 -3.3817 -0.4640
19248SOL    HW259998   3.081   8.608   0.387  2.9113 -0.4957  2.2808
19249SOL     OW59999   6.371   1.730   1.730 -0.1170 -0.6207 -0.1494
19249SOL    HW160000   6.451   1.761   1.771 -0.1281  0.1529 -0.6802
19249SOL    HW260001   6.312   1.710   1.803 -0.1713  0.8159  0.2227
19250SOL     OW60002   7.818   2.625   9.844  0.1581 -0.0141 -0.2517
19250SOL    HW160003   7.781   2.686   9.909  0.5334  0.8020 -0.7868
19250SOL    HW260004   7.849   2.551   9.896 -1.7857 -0.5123  0.2551
19251SOL     OW60005   1.139   9.356   9.758 -0.3648 -0.0594  0.1347
19251SOL    HW160006   1.045   9.349   9.774 -0.5350  0.1547 -0.7340
19251SOL    HW260007   1.157   9.295   9.686  0.2430 -0.4257  0.5834
19252SOL     OW60008   3.054   8.497  10.049  0.4741 -0.4673  0.0255
19252SOL    HW160009   3.136   8.544  10.033  1.0580 -1.0912  1.0847
19252SOL    HW260010   3.030   8.520  10.138 -1.4414  1.0516 -0.7920
19253SOL     OW60011   3.425   4.757   2.022  0.1420  0.0483 -0.0305
19253SOL    HW160012   3.433   4.843   2.064 -1.4950  0.6902 -0.9458
19253SOL    HW260013   3.495   4.704   2.061 -0.1565  1.1500  2.1073
19254SOL     OW60014   0.147  10.012   2.803  0.3967  0.2416 -0.0321
19254SOL    HW160015   0.122   9.920   2.811 -0.0543  0.5201  2.6823
19254SOL    HW260016   0.083  10.059   2.857  0.8360  2.1220 -1.0643
19255SOL     OW60017   2.707   6.417   6.512 -0.0723  0.2894 -0.2454
19255SOL    HW160018   2.711   6.330   6.473 -0.9464 -0.2903  0.9094
19255SOL    HW260019   2.719   6.402   6.606  0.4761  1.4919 -0.1092
19256SOL     OW60020   8.126   1.508   8.762  0.2400  0.1698  0.0181
19256SOL    HW160021   8.089   1.455   8.691 -2.5379  1.9167  0.0085
19256SOL    HW260022   8.168   1.582   8.718  1.5597 -0.4929  0.1272
19257SOL     OW60023   8.169   9.075   0.160  0.0512 -0.0065  0.4146
19257SOL    HW160024   8.133   9.143   0.216 -0.4165 -0.4995  0.7265
19257SOL    HW260025   8.239   9.036   0.212 -0.2862 -0.3666  0.6035
19258SOL     OW60026   0.865   5.436   2.629  0.4258  0.1631  0.8421
19258SOL    HW160027   0.846   5.500   2.697  0.4555  0.7071  0.3484
19258SOL    HW260028   0.949   5.464   2.593  0.2557  0.0700  0.3663
19259SOL     OW60029   1.433   1.694   4.981 -0.3420 -0.2131 -0.1568
19259SOL    HW160030   1.474   1.733   4.905  0.6783  0.2065  0.5858
19259SOL    HW260031   1.347   1.666   4.951 -1.0692  2.4583 -0.7830
19260SOL     OW60032   4.612   9.454   4.142  0.3565 -0.2633  0.6358
19260SOL    HW160033   4.701   9.465   4.111  0.4167  1.1079  1.2173
19260SOL    HW260034   4.598   9.527   4.202 -2.0503  1.2437 -1.5315
19261SOL     OW60035   3.685   0.316   9.450  0.1322  0.2291  0.2070
19261SOL    HW160036   3.705   0.371   9.374  0.0565 -0.3620 -0.2570
19261SOL    HW260037   3.770   0.301   9.491  0.0430  1.3774  0.8304
19262SOL     OW60038   4.109   1.008   9.466 -0.1921  0.9578  0.4281
19262SOL    HW160039   4.056   0.988   9.388 -1.2507  2.5041  0.7001
19262SOL    HW260040   4.190   1.045   9.431 -0.5411  1.3729  0.0365
19263SOL     OW60041   9.186   7.496  10.385 -0.2803 -0.4788  0.1292
19263SOL    HW160042   9.232   7.559  10.329 -1.2247  0.9308  0.8793
19263SOL    HW260043   9.113   7.466  10.331  0.7867 -1.8066 -0.6275
19264SOL     OW60044   3.392   7.872   5.632 -0.1255 -0.1007  0.4891
19264SOL    HW160045   3.361   7.782   5.641 -0.5132  0.1367  1.8177
19264SOL    HW260046   3.404   7.902   5.723 -1.5948  1.7037  0.1464
19265SOL     OW60047   1.279   7.154   3.712 -0.8201  0.3278  0.1452
19265SOL    HW160048   1.296   7.144   3.806 -0.0312  0.2444 -0.0004
19265SOL    HW260049   1.308   7.243   3.692 -0.1818  0.0542 -0.1840
19266SOL     OW60050   9.444   6.467  10.174 -0.6887 -0.7614  0.0389
19266SOL    HW160051   9.502   6.503  10.107  0.6767 -0.2322  1.4547
19266SOL    HW260052   9.357   6.466  10.132 -0.2471  1.3887 -1.0727
19267SOL     OW60053   9.797   2.951  10.564 -0.2309 -0.1205  0.0059
19267SOL    HW160054   9.889   2.957  10.538 -0.0389 -2.7523 -0.2701
19267SOL    HW260055   9.789   3.005  10.642  1.8501 -0.7307  0.6954
19268SOL     OW60056  10.401   6.734   6.307 -0.1200 -0.1629  0.0575
19268SOL    HW160057  10.365   6.689   6.230  0.3555  2.1106 -1.5936
19268SOL    HW260058  10.330   6.789   6.339  0.3255  0.5282 -0.1146
19269SOL     OW60059   5.400   3.659   5.645  0.1466  0.6413  0.0040
19269SOL    HW160060   5.385   3.741   5.598  0.6053  0.0344 -1.2524
19269SOL    HW260061   5.448   3.685   5.724 -1.1016  1.7473  0.4292
19270SOL     OW60062   0.305   1.725   1.934  0.3686 -0.5291  0.2066
19270SOL    HW160063   0.388   1.746   1.891  0.2020 -1.0124 -0.3716
19270SOL    HW260064   0.327   1.653   1.993  0.7051  0.4744  1.3456
19271SOL     OW60065   9.453   4.977   3.323 -0.0673  0.1561  0.2138
19271SOL    HW160066   9.535   4.967   3.372 -0.1117 -0.3447  0.1924
19271SOL    HW260067   9.476   4.953   3.234 -0.3525 -0.5193  0.3105
19272SOL     OW60068   0.138   0.228   4.948  0.2284 -0.3339  0.3112
19272SOL    HW160069   0.196   0.261   4.879 -0.2080 -0.6588 -0.2157
19272SOL    HW260070   0.050   0.235   4.911 -0.4896  3.2675  2.2805
19273SOL     OW60071   2.660   4.239   7.628 -0.0750  0.2118  0.8927
19273SOL    HW160072   2.661   4.212   7.537  0.6076  0.6386  0.7692
19273SOL    HW260073   2.578   4.288   7.638  0.6326  1.6171  0.0659
19274SOL     OW60074   3.810   1.786   5.821  0.0090 -0.3289  0.2896
19274SOL    HW160075   3.880   1.818   5.878 -1.8382  0.9343  1.9693
19274SOL    HW260076   3.750   1.741   5.880 -0.5001 -1.6086 -1.1521
19275SOL     OW60077   2.578   0.150   6.256 -0.2789 -0.2078 -0.4376
19275SOL    HW160078   2.524   0.074   6.281  0.6181 -0.6556  0.1743
19275SOL    HW260079   2.637   0.163   6.329 -1.1233  1.7874 -0.0514
19276SOL     OW60080   4.620   0.445   7.283  0.0287  0.2219  0.4211
19276SOL    HW160081   4.699   0.423   7.234 -0.9691 -0.8641 -0.7922
19276SOL    HW260082   4.648   0.446   7.375  1.1852 -1.5072  0.1414
19277SOL     OW60083   3.183   1.959   3.773  0.1999 -0.2039  0.9156
19277SOL    HW160084   3.190   1.934   3.865 -1.1704  0.3012  1.1860
19277SOL    HW260085   3.189   2.055   3.773 -0.8319 -0.1222  0.6220
19278SOL     OW60086   2.569   5.822   0.446 -0.4968 -0.3050  0.8710
19278SOL    HW160087   2.481   5.818   0.408  0.1843  0.1258 -0.8771
19278SOL    HW260088   2.591   5.915   0.447  0.0443 -0.4285  1.0000
19279SOL     OW60089   1.369   2.886   2.225 -0.4231  0.2541 -0.6592
19279SOL    HW160090   1.378   2.981   2.214  1.0114  0.3625  0.9910
19279SOL    HW260091   1.440   2.849   2.173 -0.1300  0.1799 -0.2146
19280SOL     OW60092   5.249   4.811  10.297 -0.2067  0.1515  0.6027
19280SOL    HW160093   5.256   4.728  10.344  1.0994  0.0010  0.1829
19280SOL    HW260094   5.309   4.802  10.223  0.7268  1.8437  1.1150
19281SOL     OW60095   2.430   4.707   8.503 -0.4478 -0.1139  0.7475
19281SOL    HW160096   2.382   4.630   8.534  0.2365 -1.2354 -0.8600
19281SOL    HW260097   2.366   4.779   8.510 -1.3628 -0.9597  1.4943
19282SOL     OW60098   6.319   7.009   7.961 -0.2889  0.2373 -0.1353
19282SOL    HW160099   6.382   6.957   8.010  1.1406  1.1072 -1.0003
19282SOL    HW260100   6.235   6.964   7.976  0.4540 -0.7721  1.2647
19283SOL     OW60101   6.786   6.963   4.730 -0.3524  0.3500  0.1997
19283SOL    HW160102   6.761   7.020   4.803  0.7742 -0.3073  1.1476
19283SOL    HW260103   6.733   6.884   4.742 -1.0620  0.7255 -0.4261
19284SOL     OW60104   7.048   1.250   9.691  0.2820  0.5320 -0.4148
19284SOL    HW160105   6.985   1.322   9.694 -2.1543 -1.4742  1.5329
19284SOL    HW260106   7.055   1.229   9.597 -0.9901  1.6374 -0.7962
19285SOL     OW60107   5.119   8.673   3.953 -0.1059 -0.7157  0.6856
19285SOL    HW160108   5.125   8.592   4.005 -1.9704 -2.1935 -1.2386
19285SOL    HW260109   5.034   8.710   3.975 -1.1071 -1.5704 -1.4379
19286SOL     OW60110   7.839   3.932   5.964  0.0145 -0.0250 -0.1441
19286SOL    HW160111   7.799   3.979   6.037 -0.7445 -1.6205  0.5123
19286SOL    HW260112   7.839   3.995   5.892  1.1126  1.7168  1.2929
19287SOL     OW60113   5.908   6.692   6.316  0.1826  0.1701  0.5183
19287SOL    HW160114   5.963   6.650   6.382  0.4312 -2.3271 -1.1339
19287SOL    HW260115   5.839   6.735   6.366  1.4649  0.0779  2.4708
19288SOL     OW60116   5.857   4.909   8.083 -0.1039  0.5921  0.8398
19288SOL    HW160117   5.873   4.936   7.993 -1.4211 -1.4189 -0.0528
19288SOL    HW260118   5.896   4.979   8.136  0.1168  2.1606 -1.2630
19289SOL     OW60119   2.727   9.517   7.696  0.3942  0.0491  0.4742
19289SOL    HW160120   2.680   9.456   7.753  0.9506  1.2767  2.3474
19289SOL    HW260121   2.759   9.463   7.624  1.6366 -2.0887  2.5028
19290SOL     OW60122   8.525   7.658   9.719  0.2140 -0.2238  0.3749
19290SOL    HW160123   8.496   7.628   9.633  0.1853  0.7321  0.0314
19290SOL    HW260124   8.445   7.658   9.773  0.0650 -0.0057  0.1548
19291SOL     OW60125   4.264   2.885   2.989  0.4845  0.0526  0.2474
19291SOL    HW160126   4.179   2.850   3.016  0.8755 -0.1991  1.2220
19291SOL    HW260127   4.243   2.950   2.922 -0.6052  0.9472  1.3782
19292SOL     OW60128   6.448   1.245   4.375 -0.1204 -0.0041 -0.0322
19292SOL    HW160129   6.419   1.192   4.449 -0.1587  0.4246  0.2627
19292SOL    HW260130   6.543   1.231   4.371 -0.2085 -0.5531 -0.3223
19293SOL     OW60131   4.704  10.451   5.143 -0.1178 -0.0181 -0.2217
19293SOL    HW160132   4.741  10.462   5.055 -0.3740 -2.8509 -0.7613
19293SOL    HW260133   4.626  10.506   5.142 -0.6352 -0.6981 -2.1333
19294SOL     OW60134   0.205   9.483   7.844  0.1417  0.7297  0.4045
19294SOL    HW160135   0.240   9.430   7.916  1.1451  0.0572 -0.5393
19294SOL    HW260136   0.149   9.423   7.794  0.8027  0.6928 -0.3244
19295SOL     OW60137   6.411   2.807   0.447 -0.6326 -0.1622  0.2360
19295SOL    HW160138   6.352   2.739   0.414 -0.2297 -0.2077 -0.3896
19295SOL    HW260139   6.353   2.881   0.466 -0.9888 -0.4582  0.3259
19296SOL     OW60140   8.820   3.564   5.990 -1.0455  0.4685 -0.2372
19296SOL    HW160141   8.810   3.470   5.981 -0.2197  0.3353  0.1355
19296SOL    HW260142   8.821   3.579   6.085  0.0895  0.6868 -0.2613
19297SOL     OW60143   0.452   0.690  10.251 -0.0437 -0.2520  0.2027
19297SOL    HW160144   0.407   0.721  10.330 -0.6309 -1.4124  0.3418
19297SOL    HW260145   0.495   0.768  10.216 -2.4356  1.0030 -0.1277
19298SOL     OW60146   6.857   1.778   2.298  0.2064  0.2269  0.1375
19298SOL    HW160147   6.946   1.783   2.333  0.6126  0.1554 -0.8472
19298SOL    HW260148   6.801   1.795   2.373  1.0317 -0.3298  0.8998
19299SOL     OW60149   4.506   3.872   8.888  0.6951  0.4157  0.2602
19299SOL    HW160150   4.484   3.887   8.795  0.4549  0.9719  0.4026
19299SOL    HW260151   4.602   3.872   8.890  0.7456 -1.4635 -0.2791
19300SOL     OW60152   6.637   6.279   4.977  0.3114  0.0786 -0.4116
19300SOL    HW160153   6.689   6.208   5.015  0.6226 -0.6240 -2.0725
19300SOL    HW260154   6.589   6.237   4.906  1.8153  1.8529 -2.5826
19301SOL     OW60155   7.376   4.934   1.246  0.4401 -0.2659  0.0864
19301SOL    HW160156   7.449   4.995   1.252  0.7960 -0.6083 -0.6301
19301SOL    HW260157   7.346   4.942   1.155 -0.9863  0.5165  0.5967
19302SOL     OW60158   5.056   5.486   6.232  0.8340  0.5725 -0.2597
19302SOL    HW160159   5.148   5.512   6.232  1.3539 -1.0231 -2.2771
19302SOL    HW260160   5.032   5.485   6.139 -0.9114 -0.1210  0.1625
19303SOL     OW60161   2.408   3.586   4.957 -0.4163  0.4546 -0.5133
19303SOL    HW160162   2.446   3.570   4.870  2.0078  0.4866  0.4608
19303SOL    HW260163   2.453   3.665   4.988  0.8262 -1.0638  1.8313
19304SOL     OW60164   7.495  10.197   5.669 -0.3757 -0.2187 -0.1592
19304SOL    HW160165   7.567  10.218   5.611  0.8965  0.0133  1.4298
19304SOL    HW260166   7.437  10.142   5.617  1.0525 -0.5824 -1.4221
19305SOL     OW60167   1.356   9.613   8.964  0.5577 -0.0625 -0.4944
19305SOL    HW160168   1.362   9.698   8.919  2.4255  0.8866  1.4000
19305SOL    HW260169   1.443   9.599   9.001 -0.1290 -2.1399  0.4624
19306SOL     OW60170   4.329   7.751   4.016 -0.0689  0.1099  0.0191
19306SOL    HW160171   4.342   7.804   3.938  2.9164  1.4065  1.2449
19306SOL    HW260172   4.351   7.809   4.089  2.6727 -2.4855  1.4823
19307SOL     OW60173   7.766   2.423   6.640  0.8090 -0.5851 -0.0212
19307SOL    HW160174   7.703   2.372   6.690  1.6471 -2.8459 -1.1315
19307SOL    HW260175   7.845   2.423   6.694  0.4856  0.5191  0.4691
19308SOL     OW60176   2.019   5.361   3.248  0.4333  0.2527 -0.2724
19308SOL    HW160177   1.930   5.356   3.283 -0.2883 -3.3557 -2.2214
19308SOL    HW260178   2.074   5.331   3.320  0.0259  1.3929  0.5599
19309SOL     OW60179   2.696   8.125  10.084  0.0005 -0.0326 -0.4022
19309SOL    HW160180   2.748   8.202  10.062  0.3517 -0.0113  0.4820
19309SOL    HW260181   2.674   8.087   9.999 -2.2000  2.3121 -0.9949
19310SOL     OW60182   1.612   8.881   8.921 -0.2161  0.0205 -0.3535
19310SOL    HW160183   1.532   8.931   8.938 -0.9587 -0.9964 -0.7852
19310SOL    HW260184   1.585   8.789   8.927  1.2711 -0.3723  1.1695
19311SOL     OW60185   5.458   7.843   8.683 -0.4378  0.1383  0.4626
19311SOL    HW160186   5.408   7.859   8.603  0.9306 -1.6543 -0.8387
19311SOL    HW260187   5.466   7.748   8.687  1.4486  0.2956  1.4984
19312SOL     OW60188   1.905   9.092   3.250  0.7062 -0.0228  0.5618
19312SOL    HW160189   1.980   9.064   3.302  1.5136  1.2389  0.1067
19312SOL    HW260190   1.940   9.104   3.161  0.0085  0.7567  0.3847
19313SOL     OW60191   8.008   3.743   9.639  0.0715  0.4379  0.1166
19313SOL    HW160192   8.010   3.835   9.664 -2.0029  0.5165  0.1123
19313SOL    HW260193   7.915   3.720   9.634  0.5227 -1.6063 -0.0848
19314SOL     OW60194   6.165   9.038   8.221 -0.6306 -0.5861  0.6182
19314SOL    HW160195   6.121   9.120   8.243 -1.2682  0.6122 -3.9504
19314SOL    HW260196   6.094   8.974   8.214 -0.5941 -0.6586  0.9262
19315SOL     OW60197   9.481   6.158   3.382 -0.0470  0.6650  0.1987
19315SOL    HW160198   9.400   6.203   3.362  1.3638  1.9486 -3.4946
19315SOL    HW260199   9.496   6.174   3.476 -2.7642  2.4230  0.4259
19316SOL     OW60200   4.189   6.645   7.188 -0.7876  0.5502  0.6194
19316SOL    HW160201   4.204   6.739   7.176 -2.7560  0.8124 -0.2717
19316SOL    HW260202   4.205   6.607   7.102 -0.1233  0.0675  0.9483
19317SOL     OW60203   7.182   7.128   9.303 -0.5601  0.0257  0.3002
19317SOL    HW160204   7.107   7.175   9.268 -0.3142  0.9243  0.9438
19317SOL    HW260205   7.201   7.060   9.238 -0.8305  0.9154 -0.7276
19318SOL     OW60206   2.681   5.813   4.325  0.1177 -0.1459  0.0260
19318SOL    HW160207   2.745   5.777   4.386  0.1131  0.9653  0.7267
19318SOL    HW260208   2.730   5.877   4.274 -0.6348  1.6401  1.4138
19319SOL     OW60209   8.425   8.904   2.419 -0.0113  0.4093  0.0529
19319SOL    HW160210   8.424   8.960   2.497 -2.8170  0.7476 -0.1247
19319SOL    HW260211   8.442   8.964   2.347  0.7797  0.3925  0.2205
19320SOL     OW60212   8.364   4.127   9.091  0.6124  0.5684  0.2984
19320SOL    HW160213   8.331   4.201   9.142 -3.4876 -0.8927  0.1278
19320SOL    HW260214   8.329   4.049   9.135  2.1306 -1.1167 -1.2705
19321SOL     OW60215   0.400   5.454   6.052  0.1788  0.0216  0.5521
19321SOL    HW160216   0.437   5.372   6.018  0.9476  0.0087  1.3797
19321SOL    HW260217   0.407   5.516   5.980  0.5080 -0.3802  0.2351
19322SOL     OW60218   3.230   8.269  10.188  0.1099  0.0414  0.4223
19322SOL    HW160219   3.309   8.321  10.175 -0.2602  0.8914  1.3511
19322SOL    HW260220   3.229   8.251  10.282 -1.8759  1.9120  0.8533
19323SOL     OW60221   5.684   2.068   6.316  0.3303  0.4962 -0.0108
19323SOL    HW160222   5.678   2.164   6.312 -2.1637  0.4535  0.7444
19323SOL    HW260223   5.667   2.040   6.226  0.8528  0.7456 -0.1919
19324SOL     OW60224   1.759   6.843   2.776 -0.1639 -0.3868 -0.7629
19324SOL    HW160225   1.720   6.901   2.841 -1.1761  0.1107 -1.7879
19324SOL    HW260226   1.755   6.891   2.694  2.4150 -0.4207 -0.9968
19325SOL     OW60227   4.851   4.454   2.410 -0.1534 -0.2324  0.1621
19325SOL    HW160228   4.910   4.521   2.445 -0.3371 -0.0605  0.1415
19325SOL    HW260229   4.894   4.425   2.330  0.1287 -0.4273  0.3778
19326SOL     OW60230   4.872   2.332   7.987  0.4494 -0.2033  0.1700
19326SOL    HW160231   4.838   2.371   8.067  0.0644 -0.3422  0.0760
19326SOL    HW260232   4.932   2.264   8.018 -1.3726 -1.7901  0.3989
19327SOL     OW60233   2.568   3.923   2.524  0.1422 -0.3085  0.1595
19327SOL    HW160234   2.537   3.986   2.459  0.5036  0.5077  0.7536
19327SOL    HW260235   2.489   3.893   2.568 -0.0553 -0.4584 -0.2936
19328SOL     OW60236   1.742   6.903   4.179 -0.7847 -0.2440  0.0706
19328SOL    HW160237   1.721   6.817   4.216 -2.4401 -0.0644 -0.4078
19328SOL    HW260238   1.685   6.963   4.226 -1.1552  0.3122 -1.0754
19329SOL     OW60239   2.364   8.058   6.867  0.5771 -0.2379  0.0772
19329SOL    HW160240   2.319   8.123   6.921 -0.6029 -0.3152 -0.7914
19329SOL    HW260241   2.409   8.110   6.800  0.4101 -0.2633 -0.0541
19330SOL     OW60242   2.451   1.743   6.581  0.0586 -0.1314  0.1836
19330SOL    HW160243   2.450   1.761   6.487 -1.4195  1.0095  0.3858
19330SOL    HW260244   2.540   1.763   6.608  0.0799  1.1177 -0.7092
19331SOL     OW60245   1.040   4.701   3.663  0.1527 -0.3337 -0.4195
19331SOL    HW160246   0.968   4.724   3.606 -0.4781 -2.8387 -0.7434
19331SOL    HW260247   1.000   4.652   3.735  1.3235 -0.1859  0.3751
19332SOL     OW60248   7.619   0.794   6.874 -0.8316  0.0088  0.1532
19332SOL    HW160249   7.695   0.830   6.829 -0.4099 -1.4031 -0.3361
19332SOL    HW260250   7.579   0.869   6.917 -0.7373  1.2894 -1.8291
19333SOL     OW60251   4.270   9.131   2.252  0.6448  0.1660  0.3174
19333SOL    HW160252   4.364   9.135   2.270  0.5296  0.8057  0.8199
19333SOL    HW260253   4.250   9.218   2.215  0.3114 -0.0838 -0.0987
19334SOL     OW60254   4.373   4.980   1.974  0.4948 -0.0979  0.2191
19334SOL    HW160255   4.419   5.060   2.003 -0.7289  0.1533  1.5837
19334SOL    HW260256   4.401   4.913   2.035 -0.2633 -0.1419  0.5339
19335SOL     OW60257   6.374   5.746   4.281 -0.1813 -0.7078  0.2968
19335SOL    HW160258   6.280   5.731   4.286 -0.3528  0.4345  0.7008
19335SOL    HW260259   6.393   5.749   4.187 -0.8727  0.8696  0.1736
19336SOL     OW60260   6.951   4.956   0.665  0.1301 -0.0832 -0.3149
19336SOL    HW160261   6.953   4.912   0.580 -0.5914  0.6745 -0.7312
19336SOL    HW260262   6.869   5.004   0.666 -1.7068 -2.9354  2.2958
19337SOL     OW60263   7.948   0.520   4.866 -0.2946 -0.4034 -0.3415
19337SOL    HW160264   7.978   0.527   4.775  1.2668  1.1288  0.2530
19337SOL    HW260265   7.946   0.425   4.883  3.4943 -0.7128 -0.7468
19338SOL     OW60266   2.643   0.461   7.409  0.1568  0.2539  0.6252
19338SOL    HW160267   2.582   0.454   7.482  0.5511  0.3717  0.9729
19338SOL    HW260268   2.730   0.460   7.450  0.3769  0.5197  0.1775
19339SOL     OW60269   6.522   0.756   8.896 -0.5770 -0.9561  0.0970
19339SOL    HW160270   6.611   0.785   8.913 -0.4125 -0.9175 -0.7819
19339SOL    HW260271   6.487   0.819   8.833 -1.4790 -0.5498  0.9742
19340SOL     OW60272   2.560   2.072   9.394 -0.4757 -0.4078 -0.2038
19340SOL    HW160273   2.655   2.061   9.396 -0.5420 -1.6319 -1.8636
19340SOL    HW260274   2.545   2.160   9.428  1.3062  0.1205 -0.7033
19341SOL     OW60275   8.935   5.291   5.957 -0.6246 -0.1917  0.2098
19341SOL    HW160276   8.942   5.213   5.902  0.9015 -0.7329  1.1066
19341SOL    HW260277   8.885   5.262   6.033 -0.9275 -0.0182  0.0774
19342SOL     OW60278   2.008   7.120   4.976  0.2182  0.4768 -0.0968
19342SOL    HW160279   1.979   7.063   5.046 -0.8599  1.1421  0.0190
19342SOL    HW260280   2.046   7.061   4.911  1.0349 -0.1585  0.9317
19343SOL     OW60281   4.934   4.626   3.340 -0.1019 -0.2013 -0.1039
19343SOL    HW160282   4.901   4.654   3.255  0.9710  1.6586  0.0413
19343SOL    HW260283   4.958   4.534   3.327 -0.4675 -0.1077 -1.6564
19344SOL     OW60284   8.402   8.157   3.527 -0.4836  0.1249  0.2267
19344SOL    HW160285   8.344   8.092   3.568 -0.4763  0.0370  0.0969
19344SOL    HW260286   8.483   8.109   3.511 -0.7984 -0.0948 -0.7399
19345SOL     OW60287   6.398   0.523   3.035  0.0545  0.7297  0.2143
19345SOL    HW160288   6.453   0.446   3.049  0.0259  0.7807  0.6146
19345SOL    HW260289   6.357   0.508   2.949  0.3530  0.4876  0.1135
19346SOL     OW60290   1.560   6.969   0.414  0.4954  0.0612 -0.0639
19346SOL    HW160291   1.642   7.009   0.387 -0.5468  1.3167 -1.5216
19346SOL    HW260292   1.533   7.018   0.491  0.6378  0.2636 -0.1432
19347SOL     OW60293   8.918  10.074   4.314 -0.0151 -0.0863  0.0565
19347SOL    HW160294   8.870  10.023   4.379  2.4892 -0.8871  1.3809
19347SOL    HW260295   8.987  10.015   4.283 -0.1484  0.8214 -2.1853
19348SOL     OW60296   6.273   5.614   1.135  0.9494  0.2446  0.0518
19348SOL    HW160297   6.291   5.586   1.045  0.5484 -0.1197  0.0785
19348SOL    HW260298   6.199   5.559   1.162  0.9475  0.4852  0.5379
19349SOL     OW60299   0.002   7.440   6.022 -0.0529 -0.0542 -0.0549
19349SOL    HW160300  -0.010   7.477   5.935 -1.3806  0.2050  0.2146
19349SOL    HW260301   0.093   7.461   6.045  0.4447 -0.5088 -1.5350
19350SOL     OW60302   9.471   2.692  10.424  0.7455  0.1455 -0.1588
19350SOL    HW160303   9.438   2.603  10.414 -2.0755  1.0893 -0.1113
19350SOL    HW260304   9.441   2.738  10.346  1.0346  1.3759  0.4243
19351SOL     OW60305   8.470   4.877   2.309 -0.4680 -0.0242  0.1192
19351SOL    HW160306   8.405   4.934   2.350 -0.8919 -0.2672 -0.2125
19351SOL    HW260307   8.554   4.917   2.332 -0.7548  0.6901 -0.0435
19352SOL     OW60308   5.066   8.074   5.259  0.2644 -0.7222 -0.3357
19352SOL    HW160309   5.032   8.124   5.334 -0.6098  2.2349 -2.5030
19352SOL    HW260310   5.045   7.983   5.279 -3.1306  0.2956  1.4874
19353SOL     OW60311   2.895   1.268   9.140 -0.0110 -0.0709 -0.2181
19353SOL    HW160312   2.951   1.316   9.078  0.6655  0.4807  0.8042
19353SOL    HW260313   2.806   1.288   9.111  0.2806 -0.8627 -1.7998
19354SOL     OW60314   0.554   6.323   0.399  0.3802 -0.8816 -0.1482
19354SOL    HW160315   0.534   6.229   0.406 -0.2522 -0.7702 -0.3864
19354SOL    HW260316   0.500   6.354   0.327 -0.6595  0.0043  0.9728
19355SOL     OW60317   0.374   7.130   1.050 -0.3949 -0.1652 -0.5303
19355SOL    HW160318   0.432   7.092   1.117 -0.3734  2.5271  1.1340
19355SOL    HW260319   0.430   7.139   0.973  0.6387 -0.1578  0.1907
19356SOL     OW60320  10.382   3.030   8.760  0.5713  0.2297  0.3908
19356SOL    HW160321  10.342   3.011   8.845 -0.6567 -2.2016 -0.6493
19356SOL    HW260322  10.341   2.969   8.700  2.6854  0.6763 -1.6423
19357SOL     OW60323   2.434   5.953   5.991  0.0763 -0.1861 -0.8594
19357SOL    HW160324   2.523   5.983   5.971 -0.1731  0.4010 -1.0977
19357SOL    HW260325   2.406   5.905   5.913  0.3219 -0.6978 -0.6374
19358SOL     OW60326   6.295   6.898   8.593  0.1417 -0.6302  0.4697
19358SOL    HW160327   6.380   6.859   8.616 -0.0290 -0.3024  1.7320
19358SOL    HW260328   6.275   6.957   8.666 -1.2074 -0.7429  0.2162
19359SOL     OW60329   9.622   2.021   1.868 -0.0564  0.0815  0.0786
19359SOL    HW160330   9.714   2.018   1.846  0.1322  2.0984  0.3691
19359SOL    HW260331   9.576   2.000   1.787  0.6310 -1.3990  0.0505
19360SOL     OW60332   6.770   5.358   2.390 -0.5336  0.6015 -0.1874
19360SOL    HW160333   6.825   5.329   2.463  1.1300  1.9530 -0.8151
19360SOL    HW260334   6.830   5.360   2.315 -1.2251  2.8081 -0.7586
19361SOL     OW60335   7.550   5.916   5.594 -0.1508  0.2049 -0.8984
19361SOL    HW160336   7.538   5.920   5.689 -0.7217  0.0472 -0.9583
19361SOL    HW260337   7.590   5.830   5.579 -0.1522  0.1880 -0.8069
19362SOL     OW60338   0.222   8.051   9.763 -0.4857  0.2325  0.4139
19362SOL    HW160339   0.295   8.016   9.712  0.1857  0.3086  1.2767
19362SOL    HW260340   0.233   8.146   9.756 -1.0909  0.2544 -0.2586
19363SOL     OW60341   1.079   8.104   2.136  0.8619 -0.3905  0.0006
19363SOL    HW160342   1.010   8.072   2.195  0.8602 -1.1715 -0.4105
19363SOL    HW260343   1.054   8.195   2.118  0.8393 -0.1553  1.1572
19364SOL     OW60344   3.717  10.628   8.128 -0.3086  0.2446  0.2808
19364SOL    HW160345   3.745  10.708   8.085 -0.7112 -0.1003 -0.6616
19364SOL    HW260346   3.725  10.646   8.222 -2.2668  2.0900  0.1716
19365SOL     OW60347   1.461   3.152   2.172 -0.2612  0.2477 -0.7249
19365SOL    HW160348   1.501   3.220   2.226 -0.8024  0.7772 -0.9710
19365SOL    HW260349   1.526   3.133   2.104 -0.5780  1.4200 -1.3871
19366SOL     OW60350   0.993   3.736   4.287  0.0754 -0.6138  0.0683
19366SOL    HW160351   1.017   3.658   4.237 -2.7815 -2.2426  0.9704
19366SOL    HW260352   0.899   3.746   4.271 -0.2375  0.8420  2.3465
19367SOL     OW60353   5.467   9.536   1.667  0.9115 -0.3310 -0.3342
19367SOL    HW160354   5.388   9.581   1.698  1.5539  1.6923 -1.4415
19367SOL    HW260355   5.523   9.531   1.744  0.1429 -0.8072  0.2078
19368SOL     OW60356   8.612   1.925   6.494 -0.0484  0.1607  0.5543
19368SOL    HW160357   8.521   1.900   6.483  0.1036  0.0478 -0.4741
19368SOL    HW260358   8.657   1.893   6.416  1.0225 -0.4389  1.3846
19369SOL     OW60359   6.734   3.861   2.580  0.1218 -0.3977 -0.3738
19369SOL    HW160360   6.659   3.825   2.628 -0.0983 -2.5599 -2.1634
19369SOL    HW260361   6.807   3.805   2.606  0.3857 -0.4248 -1.1691
19370SOL     OW60362   7.046   1.041   6.463  0.0850 -0.4756 -0.2276
19370SOL    HW160363   7.078   1.061   6.550  2.2721  0.8129 -1.2344
19370SOL    HW260364   7.099   0.966   6.434 -0.2958 -0.5952 -0.6367
19371SOL     OW60365   3.221   6.123   5.197 -0.0832  0.0421 -0.2181
19371SOL    HW160366   3.307   6.131   5.154 -0.4574 -0.3513 -1.0661
19371SOL    HW260367   3.208   6.029   5.207 -0.4304  0.1025 -0.1095
19372SOL     OW60368   1.420   0.548   2.546  0.0624 -0.6814 -0.1326
19372SOL    HW160369   1.465   0.630   2.565 -2.4238  0.4702  1.1489
19372SOL    HW260370   1.424   0.499   2.628 -3.2131  0.6244  0.9762
19373SOL     OW60371   9.878   5.835   1.894  0.1352  0.7215 -0.3216
19373SOL    HW160372   9.906   5.761   1.948 -0.3150  0.7636 -0.0244
19373SOL    HW260373   9.809   5.878   1.945  1.7535  2.5709  0.4345
19374SOL     OW60374   8.685   0.773   9.484 -0.2865 -0.3125  0.4848
19374SOL    HW160375   8.673   0.855   9.437 -1.1483 -1.5965 -1.6529
19374SOL    HW260376   8.693   0.799   9.576  3.3460  2.4616 -0.3946
19375SOL     OW60377   9.073   5.343   5.139  0.1462  0.1799 -0.4778
19375SOL    HW160378   9.111   5.362   5.225  0.9754 -2.3488 -0.1967
19375SOL    HW260379   8.980   5.332   5.155 -0.6101  4.5139 -0.8353
19376SOL     OW60380   7.851   0.587   0.061 -0.5753 -0.1681  0.8108
19376SOL    HW160381   7.815   0.582  -0.028  0.8614 -0.5459  0.2217
19376SOL    HW260382   7.790   0.537   0.114  0.2880 -2.8852 -0.5795
19377SOL     OW60383   7.606   7.259   0.588  0.3946 -0.0716 -0.4907
19377SOL    HW160384   7.653   7.280   0.507  0.8135  1.9453  0.2177
19377SOL    HW260385   7.673   7.262   0.656 -0.5188  1.8567  0.3961
19378SOL     OW60386  10.141   8.583   6.547 -0.3275  0.4543  0.2188
19378SOL    HW160387  10.065   8.639   6.536 -0.6758  0.1873  1.1301
19378SOL    HW260388  10.192   8.625   6.616  0.1933  0.4566 -0.1597
19379SOL     OW60389   5.759   0.390   4.549 -0.0944  0.0763  0.2576
19379SOL    HW160390   5.761   0.389   4.454 -0.6344  0.1907  0.2463
19379SOL    HW260391   5.753   0.297   4.574  1.5260 -0.0779  0.2244
19380SOL     OW60392   9.801   4.705   0.228 -0.1268  0.1809  0.2198
19380SOL    HW160393   9.883   4.747   0.252 -0.0810 -0.5994  1.5500
19380SOL    HW260394   9.772   4.661   0.308 -2.2036  1.0111 -0.0007
19381SOL     OW60395   2.518   4.337   3.379  0.1713  0.3444 -0.4048
19381SOL    HW160396   2.523   4.431   3.364  1.1086  0.3184 -0.3007
19381SOL    HW260397   2.519   4.299   3.291  1.8582  0.3594 -0.4236
19382SOL     OW60398   2.398   5.870   5.700  0.2908  0.0558  0.2131
19382SOL    HW160399   2.368   5.828   5.619  1.1379 -1.3629  0.5879
19382SOL    HW260400   2.352   5.823   5.769  1.3925 -0.4122  0.6582
19383SOL     OW60401   8.819   3.976   2.954  0.3793 -0.4919 -0.1578
19383SOL    HW160402   8.745   4.014   2.907 -0.4204 -2.3785 -0.5493
19383SOL    HW260403   8.781   3.945   3.037  1.0487 -0.1972  0.2662
19384SOL     OW60404   4.242   0.685   9.419  0.4245 -0.1402 -0.0629
19384SOL    HW160405   4.163   0.725   9.384  0.7599  0.9133  0.3327
19384SOL    HW260406   4.312   0.748   9.399  1.5328 -1.9053 -2.0875
19385SOL     OW60407   8.714   8.160   2.343 -0.4441  0.2619 -0.2417
19385SOL    HW160408   8.786   8.115   2.387  0.2076  2.0807  0.6558
19385SOL    HW260409   8.662   8.197   2.415 -3.4761 -2.5485 -0.7077
19386SOL     OW60410   2.753  10.574   8.210  0.6948  0.0054 -0.4631
19386SOL    HW160411   2.828  10.536   8.255  0.1151 -0.6578 -0.0334
19386SOL    HW260412   2.682  10.569   8.273  0.5442  1.6698 -0.4596
19387SOL     OW60413   8.350   7.742   3.962 -0.1238  0.1971 -0.2302
19387SOL    HW160414   8.273   7.797   3.975  1.5252  2.5144  0.3806
19387SOL    HW260415   8.347   7.679   4.034 -1.3797  0.3056 -0.1656
19388SOL     OW60416   4.482   6.155   1.599 -0.6855  0.1903 -0.2187
19388SOL    HW160417   4.544   6.085   1.581  0.0401  0.5919  0.6217
19388SOL    HW260418   4.508   6.226   1.539  0.3225  0.7191  0.8046
19389SOL     OW60419   8.694  10.117   8.182 -0.0563  0.4529  0.3011
19389SOL    HW160420   8.784  10.087   8.194  0.2120  0.6797 -0.9958
19389SOL    HW260421   8.649  10.042   8.143 -0.6276  0.0843  1.6462
19390SOL     OW60422   9.844   9.670   6.504  0.6811  0.7668  0.2343
19390SOL    HW160423   9.868   9.590   6.551  2.1529  0.8419 -0.3257
19390SOL    HW260424   9.811   9.728   6.572 -0.0022 -0.1524  0.7183
19391SOL     OW60425   9.612   1.719   1.414  0.4664  0.1349  0.0585
19391SOL    HW160426   9.648   1.797   1.372  1.0228 -0.1052  0.0695
19391SOL    HW260427   9.686   1.683   1.464 -0.7080  1.6862  3.1791
19392SOL     OW60428   9.614   7.311   3.241 -0.5712 -0.1301 -0.0479
19392SOL    HW160429   9.528   7.345   3.219 -0.2799  0.5415 -0.1860
19392SOL    HW260430   9.627   7.336   3.333 -0.5060 -0.1846 -0.0418
19393SOL     OW60431   1.749   4.884   8.745  0.3009 -0.3246  0.5011
19393SOL    HW160432   1.751   4.858   8.652  0.1204  1.2457  0.0189
19393SOL    HW260433   1.672   4.840   8.780 -2.3094  2.4321 -1.2603
19394SOL     OW60434   2.948   6.780  10.089  0.3306  0.5224 -0.0698
19394SOL    HW160435   2.976   6.810  10.176 -1.2459 -1.0476  1.0756
19394SOL    HW260436   2.962   6.685  10.092 -1.1496  0.2553 -0.9693
19395SOL     OW60437   4.420  10.508   2.403  0.3096  0.0685 -0.2617
19395SOL    HW160438   4.472  10.558   2.340  1.0430 -2.6542 -2.0149
19395SOL    HW260439   4.471  10.509   2.483  0.4988  1.6742 -0.3665
19396SOL     OW60440   7.367   3.868   2.428 -0.4250 -0.4238 -0.5212
19396SOL    HW160441   7.386   3.948   2.477 -0.3062  0.0451 -1.3098
19396SOL    HW260442   7.285   3.888   2.381  0.0382 -0.4552 -1.3629
19397SOL     OW60443   7.053   6.209   8.242  0.2658  0.6386 -0.0153
19397SOL    HW160444   7.101   6.126   8.248 -2.5497 -1.0761  1.8069
19397SOL    HW260445   7.012   6.206   8.155  0.0203 -0.0541  0.1101
19398SOL     OW60446   8.689   7.158   2.787  0.0736  0.0655  0.0541
19398SOL    HW160447   8.606   7.116   2.811  0.7813  0.1828  3.0071
19398SOL    HW260448   8.681   7.248   2.817  0.7257  0.5089 -1.0392
19399SOL     OW60449   2.240   7.984   9.819  0.3800  0.0096  0.6387
19399SOL    HW160450   2.215   8.055   9.878 -1.2206  1.4370 -1.5944
19399SOL    HW260451   2.157   7.943   9.794  1.0097 -0.6007 -0.5315
19400SOL     OW60452   4.083   2.418   2.961  0.0514  0.6692 -0.5337
19400SOL    HW160453   4.158   2.440   3.017  1.0373 -2.4639 -0.4496
19400SOL    HW260454   4.120   2.411   2.873 -0.3354  0.1043 -0.6597
19401SOL     OW60455   8.083   2.944   4.268  0.6949 -0.5263  0.0080
19401SOL    HW160456   8.132   2.984   4.196 -0.9874  2.3713  0.3262
19401SOL    HW260457   7.991   2.959   4.245  0.0854  1.6576  3.2553
19402SOL     OW60458   9.655   6.302   3.161  0.0194 -0.6657  0.2807
19402SOL    HW160459   9.614   6.239   3.221 -0.5516 -1.9217 -1.3508
19402SOL    HW260460   9.628   6.388   3.195 -1.5203 -1.3799  0.9638
19403SOL     OW60461   5.331   4.752   6.170  0.1195  0.1275 -0.0624
19403SOL    HW160462   5.280   4.789   6.097 -0.8554 -1.8181 -0.4418
19403SOL    HW260463   5.265   4.713   6.228  0.9335  1.0511  1.5396
19404SOL     OW60464   4.711   2.806   6.244 -0.6275  0.1543 -1.1062
19404SOL    HW160465   4.793   2.759   6.230  0.5316  1.1950  1.4828
19404SOL    HW260466   4.655   2.743   6.290  0.1629  0.5585  0.4918
19405SOL     OW60467   2.289   9.597   3.621  0.5923 -0.4703 -0.4782
19405SOL    HW160468   2.215   9.550   3.584  0.7878 -1.4778  0.3484
19405SOL    HW260469   2.316   9.544   3.696 -0.1882  1.7728  1.5174
19406SOL     OW60470   5.380  10.615   8.145 -0.5583 -0.2133  0.2501
19406SOL    HW160471   5.394  10.581   8.057  0.3318  0.1208  0.2529
19406SOL    HW260472   5.422  10.701   8.145  0.1164 -0.5231  1.2128
19407SOL     OW60473   1.495   2.215   1.639  0.2554 -0.2908  0.2511
19407SOL    HW160474   1.438   2.166   1.579 -0.2352  0.2197  0.2899
19407SOL    HW260475   1.444   2.293   1.663  1.2141  0.5034 -0.2025
19408SOL     OW60476  10.492   7.193   1.715 -0.6675  0.1703 -0.1242
19408SOL    HW160477  10.451   7.219   1.797 -1.1794  2.8471 -1.1381
19408SOL    HW260478  10.437   7.120   1.683 -0.6102 -0.7360  1.7071
19409SOL     OW60479   8.184   3.211   5.918  0.2769  0.1311 -0.0432
19409SOL    HW160480   8.183   3.116   5.931  1.3236  0.0237 -0.5813
19409SOL    HW260481   8.277   3.234   5.919 -0.0103  1.4313  1.8167
19410SOL     OW60482   1.125   1.214   4.245  0.0093  0.2844  0.1825
19410SOL    HW160483   1.065   1.287   4.259  0.3503  0.2878  1.9519
19410SOL    HW260484   1.170   1.204   4.329 -0.3453 -2.2441  0.1637
19411SOL     OW60485   7.911   7.997   7.748 -0.2578 -0.6573 -0.0946
19411SOL    HW160486   7.988   8.011   7.693 -1.8880  1.2633 -2.0805
19411SOL    HW260487   7.883   7.907   7.728 -0.6874 -0.0767 -2.3508
19412SOL     OW60488   9.921   5.124   7.939 -0.2007  0.7184  0.1565
19412SOL    HW160489   9.870   5.139   8.018  0.9950 -0.9297  1.2950
19412SOL    HW260490   9.860   5.082   7.879 -0.4049 -0.6041  1.2502
19413SOL     OW60491   4.401   5.739   8.660 -0.2711 -0.0041 -0.5335
19413SOL    HW160492   4.396   5.803   8.731  0.0373  0.6414 -1.0793
19413SOL    HW260493   4.354   5.663   8.693 -0.3515  0.3786  0.2627
19414SOL     OW60494   0.208   5.516   9.883 -0.2542 -0.3897  0.5916
19414SOL    HW160495   0.220   5.555   9.969  1.1417  0.7713 -0.0902
19414SOL    HW260496   0.165   5.432   9.901  0.0371 -0.1978  2.4097
19415SOL     OW60497   3.757   2.494   0.574 -0.3017  0.1427 -0.2812
19415SOL    HW160498   3.727   2.432   0.640 -0.2351 -0.4597 -0.8016
19415SOL    HW260499   3.853   2.485   0.575 -0.3521 -0.7724 -1.2871
19416SOL     OW60500   9.359   5.789   0.972 -0.5768 -0.3515  0.4772
19416SOL    HW160501   9.295   5.812   1.039  0.1257 -0.5057  1.2083
19416SOL    HW260502   9.376   5.872   0.926 -3.2656 -0.7619 -1.5218
19417SOL     OW60503   6.942   5.477   1.228  0.4500 -0.0881 -0.1668
19417SOL    HW160504   6.896   5.561   1.228 -1.8648 -1.2290  1.7798
19417SOL    HW260505   6.947   5.453   1.136 -1.5906  0.8358 -0.5819
19418SOL     OW60506   7.712   8.836   8.159 -0.4270 -0.1306  0.7373
19418SOL    HW160507   7.637   8.895   8.152 -0.6260 -0.4202  0.4122
19418SOL    HW260508   7.782   8.891   8.194 -0.9176  0.0268  1.4892
19419SOL     OW60509   6.375   0.445   6.912  0.4454 -0.0117  0.3242
19419SOL    HW160510   6.355   0.357   6.944  0.0872 -0.5132 -1.2156
19419SOL    HW260511   6.341   0.503   6.980 -0.4541 -1.0316  0.7804
19420SOL     OW60512   8.932   2.610   6.149 -0.2437  0.1064  0.5701
19420SOL    HW160513   8.972   2.696   6.160  1.6264 -0.7076  0.6950
19420SOL    HW260514   8.963   2.560   6.224 -1.8478 -0.4940  0.8528
19421SOL     OW60515  10.465   2.505   3.404 -0.2388 -0.1963 -0.3891
19421SOL    HW160516  10.442   2.505   3.497  0.4880 -0.7532 -0.1971
19421SOL    HW260517  10.420   2.428   3.368 -1.1550  0.4578 -0.6752
19422SOL     OW60518   6.137   3.051   4.480 -0.9418 -0.1934 -0.1276
19422SOL    HW160519   6.131   3.145   4.495  0.1616  0.3285 -2.4252
19422SOL    HW260520   6.218   3.040   4.429  0.5341 -2.7551  2.4350
19423SOL     OW60521   0.945   6.849   0.586 -0.3194  0.9331 -0.1607
19423SOL    HW160522   1.026   6.800   0.572 -1.3537 -0.7884 -0.3692
19423SOL    HW260523   0.969   6.918   0.648  0.8182 -0.9798  1.6432
19424SOL     OW60524  10.558   0.843   1.688 -0.0570 -0.4892 -0.2430
19424SOL    HW160525  10.478   0.790   1.681 -0.7908  0.5583 -0.0778
19424SOL    HW260526  10.527   0.933   1.680  0.9760 -0.0040  0.9188
19425SOL     OW60527   2.080  10.037   4.284 -0.2842 -0.0739  0.0912
19425SOL    HW160528   2.028  10.026   4.364 -0.1811  0.9625  0.3106
19425SOL    HW260529   2.015  10.038   4.213 -0.7647  2.6456  0.4719
19426SOL     OW60530   8.559   7.807   1.349  0.0393  0.1542  0.0129
19426SOL    HW160531   8.550   7.716   1.375 -0.4691 -0.3941 -1.9094
19426SOL    HW260532   8.472   7.845   1.361 -0.5233 -0.4193 -1.8417
19427SOL     OW60533   1.504   4.537   2.789  0.6886  0.3595 -0.0388
19427SOL    HW160534   1.576   4.473   2.783  1.9735  1.5624  1.5073
19427SOL    HW260535   1.444   4.498   2.852  0.3798 -0.2761 -0.7099
19428SOL     OW60536   3.624   0.061   7.619 -0.2076  0.1448 -0.3448
19428SOL    HW160537   3.695   0.112   7.579  0.3208 -0.4482 -0.1764
19428SOL    HW260538   3.552   0.067   7.556 -0.7211  2.3861  0.3494
19429SOL     OW60539   5.364   8.879   7.670  0.4298  0.0764 -0.4411
19429SOL    HW160540   5.294   8.885   7.605  0.9877  0.1679 -1.0408
19429SOL    HW260541   5.341   8.944   7.736 -1.1222 -1.2760  0.4305
19430SOL     OW60542   2.894   7.527  10.396  0.0544  0.4368 -0.4726
19430SOL    HW160543   2.879   7.621  10.385 -2.8266  0.3787  1.8646
19430SOL    HW260544   2.809   7.487  10.381  0.5589 -1.4765  1.3343
19431SOL     OW60545   1.415   0.870   7.474 -0.0931  0.1580 -0.2226
19431SOL    HW160546   1.462   0.828   7.402 -1.5622 -2.0604  0.0018
19431SOL    HW260547   1.465   0.848   7.552 -0.6569 -0.9399 -0.1498
19432SOL     OW60548   5.253   9.820   3.131  0.4429  0.7063 -0.3352
19432SOL    HW160549   5.225   9.734   3.162 -1.5855  1.8601  1.3142
19432SOL    HW260550   5.342   9.806   3.098  0.3637 -1.8947  0.3517
19433SOL     OW60551   7.726   2.101   9.721 -0.6905 -0.4895 -0.1234
19433SOL    HW160552   7.809   2.144   9.740 -0.1802 -0.7129 -1.7021
19433SOL    HW260553   7.730   2.019   9.771 -0.4631  0.0191  0.7026
19434SOL     OW60554   7.974   4.328   6.785 -0.3987 -0.6546 -0.3481
19434SOL    HW160555   7.884   4.351   6.811  0.0491  1.5413 -0.5334
19434SOL    HW260556   8.024   4.334   6.866  0.1872  1.7413 -0.8210
19435SOL     OW60557   0.521   7.079   0.548  0.6546  0.0637 -0.2142
19435SOL    HW160558   0.548   7.170   0.560 -1.4231  0.5994  0.8820
19435SOL    HW260559   0.459   7.082   0.476 -0.6427 -0.1853  0.8607
19436SOL     OW60560   1.634   9.527   2.454 -0.2928 -1.0398  0.0818
19436SOL    HW160561   1.712   9.529   2.510 -0.5251 -1.4748  0.4297
19436SOL    HW260562   1.567   9.573   2.505 -0.1935 -0.4214 -0.3346
19437SOL     OW60563   6.833   9.110   6.765 -0.2736  0.1539  0.5298
19437SOL    HW160564   6.887   9.035   6.789  0.6816 -0.3202 -2.6466
19437SOL    HW260565   6.881   9.185   6.799  0.5123 -0.4728  0.8518
19438SOL     OW60566   1.212   7.164   3.388  0.2044 -0.6762  0.5704
19438SOL    HW160567   1.261   7.178   3.307 -1.3971  1.2714 -0.1606
19438SOL    HW260568   1.247   7.229   3.449 -0.1808 -0.5339  0.6464
19439SOL     OW60569   6.979   1.662   8.502 -0.0520 -0.0018  0.3874
19439SOL    HW160570   6.989   1.579   8.454 -0.7676 -0.0457  0.3030
19439SOL    HW260571   7.063   1.674   8.546  0.3108 -0.4096 -0.1724
19440SOL     OW60572   8.002   0.287   7.365  0.5724  0.6992 -0.6078
19440SOL    HW160573   7.916   0.284   7.322  0.3209  1.8518 -0.2254
19440SOL    HW260574   8.023   0.196   7.383  0.7830  0.1368 -3.3192
19441SOL     OW60575  10.475   4.934   4.202  0.3262 -0.2473 -0.1759
19441SOL    HW160576  10.566   4.921   4.175  0.6370  1.3148  0.0264
19441SOL    HW260577  10.434   4.975   4.126  0.0904  0.1266  0.1527
19442SOL     OW60578   3.870   3.803   9.503 -0.2031  0.0243 -0.7073
19442SOL    HW160579   3.905   3.862   9.436  0.6522  0.7939  0.3760
19442SOL    HW260580   3.947   3.761   9.540 -0.6704 -0.4520 -0.2685
19443SOL     OW60581   7.010   6.739   7.189 -0.4391 -0.1349  0.1560
19443SOL    HW160582   6.980   6.682   7.260 -0.4991 -0.2498  0.0383
19443SOL    HW260583   6.990   6.828   7.219 -0.1833 -0.1636  0.4161
19444SOL     OW60584   3.497   7.908   1.366 -0.1566  0.6742 -0.1284
19444SOL    HW160585   3.484   8.002   1.371 -0.3705  0.6829 -0.7839
19444SOL    HW260586   3.409   7.872   1.359 -0.0452  0.4780 -0.5892
19445SOL     OW60587   5.387   2.807   6.349 -0.1677 -0.4713  0.3565
19445SOL    HW160588   5.374   2.732   6.407 -1.1411  0.0419  0.8393
19445SOL    HW260589   5.299   2.843   6.338  0.3511  0.8929  0.5363
19446SOL     OW60590   6.596   0.258   9.115  0.4988 -0.6258  0.1542
19446SOL    HW160591   6.638   0.264   9.030  0.6396  0.7307  0.2919
19446SOL    HW260592   6.636   0.182   9.157  1.9909 -0.0481 -0.1663
19447SOL     OW60593   8.882   3.476   1.258 -0.4902  0.3331 -0.3837
19447SOL    HW160594   8.850   3.498   1.345 -3.5755 -1.7675 -0.8198
19447SOL    HW260595   8.959   3.421   1.273 -0.7467  0.3288  0.9954
19448SOL     OW60596   5.501   8.384   6.042  0.3412 -0.4793  0.3283
19448SOL    HW160597   5.418   8.340   6.058 -1.1179  2.0577  0.1952
19448SOL    HW260598   5.547   8.380   6.126 -0.2924 -1.1110  0.6566
19449SOL     OW60599   3.595   1.999  10.100  0.3739 -0.3014  0.5212
19449SOL    HW160600   3.588   1.973  10.192  0.1753  0.3243  0.6921
19449SOL    HW260601   3.623   1.920  10.054  0.6218 -0.5835  1.1452
19450SOL     OW60602   1.870   3.575  10.459 -0.6032 -0.1028 -0.3480
19450SOL    HW160603   1.807   3.645  10.439  0.1552  0.6607 -0.1413
19450SOL    HW260604   1.869   3.520  10.381 -2.1283 -0.5821 -0.0223
19451SOL     OW60605   9.397   2.568   4.388  0.1743  0.3194  0.1154
19451SOL    HW160606   9.440   2.513   4.454  0.7375  1.5089  0.7550
19451SOL    HW260607   9.468   2.597   4.331 -0.5049 -2.1621 -2.1982
19452SOL     OW60608   6.624   7.882   2.782 -0.7284  0.4926  0.5446
19452SOL    HW160609   6.641   7.863   2.690 -0.9756  2.0421  0.1441
19452SOL    HW260610   6.630   7.977   2.788  1.4155  0.3194  2.5789
19453SOL     OW60611   3.758   0.703   3.338  0.4226  0.1202 -0.2313
19453SOL    HW160612   3.678   0.710   3.392 -1.1954 -1.6219 -2.2376
19453SOL    HW260613   3.762   0.787   3.292 -3.2541 -1.2984 -3.7911
19454SOL     OW60614   5.835   4.308   4.294  0.5018 -0.5177 -0.3830
19454SOL    HW160615   5.931   4.312   4.298  0.4331  2.2755  0.0731
19454SOL    HW260616   5.816   4.300   4.201  1.1501 -1.6619 -0.4440
19455SOL     OW60617   3.710   2.292   0.794 -0.3452  0.2076  0.1826
19455SOL    HW160618   3.626   2.246   0.796  0.0540 -0.5269  0.2199
19455SOL    HW260619   3.756   2.262   0.872  2.2121 -3.7603 -2.4708
19456SOL     OW60620   1.765   6.456   6.489  0.2458  0.7486 -0.0985
19456SOL    HW160621   1.814   6.497   6.560  0.8938  1.1262 -0.7526
19456SOL    HW260622   1.768   6.520   6.417  0.2170  0.0749 -0.7156
19457SOL     OW60623   3.508   5.620   0.246 -0.4925 -0.5406 -0.0020
19457SOL    HW160624   3.520   5.557   0.317 -0.8197 -1.1960 -0.5142
19457SOL    HW260625   3.414   5.618   0.228 -0.4394 -0.2363 -0.3226
19458SOL     OW60626  10.430   8.593   9.734  0.3873 -0.0458 -0.3835
19458SOL    HW160627  10.381   8.592   9.652  0.4169 -1.0277 -0.3931
19458SOL    HW260628  10.485   8.515   9.731  1.2343  0.5224  0.0632
19459SOL     OW60629   8.011   0.876   8.937 -0.1842  0.0130  0.1611
19459SOL    HW160630   7.957   0.951   8.961 -0.9451 -0.7466  0.8656
19459SOL    HW260631   8.055   0.903   8.856 -0.2192  1.3174  0.5724
19460SOL     OW60632   0.241   0.476   0.059 -0.1781 -0.2819  1.0333
19460SOL    HW160633   0.153   0.513   0.057 -0.7113 -1.4599  1.5235
19460SOL    HW260634   0.253   0.448   0.150  0.6044 -0.3500  0.9154
19461SOL     OW60635   5.633   0.807   3.789 -0.5063  0.5371  0.5226
19461SOL    HW160636   5.569   0.759   3.842 -1.1635 -2.0497 -2.3636
19461SOL    HW260637   5.717   0.773   3.818 -0.7716  0.0130  0.7034
19462SOL     OW60638   4.003   8.264   9.436 -0.8183  0.2084 -0.3406
19462SOL    HW160639   3.925   8.222   9.472 -0.4560  0.6910  1.0574
19462SOL    HW260640   3.970   8.346   9.399 -0.9969  0.3860  0.1933
19463SOL     OW60641   6.748   1.879   2.555  0.0973 -0.2017 -0.0414
19463SOL    HW160642   6.672   1.935   2.535 -0.7692 -1.2726  0.1495
19463SOL    HW260643   6.806   1.935   2.607 -1.8180 -0.1119  2.1705
19464SOL     OW60644   3.761   0.232   1.448 -0.2823 -0.6275  0.0605
19464SOL    HW160645   3.771   0.317   1.407  0.9503 -0.6074  0.3552
19464SOL    HW260646   3.695   0.187   1.396 -0.9410  0.5009 -0.0938
19465SOL     OW60647   0.251   5.558   4.419 -0.2327 -0.1562  0.0399
19465SOL    HW160648   0.169   5.549   4.370  0.3525 -1.8382 -0.7144
19465SOL    HW260649   0.242   5.640   4.467 -1.6643  0.5395 -1.3425
19466SOL     OW60650   5.645   9.289   8.716 -0.5828  0.0244 -0.2359
19466SOL    HW160651   5.684   9.323   8.635  0.1149 -0.2089 -0.0022
19466SOL    HW260652   5.661   9.358   8.780 -1.0046  0.1439 -0.2586
19467SOL     OW60653   3.349   6.915   1.439  0.0256 -0.3639 -0.5726
19467SOL    HW160654   3.348   6.874   1.353  1.4442  0.0142 -0.8029
19467SOL    HW260655   3.279   6.980   1.436 -1.0760 -1.5260 -0.8180
19468SOL     OW60656   8.867   1.604   0.550  0.1877  0.3044  0.1247
19468SOL    HW160657   8.887   1.511   0.536  1.5876  0.5090  0.7135
19468SOL    HW260658   8.773   1.604   0.570  0.1054 -0.9487 -0.1305
19469SOL     OW60659   1.830   2.990   5.770 -0.4886 -0.1764 -0.0298
19469SOL    HW160660   1.791   3.038   5.697  1.6493  1.5352 -0.1381
19469SOL    HW260661   1.758   2.937   5.805 -1.9539  0.1478 -2.3740
19470SOL     OW60662   5.672   2.795   7.738 -0.3345  0.0749  0.1247
19470SOL    HW160663   5.698   2.859   7.672 -1.2271 -2.8688 -3.4998
19470SOL    HW260664   5.750   2.741   7.751  0.1767  1.2950  2.5024
19471SOL     OW60665   9.913   2.145   6.979  0.1989 -0.1696 -0.3076
19471SOL    HW160666   9.946   2.211   7.040  1.2492  1.3350 -2.3937
19471SOL    HW260667   9.986   2.130   6.918 -1.4273 -0.1303 -2.3623
19472SOL     OW60668   4.953   7.819   5.319  0.1797  0.3502 -0.7980
19472SOL    HW160669   5.015   7.775   5.262 -0.8688 -0.4211 -1.3723
19472SOL    HW260670   4.927   7.753   5.383  0.5424  0.9009 -0.0704
19473SOL     OW60671   8.456   6.581   5.924  0.2865  0.5675  0.2151
19473SOL    HW160672   8.520   6.601   5.856  1.1176  0.3783  0.9214
19473SOL    HW260673   8.472   6.490   5.947  2.7172  1.5822  3.3484
19474SOL     OW60674   2.826   4.643   1.630 -0.8950 -0.3177 -0.3669
19474SOL    HW160675   2.803   4.605   1.715 -0.1081  1.2151  0.5848
19474SOL    HW260676   2.754   4.618   1.572 -1.9686 -0.5557  1.0180
19475SOL     OW60677   5.376   3.080   4.524 -0.3116 -0.2508 -0.0670
19475SOL    HW160678   5.446   3.069   4.460 -0.1640 -2.7356  0.4550
19475SOL    HW260679   5.417   3.125   4.597  0.2588 -0.0533 -0.4983
19476SOL     OW60680   1.907   5.775   8.036  0.1235  0.3403  0.1820
19476SOL    HW160681   1.926   5.682   8.046 -2.0524 -0.0370  1.2925
19476SOL    HW260682   1.884   5.785   7.943  2.4069  0.2478 -0.4618
19477SOL     OW60683   8.678   2.027   8.964 -0.2032 -0.3519  0.1602
19477SOL    HW160684   8.596   2.042   9.011 -0.4094 -0.1115 -0.2678
19477SOL    HW260685   8.665   1.943   8.920 -1.2463  0.8238 -1.9859
19478SOL     OW60686   3.582   9.524   2.398  0.5973  0.1555  0.3648
19478SOL    HW160687   3.629   9.540   2.316 -0.8053  0.1927 -0.4653
19478SOL    HW260688   3.649   9.493   2.458  1.8535  1.1008 -0.4934
19479SOL     OW60689  10.630   8.817   1.881 -0.5121  0.4600  0.0691
19479SOL    HW160690  10.539   8.789   1.877 -0.4838 -0.2454  2.5808
19479SOL    HW260691  10.679   8.744   1.843 -0.8856  0.1589  0.1582
19480SOL     OW60692   6.018   4.608   6.752 -0.1447 -0.1110 -0.5206
19480SOL    HW160693   6.003   4.702   6.764 -1.5039 -0.3625 -0.0674
19480SOL    HW260694   5.954   4.581   6.686  1.2113 -0.4714 -1.7405
19481SOL     OW60695   4.212   8.537   3.520 -0.7809  0.7485 -0.2863
19481SOL    HW160696   4.240   8.567   3.434 -0.8238  1.5869 -0.0091
19481SOL    HW260697   4.263   8.588   3.582  0.1575 -0.7105  0.2063
19482SOL     OW60698   5.410   7.606   4.010  0.1592 -1.0548  0.5521
19482SOL    HW160699   5.432   7.628   3.919  1.1085 -0.8567  0.8132
19482SOL    HW260700   5.336   7.546   4.003 -0.4393 -0.2375 -0.3030
19483SOL     OW60701   7.248   3.281   5.251  0.3293 -0.0810  0.0859
19483SOL    HW160702   7.211   3.226   5.182 -0.0129 -0.8950  0.8932
19483SOL    HW260703   7.188   3.355   5.258 -0.8650 -1.0919  0.9789
19484SOL     OW60704   3.126   8.705   4.356 -0.1429  0.1626 -0.0311
19484SOL    HW160705   3.101   8.663   4.438 -0.2703  0.3059  0.0042
19484SOL    HW260706   3.049   8.693   4.299 -0.2907  0.6008  0.0746
19485SOL     OW60707   8.906   3.352   2.651 -0.4173 -0.5270 -0.2902
19485SOL    HW160708   8.953   3.416   2.704 -1.6460 -0.2936  0.5785
19485SOL    HW260709   8.910   3.386   2.562  0.3871 -0.1270 -0.1090
19486SOL     OW60710   5.252   9.302   7.841  0.1824 -0.1917  0.3501
19486SOL    HW160711   5.326   9.272   7.789  0.7307 -0.3395  1.1965
19486SOL    HW260712   5.265   9.262   7.927 -0.5547  0.2704  0.6864
19487SOL     OW60713   4.501  10.379   9.946 -0.0320  0.1501  0.2617
19487SOL    HW160714   4.429  10.430   9.908  0.3240  0.4032 -0.0717
19487SOL    HW260715   4.579  10.410   9.901  0.3842  0.3684  1.1253
19488SOL     OW60716  10.525   4.231   4.706  0.1878 -0.4176 -0.4324
19488SOL    HW160717  10.619   4.238   4.727  0.2334  0.3218 -0.8524
19488SOL    HW260718  10.494   4.321   4.705 -0.4064 -0.6208 -0.8711
19489SOL     OW60719   8.957   6.431   8.055 -0.4957 -0.8100  0.0494
19489SOL    HW160720   8.939   6.509   8.003  0.2616 -1.0374 -0.5615
19489SOL    HW260721   8.973   6.362   7.991  0.9306 -0.9853  0.5631
19490SOL     OW60722   9.017   2.064   3.908  0.3411  0.0963  0.2269
19490SOL    HW160723   8.985   2.129   3.846 -0.3211 -0.3524  0.0810
19490SOL    HW260724   9.111   2.080   3.915  0.3498  0.4117 -0.5760
19491SOL     OW60725   3.476   2.220   4.420 -0.2120 -0.1705  0.1351
19491SOL    HW160726   3.418   2.158   4.465 -1.4438  0.6151 -0.3072
19491SOL    HW260727   3.488   2.291   4.483  1.9722 -1.2199  1.0149
19492SOL     OW60728   3.410   3.151   6.308 -0.7066 -0.2868 -0.2143
19492SOL    HW160729   3.444   3.148   6.398 -1.3797  2.5628  0.2436
19492SOL    HW260730   3.320   3.121   6.315 -0.4873 -0.9265 -0.1060
19493SOL     OW60731   9.513   6.670   2.131  0.0235 -0.1589  0.3484
19493SOL    HW160732   9.559   6.682   2.048 -1.1590 -0.0703 -0.3010
19493SOL    HW260733   9.481   6.580   2.128 -1.9402  0.5094 -0.2996
19494SOL     OW60734   0.865   8.353   7.309 -0.0330  0.1506  0.0952
19494SOL    HW160735   0.897   8.422   7.367 -0.6855  0.0893  0.5405
19494SOL    HW260736   0.944   8.310   7.276  0.3388 -0.3410  1.5840
19495SOL     OW60737   4.861   7.117   2.191  0.1354  0.6798 -0.2143
19495SOL    HW160738   4.897   7.132   2.279 -0.6216  2.1098 -0.1212
19495SOL    HW260739   4.853   7.204   2.153 -1.2998  0.2392 -0.9945
19496SOL     OW60740   8.426   7.046   1.707  0.4556  0.4231  0.5631
19496SOL    HW160741   8.451   6.963   1.666 -0.9353 -0.8074  2.0724
19496SOL    HW260742   8.502   7.070   1.760  0.9911  0.2897 -0.1306
19497SOL     OW60743   6.469   2.061   8.392  0.6029  0.1163 -0.2766
19497SOL    HW160744   6.479   2.058   8.297  1.2423  0.6046 -0.2299
19497SOL    HW260745   6.474   1.969   8.419 -0.8482 -0.1505 -0.8214
19498SOL     OW60746   6.929   4.587   9.780 -0.1102 -0.1107 -0.1097
19498SOL    HW160747   6.875   4.573   9.858 -0.6069 -1.3979 -0.6434
19498SOL    HW260748   6.985   4.510   9.775 -0.2467 -0.1679 -1.1385
19499SOL     OW60749   2.602   1.632   6.977  0.5132 -0.0675  0.6401
19499SOL    HW160750   2.605   1.546   7.019  0.6642 -0.4076 -0.0535
19499SOL    HW260751   2.657   1.687   7.032 -0.9156  0.0390  2.0505
19500SOL     OW60752   2.199   3.152  10.017 -0.3323  0.2901 -0.1185
19500SOL    HW160753   2.204   3.245  10.037  0.1622  0.4482 -0.9383
19500SOL    HW260754   2.139   3.146   9.943 -1.4742 -0.2013  0.8035
19501SOL     OW60755   0.987   7.415   6.720  0.2963 -0.3083  0.2747
19501SOL    HW160756   1.026   7.394   6.635 -1.0593 -1.0342 -0.1968
19501SOL    HW260757   0.947   7.501   6.708 -1.0505 -0.9899 -0.2521
19502SOL     OW60758   8.250   9.992   5.754 -0.5951  0.0790  0.0764
19502SOL    HW160759   8.300  10.047   5.693 -0.4305  0.4077  0.5049
19502SOL    HW260760   8.230   9.913   5.703  2.4726 -1.1923  0.5735
19503SOL     OW60761   3.784  10.069   1.579  0.3696  0.4708  0.6328
19503SOL    HW160762   3.866  10.044   1.622  0.5018 -0.0849  0.0640
19503SOL    HW260763   3.720  10.005   1.610  0.2906  0.5343  0.6005
19504SOL     OW60764   7.471   6.401   3.857 -0.8120 -0.4395 -0.5990
19504SOL    HW160765   7.513   6.475   3.813 -4.2296  0.3991 -2.7819
19504SOL    HW260766   7.471   6.331   3.791  1.6635 -2.3129  1.1668
19505SOL     OW60767   8.546   2.413   7.291 -0.4042 -0.4951  0.2237
19505SOL    HW160768   8.581   2.358   7.220 -1.9085 -3.6570  1.7394
19505SOL    HW260769   8.457   2.434   7.263  0.4896  2.4381 -0.8763
19506SOL     OW60770   4.079   7.774   3.767  0.0156  1.1475 -0.2379
19506SOL    HW160771   4.033   7.825   3.833  0.0515  2.1285 -0.9528
19506SOL    HW260772   4.171   7.795   3.780  0.2950 -0.6568  1.0581
19507SOL     OW60773   6.287  10.388   7.989 -0.1160 -0.5462 -0.5099
19507SOL    HW160774   6.330  10.467   8.019 -1.1515 -0.2421  0.2386
19507SOL    HW260775   6.300  10.325   8.060 -1.2120 -0.3246 -0.0922
19508SOL     OW60776   1.184   9.887   3.102  0.0014 -0.1484  0.1036
19508SOL    HW160777   1.273   9.879   3.067 -0.6701 -1.5842 -1.3940
19508SOL    HW260778   1.157   9.976   3.078  0.5977 -0.1383 -0.5546
19509SOL     OW60779   9.368   5.883   4.252  0.2485  0.2731  0.3368
19509SOL    HW160780   9.337   5.939   4.181 -0.4914  0.2384  0.6226
19509SOL    HW260781   9.304   5.812   4.256  0.3347  0.2260  0.9737
19510SOL     OW60782   3.087   1.560   3.430  0.4503  0.0163 -0.8523
19510SOL    HW160783   3.000   1.568   3.468 -0.4283  1.1369 -2.9462
19510SOL    HW260784   3.128   1.645   3.445 -0.2375  0.7926 -3.0529
19511SOL     OW60785   2.201  10.280   4.362  0.2230  0.0160 -0.1159
19511SOL    HW160786   2.162  10.193   4.349 -0.5715  0.4485 -0.7148
19511SOL    HW260787   2.244  10.300   4.279  0.0779  0.3573 -0.1095
19512SOL     OW60788   5.075   2.056   3.091 -0.4995  0.3189  0.4702
19512SOL    HW160789   5.072   1.978   3.036 -0.5057 -0.9245  2.1553
19512SOL    HW260790   5.092   2.128   3.030 -2.0573 -0.7565 -1.3329
19513SOL     OW60791  10.055  10.648   9.634 -0.4509  0.1372 -0.4788
19513SOL    HW160792  10.140  10.661   9.677 -0.5094 -0.8853 -0.0091
19513SOL    HW260793  10.053  10.555   9.614 -1.6734  0.0495 -0.0186
19514SOL     OW60794   3.340   5.269   0.087  0.3823  0.1517 -0.4377
19514SOL    HW160795   3.367   5.194   0.141  0.3479 -0.5419 -1.3641
19514SOL    HW260796   3.360   5.243  -0.003 -1.0350  0.6347 -0.9185
19515SOL     OW60797   6.429   2.947   3.934 -0.9123 -0.1977  0.5035
19515SOL    HW160798   6.394   2.954   3.845 -0.0146 -0.6397  0.1002
19515SOL    HW260799   6.484   3.025   3.945  0.6732 -1.1668 -0.1353
19516SOL     OW60800   9.687   5.108   4.886 -0.6177 -0.2734  0.3227
19516SOL    HW160801   9.674   5.076   4.797  0.4776 -0.0108  0.0502
19516SOL    HW260802   9.650   5.196   4.886  1.3350  0.6065 -0.5363
19517SOL     OW60803   8.179   6.886   0.903 -0.0264  0.3020 -0.1975
19517SOL    HW160804   8.261   6.843   0.877 -0.5117  0.0015 -1.2885
19517SOL    HW260805   8.119   6.815   0.920 -0.6358  0.5194 -1.3438
19518SOL     OW60806   5.969   3.545   2.655 -0.3196 -0.0772 -0.8663
19518SOL    HW160807   5.980   3.639   2.638  1.1069 -0.2385 -0.9604
19518SOL    HW260808   6.015   3.502   2.583  0.4678 -0.8220  0.0548
19519SOL     OW60809   2.310   5.202   8.223  0.4599 -0.3783  0.3489
19519SOL    HW160810   2.249   5.149   8.274 -1.8409  0.8131 -0.9934
19519SOL    HW260811   2.351   5.140   8.162  0.1733 -1.1022  0.8731
19520SOL     OW60812  10.340   9.749   5.284  0.4070 -0.1243 -0.0931
19520SOL    HW160813  10.337   9.707   5.370  0.2925  0.8917  0.4088
19520SOL    HW260814  10.410   9.814   5.291  0.0863  0.2884 -0.6233
19521SOL     OW60815   7.530  10.000   4.239  0.0300 -0.2090 -0.5307
19521SOL    HW160816   7.617  10.019   4.205 -0.0806 -0.1417 -0.7777
19521SOL    HW260817   7.470  10.033   4.172 -0.2253  1.3367  0.4056
19522SOL     OW60818   4.749   9.334   0.118  0.2715 -0.4149  0.3210
19522SOL    HW160819   4.727   9.311   0.209  1.1956 -1.1298  0.3788
19522SOL    HW260820   4.823   9.277   0.096 -1.1221 -1.6443 -1.5302
19523SOL     OW60821   9.450   1.202   7.136 -0.2230 -0.5722 -0.1295
19523SOL    HW160822   9.448   1.192   7.231  0.3978 -0.0216 -0.0566
19523SOL    HW260823   9.358   1.207   7.111 -0.3909  1.6251  0.7003
19524SOL     OW60824   5.418   8.996   0.823 -0.2239  0.0898  0.7165
19524SOL    HW160825   5.500   8.956   0.852  0.1923  0.8154  0.5843
19524SOL    HW260826   5.410   8.972   0.731 -0.6949 -0.8354  0.9867
19525SOL     OW60827   3.567   6.736   9.392  0.2515 -0.0130  1.0315
19525SOL    HW160828   3.538   6.791   9.318 -1.2299  0.1370  1.6823
19525SOL    HW260829   3.580   6.650   9.354 -0.5594  0.0466  0.5878
19526SOL     OW60830   8.156   7.341  10.151 -0.1142 -0.5685  0.0034
19526SOL    HW160831   8.070   7.377  10.172 -0.6760 -1.0388 -1.3834
19526SOL    HW260832   8.138   7.270  10.089  1.3887  0.4944 -1.7277
19527SOL     OW60833   2.616   8.042   6.728 -0.3800  0.0762  0.2050
19527SOL    HW160834   2.701   8.025   6.688 -0.7878 -3.6484  0.5644
19527SOL    HW260835   2.582   8.118   6.680  1.5410 -0.6624 -2.6017
19528SOL     OW60836  10.144   9.889   2.766 -0.2791  0.5309 -0.2810
19528SOL    HW160837  10.090   9.873   2.689 -1.4246 -0.9520  0.7691
19528SOL    HW260838  10.221   9.834   2.753 -0.3558  0.4727 -0.4965
19529SOL     OW60839   8.423   7.530   0.067 -0.1067  0.6863  0.1011
19529SOL    HW160840   8.341   7.524   0.117 -0.2372 -1.3420 -0.2557
19529SOL    HW260841   8.401   7.496  -0.019  1.0787  0.2245 -0.0363
19530SOL     OW60842   2.978   1.290   6.210 -0.1884 -0.2272 -0.2823
19530SOL    HW160843   2.952   1.288   6.118 -1.6391 -2.9165  0.0828
19530SOL    HW260844   2.898   1.268   6.258  1.1799 -1.7977  1.4099
19531SOL     OW60845   6.422   0.280   2.106  0.4281 -0.7981 -0.0914
19531SOL    HW160846   6.431   0.192   2.067  0.4067 -1.7661  1.9745
19531SOL    HW260847   6.367   0.267   2.183  1.1936  0.8691  0.7806
19532SOL     OW60848   0.599   5.400   7.674 -0.0435 -0.7528 -0.1815
19532SOL    HW160849   0.638   5.345   7.607 -2.8013 -2.5525 -0.4459
19532SOL    HW260850   0.525   5.442   7.631  0.2114  0.8442  0.8467
19533SOL     OW60851   2.303   0.277   8.913 -0.2978  0.3928 -1.0320
19533SOL    HW160852   2.363   0.215   8.954 -0.6248  1.8564  1.9950
19533SOL    HW260853   2.349   0.308   8.836  1.5166 -0.7476 -0.4574
19534SOL     OW60854   6.422   8.529   5.296  0.6195  0.1544 -0.1114
19534SOL    HW160855   6.387   8.447   5.331 -1.5109  0.2316 -1.8201
19534SOL    HW260856   6.384   8.535   5.208  2.8555  1.6895 -1.0633
19535SOL     OW60857   1.982   8.477   3.082 -0.4487  0.1705  0.0191
19535SOL    HW160858   1.974   8.564   3.044 -1.8296  0.3520  0.6742
19535SOL    HW260859   2.054   8.485   3.145 -0.4747  0.8001 -0.0274
19536SOL     OW60860   0.176   9.274   6.155  0.3439  0.5705  0.3142
19536SOL    HW160861   0.168   9.271   6.060  1.7849  0.8988  0.1487
19536SOL    HW260862   0.240   9.206   6.176 -3.0201 -2.5169  1.5440
19537SOL     OW60863   7.355   3.473   7.473 -0.2441  0.4209 -0.3050
19537SOL    HW160864   7.271   3.505   7.439  0.5682  1.2132 -1.6340
19537SOL    HW260865   7.389   3.546   7.525  0.0473  0.4536 -0.5387
19538SOL     OW60866   3.006   4.128   0.131  0.4051 -0.2040 -0.5852
19538SOL    HW160867   3.003   4.203   0.072  0.0409 -0.6527 -1.1599
19538SOL    HW260868   2.918   4.090   0.126  0.6348 -0.7706 -0.4507
19539SOL     OW60869   3.340   0.284   0.057  0.1116 -0.0754  0.2179
19539SOL    HW160870   3.297   0.369   0.049  3.0916  1.4472 -1.1314
19539SOL    HW260871   3.360   0.276   0.150 -0.1571  0.7452  0.3562
19540SOL     OW60872   0.471   9.996   7.240  0.1422 -0.3465 -0.4383
19540SOL    HW160873   0.489  10.068   7.180  0.0826 -0.6645 -0.8415
19540SOL    HW260874   0.400   9.947   7.198  0.1734 -0.6339 -0.1600
19541SOL     OW60875   3.215   5.629   0.268 -0.2623 -0.2697 -0.2093
19541SOL    HW160876   3.190   5.610   0.177 -2.2812  1.0263  0.0031
19541SOL    HW260877   3.178   5.558   0.319 -1.9503  0.6182 -0.1167
19542SOL     OW60878   8.685   9.201   9.143  0.0194 -0.3574  0.1392
19542SOL    HW160879   8.766   9.154   9.125  0.5374 -0.1090  1.7124
19542SOL    HW260880   8.651   9.163   9.224  0.4456  1.8932  1.4506
19543SOL     OW60881   2.285   0.653   2.512 -0.3268 -0.0979 -0.2208
19543SOL    HW160882   2.264   0.658   2.606  0.6798 -1.4460  0.0996
19543SOL    HW260883   2.200   0.645   2.469 -0.7136 -2.0874  0.7969
19544SOL     OW60884   0.128  10.502   4.793 -0.6996  0.0314 -0.4262
19544SOL    HW160885   0.178  10.581   4.769 -0.1987 -0.5579 -1.3896
19544SOL    HW260886   0.039  10.534   4.808 -0.0991  1.0899  1.2252
19545SOL     OW60887   1.568  10.554   9.296  0.0069 -0.2295 -0.0297
19545SOL    HW160888   1.505  10.626   9.300  0.6576  0.3526 -0.1164
19545SOL    HW260889   1.514  10.475   9.296 -0.6810  0.0466  4.1636
19546SOL     OW60890   7.661   3.972   1.266 -0.1367 -0.4598 -0.1161
19546SOL    HW160891   7.662   3.962   1.171 -0.9778  1.3325 -0.3581
19546SOL    HW260892   7.738   4.024   1.285  1.6732 -3.2157  0.5785
19547SOL     OW60893   2.607   7.400   6.349  0.3602 -0.2205 -0.0808
19547SOL    HW160894   2.665   7.331   6.381  0.4558 -1.3633 -2.5318
19547SOL    HW260895   2.621   7.473   6.410  2.8898 -1.1485  0.5732
19548SOL     OW60896   6.996   5.090   1.993 -0.7643 -0.2377  0.4760
19548SOL    HW160897   6.970   5.077   2.084  0.7511 -2.5059  0.6583
19548SOL    HW260898   6.919   5.064   1.942 -1.1518 -0.2710  1.0782
19549SOL     OW60899   6.319   3.439   7.615 -0.0806  0.2527 -0.1906
19549SOL    HW160900   6.225   3.452   7.606 -0.6569 -3.3415 -0.9064
19549SOL    HW260901   6.358   3.494   7.547 -1.4273  2.8772  0.9967
19550SOL     OW60902   4.873   6.875   3.574  0.1541  0.7063 -0.0670
19550SOL    HW160903   4.863   6.781   3.588  1.4252  0.9313  3.4354
19550SOL    HW260904   4.801   6.914   3.623  0.8491  1.5621  0.3034
19551SOL     OW60905  10.087   0.108   8.583 -0.4961 -0.4208 -0.1579
19551SOL    HW160906  10.072   0.064   8.500  0.9350 -0.1388 -0.5896
19551SOL    HW260907  10.106   0.038   8.645 -1.9520 -0.6608  0.0415
19552SOL     OW60908   8.951   4.386   9.342 -0.3363  0.2402 -0.0265
19552SOL    HW160909   8.904   4.330   9.404  1.0656 -0.3674  0.5314
19552SOL    HW260910   9.042   4.357   9.348  0.0895  1.2537 -1.2078
19553SOL     OW60911  10.654   0.591   1.607  0.3064  0.0518 -0.9545
19553SOL    HW160912  10.652   0.675   1.653  1.1265 -0.9740  1.0909
19553SOL    HW260913  10.747   0.571   1.597  0.1424  0.0515 -2.7912
19554SOL     OW60914   0.166   5.416   6.507 -0.0049  0.1613  0.2021
19554SOL    HW160915   0.181   5.333   6.553  2.2762  1.0984  1.2769
19554SOL    HW260916   0.142   5.389   6.418 -2.7001 -1.6503  1.3156
19555SOL     OW60917   0.550   9.019   5.779  0.0372 -0.0552 -0.3355
19555SOL    HW160918   0.485   8.958   5.743  1.2992 -1.1257 -0.8744
19555SOL    HW260919   0.523   9.031   5.870  0.3562 -2.3124  0.1232
19556SOL     OW60920  10.276   0.795  10.263 -0.5102 -0.4632  0.2428
19556SOL    HW160921  10.325   0.762  10.187 -0.2682 -0.8280  0.5527
19556SOL    HW260922  10.188   0.760  10.252 -0.4943 -0.4542  0.0906
19557SOL     OW60923   3.360   2.392   9.131 -0.0834  0.0940 -0.0190
19557SOL    HW160924   3.414   2.354   9.062  0.2257 -0.5028  0.5443
19557SOL    HW260925   3.289   2.437   9.085  1.3374  1.6200 -0.8160
19558SOL     OW60926   4.121   2.366   1.678  0.2111 -0.0347  0.3177
19558SOL    HW160927   4.204   2.327   1.707  0.7787 -3.0903 -4.2521
19558SOL    HW260928   4.147   2.434   1.616 -0.8537  2.1001  2.1037
19559SOL     OW60929   1.059  10.486   2.112 -0.1835  0.2508  0.3062
19559SOL    HW160930   1.053  10.581   2.126 -0.0280 -0.0474  2.9140
19559SOL    HW260931   0.969  10.455   2.124 -0.0914 -0.0164  0.3117
19560SOL     OW60932   9.844   7.119   2.980 -0.4791  0.0457 -0.3380
19560SOL    HW160933   9.788   7.041   2.968  0.4080 -0.9809  1.6533
19560SOL    HW260934   9.911   7.111   2.912  0.9879 -2.3133  1.2232
19561SOL     OW60935   8.023   1.998  10.142  0.3556 -0.6693  0.6072
19561SOL    HW160936   8.064   2.049  10.212 -0.9317  0.0823  0.8511
19561SOL    HW260937   7.972   2.062  10.092  0.2828 -1.4021 -0.2718
19562SOL     OW60938   9.586   8.867   3.317  0.4504 -0.2348 -0.1573
19562SOL    HW160939   9.663   8.824   3.354  0.7063  0.5654  0.2594
19562SOL    HW260940   9.621   8.927   3.251  0.1333 -0.2901 -0.3828
19563SOL     OW60941   2.157   3.010   6.599 -0.3435 -0.2855 -0.0188
19563SOL    HW160942   2.162   2.954   6.676 -0.6802  0.5107  0.5933
19563SOL    HW260943   2.234   3.067   6.605  0.1602 -0.8515 -0.7951
19564SOL     OW60944   5.806   9.564   4.010 -0.0495 -0.3518 -0.3175
19564SOL    HW160945   5.757   9.509   4.070  0.9607 -1.7559 -0.7079
19564SOL    HW260946   5.894   9.570   4.049 -0.0534  0.7299 -0.4487
19565SOL     OW60947   2.059   5.859  10.415 -0.4206  0.2347 -0.4416
19565SOL    HW160948   2.131   5.851  10.352 -1.4533 -1.2538 -1.4764
19565SOL    HW260949   2.057   5.775  10.460 -0.6553  0.7658  0.5750
19566SOL     OW60950   7.902   4.914   0.656 -0.3996  0.0425 -0.3630
19566SOL    HW160951   7.840   4.984   0.635  0.2452  0.4600 -0.9362
19566SOL    HW260952   7.866   4.873   0.734 -2.0677 -0.5438 -1.3713
19567SOL     OW60953   9.823   3.930   4.305 -0.3817 -0.4492  0.2650
19567SOL    HW160954   9.853   4.014   4.270 -0.4911 -0.2854  0.5575
19567SOL    HW260955   9.778   3.953   4.387 -1.7968 -0.6227 -0.4352
19568SOL     OW60956   0.616   1.838   4.763  0.0733 -0.4888  0.7112
19568SOL    HW160957   0.671   1.764   4.790 -1.3166 -1.5276  0.7722
19568SOL    HW260958   0.677   1.897   4.719  1.1750 -1.8330  0.3353
19569SOL     OW60959   3.018   1.834   8.281 -0.8464  0.2938  0.5095
19569SOL    HW160960   2.934   1.848   8.324 -1.5434 -1.0382 -0.3763
19569SOL    HW260961   2.996   1.798   8.195  0.6141  0.3686  0.0703
19570SOL     OW60962   3.340   4.467   7.598  0.0491 -0.8840  0.1090
19570SOL    HW160963   3.399   4.495   7.668 -0.6141 -2.1105  1.2013
19570SOL    HW260964   3.253   4.495   7.627 -0.1685 -0.8588 -0.5348
19571SOL     OW60965   4.564   0.602   6.976 -0.1660  0.1387 -0.1578
19571SOL    HW160966   4.610   0.634   7.054  1.7722  0.2362 -1.2955
19571SOL    HW260967   4.528   0.682   6.936 -2.0828 -0.0028  1.1056
19572SOL     OW60968   2.244   7.036   7.471 -0.0568  0.3557 -0.8081
19572SOL    HW160969   2.226   7.030   7.565  1.4855  1.2662 -0.4147
19572SOL    HW260970   2.237   7.129   7.451  1.2355  0.3920 -1.2050
19573SOL     OW60971  10.260   2.154   0.171 -0.4293  0.8576 -0.3941
19573SOL    HW160972  10.210   2.110   0.103  1.7762  0.2260 -1.7216
19573SOL    HW260973  10.197   2.168   0.242 -2.9447  1.9082 -2.6547
19574SOL     OW60974   7.597  10.206   0.007  0.0061 -0.4249  0.7694
19574SOL    HW160975   7.574  10.228   0.097  1.6210  1.6975  0.7768
19574SOL    HW260976   7.658  10.133   0.015  1.3535  0.7206  1.6057
19575SOL     OW60977   1.931   3.345   3.534  0.4256 -0.0814  0.0916
19575SOL    HW160978   2.017   3.388   3.540  0.3586  0.4721 -1.9694
19575SOL    HW260979   1.951   3.254   3.515  0.5399 -0.6501  2.5883
19576SOL     OW60980   1.722  10.265   1.460  0.4999 -0.4268 -0.5890
19576SOL    HW160981   1.710  10.230   1.548 -1.5474  1.2248 -0.1376
19576SOL    HW260982   1.779  10.341   1.472 -1.5793  1.1437 -0.2857
19577SOL     OW60983   2.851   5.955   0.621  0.1056 -0.6447 -0.2712
19577SOL    HW160984   2.847   5.988   0.710  1.4788 -0.3375 -0.3015
19577SOL    HW260985   2.896   6.024   0.572 -1.0881 -0.5836 -1.3152
19578SOL     OW60986   3.864   0.505   0.246 -0.1950  0.3678 -0.6461
19578SOL    HW160987   3.891   0.585   0.292 -0.0903  0.1517 -0.3261
19578SOL    HW260988   3.892   0.434   0.304 -0.2296  0.0971 -0.9609
19579SOL     OW60989   7.204   7.767   4.125  0.4116 -0.3994 -0.0405
19579SOL    HW160990   7.234   7.701   4.188  0.5261  0.6009  0.9910
19579SOL    HW260991   7.253   7.846   4.147 -1.6884  0.8317  0.5977
19580SOL     OW60992   3.189   0.410   9.006 -0.3750 -0.8178  0.7328
19580SOL    HW160993   3.223   0.346   8.944  3.8739 -1.0258  2.8533
19580SOL    HW260994   3.180   0.362   9.088 -0.2855  0.5726  1.5982
19581SOL     OW60995   9.300   7.116   4.524  0.1733 -0.3904  0.2672
19581SOL    HW160996   9.388   7.107   4.560 -0.2492  0.4189  1.5734
19581SOL    HW260997   9.244   7.071   4.586 -0.5172  0.5622  0.3484
19582SOL     OW60998   1.653   5.267  10.508  0.4257 -0.3133  0.9144
19582SOL    HW160999   1.719   5.213  10.551  1.7499 -0.1807 -0.8356
19582SOL    HW261000   1.571   5.219  10.521  1.1710 -1.5059  1.4443
19583SOL     OW61001   3.431   7.500   7.713 -0.0674  0.9703 -0.4711
19583SOL    HW161002   3.409   7.428   7.772  1.1793  1.6675  0.9252
19583SOL    HW261003   3.491   7.462   7.650  0.3293  0.7048  0.0594
19584SOL     OW61004   2.019   7.028   4.122 -0.0421  0.0868 -0.0226
19584SOL    HW161005   2.000   7.117   4.093  0.4047  0.8252  1.8408
19584SOL    HW261006   1.935   6.996   4.156 -0.0177  0.0834  0.0344
19585SOL     OW61007   4.455   6.174   7.515  0.3985  0.0562 -0.6057
19585SOL    HW161008   4.396   6.121   7.462  1.9521  0.0761 -2.4508
19585SOL    HW261009   4.542   6.143   7.493  1.2101  1.6025  0.2415
19586SOL     OW61010   3.194   2.429   9.349  0.1979 -0.0979 -0.2295
19586SOL    HW161011   3.165   2.520   9.340 -0.4207 -0.1277  1.3026
19586SOL    HW261012   3.275   2.425   9.298 -1.1221  0.6102 -2.5658
19587SOL     OW61013   0.845   7.237   4.114  0.5231  0.1059  0.6672
19587SOL    HW161014   0.813   7.173   4.050  0.0468  0.1834  0.8257
19587SOL    HW261015   0.920   7.195   4.155  2.4046  0.9702 -1.6460
19588SOL     OW61016   6.813   1.449   2.865 -0.1726  0.3683 -0.7491
19588SOL    HW161017   6.725   1.425   2.833 -1.0436  0.4674  1.3964
19588SOL    HW261018   6.844   1.369   2.908  0.7412  0.4015 -1.3209
19589SOL     OW61019   9.764   5.961   8.619 -0.2180 -0.1210 -0.3949
19589SOL    HW161020   9.710   5.947   8.542 -0.2359 -0.9654 -0.2374
19589SOL    HW261021   9.706   5.943   8.693 -0.2278  0.7673 -0.1738
19590SOL     OW61022  10.585   3.455   6.213  0.1592  0.1086  0.5349
19590SOL    HW161023  10.502   3.444   6.258 -0.3919  0.4255 -0.3759
19590SOL    HW261024  10.635   3.516   6.267 -0.7365  0.9798  0.3884
19591SOL     OW61025   3.635   6.439   4.644 -0.2254  0.4759  0.2062
19591SOL    HW161026   3.722   6.460   4.680  0.3476 -1.3436 -0.0236
19591SOL    HW261027   3.644   6.351   4.610 -1.8458  0.7284 -0.9746
19592SOL     OW61028   4.128   5.815   2.931  0.4295 -0.0165  0.0425
19592SOL    HW161029   4.124   5.724   2.900  2.7998 -1.3747  3.1392
19592SOL    HW261030   4.087   5.813   3.018 -0.1277  2.0878 -0.1188
19593SOL     OW61031   8.181   8.322   9.430 -0.2627 -0.3130 -0.0439
19593SOL    HW161032   8.145   8.371   9.356  1.4169 -0.0822 -0.7333
19593SOL    HW261033   8.127   8.243   9.435 -1.7632  0.6552 -0.1364
19594SOL     OW61034   5.319   0.638   3.115 -0.6680 -0.5512  0.4844
19594SOL    HW161035   5.231   0.652   3.151 -0.4292  0.6327  0.6408
19594SOL    HW261036   5.318   0.683   3.030  0.4607  1.5052  1.4824
19595SOL     OW61037  10.099   0.826  10.538 -0.2918  0.2878 -0.1918
19595SOL    HW161038  10.059   0.860  10.458 -1.4919  0.0838  0.2917
19595SOL    HW261039  10.027   0.824  10.602  0.2261 -1.1586  0.3973
19596SOL     OW61040  10.022   8.961   6.207 -0.2461  0.4217 -0.1987
19596SOL    HW161041   9.997   9.049   6.179  1.1511  0.4944 -1.3719
19596SOL    HW261042   9.953   8.904   6.172 -1.5007  1.0769  1.1136
19597SOL     OW61043  10.460   5.130   7.772 -0.3738  0.4225  0.2425
19597SOL    HW161044  10.382   5.088   7.736 -1.4643 -0.2526  3.1755
19597SOL    HW261045  10.431   5.218   7.796  0.6363  1.2595 -1.4264
19598SOL     OW61046   7.224   5.382   1.326  0.2226 -0.2465 -0.0079
19598SOL    HW161047   7.157   5.389   1.394  1.1289  0.0595  0.8754
19598SOL    HW261048   7.220   5.466   1.280  0.2321 -0.1035  0.2522
19599SOL     OW61049   6.844   0.980   8.103  0.3242 -0.5800 -0.1116
19599SOL    HW161050   6.854   1.020   8.190  1.0411  0.5014 -0.6595
19599SOL    HW261051   6.750   0.971   8.092 -0.0125  2.3028 -0.4820
19600SOL     OW61052   4.670   0.597   4.409 -0.4887  0.4677  0.3674
19600SOL    HW161053   4.587   0.562   4.377 -0.2998  1.1066 -0.9082
19600SOL    HW261054   4.648   0.684   4.442 -0.3421  0.6062  0.1028
19601SOL     OW61055   9.894   2.211   1.484 -0.1257  0.7761 -0.5326
19601SOL    HW161056   9.956   2.195   1.413  0.2249  1.9440 -0.5196
19601SOL    HW261057   9.943   2.266   1.546  0.2883 -1.8861  1.6721
19602SOL     OW61058   7.550   7.827   0.381 -0.5110 -0.3498  0.6196
19602SOL    HW161059   7.578   7.913   0.350 -0.2551 -0.2283  1.1744
19602SOL    HW261060   7.547   7.835   0.476  3.0709 -1.9165  1.0570
19603SOL     OW61061   0.483   9.614   3.310  0.6530  0.2274 -0.0447
19603SOL    HW161062   0.542   9.606   3.235  0.6849 -0.7267  0.0703
19603SOL    HW261063   0.535   9.586   3.385  0.4089  0.5074  0.2319
19604SOL     OW61064  10.103   8.195  10.458  0.1313 -0.4403  0.6683
19604SOL    HW161065  10.045   8.258  10.415  0.2025 -0.8742 -0.0860
19604SOL    HW261066  10.107   8.121  10.397 -1.1319 -1.8292  2.1963
19605SOL     OW61067   9.249   8.108   9.152 -0.2033  0.0234 -0.3218
19605SOL    HW161068   9.264   8.057   9.073 -1.4120 -0.6267 -0.1621
19605SOL    HW261069   9.252   8.044   9.224 -0.4720  0.3723  0.0080
19606SOL     OW61070   1.257   4.917   1.597  0.3954 -0.7091 -0.1714
19606SOL    HW161071   1.207   4.858   1.655  0.0544 -0.8859 -0.6411
19606SOL    HW261072   1.232   4.891   1.509 -0.6860  0.9000 -0.3973
19607SOL     OW61073   7.348   5.721   6.916  0.1010 -0.5323  0.2458
19607SOL    HW161074   7.358   5.790   6.982  0.2838  0.0110 -0.3401
19607SOL    HW261075   7.288   5.758   6.851  0.6620 -0.6930 -0.3755
19608SOL     OW61076   4.260   7.617   7.676 -0.5960  0.1541  0.1710
19608SOL    HW161077   4.263   7.557   7.602 -1.1473 -0.1406  0.3803
19608SOL    HW261078   4.221   7.697   7.641  1.6256  1.0050 -0.5102
19609SOL     OW61079   5.599   8.179   8.219  0.1697 -0.1217 -0.4123
19609SOL    HW161080   5.619   8.188   8.312  0.9529 -2.0508 -0.3452
19609SOL    HW261081   5.685   8.180   8.175 -0.1905  0.8037 -1.1286
19610SOL     OW61082   5.696   8.068   4.439 -0.0693 -0.2187 -0.1881
19610SOL    HW161083   5.695   8.147   4.385 -1.6913 -0.2452 -0.2448
19610SOL    HW261084   5.774   8.079   4.495  0.1156  1.0955 -0.6541
19611SOL     OW61085   6.359   2.459   1.312  0.5939  0.2717  0.0967
19611SOL    HW161086   6.368   2.521   1.240 -1.8025 -0.8516 -1.2916
19611SOL    HW261087   6.373   2.373   1.271  1.9526 -0.2590  1.5826
19612SOL     OW61088   6.036   0.438   4.883  0.3161 -0.2379  0.5302
19612SOL    HW161089   5.981   0.516   4.891 -0.7519 -0.9261  0.1464
19612SOL    HW261090   6.027   0.394   4.967  0.6152 -0.1476  0.6108
19613SOL     OW61091   3.160   9.708   9.196  0.0983 -0.2286  0.6589
19613SOL    HW161092   3.100   9.764   9.245  0.3016  0.9258 -0.3428
19613SOL    HW261093   3.247   9.742   9.217  0.3803 -1.4794  1.6024
19614SOL     OW61094   8.735   0.577   1.004  0.2969 -0.6324  0.8229
19614SOL    HW161095   8.717   0.495   1.050  0.0266 -1.5195 -0.7976
19614SOL    HW261096   8.814   0.559   0.953 -1.3008 -0.8838 -1.7409
19615SOL     OW61097   0.114   2.037   4.036 -0.2320 -0.0084  0.4998
19615SOL    HW161098   0.101   2.127   4.064 -0.6169  0.4129 -0.9168
19615SOL    HW261099   0.141   2.044   3.944 -1.1420 -1.3520  0.0934
19616SOL     OW61100   7.181   6.642   7.761  0.2097 -0.0933  0.2756
19616SOL    HW161101   7.132   6.580   7.814  1.1394 -0.0698  1.1934
19616SOL    HW261102   7.272   6.630   7.788  0.2384  3.3036  2.3286
19617SOL     OW61103   8.202   9.700   3.427 -0.0932 -0.3143 -0.3532
19617SOL    HW161104   8.124   9.681   3.375  0.1637 -2.0425 -0.1788
19617SOL    HW261105   8.201   9.634   3.496  0.7444  0.5736  0.5399
19618SOL     OW61106   6.496   0.168   6.538  0.0069 -0.4492  0.2003
19618SOL    HW161107   6.512   0.210   6.622 -0.6276 -1.9185  1.0969
19618SOL    HW261108   6.488   0.240   6.476  1.6228  0.6183  1.1748
19619SOL     OW61109   9.937   7.067   7.272  0.0085  0.4059 -0.3018
19619SOL    HW161110   9.867   7.083   7.335 -0.1363 -1.1419 -0.0066
19619SOL    HW261111  10.017   7.092   7.318 -0.1655  0.0023  0.2438
19620SOL     OW61112  10.040   6.197   6.092  0.0196 -0.2843 -0.1210
19620SOL    HW161113  10.086   6.141   6.030 -1.2256  1.0717 -2.4260
19620SOL    HW261114  10.068   6.286   6.070 -2.5195  0.4758 -0.6757
19621SOL     OW61115   3.063   8.516   9.448  0.5542 -0.3064  0.6156
19621SOL    HW161116   3.156   8.499   9.440  0.4091 -1.0332  0.4109
19621SOL    HW261117   3.025   8.433   9.476 -0.0538 -0.0613  0.5487
19622SOL     OW61118   2.544   0.817   5.932 -0.3175 -0.2300  0.1343
19622SOL    HW161119   2.497   0.895   5.962 -1.2647 -0.9288  0.5347
19622SOL    HW261120   2.521   0.749   5.996 -1.6223 -1.5268 -1.5994
19623SOL     OW61121   3.269   9.506   5.173 -0.2319 -0.3360  0.1951
19623SOL    HW161122   3.190   9.560   5.174 -1.0721 -1.4881  1.7549
19623SOL    HW261123   3.249   9.436   5.110 -0.4852 -0.6258  0.5879
19624SOL     OW61124   0.962   6.538   3.755  0.3458 -0.5196  0.2781
19624SOL    HW161125   0.870   6.555   3.775  0.5027  0.1834  0.4140
19624SOL    HW261126   1.004   6.530   3.841  0.2500 -1.7932  0.2248
19625SOL     OW61127   3.488   8.351   4.333 -0.8487  0.2829 -0.0237
19625SOL    HW161128   3.414   8.386   4.283 -0.7302  0.1719 -0.2829
19625SOL    HW261129   3.448   8.289   4.394 -0.8576 -0.9322 -1.1859
19626SOL     OW61130   8.014   7.488   0.590 -0.2148 -0.3546 -0.6473
19626SOL    HW161131   7.989   7.518   0.502 -1.8132  0.0221 -0.1063
19626SOL    HW261132   8.083   7.547   0.618  0.1048 -0.2962 -1.5420
19627SOL     OW61133   8.451   9.136   7.046  0.1233  0.0214 -0.8204
19627SOL    HW161134   8.536   9.181   7.046  0.0449  0.2020  0.4229
19627SOL    HW261135   8.469   9.050   7.083 -0.2747  0.1641 -0.2748
19628SOL     OW61136   6.030   9.280   0.580  0.5619 -0.4770 -0.0546
19628SOL    HW161137   5.956   9.285   0.519  1.8732  1.4638 -1.6219
19628SOL    HW261138   5.993   9.240   0.659 -1.5114 -1.9698 -1.6708
19629SOL     OW61139   5.516   0.305   9.277  0.1086  0.5528  0.4598
19629SOL    HW161140   5.584   0.361   9.239  1.9533 -1.2229  0.9860
19629SOL    HW261141   5.488   0.249   9.205 -0.2770  0.7922  0.4228
19630SOL     OW61142   7.655   7.435   0.130  0.8653  0.4944 -0.3327
19630SOL    HW161143   7.627   7.524   0.150 -1.1576 -0.4055  1.2523
19630SOL    HW261144   7.617   7.382   0.199  1.9259 -1.6470 -1.2856
19631SOL     OW61145   8.749   7.848   7.431 -0.2577 -0.2906 -0.0995
19631SOL    HW161146   8.826   7.848   7.375 -0.6624 -0.3051 -0.6644
19631SOL    HW261147   8.715   7.759   7.425 -0.4802 -0.2069 -0.0761
19632SOL     OW61148   2.621   0.429   8.936 -0.1649  0.2157 -0.8859
19632SOL    HW161149   2.644   0.521   8.922  1.2331 -0.1724 -1.2917
19632SOL    HW261150   2.698   0.391   8.977 -0.5477 -0.8755 -1.1414
19633SOL     OW61151   6.654   4.830   0.428  0.0070 -0.0150 -0.1872
19633SOL    HW161152   6.681   4.739   0.441  1.9599  0.7249  1.6724
19633SOL    HW261153   6.640   4.864   0.517 -1.2575  1.3558 -0.8652
19634SOL     OW61154   9.247   2.274   2.531  0.3159 -0.0185  0.1821
19634SOL    HW161155   9.295   2.199   2.498 -0.6892 -0.1656 -1.0318
19634SOL    HW261156   9.293   2.350   2.496  2.1982  0.0623  2.5857
19635SOL     OW61157  10.570   4.913   1.058  0.3030 -0.2432  0.0741
19635SOL    HW161158  10.565   4.993   1.006  1.9978  0.6076  1.1439
19635SOL    HW261159  10.604   4.847   0.997 -0.3301  0.0286 -0.5933
19636SOL     OW61160   2.896  10.274  10.646 -0.2007 -0.2466  0.5262
19636SOL    HW161161   2.836  10.238  10.581 -1.9216  1.8939  0.8129
19636SOL    HW261162   2.851  10.260  10.730 -0.9082  2.3446  0.6491
19637SOL     OW61163   5.897   3.748   3.251  0.0867  0.1432 -0.5005
19637SOL    HW161164   5.922   3.656   3.246  1.5500  0.4564  0.2076
19637SOL    HW261165   5.833   3.760   3.182  0.4268 -1.2438 -1.0898
19638SOL     OW61166   5.760   8.061   5.359  0.1597 -0.5404 -0.2054
19638SOL    HW161167   5.829   8.087   5.419 -0.9287  0.9449  0.4831
19638SOL    HW261168   5.798   7.991   5.306  1.0551 -2.1425  2.4076
19639SOL     OW61169   9.281   5.199   2.555  0.6104  0.3391  0.3456
19639SOL    HW161170   9.282   5.194   2.651 -1.7147  2.1812  0.5703
19639SOL    HW261171   9.329   5.279   2.535 -1.6217  1.7552  0.2897
19640SOL     OW61172  10.314   0.388   4.786 -0.2821  0.1659 -0.2022
19640SOL    HW161173  10.375   0.378   4.713  0.7530  0.6468  0.5765
19640SOL    HW261174  10.261   0.308   4.784 -0.3356  0.2082 -1.5153
19641SOL     OW61175   4.878   5.400   7.430 -0.3862 -0.1043  0.6280
19641SOL    HW161176   4.944   5.415   7.362  0.7566  1.3550  1.9625
19641SOL    HW261177   4.813   5.469   7.417 -2.1071 -1.9320 -1.0928
19642SOL     OW61178   2.281   4.027   4.164  0.3103  0.2984  0.1455
19642SOL    HW161179   2.343   4.092   4.130 -0.1392  0.8343  0.3279
19642SOL    HW261180   2.228   4.076   4.227 -2.7825  0.8941 -2.6507
19643SOL     OW61181   5.417   5.652   7.779 -0.0576 -0.5217  0.0348
19643SOL    HW161182   5.495   5.656   7.834 -0.7780  0.2603  1.0245
19643SOL    HW261183   5.449   5.668   7.690  1.3428 -3.3070 -0.0660
19644SOL     OW61184   2.331   9.084   0.661  0.1737  0.2866 -0.0774
19644SOL    HW161185   2.327   9.149   0.732 -1.1962  0.2934 -0.1254
19644SOL    HW261186   2.338   9.000   0.705 -0.8106  0.2817  0.0974
19645SOL     OW61187   5.434   4.628   0.873  0.8142  0.2855 -0.7268
19645SOL    HW161188   5.442   4.694   0.943  0.4708 -0.6346  0.2126
19645SOL    HW261189   5.496   4.560   0.899 -0.2376 -0.6571 -0.6234
19646SOL     OW61190   9.888   2.900   3.232 -0.5391 -0.1335  0.0169
19646SOL    HW161191   9.964   2.919   3.288 -0.2008  1.0686 -0.8169
19646SOL    HW261192   9.870   2.807   3.248 -0.1654  0.0577  1.7535
19647SOL     OW61193   3.088   0.761   6.421 -0.0815 -0.0249 -0.3080
19647SOL    HW161194   3.086   0.708   6.342  0.6048 -0.0023 -0.3519
19647SOL    HW261195   3.177   0.796   6.424 -0.0418 -0.1788  0.5734
19648SOL     OW61196   1.981   4.786   8.907 -0.1849 -0.9461  0.0350
19648SOL    HW161197   1.893   4.815   8.885 -0.2039 -2.9145 -3.1081
19648SOL    HW261198   1.967   4.712   8.967 -0.6150 -0.6760  0.2713
19649SOL     OW61199   0.064   9.995   9.602  0.6824  0.0978  0.3824
19649SOL    HW161200   0.148   9.962   9.570  1.3177 -0.4942  2.4976
19649SOL    HW261201   0.008   9.918   9.607  0.2602  0.3573 -0.2606
19650SOL     OW61202   3.956   8.378   5.521  0.2406  0.6963  0.4922
19650SOL    HW161203   4.023   8.337   5.575 -0.5255 -1.8507 -0.3321
19650SOL    HW261204   3.891   8.411   5.583  0.8024  0.4591  1.2068
19651SOL     OW61205   6.003   0.439   1.717 -0.2796 -0.1758  0.3699
19651SOL    HW161206   5.972   0.468   1.803  1.2338 -0.7502  1.1403
19651SOL    HW261207   6.048   0.516   1.681 -0.8320  0.0349  0.1117
19652SOL     OW61208   7.956  10.050   0.952  0.5304  0.0998 -0.4287
19652SOL    HW161209   7.967  10.009   0.866  4.1193 -0.0862  0.0026
19652SOL    HW261210   7.902   9.987   1.000  0.5521 -1.0081 -1.7676
19653SOL     OW61211   3.788   9.108   1.032  0.0728 -0.0823  0.2177
19653SOL    HW161212   3.878   9.077   1.043  0.4154  0.8691  0.2569
19653SOL    HW261213   3.734   9.044   1.079  0.8106 -0.2234  0.8941
19654SOL     OW61214   8.881   1.030   8.242  0.3548  0.4837 -0.8333
19654SOL    HW161215   8.952   1.083   8.279 -0.1426  1.3469 -1.0763
19654SOL    HW261216   8.922   0.983   8.169  0.8623  0.3423 -0.4643
19655SOL     OW61217  10.203   3.522  10.624  0.2748  0.3330  0.2165
19655SOL    HW161218  10.170   3.597  10.574 -0.2063 -2.0227 -3.3098
19655SOL    HW261219  10.133   3.501  10.685 -1.1152  0.6219 -1.2327
19656SOL     OW61220   7.792   1.497   7.173  0.1742 -0.1849  0.4988
19656SOL    HW161221   7.785   1.583   7.213  0.0909  0.5875 -1.1064
19656SOL    HW261222   7.848   1.510   7.097  2.0045 -2.0201  1.4297
19657SOL     OW61223   9.348   3.864   1.835  0.5560 -0.1778 -0.1707
19657SOL    HW161224   9.363   3.777   1.873  2.1043 -0.8527 -2.0938
19657SOL    HW261225   9.434   3.892   1.805 -0.1055  1.5591 -0.5770
19658SOL     OW61226   6.175   2.217   4.810  0.2521  0.2165 -0.3407
19658SOL    HW161227   6.226   2.168   4.745 -0.2146  2.2525 -2.3530
19658SOL    HW261228   6.084   2.204   4.784 -0.1183 -0.6061  1.2042
19659SOL     OW61229   7.217   9.277   7.145  0.2537  0.2949 -0.3914
19659SOL    HW161230   7.173   9.219   7.207 -0.1372  0.0387 -0.9094
19659SOL    HW261231   7.252   9.220   7.077 -0.7146  0.7071 -1.2608
19660SOL     OW61232   4.994   9.718   2.377  0.0316  0.0782 -0.7119
19660SOL    HW161233   4.989   9.807   2.411  0.1276 -0.5465  1.0192
19660SOL    HW261234   4.903   9.695   2.356  0.0873  0.8032 -1.8420
19661SOL     OW61235   6.402   0.848   9.341  0.2613 -0.1542 -0.1802
19661SOL    HW161236   6.409   0.776   9.278  1.2552 -0.4029  0.1997
19661SOL    HW261237   6.460   0.916   9.307  0.8018 -0.2909  0.4547
19662SOL     OW61238   2.855   2.443   5.859 -0.0024  0.7619 -0.1735
19662SOL    HW161239   2.930   2.398   5.821  0.0455  1.6531 -1.2103
19662SOL    HW261240   2.804   2.472   5.782 -0.1225  2.2843  0.4441
19663SOL     OW61241   2.246   8.123   0.273  0.1428  0.3153  0.2709
19663SOL    HW161242   2.159   8.163   0.267  0.5577  1.2939  0.5311
19663SOL    HW261243   2.307   8.196   0.262  0.9359 -0.2953  0.4942
19664SOL     OW61244   1.506   6.385   8.783  0.1907 -0.0958  0.4244
19664SOL    HW161245   1.439   6.322   8.756  0.7044 -0.2379 -0.5873
19664SOL    HW261246   1.544   6.416   8.701  0.4740  0.9684  0.9370
19665SOL     OW61247   9.907   1.825   9.763 -0.0107 -0.4107  0.4404
19665SOL    HW161248   9.871   1.906   9.725 -1.0246 -1.4842 -1.0001
19665SOL    HW261249   9.858   1.813   9.844  0.3824  0.5675  0.8478
19666SOL     OW61250   4.453   7.357   4.737 -0.1271  0.2368  0.1220
19666SOL    HW161251   4.400   7.380   4.661 -0.6994  0.2103  0.5026
19666SOL    HW261252   4.410   7.402   4.810  0.5281  0.4236  0.4040
19667SOL     OW61253   0.892   7.413   5.493  0.8408 -0.5697  0.2274
19667SOL    HW161254   0.893   7.499   5.534 -2.3881 -0.1883 -0.2447
19667SOL    HW261255   0.886   7.431   5.399 -1.4369 -1.1707  0.1907
19668SOL     OW61256   2.657   9.621   3.979  0.6309 -0.0993  0.7557
19668SOL    HW161257   2.600   9.698   3.979 -0.1466 -0.6734  0.3634
19668SOL    HW261258   2.740   9.653   3.943  0.6455  0.7917  1.5481
19669SOL     OW61259   5.766   4.072   4.479 -0.6285  0.3928 -0.1198
19669SOL    HW161260   5.779   4.159   4.439  0.4074  0.5055  0.4392
19669SOL    HW261261   5.824   4.072   4.555  1.9604 -2.0154 -1.9462
19670SOL     OW61262   9.460   8.382   7.315 -0.2195 -0.1971  0.8987
19670SOL    HW161263   9.457   8.369   7.220  2.0537 -3.5288  1.1212
19670SOL    HW261264   9.377   8.345   7.347 -0.4632 -0.1738  0.3013
19671SOL     OW61265   1.329   5.207   3.847 -0.0299 -0.2664  0.2907
19671SOL    HW161266   1.366   5.280   3.896 -0.7233 -0.7630  1.5924
19671SOL    HW261267   1.271   5.163   3.909 -2.4431  0.1847 -1.5006
19672SOL     OW61268  10.513   8.584   6.298 -0.3414  0.1005  0.1328
19672SOL    HW161269  10.466   8.538   6.227 -0.3885  0.2868  0.0418
19672SOL    HW261270  10.587   8.625   6.254 -0.2387  0.0224  0.2331
19673SOL     OW61271   9.725   2.422   4.812 -0.1802 -0.4846  0.5612
19673SOL    HW161272   9.724   2.414   4.908  1.9877  0.5532  0.7256
19673SOL    HW261273   9.778   2.500   4.795  0.4716 -1.3248 -1.5278
19674SOL     OW61274   8.206   9.206   8.520  0.1114  0.2882 -0.0169
19674SOL    HW161275   8.216   9.270   8.590  0.5513 -0.5379  0.7046
19674SOL    HW261276   8.147   9.247   8.457 -1.5677  0.4613  1.5685
19675SOL     OW61277   7.739   5.288   2.605 -0.3859 -0.0873  0.1217
19675SOL    HW161278   7.732   5.214   2.666  0.4378 -1.8462 -1.8165
19675SOL    HW261279   7.831   5.288   2.578 -0.7008  0.7523 -0.9995
19676SOL     OW61280   6.789   1.797   3.663 -0.4495  0.1716  0.1918
19676SOL    HW161281   6.874   1.758   3.642  0.6590  1.3301  2.1915
19676SOL    HW261282   6.784   1.795   3.758 -1.5094  2.4366  0.2566
19677SOL     OW61283   4.974  10.441   3.016  0.1406 -0.1735  0.2461
19677SOL    HW161284   5.048  10.488   2.977  1.1508 -0.1615  2.0489
19677SOL    HW261285   4.989  10.449   3.111 -1.7918 -0.8011  0.6378
19678SOL     OW61286   5.433   4.818   2.689  0.1928 -0.1501  0.2312
19678SOL    HW161287   5.500   4.770   2.738  0.9296  0.8454  0.2262
19678SOL    HW261288   5.374   4.750   2.656 -1.4295 -0.8237  3.9953
19679SOL     OW61289   0.350   9.154   5.052  0.1505  0.1188  0.1251
19679SOL    HW161290   0.360   9.096   4.977 -0.3985 -0.8181  0.7584
19679SOL    HW261291   0.393   9.108   5.124  0.1906  0.7506  0.5088
19680SOL     OW61292   7.903  10.431   5.838 -0.2829  0.0755 -0.2302
19680SOL    HW161293   7.848  10.362   5.802  0.8625 -0.6006 -0.7659
19680SOL    HW261294   7.845  10.482   5.894 -1.4034 -0.6817 -0.6689
19681SOL     OW61295   0.650   7.436   3.368  0.2023 -0.4721 -0.0081
19681SOL    HW161296   0.675   7.401   3.453  0.4463 -1.0048 -0.2966
19681SOL    HW261297   0.719   7.408   3.308  0.5426  0.7256 -0.2040
19682SOL     OW61298  10.059   4.713   3.320  0.7279  0.3408 -0.1560
19682SOL    HW161299   9.970   4.737   3.346  0.6853  0.0580 -0.0313
19682SOL    HW261300  10.049   4.672   3.234  0.2703 -2.7369  1.2073
19683SOL     OW61301   7.849   3.286   1.437  0.8004 -0.0621  0.0953
19683SOL    HW161302   7.915   3.316   1.373 -0.6426  0.0864 -1.4056
19683SOL    HW261303   7.822   3.200   1.404  1.4753 -0.9226  1.6958
19684SOL     OW61304   9.725   6.456   5.950  0.0556  0.0809 -0.3473
19684SOL    HW161305   9.636   6.435   5.924 -0.7989  0.6171  1.9044
19684SOL    HW261306   9.780   6.423   5.879 -1.8538 -1.2396 -1.2789
19685SOL     OW61307   8.098   9.751   1.333 -0.3566  0.2163 -0.2777
19685SOL    HW161308   8.176   9.704   1.362  0.0891  0.1676 -1.5256
19685SOL    HW261309   8.028   9.715   1.387  0.5332  0.5509  1.1458
19686SOL     OW61310   9.864   0.273   8.694 -0.1842 -0.2361 -0.7423
19686SOL    HW161311   9.853   0.260   8.788 -3.0240 -2.0046 -1.2116
19686SOL    HW261312   9.922   0.201   8.667 -1.1359 -1.0647 -0.6304
19687SOL     OW61313   6.488   8.216   3.009 -0.3909 -0.2397 -0.1041
19687SOL    HW161314   6.409   8.196   3.060 -0.8242 -0.4476 -0.8430
19687SOL    HW261315   6.484   8.310   2.993  0.2621  0.0062  1.0822
19688SOL     OW61316   3.343   4.616   3.112  0.4056 -0.0620  0.2142
19688SOL    HW161317   3.324   4.569   3.193  0.6486  0.9537  0.8875
19688SOL    HW261318   3.427   4.659   3.128  0.8689 -0.5075 -0.8924
19689SOL     OW61319   1.627   5.968   4.864 -0.0770  0.3803  0.0899
19689SOL    HW161320   1.689   6.014   4.808 -1.1879  1.2365 -0.4575
19689SOL    HW261321   1.676   5.953   4.946  0.6531  1.5519 -0.1131
19690SOL     OW61322   0.755   6.194   7.889  0.2616  0.3815  0.4974
19690SOL    HW161323   0.788   6.110   7.921 -2.3537 -1.9319 -2.2749
19690SOL    HW261324   0.793   6.203   7.801 -1.4419  0.7560 -0.2454
19691SOL     OW61325   3.580   2.196   9.658  0.5654  0.3779 -0.4198
19691SOL    HW161326   3.642   2.172   9.728  1.2145  0.3692 -0.9800
19691SOL    HW261327   3.595   2.289   9.644 -0.7045  0.7364  0.5460
19692SOL     OW61328   2.414   8.333   4.284  0.0825 -0.0403 -0.7246
19692SOL    HW161329   2.318   8.337   4.279  0.1038 -0.7473 -1.8659
19692SOL    HW261330   2.435   8.240   4.276  0.8451  0.0443  0.1325
19693SOL     OW61331   6.922   9.332   6.908  0.5149  0.6473 -0.4433
19693SOL    HW161332   6.976   9.385   6.967  0.3720  1.2327 -0.8293
19693SOL    HW261333   6.840   9.319   6.957  0.2171  1.5236 -0.6783
19694SOL     OW61334  10.537   1.489  10.260 -0.1457 -0.2929 -0.1586
19694SOL    HW161335  10.500   1.454  10.179 -0.4412  3.3481 -1.7620
19694SOL    HW261336  10.462   1.502  10.317 -0.0059 -2.2533  0.5725
19695SOL     OW61337  10.356   8.696   9.963  0.3056 -0.1816 -0.4098
19695SOL    HW161338  10.436   8.708  10.015  0.0622 -1.4305  0.2834
19695SOL    HW261339  10.388   8.667   9.877  0.7457  2.5475 -1.2706
19696SOL     OW61340   1.957   1.899   5.589  0.3301 -0.0338 -0.0944
19696SOL    HW161341   2.013   1.822   5.599 -0.3601 -0.4323  0.8107
19696SOL    HW261342   1.941   1.928   5.678 -1.6182 -0.4523 -0.2691
19697SOL     OW61343   7.439   7.748   3.120  0.0233 -0.6317 -0.1804
19697SOL    HW161344   7.345   7.753   3.102  0.5898 -1.0775 -4.2007
19697SOL    HW261345   7.463   7.836   3.147 -1.4788 -0.4110  0.5146
19698SOL     OW61346   0.754   4.639   5.804  0.4866 -0.0863 -0.0491
19698SOL    HW161347   0.664   4.610   5.788  0.7555 -0.3879 -1.0725
19698SOL    HW261348   0.809   4.572   5.764  1.1242  1.5761 -2.1457
19699SOL     OW61349   5.376   1.256   8.176  0.3127  0.5309 -0.2274
19699SOL    HW161350   5.453   1.227   8.224  0.1441  0.5307  0.0467
19699SOL    HW261351   5.307   1.260   8.242  0.1548  0.8382 -0.4095
19700SOL     OW61352   9.192   3.681   0.097  0.2117 -0.0101 -0.1355
19700SOL    HW161353   9.197   3.702   0.190  0.7959  1.5400 -0.4714
19700SOL    HW261354   9.183   3.586   0.093  0.8200 -0.1589  1.4745
19701SOL     OW61355   6.189   5.309   8.446 -0.2254 -0.0857 -0.1625
19701SOL    HW161356   6.217   5.331   8.357 -0.7517  1.9890  0.1292
19701SOL    HW261357   6.253   5.245   8.477  0.2725 -0.4301 -1.8251
19702SOL     OW61358   4.807  10.441   9.293 -0.0754  0.2276  1.0614
19702SOL    HW161359   4.824  10.439   9.199 -0.0123  1.0269  1.0467
19702SOL    HW261360   4.712  10.435   9.301 -0.2828  2.3921  0.8194
19703SOL     OW61361   7.740   3.742   1.377  0.1613  0.2353  0.0142
19703SOL    HW161362   7.698   3.677   1.321 -0.6487 -0.1321  1.0128
19703SOL    HW261363   7.703   3.826   1.349 -0.4085  0.0298  0.1397
19704SOL     OW61364   3.771   3.590  10.266 -0.0963  0.0327  0.4721
19704SOL    HW161365   3.861   3.611  10.243 -0.2981  0.3492 -0.0234
19704SOL    HW261366   3.764   3.611  10.359  0.2564  0.2835  0.4390
19705SOL     OW61367   8.885   6.533   0.228 -0.5478 -0.7310 -0.0236
19705SOL    HW161368   8.821   6.484   0.280 -0.0358 -0.9949  0.3665
19705SOL    HW261369   8.832   6.589   0.171 -1.1320  0.6716  1.8104
19706SOL     OW61370   5.875   8.131   6.421 -0.4503 -0.6653 -0.0657
19706SOL    HW161371   5.826   8.145   6.502 -0.0146  1.2464 -0.0750
19706SOL    HW261372   5.813   8.090   6.361 -1.8876  1.1098  0.1359
19707SOL     OW61373   2.978   6.002   5.765  0.1876  0.6119 -0.0969
19707SOL    HW161374   2.983   5.975   5.673 -0.5607 -3.1119  0.7808
19707SOL    HW261375   3.050   6.064   5.776 -0.0407  1.6048 -3.2687
19708SOL     OW61376   4.905   4.968   5.642 -0.0897 -0.1316 -0.5026
19708SOL    HW161377   4.949   4.963   5.727 -0.7824 -1.3990 -0.1831
19708SOL    HW261378   4.961   4.916   5.584  0.2389  0.5070 -0.7672
19709SOL     OW61379   7.131   0.976   4.265  0.1770 -0.3473  0.5518
19709SOL    HW161380   7.166   0.910   4.325 -0.0916 -0.6428  0.3847
19709SOL    HW261381   7.161   0.949   4.179 -0.7819 -0.8332  0.3521
19710SOL     OW61382   3.968   8.562   2.499  0.1158  0.3618 -0.2653
19710SOL    HW161383   3.919   8.480   2.504  0.3704  0.2314  0.1738
19710SOL    HW261384   3.926   8.611   2.428  0.2649 -0.3417 -0.8471
19711SOL     OW61385   7.936   5.032  10.341 -0.6098 -0.1511  0.4133
19711SOL    HW161386   7.865   4.998  10.396 -0.9286 -2.1980 -1.1463
19711SOL    HW261387   7.992   4.956  10.326  0.6596  0.8916 -0.2992
19712SOL     OW61388  10.157   4.086   6.816  0.2186 -0.1640 -1.0018
19712SOL    HW161389  10.130   4.152   6.753 -0.0954  0.0329 -0.6685
19712SOL    HW261390  10.132   4.002   6.777 -1.1825  0.0278 -0.5673
19713SOL     OW61391   2.962   6.199   1.085  0.0617  0.1796  0.3142
19713SOL    HW161392   2.928   6.183   1.173 -1.8405  0.4495 -0.3248
19713SOL    HW261393   2.953   6.294   1.073  1.6751  0.3582  0.3366
19714SOL     OW61394   5.272   6.667   6.575  0.2727  0.1118 -0.2484
19714SOL    HW161395   5.232   6.699   6.657 -0.0073 -1.1635  0.1320
19714SOL    HW261396   5.360   6.640   6.601  0.4612  0.4427 -0.5400
19715SOL     OW61397   8.573   5.005   9.002  0.3611 -0.3801 -0.9121
19715SOL    HW161398   8.549   5.085   9.048  1.9985 -0.1339 -0.4333
19715SOL    HW261399   8.547   4.934   9.061  0.6866 -0.1290 -0.4636
19716SOL     OW61400   9.521   3.551   2.682 -0.4154 -0.4825 -0.4706
19716SOL    HW161401   9.487   3.640   2.687 -1.1417 -0.6832 -1.6114
19716SOL    HW261402   9.588   3.548   2.751 -0.6953  0.7914 -0.1056
19717SOL     OW61403   5.090   5.603   4.605 -0.4458  0.4970  0.0741
19717SOL    HW161404   5.093   5.699   4.610 -0.3551  0.4228  3.0662
19717SOL    HW261405   5.002   5.581   4.635  0.4651 -0.3868  2.3134
19718SOL     OW61406   1.946   3.176   6.634  0.3765  0.3595 -0.5453
19718SOL    HW161407   2.030   3.133   6.622  0.1193 -0.1469 -0.5454
19718SOL    HW261408   1.965   3.251   6.691  0.6961 -0.1786  0.0661
19719SOL     OW61409  10.149   7.856   6.010  0.4249 -0.0456  0.2259
19719SOL    HW161410  10.070   7.809   6.038  0.7582 -1.5134 -1.2238
19719SOL    HW261411  10.218   7.823   6.067  0.8807 -2.2254 -1.4743
19720SOL     OW61412   3.635   0.159   0.621  0.4476  0.5607 -0.2801
19720SOL    HW161413   3.714   0.125   0.663 -0.6052 -1.1403  0.4678
19720SOL    HW261414   3.646   0.140   0.528  1.5713  1.7649 -0.4130
19721SOL     OW61415   3.791   2.715   8.606 -0.1893  0.1011  0.0372
19721SOL    HW161416   3.773   2.747   8.517 -1.9742 -0.6781  0.0779
19721SOL    HW261417   3.834   2.631   8.594 -1.5830 -0.6086 -0.1243
19722SOL     OW61418   5.728  10.345   0.127  0.3537 -0.0283  0.2673
19722SOL    HW161419   5.646  10.378   0.092 -0.9672 -3.0356  0.1786
19722SOL    HW261420   5.775  10.312   0.051  1.6781  1.5854  0.3311
19723SOL     OW61421   6.134   7.334   6.617 -0.0334  0.5752 -0.1848
19723SOL    HW161422   6.126   7.284   6.536 -1.0245  1.4859 -0.6746
19723SOL    HW261423   6.048   7.373   6.629  0.8162  2.4939 -0.0312
19724SOL     OW61424   1.332   6.700   9.270  0.1140 -0.0983 -0.5106
19724SOL    HW161425   1.245   6.717   9.307 -0.4703  1.0284 -2.2948
19724SOL    HW261426   1.315   6.645   9.193  1.2063 -1.6143  0.2822
19725SOL     OW61427   8.031   0.682   0.514 -0.3174  0.3836  0.0051
19725SOL    HW161428   7.972   0.647   0.580  1.6334 -2.4695  0.4335
19725SOL    HW261429   7.976   0.698   0.438 -1.7081 -2.1579  0.3762
19726SOL     OW61430   8.140   2.483   4.047 -0.5975 -0.2955 -0.3560
19726SOL    HW161431   8.120   2.548   3.979 -1.6406  0.8748  0.9909
19726SOL    HW261432   8.221   2.442   4.018 -0.3759  0.9961 -1.7038
19727SOL     OW61433   7.455   0.174   9.037  0.3799 -0.2001 -0.7598
19727SOL    HW161434   7.529   0.179   9.097  0.3141  2.4198 -0.8078
19727SOL    HW261435   7.380   0.151   9.092  1.1680 -3.1278 -0.7514
19728SOL     OW61436   9.979   4.962   7.641 -0.5940  0.6495  0.2870
19728SOL    HW161437   9.982   4.866   7.640  0.7868  0.6724 -0.8153
19728SOL    HW261438   9.905   4.983   7.697 -0.0083 -1.0441  1.7915
19729SOL     OW61439   9.490   5.234   8.602 -0.2844 -0.1307 -0.4044
19729SOL    HW161440   9.399   5.206   8.611 -0.3963 -0.3930 -2.0750
19729SOL    HW261441   9.541   5.153   8.604 -0.3777 -0.2869 -2.5061
19730SOL     OW61442  10.286   8.284   8.471  0.1597 -0.0578 -0.4764
19730SOL    HW161443  10.312   8.376   8.467  0.2511  0.0101  1.1797
19730SOL    HW261444  10.301   8.252   8.382  2.6370  0.8652 -0.4831
19731SOL     OW61445   6.346  10.296  10.008 -0.3499  0.3062 -0.4253
19731SOL    HW161446   6.289  10.315  10.082 -3.6013 -0.8252 -2.4268
19731SOL    HW261447   6.404  10.226  10.039 -0.5813  0.9051  1.4484
19732SOL     OW61448   9.849   3.546   3.427 -0.4619 -0.0745  0.2192
19732SOL    HW161449   9.879   3.569   3.515 -1.2932  1.9485  0.0029
19732SOL    HW261450   9.929   3.543   3.375 -0.2165  1.4132  0.4790
19733SOL     OW61451   6.099   3.569   3.807  0.1994 -0.9176  0.0562
19733SOL    HW161452   6.190   3.543   3.794  0.3187 -0.0118 -1.0651
19733SOL    HW261453   6.052   3.535   3.731 -0.5353 -1.9179  0.9307
19734SOL     OW61454   2.528   2.464   2.946  0.4260  0.3617  0.0011
19734SOL    HW161455   2.454   2.498   2.894  0.3483  1.8830  1.0603
19734SOL    HW261456   2.539   2.528   3.016  0.8880 -1.3726  1.5543
19735SOL     OW61457   3.586   6.767   2.647 -0.2810  0.0302  0.1996
19735SOL    HW161458   3.644   6.838   2.673 -1.1761  0.3937  1.2650
19735SOL    HW261459   3.640   6.712   2.589  0.8787  0.7572  0.5587
19736SOL     OW61460   4.058  10.326  10.542  0.2292 -0.3515  0.8101
19736SOL    HW161461   4.007  10.293  10.468 -0.1923  1.0258  0.4541
19736SOL    HW261462   4.149  10.323  10.512 -0.0006  0.9171 -0.0829
19737SOL     OW61463   2.171   6.139   5.688 -0.7243 -0.1657 -0.1153
19737SOL    HW161464   2.242   6.194   5.655 -0.6020  0.0840  0.5504
19737SOL    HW261465   2.171   6.062   5.631 -0.6853  0.3674 -0.8521
19738SOL     OW61466   9.959   8.877   4.477  0.0187 -0.0369 -0.2562
19738SOL    HW161467   9.984   8.963   4.510  0.3897 -0.3746  0.3612
19738SOL    HW261468   9.865   8.885   4.459  0.0842  0.5440 -0.3717
19739SOL     OW61469   2.427   2.769   4.148  0.3204 -0.2568 -0.7000
19739SOL    HW161470   2.343   2.768   4.102 -0.6610  0.5003  0.9718
19739SOL    HW261471   2.485   2.822   4.093 -0.8177  0.6481 -1.0668
19740SOL     OW61472   8.807  10.525   1.485  0.1921  0.1605 -0.1889
19740SOL    HW161473   8.747  10.591   1.451  0.8735  0.1857 -1.4131
19740SOL    HW261474   8.881  10.574   1.520 -0.5318  0.1371  1.4711
19741SOL     OW61475   1.827   2.514   1.262  0.5788 -0.7660  0.2719
19741SOL    HW161476   1.905   2.526   1.317  0.3688 -0.6075  0.5361
19741SOL    HW261477   1.832   2.423   1.232  0.8118 -0.7852  0.3704
19742SOL     OW61478   8.178   7.668   1.758  0.3892 -0.7612 -0.3734
19742SOL    HW161479   8.099   7.719   1.775 -0.5914 -2.0398 -0.9208
19742SOL    HW261480   8.168   7.589   1.811  1.1887 -1.0474 -0.6279
19743SOL     OW61481   8.758  10.243   9.168  0.2631  0.0589 -0.1256
19743SOL    HW161482   8.768  10.317   9.228  5.2424  1.5672 -2.2284
19743SOL    HW261483   8.730  10.282   9.085  2.3482 -0.3233 -1.0970
19744SOL     OW61484   7.575  10.146   5.286  0.0561  0.2661  0.1643
19744SOL    HW161485   7.582  10.124   5.193  2.2051 -0.1690  0.3708
19744SOL    HW261486   7.502  10.093   5.318  0.0019 -0.4354 -1.0543
19745SOL     OW61487   0.452   7.414  10.261  0.0037 -0.0724 -0.4595
19745SOL    HW161488   0.548   7.414  10.256 -0.0778  0.1951 -2.6673
19745SOL    HW261489   0.430   7.502  10.293  0.4747 -0.1639  0.1406
19746SOL     OW61490   3.598   2.087   4.221 -0.2365 -0.0503  0.3502
19746SOL    HW161491   3.547   2.124   4.293 -0.5019  0.6086 -0.1616
19746SOL    HW261492   3.653   2.160   4.191 -1.1439  0.1298 -1.0176
19747SOL     OW61493   7.605   0.253   2.063  0.1066 -0.3485  0.3353
19747SOL    HW161494   7.574   0.302   2.140 -0.2331  0.3986 -0.2701
19747SOL    HW261495   7.534   0.258   2.000  1.2883  1.2012 -0.9839
19748SOL     OW61496   2.364   4.525   6.201  0.0132 -0.3270 -0.1421
19748SOL    HW161497   2.340   4.601   6.147  0.4825 -0.7460 -0.9645
19748SOL    HW261498   2.429   4.479   6.149  1.1984 -0.2385  1.2078
19749SOL     OW61499   4.732   1.601   9.594  0.3671  0.1613  0.2403
19749SOL    HW161500   4.755   1.609   9.686 -0.7449  0.7697  0.4802
19749SOL    HW261501   4.666   1.669   9.579  2.5240  1.9665 -1.7110
19750SOL     OW61502   1.724   8.098   8.117 -0.4953  0.0418 -0.4236
19750SOL    HW161503   1.695   8.177   8.163 -2.8217 -0.3512 -1.0737
19750SOL    HW261504   1.664   8.090   8.043  0.2053 -1.8976 -0.8521
19751SOL     OW61505  10.206   9.265   8.283 -0.1884 -0.0387  0.4480
19751SOL    HW161506  10.158   9.258   8.365 -0.0443  0.0904  0.5423
19751SOL    HW261507  10.172   9.193   8.229  0.7277 -1.0103  1.1295
19752SOL     OW61508   2.564   6.929  10.461  0.0445  0.0159 -0.0569
19752SOL    HW161509   2.614   6.942  10.380  1.3183 -0.9221  0.5331
19752SOL    HW261510   2.618   6.869  10.513 -0.1344  1.5412  2.0340
19753SOL     OW61511   8.884   5.450   0.714 -0.4848 -0.5854 -0.1148
19753SOL    HW161512   8.950   5.471   0.780  0.3162 -2.8831 -0.1101
19753SOL    HW261513   8.806   5.427   0.765 -0.6744  0.1702 -0.0583
19754SOL     OW61514   9.522   9.881   9.997  0.5035 -0.0604 -0.1088
19754SOL    HW161515   9.489   9.970   9.982  1.4083  0.2562 -0.2746
19754SOL    HW261516   9.611   9.893  10.028  0.7458 -0.9272 -0.4383
19755SOL     OW61517   7.515   2.221   7.124 -0.8467 -0.1222 -0.2288
19755SOL    HW161518   7.588   2.159   7.130  0.4396  1.3340 -0.1385
19755SOL    HW261519   7.468   2.210   7.206  2.1151  2.2266  1.9859
19756SOL     OW61520   8.291   7.758   0.920 -0.3318 -0.6576  0.2414
19756SOL    HW161521   8.241   7.775   1.000  1.5012 -0.7131  1.4576
19756SOL    HW261522   8.324   7.844   0.894  1.2618 -0.9826  1.0896
19757SOL     OW61523   4.199   6.203   4.618  0.0182  0.0992  0.1127
19757SOL    HW161524   4.253   6.134   4.580 -0.5269 -0.0749 -0.3569
19757SOL    HW261525   4.196   6.271   4.551 -1.5585 -0.5268 -0.4772
19758SOL     OW61526   7.961   5.792   1.549  0.4670  0.5300  0.0640
19758SOL    HW161527   7.919   5.719   1.595 -1.0635  1.3913  0.0999
19758SOL    HW261528   8.050   5.793   1.583  0.7454 -1.7052 -0.4004
19759SOL     OW61529   1.731  10.349   7.982 -0.2384 -0.2432 -0.6558
19759SOL    HW161530   1.724  10.436   8.019  1.4722 -0.4586  0.3035
19759SOL    HW261531   1.768  10.362   7.895  1.0626 -0.0314 -0.0999
19760SOL     OW61532   7.781   2.106  10.060 -0.7512 -0.4725  0.1336
19760SOL    HW161533   7.763   2.102  10.154  2.3391  1.1889  0.9614
19760SOL    HW261534   7.698   2.134  10.021 -1.6579  0.6478  2.6119
19761SOL     OW61535   3.130   1.252   5.643  0.0426 -0.4281 -0.6363
19761SOL    HW161536   3.194   1.245   5.571 -0.5856 -1.8411 -1.0855
19761SOL    HW261537   3.077   1.173   5.635 -2.3470  1.1055 -0.8111
19762SOL     OW61538   8.315   4.362   6.720  0.2387 -0.0402 -0.3537
19762SOL    HW161539   8.372   4.396   6.650 -0.8120 -0.8213 -1.6413
19762SOL    HW261540   8.248   4.429   6.731  0.4018  0.0802 -0.0897
19763SOL     OW61541   9.622   8.028   2.700  0.4629 -0.0740 -0.1007
19763SOL    HW161542   9.587   8.056   2.785 -0.5110 -1.0164 -0.1667
19763SOL    HW261543   9.703   7.983   2.721 -0.0932 -0.8558  0.3989
19764SOL     OW61544   5.888   3.309   9.486 -0.1419  0.8220  0.2938
19764SOL    HW161545   5.942   3.375   9.530 -0.1440  0.8275  0.2883
19764SOL    HW261546   5.912   3.316   9.394 -1.8659  2.4921 -0.1059
19765SOL     OW61547   5.153   4.939   6.563 -0.5299  0.0856 -0.3570
19765SOL    HW161548   5.246   4.963   6.554 -0.6596  0.5110 -0.5851
19765SOL    HW261549   5.155   4.853   6.605 -0.0225 -0.0352 -0.6149
19766SOL     OW61550   0.232   8.733   4.632 -0.1073  0.1327  0.3307
19766SOL    HW161551   0.288   8.694   4.699  0.8256  2.6001  1.0817
19766SOL    HW261552   0.149   8.750   4.676 -0.0440  0.2954  0.3840
19767SOL     OW61553   8.416   0.660   3.167  0.0943 -0.2313  0.7704
19767SOL    HW161554   8.474   0.666   3.243 -1.0961  0.1526  1.6766
19767SOL    HW261555   8.395   0.751   3.145  2.5006 -0.1434 -1.7248
19768SOL     OW61556   4.459   4.239   1.747  0.1402 -0.0401 -0.0480
19768SOL    HW161557   4.482   4.295   1.673  1.6045  0.3219  0.6483
19768SOL    HW261558   4.534   4.182   1.759  1.3034  1.8840  2.9829
19769SOL     OW61559   6.469   3.596   2.650  0.1174 -0.1008 -0.0353
19769SOL    HW161560   6.411   3.543   2.704 -1.3056  0.3209 -1.1157
19769SOL    HW261561   6.431   3.684   2.653  0.2644  0.0217 -1.3500
19770SOL     OW61562   2.829   8.748   7.371  0.0627 -0.1957  0.4393
19770SOL    HW161563   2.904   8.793   7.334 -0.6110  1.0210  0.5145
19770SOL    HW261564   2.861   8.711   7.454  0.2526  1.4666  1.1478
19771SOL     OW61565   3.562   5.351   4.425  0.6030 -0.2266 -0.3884
19771SOL    HW161566   3.594   5.349   4.335  0.4906 -0.7213 -0.4191
19771SOL    HW261567   3.534   5.261   4.442 -2.2578  0.4664 -0.8973
19772SOL     OW61568   2.109   8.457   3.551  0.3782 -0.2386  0.1100
19772SOL    HW161569   2.159   8.491   3.477  3.3244  0.6291  2.3240
19772SOL    HW261570   2.169   8.397   3.595 -1.1562 -0.4993  1.9625
19773SOL     OW61571   8.292   4.486   6.086 -0.3351 -0.2275  0.0195
19773SOL    HW161572   8.312   4.484   5.992 -0.5911  1.1898 -0.0837
19773SOL    HW261573   8.220   4.423   6.096 -1.4571  0.8268 -1.0516
19774SOL     OW61574   3.251   8.640   5.436  0.0252  0.3388  0.1518
19774SOL    HW161575   3.302   8.636   5.517  0.8421 -0.2824 -0.3788
19774SOL    HW261576   3.230   8.549   5.416  1.1553  0.3299 -1.1362
19775SOL     OW61577   7.924   2.559   4.947  0.1521 -0.0660  0.4471
19775SOL    HW161578   7.962   2.476   4.919 -0.1958 -0.1634  0.2530
19775SOL    HW261579   7.891   2.543   5.035  0.9874  0.1579  0.8143
19776SOL     OW61580   0.576   3.519   7.928 -0.0659  0.5624 -0.4673
19776SOL    HW161581   0.560   3.605   7.889 -1.0600  0.6781  0.1657
19776SOL    HW261582   0.636   3.537   8.001  0.2439  0.6222 -0.7343
19777SOL     OW61583   8.067   6.612   0.749  0.0894  0.4034 -0.4278
19777SOL    HW161584   8.023   6.544   0.698 -1.2408  1.0332 -0.1730
19777SOL    HW261585   8.087   6.681   0.685  2.7879 -0.7609 -0.9917
19778SOL     OW61586   3.031   4.699   2.460 -0.1885  0.2748 -0.3098
19778SOL    HW161587   3.021   4.789   2.427 -2.4800 -0.1854 -1.0593
19778SOL    HW261588   3.003   4.704   2.551  1.4399  0.6159  0.2085
19779SOL     OW61589   3.473   0.024   4.805  0.1471 -0.0039 -0.1022
19779SOL    HW161590   3.554   0.071   4.784  0.2454 -0.8043 -1.6081
19779SOL    HW261591   3.442   0.066   4.885 -0.1292  3.1296 -1.6938
19780SOL     OW61592   9.171   1.955   7.105 -0.3367 -0.2931 -0.4958
19780SOL    HW161593   9.108   1.921   7.041 -1.0536 -0.7525  0.4341
19780SOL    HW261594   9.131   1.936   7.190  0.4102  0.6710  0.0871
19781SOL     OW61595   8.803   3.287   3.586 -0.3354 -0.4755  0.6255
19781SOL    HW161596   8.730   3.341   3.553 -0.5485 -0.6370  0.8284
19781SOL    HW261597   8.814   3.220   3.519  0.0830 -0.0522  0.2583
19782SOL     OW61598   9.802  10.385  10.570  0.0074  0.0656 -0.3400
19782SOL    HW161599   9.893  10.399  10.543 -0.1848  0.8336 -0.6094
19782SOL    HW261600   9.805  10.387  10.666  0.1239  1.2052 -0.3499
19783SOL     OW61601   4.880   9.350   4.951  0.0831 -0.2906 -0.1210
19783SOL    HW161602   4.845   9.308   5.030 -0.1062  0.3556  0.1495
19783SOL    HW261603   4.886   9.279   4.887 -0.4163 -0.6931  0.2616
19784SOL     OW61604  10.512   3.333   3.619 -0.3664  0.5293 -0.6229
19784SOL    HW161605  10.435   3.372   3.660 -1.1885 -0.5474 -1.0795
19784SOL    HW261606  10.514   3.244   3.655  2.2218  1.2841  1.4453
19785SOL     OW61607   2.408   1.318  10.328  0.1610  0.1413  0.1192
19785SOL    HW161608   2.330   1.267  10.352  0.8434 -0.6911  0.5962
19785SOL    HW261609   2.374   1.405  10.309 -0.9952 -0.4013 -0.4108
19786SOL     OW61610   5.777   3.011   8.370  0.5580 -0.2530 -0.1942
19786SOL    HW161611   5.707   2.963   8.415  2.8923 -1.2740  2.6805
19786SOL    HW261612   5.748   3.102   8.371 -1.2643 -0.7793 -0.2794
19787SOL     OW61613   4.222   5.138   5.981 -0.0155 -0.4592  0.6709
19787SOL    HW161614   4.169   5.115   6.058 -1.5785 -0.4135 -0.3574
19787SOL    HW261615   4.274   5.213   6.009 -2.1919  0.9997  1.0653
19788SOL     OW61616   5.265   4.041   0.930 -0.1353 -0.2527  0.2667
19788SOL    HW161617   5.334   4.035   0.996 -0.2403 -1.4590  0.2881
19788SOL    HW261618   5.266   4.132   0.903 -0.6851  0.4882  2.5485
19789SOL     OW61619   0.062   0.230   8.089  0.1559  0.5221  0.0666
19789SOL    HW161620   0.042   0.200   8.177 -0.2119  1.6118  0.3550
19789SOL    HW261621  -0.015   0.206   8.037  0.4402 -0.2652 -0.0041
19790SOL     OW61622   5.030   8.498   9.869 -0.6801  0.2635  0.2782
19790SOL    HW161623   5.116   8.459   9.882 -0.2189  1.0934 -0.2360
19790SOL    HW261624   4.986   8.438   9.809 -0.5853 -0.3245  0.7842
19791SOL     OW61625   9.304   1.043   9.702  0.5707  0.4388 -0.7354
19791SOL    HW161626   9.310   0.948   9.689 -0.6767  0.1060  0.8547
19791SOL    HW261627   9.370   1.079   9.642  1.0679 -1.4131 -1.3843
19792SOL     OW61628   7.426   0.800   2.530  0.3355  0.1947  0.0506
19792SOL    HW161629   7.416   0.739   2.603 -0.3129  0.6986  0.3903
19792SOL    HW261630   7.337   0.811   2.496  0.5771  0.2603 -0.5777
19793SOL     OW61631   4.546   5.493   2.699  0.5175  0.0193  0.0977
19793SOL    HW161632   4.589   5.576   2.719  1.5755 -0.5180  0.1354
19793SOL    HW261633   4.608   5.426   2.728 -0.5566 -0.8051  0.6130
19794SOL     OW61634   2.648   8.617   1.083 -0.5424 -0.0612  0.1304
19794SOL    HW161635   2.675   8.666   1.005 -0.5483  0.1984  0.2874
19794SOL    HW261636   2.629   8.529   1.052  0.4218 -0.2331  0.0012
19795SOL     OW61637   2.403   0.058   5.169 -0.0358 -0.1190 -0.0359
19795SOL    HW161638   2.409  -0.032   5.136 -1.7446 -0.4330  0.4184
19795SOL    HW261639   2.318   0.089   5.138 -0.3259  0.6509  1.4650
19796SOL     OW61640   2.780   9.646   4.696 -0.3260  0.2832 -0.1949
19796SOL    HW161641   2.784   9.552   4.716 -1.9948  0.0800 -0.7073
19796SOL    HW261642   2.828   9.654   4.613  0.6717  0.0663  0.3380
19797SOL     OW61643   2.251   3.723   3.493 -0.6711  0.5827  0.0123
19797SOL    HW161644   2.311   3.719   3.419 -0.6573 -1.5802  0.0792
19797SOL    HW261645   2.181   3.782   3.464 -0.1119  0.6492 -1.2787
19798SOL     OW61646   5.054   8.018   1.580 -0.0858  0.0964  0.2038
19798SOL    HW161647   5.021   7.943   1.530 -2.7201  1.4167 -0.2392
19798SOL    HW261648   5.016   8.094   1.536  2.1136  1.6990  0.9214
19799SOL     OW61649   7.083   7.538   5.307 -0.0691  0.1045  0.3799
19799SOL    HW161650   7.082   7.563   5.215  0.0564  1.6819  0.7797
19799SOL    HW261651   6.994   7.557   5.338  0.2730  0.8991  0.9018
19800SOL     OW61652   9.131   2.901   7.613 -0.1448 -0.1743  0.1517
19800SOL    HW161653   9.191   2.829   7.593  0.8735  0.6676  0.0606
19800SOL    HW261654   9.126   2.903   7.709  1.8766  1.1847  0.3087
19801SOL     OW61655   8.567   2.549   9.936  0.7135 -0.4150 -0.6878
19801SOL    HW161656   8.540   2.531   9.846 -0.4228  0.9813 -0.6569
19801SOL    HW261657   8.488   2.534   9.988  1.2762 -0.8962  0.0414
19802SOL     OW61658   6.013   6.037   6.906  0.3538 -0.0522  0.3183
19802SOL    HW161659   5.930   6.022   6.862  0.7471 -0.6353 -0.2339
19802SOL    HW261660   6.004   6.124   6.946 -0.4407 -0.0314  0.0989
19803SOL     OW61661   2.052   7.894   9.303 -0.4647 -0.1281 -0.2321
19803SOL    HW161662   2.140   7.919   9.333  0.1497 -1.6464 -0.6812
19803SOL    HW261663   1.999   7.895   9.382  0.2769 -0.4845  0.2827
19804SOL     OW61664   9.614   5.541   5.648  0.0267 -0.0302 -0.2066
19804SOL    HW161665   9.597   5.464   5.703  0.6689  1.1940  1.8039
19804SOL    HW261666   9.682   5.589   5.695 -0.6484  1.9811 -1.1932
19805SOL     OW61667   9.340   8.982   0.907 -0.4210  0.0486  0.1287
19805SOL    HW161668   9.393   9.061   0.918  2.7005 -1.7586 -0.8831
19805SOL    HW261669   9.393   8.912   0.946 -3.0158 -1.6357  0.8810
19806SOL     OW61670   2.322   4.502   7.940  0.4546 -0.7122  0.0944
19806SOL    HW161671   2.268   4.429   7.970  1.5898 -1.2569  0.8751
19806SOL    HW261672   2.383   4.463   7.878 -0.5913  0.0652 -1.5072
19807SOL     OW61673   9.858   0.316   1.032 -0.2087  0.2096  0.3357
19807SOL    HW161674   9.948   0.302   1.062 -0.5294 -0.2297  1.1058
19807SOL    HW261675   9.842   0.409   1.047  0.0759  0.2652  0.3064
19808SOL     OW61676   5.209   8.789   2.998  0.2041 -0.0173 -0.4938
19808SOL    HW161677   5.293   8.818   3.033  1.8442 -1.3018 -3.1169
19808SOL    HW261678   5.205   8.696   3.018  0.2449 -0.3351 -1.8589
19809SOL     OW61679   0.180   7.759   5.937 -0.1556  0.2859 -0.4842
19809SOL    HW161680   0.232   7.706   5.998  0.0787  0.6499 -0.3628
19809SOL    HW261681   0.229   7.841   5.929 -0.5879  0.5383 -0.5607
19810SOL     OW61682   7.646   2.228   1.634 -0.1651 -0.3752  0.5294
19810SOL    HW161683   7.736   2.195   1.631  0.1720  0.5367  0.1376
19810SOL    HW261684   7.631   2.265   1.547 -0.3069  1.0117  1.1171
19811SOL     OW61685   1.243   6.502   2.939 -0.2865  0.1222 -0.7268
19811SOL    HW161686   1.244   6.519   2.845  1.2676  1.8278 -0.4495
19811SOL    HW261687   1.150   6.509   2.963 -0.3624  3.1690 -1.5844
19812SOL     OW61688   5.282   4.151   0.186 -0.1003  0.7081  0.7232
19812SOL    HW161689   5.266   4.087   0.255 -0.2456 -0.8919 -0.7061
19812SOL    HW261690   5.349   4.209   0.221  0.7731 -0.8399  1.7318
19813SOL     OW61691   5.951   8.970   6.854  0.1050 -0.4555 -0.0419
19813SOL    HW161692   5.935   9.002   6.765 -1.0806 -1.6791 -0.2950
19813SOL    HW261693   5.949   8.875   6.846 -1.8046 -0.6142  1.5522
19814SOL     OW61694   5.349   9.914   1.187 -0.2715  0.5505  0.0904
19814SOL    HW161695   5.334   9.934   1.280  0.6377  2.4880 -0.1113
19814SOL    HW261696   5.262   9.922   1.147 -0.9307 -1.6606  0.9283
19815SOL     OW61697   6.745   2.539   8.762  0.0512  0.1236  0.0846
19815SOL    HW161698   6.829   2.508   8.728  1.0923  2.4622  0.3643
19815SOL    HW261699   6.696   2.564   8.684 -0.1222 -0.5349 -0.0295
19816SOL     OW61700   4.106   6.337   3.888  0.4749 -0.0628 -0.2983
19816SOL    HW161701   4.044   6.363   3.819  0.9177  0.5538 -0.4778
19816SOL    HW261702   4.139   6.420   3.923  0.4978 -0.3775  0.4402
19817SOL     OW61703   1.562   4.130   3.101 -0.0440 -0.1927 -0.2520
19817SOL    HW161704   1.622   4.156   3.031 -0.9544  1.2787 -0.5224
19817SOL    HW261705   1.546   4.037   3.085  0.3573 -0.0618 -1.5450
19818SOL     OW61706   4.148   6.552   5.723 -0.4566 -0.4699  0.2391
19818SOL    HW161707   4.065   6.595   5.701 -1.1548 -1.6207  0.4919
19818SOL    HW261708   4.122   6.463   5.749  0.9672 -1.2959 -0.9670
19819SOL     OW61709   1.473   6.017   4.191 -0.1500  0.1908 -0.0162
19819SOL    HW161710   1.491   5.972   4.273 -3.1412 -0.9673  0.1302
19819SOL    HW261711   1.439   5.950   4.133 -1.2870  1.5762 -1.0376
19820SOL     OW61712   5.730   0.023  10.221 -0.5020 -0.3042  0.1142
19820SOL    HW161713   5.708  -0.025  10.301 -1.1304  0.8846  0.6775
19820SOL    HW261714   5.681   0.104  10.228 -0.8864 -0.3544 -1.6942
19821SOL     OW61715   3.017   9.084   9.736  0.3530  0.4144  0.4606
19821SOL    HW161716   3.109   9.090   9.712 -0.1334  0.5363 -1.5012
19821SOL    HW261717   2.969   9.094   9.654 -1.3729 -3.1149  0.8444
19822SOL     OW61718   9.107   3.611   7.309  0.2644  0.5545 -0.4286
19822SOL    HW161719   9.031   3.609   7.367  0.2909 -1.0098 -0.4045
19822SOL    HW261720   9.173   3.558   7.354  0.8141  0.5814 -1.1811
19823SOL     OW61721   5.083   6.838   3.100 -0.5241 -0.7201  0.1308
19823SOL    HW161722   5.131   6.897   3.159  1.2516 -0.6696 -1.2810
19823SOL    HW261723   4.993   6.872   3.099 -0.8531 -1.1849  3.3437
19824SOL     OW61724   2.940   8.546   5.695  0.2490  0.0730 -0.4153
19824SOL    HW161725   2.971   8.635   5.712 -0.6905  0.2803  0.3201
19824SOL    HW261726   2.888   8.554   5.615  0.5446  0.0845 -0.6101
19825SOL     OW61727   7.701   0.031   7.956 -1.1952  0.1577 -0.2494
19825SOL    HW161728   7.768   0.098   7.962 -1.3975  0.4456 -1.0308
19825SOL    HW261729   7.716  -0.026   8.031 -0.6098  0.6997  0.0489
19826SOL     OW61730   9.916   2.178   6.431  0.0319  0.3378  0.0301
19826SOL    HW161731   9.858   2.226   6.490  0.2508  0.6002  0.0332
19826SOL    HW261732   9.897   2.086   6.449  0.1480  0.4133  0.5680
19827SOL     OW61733   5.065   4.037   4.916 -0.0676 -0.2882 -0.6218
19827SOL    HW161734   5.129   4.087   4.967  0.2778 -1.0367 -0.3035
19827SOL    HW261735   5.007   3.998   4.982 -1.3550  1.0232 -0.9412
19828SOL     OW61736   8.843   7.869   2.658  0.3478  0.2445 -0.6526
19828SOL    HW161737   8.926   7.853   2.703  0.4468 -0.4946 -1.0733
19828SOL    HW261738   8.819   7.958   2.683  1.7507  0.8296 -1.2784
19829SOL     OW61739   3.233   9.216   2.808 -0.4254 -0.3139 -0.0120
19829SOL    HW161740   3.198   9.200   2.721  0.2480  0.2690 -0.4070
19829SOL    HW261741   3.156   9.222   2.864 -0.8826 -0.3980 -0.6147
19830SOL     OW61742  10.569   0.709   1.362 -0.5536 -0.2708 -0.1180
19830SOL    HW161743  10.599   0.660   1.439 -1.7061 -0.9498 -0.0876
19830SOL    HW261744  10.474   0.698   1.362 -0.8239  1.6459 -0.3321
19831SOL     OW61745   5.803   2.585   6.128 -0.2933  0.0799 -0.0051
19831SOL    HW161746   5.861   2.636   6.071  0.0362 -0.7065 -0.3968
19831SOL    HW261747   5.734   2.646   6.153  1.7034  1.6783  2.0757
19832SOL     OW61748   5.736   7.191   8.069  0.5035  0.8261  0.2295
19832SOL    HW161749   5.647   7.165   8.046  0.2790  1.5856  0.2269
19832SOL    HW261750   5.727   7.232   8.155  0.9509  0.3274  0.5194
19833SOL     OW61751   9.827   3.799   6.422 -0.0576 -0.1558  0.1027
19833SOL    HW161752   9.904   3.742   6.422  1.1639  1.3343 -2.2514
19833SOL    HW261753   9.780   3.777   6.342 -0.5631  0.8697  0.0900
19834SOL     OW61754   1.365   3.927   5.281  0.0342 -0.0144  0.0245
19834SOL    HW161755   1.280   3.884   5.269 -0.6936  1.1080  0.8946
19834SOL    HW261756   1.382   3.921   5.375  0.6491  0.2571 -0.0650
19835SOL     OW61757   8.581   9.102   3.181 -0.1049 -0.0902  0.2543
19835SOL    HW161758   8.509   9.081   3.241 -0.0543 -0.4531  0.1924
19835SOL    HW261759   8.560   9.054   3.101  0.4447 -0.5790  0.4002
19836SOL     OW61760   4.599   8.391   0.251 -0.1043  0.0118  0.1920
19836SOL    HW161761   4.549   8.309   0.257  0.4012 -0.2741  0.6816
19836SOL    HW261762   4.587   8.420   0.161 -2.5690  0.8823  0.7258
19837SOL     OW61763   3.700   3.117   5.293  0.7172 -0.1006 -0.4733
19837SOL    HW161764   3.747   3.181   5.347  0.5610  0.8119 -1.3882
19837SOL    HW261765   3.769   3.061   5.258  0.9875  0.3352 -0.6495
19838SOL     OW61766  10.488   7.147   7.441 -0.1302  0.3983  0.4251
19838SOL    HW161767  10.519   7.100   7.364  1.1863  2.0389 -0.1010
19838SOL    HW261768  10.562   7.146   7.502 -0.8425 -0.0789  1.3230
19839SOL     OW61769   1.220   8.739   9.420  0.3168 -0.4931  0.1793
19839SOL    HW161770   1.235   8.714   9.511 -0.5278 -1.6756  0.0064
19839SOL    HW261771   1.125   8.736   9.409  0.3812  0.0529 -0.6310
19840SOL     OW61772   9.744   8.334   3.078  0.3002 -0.0092 -0.0286
19840SOL    HW161773   9.729   8.298   3.165  1.1975 -0.0724  0.1169
19840SOL    HW261774   9.816   8.397   3.091  0.5675 -0.1570 -0.7498
19841SOL     OW61775   2.475   5.321   5.874 -0.7383 -0.3658  0.2716
19841SOL    HW161776   2.441   5.309   5.962  0.8276 -1.6829  0.7340
19841SOL    HW261777   2.497   5.233   5.844  0.9051  0.2831 -0.5274
19842SOL     OW61778   1.938  10.230   6.625 -0.0933 -0.1126 -0.0855
19842SOL    HW161779   1.870  10.285   6.587  0.0827 -0.0166 -0.2677
19842SOL    HW261780   1.901  10.142   6.626 -0.3435 -0.0038  0.1253
19843SOL     OW61781   4.182   3.358  10.405 -0.6267 -0.0146 -0.0935
19843SOL    HW161782   4.087   3.347  10.407 -0.6078 -0.9752  3.6267
19843SOL    HW261783   4.216   3.270  10.395 -0.0757  0.3041 -1.1993
19844SOL     OW61784   9.020   9.451   8.515  0.3522  0.4025 -0.0782
19844SOL    HW161785   8.977   9.534   8.493 -2.8554 -0.9646  0.5931
19844SOL    HW261786   8.998   9.436   8.607 -0.2027 -1.7641 -0.5220
19845SOL     OW61787   7.136  10.597   4.938 -0.4318  0.4986  0.0775
19845SOL    HW161788   7.052  10.640   4.926 -0.0401  1.1895 -0.2520
19845SOL    HW261789   7.201  10.661   4.909  0.2902  0.4739  1.5404
19846SOL     OW61790  10.262   5.090   5.281  0.2381 -0.3198 -0.0777
19846SOL    HW161791  10.168   5.094   5.261  0.4940 -2.0022 -1.9777
19846SOL    HW261792  10.295   5.176   5.257 -0.3156 -0.7507 -2.7230
19847SOL     OW61793   8.751   7.457   2.754  0.2746 -0.9374 -0.0314
19847SOL    HW161794   8.792   7.497   2.830  0.2388 -0.5757 -0.2038
19847SOL    HW261795   8.822   7.413   2.708  1.0062  1.8371 -1.7523
19848SOL     OW61796   6.041   2.015   9.369 -0.1876 -0.0804  0.4310
19848SOL    HW161797   6.052   1.982   9.279  0.9494  1.4692 -0.0474
19848SOL    HW261798   6.110   1.973   9.419  0.2796  0.3829  0.1782
19849SOL     OW61799   6.589   8.305   4.072 -0.6100 -0.2903 -0.3580
19849SOL    HW161800   6.524   8.326   4.139 -0.6708  0.0910 -0.5318
19849SOL    HW261801   6.670   8.288   4.120 -0.6639 -0.0602 -0.1877
19850SOL     OW61802   5.695  10.511   5.993  0.0878  0.3633  0.0883
19850SOL    HW161803   5.619  10.523   5.936 -0.9807 -1.7353  0.9610
19850SOL    HW261804   5.762  10.473   5.936 -0.9196 -1.5755  0.1079
19851SOL     OW61805   9.235   1.394   8.657 -0.0029  0.1885  0.4634
19851SOL    HW161806   9.163   1.453   8.679 -0.6689 -0.8554  1.1759
19851SOL    HW261807   9.193   1.309   8.643  1.1891 -0.7513  2.1381
19852SOL     OW61808  10.458   9.189   1.546 -0.5233  0.1574  0.1521
19852SOL    HW161809  10.424   9.139   1.621  1.5766 -0.1419  0.9593
19852SOL    HW261810  10.516   9.128   1.501  0.0950  1.0955 -0.3433
19853SOL     OW61811   5.693  10.509   1.167  0.5615  0.1857 -0.1658
19853SOL    HW161812   5.616  10.514   1.110 -0.5131  2.3367  1.3276
19853SOL    HW261813   5.667  10.451   1.238  1.7212 -2.0769 -1.4628
19854SOL     OW61814  10.384   0.385   4.114  0.6143 -0.1653 -0.5042
19854SOL    HW161815  10.320   0.413   4.179  0.0387  0.0836 -1.1633
19854SOL    HW261816  10.419   0.467   4.079  1.2920 -0.2983 -0.1606
19855SOL     OW61817   7.712   8.754   6.264 -0.3733 -0.7919 -0.3527
19855SOL    HW161818   7.741   8.770   6.174 -0.1184 -1.7769 -0.4549
19855SOL    HW261819   7.624   8.717   6.254 -1.5222  1.6236 -0.0662
19856SOL     OW61820   9.047   1.847   6.364  0.4574  0.2258  0.7242
19856SOL    HW161821   9.070   1.758   6.335 -1.1228 -0.3477  1.1318
19856SOL    HW261822   9.130   1.895   6.360  1.2001 -1.0508 -0.2529
19857SOL     OW61823   6.898   4.744  10.102  0.6319 -0.1085 -0.0704
19857SOL    HW161824   6.901   4.780  10.191  0.9926 -1.9231  0.6950
19857SOL    HW261825   6.868   4.654  10.114  1.5877 -0.6819 -1.6955
19858SOL     OW61826   1.270   6.259   3.635 -0.0842 -0.2237  0.7900
19858SOL    HW161827   1.174   6.249   3.636 -0.5370  3.1358  1.9381
19858SOL    HW261828   1.290   6.293   3.548  0.1683 -1.3048  0.4075
19859SOL     OW61829   7.622   3.591   0.182 -0.4371  0.3748 -0.6690
19859SOL    HW161830   7.591   3.678   0.207 -0.9053 -0.2500  1.0704
19859SOL    HW261831   7.634   3.545   0.265 -3.8421 -2.4465 -1.5075
19860SOL     OW61832   5.054   6.326   4.248  0.0276 -0.7525 -0.9253
19860SOL    HW161833   5.065   6.377   4.328  0.8634  0.7743 -1.9629
19860SOL    HW261834   5.072   6.388   4.177  0.5932 -2.3769 -2.2754
19861SOL     OW61835   2.086   1.345   8.535  0.3291 -0.4400  0.2072
19861SOL    HW161836   2.128   1.310   8.614 -1.6206 -1.4003  0.8676
19861SOL    HW261837   2.159   1.371   8.479  1.7826 -0.9292  1.7826
19862SOL     OW61838   6.141   6.802   3.318  0.6761 -0.2181 -0.0036
19862SOL    HW161839   6.235   6.793   3.304  0.8088  1.6241 -0.5891
19862SOL    HW261840   6.129   6.783   3.411  1.9257  1.2454  0.5116
19863SOL     OW61841   4.014   9.822   0.275 -0.1171  0.5118 -0.7587
19863SOL    HW161842   3.947   9.772   0.228  0.3179  0.4107 -1.2774
19863SOL    HW261843   4.068   9.860   0.207  0.5965  0.2736 -0.3371
19864SOL     OW61844   4.534  10.205   3.196  0.5853  0.2312  1.2545
19864SOL    HW161845   4.549  10.245   3.110  0.6559  1.4391  1.8134
19864SOL    HW261846   4.445  10.230   3.219  1.0414  1.0750  2.1360
19865SOL     OW61847   6.208   8.207   1.497 -0.4655  0.1985 -0.3779
19865SOL    HW161848   6.157   8.182   1.420 -0.2651 -0.8844 -0.1679
19865SOL    HW261849   6.299   8.195   1.472 -0.4259 -1.2098  0.3590
19866SOL     OW61850   6.437   2.041   7.257  0.2789  0.1964  0.0370
19866SOL    HW161851   6.457   2.125   7.299 -0.8024  1.1095 -1.2122
19866SOL    HW261852   6.506   2.031   7.191  0.2769  0.1972  0.0351
19867SOL     OW61853  10.311   8.238   6.674  0.3157  0.5108 -0.0447
19867SOL    HW161854  10.327   8.317   6.623  0.5792  0.1300 -0.5562
19867SOL    HW261855  10.383   8.179   6.652  0.2172  0.1883  0.4615
19868SOL     OW61856   5.933   4.473   0.892  0.0267  0.4889 -0.1027
19868SOL    HW161857   5.857   4.471   0.950  0.8831 -0.4219  1.0080
19868SOL    HW261858   5.957   4.382   0.879  0.3773  0.7210 -1.1999
19869SOL     OW61859   0.318   6.697   0.356  0.1425  0.0878 -0.1151
19869SOL    HW161860   0.380   6.661   0.420 -0.8553  0.4328  1.0903
19869SOL    HW261861   0.373   6.745   0.294  1.4198 -2.5833 -1.2043
19870SOL     OW61862   8.125   0.181   3.631  0.5541  0.2925 -0.2684
19870SOL    HW161863   8.207   0.131   3.629  0.1323 -0.4308  0.2849
19870SOL    HW261864   8.154   0.272   3.640  1.2976  0.0253  0.2213
19871SOL     OW61865   1.768   1.069   8.656  0.2535 -0.7290 -0.3767
19871SOL    HW161866   1.765   1.035   8.746 -0.6826 -3.5810 -1.3665
19871SOL    HW261867   1.747   1.162   8.665 -1.9215 -1.3319  2.2018
19872SOL     OW61868   3.649   2.555   6.100  0.3239  0.0068  0.7854
19872SOL    HW161869   3.651   2.592   6.188  0.9352  0.4146  0.6036
19872SOL    HW261870   3.557   2.540   6.082 -0.0067  2.0485  0.6102
19873SOL     OW61871   3.852   2.846  10.429 -0.6686  0.3031  0.3125
19873SOL    HW161872   3.825   2.805  10.346 -0.5732  1.8375 -0.5038
19873SOL    HW261873   3.770   2.856  10.477 -0.8512  0.2169  0.0274
19874SOL     OW61874   1.912   8.061   1.360  0.7640 -0.6556  0.5852
19874SOL    HW161875   1.879   8.095   1.444  0.2438  1.0116 -0.2481
19874SOL    HW261876   1.993   8.015   1.383  0.8648  0.1530  1.9603
19875SOL     OW61877   6.343   7.283   7.855  0.1296 -0.5148  0.5047
19875SOL    HW161878   6.249   7.302   7.855 -0.0540 -1.2231  2.4161
19875SOL    HW261879   6.352   7.204   7.908  1.8116 -0.5087  0.2871
19876SOL     OW61880   6.864   2.653   8.997 -0.1100 -0.4888  0.1690
19876SOL    HW161881   6.805   2.727   8.986 -0.6148 -0.8743  0.2620
19876SOL    HW261882   6.846   2.597   8.922 -0.4155 -0.9820  0.6067
19877SOL     OW61883   7.205   6.368   3.900  0.6327  0.4073 -0.4380
19877SOL    HW161884   7.196   6.286   3.948  1.9579  0.3563 -0.2517
19877SOL    HW261885   7.299   6.380   3.890  0.5422  2.6301  0.7983
19878SOL     OW61886   1.591   5.630   5.727 -0.9872  0.4134 -0.0266
19878SOL    HW161887   1.665   5.585   5.767 -0.2091 -0.3538 -2.1484
19878SOL    HW261888   1.556   5.686   5.796  1.1935  0.3404  1.2326
19879SOL     OW61889   7.816   3.268   1.993 -0.8839 -0.5255 -0.5178
19879SOL    HW161890   7.801   3.280   1.899 -0.9644 -0.9745 -0.5648
19879SOL    HW261891   7.911   3.259   2.001 -0.5917  2.1323 -0.2416
19880SOL     OW61892   8.752  10.255   9.848  0.2048  0.3307  0.0532
19880SOL    HW161893   8.808  10.179   9.832 -2.1096 -1.2152 -1.3012
19880SOL    HW261894   8.669  10.233   9.805 -1.2282  2.7873  1.3422
19881SOL     OW61895   7.206   9.824   4.712 -0.1526 -0.1028  0.1907
19881SOL    HW161896   7.243   9.780   4.635  1.1087  1.0739  0.0906
19881SOL    HW261897   7.258   9.904   4.721 -0.4485 -0.0914  2.1317
19882SOL     OW61898   0.424   2.115   3.131  0.0248 -0.1553 -0.1644
19882SOL    HW161899   0.519   2.103   3.136  0.0498 -2.0109 -2.8181
19882SOL    HW261900   0.396   2.121   3.222  2.6539  0.4590  0.7048
19883SOL     OW61901   0.996   6.436   7.494  0.4814  0.0037 -0.1721
19883SOL    HW161902   1.075   6.434   7.440 -0.2415 -1.3695 -1.2410
19883SOL    HW261903   0.965   6.346   7.494 -0.3150  0.2532  1.4227
19884SOL     OW61904   3.353  10.203   9.782 -0.2973 -0.4722 -0.3709
19884SOL    HW161905   3.291  10.143   9.823  0.2753 -0.3701  0.6639
19884SOL    HW261906   3.436  10.188   9.827 -0.0338  0.7595 -0.3946
19885SOL     OW61907   6.176   1.565   6.911 -0.1765 -0.3845 -0.1438
19885SOL    HW161908   6.169   1.485   6.963 -1.7894  0.4942  1.0686
19885SOL    HW261909   6.178   1.535   6.821  0.6381 -1.8498  0.3315
19886SOL     OW61910   4.572   9.349   2.142  0.2546 -0.3654 -0.1632
19886SOL    HW161911   4.478   9.365   2.151  0.0741 -0.0299 -2.1419
19886SOL    HW261912   4.580   9.254   2.135 -0.0169 -0.3588 -0.6048
19887SOL     OW61913   1.916   3.528   2.780  0.4447 -0.2025  0.5500
19887SOL    HW161914   1.899   3.563   2.693  1.8338 -0.9736 -0.0574
19887SOL    HW261915   1.831   3.498   2.811 -0.1366  0.4407 -0.3747
19888SOL     OW61916   5.708   3.273   7.629  0.4299 -0.0864 -0.0614
19888SOL    HW161917   5.720   3.283   7.535  0.3802  1.1023  0.0509
19888SOL    HW261918   5.705   3.362   7.663  0.0033 -0.4933  1.0156
19889SOL     OW61919  10.052   1.510   4.266  0.1963 -0.1473  0.5994
19889SOL    HW161920  10.086   1.425   4.297  1.0734  0.1608  0.5185
19889SOL    HW261921   9.995   1.488   4.193 -0.9143 -0.7941  1.6189
19890SOL     OW61922   0.382   8.510   9.015 -0.2213 -0.4811  0.4496
19890SOL    HW161923   0.373   8.571   8.941  2.3138 -1.8335 -1.1568
19890SOL    HW261924   0.376   8.566   9.093 -1.9333  1.1814 -0.7811
19891SOL     OW61925   1.062   5.173   2.555 -0.0800 -0.7472  0.1221
19891SOL    HW161926   1.097   5.253   2.593  0.5449 -1.1032  0.2964
19891SOL    HW261927   1.110   5.102   2.597 -1.4380 -1.2813  0.8314
19892SOL     OW61928   4.807   6.099   8.158  0.5358  0.2110  0.5531
19892SOL    HW161929   4.829   6.015   8.118 -0.5046  0.2090 -0.0457
19892SOL    HW261930   4.794   6.078   8.250 -0.1635 -0.3767  0.3293
19893SOL     OW61931  10.179   5.044   0.952 -0.0235 -0.2762 -0.0170
19893SOL    HW161932  10.222   4.959   0.963 -0.3047 -0.4746 -0.4267
19893SOL    HW261933  10.172   5.055   0.857 -0.9445 -0.2884  0.0389
19894SOL     OW61934   8.847   5.215   4.082 -0.3802  0.3565 -0.8489
19894SOL    HW161935   8.836   5.218   4.177 -1.3586  0.8771 -0.9710
19894SOL    HW261936   8.941   5.229   4.069  0.5186 -3.4671  0.1993
19895SOL     OW61937   8.949   8.788   6.440 -0.3623 -0.1963 -0.7311
19895SOL    HW161938   8.953   8.869   6.391  0.5420  0.2983  0.1194
19895SOL    HW261939   9.035   8.748   6.429 -1.2373 -1.8078 -2.3365
19896SOL     OW61940   8.244   8.381   2.121 -0.2629  0.2345  0.3038
19896SOL    HW161941   8.172   8.444   2.122  1.5665  2.4988 -0.1731
19896SOL    HW261942   8.320   8.432   2.092  1.1504 -2.4794 -1.1890
19897SOL     OW61943   1.522   7.754   0.574 -0.0518 -0.2765 -0.1927
19897SOL    HW161944   1.486   7.783   0.490  0.1082 -0.9331 -0.4990
19897SOL    HW261945   1.613   7.733   0.555  0.1385  0.1057  0.2788
19898SOL     OW61946   3.008   7.439   7.047 -0.1469  0.0872 -0.8247
19898SOL    HW161947   2.955   7.387   7.108 -2.5325  1.4844 -1.5874
19898SOL    HW261948   3.085   7.465   7.099  0.1823 -2.4887  0.1442
19899SOL     OW61949   1.535  10.398   6.145  0.7867  0.2225  0.1191
19899SOL    HW161950   1.517  10.305   6.164  2.7601 -0.4927 -1.1833
19899SOL    HW261951   1.454  10.430   6.106 -0.3178 -0.6190  1.6141
19900SOL     OW61952   7.480   0.849   6.039 -0.2296 -0.0927 -0.1658
19900SOL    HW161953   7.392   0.815   6.025  0.0806 -0.2828 -1.7929
19900SOL    HW261954   7.475   0.940   6.009 -0.0843  0.1789  0.5995
19901SOL     OW61955   2.921   6.189  10.639  0.5389  0.1713 -0.0164
19901SOL    HW161956   2.845   6.153  10.684  1.0304  1.4695  2.0173
19901SOL    HW261957   2.897   6.190  10.546 -1.9503  0.6052  0.5622
19902SOL     OW61958   7.341   7.200   2.647  0.1129 -0.1226 -0.5991
19902SOL    HW161959   7.326   7.106   2.648 -1.3105  0.0940 -0.3293
19902SOL    HW261960   7.273   7.235   2.590  1.5191  0.6230 -1.8801
19903SOL     OW61961   9.295   4.046   6.897  0.6073  0.0628  0.2181
19903SOL    HW161962   9.335   4.084   6.818  0.3581 -0.6598 -0.2700
19903SOL    HW261963   9.277   4.121   6.953  0.2077  0.6761 -0.6932
19904SOL     OW61964   4.443   8.497   8.682 -0.1615 -0.2458 -0.1635
19904SOL    HW161965   4.519   8.496   8.624  0.0291  1.3776  0.0137
19904SOL    HW261966   4.417   8.589   8.685 -1.3789 -0.6038  0.7588
19905SOL     OW61967   9.553   9.901   0.569 -0.0287 -0.0805  0.1350
19905SOL    HW161968   9.623   9.852   0.525 -1.3847 -0.5110 -1.6677
19905SOL    HW261969   9.479   9.841   0.572 -0.3270  0.3238  2.1329
19906SOL     OW61970   6.766   4.657   0.906  0.6380  0.1864 -0.0082
19906SOL    HW161971   6.735   4.583   0.959  0.8508  0.5840  0.6799
19906SOL    HW261972   6.701   4.664   0.835  1.6430 -1.8540 -1.2016
19907SOL     OW61973   5.640   8.358   2.423  0.1451  0.1408 -0.2698
19907SOL    HW161974   5.591   8.336   2.344 -0.7098  1.2784 -0.0709
19907SOL    HW261975   5.596   8.310   2.493 -0.6521  1.0902 -0.1054
19908SOL     OW61976   3.031   5.225   9.155  0.0826  0.2225  0.1767
19908SOL    HW161977   2.958   5.255   9.210 -0.6088 -3.1786  1.3484
19908SOL    HW261978   2.988   5.183   9.080  0.7632 -1.4372  0.6693
19909SOL     OW61979   0.167   1.412   0.343 -0.3688  0.0441 -0.3707
19909SOL    HW161980   0.080   1.434   0.375 -0.3892 -0.7857  0.1958
19909SOL    HW261981   0.214   1.495   0.340 -1.3098  0.5587 -1.1112
19910SOL     OW61982   7.015   5.338   8.390  0.5991 -0.0751  0.0291
19910SOL    HW161983   7.082   5.270   8.399  0.5715 -0.2041 -0.6931
19910SOL    HW261984   6.988   5.357   8.480  0.7933 -0.8314  0.2534
19911SOL     OW61985   3.794   9.846   9.737 -0.3230 -0.3423  0.2018
19911SOL    HW161986   3.784   9.882   9.825  0.3705  0.8301 -0.1726
19911SOL    HW261987   3.741   9.766   9.737 -1.7903  0.5962  1.1244
19912SOL     OW61988   8.106   4.175   7.372  0.1472  0.1877  0.3072
19912SOL    HW161989   8.089   4.241   7.439  1.3454 -0.9838  1.8339
19912SOL    HW261990   8.026   4.121   7.371  0.0696  0.2946  0.6758
19913SOL     OW61991  10.334   9.180   7.950  0.1553  0.3465 -0.5725
19913SOL    HW161992  10.326   9.272   7.972 -0.8372 -0.3478  2.5970
19913SOL    HW261993  10.421   9.155   7.983  0.2205  0.0288 -0.9688
19914SOL     OW61994   0.485   5.862   0.270  0.0377  0.1127 -0.6756
19914SOL    HW161995   0.403   5.891   0.230 -1.4106 -1.8075  0.6811
19914SOL    HW261996   0.490   5.768   0.249  1.0420 -0.1454  0.5924
19915SOL     OW61997   3.646   2.307   2.767  0.0845 -0.3240  0.6634
19915SOL    HW161998   3.739   2.287   2.772  0.5533  1.0649 -1.1839
19915SOL    HW261999   3.638   2.396   2.801 -0.0817  0.5970 -1.5921
19916SOL     OW62000   7.032   5.580   2.470 -0.2971 -0.1734 -0.4320
19916SOL    HW162001   6.991   5.525   2.537 -0.8087  1.5065  0.7049
19916SOL    HW262002   7.124   5.555   2.471  0.2690  1.5397  2.8172
19917SOL     OW62003   6.334   7.685   8.651  0.0723  0.5401 -0.2877
19917SOL    HW162004   6.385   7.724   8.580 -0.7342 -0.4753 -1.4641
19917SOL    HW262005   6.342   7.591   8.637  2.5493  0.1225  2.8921
19918SOL     OW62006   4.767   4.716   5.509 -0.7574 -0.4418  0.0245
19918SOL    HW162007   4.709   4.690   5.581 -2.1657 -0.7862 -1.1876
19918SOL    HW262008   4.721   4.789   5.467 -0.6329 -1.1422 -1.3493
19919SOL     OW62009   9.385   8.252   3.224  0.1070  0.0083 -0.4320
19919SOL    HW162010   9.467   8.293   3.253 -0.6973  1.6290 -0.3315
19919SOL    HW262011   9.379   8.172   3.277  2.0922 -0.6833 -1.1604
19920SOL     OW62012   8.641  10.318  10.574 -0.1333 -0.2932  0.3684
19920SOL    HW162013   8.674  10.347  10.489  2.6589 -0.5920  1.2287
19920SOL    HW262014   8.689  10.371  10.638 -1.3179 -0.8520  1.7841
19921SOL     OW62015   1.965   3.207   9.208  0.0313  0.3333  0.5566
19921SOL    HW162016   1.950   3.179   9.298  1.6065 -2.3344  0.0934
19921SOL    HW262017   2.053   3.244   9.208  0.5814 -0.9128 -0.0852
19922SOL     OW62018   1.019   8.488   4.385 -0.0252 -0.0449 -0.1337
19922SOL    HW162019   0.979   8.404   4.407 -0.3160  0.4621  1.3617
19922SOL    HW262020   1.055   8.475   4.296  2.5284 -2.7264  1.1022
19923SOL     OW62021   7.266   1.100   2.157 -0.4461 -0.0007 -0.3462
19923SOL    HW162022   7.325   1.101   2.082  0.3716  0.4665  0.2901
19923SOL    HW262023   7.268   1.009   2.188  0.6018  0.1845  0.1717
19924SOL     OW62024   1.817   7.041   9.784 -0.0200  0.2440 -0.2864
19924SOL    HW162025   1.875   7.099   9.833  0.0434  0.9170 -1.1469
19924SOL    HW262026   1.872   7.003   9.716 -0.6999  1.3875 -1.5265
19925SOL     OW62027   1.235   9.922   5.133 -0.5068  0.1728  0.4420
19925SOL    HW162028   1.222   9.912   5.039 -2.1934  0.0777  0.6489
19925SOL    HW262029   1.250   9.833   5.165 -0.2501  0.1683  0.3142
19926SOL     OW62030   1.834   3.381   0.382 -0.1565 -0.1008 -0.2842
19926SOL    HW162031   1.772   3.397   0.453  0.8624 -2.1618  1.1638
19926SOL    HW262032   1.906   3.442   0.400 -0.9752  1.1179 -1.0114
19927SOL     OW62033   5.362   8.274   8.545  0.1222 -0.1306 -0.2826
19927SOL    HW162034   5.455   8.252   8.539  0.5392  1.5425 -0.6983
19927SOL    HW262035   5.321   8.226   8.473  0.5146 -1.4692  0.3591
19928SOL     OW62036   9.635  10.123   1.068  0.0371 -0.6103 -0.5904
19928SOL    HW162037   9.648  10.029   1.073 -0.9908 -0.8085 -1.3556
19928SOL    HW262038   9.558  10.134   1.013 -0.5313  0.6238  0.3838
19929SOL     OW62039   0.522   7.241   1.390 -0.0663 -0.3298 -0.3459
19929SOL    HW162040   0.544   7.327   1.427 -1.1820 -0.2514  0.1891
19929SOL    HW262041   0.450   7.210   1.445 -0.3741 -1.1446 -1.1941
19930SOL     OW62042   8.160   4.765   0.854 -0.0720  0.2439 -0.2843
19930SOL    HW162043   8.102   4.697   0.819  0.5179 -0.2078 -0.3965
19930SOL    HW262044   8.117   4.794   0.934 -1.2432  1.0046 -1.1438
19931SOL     OW62045   5.696   0.896   5.956  0.2761 -0.4163 -0.0386
19931SOL    HW162046   5.610   0.856   5.942  0.3506 -0.5757 -0.0469
19931SOL    HW262047   5.743   0.832   6.010  1.5076 -1.8328 -2.6035
19932SOL     OW62048   8.875  10.517   7.256 -0.1106  0.2151 -1.2262
19932SOL    HW162049   8.903  10.439   7.303 -1.2491  0.6222  0.1758
19932SOL    HW262050   8.949  10.578   7.263 -0.8892  0.9534  1.6674
19933SOL     OW62051   7.812   3.655   6.086  0.1162 -0.1399 -0.6763
19933SOL    HW162052   7.784   3.742   6.112  1.3370 -0.1432  0.8128
19933SOL    HW262053   7.863   3.668   6.007 -0.5321  0.3630 -1.0190
19934SOL     OW62054   1.591   9.967   2.513 -0.0425  0.2191 -0.6209
19934SOL    HW162055   1.522  10.028   2.488  1.1064  1.1684 -1.5857
19934SOL    HW262056   1.638   9.949   2.432  2.1252  1.2685  0.3154
19935SOL     OW62057   8.166   7.219   9.473  0.2481  0.1695  0.4871
19935SOL    HW162058   8.126   7.134   9.493  1.4125 -0.1353  1.7049
19935SOL    HW262059   8.256   7.210   9.503  0.1356  2.1583  1.5876
19936SOL     OW62060   9.600   2.732   3.429 -0.6397  0.1949  0.0391
19936SOL    HW162061   9.655   2.810   3.431 -0.1347 -0.1640  1.3993
19936SOL    HW262062   9.581   2.718   3.337  0.9843  0.7231 -0.4045
19937SOL     OW62063  10.241   1.781   1.899  0.3602 -0.2706  0.6960
19937SOL    HW162064  10.337   1.790   1.896  0.3103  0.1656  0.2904
19937SOL    HW262065  10.212   1.808   1.812 -0.1142 -0.6770  0.7249
19938SOL     OW62066   6.926   8.240   6.241  0.0894 -0.0088 -0.8311
19938SOL    HW162067   6.889   8.164   6.287 -0.1220  0.6119  0.0311
19938SOL    HW262068   6.963   8.202   6.161 -0.6907 -0.9164 -0.7883
19939SOL     OW62069   3.371   2.090   8.804 -0.3686 -0.4531 -0.1161
19939SOL    HW162070   3.310   2.120   8.736  0.4961 -1.1840 -1.2400
19939SOL    HW262071   3.371   1.995   8.797  1.2575 -0.4603 -0.4796
19940SOL     OW62072   0.769   8.617   3.076 -0.2385  0.2219 -0.6739
19940SOL    HW162073   0.681   8.605   3.112  0.6369 -0.3534  1.3774
19940SOL    HW262074   0.808   8.529   3.077  1.8610  0.9893  2.7220
19941SOL     OW62075   1.816   9.827   6.434  0.2399 -0.4588 -0.5564
19941SOL    HW162076   1.723   9.821   6.410 -0.1768 -0.1355  0.8194
19941SOL    HW262077   1.860   9.763   6.379 -0.9860 -1.4614 -0.4192
19942SOL     OW62078   3.313   7.809   5.161  0.1049 -0.2962 -0.1246
19942SOL    HW162079   3.232   7.851   5.132  0.0492 -0.5186 -0.3010
19942SOL    HW262080   3.321   7.732   5.104 -0.4847 -1.2505  1.0106
19943SOL     OW62081  10.306  10.573   5.376 -0.2530  0.1573  0.3125
19943SOL    HW162082  10.290  10.645   5.315  0.7191 -0.8764 -1.2460
19943SOL    HW262083  10.311  10.495   5.320 -4.2279 -1.7212  2.1675
19944SOL     OW62084   9.093   2.071   0.905  0.5345  0.4140  0.8983
19944SOL    HW162085   9.006   2.036   0.886 -0.4953  1.9938  2.4773
19944SOL    HW262086   9.119   2.115   0.824  1.0822 -2.2554 -0.5129
19945SOL     OW62087   2.149   3.722   4.981  0.1907 -0.2396  0.2098
19945SOL    HW162088   2.134   3.777   4.904  1.0903  2.2683  1.6998
19945SOL    HW262089   2.229   3.673   4.960  1.9138  2.2830  0.3759
19946SOL     OW62090   5.784   0.653   7.829  0.3552 -0.2246 -0.2388
19946SOL    HW162091   5.748   0.651   7.740  1.8764  1.0204 -0.9249
19946SOL    HW262092   5.719   0.701   7.880 -0.4626 -0.8210 -0.6883
19947SOL     OW62093   7.378   9.531  10.544  0.3296  0.0360  0.0980
19947SOL    HW162094   7.305   9.592  10.532  0.3404  0.9132  3.6556
19947SOL    HW262095   7.455   9.586  10.551  0.5672 -0.4492  1.6576
19948SOL     OW62096  10.480   3.410   0.374 -0.1371 -0.1377  0.8023
19948SOL    HW162097  10.387   3.421   0.391 -0.0811  0.2697  0.8604
19948SOL    HW262098  10.488   3.422   0.279 -0.1890 -0.5168  0.7480
19949SOL     OW62099   6.118   5.491   9.153 -0.2013  0.1170 -0.3387
19949SOL    HW162100   6.136   5.401   9.129 -1.2301 -0.7731  1.9018
19949SOL    HW262101   6.070   5.527   9.079  0.9000 -0.9138 -1.5885
19950SOL     OW62102   7.525  10.582   4.724 -0.4371 -0.3517 -0.3266
19950SOL    HW162103   7.495  10.502   4.768  0.9203  0.2919  1.9019
19950SOL    HW262104   7.445  10.633   4.713 -0.9042 -0.6960  1.1449
19951SOL     OW62105   1.302   2.644   9.594 -0.0834  0.2674  0.6480
19951SOL    HW162106   1.225   2.610   9.639  0.6333 -0.2597  1.5070
19951SOL    HW262107   1.375   2.593   9.629  0.4288 -0.7982 -1.7310
19952SOL     OW62108   7.637   1.175   1.531 -0.1018  0.6721  0.0777
19952SOL    HW162109   7.637   1.089   1.574  0.3766  0.8913  0.5164
19952SOL    HW262110   7.548   1.185   1.499 -0.3409  0.2990  0.6061
19953SOL     OW62111   8.093   0.524   5.356  0.7967  0.7234 -0.6325
19953SOL    HW162112   8.163   0.475   5.400  2.0667  1.5102 -1.7085
19953SOL    HW262113   8.062   0.585   5.423  1.8499  1.0516 -0.4214
19954SOL     OW62114   0.678   4.801   1.953 -0.4117  0.8273 -0.1538
19954SOL    HW162115   0.703   4.718   1.911 -2.5620  0.2339 -0.3963
19954SOL    HW262116   0.582   4.798   1.955 -0.4696  1.8692  2.7537
19955SOL     OW62117   8.335   3.287   9.113  0.5204 -0.3253 -0.0428
19955SOL    HW162118   8.285   3.213   9.079 -0.2850 -0.4847  1.4263
19955SOL    HW262119   8.325   3.355   9.045  1.0048 -1.4151 -1.2528
19956SOL     OW62120   1.864   2.724   0.613 -0.4626  0.1615  0.5725
19956SOL    HW162121   1.872   2.695   0.703 -1.1619 -0.3337  0.4821
19956SOL    HW262122   1.953   2.751   0.588 -0.6271  2.2833  2.0486
19957SOL     OW62123   1.859   6.984   6.375  0.1387  0.3213  0.0088
19957SOL    HW162124   1.782   6.999   6.430 -1.3272  0.2203 -1.8958
19957SOL    HW262125   1.933   7.012   6.429 -0.9952 -1.3830  2.6508
19958SOL     OW62126   0.990  10.030   5.223  0.0689 -0.0315  0.5824
19958SOL    HW162127   0.972   9.979   5.302  1.6512  0.1174  1.0692
19958SOL    HW262128   1.070   9.991   5.187  0.9033  1.5999  0.5724
19959SOL     OW62129   8.810   0.589   7.189 -0.0924  0.1133  0.1040
19959SOL    HW162130   8.862   0.553   7.116 -0.4899 -1.6930  0.6496
19959SOL    HW262131   8.840   0.540   7.265 -0.7914  0.8796  0.8863
19960SOL     OW62132   4.677   1.258   8.026  0.0252  0.2053  0.1179
19960SOL    HW162133   4.613   1.187   8.032  0.1741 -0.4407 -3.3786
19960SOL    HW262134   4.625   1.337   8.016 -0.2317 -0.0332 -0.4836
19961SOL     OW62135   5.032  10.575   8.525  0.0995  0.3554  0.2096
19961SOL    HW162136   4.997  10.502   8.474  2.0844  0.2039 -1.0517
19961SOL    HW262137   4.955  10.618   8.562 -1.1724 -2.0575  0.5898
19962SOL     OW62138   8.199   8.581   5.739 -0.6636 -0.3074  0.2380
19962SOL    HW162139   8.170   8.630   5.662 -0.3224 -0.1486  0.2080
19962SOL    HW262140   8.286   8.616   5.758 -1.5533  1.1009  1.9359
19963SOL     OW62141   0.667   2.426   8.589 -0.4731 -0.2490 -0.6866
19963SOL    HW162142   0.581   2.386   8.578 -0.5922  0.0161 -0.7100
19963SOL    HW262143   0.697   2.443   8.500  0.0323 -1.2507 -0.7232
19964SOL     OW62144   7.687   3.519   7.783 -0.3366 -0.5401 -0.3180
19964SOL    HW162145   7.635   3.471   7.719  1.0951 -2.2530 -0.2615
19964SOL    HW262146   7.764   3.549   7.734 -0.9767  1.3778 -0.2417
19965SOL     OW62147   9.312   1.534   1.623 -0.1103 -0.6879  0.2245
19965SOL    HW162148   9.343   1.499   1.706  2.1866  0.8555  0.0979
19965SOL    HW262149   9.306   1.458   1.566  0.0420 -1.5222  1.2816
19966SOL     OW62150   9.995   7.171   9.285  0.1941 -0.3535 -0.4357
19966SOL    HW162151   9.952   7.247   9.246  2.0484  0.1514 -1.6084
19966SOL    HW262152  10.078   7.204   9.318  0.2422 -1.5241  0.7212
19967SOL     OW62153   8.627   9.220   6.692  0.8077 -0.3637  0.1291
19967SOL    HW162154   8.547   9.178   6.725  1.7037 -1.3543  1.1422
19967SOL    HW262155   8.638   9.297   6.748 -0.9122  1.4157 -1.8184
19968SOL     OW62156   8.597   7.943   9.661  0.5802 -0.1627  0.0146
19968SOL    HW162157   8.575   7.850   9.657 -0.9139  0.1823 -0.3102
19968SOL    HW262158   8.633   7.956   9.748  1.7063 -1.2188 -0.2678
19969SOL     OW62159   7.811   5.546   6.873  0.3104  0.0524  0.3866
19969SOL    HW162160   7.733   5.491   6.865  0.7381 -0.4047 -0.8667
19969SOL    HW262161   7.777   5.636   6.871 -0.3057 -0.1322  1.4600
19970SOL     OW62162   2.132   2.453   3.290  0.2450  0.1416  0.5287
19970SOL    HW162163   2.051   2.409   3.316 -0.0363  1.3435  1.8053
19970SOL    HW262164   2.164   2.494   3.371  1.2812  1.0175 -0.2947
19971SOL     OW62165   3.943   7.871   4.771 -0.0990 -0.2126 -0.1846
19971SOL    HW162166   3.892   7.863   4.851 -0.4568 -1.2516 -0.5034
19971SOL    HW262167   4.034   7.856   4.798 -0.3174 -1.4679 -0.1074
19972SOL     OW62168   3.074   0.827   5.203 -0.0543  0.0270 -0.5618
19972SOL    HW162169   3.134   0.871   5.263  0.5751  1.0098 -1.8486
19972SOL    HW262170   3.005   0.792   5.259 -0.6848  2.7977  0.5636
19973SOL     OW62171   6.061   1.880   6.092 -0.5365 -0.5234 -0.7987
19973SOL    HW162172   6.125   1.813   6.068  1.1052  0.2328  1.1366
19973SOL    HW262173   6.101   1.962   6.063 -1.5107 -0.1721 -1.1885
19974SOL     OW62174   8.969   3.632   7.962 -0.4759  0.3990  0.0238
19974SOL    HW162175   8.911   3.695   7.921 -0.8499 -0.1020 -0.2310
19974SOL    HW262176   8.915   3.554   7.975  0.1635 -0.1122 -0.3253
19975SOL     OW62177   0.797   9.684   4.201 -0.2596  0.5906  0.0751
19975SOL    HW162178   0.821   9.738   4.126  1.3309  1.1211  0.9098
19975SOL    HW262179   0.776   9.599   4.164 -3.4605  1.8457 -1.3514
19976SOL     OW62180   4.834   2.335   3.846  0.3473  0.1850 -0.7602
19976SOL    HW162181   4.864   2.311   3.758  2.4701 -0.2688  0.0302
19976SOL    HW262182   4.836   2.431   3.847  1.5628  0.1759 -0.8353
19977SOL     OW62183   2.499   1.311   2.952 -0.2160  0.4371  0.1848
19977SOL    HW162184   2.436   1.243   2.973  0.3218 -0.5413 -1.1695
19977SOL    HW262185   2.584   1.268   2.962  0.1082  0.5429 -1.6751
19978SOL     OW62186  10.408   5.366   1.254 -0.0793  0.3844  0.2486
19978SOL    HW162187  10.379   5.313   1.329  0.6128  1.8564  1.6094
19978SOL    HW262188  10.328   5.386   1.207 -0.3226 -2.2811 -0.6373
19979SOL     OW62189   0.524   5.604   0.224 -0.8159 -0.1115  0.2824
19979SOL    HW162190   0.574   5.539   0.273  0.0727 -0.7042 -1.3290
19979SOL    HW262191   0.434   5.572   0.227 -0.5288 -0.9570  0.2710
19980SOL     OW62192   9.739   8.393  10.142  0.5813  0.7108 -0.2576
19980SOL    HW162193   9.759   8.412  10.051  1.4754  1.9574  0.1648
19980SOL    HW262194   9.646   8.371  10.142  0.7914 -0.3076 -1.5894
19981SOL     OW62195   9.423   5.339   0.144  0.5694  0.1820 -0.1970
19981SOL    HW162196   9.345   5.395   0.144  1.1000  1.0361 -2.3663
19981SOL    HW262197   9.488   5.388   0.093  1.3457 -2.0122 -1.4843
19982SOL     OW62198   7.845  10.620   3.362 -0.2245 -0.3147 -0.8841
19982SOL    HW162199   7.810  10.588   3.445 -0.6297 -0.3843 -1.0821
19982SOL    HW262200   7.912  10.683   3.388 -1.8849  1.3780 -0.4845
19983SOL     OW62201   1.022   5.961   3.410 -0.4326  0.9235 -0.2628
19983SOL    HW162202   1.025   5.881   3.358  2.8214  1.1547 -0.6317
19983SOL    HW262203   1.012   5.930   3.501  4.6339 -0.4342  0.1332
19984SOL     OW62204   1.122   3.280   0.305  0.1251  0.8745  0.2094
19984SOL    HW162205   1.124   3.216   0.376 -1.2111  3.0335  2.3421
19984SOL    HW262206   1.101   3.229   0.227  1.5434 -1.5791  1.3181
19985SOL     OW62207   8.945   8.475   4.934 -0.0561  0.3254  0.4132
19985SOL    HW162208   8.941   8.532   5.011 -0.0452 -1.1767  1.5646
19985SOL    HW262209   9.004   8.404   4.960 -1.0310 -0.8594 -0.5207
19986SOL     OW62210   3.607   1.758   2.939  0.1400 -0.7052 -0.2362
19986SOL    HW162211   3.577   1.846   2.959  0.2410 -0.8859  0.7716
19986SOL    HW262212   3.535   1.701   2.965  1.1891 -1.1309  2.0427
19987SOL     OW62213   2.228   3.271   6.760  0.2342  0.3111 -0.4734
19987SOL    HW162214   2.272   3.261   6.676  0.2931  0.6912 -0.4877
19987SOL    HW262215   2.264   3.201   6.814 -0.4148 -0.4610 -1.0200
19988SOL     OW62216   2.357   3.830   2.851 -0.5851 -0.1448 -0.3937
19988SOL    HW162217   2.363   3.765   2.921  0.1905 -0.9476 -1.1799
19988SOL    HW262218   2.277   3.808   2.803 -1.5141  0.8425  0.6211
19989SOL     OW62219   5.689   9.073   4.272  0.5348 -0.1313  0.4598
19989SOL    HW162220   5.774   9.101   4.238 -0.5622  0.1141 -2.2827
19989SOL    HW262221   5.706   8.986   4.308  1.4076 -1.6438 -3.1664
19990SOL     OW62222   6.537   4.826   2.759 -0.1876  0.2076 -0.0701
19990SOL    HW162223   6.610   4.777   2.796  2.0039  1.4741 -2.3651
19990SOL    HW262224   6.534   4.907   2.810 -0.1952  0.0040  0.2510
19991SOL     OW62225   1.311   3.061   8.391 -0.8987  0.3031  0.6063
19991SOL    HW162226   1.313   3.000   8.318 -1.6661  1.8767 -0.8080
19991SOL    HW262227   1.403   3.081   8.409 -0.6946 -0.3919  0.3537
19992SOL     OW62228   2.157   5.834   2.020 -0.0404 -0.1667 -0.0009
19992SOL    HW162229   2.148   5.781   2.099 -0.9824  0.2202  0.1675
19992SOL    HW262230   2.119   5.780   1.950 -0.9359  0.2396  0.1582
19993SOL     OW62231   3.291   5.220   2.348 -0.5558 -0.1732  0.0485
19993SOL    HW162232   3.380   5.231   2.383 -1.1075  0.8847  1.2274
19993SOL    HW262233   3.273   5.127   2.358  0.0310 -0.2217  0.8202
19994SOL     OW62234   4.608   1.379   5.103 -0.5663 -0.0643 -0.3583
19994SOL    HW162235   4.571   1.326   5.173 -0.1649 -0.0503 -0.1319
19994SOL    HW262236   4.639   1.459   5.146 -1.3595  0.4544 -0.7286
19995SOL     OW62237   5.298  10.609   8.523 -0.0762 -0.8250  0.4882
19995SOL    HW162238   5.204  10.620   8.535  0.0461 -0.2328  0.9345
19995SOL    HW262239   5.306  10.545   8.452 -0.8128 -2.2038  1.5923
19996SOL     OW62240   9.248   0.498   4.527  0.1036  0.0761 -0.0928
19996SOL    HW162241   9.343   0.488   4.528  0.0554 -0.3786  0.6212
19996SOL    HW262242   9.228   0.553   4.602 -0.3352 -1.3362  0.8683
19997SOL     OW62243   8.777   5.363   0.156  0.3542 -0.5864 -0.0594
19997SOL    HW162244   8.761   5.416   0.077 -0.1324 -0.2566  0.2565
19997SOL    HW262245   8.706   5.387   0.216  1.4498  0.1483  0.9928
19998SOL     OW62246   7.466   7.413   6.162  0.3231  0.5086 -0.1813
19998SOL    HW162247   7.518   7.370   6.229 -1.9202 -1.4834  0.4087
19998SOL    HW262248   7.477   7.506   6.180  0.9603  0.0738  2.0170
19999SOL     OW62249   9.833   2.982   2.345 -0.3155  0.0355 -0.1601
19999SOL    HW162250   9.765   2.925   2.310  0.6697 -0.1483 -1.8937
19999SOL    HW262251   9.897   2.989   2.274  1.0182  0.9479  1.0802
20000SOL     OW62252   3.381   8.500   5.109 -0.3004  0.1775  0.1153
20000SOL    HW162253   3.456   8.468   5.159 -0.6626 -0.7269  0.0974
20000SOL    HW262254   3.307   8.490   5.169 -0.6052 -0.1249 -0.3078
20001SOL     OW62255  10.267   4.693   7.499 -0.2833 -0.0556 -0.2495
20001SOL    HW162256  10.202   4.721   7.564 -1.3321  1.0348 -1.6936
20001SOL    HW262257  10.240   4.604   7.475  0.5426 -0.7519  1.2916
20002SOL     OW62258   0.080   2.662   5.634 -0.0013 -0.3347  0.2696
20002SOL    HW162259   0.086   2.747   5.590  1.8799 -0.4562  0.2016
20002SOL    HW262260   0.118   2.677   5.721 -2.2024 -0.4886  1.3368
20003SOL     OW62261   0.616   2.355   5.844  0.0920  0.0942  0.0188
20003SOL    HW162262   0.676   2.424   5.873 -0.8183  1.0630 -0.3388
20003SOL    HW262263   0.577   2.322   5.924  0.3903  0.1294  0.1804
20004SOL     OW62264   4.827   0.978   2.439  0.4336  0.0032  0.2305
20004SOL    HW162265   4.749   0.985   2.383  0.3971  1.9036  0.4600
20004SOL    HW262266   4.896   0.947   2.380  0.2410  1.3316 -0.7320
20005SOL     OW62267   5.324   6.323   8.125 -0.5225 -0.7322  0.2368
20005SOL    HW162268   5.236   6.346   8.094  0.0769 -0.0829 -1.0739
20005SOL    HW262269   5.317   6.321   8.220 -1.0873  3.0239  0.3972
20006SOL     OW62270   7.331   8.881   5.504 -0.3224 -0.2009 -1.1283
20006SOL    HW162271   7.247   8.867   5.460  0.0396  0.5509 -2.0973
20006SOL    HW262272   7.378   8.941   5.447 -0.0788  1.3696  0.6281
20007SOL     OW62273   3.603   1.400   4.445  0.1649 -0.8199  0.0548
20007SOL    HW162274   3.622   1.392   4.538  0.6270  0.2364  0.0631
20007SOL    HW262275   3.549   1.480   4.438 -0.9613 -1.5955 -0.4335
20008SOL     OW62276   7.243   0.828   9.220 -0.4157  0.1463  0.4702
20008SOL    HW162277   7.295   0.772   9.162 -3.2502 -1.0453 -1.1748
20008SOL    HW262278   7.228   0.908   9.170 -0.7106  0.1996  0.6385
20009SOL     OW62279   2.807   3.217   1.692  0.0882 -0.2211  0.2006
20009SOL    HW162280   2.895   3.229   1.657 -0.1217  0.3114 -0.1594
20009SOL    HW262281   2.820   3.207   1.786  0.5454 -0.3025  0.1304
20010SOL     OW62282  10.279   2.931   0.990  0.0512 -0.8724  0.2164
20010SOL    HW162283  10.226   2.854   1.012 -2.0082 -0.5430 -2.9344
20010SOL    HW262284  10.247   2.999   1.050 -0.9656 -1.4616  0.3784
20011SOL     OW62285   7.213   5.401   5.996  0.0930  0.0478  0.0186
20011SOL    HW162286   7.203   5.484   6.043 -0.4827  0.4075 -0.7050
20011SOL    HW262287   7.123   5.370   5.983  0.3245 -0.9861  0.7743
20012SOL     OW62288   9.096   2.518   6.337  0.3989  0.3426  0.2012
20012SOL    HW162289   9.177   2.523   6.286 -0.2365 -0.4357 -0.9215
20012SOL    HW262290   9.124   2.535   6.427  1.8950 -0.3947 -0.0848
20013SOL     OW62291   7.603   1.292   7.198 -0.4779  0.5234  0.4110
20013SOL    HW162292   7.662   1.365   7.180  1.7236 -1.0013  1.1450
20013SOL    HW262293   7.530   1.305   7.137  0.8666  2.1556 -0.9480
20014SOL     OW62294   2.255   7.703   9.233 -0.4254  0.3785 -0.5579
20014SOL    HW162295   2.264   7.658   9.149  1.4695 -1.6606  0.6095
20014SOL    HW262296   2.319   7.775   9.228  0.4275 -0.3565 -0.5320
20015SOL     OW62297   4.194   0.508   0.580 -0.3847 -0.1668 -0.5444
20015SOL    HW162298   4.280   0.490   0.541 -0.1713  0.8713 -0.5854
20015SOL    HW262299   4.143   0.548   0.509  0.3800  2.8350  0.4350
20016SOL     OW62300   4.138   9.407   2.766 -0.1892  0.1221 -0.4942
20016SOL    HW162301   4.157   9.406   2.860  0.3677 -2.5489 -0.5511
20016SOL    HW262302   4.098   9.492   2.750 -1.0683  0.3169  2.3215
20017SOL     OW62303   9.266   4.542   4.790 -0.6149 -0.1156  0.1711
20017SOL    HW162304   9.283   4.508   4.702  0.0971  1.7484 -0.4716
20017SOL    HW262305   9.353   4.562   4.825 -0.9533  0.1409  0.8692
20018SOL     OW62306   5.327   1.249   3.002 -0.7068  0.4564  0.6970
20018SOL    HW162307   5.381   1.174   3.026 -2.3975 -0.7304  0.9173
20018SOL    HW262308   5.380   1.297   2.938  1.1911  0.1498  1.9410
20019SOL     OW62309   5.365   2.651   1.404 -0.3920 -0.3356  0.1238
20019SOL    HW162310   5.296   2.717   1.411 -1.1259 -1.0168 -0.4485
20019SOL    HW262311   5.432   2.691   1.349  0.3319  0.8451  1.7712
20020SOL     OW62312   3.192   1.451   8.300 -0.2124 -0.2229  0.0508
20020SOL    HW162313   3.175   1.448   8.206 -0.1274 -0.9974  0.0534
20020SOL    HW262314   3.105   1.445   8.340 -0.1327 -2.1307  0.0367
20021SOL     OW62315   4.275   5.556   2.693  0.3804 -0.5374 -0.0402
20021SOL    HW162316   4.363   5.519   2.702  0.3445 -0.4510  0.7405
20021SOL    HW262317   4.287   5.650   2.705  0.3148 -0.4168 -0.9086
20022SOL     OW62318   7.099   9.221   3.319 -0.5113  0.2620 -0.3192
20022SOL    HW162319   7.087   9.155   3.387  0.1711  0.2136 -0.2314
20022SOL    HW262320   7.094   9.173   3.236  1.4144 -0.1755 -0.2257
20023SOL     OW62321  10.389   7.321   8.778 -0.7963 -0.1161  0.8439
20023SOL    HW162322  10.330   7.395   8.795 -1.9957  0.0517 -3.0210
20023SOL    HW262323  10.472   7.361   8.753 -1.7671  0.1976 -2.3769
20024SOL     OW62324   5.206   0.942   6.206 -0.0193 -0.3046  0.0111
20024SOL    HW162325   5.272   0.873   6.204 -0.7149 -0.9602 -0.6416
20024SOL    HW262326   5.220   0.986   6.290  0.9027 -0.7627  0.1102
20025SOL     OW62327   2.201   2.205   2.539 -0.1512 -0.1004 -0.4151
20025SOL    HW162328   2.237   2.293   2.550 -0.0736 -0.2632  0.7577
20025SOL    HW262329   2.259   2.149   2.590 -1.8319 -0.4081  1.2602
20026SOL     OW62330  10.159   4.928   8.294  0.1844  0.2874 -0.0852
20026SOL    HW162331  10.116   4.990   8.352  0.0275  1.6395 -1.5844
20026SOL    HW262332  10.166   4.974   8.211  1.4941 -1.1445 -0.8125
20027SOL     OW62333   8.726   2.306   3.373 -0.2836  0.1328  0.0303
20027SOL    HW162334   8.797   2.343   3.321 -0.5573  0.6223 -0.0123
20027SOL    HW262335   8.767   2.238   3.426  0.7039  1.9007  1.6823
20028SOL     OW62336   4.871   1.966   6.054 -0.4989  0.1997  0.0408
20028SOL    HW162337   4.872   2.038   5.990  1.1364 -0.8065 -1.1148
20028SOL    HW262338   4.781   1.933   6.051 -0.3372 -0.1289 -2.1109
20029SOL     OW62339   8.312   0.044   7.595  0.7787  0.3301  0.2553
20029SOL    HW162340   8.380   0.005   7.541  1.1093 -0.4812  1.2243
20029SOL    HW262341   8.345   0.037   7.685 -1.4541 -2.0451  1.0203
20030SOL     OW62342   8.293   0.631   1.589  0.8655 -0.8595  0.2317
20030SOL    HW162343   8.378   0.588   1.581  1.0038 -0.5832  0.1821
20030SOL    HW262344   8.252   0.589   1.665  1.0622 -0.9709  0.2777
20031SOL     OW62345   2.842   7.891   0.176  0.2006  0.0468 -0.2537
20031SOL    HW162346   2.765   7.942   0.151  0.0444  0.4779  1.0286
20031SOL    HW262347   2.817   7.800   0.160 -0.2470  0.2431 -0.6873
20032SOL     OW62348  10.427   4.552   0.091  0.4539  0.2251  0.6077
20032SOL    HW162349  10.480   4.627   0.063  0.4825 -0.1354 -0.3460
20032SOL    HW262350  10.473   4.518   0.168  1.0427  0.5366  0.4045
20033SOL     OW62351   8.389   6.694   5.143  0.6441 -0.5789  0.0392
20033SOL    HW162352   8.323   6.712   5.210  0.5605 -0.7732  0.0074
20033SOL    HW262353   8.339   6.674   5.064  0.7435 -0.2494 -0.1113
20034SOL     OW62354   3.174   3.072  10.025  0.7269  0.2661 -0.3214
20034SOL    HW162355   3.259   3.110  10.045  0.2659  0.7680  0.8341
20034SOL    HW262356   3.119   3.147  10.003  0.8223 -0.1460 -2.1100
20035SOL     OW62357   2.661  10.161   0.996 -0.4284  0.5458  0.0700
20035SOL    HW162358   2.626  10.093   1.053  0.5016  0.8911  1.0865
20035SOL    HW262359   2.720  10.116   0.936  0.3105  0.4519  0.8456
20036SOL     OW62360  10.578   6.060   2.532 -0.0675  0.2338 -0.6593
20036SOL    HW162361  10.521   6.069   2.455 -0.3518  1.2300 -0.3415
20036SOL    HW262362  10.552   5.976   2.571 -1.8675  0.9969 -0.1017
20037SOL     OW62363   5.739   3.222  10.270  0.0290 -0.1210 -0.9374
20037SOL    HW162364   5.817   3.168  10.282  0.5479  0.2328 -2.5565
20037SOL    HW262365   5.700   3.190  10.189 -0.8979  0.4626 -0.7390
20038SOL     OW62366   1.827   9.586   3.487  0.3622 -0.2306  0.6942
20038SOL    HW162367   1.905   9.592   3.432  0.5741  1.7236  1.1200
20038SOL    HW262368   1.755   9.572   3.425  1.0864 -3.1827  0.3721
20039SOL     OW62369   1.115   0.240   6.849  0.0598 -0.7693 -0.4711
20039SOL    HW162370   1.061   0.280   6.780 -0.8227  0.5730  0.9249
20039SOL    HW262371   1.200   0.228   6.808 -0.2584  0.5628 -1.6270
20040SOL     OW62372   0.014   6.852   7.499 -0.0588  0.2384 -0.5241
20040SOL    HW162373   0.031   6.758   7.489  2.5738  0.5290  0.4782
20040SOL    HW262374  -0.078   6.857   7.525 -0.1337 -2.0975 -0.1026
20041SOL     OW62375   0.777   1.046   1.444 -0.9978  0.4725 -0.2988
20041SOL    HW162376   0.703   1.040   1.504 -0.5761 -1.2232  0.1046
20041SOL    HW262377   0.752   0.991   1.370  0.4673 -1.4645  0.5645
20042SOL     OW62378   3.383   9.950   5.792  0.4337 -0.0614 -0.7632
20042SOL    HW162379   3.474   9.926   5.779 -0.1341 -4.2972  1.1387
20042SOL    HW262380   3.354   9.982   5.707  3.1860 -0.4776 -1.9595
20043SOL     OW62381   4.475   6.407   2.703  0.0499  0.0287  0.5529
20043SOL    HW162382   4.516   6.413   2.789  0.4093 -0.6843  0.4373
20043SOL    HW262383   4.527   6.465   2.648 -0.7544  1.2238  1.0214
20044SOL     OW62384   2.612   3.573   9.359 -0.5696 -0.6993 -0.2433
20044SOL    HW162385   2.616   3.601   9.450 -1.0504 -2.0564  0.2209
20044SOL    HW262386   2.552   3.498   9.359  1.1532 -2.1598 -1.2988
20045SOL     OW62387   8.183   1.113   0.886 -0.6992  0.1282  0.2110
20045SOL    HW162388   8.111   1.066   0.844 -0.7536  0.0142  0.4324
20045SOL    HW262389   8.258   1.053   0.878 -0.0619  1.0921 -1.9228
20046SOL     OW62390   0.968   6.010   9.866  0.4769  0.4438  0.1831
20046SOL    HW162391   0.986   6.051   9.781  0.2986 -1.0849 -0.6199
20046SOL    HW262392   0.921   5.930   9.845  0.1469  0.1852  1.7643
20047SOL     OW62393   7.805   5.936   1.370  0.2449 -0.5270  0.1371
20047SOL    HW162394   7.849   5.871   1.425  1.4809 -0.4777 -0.7516
20047SOL    HW262395   7.764   5.885   1.301  2.1658 -0.3510 -1.2120
20048SOL     OW62396   3.006   4.809   9.699  0.3486  0.3466  0.8060
20048SOL    HW162397   2.966   4.886   9.740  0.1894  1.9536 -2.0791
20048SOL    HW262398   3.094   4.806   9.736 -0.2687  0.7139  2.4017
20049SOL     OW62399   2.129   7.872   7.752 -0.4486  0.4570  0.2492
20049SOL    HW162400   2.170   7.845   7.670 -1.4638 -0.9278  0.1462
20049SOL    HW262401   2.197   7.920   7.799 -0.1052  2.0241 -1.7421
20050SOL     OW62402   8.054   5.178   9.977 -0.1133 -0.1335 -0.5214
20050SOL    HW162403   8.086   5.218   9.896  0.1304 -1.2018 -0.9641
20050SOL    HW262404   8.087   5.236  10.047 -1.4744  1.5838 -1.2131
20051SOL     OW62405   8.001   4.607   8.053  0.4662 -0.3028  0.9266
20051SOL    HW162406   7.958   4.626   8.136  0.8279 -0.1775  1.0899
20051SOL    HW262407   8.095   4.618   8.072  0.5179  0.2326  0.3731
20052SOL     OW62408   5.965   3.477   3.180  0.0935  0.0280  0.2637
20052SOL    HW162409   5.968   3.486   3.084  0.3666 -0.8207  0.1797
20052SOL    HW262410   5.872   3.468   3.200 -0.0221  0.8864  0.1559
20053SOL     OW62411   4.344   2.533   3.650  0.2313  0.1966  0.1020
20053SOL    HW162412   4.421   2.484   3.620  0.4544  0.2689  0.5440
20053SOL    HW262413   4.289   2.467   3.691  0.4452  0.2832  0.5305
20054SOL     OW62414   3.518   0.301   4.516  0.1964  0.4890  0.1139
20054SOL    HW162415   3.464   0.369   4.556  0.7079 -0.2300  2.1190
20054SOL    HW262416   3.585   0.349   4.467 -0.4140  1.4005  0.1497
20055SOL     OW62417  10.596   2.022   1.122  0.0320 -0.2365  0.1746
20055SOL    HW162418  10.519   1.992   1.072 -1.2150  1.4419  0.9907
20055SOL    HW262419  10.581   2.115   1.135  1.7971 -0.0500  1.1421
20056SOL     OW62420   3.155   3.156   9.658 -0.4106 -0.3173  0.0398
20056SOL    HW162421   3.190   3.241   9.686  0.6202  0.0947 -2.2626
20056SOL    HW262422   3.061   3.168   9.655 -0.2070  1.3134 -1.7221
20057SOL     OW62423   6.096   6.657   5.955 -0.3427 -0.5545 -0.0635
20057SOL    HW162424   6.093   6.726   6.021 -1.9257 -0.6513  0.0142
20057SOL    HW262425   6.090   6.703   5.871 -0.7606 -0.5555 -0.0361
20058SOL     OW62426   9.343   3.844  10.590 -0.5758  0.3248  0.2109
20058SOL    HW162427   9.429   3.803  10.586  0.2258  1.9322 -0.1683
20058SOL    HW262428   9.286   3.779  10.631  1.3081  0.0330  2.5790
20059SOL     OW62429   2.117   5.034   4.794  0.2377 -0.1558 -0.6913
20059SOL    HW162430   2.089   4.994   4.876  2.4426  0.6206  0.5161
20059SOL    HW262431   2.066   5.116   4.789  0.1945 -0.1370 -0.0168
20060SOL     OW62432   4.930   9.715   5.806 -0.9412  0.3060  0.5244
20060SOL    HW162433   4.895   9.799   5.775  0.8606  0.4772 -1.1952
20060SOL    HW262434   4.874   9.692   5.880 -1.5596  2.9547  0.9686
20061SOL     OW62435   2.095   1.530   7.489 -0.2422 -0.3084  0.6212
20061SOL    HW162436   2.055   1.600   7.438  2.9378 -0.4888 -2.4483
20061SOL    HW262437   2.061   1.450   7.450 -0.3181 -0.4819  1.0404
20062SOL     OW62438   6.297   1.786   2.161  0.6393 -0.0146  0.4045
20062SOL    HW162439   6.315   1.879   2.151 -2.7934  0.7607  0.3897
20062SOL    HW262440   6.275   1.756   2.073  2.0647 -0.9914  0.3442
20063SOL     OW62441   0.338   1.319   7.165 -0.1634  0.7882 -0.0781
20063SOL    HW162442   0.353   1.227   7.145 -1.1376  0.7828 -0.8799
20063SOL    HW262443   0.354   1.365   7.083 -1.3435  1.1199 -0.1520
20064SOL     OW62444   4.187   0.163   3.918 -0.3135 -0.1891  0.1232
20064SOL    HW162445   4.146   0.142   3.834  0.2541 -1.3898  0.1223
20064SOL    HW262446   4.281   0.169   3.898 -0.2125 -0.1435  0.6095
20065SOL     OW62447   8.868   0.422   4.021 -0.0073  0.2152 -0.6364
20065SOL    HW162448   8.910   0.505   4.044  0.3886 -0.5301  1.5212
20065SOL    HW262449   8.777   0.433   4.049 -0.0568  0.0600 -0.7341
20066SOL     OW62450   0.911   1.861   8.194 -0.1412  0.3592  0.3073
20066SOL    HW162451   0.953   1.800   8.255  2.2134  0.0427 -1.4760
20066SOL    HW262452   0.818   1.843   8.204  0.3701 -2.7986  0.6905
20067SOL     OW62453   8.027   5.409   4.079 -0.3312 -0.8486 -0.2594
20067SOL    HW162454   8.083   5.382   4.151 -1.0645 -0.2245  0.5593
20067SOL    HW262455   8.080   5.472   4.030 -0.3670 -0.1024  0.6282
20068SOL     OW62456   0.931   8.979   6.209 -0.1086 -0.0678  0.0194
20068SOL    HW162457   0.938   8.970   6.114  0.4463  0.3738  0.0098
20068SOL    HW262458   0.869   9.050   6.223  0.3346  0.3312 -0.0284
20069SOL     OW62459   4.630   4.093   3.418 -0.8262 -0.0868  0.0049
20069SOL    HW162460   4.561   4.104   3.353 -0.5670  1.0065 -0.1152
20069SOL    HW262461   4.699   4.153   3.389  0.5176 -1.7008 -0.3032
20070SOL     OW62462   7.682   9.342   3.415 -0.2299 -0.3585  0.2359
20070SOL    HW162463   7.676   9.348   3.510  0.7062 -0.2358  0.2940
20070SOL    HW262464   7.634   9.419   3.384 -0.4003 -0.3114  0.6087
20071SOL     OW62465   4.172   9.926   5.251 -0.1089 -0.3945  0.4387
20071SOL    HW162466   4.105   9.976   5.206 -0.1441  0.1420  1.0749
20071SOL    HW262467   4.139   9.836   5.252 -0.3505 -0.3140 -0.1214
20072SOL     OW62468   2.406   9.513   7.954 -0.7602  0.3774 -0.3544
20072SOL    HW162469   2.330   9.487   7.902  0.1048 -2.0057 -0.5569
20072SOL    HW262470   2.369   9.562   8.028 -2.6686 -1.7356  0.2036
20073SOL     OW62471  10.362   9.385  10.302  0.1933 -0.4394 -0.0992
20073SOL    HW162472  10.420   9.341  10.364  0.4935  1.8138  1.3359
20073SOL    HW262473  10.277   9.388  10.346  0.4554  1.3615  0.3595
20074SOL     OW62474   8.823   8.707   8.148 -0.3392 -0.1131  0.3543
20074SOL    HW162475   8.851   8.794   8.121  2.8289 -1.3802 -0.8634
20074SOL    HW262476   8.787   8.719   8.236 -0.4367  2.4452  0.0208
20075SOL     OW62477   6.583   7.912   9.021  0.2606  0.1013  0.2610
20075SOL    HW162478   6.670   7.951   9.034  0.6563 -0.6803  0.0344
20075SOL    HW262479   6.528   7.953   9.088  0.8731  0.3824  0.6029
20076SOL     OW62480   7.778   0.183   2.856  0.7468  0.3655 -0.1474
20076SOL    HW162481   7.803   0.276   2.857  2.2939 -0.0305  1.1501
20076SOL    HW262482   7.741   0.168   2.943  0.9807 -0.3515 -0.1692
20077SOL     OW62483   5.211   8.356   3.216 -0.1479 -0.4564 -0.3018
20077SOL    HW162484   5.134   8.305   3.192  0.4312 -0.6508 -1.8697
20077SOL    HW262485   5.180   8.447   3.216 -0.1614 -0.4332 -2.0237
20078SOL     OW62486  10.479   8.634   2.141 -0.0932  0.2989 -0.6971
20078SOL    HW162487  10.427   8.664   2.066 -0.7085  2.0122  0.3571
20078SOL    HW262488  10.523   8.555   2.109 -2.2159 -0.4180 -2.0989
20079SOL     OW62489   5.321   3.324   5.212  0.0624  0.0408 -0.0938
20079SOL    HW162490   5.339   3.349   5.303 -1.9163  0.6817  0.1509
20079SOL    HW262491   5.364   3.393   5.160 -1.3192  1.3828  0.4646
20080SOL     OW62492   2.064   7.293   9.620  0.5201  0.1867 -0.2069
20080SOL    HW162493   2.140   7.308   9.676 -1.2703 -0.1224  2.4536
20080SOL    HW262494   2.038   7.203   9.637 -0.8552  0.4991 -0.4913
20081SOL     OW62495   5.123   2.631   3.871  0.0029  0.4767  0.2594
20081SOL    HW162496   5.046   2.578   3.851 -0.6615  0.5326  2.3841
20081SOL    HW262497   5.116   2.706   3.812 -1.5122  0.4085  0.3090
20082SOL     OW62498   6.160   5.205   4.738  0.2579 -0.0757  0.9781
20082SOL    HW162499   6.149   5.231   4.830  1.0271  0.6859  0.8651
20082SOL    HW262500   6.206   5.121   4.742 -2.0042 -1.3645  1.3392
20083SOL     OW62501   1.316   0.559   7.811  0.0668 -0.5267  0.5556
20083SOL    HW162502   1.232   0.602   7.825  0.6579  0.5971  0.7896
20083SOL    HW262503   1.314   0.530   7.720 -0.0009  0.8393  0.0978
20084SOL     OW62504   2.034   6.929   1.333  0.0793  0.2050 -0.7750
20084SOL    HW162505   2.037   6.885   1.418  1.4712 -2.6773 -2.1292
20084SOL    HW262506   1.968   6.997   1.342 -1.0248 -1.0964  2.1116
20085SOL     OW62507   6.114   6.204   5.522 -0.4000  0.0730 -0.3194
20085SOL    HW162508   6.020   6.212   5.506 -0.3142  1.5294 -0.2530
20085SOL    HW262509   6.149   6.291   5.503  0.9105 -0.4009 -0.1724
20086SOL     OW62510   5.480  10.027   2.771 -0.0957 -0.9425  0.2473
20086SOL    HW162511   5.398  10.034   2.820  0.7808  1.3121  1.5622
20086SOL    HW262512   5.541   9.985   2.832  0.6839  0.8336  0.7937
20087SOL     OW62513   3.122   1.737   9.938 -0.4864 -0.3365 -0.0501
20087SOL    HW162514   3.209   1.769   9.960 -0.7911 -0.2279  1.0298
20087SOL    HW262515   3.084   1.708  10.021 -1.5561 -0.1964 -0.4657
20088SOL     OW62516   8.724   1.107   3.250  0.4194 -0.2609  0.2834
20088SOL    HW162517   8.810   1.116   3.209  0.2113  1.6156  0.1808
20088SOL    HW262518   8.691   1.023   3.218  1.5854 -0.3166 -0.8604
20089SOL     OW62519   0.230   4.487   2.849 -0.6045  0.2553  0.1231
20089SOL    HW162520   0.200   4.446   2.768 -1.0969  0.9455 -0.0512
20089SOL    HW262521   0.316   4.448   2.865 -0.4686  0.1667 -0.7734
20090SOL     OW62522   3.677   9.609   2.838 -0.1929 -0.3791 -0.3287
20090SOL    HW162523   3.686   9.556   2.758  0.1920  0.5829 -0.9390
20090SOL    HW262524   3.598   9.660   2.824  1.0789  1.4891 -1.1478
20091SOL     OW62525   4.255   5.759   7.652  0.0651  0.5310  0.3614
20091SOL    HW162526   4.202   5.761   7.731  0.0738  0.7083  0.3637
20091SOL    HW262527   4.273   5.666   7.637  0.1723  0.5066  0.6388
20092SOL     OW62528  10.634   1.418   2.180  0.0844  0.0710  0.7511
20092SOL    HW162529  10.545   1.397   2.152  1.4738 -3.1279 -1.8538
20092SOL    HW262530  10.646   1.368   2.261 -0.4266  0.4838  1.0910
20093SOL     OW62531   0.442   3.047   6.412  0.2461 -0.0773 -0.0137
20093SOL    HW162532   0.499   3.023   6.486 -1.0746 -0.7957  0.8219
20093SOL    HW262533   0.438   2.967   6.359 -0.9465 -0.4651  0.6135
20094SOL     OW62534   3.357   6.525   5.404 -1.1604 -0.0234  0.8667
20094SOL    HW162535   3.428   6.476   5.363  0.3582  1.2789  1.7998
20094SOL    HW262536   3.297   6.545   5.332 -0.9519 -1.7326  0.1745
20095SOL     OW62537   0.049  10.402   0.351 -0.2934  0.4078  0.2904
20095SOL    HW162538   0.055  10.334   0.418 -0.4730  0.9371  0.8543
20095SOL    HW262539   0.008  10.358   0.276  1.9926 -0.8135 -0.3311
20096SOL     OW62540   5.646   8.193   7.820  0.2705 -0.1343 -0.1784
20096SOL    HW162541   5.707   8.130   7.859 -0.1443  0.2300  1.0895
20096SOL    HW262542   5.698   8.272   7.806  0.8640 -0.8031 -2.0273
20097SOL     OW62543   0.998   6.360   3.200  0.0970  0.1449 -0.1689
20097SOL    HW162544   0.949   6.341   3.280 -0.7695 -0.1933 -0.7686
20097SOL    HW262545   1.042   6.278   3.179  1.2884  0.5557  0.5888
20098SOL     OW62546   7.404   4.495   5.585  0.4722  0.0182  0.4562
20098SOL    HW162547   7.345   4.492   5.509  1.1309  0.6781 -0.1047
20098SOL    HW262548   7.371   4.568   5.638 -0.2172 -0.6843  1.0094
20099SOL     OW62549   4.888   9.373  10.360 -0.0319 -0.8703  0.6737
20099SOL    HW162550   4.931   9.431  10.297 -0.7496 -0.7893  0.2407
20099SOL    HW262551   4.808   9.421  10.384 -1.3331 -2.2564 -0.7163
20100SOL     OW62552   0.665   9.726   4.867  0.7995  0.3635 -0.1126
20100SOL    HW162553   0.592   9.780   4.836 -1.3742 -0.6383  2.7613
20100SOL    HW262554   0.691   9.765   4.950  0.0278 -2.1095  1.4128
20101SOL     OW62555   9.550   7.807   0.616  0.0829 -0.1189  0.2085
20101SOL    HW162556   9.589   7.894   0.613 -0.7372  0.2520 -0.1507
20101SOL    HW262557   9.602   7.755   0.553  0.9966 -0.0874  0.9164
20102SOL     OW62558   8.300   6.504   1.918  0.0739  0.5821 -0.0833
20102SOL    HW162559   8.392   6.515   1.943  0.9299  1.7156 -3.2257
20102SOL    HW262560   8.297   6.422   1.870 -0.7627  0.1601  0.6568
20103SOL     OW62561   8.124  10.191   1.091  0.4733 -0.0555 -0.2759
20103SOL    HW162562   8.062  10.136   1.043  1.3192 -1.0279 -0.2826
20103SOL    HW262563   8.104  10.174   1.183 -0.2033  0.7218 -0.2701
20104SOL     OW62564   4.211   2.307   4.465  0.3135  0.3487  0.1433
20104SOL    HW162565   4.228   2.226   4.513 -0.2420  0.6290  0.8322
20104SOL    HW262566   4.263   2.299   4.385  0.4619 -0.5715  0.3219
20105SOL     OW62567   9.660   4.862   1.726  0.5950 -0.4452 -0.1264
20105SOL    HW162568   9.621   4.949   1.735  1.9439  0.1858 -0.1225
20105SOL    HW262569   9.670   4.831   1.816  1.0721 -0.1385 -0.0649
20106SOL     OW62570   3.550   2.293   5.563  0.0252 -0.1745 -0.7176
20106SOL    HW162571   3.592   2.322   5.644 -2.5616  2.1564 -0.0699
20106SOL    HW262572   3.521   2.204   5.582 -0.8561  0.4594  1.1038
20107SOL     OW62573   2.050   6.899   7.367 -0.4773 -0.1363  0.0276
20107SOL    HW162574   1.985   6.930   7.430 -0.1645 -0.7684  0.6852
20107SOL    HW262575   2.126   6.955   7.381 -0.0845 -0.8556  0.8733
20108SOL     OW62576   4.136   7.825   5.246 -0.2839  0.2248  0.3936
20108SOL    HW162577   4.061   7.768   5.263  1.4344 -1.7965  1.7251
20108SOL    HW262578   4.179   7.785   5.170 -0.6691  1.5328 -0.5354
20109SOL     OW62579   1.845   8.075   8.378  0.5791  0.2372  0.4943
20109SOL    HW162580   1.822   8.070   8.285 -0.9465  0.3191  0.8465
20109SOL    HW262581   1.932   8.035   8.383  0.9997  0.8894 -1.0713
20110SOL     OW62582   7.060   3.608   2.438  0.5586 -0.0087  0.4981
20110SOL    HW162583   7.079   3.538   2.376  2.0670 -0.9354  1.9244
20110SOL    HW262584   6.976   3.583   2.477  0.8532 -0.7991  0.6502
20111SOL     OW62585  10.479   5.664   1.948  0.1849  0.3463  0.3155
20111SOL    HW162586  10.539   5.602   1.906  0.3174  0.8311 -0.2199
20111SOL    HW262587  10.397   5.616   1.956  0.0967  0.3004 -0.6841
20112SOL     OW62588   1.466   0.900   9.230 -0.2425 -1.0948  0.3757
20112SOL    HW162589   1.545   0.857   9.198 -1.5881 -1.5066 -2.7037
20112SOL    HW262590   1.402   0.830   9.239 -1.1597 -0.3847 -0.3438
20113SOL     OW62591   9.749   0.514   9.928 -0.0190 -1.0247  0.2952
20113SOL    HW162592   9.680   0.571   9.894 -0.3360 -0.5030  1.7760
20113SOL    HW262593   9.733   0.430   9.884 -0.5657 -0.4518 -0.6405
20114SOL     OW62594   9.989   9.302   4.019  0.0155 -0.1954 -0.6139
20114SOL    HW162595   9.917   9.241   4.001  0.4036 -1.6032  2.1444
20114SOL    HW262596  10.064   9.264   3.973  0.1758 -1.7409  0.7964
20115SOL     OW62597   9.747  10.180   3.788 -0.4528  0.1759 -0.0917
20115SOL    HW162598   9.714  10.092   3.773 -0.3927  0.1359  0.0056
20115SOL    HW262599   9.706  10.208   3.869 -1.9597  0.9805 -1.0947
20116SOL     OW62600   6.725   1.536   9.945  0.2958 -0.7951 -0.0955
20116SOL    HW162601   6.658   1.591   9.987  0.5917 -0.5785  0.0915
20116SOL    HW262602   6.799   1.538  10.005  0.8059 -0.2967 -0.7386
20117SOL     OW62603   2.083   8.971   5.700 -0.3282 -0.1825  0.3076
20117SOL    HW162604   2.153   8.980   5.765 -2.4862  0.2104  2.6954
20117SOL    HW262605   2.115   8.903   5.641  2.1524  0.1372  1.1518
20118SOL     OW62606   0.396   0.683   3.514  0.2989 -0.8619 -0.4733
20118SOL    HW162607   0.368   0.642   3.596 -0.0469  1.0162  0.3775
20118SOL    HW262608   0.492   0.676   3.516  0.3254 -0.3850  0.3432
20119SOL     OW62609   7.769   9.748   4.567  0.2254 -0.3193  0.4145
20119SOL    HW162610   7.724   9.665   4.549  0.6296 -0.6355  0.8256
20119SOL    HW262611   7.862   9.728   4.554  0.2630  0.3022 -0.3402
20120SOL     OW62612   2.006   9.432  10.410 -0.5338 -0.3353 -0.1753
20120SOL    HW162613   1.964   9.359  10.364 -0.0575 -0.3114 -0.6485
20120SOL    HW262614   1.947   9.450  10.483 -2.0890  0.5718 -1.5675
20121SOL     OW62615   9.393   3.005   4.022  0.4775 -0.2221  0.4375
20121SOL    HW162616   9.380   3.099   4.034  0.0522  0.1298 -2.1107
20121SOL    HW262617   9.488   2.994   4.019  0.5533  0.5280 -1.3289
20122SOL     OW62618   8.124   9.868   6.411  0.1741 -0.0697  0.2876
20122SOL    HW162619   8.032   9.867   6.384  0.3769  0.9127 -0.4906
20122SOL    HW262620   8.134   9.950   6.459  1.0690  0.7665 -1.2561
20123SOL     OW62621   5.850   8.648   9.357 -0.6041 -0.4389 -0.5336
20123SOL    HW162622   5.879   8.740   9.356 -2.9544  0.3810 -1.5293
20123SOL    HW262623   5.894   8.609   9.281 -0.6557  0.2569 -0.9354
20124SOL     OW62624   8.603   1.258   6.205  0.1362  0.1717 -0.1131
20124SOL    HW162625   8.516   1.272   6.165  0.1622  0.4225 -0.0871
20124SOL    HW262626   8.614   1.163   6.206  0.2549  0.1692 -0.9746
20125SOL     OW62627   1.638   2.089   5.989 -0.3988  0.2638  0.0021
20125SOL    HW162628   1.630   2.182   5.964 -0.6317  0.6687  1.4856
20125SOL    HW262629   1.595   2.084   6.074  0.2667 -1.0730  0.2747
20126SOL     OW62630   6.326   8.876   8.366  0.4052 -0.2105 -0.2995
20126SOL    HW162631   6.378   8.939   8.414  0.3143  0.4778 -1.0839
20126SOL    HW262632   6.251   8.926   8.334 -0.9649 -1.2507  1.1097
20127SOL     OW62633   5.329   9.718  10.152  0.5505  0.6155  0.1132
20127SOL    HW162634   5.296   9.722  10.242 -0.0263  1.1441 -0.1091
20127SOL    HW262635   5.292   9.637  10.116 -1.2623  1.5847 -0.3828
20128SOL     OW62636   1.153   5.374   3.588  0.8701 -0.2396  0.3237
20128SOL    HW162637   1.212   5.318   3.637  1.1352  0.9664  1.4426
20128SOL    HW262638   1.123   5.439   3.651 -0.1647  0.3121 -0.6893
20129SOL     OW62639   7.595   5.512   5.868  0.1676 -0.3764 -0.3317
20129SOL    HW162640   7.533   5.580   5.841 -0.5246 -0.7403  0.3034
20129SOL    HW262641   7.543   5.432   5.872  0.6924 -0.7022  0.1746
20130SOL     OW62642   2.334   0.721   1.950  0.0888  0.0888  0.2537
20130SOL    HW162643   2.405   0.674   1.906 -0.8441 -0.1525 -1.0771
20130SOL    HW262644   2.377   0.779   2.012  1.5091  0.7555 -1.2942
20131SOL     OW62645   7.037   4.186   3.558 -0.0978 -0.7597 -0.2330
20131SOL    HW162646   7.077   4.117   3.506 -0.2735 -1.3754  0.4419
20131SOL    HW262647   7.005   4.142   3.637 -1.7304 -0.2172 -0.5473
20132SOL     OW62648   8.399   4.430   9.135  0.6384 -0.0768 -0.2079
20132SOL    HW162649   8.471   4.407   9.077  0.9362  0.6890 -0.1594
20132SOL    HW262650   8.439   4.439   9.221  0.8209  1.8839 -0.4391
20133SOL     OW62651   9.210   1.799   7.698  0.3855 -0.3062 -0.2030
20133SOL    HW162652   9.115   1.796   7.688  0.3397 -0.1947  0.1660
20133SOL    HW262653   9.224   1.847   7.780  0.7001 -1.8263  0.6763
20134SOL     OW62654   1.597   0.223   4.137 -0.2834  0.6988  1.0089
20134SOL    HW162655   1.521   0.211   4.080  0.0560 -1.6015  0.9501
20134SOL    HW262656   1.569   0.288   4.201 -2.5392 -0.4799  1.3203
20135SOL     OW62657   1.103   0.306   9.025  0.4367  0.2567  0.3134
20135SOL    HW162658   1.123   0.375   8.962 -0.5720  0.4493  0.2032
20135SOL    HW262659   1.146   0.335   9.106  2.6646 -0.5050 -0.5013
20136SOL     OW62660   8.364   8.733   6.225  0.2522 -0.0342  0.3068
20136SOL    HW162661   8.324   8.816   6.252  0.6645  0.8736 -1.6747
20136SOL    HW262662   8.459   8.750   6.231  0.3664  0.2508 -1.6318
20137SOL     OW62663   2.780   5.354  10.290  0.0574  0.0059 -0.1096
20137SOL    HW162664   2.703   5.298  10.298 -1.1024  1.4903 -0.5919
20137SOL    HW262665   2.846   5.311  10.345 -1.1341 -1.2320  0.4085
20138SOL     OW62666   2.511   2.478   6.766  0.4566  0.6613  0.0894
20138SOL    HW162667   2.443   2.411   6.769 -0.2966  1.3997 -0.3063
20138SOL    HW262668   2.516   2.504   6.675 -1.3986  3.2820  0.6391
20139SOL     OW62669   1.429   2.193   3.175 -0.0797 -0.2289  0.0925
20139SOL    HW162670   1.369   2.179   3.249  0.3409  0.9044  0.6819
20139SOL    HW262671   1.397   2.134   3.107 -2.4042  0.9102  0.0751
20140SOL     OW62672   9.140   1.175   8.229 -0.0438  0.3408  0.4493
20140SOL    HW162673   9.196   1.136   8.296 -0.2122 -4.7151 -1.8460
20140SOL    HW262674   9.200   1.204   8.161 -0.0041 -1.2133 -0.2118
20141SOL     OW62675   7.438   6.110   6.957  0.1464  0.2933 -0.6472
20141SOL    HW162676   7.498   6.098   6.884  2.4268 -0.5289  1.2429
20141SOL    HW262677   7.455   6.199   6.988  0.0127  0.2463 -0.4320
20142SOL     OW62678   1.486   7.598   8.251 -0.0886  0.0244 -0.4762
20142SOL    HW162679   1.527   7.547   8.320  0.8419 -0.9302 -1.6888
20142SOL    HW262680   1.523   7.563   8.170 -1.2680  0.9920 -1.4751
20143SOL     OW62681   4.183   5.162   9.151 -0.2483  0.4220 -0.1332
20143SOL    HW162682   4.205   5.228   9.217 -1.3874  1.2206 -0.5064
20143SOL    HW262683   4.219   5.080   9.185 -1.1046  0.7474  1.6518
20144SOL     OW62684   3.146   3.330   6.378  0.0612  0.0653 -0.0183
20144SOL    HW162685   3.116   3.272   6.448 -1.3190  1.3837  0.5149
20144SOL    HW262686   3.092   3.408   6.385  0.7757  0.7826 -1.7490
20145SOL     OW62687   6.438  10.489   8.943 -0.1374 -0.2097  0.3178
20145SOL    HW162688   6.438  10.499   9.038  0.7913  1.6140  0.1710
20145SOL    HW262689   6.523  10.450   8.922  0.1898  0.5827  0.1490
20146SOL     OW62690   3.384   9.605   4.942  0.5327 -0.2750 -0.0964
20146SOL    HW162691   3.298   9.642   4.921  0.3875 -0.8848 -0.6314
20146SOL    HW262692   3.385   9.599   5.038  0.3091  0.4951 -0.0424
20147SOL     OW62693   3.629   8.342   3.674 -0.0793  0.6352 -0.4489
20147SOL    HW162694   3.615   8.320   3.582 -1.1103  0.6989 -0.3185
20147SOL    HW262695   3.623   8.259   3.720 -3.1202  0.9685 -0.0557
20148SOL     OW62696   7.183   4.189  10.005  0.4305  0.4665  0.2189
20148SOL    HW162697   7.241   4.116  10.023 -0.8739 -0.8658 -0.7482
20148SOL    HW262698   7.177   4.236  10.088  1.5121 -0.3362  0.7791
20149SOL     OW62699   0.791   9.898   1.369 -0.7219 -0.0072 -0.1090
20149SOL    HW162700   0.781   9.942   1.453 -0.6976 -0.3334  0.0667
20149SOL    HW262701   0.771   9.806   1.388  1.4382 -0.4969  0.0351
20150SOL     OW62702   2.892   5.929   2.067  0.5655 -0.2333  0.1904
20150SOL    HW162703   2.933   5.894   2.147  2.0689  0.1194 -0.3847
20150SOL    HW262704   2.850   5.854   2.027  1.1803 -0.7592  0.5094
20151SOL     OW62705   9.042   2.955   1.213  0.0708 -0.5830 -0.4151
20151SOL    HW162706   9.038   2.933   1.306 -1.0931  2.5288  0.3974
20151SOL    HW262707   8.954   2.989   1.192  0.0477 -1.9192 -2.9034
20152SOL     OW62708   1.060   3.403   1.088  0.3398 -0.5957  0.0636
20152SOL    HW162709   1.141   3.352   1.086 -0.7999 -2.5261 -2.2341
20152SOL    HW262710   1.089   3.493   1.108  2.9352 -1.3122 -0.0397
20153SOL     OW62711   8.910   7.768   1.041 -0.2606  0.0741  0.5644
20153SOL    HW162712   8.918   7.805   0.954 -2.2146 -1.5122 -0.3801
20153SOL    HW262713   8.817   7.776   1.062  0.3183  1.5063  3.0714
20154SOL     OW62714   4.373   9.176   2.943 -0.4463 -0.2440 -0.2990
20154SOL    HW162715   4.465   9.150   2.951 -0.1275  0.6398 -0.9448
20154SOL    HW262716   4.360   9.189   2.849 -1.1509 -0.0567 -0.1803
20155SOL     OW62717   6.880   9.895  10.189  0.2736 -0.1145  0.1277
20155SOL    HW162718   6.798   9.880  10.143 -0.5031  1.0548  1.0646
20155SOL    HW262719   6.881   9.989  10.206  1.0186 -0.3531  1.5540
20156SOL     OW62720   4.640   2.009   1.974  0.5836  0.3820 -0.4579
20156SOL    HW162721   4.712   2.031   2.033  1.2859  1.1876 -1.5702
20156SOL    HW262722   4.562   2.041   2.018  0.8768 -0.5832  0.8069
20157SOL     OW62723   4.610   8.239   3.823 -0.2659 -0.2114  0.4299
20157SOL    HW162724   4.639   8.174   3.887  0.9122  2.1685  2.4433
20157SOL    HW262725   4.625   8.323   3.865 -1.2669  1.4365 -2.2688
20158SOL     OW62726   7.753   0.577   8.475 -0.1573  0.2140 -0.2935
20158SOL    HW162727   7.700   0.623   8.409 -0.9239 -0.7083 -0.3339
20158SOL    HW262728   7.702   0.585   8.555 -0.3140 -0.5800 -0.3068
20159SOL     OW62729   7.146   0.339   6.871 -0.7398 -0.1008  0.2910
20159SOL    HW162730   7.173   0.249   6.852 -0.1579  0.4647 -1.8657
20159SOL    HW262731   7.221   0.377   6.916 -0.1931 -0.1890 -0.5073
20160SOL     OW62732  10.308  10.644   9.801 -0.4025  0.2433  0.0503
20160SOL    HW162733  10.300  10.643   9.896 -2.3488  1.2601 -0.0352
20160SOL    HW262734  10.389  10.691   9.783  0.4199 -0.6932  1.1824
20161SOL     OW62735   5.052   3.357  10.048  0.3044  0.0497  0.0282
20161SOL    HW162736   5.044   3.352   9.953 -1.2905 -0.8416  0.1704
20161SOL    HW262737   5.017   3.443  10.071  1.2169  0.4969 -0.2179
20162SOL     OW62738   7.173   4.466   1.904  0.2082 -0.5967 -0.1748
20162SOL    HW162739   7.187   4.498   1.815 -0.3953  0.1722  0.0006
20162SOL    HW262740   7.082   4.487   1.923 -0.3214 -2.6517 -0.1375
20163SOL     OW62741   4.205   1.521   4.307 -0.4574 -0.4310 -0.7750
20163SOL    HW162742   4.209   1.426   4.313  0.9921 -0.4292 -1.3868
20163SOL    HW262743   4.231   1.552   4.394 -0.8834 -0.5870 -0.5899
20164SOL     OW62744   5.753   8.493   8.182 -0.4472 -0.0249 -0.0865
20164SOL    HW162745   5.663   8.518   8.163  0.0415  0.9866 -1.2072
20164SOL    HW262746   5.755   8.398   8.168 -1.2646 -0.0146 -0.3182
20165SOL     OW62747   8.767   1.700   8.561  0.0327  0.4438 -0.4733
20165SOL    HW162748   8.705   1.716   8.632 -0.8237  0.0942 -1.1163
20165SOL    HW262749   8.768   1.781   8.510  1.3684  1.0397  0.4394
20166SOL     OW62750   9.391   6.690   0.267 -0.0388  0.0278  0.0708
20166SOL    HW162751   9.316   6.631   0.269  0.6321 -0.8653  2.3295
20166SOL    HW262752   9.466   6.635   0.292  0.9164  1.4445  0.4740
20167SOL     OW62753   8.425   6.741   1.756  0.2972  0.4383 -0.4031
20167SOL    HW162754   8.434   6.835   1.773 -2.3500  0.4073  1.8710
20167SOL    HW262755   8.490   6.701   1.814  0.6929  0.8096 -0.5782
20168SOL     OW62756   4.804   4.676   5.925  0.0789 -0.5443  0.5834
20168SOL    HW162757   4.761   4.597   5.894 -0.8308 -0.8577  2.4767
20168SOL    HW262758   4.748   4.747   5.894 -0.6841 -0.8373  1.2367
20169SOL     OW62759   6.848  10.117   2.323  1.0976 -0.5968 -0.0789
20169SOL    HW162760   6.914  10.136   2.256  0.6600  0.5261 -0.2158
20169SOL    HW262761   6.774  10.173   2.301 -0.3493 -2.6045 -0.5386
20170SOL     OW62762   0.033   1.553   9.187  0.2367  0.3535 -0.1692
20170SOL    HW162763   0.058   1.484   9.126 -0.4042  0.1603 -0.2240
20170SOL    HW262764  -0.063   1.557   9.181  0.0722 -0.2557  1.4512
20171SOL     OW62765   7.640   1.143   6.162 -0.7104  0.1163 -0.0927
20171SOL    HW162766   7.574   1.161   6.096 -1.3289  3.5621  1.2232
20171SOL    HW262767   7.597   1.163   6.245  1.2565  0.1484  0.9836
20172SOL     OW62768  10.173   4.055   9.643 -0.0494 -0.2138  0.5669
20172SOL    HW162769  10.080   4.079   9.646  0.2766  1.1154  0.9238
20172SOL    HW262770  10.218   4.133   9.675  1.3514  0.0192 -1.8125
20173SOL     OW62771   8.715   0.130   5.105  0.5993  0.1481 -0.1407
20173SOL    HW162772   8.743   0.181   5.029  1.0026 -3.0190 -2.2986
20173SOL    HW262773   8.620   0.121   5.095  0.6118 -0.0299 -0.1047
20174SOL     OW62774   1.150   7.247   7.274  0.6541 -0.4405 -0.5457
20174SOL    HW162775   1.122   7.255   7.183 -1.4036  0.1780  0.0774
20174SOL    HW262776   1.246   7.250   7.271  0.6677 -1.5963 -2.7644
20175SOL     OW62777   9.240   2.013   1.995  0.4853  0.4525  0.1032
20175SOL    HW162778   9.208   1.994   1.907 -0.5907 -0.2034  0.6206
20175SOL    HW262779   9.171   2.066   2.035 -0.4861 -1.7720  1.5640
20176SOL     OW62780   9.840   2.904   2.857  0.7152 -0.0604  0.1042
20176SOL    HW162781   9.841   2.942   2.769 -0.5307  0.5227  0.3132
20176SOL    HW262782   9.853   2.979   2.915 -2.0494  0.1769  0.5362
20177SOL     OW62783  10.509   2.817  10.629  0.3410  0.1781 -0.2536
20177SOL    HW162784  10.425   2.811  10.676  0.2010  0.9612 -0.3956
20177SOL    HW262785  10.496   2.764  10.551 -0.1258  0.5266 -0.4176
20178SOL     OW62786   3.413   9.541   1.336 -0.2006  0.0714  1.0162
20178SOL    HW162787   3.495   9.549   1.384  0.2106  1.6092  0.1545
20178SOL    HW262788   3.428   9.590   1.255 -0.3901 -3.5333 -1.3905
20179SOL     OW62789   0.669   1.764   9.586  0.4521 -0.3898  0.9699
20179SOL    HW162790   0.722   1.688   9.564 -1.1694 -1.2701 -0.0734
20179SOL    HW262791   0.690   1.783   9.677  0.5672 -2.3742  1.4009
20180SOL     OW62792   4.118   7.798   7.520  0.3902  0.9637  0.4270
20180SOL    HW162793   4.071   7.727   7.476  2.1009 -0.2369  0.4357
20180SOL    HW262794   4.128   7.865   7.452  2.5144 -0.6361 -0.9621
20181SOL     OW62795   7.321   9.485   4.724  0.8083 -0.1664 -0.0313
20181SOL    HW162796   7.377   9.461   4.650  0.0400 -0.2290 -0.6124
20181SOL    HW262797   7.327   9.411   4.784 -0.7895 -1.4853 -1.3693
20182SOL     OW62798   2.327   4.580   4.855 -0.0672  0.2420 -0.3933
20182SOL    HW162799   2.328   4.498   4.805 -2.5925  0.4242 -0.8861
20182SOL    HW262800   2.418   4.594   4.881  0.6349 -2.0291 -1.4097
20183SOL     OW62801   4.044   4.115   6.206 -0.3241  0.1499 -0.4707
20183SOL    HW162802   3.971   4.061   6.238 -0.1404 -0.1624 -0.5703
20183SOL    HW262803   4.003   4.195   6.175 -0.4641  0.6919  1.0403
20184SOL     OW62804   4.023   7.456   5.471  0.4449 -0.4221  0.1206
20184SOL    HW162805   3.944   7.408   5.497  0.0861  0.1766  0.1586
20184SOL    HW262806   4.085   7.388   5.446 -1.0481 -0.8793 -2.7073
20185SOL     OW62807   1.488   9.434   5.900 -0.1537  0.3564 -0.2609
20185SOL    HW162808   1.408   9.417   5.950  2.1388 -0.4511  3.5899
20185SOL    HW262809   1.523   9.348   5.881 -0.6735  0.6739 -3.0058
20186SOL     OW62810   3.810   0.950   7.769 -0.1294 -0.2645 -0.3336
20186SOL    HW162811   3.875   0.909   7.825 -0.1595  0.7222  0.4658
20186SOL    HW262812   3.747   0.881   7.749  0.2138 -0.7824  0.3589
20187SOL     OW62813   6.371   3.863   2.674 -0.1077 -0.2361  0.4209
20187SOL    HW162814   6.290   3.876   2.724 -0.3443  2.9977 -0.5562
20187SOL    HW262815   6.437   3.912   2.722 -0.6961  4.5196 -2.8899
20188SOL     OW62816   0.057   4.241   6.107 -0.0380 -0.1277  0.2675
20188SOL    HW162817   0.086   4.302   6.039 -1.6333  1.1129  0.6432
20188SOL    HW262818   0.051   4.294   6.186 -1.3152 -0.7956  0.6475
20189SOL     OW62819   6.165   1.104   1.350  0.4152 -0.6471  0.2511
20189SOL    HW162820   6.098   1.173   1.347  2.2007  1.1995  0.2881
20189SOL    HW262821   6.238   1.145   1.396  1.3083 -2.8640  0.9116
20190SOL     OW62822   5.424   9.700   3.677  0.2313  0.5061  0.0607
20190SOL    HW162823   5.363   9.738   3.739  0.2755  0.8923 -0.1302
20190SOL    HW262824   5.392   9.610   3.665 -0.2504  0.6756  0.0264
20191SOL     OW62825   7.349   4.406   7.977 -0.2037  0.4266 -0.0304
20191SOL    HW162826   7.262   4.407   8.017  0.2590  0.5855  1.0194
20191SOL    HW262827   7.374   4.499   7.973  1.2331  0.2590  2.7567
20192SOL     OW62828   1.178   7.576   9.254  0.5062  0.2594  0.3100
20192SOL    HW162829   1.249   7.636   9.234  2.1288 -1.6320  0.0717
20192SOL    HW262830   1.195   7.547   9.344 -1.2232  1.3621  1.0547
20193SOL     OW62831   7.062   7.024   6.511 -0.3813  0.4131  0.2735
20193SOL    HW162832   6.986   7.075   6.537  2.6731  3.9224  3.5315
20193SOL    HW262833   7.120   7.087   6.469  1.2873 -1.8312 -1.0167
20194SOL     OW62834   1.058   1.937   5.811 -0.3789 -0.7654 -0.5075
20194SOL    HW162835   1.123   1.906   5.873 -0.0083 -0.3530 -0.6897
20194SOL    HW262836   0.978   1.946   5.863  0.1462  0.4602  0.1307
20195SOL     OW62837   3.048   2.950   4.921  0.0179  0.1212 -0.1911
20195SOL    HW162838   3.003   2.991   4.995 -0.0462  1.2016 -0.8275
20195SOL    HW262839   3.011   2.861   4.918 -1.2421  0.6197 -0.0070
20196SOL     OW62840   8.806   3.147   3.995 -0.1909 -0.4503  0.0502
20196SOL    HW162841   8.840   3.207   3.929  2.0912  0.7787  2.1911
20196SOL    HW262842   8.796   3.064   3.949 -2.2860  1.1320 -2.7024
20197SOL     OW62843   9.729  10.339   1.675 -0.6832 -0.1814 -0.0273
20197SOL    HW162844   9.807  10.353   1.728  0.3978  1.2901 -1.8847
20197SOL    HW262845   9.661  10.391   1.718  0.8403  3.2159 -1.4107
20198SOL     OW62846   8.146   9.848   4.426  0.1854  0.3110  0.0787
20198SOL    HW162847   8.092   9.768   4.428  1.2154 -0.4072  0.1327
20198SOL    HW262848   8.217   9.829   4.488  0.8123  1.0028 -0.4184
20199SOL     OW62849   0.133   3.294   9.881  0.4356  0.5422  0.7290
20199SOL    HW162850   0.045   3.327   9.897  0.6755  1.9022 -0.5448
20199SOL    HW262851   0.191   3.366   9.906  0.9927  1.0549 -1.7392
20200SOL     OW62852   2.051   5.795   3.743  0.8412  0.6619 -0.0042
20200SOL    HW162853   1.998   5.747   3.807  0.9093  1.8972  1.0150
20200SOL    HW262854   2.002   5.876   3.728  1.0787  0.5986 -1.1529
20201SOL     OW62855  10.518   2.851   7.467 -0.3119 -0.3438 -0.0784
20201SOL    HW162856  10.536   2.897   7.550 -0.2375 -0.3027 -0.1173
20201SOL    HW262857  10.574   2.774   7.470 -0.4143 -0.4158 -0.0272
20202SOL     OW62858   1.827   0.956   7.827 -0.0941  0.2807 -0.2718
20202SOL    HW162859   1.818   1.050   7.839 -0.8554  0.1013  0.6820
20202SOL    HW262860   1.921   0.940   7.841  0.0707  0.9114 -0.6057
20203SOL     OW62861   0.242   7.611   1.740  0.2804  0.6577 -0.6027
20203SOL    HW162862   0.166   7.576   1.694 -0.2909  0.3701  0.5177
20203SOL    HW262863   0.207   7.684   1.792  0.2663 -0.8431  1.6484
20204SOL     OW62864   1.353   3.959   3.874  0.1459 -0.5419  0.1782
20204SOL    HW162865   1.346   4.013   3.795  0.3435 -1.4279 -0.4617
20204SOL    HW262866   1.264   3.957   3.909 -0.2855 -1.4121 -0.9017
20205SOL     OW62867   7.168   4.609   1.104 -0.1446 -0.5679  0.3343
20205SOL    HW162868   7.159   4.678   1.169 -0.4766 -1.0243  0.7765
20205SOL    HW262869   7.259   4.615   1.074 -0.2927  0.3508  0.0349
20206SOL     OW62870   6.152   4.232   9.010  0.7293 -0.4771  0.1130
20206SOL    HW162871   6.230   4.257   9.060  0.6605  1.3035 -0.5955
20206SOL    HW262872   6.080   4.240   9.073  0.5758  2.2210 -0.2602
20207SOL     OW62873   0.303   7.152   2.021 -0.3102 -0.1155  0.5529
20207SOL    HW162874   0.243   7.179   1.951 -2.0683 -2.6369  0.9317
20207SOL    HW262875   0.246   7.128   2.094  1.4516  1.7771  2.6734
20208SOL     OW62876   6.604   1.090   5.451  0.2133 -0.8236  0.1626
20208SOL    HW162877   6.670   1.041   5.500  0.9188  0.3163  0.3788
20208SOL    HW262878   6.652   1.132   5.380 -0.2877 -0.0451  0.2735
20209SOL     OW62879  10.099   7.436   9.644  0.5152  0.2282 -0.3842
20209SOL    HW162880  10.040   7.453   9.570 -0.1186  0.7634  0.2186
20209SOL    HW262881  10.040   7.410   9.715  1.0397  0.4385  0.1338
20210SOL     OW62882   5.004   5.265   4.623 -0.0994  0.0831 -0.0847
20210SOL    HW162883   4.953   5.274   4.703  0.5243 -0.7129  0.4168
20210SOL    HW262884   5.093   5.244   4.653 -0.3280 -2.5632 -0.9604
20211SOL     OW62885   0.698   8.417   4.611  0.0304  0.0668 -0.6885
20211SOL    HW162886   0.750   8.462   4.677 -1.5108 -0.1097  0.7021
20211SOL    HW262887   0.677   8.485   4.546 -0.3172  0.8048  0.1769
20212SOL     OW62888   0.266   1.747   3.194  0.1067  0.8594 -0.2877
20212SOL    HW162889   0.336   1.809   3.176  1.6801 -1.1672 -1.5883
20212SOL    HW262890   0.266   1.737   3.289 -0.2103  2.7728 -0.0336
20213SOL     OW62891   2.257   3.100   4.040 -0.6704  0.6966 -0.0141
20213SOL    HW162892   2.305   3.175   4.075  1.3097 -0.9086  0.9235
20213SOL    HW262893   2.237   3.047   4.117 -1.5801  0.0056 -0.7100
20214SOL     OW62894   7.939   6.313   0.837 -0.4231 -0.1239  0.0768
20214SOL    HW162895   7.938   6.361   0.755 -0.5983  2.0723  1.2990
20214SOL    HW262896   8.010   6.249   0.827  2.0285  2.4808 -0.5248
20215SOL     OW62897   6.775   5.739   6.264 -0.0832  0.1110  0.1138
20215SOL    HW162898   6.712   5.751   6.335 -0.1782 -0.0370  0.0560
20215SOL    HW262899   6.727   5.765   6.185  0.0215  0.2743  0.1043
20216SOL     OW62900   3.982  10.098   4.783 -0.1654  0.7788  0.4019
20216SOL    HW162901   4.059  10.046   4.759 -0.2673  0.1065  1.4808
20216SOL    HW262902   3.925  10.092   4.706  0.9264  1.4734 -0.5019
20217SOL     OW62903   4.249   7.944   0.152 -0.3680  0.6476  0.2853
20217SOL    HW162904   4.291   7.860   0.169  0.3358  1.3709  2.4260
20217SOL    HW262905   4.158   7.931   0.178 -0.9345 -0.1683 -1.9120
20218SOL     OW62906   9.037   4.245   9.976  0.0882  0.4030 -0.7849
20218SOL    HW162907   9.072   4.246   9.887 -0.7413  0.0855 -1.1288
20218SOL    HW262908   8.965   4.181   9.972  0.2681  0.1333  0.1980
20219SOL     OW62909   0.207   3.561   7.786  0.0636  0.2311  0.6853
20219SOL    HW162910   0.280   3.524   7.736  0.7243  1.7041  0.5054
20219SOL    HW262911   0.149   3.598   7.720 -0.8365 -0.8599  0.8334
20220SOL     OW62912   6.389   4.578   8.935 -0.2722  0.4962 -0.0786
20220SOL    HW162913   6.304   4.536   8.940  0.0781 -0.7039 -2.6084
20220SOL    HW262914   6.447   4.520   8.984 -0.5574  0.2363 -0.0472
20221SOL     OW62915   6.420   8.246  10.140  0.1750 -0.1618 -0.2688
20221SOL    HW162916   6.484   8.296  10.191  0.9258  0.1010 -1.4286
20221SOL    HW262917   6.337   8.291  10.155  0.9231  1.8100 -1.7243
20222SOL     OW62918   6.345  10.136   6.156 -0.4577  0.7120  0.8365
20222SOL    HW162919   6.408  10.125   6.228  1.3225  1.3842 -0.5319
20222SOL    HW262920   6.346  10.052   6.110 -1.4595  0.3427  1.4544
20223SOL     OW62921   9.198   8.658   6.385  0.2298  0.1960 -0.1834
20223SOL    HW162922   9.257   8.728   6.359 -0.7392  1.0386 -0.1719
20223SOL    HW262923   9.252   8.579   6.382  1.3709  0.9485 -0.0800
20224SOL     OW62924   9.050   5.809   2.834 -0.4351  1.5229  0.0764
20224SOL    HW162925   9.022   5.895   2.804  1.2654  0.5875 -5.1467
20224SOL    HW262926   9.033   5.751   2.761  1.1748 -2.0578  2.2721
20225SOL     OW62927   3.220   2.387   9.972  0.2204  0.3536 -0.2025
20225SOL    HW162928   3.294   2.326   9.961  0.9467  1.5205 -2.2565
20225SOL    HW262929   3.148   2.331  10.001  1.4147 -1.1144  0.1184
20226SOL     OW62930   5.889   8.655   6.383 -0.2831 -0.3879 -0.3174
20226SOL    HW162931   5.971   8.609   6.404 -0.8451 -1.6097 -0.6903
20226SOL    HW262932   5.902   8.686   6.293 -0.3800 -0.9647 -0.5375
20227SOL     OW62933   5.204   3.187   2.155 -0.4061  0.2499  0.6028
20227SOL    HW162934   5.276   3.209   2.213  0.4380 -0.5167 -0.1234
20227SOL    HW262935   5.133   3.160   2.214  0.1326  0.3404  1.2984
20228SOL     OW62936   1.633   6.212   6.937  0.3176  0.6642 -0.6277
20228SOL    HW162937   1.627   6.126   6.894 -0.3689  0.2199  0.3310
20228SOL    HW262938   1.595   6.273   6.874  0.1008  0.1482 -1.0025
20229SOL     OW62939   4.571   8.480   9.025  0.0223 -0.3519  0.6079
20229SOL    HW162940   4.646   8.532   9.056 -0.6131  0.9996 -0.0620
20229SOL    HW262941   4.609   8.423   8.958  0.7749 -0.9782  1.5216
20230SOL     OW62942   1.142   0.038   9.263 -0.2424  0.4497  0.4157
20230SOL    HW162943   1.110   0.117   9.305 -0.5238  0.2528  0.5763
20230SOL    HW262944   1.236   0.053   9.252 -0.0892  0.3620  1.4527
20231SOL     OW62945  10.636   3.471  10.618 -0.4621  0.4039  0.0121
20231SOL    HW162946  10.631   3.484  10.523  1.2101  1.8528  0.0841
20231SOL    HW262947  10.643   3.377  10.629  0.6694  0.2944 -1.3948
20232SOL     OW62948   2.662   4.942   7.499  0.8277  0.0618  0.2475
20232SOL    HW162949   2.713   5.013   7.536  1.1744 -0.5267  0.9197
20232SOL    HW262950   2.636   4.974   7.413  1.4293  0.7847  0.3221
20233SOL     OW62951   8.359   5.883   8.653 -0.1663  0.0446 -0.4141
20233SOL    HW162952   8.423   5.818   8.681 -0.3762 -0.3922 -0.9410
20233SOL    HW262953   8.411   5.962   8.638 -0.0924  0.4636  1.6491
20234SOL     OW62954   4.918   3.952   5.276  0.2292  0.1361 -0.4460
20234SOL    HW162955   4.867   3.913   5.205 -1.4006 -0.7534  1.1253
20234SOL    HW262956   4.993   3.893   5.287 -0.3408 -0.6092 -0.4237
20235SOL     OW62957   6.337   3.506   4.069  0.1630 -0.9862 -0.3718
20235SOL    HW162958   6.425   3.515   4.104 -0.2655 -0.9260  0.7328
20235SOL    HW262959   6.295   3.441   4.126 -0.4860 -1.0680 -0.9291
20236SOL     OW62960   1.736   0.578   7.577  0.2842  0.7877  0.3127
20236SOL    HW162961   1.719   0.640   7.648  0.3008  0.7460  0.3526
20236SOL    HW262962   1.802   0.518   7.612  0.5060  0.9415  0.1622
20237SOL     OW62963   6.831   8.765   6.241 -0.0245 -0.8697  0.0737
20237SOL    HW162964   6.797   8.709   6.310 -0.5107  0.5838  1.0588
20237SOL    HW262965   6.837   8.852   6.281  0.9564 -0.2554 -1.3139
20238SOL     OW62966   5.271   8.628   0.174 -0.0349  0.4001  0.2735
20238SOL    HW162967   5.281   8.721   0.196 -1.8662  1.5446 -3.0429
20238SOL    HW262968   5.189   8.623   0.126  0.0918 -2.9665  0.1636
20239SOL     OW62969   2.468   9.585   3.185 -0.6528  0.1741 -0.4757
20239SOL    HW162970   2.376   9.568   3.163 -0.3297 -0.4168 -1.4140
20239SOL    HW262971   2.491   9.662   3.134 -0.9842  1.1458  0.7784
20240SOL     OW62972   0.962   7.574   4.916  0.2572 -0.1697 -0.0829
20240SOL    HW162973   0.900   7.558   4.845  1.2452  0.1069 -1.0403
20240SOL    HW262974   0.924   7.646   4.966  0.2441  0.6288 -1.2137
20241SOL     OW62975   4.929   2.688   8.654 -0.0111  0.0616 -0.2963
20241SOL    HW162976   4.897   2.753   8.717  1.1286 -0.3102  0.6996
20241SOL    HW262977   4.933   2.736   8.571 -2.0730  0.4093 -0.2456
20242SOL     OW62978   1.969   9.476   6.021  0.1174 -0.4060 -0.2796
20242SOL    HW162979   1.925   9.448   5.940 -3.2083 -0.3075  1.3407
20242SOL    HW262980   2.010   9.559   5.997 -0.6306 -0.4560 -1.9410
20243SOL     OW62981   3.376   9.667   7.950  0.4780  0.3349  0.9860
20243SOL    HW162982   3.338   9.655   7.863  0.4285  0.0472  1.0437
20243SOL    HW262983   3.362   9.759   7.971  0.8205  0.4950  0.5329
20244SOL     OW62984   9.974   5.970   7.333  0.3915 -0.2755 -0.2707
20244SOL    HW162985  10.000   5.880   7.349  1.1669  0.0736  0.5486
20244SOL    HW262986   9.886   5.976   7.371 -0.5360 -1.2054 -2.1780
20245SOL     OW62987   9.372   8.774   1.349  0.0893  0.8026 -0.0371
20245SOL    HW162988   9.396   8.832   1.420  1.1761 -0.2582  0.4913
20245SOL    HW262989   9.447   8.716   1.338 -0.7938 -0.2497 -0.8031
20246SOL     OW62990   6.672   0.051   6.179  0.4983  0.2392  0.1002
20246SOL    HW162991   6.694   0.136   6.217 -0.8166  1.5591 -1.8876
20246SOL    HW262992   6.694   0.060   6.087  2.7802 -2.5509  0.2644
20247SOL     OW62993   6.533  10.056   0.648  0.3709 -0.6524  0.5033
20247SOL    HW162994   6.454  10.006   0.671 -0.5477  0.5165  0.0383
20247SOL    HW262995   6.574  10.075   0.732 -1.2638  0.8910  1.0365
20248SOL     OW62996   2.521   2.165   4.778  0.0457  0.0834 -0.3289
20248SOL    HW162997   2.552   2.197   4.693  0.0393  0.2131 -0.2834
20248SOL    HW262998   2.596   2.120   4.816  1.0650  2.6820  0.9479
20249SOL     OW62999   5.214   1.885   2.434  0.2272 -0.3475  0.2582
20249SOL    HW163000   5.288   1.826   2.422  2.3240  2.4374 -1.7943
20249SOL    HW263001   5.191   1.913   2.346 -2.0846  0.3221  1.0013
20250SOL     OW63002   2.420   9.699   8.412  0.3139 -0.5652  0.4613
20250SOL    HW163003   2.506   9.660   8.424 -0.3147 -1.5754  1.8917
20250SOL    HW263004   2.361   9.624   8.400 -0.7939 -0.0721  2.4422
20251SOL     OW63005   4.475   8.689   5.711 -0.3205  0.1504 -0.8302
20251SOL    HW163006   4.473   8.597   5.739 -0.8009  1.0760  2.6406
20251SOL    HW263007   4.384   8.719   5.718 -0.0695  1.0697 -1.3040
20252SOL     OW63008   5.310  10.630   8.945  0.2627  0.2861 -0.1532
20252SOL    HW163009   5.263  10.627   9.028  0.8409  0.9271  0.2098
20252SOL    HW263010   5.253  10.585   8.883 -0.4629  0.3642  0.4487
20253SOL     OW63011   4.602   7.457   0.984 -0.1672 -0.1146 -0.2669
20253SOL    HW163012   4.530   7.508   1.020  0.6524  2.5677 -2.1296
20253SOL    HW263013   4.562   7.400   0.918 -0.6147  2.0116 -1.9515
20254SOL     OW63014   7.318   2.976   1.542  0.2293 -0.1489 -0.0502
20254SOL    HW163015   7.389   2.953   1.483 -0.6849  0.1616 -1.3377
20254SOL    HW263016   7.360   2.997   1.625  1.6480  0.2378 -0.8442
20255SOL     OW63017   4.481   2.146  10.366 -0.0024 -0.0300  0.5982
20255SOL    HW163018   4.412   2.155  10.300  0.6655  2.4327  0.1355
20255SOL    HW263019   4.542   2.083  10.327 -0.4413  0.1395 -0.4048
20256SOL     OW63020   6.918   1.422   5.410 -0.1040 -0.0359  0.0116
20256SOL    HW163021   6.855   1.410   5.482  0.3821 -0.8136  0.3067
20256SOL    HW263022   6.988   1.360   5.428  0.0646 -0.1832 -1.0990
20257SOL     OW63023   3.609   2.090   4.886 -0.0193 -0.0405 -0.5057
20257SOL    HW163024   3.640   2.028   4.952  0.1537 -0.2333 -0.7639
20257SOL    HW263025   3.686   2.107   4.831  0.0955  0.8676 -0.0821
20258SOL     OW63026   4.855   2.845   3.209 -0.2069 -0.4572  0.2644
20258SOL    HW163027   4.781   2.799   3.170  0.5143 -0.5693 -1.0489
20258SOL    HW263028   4.828   2.936   3.211  0.3557 -0.1648 -2.1901
20259SOL     OW63029   4.734   5.913   2.581 -0.3600 -0.2933 -0.1180
20259SOL    HW163030   4.743   5.980   2.648  0.0734  0.0964 -0.5565
20259SOL    HW263031   4.645   5.924   2.548  0.1979  1.1344 -1.2787
20260SOL     OW63032   4.795  10.161   1.183 -0.0588 -0.3678  0.3354
20260SOL    HW163033   4.804  10.255   1.198  2.3336 -0.8104  2.2724
20260SOL    HW263034   4.718  10.137   1.234 -1.3316  0.6553 -1.0214
20261SOL     OW63035   9.429   2.048   7.145  0.1105  0.1634  0.1111
20261SOL    HW163036   9.434   2.135   7.185 -0.1483 -0.4107  1.4723
20261SOL    HW263037   9.336   2.035   7.127  0.0304 -0.1528  0.7101
20262SOL     OW63038   2.212   4.381   7.128 -0.9367  0.1957  0.0989
20262SOL    HW163039   2.227   4.325   7.204  0.7678  1.4759  0.7646
20262SOL    HW263040   2.283   4.359   7.068 -0.3914  1.4461  0.2672
20263SOL     OW63041   2.523   2.902   8.360  0.4957  0.2011  0.2494
20263SOL    HW163042   2.569   2.880   8.279 -0.9490  1.8619 -1.0888
20263SOL    HW263043   2.529   2.997   8.367 -1.3716  0.3170  0.8464
20264SOL     OW63044   1.490   4.671   6.392  0.1537  0.6685  0.0173
20264SOL    HW163045   1.521   4.594   6.344  0.6756  1.2044 -0.5268
20264SOL    HW263046   1.402   4.648   6.421 -0.6204  0.7161 -2.1443
20265SOL     OW63047   3.617   7.211   8.327  0.0190  0.2203 -0.2023
20265SOL    HW163048   3.552   7.264   8.281  1.0792  1.0664 -0.7775
20265SOL    HW263049   3.645   7.266   8.401 -1.5850 -1.0795  1.4520
20266SOL     OW63050   4.970   9.784   4.213 -0.0323 -0.1038  0.4265
20266SOL    HW163051   5.060   9.816   4.217  0.0696 -0.3147 -0.0887
20266SOL    HW263052   4.916   9.864   4.216  0.2230  0.1426 -0.8590
20267SOL     OW63053   6.934  10.161   7.833  0.0610  0.3424  0.2458
20267SOL    HW163054   6.842  10.174   7.809 -0.5961 -1.1242  1.7810
20267SOL    HW263055   6.964  10.091   7.775 -0.6443 -1.1282  1.6150
20268SOL     OW63056   6.416   9.392   5.916 -0.1501  0.3000  0.3114
20268SOL    HW163057   6.466   9.474   5.913  0.7833 -0.2753 -1.1050
20268SOL    HW263058   6.462   9.338   5.980  0.6631  0.0441 -0.4613
20269SOL     OW63059   4.015   1.368   8.715 -0.5305  0.1896  0.1548
20269SOL    HW163060   3.942   1.320   8.675 -0.1600  0.3950 -0.7991
20269SOL    HW263061   4.008   1.456   8.679 -0.3741  0.4711  0.8082
20270SOL     OW63062   3.481   0.314   9.193  0.2745 -0.0099 -0.5179
20270SOL    HW163063   3.542   0.245   9.219  0.1447 -0.7769 -2.0901
20270SOL    HW263064   3.394   0.274   9.201  0.0389  0.6907  0.5852
20271SOL     OW63065   8.578   9.488   1.832  0.2009 -0.2752 -0.4604
20271SOL    HW163066   8.483   9.471   1.840 -0.2168  1.2909 -1.7296
20271SOL    HW263067   8.616   9.401   1.819 -0.8010 -1.1687  1.9306
20272SOL     OW63068   3.896   6.273   6.604  0.1054  0.6287  0.4722
20272SOL    HW163069   3.807   6.293   6.632  0.2361  0.5355  0.9531
20272SOL    HW263070   3.889   6.265   6.508 -0.9375 -1.9368  0.6789
20273SOL     OW63071   3.682   5.268   6.839  0.7027  0.0117  0.3800
20273SOL    HW163072   3.695   5.185   6.885  0.5603 -0.5461 -0.5652
20273SOL    HW263073   3.675   5.333   6.909 -0.5228 -0.9531  1.2032
20274SOL     OW63074   7.110   9.615   6.501 -0.0001  0.5880 -0.1174
20274SOL    HW163075   7.057   9.553   6.451 -0.8602 -0.0081  1.4480
20274SOL    HW263076   7.068   9.619   6.587  1.2565  1.7699  0.4935
20275SOL     OW63077   8.529   2.820   9.167 -0.1344 -0.7118 -0.0433
20275SOL    HW163078   8.466   2.752   9.190  0.1815 -1.6658 -1.7908
20275SOL    HW263079   8.601   2.810   9.230 -1.6361  0.3735  1.9559
20276SOL     OW63080   2.792   6.190   4.644 -0.3548  0.0055 -0.3530
20276SOL    HW163081   2.741   6.137   4.706 -2.3832 -2.0847 -3.4509
20276SOL    HW263082   2.861   6.131   4.613  0.8147  1.1075  0.0642
20277SOL     OW63083   7.018   4.897   8.438 -0.5439 -0.1962  0.0975
20277SOL    HW163084   7.010   4.834   8.367 -1.1060  0.9393 -0.8819
20277SOL    HW263085   6.933   4.940   8.442 -0.0488  0.7808  0.4746
20278SOL     OW63086   4.408   6.390   8.216 -0.1604 -0.0589 -0.1319
20278SOL    HW163087   4.495   6.378   8.254  0.5785  0.1543 -1.6858
20278SOL    HW263088   4.423   6.443   8.138 -1.6858 -0.0589 -0.4563
20279SOL     OW63089   5.836   9.203   1.473 -0.1329 -0.0420  0.1704
20279SOL    HW163090   5.910   9.254   1.504 -0.4900 -0.2910  1.5245
20279SOL    HW263091   5.759   9.256   1.494 -0.3651  0.1495 -1.0813
20280SOL     OW63092   5.296   2.719   7.413  0.3391 -0.2601  0.5451
20280SOL    HW163093   5.359   2.709   7.485  0.9427 -0.7642 -0.0314
20280SOL    HW263094   5.345   2.692   7.335  0.0721  1.3901 -0.2343
20281SOL     OW63095   0.887  10.089   9.197  0.4875 -0.6822 -0.0183
20281SOL    HW163096   0.938  10.166   9.171  0.1395 -0.4426  0.0006
20281SOL    HW263097   0.944  10.042   9.257  0.8166 -0.5917 -0.2555
20282SOL     OW63098   2.626   0.875   0.297 -0.3037  0.3972  0.1441
20282SOL    HW163099   2.662   0.890   0.385 -1.3828  0.3796  0.6069
20282SOL    HW263100   2.553   0.936   0.291 -1.0209 -0.4855 -0.2570
20283SOL     OW63101   6.531   2.235   0.405 -0.1970  0.7601  0.6848
20283SOL    HW163102   6.600   2.181   0.443  1.4260 -0.3378 -3.2710
20283SOL    HW263103   6.455   2.178   0.401  0.6639 -0.3774 -0.7920
20284SOL     OW63104   8.326   3.687   2.245  0.4381  0.1234 -0.5150
20284SOL    HW163105   8.413   3.709   2.211  0.7478 -0.3925 -0.0820
20284SOL    HW263106   8.337   3.684   2.340 -0.6374  2.4995 -0.2516
20285SOL     OW63107   6.887   7.595   8.521 -0.0040  0.3612 -0.4317
20285SOL    HW163108   6.798   7.576   8.552  0.5383 -0.7083  0.5872
20285SOL    HW263109   6.902   7.533   8.450 -0.2323  0.8763 -0.9391
20286SOL     OW63110   1.865   0.660   3.109  0.2474 -0.0109 -0.5317
20286SOL    HW163111   1.772   0.684   3.109  0.2916  0.2096 -1.2888
20286SOL    HW263112   1.884   0.633   3.199 -0.8889 -1.3360 -0.6577
20287SOL     OW63113   0.744  10.501   0.561 -0.0156  0.4253 -0.1499
20287SOL    HW163114   0.737  10.488   0.655 -1.3720 -0.4255 -0.3377
20287SOL    HW263115   0.704  10.586   0.545 -0.6699  0.1421 -0.0510
20288SOL     OW63116   7.741  10.109   2.810  0.0490  0.2543 -0.6953
20288SOL    HW163117   7.718  10.042   2.875  0.5733 -0.5690 -1.3415
20288SOL    HW263118   7.831  10.132   2.830 -0.7456  2.3589  0.8622
20289SOL     OW63119   7.530   7.023   7.336  0.3624 -0.3661  0.3202
20289SOL    HW163120   7.496   6.937   7.311  1.3627 -0.8757  0.6823
20289SOL    HW263121   7.594   7.044   7.268  0.2093  0.0449  0.2993
20290SOL     OW63122   6.065   3.223   6.752 -0.2981 -0.4561 -0.1797
20290SOL    HW163123   5.980   3.224   6.796  0.1083 -1.5779  0.6608
20290SOL    HW263124   6.046   3.256   6.664 -1.7528 -1.3483 -0.2407
20291SOL     OW63125   3.782   7.421   3.423 -0.1094  0.0204  0.3418
20291SOL    HW163126   3.717   7.483   3.455  0.2588  0.3315  0.4861
20291SOL    HW263127   3.857   7.431   3.482 -0.2296 -0.9095  0.6748
20292SOL     OW63128   5.479   4.355   9.684  0.3268  0.2799 -0.6433
20292SOL    HW163129   5.507   4.344   9.593  3.4505  0.2224  0.1941
20292SOL    HW263130   5.511   4.277   9.729 -2.7170 -0.5748  0.3005
20293SOL     OW63131   9.924   3.374   7.226 -0.2676 -0.1792  0.1969
20293SOL    HW163132   9.990   3.440   7.247  0.1003 -0.7895  1.0234
20293SOL    HW263133   9.957   3.331   7.147 -0.6439  0.7866 -0.5048
20294SOL     OW63134   6.623   6.922   7.850  0.7928 -0.2393 -0.1673
20294SOL    HW163135   6.563   6.944   7.779 -0.5985 -1.7336  0.4923
20294SOL    HW263136   6.697   6.881   7.806  3.0023  4.2667 -1.3362
20295SOL     OW63137   7.689   0.860   2.682  0.3569 -0.6082  0.0056
20295SOL    HW163138   7.711   0.916   2.757  0.7431  2.5411 -2.2208
20295SOL    HW263139   7.599   0.884   2.660  0.2166 -1.5558 -0.5077
20296SOL     OW63140   0.910   3.473   1.413  0.0501 -0.5369  0.4713
20296SOL    HW163141   0.851   3.438   1.346 -1.1609 -2.3317  2.3393
20296SOL    HW263142   0.997   3.447   1.385  0.4673  3.7309 -3.3346
20297SOL     OW63143   2.343  10.302   4.137 -0.4828 -0.4088  0.2814
20297SOL    HW163144   2.327  10.354   4.058 -2.1665  0.9063  1.4249
20297SOL    HW263145   2.340  10.211   4.106  1.6031  0.0620 -1.5922
20298SOL     OW63146   1.446   9.797   8.793 -0.0011  0.1472 -0.1250
20298SOL    HW163147   1.463   9.882   8.753  1.7341  0.6018  1.4628
20298SOL    HW263148   1.531   9.752   8.789 -0.9041 -1.5889 -1.0190
20299SOL     OW63149   2.079   9.199   7.829 -0.1963 -0.0040  0.4016
20299SOL    HW163150   2.118   9.286   7.819 -1.3077  0.5268  0.5139
20299SOL    HW263151   2.086   9.180   7.922 -0.4133  0.1953  0.4603
20300SOL     OW63152   7.549   2.118   0.140  0.3215 -0.2122  0.3157
20300SOL    HW163153   7.461   2.122   0.101  0.3309  1.0644  0.3700
20300SOL    HW263154   7.549   2.037   0.191 -0.4592 -0.7706 -0.5348
20301SOL     OW63155   5.665   1.689   7.301  0.1326  0.3680 -0.5628
20301SOL    HW163156   5.633   1.772   7.265 -0.2621  0.6477  0.3910
20301SOL    HW263157   5.591   1.655   7.351  1.3526  1.1895  1.9771
20302SOL     OW63158   9.601   1.915   8.073  0.2303  0.0186 -0.0807
20302SOL    HW163159   9.652   1.913   8.154  1.9331 -0.0622 -1.1001
20302SOL    HW263160   9.600   1.824   8.043  0.6828  0.2353 -0.7692
20303SOL     OW63161  10.400   4.849   7.129  0.1963 -0.2638  0.1357
20303SOL    HW163162  10.463   4.873   7.196  1.7803 -0.3961 -1.2514
20303SOL    HW263163  10.453   4.822   7.054 -1.4029 -3.8393  0.0421
20304SOL     OW63164   7.515   2.899   1.388  0.0237 -0.3046 -0.1411
20304SOL    HW163165   7.474   2.961   1.328 -0.8312  1.2699  1.9307
20304SOL    HW263166   7.558   2.834   1.332  1.3598  2.3880 -2.4488
20305SOL     OW63167   4.152   9.888   5.804  0.1960 -0.0479 -0.5092
20305SOL    HW163168   4.170   9.845   5.720  1.0243 -0.7081 -0.0027
20305SOL    HW263169   4.237   9.917   5.835  0.0920 -1.0094  0.7498
20306SOL     OW63170   8.894   0.184   6.084 -0.0215  0.3281  0.1671
20306SOL    HW163171   8.985   0.187   6.114  0.2092  1.8177 -0.5667
20306SOL    HW263172   8.850   0.126   6.145  1.1484  0.6373  1.3407
20307SOL     OW63173   2.040   5.251   2.975  0.1767  0.4103 -0.7889
20307SOL    HW163174   2.003   5.297   3.050  0.4350 -0.8702  0.1556
20307SOL    HW263175   2.121   5.212   3.008 -1.1235 -2.6463 -0.8033
20308SOL     OW63176   5.188   5.760   2.036 -0.6776  0.5854 -0.1357
20308SOL    HW163177   5.167   5.837   2.089 -1.0385  2.6845 -3.0910
20308SOL    HW263178   5.123   5.761   1.966  0.6258 -1.1860 -1.4616
20309SOL     OW63179   4.460   8.104   2.059 -0.5573  0.4140  0.1214
20309SOL    HW163180   4.549   8.069   2.064 -0.6285  0.1490 -0.4661
20309SOL    HW263181   4.408   8.032   2.024 -0.8076  0.9287 -0.5668
20310SOL     OW63182   0.200   6.388   9.040 -0.5310 -0.0007  0.3572
20310SOL    HW163183   0.206   6.384   8.945 -2.8613  0.2167  0.1608
20310SOL    HW263184   0.276   6.440   9.066 -1.7384  3.0914 -1.7172
20311SOL     OW63185   6.166   9.914   6.893 -0.1134 -0.9991 -0.2231
20311SOL    HW163186   6.078   9.875   6.888  0.5318 -2.4629 -0.8580
20311SOL    HW263187   6.225   9.838   6.897  1.1385 -0.0455 -0.1450
20312SOL     OW63188   3.330   7.353   5.211  0.2909  0.1799 -0.4494
20312SOL    HW163189   3.392   7.412   5.168  1.3694 -0.5998 -0.0063
20312SOL    HW263190   3.250   7.359   5.158  0.9879  0.6408 -1.4751
20313SOL     OW63191  10.444   6.137   0.887  0.6083  0.5893  0.4517
20313SOL    HW163192  10.475   6.071   0.949  0.1870 -0.2852 -0.2455
20313SOL    HW263193  10.357   6.161   0.918 -0.4654 -1.3212 -0.8437
20314SOL     OW63194   3.394   4.497   8.064  0.4299 -0.1686  0.8957
20314SOL    HW163195   3.378   4.412   8.023  0.6452  1.1287 -2.1397
20314SOL    HW263196   3.314   4.515   8.114 -1.2508 -0.5383 -1.5091
20315SOL     OW63197   8.131   8.797   7.640  0.3346 -0.3682  0.5859
20315SOL    HW163198   8.084   8.718   7.667  1.2173 -1.1640 -0.1077
20315SOL    HW263199   8.223   8.778   7.659  0.6456  0.1882 -0.2992
20316SOL     OW63200   7.629   0.291   8.542 -0.0255  0.2313  0.0504
20316SOL    HW163201   7.678   0.372   8.531  0.4077  0.1138  0.9727
20316SOL    HW263202   7.556   0.316   8.600  0.5012 -0.1730  0.9035
20317SOL     OW63203   7.296   7.719   1.403  0.2667 -0.0218  0.0750
20317SOL    HW163204   7.226   7.714   1.338 -0.4429  1.3199  0.6992
20317SOL    HW263205   7.272   7.654   1.469 -0.0777  0.0138 -0.0116
20318SOL     OW63206   9.579   4.255   0.483  0.4948  0.5901 -0.1646
20318SOL    HW163207   9.612   4.170   0.512  1.1031  0.4533 -1.2225
20318SOL    HW263208   9.650   4.293   0.431 -0.0592  1.4133 -0.3557
20319SOL     OW63209   1.641   7.573  10.392  0.4585 -0.1030 -0.6397
20319SOL    HW163210   1.687   7.628  10.455  1.1871 -1.9162  0.4989
20319SOL    HW263211   1.704   7.504  10.370 -1.2047 -1.8635 -0.1214
20320SOL     OW63212   6.223   4.720   6.293 -0.2312  0.2015 -0.6492
20320SOL    HW163213   6.182   4.642   6.331 -1.5388  1.1985  0.0978
20320SOL    HW263214   6.282   4.686   6.226  1.3355 -1.5639  1.5023
20321SOL     OW63215   4.854   2.197  10.643  0.6840  0.2336 -0.2689
20321SOL    HW163216   4.824   2.147  10.719 -0.1153  2.4414  0.9631
20321SOL    HW263217   4.774   2.221  10.597  1.1169 -0.4080 -1.4136
20322SOL     OW63218   6.851   9.922   7.062  0.2308 -0.4572  0.0196
20322SOL    HW163219   6.921   9.982   7.085 -0.4060  1.0531 -1.7654
20322SOL    HW263220   6.802   9.910   7.143 -0.1973  2.2437  0.2426
20323SOL     OW63221   6.603   8.749   9.775 -0.0072 -0.5713 -0.3233
20323SOL    HW163222   6.575   8.821   9.832  1.3443 -0.1150 -0.2000
20323SOL    HW263223   6.619   8.676   9.836 -0.2416 -0.6259 -0.3234
20324SOL     OW63224   9.169   7.938   7.688 -0.0901  0.0190  0.1780
20324SOL    HW163225   9.179   7.855   7.735  0.6906 -0.4065 -0.7129
20324SOL    HW263226   9.192   7.917   7.598  0.3292  1.2557 -0.0144
20325SOL     OW63227  10.123   6.029   1.526 -0.0878 -0.6370  0.2311
20325SOL    HW163228  10.076   5.958   1.568 -0.7147  0.2432  1.0761
20325SOL    HW263229  10.055   6.086   1.490  0.3925 -0.4235 -0.3597
20326SOL     OW63230   4.962   8.753   9.815 -0.0011 -0.2362  0.0731
20326SOL    HW163231   4.987   8.663   9.838  0.5280 -0.7440 -2.1690
20326SOL    HW263232   4.876   8.765   9.856 -1.2348 -2.7049 -1.4731
20327SOL     OW63233   1.660   1.877   5.334 -0.1005  0.3303  0.3980
20327SOL    HW163234   1.696   1.794   5.304  1.4755  1.3380 -0.6219
20327SOL    HW263235   1.589   1.852   5.394  0.3522 -1.7228  0.1472
20328SOL     OW63236   5.071   9.529   2.180 -0.2592  0.0043 -0.3777
20328SOL    HW163237   5.056   9.612   2.224  0.0966 -0.4333  0.5841
20328SOL    HW263238   4.987   9.508   2.138 -0.8375  0.0538  0.7293
20329SOL     OW63239   6.126   0.864   8.773 -0.1780 -0.1683 -0.3254
20329SOL    HW163240   6.128   0.852   8.868  0.2042  0.3293 -0.2641
20329SOL    HW263241   6.044   0.825   8.746 -1.2567  1.4334  0.4667
20330SOL     OW63242   6.247   4.092   1.683 -0.2971 -0.2800  0.2884
20330SOL    HW163243   6.275   4.021   1.626 -0.9291 -0.5798  0.3430
20330SOL    HW263244   6.307   4.089   1.758  1.0136  0.5831 -0.6839
20331SOL     OW63245   5.394   4.772   7.158  0.3161  0.0778  0.4145
20331SOL    HW163246   5.470   4.720   7.131 -1.0298 -0.8727 -1.7625
20331SOL    HW263247   5.413   4.861   7.127 -0.2329 -0.5498 -1.9136
20332SOL     OW63248   9.951   3.496   0.085  0.0120 -0.1825  0.0380
20332SOL    HW163249   9.952   3.402   0.102 -1.6351 -0.3020 -0.3136
20332SOL    HW263250   9.918   3.535   0.166 -2.4175 -0.2489 -0.8252
20333SOL     OW63251   0.287   2.576   7.414  0.2835  0.8969 -0.2649
20333SOL    HW163252   0.306   2.605   7.325 -0.4011  0.5735 -0.5298
20333SOL    HW263253   0.359   2.610   7.467 -0.7151  3.5380 -0.4503
20334SOL     OW63254   2.246   0.608   7.548 -0.7102 -0.1697  0.0745
20334SOL    HW163255   2.156   0.638   7.562 -0.3492  0.7450  0.5416
20334SOL    HW263256   2.275   0.577   7.634 -0.1725  0.7122  0.2236
20335SOL     OW63257   0.362   2.519   2.964 -0.3870 -0.0349 -0.2625
20335SOL    HW163258   0.324   2.592   2.916 -0.1901 -0.8352 -1.6917
20335SOL    HW263259   0.357   2.445   2.903  0.7162 -0.8709  0.6167
20336SOL     OW63260   1.996   3.835   7.740 -0.6557 -0.2188  0.4733
20336SOL    HW163261   1.973   3.919   7.701 -0.3781 -0.6109 -0.5702
20336SOL    HW263262   2.086   3.847   7.772 -0.1416 -0.4867 -0.8148
20337SOL     OW63263   6.950   3.906   1.940 -0.2600  0.0893 -0.1383
20337SOL    HW163264   6.930   3.834   1.880 -0.7632 -0.4026  0.5906
20337SOL    HW263265   7.040   3.929   1.921 -0.4969  0.1392 -1.2699
20338SOL     OW63266   6.206   3.474   6.838  0.4728 -0.2651 -0.2578
20338SOL    HW163267   6.160   3.389   6.840  1.0864 -0.6091  1.2218
20338SOL    HW263268   6.136   3.539   6.843  0.0457 -0.7212 -0.2377
20339SOL     OW63269   4.872   9.889   2.092 -0.0231 -0.0158  0.6747
20339SOL    HW163270   4.802   9.891   2.027  0.7072 -1.3847 -0.2108
20339SOL    HW263271   4.846   9.820   2.153  0.4124 -0.3613  0.4801
20340SOL     OW63272   9.597   3.121   0.974 -0.0495  0.2008  0.0647
20340SOL    HW163273   9.618   3.035   0.938  2.1709  0.3318  0.8880
20340SOL    HW263274   9.615   3.182   0.902  1.7026  0.2276  0.4852
20341SOL     OW63275   7.513   8.912   5.695  0.3631 -0.7374 -0.4809
20341SOL    HW163276   7.442   8.892   5.634  0.8074 -3.0547 -0.3365
20341SOL    HW263277   7.524   8.832   5.746 -0.2913  1.2183  3.0243
20342SOL     OW63278   3.132   0.206   4.255  0.1755 -0.3002  0.2894
20342SOL    HW163279   3.083   0.164   4.185 -0.9723  2.0084 -0.4159
20342SOL    HW263280   3.065   0.248   4.310  1.2068  1.0382  0.5974
20343SOL     OW63281   5.864   1.387   4.769 -0.5910  0.0799  0.0067
20343SOL    HW163282   5.936   1.415   4.826  0.3573 -0.6346 -0.8002
20343SOL    HW263283   5.870   1.447   4.694 -1.1611  0.3358  0.1639
20344SOL     OW63284   4.274   1.069   8.541 -0.5064 -0.4018 -0.3124
20344SOL    HW163285   4.353   1.097   8.494 -0.0173 -3.0386 -1.2290
20344SOL    HW263286   4.212   1.046   8.472 -0.7589 -1.7578  0.3255
20345SOL     OW63287   4.054   8.104   6.010  0.2542 -0.2986  0.8877
20345SOL    HW163288   3.985   8.167   5.988  0.2596 -0.2767  0.9321
20345SOL    HW263289   4.034   8.027   5.958  0.6385 -0.0157  0.3121
20346SOL     OW63290   6.569   5.404   9.878 -0.2663 -0.6974 -0.3709
20346SOL    HW163291   6.628   5.415   9.952 -1.1808 -0.1791  0.3004
20346SOL    HW263292   6.602   5.327   9.832  0.4654 -0.8707  0.4317
20347SOL     OW63293   0.761   6.589   6.755 -0.1258 -0.3204 -0.2212
20347SOL    HW163294   0.784   6.586   6.662  1.2642 -0.8092  0.1115
20347SOL    HW263295   0.785   6.677   6.783 -2.5675  0.6064 -0.7632
20348SOL     OW63296   2.698   1.490   9.395 -0.0784 -0.5277  0.2383
20348SOL    HW163297   2.763   1.457   9.334 -0.5362 -1.4091  0.2147
20348SOL    HW263298   2.742   1.489   9.480  0.8444  1.5090 -0.1691
20349SOL     OW63299   5.792   8.607   5.857 -0.3255  0.3829 -0.5709
20349SOL    HW163300   5.875   8.612   5.810  0.3982  0.5157  0.6919
20349SOL    HW263301   5.745   8.687   5.831  0.2834  0.7184 -0.6578
20350SOL     OW63302   5.476   9.285   2.499 -0.7307 -0.3431  0.6656
20350SOL    HW163303   5.486   9.380   2.496 -1.7927 -0.2287 -0.2693
20350SOL    HW263304   5.565   9.251   2.490 -0.4459  0.5678 -0.2658
20351SOL     OW63305   9.802   9.092   3.287  0.4131 -0.4004  0.2088
20351SOL    HW163306   9.882   9.082   3.339  0.3362 -2.5334  0.0219
20351SOL    HW263307   9.813   9.030   3.214 -2.0697 -2.0303  1.0848
20352SOL     OW63308   2.718   1.782   8.013 -0.0697  0.3440 -0.1444
20352SOL    HW163309   2.744   1.814   7.926 -0.7291 -0.2937 -0.5850
20352SOL    HW263310   2.712   1.687   8.003  1.1301  0.1309  0.9609
20353SOL     OW63311   8.520   8.608   8.926  0.3096 -0.8183 -0.6533
20353SOL    HW163312   8.553   8.518   8.923  1.0051 -0.5502 -2.2962
20353SOL    HW263313   8.567   8.649   8.999  0.7533 -1.5022 -0.5521
20354SOL     OW63314   3.136   2.407   6.099 -0.0404  0.3034 -0.3251
20354SOL    HW163315   3.202   2.432   6.035  0.3033  0.7230  0.1844
20354SOL    HW263316   3.052   2.417   6.053  0.2066  0.5378 -0.7276
20355SOL     OW63317  10.013   3.882   6.703  0.3809  0.1379  0.0775
20355SOL    HW163318   9.975   3.862   6.789  2.0913 -0.2518  0.7769
20355SOL    HW263319   9.938   3.909   6.650 -0.5610  1.6161  2.0331
20356SOL     OW63320   2.567   7.494   4.794 -0.6480  0.4372 -0.8164
20356SOL    HW163321   2.569   7.411   4.747 -1.4086  0.1902 -0.4360
20356SOL    HW263322   2.478   7.526   4.781 -0.5473  0.8805 -0.4282
20357SOL     OW63323   9.472   3.811   0.585  0.2850  0.3701  0.5176
20357SOL    HW163324   9.540   3.755   0.624  0.0599  0.1248  0.5618
20357SOL    HW263325   9.390   3.764   0.601  0.2625 -0.1193 -0.9347
20358SOL     OW63326   6.965   7.598   7.111  0.2748 -0.6509  0.1940
20358SOL    HW163327   6.878   7.602   7.071 -0.2643 -1.0481  1.2766
20358SOL    HW263328   6.992   7.507   7.100  0.9421 -0.3301 -0.9062
20359SOL     OW63329   7.724   7.600   4.680  0.4903  0.2218  0.0776
20359SOL    HW163330   7.807   7.559   4.704 -0.1185  0.2090  2.3172
20359SOL    HW263331   7.720   7.681   4.731 -1.4005 -0.3921  1.0149
20360SOL     OW63332   6.610   9.560   6.260  0.5022  0.2077 -0.0101
20360SOL    HW163333   6.586   9.506   6.336  0.9504 -0.7033 -0.4909
20360SOL    HW263334   6.540   9.545   6.196 -0.5832  2.0183  0.6834
20361SOL     OW63335   3.089   3.215   4.580 -0.3214  0.0142  0.4895
20361SOL    HW163336   3.065   3.257   4.497  2.7440  0.8889 -0.0930
20361SOL    HW263337   3.146   3.142   4.555 -1.0840 -1.0844  1.7809
20362SOL     OW63338   9.762   9.523   0.705 -0.3356 -0.2118  0.3961
20362SOL    HW163339   9.809   9.583   0.765 -0.7901 -0.1198  0.6641
20362SOL    HW263340   9.673   9.520   0.739 -0.2115 -1.4124  0.6576
20363SOL     OW63341   4.730   9.598  10.344 -0.0628  0.6802 -0.1548
20363SOL    HW163342   4.720   9.693  10.346  1.0543  0.8087 -0.3288
20363SOL    HW263343   4.671   9.570  10.274 -0.2022  1.2719 -0.2827
20364SOL     OW63344   1.352   5.889   9.056 -0.2040 -0.4391 -0.2716
20364SOL    HW163345   1.412   5.963   9.046  0.8359 -1.2286 -0.0349
20364SOL    HW263346   1.267   5.924   9.029 -0.1354  1.3883  1.6220
20365SOL     OW63347   3.039   5.020   3.962  0.3935  0.4764  0.0248
20365SOL    HW163348   3.071   5.027   3.872  0.2859  1.5299  0.0587
20365SOL    HW263349   2.966   4.959   3.956  0.6769  0.1826 -0.5229
20366SOL     OW63350   5.520   0.876   6.854 -0.1979 -0.0131  0.4149
20366SOL    HW163351   5.466   0.848   6.928 -3.1241 -0.9724 -1.9194
20366SOL    HW263352   5.535   0.796   6.804  0.2370  0.8881 -0.9394
20367SOL     OW63353   8.150   9.020   9.230  0.1873  0.3436 -0.0871
20367SOL    HW163354   8.095   8.957   9.276 -1.1057  0.6527 -1.1506
20367SOL    HW263355   8.149   8.992   9.139  0.3734  1.3416 -0.4162
20368SOL     OW63356   6.678   5.167   8.919  0.1890 -0.3356  0.2644
20368SOL    HW163357   6.696   5.073   8.914  0.1902 -0.4939  2.4920
20368SOL    HW263358   6.736   5.198   8.989  1.7701  1.7627 -1.8194
20369SOL     OW63359   6.547   9.954   4.117 -0.4174  0.0032  0.3392
20369SOL    HW163360   6.525   9.864   4.092  0.1245  0.0041 -0.1535
20369SOL    HW263361   6.533   9.956   4.212 -1.1489 -0.3883  0.2486
20370SOL     OW63362   2.471   1.044   6.074  0.1396  0.4856 -0.2691
20370SOL    HW163363   2.465   1.136   6.048 -2.0216  0.2954 -0.5979
20370SOL    HW263364   2.410   1.036   6.147  2.2942 -0.1391  1.5573
20371SOL     OW63365  10.557   1.040   5.074 -0.1207 -0.3700 -0.0736
20371SOL    HW163366  10.588   0.990   5.150 -0.8350 -0.3944  0.2034
20371SOL    HW263367  10.586   1.129   5.090 -0.0769 -0.4195  0.1188
20372SOL     OW63368   9.529   8.326   7.042  0.5248  0.2609 -0.2621
20372SOL    HW163369   9.576   8.246   7.019 -2.4704 -1.7406 -0.0042
20372SOL    HW263370   9.561   8.391   6.980  3.4786 -0.9115 -0.1376
20373SOL     OW63371   3.916   2.202   2.802  0.0682  0.1882  0.3205
20373SOL    HW163372   4.003   2.203   2.762 -0.4664 -2.4114 -1.1219
20373SOL    HW263373   3.877   2.119   2.773 -2.5149  0.7941  1.7570
20374SOL     OW63374   4.537  10.226   9.532 -0.0982 -0.1420  0.8338
20374SOL    HW163375   4.500  10.201   9.617 -0.2255  1.5134  1.2965
20374SOL    HW263376   4.469  10.279   9.491 -0.0284 -0.9062 -0.3156
20375SOL     OW63377   3.949   0.166   6.708  0.5897 -0.2073 -0.8671
20375SOL    HW163378   3.877   0.116   6.746  0.5433 -0.0930 -0.8020
20375SOL    HW263379   3.998   0.199   6.784  1.1325 -0.8889 -0.9124
20376SOL     OW63380   3.908   9.292   2.232 -0.3621 -0.6537 -0.2578
20376SOL    HW163381   3.908   9.324   2.142 -0.7962  0.0265 -0.0165
20376SOL    HW263382   3.835   9.230   2.236 -1.5041  0.6730  0.0951
20377SOL     OW63383   8.984   6.433   5.046  0.5922 -0.0547 -0.0939
20377SOL    HW163384   8.970   6.375   4.972  0.1150 -1.8636  1.3565
20377SOL    HW263385   8.901   6.480   5.056 -0.4703 -2.0571  1.1291
20378SOL     OW63386  10.308   1.010   9.598 -0.2753 -0.0566 -0.5098
20378SOL    HW163387  10.225   1.052   9.622  0.0113 -0.2233  0.8852
20378SOL    HW263388  10.297   0.918   9.622  0.7218  0.1493  0.9267
20379SOL     OW63389   2.933   8.437   3.275 -0.9433  0.3961 -0.0793
20379SOL    HW163390   2.945   8.434   3.370  0.4600  1.0585 -0.2115
20379SOL    HW263391   2.968   8.354   3.244  0.2479  0.9064 -0.1539
20380SOL     OW63392   2.706   8.970   8.709  0.3571  0.6614  0.6374
20380SOL    HW163393   2.793   8.931   8.708  0.6433  1.2381 -1.3530
20380SOL    HW263394   2.650   8.902   8.747  1.2255 -0.8337 -0.6240
20381SOL     OW63395   8.247   6.713   9.110 -0.2731 -0.1404 -0.3205
20381SOL    HW163396   8.177   6.777   9.122 -1.1767 -1.1101 -0.2696
20381SOL    HW263397   8.208   6.645   9.055  0.7119 -0.5935 -0.4920
20382SOL     OW63398   7.900   1.124   7.196  0.0272 -0.5735 -0.2786
20382SOL    HW163399   7.824   1.080   7.158 -1.7963 -0.7287  3.1582
20382SOL    HW263400   7.863   1.202   7.239  1.8890 -0.3371  1.0146
20383SOL     OW63401   9.183   2.235   1.115  0.8141 -0.4197  0.0501
20383SOL    HW163402   9.141   2.317   1.091  2.0755  0.6312  1.2199
20383SOL    HW263403   9.143   2.169   1.058 -0.6165  0.9021 -0.5448
20384SOL     OW63404   8.967   1.061   4.624  0.2620  0.4103  0.1207
20384SOL    HW163405   9.023   0.983   4.628 -0.8793 -0.3710  1.7918
20384SOL    HW263406   8.879   1.027   4.612 -0.0481  1.5852 -1.3397
20385SOL     OW63407   9.779  10.406   5.946 -0.4430 -0.0664 -0.1820
20385SOL    HW163408   9.754  10.415   5.855 -2.0795 -1.1136  0.1339
20385SOL    HW263409   9.710  10.452   5.995  1.1802  1.7874  0.5044
20386SOL     OW63410   5.278   3.650   9.207  0.2154  0.0434  0.2617
20386SOL    HW163411   5.324   3.587   9.262 -0.0048 -0.1191  0.2604
20386SOL    HW263412   5.233   3.708   9.269  0.2252  0.0527  0.2596
20387SOL     OW63413   2.959   3.982   0.383 -0.4204  0.0167 -0.0042
20387SOL    HW163414   2.921   4.052   0.436  1.1285  0.5377  0.4720
20387SOL    HW263415   2.984   4.026   0.302 -2.6046 -0.7377 -1.1773
20388SOL     OW63416   5.182   9.264   7.095 -0.3959  0.5827 -0.3799
20388SOL    HW163417   5.266   9.281   7.051 -0.2684  1.5971  0.2096
20388SOL    HW263418   5.202   9.275   7.188 -0.9077 -0.4357 -0.1416
20389SOL     OW63419   0.292   4.673   5.850 -0.2867  0.6089 -0.4003
20389SOL    HW163420   0.259   4.758   5.880  1.1333  0.7419  0.8799
20389SOL    HW263421   0.313   4.686   5.758  0.8471  1.9472  0.0275
20390SOL     OW63422   4.870   7.328   7.790  0.7392  0.0081  0.2119
20390SOL    HW163423   4.783   7.306   7.758  0.1471  0.4627  1.4365
20390SOL    HW263424   4.890   7.412   7.749  0.0258  0.5481  0.9399
20391SOL     OW63425   2.084   3.934   3.278  0.0786  0.5177  0.6521
20391SOL    HW163426   2.099   3.981   3.361  0.4004  1.0183  0.3155
20391SOL    HW263427   1.991   3.948   3.260 -0.5574 -1.4901  2.0673
20392SOL     OW63428   1.533   2.832   0.342  0.0988 -0.6341  0.2248
20392SOL    HW163429   1.452   2.798   0.382 -0.4920 -0.8971 -1.1284
20392SOL    HW263430   1.596   2.836   0.414 -1.1879 -0.1945  1.3712
20393SOL     OW63431   2.381   0.221   2.711 -0.0587  0.1059 -0.3526
20393SOL    HW163432   2.395   0.297   2.654  0.6402  0.8127  0.6986
20393SOL    HW263433   2.352   0.152   2.653  0.4557  0.8480 -1.5324
20394SOL     OW63434   1.888   4.747   0.985 -0.0820 -0.0771 -0.8426
20394SOL    HW163435   1.938   4.667   1.001  1.0484  0.2562 -2.4740
20394SOL    HW263436   1.853   4.737   0.896 -1.1488  0.6274 -0.5291
20395SOL     OW63437   7.824   1.394   7.407 -0.4820  0.1961  0.1426
20395SOL    HW163438   7.761   1.331   7.441  0.5761 -1.2457 -0.4616
20395SOL    HW263439   7.806   1.398   7.313  3.1019 -3.8108 -1.0092
20396SOL     OW63440   8.438   5.426   0.666 -0.6940 -0.6712  0.2756
20396SOL    HW163441   8.498   5.424   0.741  0.3130  2.1953 -0.3379
20396SOL    HW263442   8.470   5.356   0.608  1.2192 -0.1323  0.6049
20397SOL     OW63443   3.200   5.564   5.662 -0.1605  0.0980  0.5432
20397SOL    HW163444   3.216   5.644   5.612  2.0119 -0.9401 -0.5348
20397SOL    HW263445   3.250   5.576   5.743  1.9362 -0.9706 -0.5308
20398SOL     OW63446   9.017   6.160   6.516  0.2678  0.2726 -0.3688
20398SOL    HW163447   8.985   6.111   6.592  0.0032  0.0224 -0.6357
20398SOL    HW263448   9.012   6.252   6.543  1.1117  0.1474  0.2656
20399SOL     OW63449   1.586   0.938   3.591  0.1986  0.1462 -0.3742
20399SOL    HW163450   1.517   0.873   3.610 -0.3593 -0.6010 -4.1727
20399SOL    HW263451   1.666   0.887   3.586  0.0182 -0.0444 -1.7454
20400SOL     OW63452   8.609   3.640   5.320 -0.4721 -0.2954 -0.1412
20400SOL    HW163453   8.598   3.730   5.353  0.0504  1.0475 -3.2641
20400SOL    HW263454   8.553   3.637   5.243  0.3176 -2.3578 -0.6786
20401SOL     OW63455   4.059   6.294   1.956 -0.2924  0.2731 -0.7100
20401SOL    HW163456   3.971   6.280   1.919 -0.2545 -0.2392 -0.6111
20401SOL    HW263457   4.045   6.353   2.029 -0.7505 -0.8150  0.1159
20402SOL     OW63458   3.378   0.658   4.792 -0.1374  0.5239 -0.3903
20402SOL    HW163459   3.322   0.670   4.868  0.7140 -1.5849  0.6302
20402SOL    HW263460   3.319   0.631   4.722 -0.9370  2.5552 -0.5594
20403SOL     OW63461   0.220   8.649   9.384 -0.6058 -0.0071  0.3009
20403SOL    HW163462   0.301   8.699   9.368 -0.9695  1.1748  1.8932
20403SOL    HW263463   0.238   8.562   9.349  1.1165  0.4227  0.0176
20404SOL     OW63464   9.083   9.596   7.438 -0.6884  0.2382 -0.0137
20404SOL    HW163465   9.093   9.621   7.530 -1.4362  0.2757  0.0652
20404SOL    HW263466   8.999   9.550   7.435 -0.5495  0.0219 -0.6351
20405SOL     OW63467   4.254   6.716   3.386 -0.0574  0.0345  0.7450
20405SOL    HW163468   4.197   6.769   3.330  0.7326  0.7688  0.6065
20405SOL    HW263469   4.341   6.726   3.348 -0.0631 -2.3998 -0.0162
20406SOL     OW63470   1.404   9.349  10.617 -0.6673  0.6321  0.0676
20406SOL    HW163471   1.332   9.290  10.595  1.2944 -1.5824 -0.6973
20406SOL    HW263472   1.455   9.302  10.683  2.0432  0.4908 -1.9598
20407SOL     OW63473   3.710   8.050   5.762  0.5288  0.0336 -0.3177
20407SOL    HW163474   3.716   8.006   5.847  0.2162  0.2217 -0.1919
20407SOL    HW263475   3.723   7.981   5.697  0.2961 -0.1969 -0.1211
20408SOL     OW63476   7.526   1.527  10.225 -0.7018 -0.4298  0.3570
20408SOL    HW163477   7.528   1.616  10.188  0.1940 -0.3404  0.5911
20408SOL    HW263478   7.573   1.535  10.308  2.9246 -1.8707 -1.3450
20409SOL     OW63479   1.695   2.650   9.528 -0.0538  0.1965  0.0806
20409SOL    HW163480   1.648   2.660   9.445 -0.2452 -0.7961  0.0544
20409SOL    HW263481   1.650   2.580   9.573  1.8436 -1.3587 -0.2871
20410SOL     OW63482   0.786   9.806   6.154 -0.1565  0.6079  0.9420
20410SOL    HW163483   0.849   9.734   6.154  0.1889  0.7739 -2.0612
20410SOL    HW263484   0.701   9.764   6.138  0.1616  0.8198 -1.7363
20411SOL     OW63485   2.287   5.593   2.233  0.4105  0.0557  0.2990
20411SOL    HW163486   2.221   5.661   2.247  1.8894  1.6222 -0.0173
20411SOL    HW263487   2.286   5.541   2.313 -1.0976  0.1304  0.3457
20412SOL     OW63488   2.187  10.441   0.138 -0.4837 -0.1385 -0.0776
20412SOL    HW163489   2.181  10.351   0.105 -1.9100  0.2898 -1.1432
20412SOL    HW263490   2.116  10.448   0.202 -0.2718  0.1848  0.1254
20413SOL     OW63491   4.219   2.569   7.152  0.3583  0.1064  0.0214
20413SOL    HW163492   4.302   2.526   7.174  1.4685  1.9522 -0.3865
20413SOL    HW263493   4.175   2.580   7.236  1.1380  0.3053  0.4112
20414SOL     OW63494   5.188   0.642   4.936  0.6694  0.4737  0.3361
20414SOL    HW163495   5.154   0.702   5.002  0.9844 -0.2686  1.1883
20414SOL    HW263496   5.123   0.572   4.932  0.5029  0.6601 -0.3664
20415SOL     OW63497   1.601   1.665   0.617  0.5220  0.2364 -0.6245
20415SOL    HW163498   1.527   1.657   0.557  0.0397  0.0771 -0.0099
20415SOL    HW263499   1.639   1.577   0.620  0.4258  0.1977 -0.5426
20416SOL     OW63500   8.442  10.380   1.167 -0.1276  0.5160 -0.5031
20416SOL    HW163501   8.522  10.368   1.116  1.7129  2.5305  1.6518
20416SOL    HW263502   8.426  10.295   1.208  3.1516  0.8420  1.8609
20417SOL     OW63503   6.884  10.396   1.646  0.5732 -0.8401 -0.3762
20417SOL    HW163504   6.805  10.361   1.688  1.2109 -1.0018  0.7335
20417SOL    HW263505   6.955  10.371   1.705  1.3757 -0.1096 -1.0124
20418SOL     OW63506   2.401   7.356   8.716 -0.4302 -0.3307  0.0349
20418SOL    HW163507   2.417   7.439   8.761 -0.7207  0.3318 -1.0386
20418SOL    HW263508   2.486   7.332   8.680 -0.3206 -0.5679  0.4437
20419SOL     OW63509   5.313   9.822   9.110  0.1587  0.1596  0.3472
20419SOL    HW163510   5.389   9.846   9.057 -0.6304  0.8445 -0.5050
20419SOL    HW263511   5.350   9.785   9.190  1.3865  0.5805 -0.0102
20420SOL     OW63512   1.710   2.965   9.762  0.0558 -0.2729  0.1559
20420SOL    HW163513   1.703   2.920   9.846 -0.6038 -0.3407  0.0730
20420SOL    HW263514   1.781   2.919   9.716  0.4357 -0.2200  0.6763
20421SOL     OW63515   4.446  10.310   0.750 -0.0461  0.4683 -0.6118
20421SOL    HW163516   4.382  10.241   0.733  1.0437 -0.8720  0.4996
20421SOL    HW263517   4.401  10.370   0.809 -0.8169  0.3992 -1.1196
20422SOL     OW63518   3.570   2.441   9.297 -0.5914  0.5316  0.3962
20422SOL    HW163519   3.554   2.519   9.350 -2.3468  0.4275  0.0498
20422SOL    HW263520   3.507   2.446   9.226 -0.1940 -0.8007 -0.0772
20423SOL     OW63521   2.659   7.619   4.166 -0.6480  0.2792 -0.5342
20423SOL    HW163522   2.736   7.565   4.181 -1.6321 -0.8953  0.4514
20423SOL    HW263523   2.600   7.563   4.116 -1.3296  0.7406 -0.2560
20424SOL     OW63524   5.015   3.507   2.134  0.3071 -0.3881 -0.2786
20424SOL    HW163525   4.924   3.536   2.143  0.4095  0.4794 -1.7183
20424SOL    HW263526   5.009   3.420   2.094  0.0970  0.2199 -1.6438
20425SOL     OW63527   3.684   3.922   8.123 -0.4731 -0.0113  0.9313
20425SOL    HW163528   3.711   3.830   8.122  1.2690  0.4701  0.3278
20425SOL    HW263529   3.730   3.959   8.198  0.3490  0.7659  0.0622
20426SOL     OW63530   0.975   2.584   6.644 -0.1461  0.4107 -0.3062
20426SOL    HW163531   1.039   2.656   6.648  1.3036 -0.7763 -1.0064
20426SOL    HW263532   0.979   2.555   6.552  0.5381 -1.6093  0.3146
20427SOL     OW63533  10.275   3.310  10.450 -0.0844  0.2144  0.2672
20427SOL    HW163534  10.348   3.249  10.463  1.3161  1.8547  0.3608
20427SOL    HW263535  10.286   3.376  10.518 -2.6625 -0.3525  1.3551
20428SOL     OW63536   9.266   7.878   4.148 -0.2560 -0.2503 -0.2992
20428SOL    HW163537   9.209   7.868   4.071 -1.5566 -0.7274  0.6875
20428SOL    HW263538   9.304   7.791   4.161  0.4289 -0.0251 -0.7305
20429SOL     OW63539   9.486   9.034   9.292 -0.7663  0.6106 -0.6852
20429SOL    HW163540   9.454   9.111   9.339  0.6430  2.1329 -2.0699
20429SOL    HW263541   9.544   8.991   9.354 -1.3522  0.8146  0.0140
20430SOL     OW63542   1.413   5.104   4.656  0.2279  0.4142 -0.1385
20430SOL    HW163543   1.426   5.190   4.695  1.8686 -0.2626  0.9307
20430SOL    HW263544   1.326   5.108   4.617  0.2083  2.4888  0.0113
20431SOL     OW63545   3.838   4.134   3.536 -0.2376 -0.5171  0.4581
20431SOL    HW163546   3.902   4.071   3.570 -0.1006 -0.6984 -0.1146
20431SOL    HW263547   3.822   4.105   3.446 -0.8281 -0.2377  0.4663
20432SOL     OW63548   9.097   5.406   0.545  0.1612  0.4382 -0.1473
20432SOL    HW163549   9.015   5.393   0.593  0.4831 -1.4178 -0.0223
20432SOL    HW263550   9.071   5.439   0.459 -0.8191 -1.0172 -0.4388
20433SOL     OW63551   6.827   9.754   7.597  0.1435 -0.2954  0.2469
20433SOL    HW163552   6.898   9.815   7.619  0.8340 -0.8240 -0.4447
20433SOL    HW263553   6.755   9.779   7.655  0.3656  1.2367 -0.0970
20434SOL     OW63554   7.571  10.636   2.131 -0.0301 -0.1374 -0.2263
20434SOL    HW163555   7.589  10.726   2.104  1.0813  0.2388  1.5794
20434SOL    HW263556   7.595  10.583   2.055  0.8378  0.9789 -0.7613
20435SOL     OW63557   3.766   8.868   9.716  0.1469 -0.3284 -0.1210
20435SOL    HW163558   3.695   8.807   9.695 -0.0331  0.1274 -0.8720
20435SOL    HW263559   3.846   8.818   9.700  0.0030 -0.2439 -1.1513
20436SOL     OW63560   5.597   7.014   4.277 -0.7595 -0.3358  0.8524
20436SOL    HW163561   5.504   6.992   4.271 -0.6873 -0.3604 -0.4825
20436SOL    HW263562   5.605   7.062   4.359 -1.9390 -0.3977  1.0244
20437SOL     OW63563   8.638   2.932   4.168 -0.4588  0.1795  0.4806
20437SOL    HW163564   8.675   3.003   4.114 -1.7470  0.7264  0.2827
20437SOL    HW263565   8.710   2.907   4.226  0.3530  0.9327 -0.1583
20438SOL     OW63566   1.404  10.260   7.386  0.0262 -0.5627  0.0370
20438SOL    HW163567   1.399  10.317   7.310  0.6856  1.6517  1.5429
20438SOL    HW263568   1.497  10.236   7.392  0.6299  1.8474  1.8006
20439SOL     OW63569   0.989   3.570   8.963  0.2521  0.2060  0.4499
20439SOL    HW163570   1.000   3.616   9.046  2.2938  0.4982  0.0852
20439SOL    HW263571   1.079   3.558   8.930 -0.2041 -3.2904  0.1084
20440SOL     OW63572   4.440   5.933   3.837 -0.4581 -0.0685  0.3932
20440SOL    HW163573   4.434   5.891   3.923  0.5634  1.8216  1.4482
20440SOL    HW263574   4.350   5.959   3.817 -0.4247  1.4241  1.9725
20441SOL     OW63575   9.520   6.018   6.554  0.0344 -0.2077  0.3835
20441SOL    HW163576   9.468   6.083   6.602 -1.0027 -0.2484 -0.6307
20441SOL    HW263577   9.610   6.037   6.577 -0.3618  0.5788  1.3408
20442SOL     OW63578   3.220   9.652   7.169  0.1474  0.0535  0.9480
20442SOL    HW163579   3.285   9.657   7.099  1.2265  0.4296  1.9297
20442SOL    HW263580   3.174   9.736   7.165 -1.4559 -0.8629 -0.8068
20443SOL     OW63581   1.716   6.966   7.747 -0.0558  0.2288  0.2044
20443SOL    HW163582   1.641   6.971   7.805 -0.7287 -1.2374 -0.5071
20443SOL    HW263583   1.791   6.950   7.805 -0.3744  0.9480  0.8352
20444SOL     OW63584   1.966   3.183   2.116 -0.1034 -0.1599 -0.1633
20444SOL    HW163585   2.048   3.157   2.075 -0.2893  1.2543 -1.5311
20444SOL    HW263586   1.992   3.233   2.193  0.3026  0.0077 -0.4086
20445SOL     OW63587   3.913   8.895   3.068  0.4753  0.7083  0.0450
20445SOL    HW163588   3.829   8.942   3.071 -0.2700 -0.6167  0.6239
20445SOL    HW263589   3.970   8.953   3.018 -0.6312  1.8763  0.0639
20446SOL     OW63590   0.234   8.126   4.728  0.4390 -0.4581 -0.3631
20446SOL    HW163591   0.194   8.200   4.774 -0.8072  0.1953 -2.3311
20446SOL    HW263592   0.194   8.049   4.768  1.3838 -0.0764  1.3864
20447SOL     OW63593   6.766   5.510   7.500 -0.0659 -0.6804  0.0174
20447SOL    HW163594   6.693   5.572   7.509  0.6801  0.1031  0.9089
20447SOL    HW263595   6.725   5.430   7.467 -1.1542  0.0751 -0.5608
20448SOL     OW63596   6.699   6.126   0.449 -0.2316 -0.4470  0.5313
20448SOL    HW163597   6.630   6.152   0.510  0.2289  2.6579 -0.1093
20448SOL    HW263598   6.777   6.118   0.503 -0.0553  1.2266  0.5794
20449SOL     OW63599   5.261   0.256   3.185 -0.0839  0.2380 -0.3502
20449SOL    HW163600   5.259   0.208   3.268 -0.8186  0.9795  0.0782
20449SOL    HW263601   5.170   0.284   3.172  0.3782  1.8066 -0.4010
20450SOL     OW63602   4.081   5.699   4.687 -0.0734  0.3302 -0.4286
20450SOL    HW163603   4.094   5.629   4.751  0.0187  0.2477 -0.5363
20450SOL    HW263604   3.998   5.677   4.644 -0.4123  0.6741  0.0280
20451SOL     OW63605   6.217   8.819   5.716 -0.0416 -0.8742  0.1038
20451SOL    HW163606   6.171   8.876   5.654 -1.8995 -1.6327  0.7323
20451SOL    HW263607   6.289   8.873   5.749 -0.8927  0.6018 -0.3806
20452SOL     OW63608   7.046   9.665   4.012  0.0182 -0.6586 -0.0584
20452SOL    HW163609   6.993   9.643   3.936  0.7040  0.1559 -0.8024
20452SOL    HW263610   7.126   9.613   4.001  0.2859 -0.2424 -0.1182
20453SOL     OW63611   9.724   8.071   8.380  0.5892  0.1395 -0.2931
20453SOL    HW163612   9.768   7.988   8.361  0.9591 -0.0468  1.2627
20453SOL    HW263613   9.632   8.048   8.388  0.7568 -0.2562  0.7040
20454SOL     OW63614   2.934   4.575   2.957  0.1445 -0.5086 -0.3814
20454SOL    HW163615   2.904   4.493   2.997 -0.8413  0.7553  1.6937
20454SOL    HW263616   2.868   4.640   2.983  2.0726  1.4166  0.0662
20455SOL     OW63617   3.720   2.661   3.369 -0.0748  0.1521  0.6263
20455SOL    HW163618   3.786   2.646   3.301 -2.3740 -0.5785 -1.6334
20455SOL    HW263619   3.742   2.600   3.439  1.3333 -0.4228 -0.2841
20456SOL     OW63620   0.515   7.801   1.670  0.2905 -0.4758 -1.1837
20456SOL    HW163621   0.427   7.767   1.653  0.1479 -0.4230 -0.5863
20456SOL    HW263622   0.504   7.896   1.668 -0.1405 -0.4231  1.0408
20457SOL     OW63623   0.454   0.659   0.058 -0.0523  0.0772  0.4267
20457SOL    HW163624   0.390   0.720   0.022 -1.8261 -0.6046  2.2026
20457SOL    HW263625   0.437   0.576   0.013 -0.0938  0.0229  0.5399
20458SOL     OW63626   2.439   0.414   9.891 -0.2798  0.3098  0.4666
20458SOL    HW163627   2.489   0.495   9.884  1.8681 -1.0071 -0.8085
20458SOL    HW263628   2.493   0.358   9.947 -0.1964 -1.1942 -1.0231
20459SOL     OW63629   1.289   8.873   5.733  0.3927  0.2017 -0.6761
20459SOL    HW163630   1.297   8.821   5.813 -0.5323  2.3314  0.9091
20459SOL    HW263631   1.214   8.836   5.687 -0.4625  0.3227  0.5845
20460SOL     OW63632   6.663   7.386   6.687  0.0880  0.0638 -0.5355
20460SOL    HW163633   6.577   7.427   6.698  0.3808  0.6805 -0.4578
20460SOL    HW263634   6.644   7.295   6.666 -0.5868  0.2497 -0.7620
20461SOL     OW63635   2.280   5.721   5.881 -0.0825  0.5906  0.1192
20461SOL    HW163636   2.199   5.757   5.918 -1.2671 -1.0558 -0.7205
20461SOL    HW263637   2.309   5.656   5.945  0.2498  0.7653  0.1455
20462SOL     OW63638   0.402   5.924   0.894  0.0847 -0.2468  0.4550
20462SOL    HW163639   0.459   5.884   0.960  0.4292  0.0777  0.3579
20462SOL    HW263640   0.410   6.018   0.909  0.7440 -0.1295 -0.5186
20463SOL     OW63641   4.902   7.563  10.291  0.0538 -0.0277 -0.3304
20463SOL    HW163642   4.900   7.541  10.384 -0.5763 -1.6221 -0.6916
20463SOL    HW263643   4.834   7.508  10.252 -1.4959  2.4709 -1.3781
20464SOL     OW63644   8.847   6.847   3.321  0.0126 -0.0379  0.1682
20464SOL    HW163645   8.877   6.927   3.280  1.5504 -1.3859 -1.4785
20464SOL    HW263646   8.919   6.820   3.378 -0.1633 -0.6373  0.1198
20465SOL     OW63647   4.346   4.414   7.138  0.3391  0.1774 -0.1821
20465SOL    HW163648   4.337   4.483   7.203 -2.6689 -0.9357  0.7472
20465SOL    HW263649   4.379   4.458   7.060  2.6719  1.7970  1.6026
20466SOL     OW63650   6.694   6.377   0.357 -0.4198 -0.2931  0.0038
20466SOL    HW163651   6.659   6.294   0.389  1.3219 -0.8014  0.6562
20466SOL    HW263652   6.786   6.360   0.340 -0.3966  1.0677 -1.4750
20467SOL     OW63653   2.907   6.134   9.071  0.2455 -0.2093 -0.0333
20467SOL    HW163654   2.847   6.157   9.142  0.5058 -0.6472  0.3382
20467SOL    HW263655   2.879   6.047   9.043  0.1183 -0.0199 -0.4982
20468SOL     OW63656   2.144   5.585  10.508  0.0234 -0.3516  0.3313
20468SOL    HW163657   2.109   5.513  10.562 -0.0736 -1.0350 -0.6133
20468SOL    HW263658   2.231   5.555  10.483  0.5881  0.5489  1.1856
20469SOL     OW63659  10.567   5.501   6.808 -0.0200  0.0005 -0.1310
20469SOL    HW163660  10.596   5.568   6.745 -0.3301 -0.2883 -0.5806
20469SOL    HW263661  10.482   5.473   6.776  0.0171 -0.4694  0.1733
20470SOL     OW63662   6.999   5.578   4.705 -0.0666 -0.2191  0.2144
20470SOL    HW163663   6.956   5.644   4.651  1.8505 -0.7169 -2.0656
20470SOL    HW263664   6.990   5.496   4.656  2.2795 -0.5762  0.2417
20471SOL     OW63665   2.092   3.035   8.014  0.0036  0.2202  0.3048
20471SOL    HW163666   2.171   3.084   8.040 -0.2033 -0.5650  2.7010
20471SOL    HW263667   2.116   2.943   8.024 -1.2838 -0.0283  1.5013
20472SOL     OW63668   1.142   3.176   5.362 -0.0742  0.2802 -0.4500
20472SOL    HW163669   1.104   3.219   5.285  1.9220 -0.9229 -2.2222
20472SOL    HW263670   1.185   3.098   5.327 -0.3040 -1.0903  2.1289
20473SOL     OW63671   3.622   6.344   3.214  0.1508  0.0309 -0.3735
20473SOL    HW163672   3.580   6.366   3.297  1.1294  1.5103 -0.2377
20473SOL    HW263673   3.641   6.250   3.220 -2.6238 -0.6115 -0.2523
20474SOL     OW63674   4.809   2.972   9.506  0.1221 -0.1645  0.5305
20474SOL    HW163675   4.891   2.938   9.543  1.2739 -0.3542 -1.9828
20474SOL    HW263676   4.753   2.988   9.582  1.8109 -1.7677  2.2177
20475SOL     OW63677   2.315   6.894   1.287  0.2594  0.2164  0.9081
20475SOL    HW163678   2.229   6.867   1.320  0.4193 -1.2646  0.1908
20475SOL    HW263679   2.304   6.897   1.192  1.3557 -1.4550  0.6853
20476SOL     OW63680   0.080   2.470   6.100 -0.4835 -0.2723 -0.3486
20476SOL    HW163681   0.026   2.437   6.171  1.3252 -1.4097  0.5571
20476SOL    HW263682   0.121   2.392   6.063  1.5467  0.6460 -0.1345
20477SOL     OW63683   3.692  10.212   0.599 -0.1886  0.1913  0.0337
20477SOL    HW163684   3.726  10.293   0.561 -0.1366  0.0768 -0.1640
20477SOL    HW263685   3.607  10.238   0.637 -0.8458  0.0500 -1.2694
20478SOL     OW63686   8.700  10.386   5.974 -0.4172  0.1109 -0.3627
20478SOL    HW163687   8.786  10.380   6.016 -0.2992  0.7151 -0.5120
20478SOL    HW263688   8.655  10.305   6.000 -0.0810  0.1395  0.3179
20479SOL     OW63689   7.840   4.150   9.303  0.6268  0.1080  0.5336
20479SOL    HW163690   7.820   4.215   9.372  1.4239 -0.6011  1.4581
20479SOL    HW263691   7.766   4.156   9.243  0.7085  1.9203  0.5597
20480SOL     OW63692  10.223   7.374   1.614 -0.0843 -0.5498  0.3779
20480SOL    HW163693  10.252   7.389   1.524  0.4595 -0.7314  0.5206
20480SOL    HW263694  10.195   7.283   1.616 -1.3112 -0.1892  0.0707
20481SOL     OW63695   3.520   5.137   7.887  0.3171 -0.5199  0.2118
20481SOL    HW163696   3.614   5.151   7.882  0.1516  1.4036  1.2156
20481SOL    HW263697   3.509   5.059   7.940  1.3644  0.3776  1.8212
20482SOL     OW63698   8.584   7.031   7.171  0.3110 -0.3740  0.1434
20482SOL    HW163699   8.620   6.997   7.089  0.2820  0.7691 -0.3542
20482SOL    HW263700   8.491   7.044   7.154 -0.1246 -2.0479  1.0122
20483SOL     OW63701   9.087   6.033   1.460  0.1538 -0.0137  0.6233
20483SOL    HW163702   9.087   5.987   1.376 -1.6712 -0.9535  1.0983
20483SOL    HW263703   9.082   5.963   1.525 -0.2850  0.7675  1.4427
20484SOL     OW63704   5.271   6.502   6.967 -0.0180 -0.1405  0.0942
20484SOL    HW163705   5.209   6.483   7.037 -1.1593  1.3199 -0.4575
20484SOL    HW263706   5.355   6.467   6.999 -0.8699 -1.1427  1.3562
20485SOL     OW63707   8.343   7.356   2.248 -1.1157 -0.1332  0.1459
20485SOL    HW163708   8.363   7.438   2.294 -0.5590  0.0005 -0.3173
20485SOL    HW263709   8.248   7.353   2.244 -1.1823 -0.1717  1.3493
20486SOL     OW63710   5.087   0.209   7.213 -0.3716  0.3551 -0.2986
20486SOL    HW163711   5.081   0.299   7.243 -1.7598  0.7399 -1.6727
20486SOL    HW263712   5.067   0.157   7.291  0.2051  1.2066  0.4451
20487SOL     OW63713   1.932   5.911   5.758 -0.1202  0.1038 -0.2192
20487SOL    HW163714   1.988   5.951   5.691  0.4884  1.9203  1.2624
20487SOL    HW263715   1.851   5.889   5.712  0.6378  0.3522 -1.7450
20488SOL     OW63716   8.934   9.720  10.283 -0.0199 -0.2693 -0.2919
20488SOL    HW163717   8.999   9.789  10.272 -0.4146 -0.0667 -1.4856
20488SOL    HW263718   8.975   9.658  10.343  0.6610  0.5993  0.1679
20489SOL     OW63719   9.136   3.031   5.316 -0.5707  0.4569  0.4970
20489SOL    HW163720   9.097   3.101   5.369  0.1168 -0.1340  1.8210
20489SOL    HW263721   9.221   3.065   5.290 -0.5305  0.3872  0.5374
20490SOL     OW63722   3.417   8.421   3.130 -0.0872  0.0873  0.1232
20490SOL    HW163723   3.352   8.359   3.162 -0.9491  1.2341  0.6780
20490SOL    HW263724   3.456   8.378   3.054 -3.7342  0.5661 -2.2986
20491SOL     OW63725   2.960   6.759   3.357  0.3440 -0.0380  0.2900
20491SOL    HW163726   3.008   6.676   3.362  0.2684 -0.0502  0.8997
20491SOL    HW263727   3.020   6.823   3.395 -0.2351 -0.1145  1.3796
20492SOL     OW63728   4.037   2.184   8.351  0.1732 -0.2069 -0.2674
20492SOL    HW163729   4.110   2.200   8.292  0.8252  0.7742  0.7803
20492SOL    HW263730   3.960   2.181   8.294  1.2349 -4.6791 -1.9342
20493SOL     OW63731   6.696   7.479   7.914  0.5972  0.4261  0.1323
20493SOL    HW163732   6.698   7.386   7.893 -0.1955  0.1216  1.3079
20493SOL    HW263733   6.788   7.503   7.928  0.7104 -0.4609  0.9797
20494SOL     OW63734   2.091   8.121   3.051 -0.1041 -0.3818 -0.0436
20494SOL    HW163735   2.179   8.116   3.013  0.0074 -1.5976  0.3142
20494SOL    HW263736   2.045   8.186   2.997  0.0186 -2.0546 -2.3433
20495SOL     OW63737   6.008   3.097  10.596  0.3973 -0.1995  0.7907
20495SOL    HW163738   6.083   3.091  10.654  0.3660  0.9637  0.9814
20495SOL    HW263739   6.005   3.190  10.570 -1.5037 -0.0021  1.5181
20496SOL     OW63740   0.753   0.256   0.053  0.5712 -0.1943  0.4542
20496SOL    HW163741   0.829   0.315   0.058  0.4548 -0.0750  0.9114
20496SOL    HW263742   0.735   0.234   0.145  1.5150 -2.1274  0.2291
20497SOL     OW63743   0.864   2.499   8.766  0.2628  0.3759 -0.1328
20497SOL    HW163744   0.898   2.411   8.783  1.9305  0.9873 -0.1627
20497SOL    HW263745   0.790   2.485   8.707  2.3672 -0.8542 -2.7245
20498SOL     OW63746   7.237   7.501   1.592  0.3185  0.0437  0.3055
20498SOL    HW163747   7.211   7.499   1.684 -1.0583 -0.0805 -0.0754
20498SOL    HW263748   7.327   7.468   1.593  0.9223  1.5871  1.7856
20499SOL     OW63749   5.815   3.343   9.005  0.1753  0.0058  0.4150
20499SOL    HW163750   5.812   3.274   8.939 -3.3654  1.8569 -1.6501
20499SOL    HW263751   5.747   3.319   9.068 -1.1232  1.5137 -0.3453
20500SOL     OW63752   9.232   2.861   2.077 -0.3239  0.2816  0.1418
20500SOL    HW163753   9.315   2.879   2.121 -0.3981 -0.2466  0.5103
20500SOL    HW263754   9.196   2.785   2.123  0.1656 -1.0876 -1.6301
20501SOL     OW63755  10.195   0.491   7.978 -0.3515  0.1074  0.1761
20501SOL    HW163756  10.237   0.438   8.046 -0.4229 -0.1250  0.0432
20501SOL    HW263757  10.110   0.449   7.964 -0.6951  0.6630  0.5468
20502SOL     OW63758   2.047   1.481   9.505  0.2793  0.0648  0.6482
20502SOL    HW163759   2.056   1.487   9.600 -0.6377 -0.2188  0.7649
20502SOL    HW263760   2.066   1.389   9.485 -0.5029 -0.1106  0.6837
20503SOL     OW63761   3.940   1.280   1.932  0.2201  0.3284  0.5819
20503SOL    HW163762   3.958   1.299   1.840  1.7417  1.4509  1.0555
20503SOL    HW263763   3.942   1.366   1.975  0.6015 -0.2742  1.8164
20504SOL     OW63764   0.678   5.491   9.143  0.1285 -0.0224 -0.0667
20504SOL    HW163765   0.702   5.583   9.127  0.7094 -0.3839 -1.4676
20504SOL    HW263766   0.723   5.469   9.224  2.3499  0.1604 -1.1415
20505SOL     OW63767   5.571   3.782   1.064  0.0805 -0.0085  0.3859
20505SOL    HW163768   5.599   3.841   0.993 -2.4616 -0.5658 -1.1869
20505SOL    HW263769   5.592   3.695   1.032 -1.7890 -0.3167 -0.1017
20506SOL     OW63770   7.699   1.598   7.706  0.3541 -0.1756  0.7893
20506SOL    HW163771   7.770   1.616   7.644  0.3935  2.1701  1.4390
20506SOL    HW263772   7.620   1.631   7.661  0.1807  0.2469  1.3934
20507SOL     OW63773   0.744   6.608   6.156  0.4101 -0.1031 -0.0102
20507SOL    HW163774   0.731   6.693   6.114 -2.4623 -0.0625  0.7171
20507SOL    HW263775   0.683   6.550   6.110  1.0276 -1.3518  0.6978
20508SOL     OW63776   8.345   5.362   6.780  0.0566 -0.5901  0.4127
20508SOL    HW163777   8.254   5.366   6.751 -0.1571  0.7793  1.1918
20508SOL    HW263778   8.340   5.376   6.875  1.1200  0.1219  0.3740
20509SOL     OW63779   2.737   0.013   2.695  0.4680 -0.1728 -0.3804
20509SOL    HW163780   2.666  -0.007   2.757  0.9663 -1.8439 -0.2806
20509SOL    HW263781   2.810   0.039   2.751  0.3665  0.1151 -0.3836
20510SOL     OW63782   6.042   9.956   0.263  0.0242  0.2465 -0.1336
20510SOL    HW163783   6.128   9.979   0.226  0.5648 -2.2924 -0.6741
20510SOL    HW263784   6.043   9.991   0.352  1.9311 -0.3233  0.1093
20511SOL     OW63785   2.260   3.046   2.599  0.1989 -0.2636 -0.6692
20511SOL    HW163786   2.192   3.031   2.664  1.8530 -0.8480  1.0428
20511SOL    HW263787   2.311   2.964   2.599  1.4385  0.4823 -1.1953
20512SOL     OW63788  10.192   6.709   9.047 -0.1520 -0.0231 -0.3102
20512SOL    HW163789  10.266   6.762   9.019 -0.8193  0.4357 -1.2746
20512SOL    HW263790  10.231   6.636   9.094  0.7741  2.5763  3.5082
20513SOL     OW63791   6.014   9.630   8.612  0.2056  0.0863  0.4229
20513SOL    HW163792   6.026   9.642   8.707 -0.5149  0.0092  0.5255
20513SOL    HW263793   5.920   9.635   8.599  0.3029  0.0859 -0.2965
20514SOL     OW63794   8.708   6.336   8.139 -0.5395 -0.0877 -0.2522
20514SOL    HW163795   8.795   6.376   8.134 -1.2963  1.5066 -1.3600
20514SOL    HW263796   8.708   6.271   8.069 -0.5235  0.5098 -0.8130
20515SOL     OW63797   5.592   3.761   2.199 -0.2001  0.2794 -0.0251
20515SOL    HW163798   5.563   3.788   2.286  0.6745  0.6834  0.1620
20515SOL    HW263799   5.640   3.837   2.166 -2.8137  1.2202 -2.0185
20516SOL     OW63800   0.340   7.106   2.546  0.2753  0.6482 -0.1300
20516SOL    HW163801   0.385   7.117   2.630  0.4026  2.3425 -0.3898
20516SOL    HW263802   0.324   7.195   2.515 -0.8104  0.0610 -1.3647
20517SOL     OW63803   5.125   9.805   8.192 -0.0459 -0.0998 -0.0279
20517SOL    HW163804   5.166   9.850   8.266 -2.1123 -0.3413  1.3667
20517SOL    HW263805   5.035   9.788   8.222 -0.6276 -1.1833 -2.2061
20518SOL     OW63806   8.280   5.872   9.753  0.1052  0.3613  0.3025
20518SOL    HW163807   8.311   5.951   9.708  2.9318 -1.2707 -0.8835
20518SOL    HW263808   8.246   5.817   9.683  0.5038 -0.4597  0.7385
20519SOL     OW63809   5.332   0.777   4.662  0.6571 -0.3874  0.4865
20519SOL    HW163810   5.327   0.865   4.625  2.2225 -0.6481 -0.4359
20519SOL    HW263811   5.266   0.776   4.731 -1.6154  0.5030 -1.5267
20520SOL     OW63812   5.193   7.637   8.786  0.4328  0.0559 -0.1474
20520SOL    HW163813   5.280   7.606   8.762  0.4252  0.6471 -0.9688
20520SOL    HW263814   5.193   7.638   8.882  1.0804 -0.6230 -0.1342
20521SOL     OW63815   2.807   3.495   7.419 -0.6448 -0.0477 -0.3962
20521SOL    HW163816   2.746   3.458   7.355  0.7164 -1.4732 -0.9393
20521SOL    HW263817   2.881   3.526   7.366  0.1927 -0.6222  0.4101
20522SOL     OW63818   0.114   4.361   5.723 -0.3674  0.3712  0.0069
20522SOL    HW163819   0.117   4.283   5.668  0.6099  0.0329  0.5226
20522SOL    HW263820   0.065   4.425   5.671 -1.0014 -0.5056 -0.5096
20523SOL     OW63821  10.564   3.735   8.988  0.3298 -0.3492 -0.5896
20523SOL    HW163822  10.579   3.660   8.930 -0.8288  0.4564 -2.0000
20523SOL    HW263823  10.560   3.810   8.929  0.8584  0.7615  0.7376
20524SOL     OW63824   3.791   6.764   0.209  0.1626  0.4377 -0.3329
20524SOL    HW163825   3.723   6.829   0.230 -1.1595 -0.9708 -0.1256
20524SOL    HW263826   3.838   6.751   0.292  0.0063  0.6169 -0.2147
20525SOL     OW63827   2.617   7.140   7.357  0.1102  0.4609  0.7467
20525SOL    HW163828   2.541   7.138   7.299  1.9618  0.1848 -1.8108
20525SOL    HW263829   2.627   7.049   7.387  0.3546  0.1704 -0.1974
20526SOL     OW63830   3.714   1.219   7.876 -0.2263  0.1287 -0.1510
20526SOL    HW163831   3.788   1.250   7.824 -0.0439 -0.9685 -0.5768
20526SOL    HW263832   3.707   1.126   7.854 -0.1382 -0.3819  1.7786
20527SOL     OW63833   5.993  10.639   3.474 -0.2633 -0.2242 -0.0016
20527SOL    HW163834   6.077  10.609   3.439 -1.9121 -0.3387 -4.3657
20527SOL    HW263835   6.011  10.728   3.505  1.3066  0.1212 -1.7102
20528SOL     OW63836  10.231   0.722   0.469  0.3476 -0.4376 -0.0389
20528SOL    HW163837  10.169   0.649   0.468 -1.6935  1.1964 -1.0041
20528SOL    HW263838  10.295   0.701   0.402 -0.0638 -1.4505 -0.1192
20529SOL     OW63839   5.540   2.096   1.175  0.1315  0.4181 -0.2016
20529SOL    HW163840   5.457   2.121   1.136  0.3672  0.5561 -0.6212
20529SOL    HW263841   5.543   2.144   1.258 -0.9720 -0.9023  0.6478
20530SOL     OW63842   3.887   6.615   6.337  0.4194 -0.1625  0.0878
20530SOL    HW163843   3.807   6.648   6.296 -0.5436  0.5313  2.3795
20530SOL    HW263844   3.946   6.692   6.340 -0.3373  0.3958  1.8693
20531SOL     OW63845   5.954   8.105   9.594  0.0144 -0.3577 -0.3342
20531SOL    HW163846   5.993   8.165   9.657  0.0017 -0.4841 -0.2068
20531SOL    HW263847   5.919   8.033   9.647  1.0467 -1.0492 -0.5635
20532SOL     OW63848   5.706   1.819   7.586 -0.2092  0.2609 -0.1367
20532SOL    HW163849   5.624   1.812   7.537  0.4900 -0.1350 -1.3082
20532SOL    HW263850   5.766   1.760   7.540  0.3748 -0.4614  1.4812
20533SOL     OW63851   6.699   9.870   7.329  0.4115  0.1112  0.1123
20533SOL    HW163852   6.765   9.834   7.388  0.7297 -0.2453 -0.4598
20533SOL    HW263853   6.617   9.830   7.357  0.8757 -1.7861 -1.0651
20534SOL     OW63854   3.100   8.107   6.508 -0.4120 -0.3658 -0.4484
20534SOL    HW163855   3.172   8.170   6.518 -0.3238 -0.6700  1.0419
20534SOL    HW263856   3.021   8.160   6.520 -0.4109 -0.2078 -1.1060
20535SOL     OW63857   0.827  10.420  10.547  0.5637  0.5558 -0.4404
20535SOL    HW163858   0.753  10.401  10.605  0.1509 -0.1688 -1.1829
20535SOL    HW263859   0.789  10.473  10.477  0.5762 -0.4182 -1.2066
20536SOL     OW63860  10.431   3.853   8.339  0.2995 -0.5152 -0.1953
20536SOL    HW163861  10.432   3.784   8.272  0.1788  1.1941 -2.0669
20536SOL    HW263862  10.521   3.885   8.343 -0.1016  0.8703 -1.2424
20537SOL     OW63863   0.609   8.089   2.770  0.1619 -0.2888  0.1767
20537SOL    HW163864   0.660   8.103   2.850 -0.3387 -1.5279  0.7353
20537SOL    HW263865   0.672   8.055   2.707  0.4286  0.0935  0.2313
20538SOL     OW63866   7.621   2.524   2.020 -0.0702 -0.1225  0.2181
20538SOL    HW163867   7.706   2.564   2.037 -0.3131 -0.0797  1.3913
20538SOL    HW263868   7.640   2.453   1.959  0.8335 -0.2043  0.5743
20539SOL     OW63869   6.207   2.260   0.604 -0.3763 -0.0039  0.2087
20539SOL    HW163870   6.272   2.225   0.664 -0.4861  0.3309  0.5229
20539SOL    HW263871   6.224   2.215   0.521  2.1147  2.0854 -0.5729
20540SOL     OW63872   1.142   4.148   7.620  0.8051 -0.0581 -0.1554
20540SOL    HW163873   1.132   4.170   7.713 -1.2770 -0.0332 -0.3496
20540SOL    HW263874   1.149   4.232   7.576  1.2627 -0.0566 -0.0878
20541SOL     OW63875   8.205   9.410   9.393  0.3745 -0.3798 -0.0155
20541SOL    HW163876   8.186   9.324   9.357  0.9250 -0.3703 -0.3484
20541SOL    HW263877   8.299   9.423   9.376  0.1287  0.6342 -0.7461
20542SOL     OW63878   3.758   0.408   3.328  0.1875  0.8175 -0.2584
20542SOL    HW163879   3.796   0.385   3.244 -1.3858  0.0115 -0.7729
20542SOL    HW263880   3.759   0.504   3.329  1.0310  0.8286 -0.7848
20543SOL     OW63881  10.023   1.702  10.654 -1.3405  0.4183  0.0926
20543SOL    HW163882  10.052   1.694  10.563  0.7977 -0.2657  0.7814
20543SOL    HW263883   9.968   1.625  10.669  0.2636 -0.7803  0.0293
20544SOL     OW63884   0.363   0.902   0.929  0.5343 -0.1070 -0.1428
20544SOL    HW163885   0.401   0.988   0.913 -0.3747  0.4264  0.4745
20544SOL    HW263886   0.430   0.855   0.978  0.4139  0.8238  0.9642
20545SOL     OW63887   9.192   1.400   7.924 -0.2039 -0.2649 -0.2603
20545SOL    HW163888   9.259   1.366   7.983 -0.1823 -1.4164 -0.9155
20545SOL    HW263889   9.240   1.430   7.847 -0.4091 -1.0585 -0.7148
20546SOL     OW63890   7.286   6.197   6.707  0.1165 -0.1188  0.2959
20546SOL    HW163891   7.291   6.248   6.788 -0.7859  0.5357 -0.0579
20546SOL    HW263892   7.214   6.136   6.721 -0.1131  0.0685 -0.0500
20547SOL     OW63893   8.508   4.560   8.814  0.4336 -0.4266  0.6139
20547SOL    HW163894   8.516   4.475   8.856  1.7431 -0.6484 -0.0249
20547SOL    HW263895   8.471   4.541   8.727  1.2510 -0.4353  0.2544
20548SOL     OW63896   6.894   5.475   6.255 -0.2726 -0.8382 -0.4337
20548SOL    HW163897   6.822   5.415   6.274  0.1275 -1.4063 -0.6778
20548SOL    HW263898   6.855   5.562   6.258 -1.0499 -1.1652 -0.9396
20549SOL     OW63899   7.941   9.432   8.169 -0.2232 -0.2483  0.8179
20549SOL    HW163900   7.945   9.382   8.087  0.6418  0.1051  0.6320
20549SOL    HW263901   7.910   9.368   8.233  1.4705 -1.2339  0.7125
20550SOL     OW63902   6.601   4.809   1.297  0.2940  0.3377  0.1947
20550SOL    HW163903   6.662   4.867   1.342 -0.9718  0.9370  1.1984
20550SOL    HW263904   6.549   4.867   1.241  0.6933 -0.1873 -0.7608
20551SOL     OW63905   6.704   5.219   1.439  0.1654 -0.2840  0.2372
20551SOL    HW163906   6.776   5.170   1.400  0.1787 -0.4361  0.4511
20551SOL    HW263907   6.692   5.294   1.381  1.4449  0.5174  0.9597
20552SOL     OW63908   0.888   7.686   6.674  0.0964 -0.1542 -0.5172
20552SOL    HW163909   0.845   7.769   6.694 -1.5830 -1.0586 -0.2832
20552SOL    HW263910   0.894   7.685   6.578  1.4693  0.8602 -0.4790
20553SOL     OW63911   0.327   1.120   0.637 -0.3108  0.5230  0.9436
20553SOL    HW163912   0.343   1.036   0.595  1.4161  1.5595 -0.6240
20553SOL    HW263913   0.341   1.185   0.568 -0.3439  2.1691  2.4031
20554SOL     OW63914  10.344   7.600   9.918 -0.4660  0.1096  0.4811
20554SOL    HW163915  10.248   7.609   9.916 -0.6784 -1.7251  0.6502
20554SOL    HW263916  10.359   7.509   9.944  1.3387  0.3538  0.4266
20555SOL     OW63917   6.208   8.265   7.461 -0.0188  0.3663 -0.4098
20555SOL    HW163918   6.285   8.226   7.419 -1.2030 -2.3156 -0.2955
20555SOL    HW263919   6.190   8.344   7.409  1.6606  0.0215 -1.6118
20556SOL     OW63920   7.746   3.896   9.519 -0.0762 -0.7391  0.3733
20556SOL    HW163921   7.681   3.950   9.564 -1.4032 -2.1985  0.3021
20556SOL    HW263922   7.776   3.949   9.445 -2.7364 -0.7719 -0.8160
20557SOL     OW63923   7.105   3.221   7.436 -0.4894 -0.2141 -0.0363
20557SOL    HW163924   7.108   3.316   7.425  0.1075  0.0709  2.0816
20557SOL    HW263925   7.192   3.191   7.410 -0.7777 -0.2352 -1.0017
20558SOL     OW63926   8.470   7.705   3.093  0.5313 -0.1700  0.1645
20558SOL    HW163927   8.447   7.647   3.020 -0.0130 -0.5672  0.6463
20558SOL    HW263928   8.485   7.790   3.052  3.0163 -0.9645 -0.7950
20559SOL     OW63929   5.876   4.660   1.461  0.0774 -0.0616 -0.1066
20559SOL    HW163930   5.812   4.716   1.416  0.8733  1.6657  0.8622
20559SOL    HW263931   5.880   4.581   1.406 -3.0974 -0.4032 -0.0440
20560SOL     OW63932   7.377   3.305   1.568 -0.0565 -0.0998  0.2924
20560SOL    HW163933   7.435   3.301   1.492  0.1193  1.9374  0.2608
20560SOL    HW263934   7.336   3.218   1.572  1.3859 -0.8888 -0.9485
20561SOL     OW63935   6.125   4.498   1.988  0.1302 -0.0289 -0.2796
20561SOL    HW163936   6.174   4.562   1.937  1.3873  0.0161  0.9309
20561SOL    HW263937   6.055   4.549   2.030 -0.0618  0.1803 -0.8424
20562SOL     OW63938   6.744   8.023   1.649 -0.1066  0.1474 -0.0853
20562SOL    HW163939   6.734   8.102   1.702 -1.7454  0.9503 -1.4720
20562SOL    HW263940   6.678   7.962   1.684  1.4378 -0.8129  1.2549
20563SOL     OW63941   6.124   1.283   1.830 -0.1557  0.3759 -0.1250
20563SOL    HW163942   6.107   1.356   1.770  0.2268  0.3000 -0.3289
20563SOL    HW263943   6.216   1.294   1.855  0.3540 -0.9022 -1.3418
20564SOL     OW63944   4.884   2.318   1.474 -0.4445 -0.8519  0.0723
20564SOL    HW163945   4.934   2.387   1.432 -0.2672  0.2363  1.9519
20564SOL    HW263946   4.821   2.290   1.408  1.1197 -0.6477 -1.5589
20565SOL     OW63947   7.232   0.870   6.718 -0.0997  0.2376  0.8143
20565SOL    HW163948   7.164   0.804   6.705 -0.1194  0.3068  0.5589
20565SOL    HW263949   7.264   0.889   6.629  0.6245 -0.1850  0.9758
20566SOL     OW63950   3.308   0.797   8.630 -0.4973 -0.8250  0.3296
20566SOL    HW163951   3.315   0.878   8.581  0.2078 -1.3041 -0.3908
20566SOL    HW263952   3.222   0.801   8.671 -0.3998  0.3544  0.4449
20567SOL     OW63953   3.883   1.300   4.757  1.2240  0.2928  0.1349
20567SOL    HW163954   3.863   1.300   4.851  0.2639 -1.3646 -0.0279
20567SOL    HW263955   3.958   1.359   4.748  3.2013 -1.6634  2.3627
20568SOL     OW63956   8.983   9.218   3.210  0.0272 -0.9680  0.2794
20568SOL    HW163957   9.033   9.202   3.130 -1.0305 -0.0404 -0.5950
20568SOL    HW263958   8.970   9.131   3.247 -1.2169 -1.6767 -1.6504
20569SOL     OW63959   0.148   4.730   6.629 -0.0532 -0.3399 -0.1818
20569SOL    HW163960   0.198   4.745   6.709 -0.3980 -1.2293  0.2106
20569SOL    HW263961   0.211   4.691   6.569  0.0939 -0.0843 -0.1956
20570SOL     OW63962  10.444   0.531   7.865 -0.2068 -0.4191  0.1653
20570SOL    HW163963  10.439   0.448   7.817 -2.0896 -0.9997  1.2495
20570SOL    HW263964  10.355   0.544   7.899  0.5101  1.1085  1.5883
20571SOL     OW63965   0.381   0.498   9.440  0.3260 -0.1461 -0.9992
20571SOL    HW163966   0.384   0.580   9.391  1.5832 -0.0368 -0.7764
20571SOL    HW263967   0.332   0.519   9.519 -1.1565 -0.1624 -1.8748
20572SOL     OW63968  10.388   7.716   7.725 -0.1066 -0.0743  0.6513
20572SOL    HW163969  10.336   7.738   7.648 -0.4158 -1.6763  0.3540
20572SOL    HW263970  10.477   7.707   7.691 -0.2874 -1.0490  0.4033
20573SOL     OW63971   1.527   5.796   9.613  0.4330  0.3275  0.2224
20573SOL    HW163972   1.537   5.702   9.600 -0.9184  0.2623 -0.5021
20573SOL    HW263973   1.600   5.820   9.670  0.2204 -1.3168  1.2461
20574SOL     OW63974   8.792   1.789  10.507 -0.2386 -0.2101  0.4124
20574SOL    HW163975   8.717   1.824  10.459  1.0362 -0.8992 -2.2071
20574SOL    HW263976   8.753   1.733  10.574 -2.0857 -0.8587 -1.1189
20575SOL     OW63977   8.567   8.400   0.470 -0.0886  0.9057  0.1096
20575SOL    HW163978   8.588   8.427   0.559 -0.9907  1.5935  0.1229
20575SOL    HW263979   8.472   8.409   0.463 -0.1870 -0.3247 -0.5410
20576SOL     OW63980   8.380   0.865  10.364  0.3899 -0.2247 -0.0947
20576SOL    HW163981   8.456   0.812  10.341 -0.0709 -1.2164  0.5921
20576SOL    HW263982   8.319   0.853  10.291  0.0317 -1.1768  0.3421
20577SOL     OW63983   9.363   4.859   8.271 -0.2297  0.1955  0.2429
20577SOL    HW163984   9.362   4.767   8.243 -0.0471 -0.1100  1.1894
20577SOL    HW263985   9.300   4.862   8.343  0.1869  0.6933  0.5847
20578SOL     OW63986   8.566  10.473   1.588  0.1930 -0.1488 -0.4354
20578SOL    HW163987   8.651  10.468   1.543  0.9628  0.8762  0.8307
20578SOL    HW263988   8.579  10.538   1.656 -1.5981 -0.0755 -0.1205
20579SOL     OW63989   9.395   6.359   5.473  0.0337 -0.1135 -0.3032
20579SOL    HW163990   9.356   6.443   5.447 -0.1318  0.5446  1.8529
20579SOL    HW263991   9.483   6.361   5.434 -0.2605  0.6676 -0.9696
20580SOL     OW63992   2.325   9.181   9.629 -0.1152 -0.0232  0.3423
20580SOL    HW163993   2.272   9.171   9.549 -0.2105  0.3547  0.3601
20580SOL    HW263994   2.416   9.178   9.597 -0.0753 -2.2749  0.4712
20581SOL     OW63995   7.309   9.018   6.699 -0.5889  0.0149 -0.6178
20581SOL    HW163996   7.287   9.082   6.630 -0.8702  0.6483  0.0459
20581SOL    HW263997   7.291   8.933   6.659 -2.1618  0.4217 -0.8661
20582SOL     OW63998   6.934  10.132   4.600 -0.6947 -0.4431  0.1778
20582SOL    HW163999   6.968  10.105   4.515 -0.8720 -0.2203  0.0361
20582SOL    HW264000   6.846  10.163   4.582 -0.8006 -0.5674  0.4718
20583SOL     OW64001   5.680   0.624   5.649  0.0260  0.1806 -0.0894
20583SOL    HW164002   5.608   0.685   5.665  0.4152  0.8603 -0.8079
20583SOL    HW264003   5.647   0.565   5.582 -0.0793  0.1079  0.0274
20584SOL     OW64004   0.837   9.750   3.927 -0.1463  0.4167 -0.3773
20584SOL    HW164005   0.786   9.796   3.861 -0.0659 -0.8700 -1.3582
20584SOL    HW264006   0.928   9.760   3.900  0.1209  2.0050  0.9262
20585SOL     OW64007   3.174   6.062   2.007  0.0482  0.0739  0.5386
20585SOL    HW164008   3.176   6.108   2.091  0.1143  0.1985  0.4682
20585SOL    HW264009   3.081   6.048   1.989 -0.0067  0.8583  0.1832
20586SOL     OW64010   0.938   0.516   0.991 -0.2186 -0.4755 -0.2369
20586SOL    HW164011   0.852   0.510   0.950 -0.2970  1.9927 -0.5533
20586SOL    HW264012   0.921   0.500   1.084 -1.1486  0.7352 -0.1844
20587SOL     OW64013   8.948   5.753   9.413  0.5761  0.8338  0.0150
20587SOL    HW164014   8.862   5.774   9.378  0.9277  0.9985 -0.7802
20587SOL    HW264015   8.931   5.695   9.487 -0.2090  0.8328 -0.1620
20588SOL     OW64016   2.718   1.484   6.559 -0.1731 -0.4210 -0.2586
20588SOL    HW164017   2.695   1.511   6.470 -1.1903  0.3282  0.2162
20588SOL    HW264018   2.701   1.561   6.613 -2.6286 -1.7683  1.0651
20589SOL     OW64019   8.187   1.295   0.633 -0.0772 -0.1672 -0.1674
20589SOL    HW164020   8.271   1.339   0.619  0.6198 -1.3580  0.1261
20589SOL    HW264021   8.195   1.255   0.719 -1.6065  1.0878  0.6025
20590SOL     OW64022   5.964   4.896   0.389 -0.2888  0.2314  0.1388
20590SOL    HW164023   5.944   4.805   0.366  1.7474  0.0716 -1.4154
20590SOL    HW264024   5.929   4.947   0.316 -2.6611  0.9205  1.6676
20591SOL     OW64025   1.915   6.359   4.532 -0.4711  0.6804 -0.8572
20591SOL    HW164026   1.897   6.434   4.474 -1.2450 -0.9283 -2.8093
20591SOL    HW264027   1.830   6.318   4.546  0.2226 -1.2479 -1.9151
20592SOL     OW64028   4.410   4.660   2.325  0.0748 -0.4071  0.3934
20592SOL    HW164029   4.477   4.617   2.378 -1.1014 -1.7825  0.8358
20592SOL    HW264030   4.371   4.589   2.274 -0.7395  0.4308 -0.1827
20593SOL     OW64031   7.252   0.135  10.301 -0.2897  0.3861  0.2986
20593SOL    HW164032   7.164   0.168  10.319 -0.9542 -1.1105 -0.0550
20593SOL    HW264033   7.305   0.214  10.288 -1.3196  1.3430  1.6002
20594SOL     OW64034   8.413   2.345   6.842 -0.4793 -0.3696  0.0477
20594SOL    HW164035   8.366   2.427   6.860 -0.4087 -0.4512  0.6083
20594SOL    HW264036   8.346   2.277   6.846 -0.4375 -0.4051  0.1373
20595SOL     OW64037   2.254   9.357  10.617  0.1251  0.0109  0.0159
20595SOL    HW164038   2.266   9.335  10.524  0.6616  1.6129 -0.3147
20595SOL    HW264039   2.211   9.442  10.616  1.2049  0.6057  1.2298
20596SOL     OW64040   1.432   6.660   6.706  0.0138 -0.2937  0.3121
20596SOL    HW164041   1.512   6.640   6.756 -0.1355 -1.8676 -0.0062
20596SOL    HW264042   1.361   6.631   6.763 -0.2508 -0.2144  0.0214
20597SOL     OW64043   4.544   7.089  10.476  0.4957  0.5193 -0.6048
20597SOL    HW164044   4.459   7.050  10.494  0.8404  0.5631  1.4234
20597SOL    HW264045   4.585   7.097  10.562  2.1528  1.4151 -1.4239
20598SOL     OW64046   5.541   6.063   5.488 -0.1101  0.2808  0.1088
20598SOL    HW164047   5.502   6.050   5.402 -0.4714 -0.3668  0.3628
20598SOL    HW264048   5.632   6.088   5.469  0.6733 -2.6325 -0.4736
20599SOL     OW64049   3.455   3.996   7.160 -0.3661  0.1849 -0.2896
20599SOL    HW164050   3.419   4.072   7.114 -0.6888  0.0653 -0.2369
20599SOL    HW264051   3.382   3.963   7.213  0.2698  0.9676  1.1551
20600SOL     OW64052   1.547   7.841   9.967  0.5373 -0.0424 -0.3053
20600SOL    HW164053   1.459   7.879   9.968  0.0804 -1.0565 -0.4813
20600SOL    HW264054   1.573   7.844   9.874  1.4013  1.7637 -0.0660
20601SOL     OW64055   0.215   5.223  10.416  0.5666  0.0826  0.5185
20601SOL    HW164056   0.296   5.259  10.451 -0.2278  0.5651  1.9124
20601SOL    HW264057   0.153   5.226  10.489 -0.9764  0.5482 -0.7523
20602SOL     OW64058   4.277   7.487   9.216 -0.5849 -0.6149 -0.1211
20602SOL    HW164059   4.253   7.406   9.171 -1.0281 -0.7043  0.2665
20602SOL    HW264060   4.226   7.486   9.297  2.5898 -2.1221  2.0976
20603SOL     OW64061   1.785   7.236   8.146  0.3781  0.0587 -0.2866
20603SOL    HW164062   1.703   7.260   8.189  1.1723  1.3609  0.5826
20603SOL    HW264063   1.837   7.194   8.214  0.8934  0.3584 -0.4838
20604SOL     OW64064   6.314   4.526   5.055 -0.6240 -0.5950 -0.5516
20604SOL    HW164065   6.353   4.488   4.976  3.0201  0.9096  0.3124
20604SOL    HW264066   6.287   4.614   5.028  0.7205 -0.0420 -0.1465
20605SOL     OW64067   2.897   7.271   1.702  0.1472 -0.0362 -0.2301
20605SOL    HW164068   2.857   7.232   1.624  2.0815  0.0252 -1.3089
20605SOL    HW264069   2.907   7.197   1.762  1.0213 -0.6386 -1.0839
20606SOL     OW64070   6.576   5.015   0.965 -0.0330  0.2785 -0.1851
20606SOL    HW164071   6.659   4.970   0.981 -0.0791 -0.2610 -1.3787
20606SOL    HW264072   6.510   4.960   1.009  0.1010  0.0265 -0.2950
20607SOL     OW64073   7.932   9.239   8.715 -0.7629  0.1261 -0.6078
20607SOL    HW164074   8.015   9.273   8.681 -1.5517  0.9902 -1.7490
20607SOL    HW264075   7.953   9.208   8.803  1.3892 -2.2120 -1.8243
20608SOL     OW64076   6.029   2.098   2.984  0.1175 -0.0472  0.0055
20608SOL    HW164077   5.939   2.124   3.001  0.2082 -0.2047  0.7358
20608SOL    HW264078   6.032   2.082   2.889 -0.2844  1.2607 -0.2480
20609SOL     OW64079   2.667   7.782   9.077  0.2468 -0.1223 -0.3955
20609SOL    HW164080   2.720   7.805   9.154  0.0325  0.6846 -0.4802
20609SOL    HW264081   2.726   7.795   9.003  0.3007 -0.4093 -0.4021
20610SOL     OW64082   2.577  10.081   9.712 -0.0527  0.1307  0.8282
20610SOL    HW164083   2.649  10.141   9.733 -0.1934  0.2925  0.8539
20610SOL    HW264084   2.522  10.131   9.652 -0.6244  0.3395  1.5110
20611SOL     OW64085   0.952   4.679   3.029 -0.1764  0.3973  0.0252
20611SOL    HW164086   1.012   4.661   2.957  0.9406 -1.2023  1.2752
20611SOL    HW264087   0.917   4.593   3.053 -0.4464  0.8672  1.4353
20612SOL     OW64088   6.837   5.872   1.016 -0.2719 -0.0311  0.1155
20612SOL    HW164089   6.878   5.799   0.969 -0.3243  1.6796 -2.7941
20612SOL    HW264090   6.876   5.951   0.978 -3.8776  1.6438 -0.5484
20613SOL     OW64091   7.178   0.854   4.941  0.5655  0.0915  0.2551
20613SOL    HW164092   7.208   0.781   4.995  1.7686  0.6259  0.3404
20613SOL    HW264093   7.153   0.922   5.004 -2.3226 -0.8495  0.2439
20614SOL     OW64094   4.534   2.640   9.606 -0.4813  0.1351 -0.1899
20614SOL    HW164095   4.583   2.675   9.681 -1.2539  0.4883  0.1613
20614SOL    HW264096   4.599   2.634   9.536  0.1700  0.1594  0.3943
20615SOL     OW64097   2.850   6.498   2.822 -0.3655 -0.2900 -0.6592
20615SOL    HW164098   2.924   6.553   2.798 -1.6102  1.5102 -0.6012
20615SOL    HW264099   2.813   6.469   2.738 -0.6129  0.2611 -0.7461
20616SOL     OW64100   4.230   6.573   2.520 -0.0849  0.5869 -0.7312
20616SOL    HW164101   4.269   6.514   2.584  1.0936  0.6119 -1.3946
20616SOL    HW264102   4.137   6.578   2.544  0.0748 -0.4580  0.1385
20617SOL     OW64103   3.075   1.087   2.829  0.1287 -0.0236  0.7405
20617SOL    HW164104   2.981   1.104   2.827  0.3164  0.9998  0.5488
20617SOL    HW264105   3.103   1.090   2.738  0.3321 -0.4951  0.7800
20618SOL     OW64106   6.280   8.952   6.089  0.4111  0.8496  0.5785
20618SOL    HW164107   6.293   8.977   5.998  0.0933 -0.2685  0.2037
20618SOL    HW264108   6.186   8.965   6.105 -0.0162 -1.1875 -0.0066
20619SOL     OW64109  10.187   0.287   0.100 -0.1482  0.1114  0.2779
20619SOL    HW164110  10.182   0.373   0.141  1.1277 -0.8338  2.6552
20619SOL    HW264111  10.280   0.276   0.078  0.6205 -2.0402  3.6780
20620SOL     OW64112   0.324   4.072   4.746  0.2644  0.3461 -0.2804
20620SOL    HW164113   0.259   4.008   4.777  0.6311 -0.8278 -1.7980
20620SOL    HW264114   0.389   4.075   4.816  0.8563 -1.8958 -0.6545
20621SOL     OW64115   5.028   4.423   6.676 -0.6209 -0.4551 -0.3776
20621SOL    HW164116   5.042   4.337   6.638  1.7551  1.1244 -3.5485
20621SOL    HW264117   5.070   4.418   6.762  0.5580 -2.1464 -0.9950
20622SOL     OW64118   6.847   3.728   5.946  0.5081 -0.3144 -0.5912
20622SOL    HW164119   6.798   3.739   5.865  0.6792  1.9687 -0.4416
20622SOL    HW264120   6.935   3.701   5.918  0.5954  0.5615 -1.2020
20623SOL     OW64121  10.234   4.865   9.489  0.6850 -0.2633  0.9268
20623SOL    HW164122  10.213   4.894   9.401  0.7523 -0.9823  0.6664
20623SOL    HW264123  10.303   4.924   9.519 -1.5381  2.1003  1.7626
20624SOL     OW64124   8.322   5.693   3.185  0.1064  0.1285  0.1592
20624SOL    HW164125   8.302   5.647   3.266  0.5754  0.7208  0.6227
20624SOL    HW264126   8.417   5.707   3.188  0.1251  0.1793 -0.4756
20625SOL     OW64127   5.585   6.420   8.352 -0.2409  0.0212 -0.0501
20625SOL    HW164128   5.538   6.336   8.351 -1.8983  0.8984 -2.0193
20625SOL    HW264129   5.537   6.474   8.414  0.5329 -0.2659  0.8382
20626SOL     OW64130   0.600   3.054   7.159  0.5087  0.3011  0.0485
20626SOL    HW164131   0.553   3.121   7.109  0.2284 -1.3000 -1.9688
20626SOL    HW264132   0.619   3.096   7.243 -0.5086  2.5495 -0.7564
20627SOL     OW64133   6.760   6.531   5.730 -0.3733 -0.1960 -0.0751
20627SOL    HW164134   6.735   6.509   5.820  1.2203  1.4771  0.8462
20627SOL    HW264135   6.698   6.598   5.703  0.1197  0.4806  0.4210
20628SOL     OW64136   1.959   1.656   0.702 -0.8336 -0.1319 -1.0636
20628SOL    HW164137   2.055   1.661   0.699 -0.8057 -0.2801 -0.6227
20628SOL    HW264138   1.939   1.566   0.675 -0.9399  0.3242 -2.5651
20629SOL     OW64139   5.207   9.359   9.585  0.1604 -0.0293 -0.1561
20629SOL    HW164140   5.117   9.388   9.568  0.0302  0.4224  1.2014
20629SOL    HW264141   5.200   9.264   9.595 -0.2328  0.0461  0.3230
20630SOL     OW64142   2.757   4.224   3.821 -0.2416 -0.3957 -0.0082
20630SOL    HW164143   2.749   4.230   3.916  1.2366 -2.2326  0.2857
20630SOL    HW264144   2.668   4.208   3.790 -0.7242  0.1228  1.0645
20631SOL     OW64145   6.643   3.992   1.926 -0.0376 -0.3847  1.1641
20631SOL    HW164146   6.573   4.032   1.977 -0.6059  0.4880 -0.2483
20631SOL    HW264147   6.616   3.901   1.914 -1.1178  0.0309  0.3326
20632SOL     OW64148   4.857   3.317   0.456  0.3920 -0.3902 -0.5743
20632SOL    HW164149   4.857   3.413   0.449  0.9779 -0.2901  0.5684
20632SOL    HW264150   4.887   3.286   0.371  2.1445  0.5141 -0.3140
20633SOL     OW64151   0.340   0.445   5.190  0.4799  0.5890 -0.1928
20633SOL    HW164152   0.265   0.502   5.207  0.0912  0.7843 -2.2866
20633SOL    HW264153   0.351   0.395   5.271 -1.3684  1.1619  0.4641
20634SOL     OW64154   5.824   2.661   2.972  0.2444  0.2561 -0.3933
20634SOL    HW164155   5.853   2.722   2.903 -0.7018  1.0669 -0.1051
20634SOL    HW264156   5.747   2.703   3.009 -1.1223 -1.6768 -0.9350
20635SOL     OW64157   5.485   1.826  10.290  0.4957 -0.2177  0.2111
20635SOL    HW164158   5.538   1.896  10.327 -1.5333  1.6762 -0.3183
20635SOL    HW264159   5.490   1.755  10.355  3.1811  0.0334  0.4155
20636SOL     OW64160   8.838   4.065   2.628 -0.5831 -0.2550  0.0471
20636SOL    HW164161   8.902   4.062   2.557 -2.3596 -1.3299 -1.5914
20636SOL    HW264162   8.832   3.975   2.659 -2.0943 -0.4004 -0.5977
20637SOL     OW64163   1.745   1.093   4.636  0.0069  0.4045  0.0952
20637SOL    HW164164   1.795   1.083   4.555 -0.3629 -2.5879  0.1039
20637SOL    HW264165   1.811   1.101   4.705  0.4244 -0.2459 -0.2175
20638SOL     OW64166   0.358   0.166   7.767 -0.0029 -0.4259  0.0020
20638SOL    HW164167   0.373   0.129   7.853 -1.6397  1.7017  1.3082
20638SOL    HW264168   0.263   0.160   7.754  0.0501  0.5231 -1.0156
20639SOL     OW64169   6.973   3.164   0.559 -0.2301  0.3087  0.0450
20639SOL    HW164170   6.900   3.166   0.620 -0.3121 -0.4809 -0.0185
20639SOL    HW264171   7.040   3.112   0.603  0.3828  1.1804  0.1859
20640SOL     OW64172   2.146   2.628   9.663 -0.1082 -0.0346 -0.1183
20640SOL    HW164173   2.232   2.631   9.621  0.1734 -2.2143  0.1715
20640SOL    HW264174   2.163   2.649   9.755  0.3500 -1.5588  0.1771
20641SOL     OW64175   3.843   4.451   4.022 -0.4268  0.7747 -0.1651
20641SOL    HW164176   3.785   4.477   4.093  0.7868 -1.2430  1.6965
20641SOL    HW264177   3.814   4.362   3.999  0.8337  0.3940 -0.3504
20642SOL     OW64178   0.493   9.182   6.655  0.7463 -0.1814 -0.2785
20642SOL    HW164179   0.527   9.151   6.571  1.2942  2.3742 -1.0981
20642SOL    HW264180   0.398   9.174   6.647  0.8125 -0.2554 -1.0299
20643SOL     OW64181   9.659   9.371   3.720  0.0460 -0.2282 -0.3287
20643SOL    HW164182   9.666   9.379   3.625 -2.2194 -0.1406 -0.5464
20643SOL    HW264183   9.688   9.282   3.739  2.0347  0.2676 -0.8730
20644SOL     OW64184   9.762   8.163   9.580 -0.2668 -0.4655  0.3826
20644SOL    HW164185   9.750   8.128   9.668  2.6857  0.7574  1.4372
20644SOL    HW264186   9.701   8.237   9.575 -0.3934 -0.4773  1.4785
20645SOL     OW64187   2.669   3.867   4.440  0.1224 -0.3659  0.1178
20645SOL    HW164188   2.733   3.938   4.427  1.0838 -1.1742  0.2663
20645SOL    HW264189   2.586   3.904   4.412  0.6222  0.7919  0.0951
20646SOL     OW64190   9.771  10.162   0.186  0.5128  0.5592  0.3385
20646SOL    HW164191   9.818  10.235   0.145  1.1035  0.2444  0.4345
20646SOL    HW264192   9.840  10.113   0.230  0.0757  0.1039  0.5096
20647SOL     OW64193   0.207   7.200   1.778  0.1782 -0.3204  0.1065
20647SOL    HW164194   0.208   7.201   1.682 -0.0460  1.1466  0.1019
20647SOL    HW264195   0.149   7.127   1.800 -0.3935 -0.1955 -0.8930
20648SOL     OW64196   2.240   8.688   2.255  0.0360 -0.8982  0.3488
20648SOL    HW164197   2.163   8.740   2.278 -1.2733 -1.7891 -1.7068
20648SOL    HW264198   2.243   8.620   2.322  0.9348  0.8802  2.2369
20649SOL     OW64199   0.074   8.235   5.749  0.0966  0.0247  0.3873
20649SOL    HW164200   0.055   8.196   5.663 -0.8623  0.0649  0.5737
20649SOL    HW264201   0.021   8.185   5.811 -1.7567  2.0424  0.5468
20650SOL     OW64202   2.826  10.301   4.395 -0.5528  0.7419 -0.1066
20650SOL    HW164203   2.901  10.349   4.361 -0.1090  2.0603  2.4737
20650SOL    HW264204   2.750  10.352   4.369 -0.2620  1.4499  0.3961
20651SOL     OW64205   5.855   3.688   1.409  0.2103  0.2090 -0.4777
20651SOL    HW164206   5.831   3.777   1.386  1.7285  0.0792 -2.9291
20651SOL    HW264207   5.950   3.692   1.425  0.5556 -1.1276 -1.9123
20652SOL     OW64208   7.167   0.363   8.900 -0.2975  0.5235  0.2511
20652SOL    HW164209   7.101   0.429   8.876  0.3674  0.8672 -0.6978
20652SOL    HW264210   7.162   0.359   8.995 -2.1871  0.0091  0.1732
20653SOL     OW64211   6.808   9.940   2.786  0.1132  0.3968  0.2132
20653SOL    HW164212   6.843   9.984   2.709  1.0648 -0.9667 -0.1736
20653SOL    HW264213   6.726   9.985   2.805 -1.3911 -0.7154 -3.0283
20654SOL     OW64214   7.804   8.089   4.533 -0.2600 -0.1473  0.1471
20654SOL    HW164215   7.809   8.136   4.616 -1.0854 -0.9454  0.6734
20654SOL    HW264216   7.739   8.138   4.482  0.6171  0.6384 -0.2452
20655SOL     OW64217   0.406   4.749   1.811  0.6533 -0.3281  0.0676
20655SOL    HW164218   0.312   4.734   1.807  0.6076 -0.2736  0.7375
20655SOL    HW264219   0.417   4.813   1.882  1.2174 -0.5781  0.2161
20656SOL     OW64220   7.506   1.037   7.820 -0.0995  0.2658  0.1147
20656SOL    HW164221   7.531   1.071   7.735 -0.2249  0.6367  0.2239
20656SOL    HW264222   7.529   0.944   7.817  0.5300  0.4236 -0.0740
20657SOL     OW64223   5.990   9.240   9.836 -0.2512 -0.3608 -0.0314
20657SOL    HW164224   5.950   9.184   9.769  0.2479 -0.5302 -0.1855
20657SOL    HW264225   6.068   9.277   9.795  0.0677 -0.4755  0.4612
20658SOL     OW64226   4.275   1.537   7.864  0.1415 -0.3783 -0.0204
20658SOL    HW164227   4.235   1.468   7.810  0.3993 -0.5076 -0.0443
20658SOL    HW264228   4.222   1.615   7.845  1.0862 -0.0729 -1.5368
20659SOL     OW64229   7.215   0.205   2.245 -0.5621  0.3544 -0.2523
20659SOL    HW164230   7.195   0.283   2.193 -0.6381  0.0867 -0.6287
20659SOL    HW264231   7.130   0.176   2.279 -0.3216  1.4804  1.4042
20660SOL     OW64232   0.917   3.809   5.591  0.0902  0.2990 -0.1053
20660SOL    HW164233   1.008   3.780   5.603 -0.0144 -1.6494 -3.1561
20660SOL    HW264234   0.924   3.891   5.543  0.2067  0.7528  0.6611
20661SOL     OW64235   4.044   7.203   6.789 -0.2469 -0.3799  0.3584
20661SOL    HW164236   3.965   7.238   6.748 -0.0066  0.2219  0.4065
20661SOL    HW264237   4.115   7.229   6.730  0.0084 -0.2112  0.7367
20662SOL     OW64238   5.207  10.151   3.688 -0.0046 -0.7914 -0.4246
20662SOL    HW164239   5.255  10.219   3.640 -1.5148  0.7658  0.1647
20662SOL    HW264240   5.153  10.109   3.621 -0.3753 -0.2062 -0.4990
20663SOL     OW64241   4.174   7.625   8.611  0.6962 -0.7934  0.1958
20663SOL    HW164242   4.188   7.561   8.541  2.3814  0.2297 -0.4386
20663SOL    HW264243   4.141   7.703   8.567 -0.6448 -0.9250  0.8869
20664SOL     OW64244   0.272   4.041   2.619  0.0972  0.0221 -0.0643
20664SOL    HW164245   0.264   4.061   2.713  0.2663  0.0374 -0.0520
20664SOL    HW264246   0.352   3.988   2.614  0.0709 -0.0038 -0.1969
20665SOL     OW64247   8.500   1.479   5.715  0.0763 -0.1242  0.2975
20665SOL    HW164248   8.575   1.425   5.690 -0.1606  0.0759 -0.9106
20665SOL    HW264249   8.462   1.433   5.790  3.1081  1.3491  2.9588
20666SOL     OW64250   3.427   7.932   9.006  0.1743 -0.9147  0.0819
20666SOL    HW164251   3.392   7.939   9.095 -1.3342 -0.2478 -0.5139
20666SOL    HW264252   3.512   7.976   9.010  0.1024 -0.8494  1.1809
20667SOL     OW64253   9.003   7.708   4.014  0.1196 -0.6910 -0.0325
20667SOL    HW164254   8.959   7.658   4.083 -0.2333 -1.3790 -0.7369
20667SOL    HW264255   9.005   7.798   4.047  0.3725 -1.0768  1.0687
20668SOL     OW64256   5.867   2.486   8.973  0.4365  0.6603 -0.1241
20668SOL    HW164257   5.962   2.476   8.968  0.4725  0.9342 -0.0108
20668SOL    HW264258   5.843   2.521   8.887  0.5082  1.1242  0.0426
20669SOL     OW64259   9.595   2.784   0.135 -0.0755  0.3887 -0.1197
20669SOL    HW164260   9.638   2.741   0.061 -0.9776  1.5397 -1.3425
20669SOL    HW264261   9.504   2.794   0.108 -0.2687  1.4826  0.8490
20670SOL     OW64262   7.123   0.181   8.156  0.3497  0.3928 -0.5071
20670SOL    HW164263   7.111   0.269   8.120  0.9082  1.1414  1.0419
20670SOL    HW264264   7.167   0.195   8.240 -0.3886 -1.3058  0.2134
20671SOL     OW64265   7.159   9.034   0.231  0.2451  0.1565  0.2310
20671SOL    HW164266   7.159   9.075   0.145 -0.0832  1.6673  0.9229
20671SOL    HW264267   7.076   8.986   0.235  0.8451 -1.0384 -0.7609
20672SOL     OW64268   5.287   8.125   3.359  0.3280 -0.0008 -0.3951
20672SOL    HW164269   5.268   8.217   3.340  0.7327  0.5902  1.8302
20672SOL    HW264270   5.378   8.113   3.331  1.2326  1.1101  1.8922
20673SOL     OW64271   5.487   0.186   1.313 -0.1222 -0.4666 -0.3187
20673SOL    HW164272   5.487   0.271   1.269 -0.5150 -0.6817 -0.7360
20673SOL    HW264273   5.398   0.176   1.346  0.3411  0.0038  1.1493
20674SOL     OW64274   3.910   1.790   9.500 -0.5909  0.2188  0.1970
20674SOL    HW164275   3.945   1.717   9.551  0.7202  0.5504 -0.1893
20674SOL    HW264276   3.873   1.850   9.565  1.7137  0.9912  0.8925
20675SOL     OW64277   6.393   3.174   2.382  0.3780 -0.2142 -0.0541
20675SOL    HW164278   6.341   3.228   2.322  0.6212  1.0971  0.8709
20675SOL    HW264279   6.339   3.096   2.397 -1.2305  0.9766  0.6555
20676SOL     OW64280   0.600   8.544   9.771 -0.6252 -0.3298 -0.6626
20676SOL    HW164281   0.592   8.481   9.700  1.2774 -1.8487  0.3936
20676SOL    HW264282   0.585   8.494   9.850  2.2781  0.1167  0.3115
20677SOL     OW64283   8.233   6.898   6.847 -0.8912 -0.0944  0.2170
20677SOL    HW164284   8.203   6.969   6.790  0.1905 -0.3021 -0.6407
20677SOL    HW264285   8.171   6.827   6.830 -0.9578  0.0642 -0.2251
20678SOL     OW64286   0.709   8.235   9.364  0.5396 -0.3313 -0.0184
20678SOL    HW164287   0.734   8.150   9.400  1.1645 -1.2289 -2.4455
20678SOL    HW264288   0.783   8.262   9.311 -0.2228  1.0864 -0.4205
20679SOL     OW64289   9.308   4.243   5.173  0.8496  0.7157 -0.3166
20679SOL    HW164290   9.241   4.298   5.133  1.5479  0.5991 -1.7026
20679SOL    HW264291   9.277   4.153   5.159  0.1187  0.6942  1.2125
20680SOL     OW64292   9.629   0.451   4.053  0.1437 -0.1236 -0.4288
20680SOL    HW164293   9.612   0.407   4.137  1.8753 -0.3031 -0.1127
20680SOL    HW264294   9.714   0.416   4.025 -0.6565 -0.4898 -2.5633
20681SOL     OW64295   3.593   7.686   8.980 -0.1604  0.0940 -0.1560
20681SOL    HW164296   3.641   7.740   9.043  1.3173  0.5753 -1.6056
20681SOL    HW264297   3.593   7.739   8.900  0.3079 -1.5639 -1.2910
20682SOL     OW64298   4.496   9.021   9.716 -0.1373 -0.2080 -0.0699
20682SOL    HW164299   4.466   9.090   9.656  3.0095  0.1771 -1.4091
20682SOL    HW264300   4.443   8.945   9.693 -1.0751  0.7576 -1.2435
20683SOL     OW64301   0.000   6.803   4.795  0.6017  0.0783  0.0443
20683SOL    HW164302   0.052   6.821   4.874  0.0042 -0.7683  0.6545
20683SOL    HW264303   0.021   6.874   4.736  0.9577  0.8167  1.0302
20684SOL     OW64304   8.424   0.010   7.842  0.1665 -0.6333  0.0398
20684SOL    HW164305   8.493   0.077   7.839  0.8599 -1.2370  1.6510
20684SOL    HW264306   8.470  -0.073   7.832 -0.3802 -1.0190  0.6457
20685SOL     OW64307  10.244   7.503   7.066  0.0772  0.1790  0.0276
20685SOL    HW164308  10.303   7.567   7.026  0.2560 -0.2180 -0.3627
20685SOL    HW264309  10.182   7.481   6.996  0.5347 -0.6985 -0.1217
20686SOL     OW64310   0.368   0.992   7.161  0.3428  0.4683  0.4344
20686SOL    HW164311   0.328   0.906   7.156  1.2261  0.1056 -1.1665
20686SOL    HW264312   0.370   1.013   7.254  0.2397 -1.2980  0.8659
20687SOL     OW64313   5.100   3.669   9.660  0.9428  0.2682  0.0592
20687SOL    HW164314   5.036   3.623   9.606  1.3455  0.3681 -0.5118
20687SOL    HW264315   5.055   3.684   9.743  0.1965  0.4161 -0.3658
20688SOL     OW64316   1.859   4.945   6.760 -0.1445  0.5535 -1.0653
20688SOL    HW164317   1.817   4.933   6.846  1.6883  1.4532  0.0131
20688SOL    HW264318   1.868   5.040   6.751  2.8328  0.4074 -0.5909
20689SOL     OW64319   1.491   1.246   8.581 -0.2940 -0.2814 -0.1497
20689SOL    HW164320   1.558   1.305   8.616  0.7919 -0.5543 -1.6708
20689SOL    HW264321   1.451   1.206   8.658  2.0688 -0.9623  0.8071
20690SOL     OW64322   0.380   1.393   9.178 -0.3782  0.3160 -0.0466
20690SOL    HW164323   0.362   1.478   9.219 -0.3437 -0.3448  1.3928
20690SOL    HW264324   0.342   1.329   9.238  1.2738 -0.7866 -0.1034
20691SOL     OW64325   2.849   7.947   6.608  0.1249 -0.0304  0.6695
20691SOL    HW164326   2.940   7.954   6.636  0.8655 -0.7215 -1.3888
20691SOL    HW264327   2.852   7.889   6.532 -2.0621 -0.1383  0.6030
20692SOL     OW64328  10.608   6.150   0.194  0.0686 -0.2330 -0.4859
20692SOL    HW164329  10.599   6.180   0.103  1.2344 -1.2704 -0.9761
20692SOL    HW264330  10.691   6.188   0.223 -0.1416 -0.1714  0.0318
20693SOL     OW64331   2.728   8.886   0.440 -0.4424  0.7175  0.3676
20693SOL    HW164332   2.670   8.938   0.497 -0.6142  0.1614  0.7032
20693SOL    HW264333   2.714   8.796   0.468 -0.4995  0.4395 -0.5331
20694SOL     OW64334  10.170   6.530   6.102  0.3026  0.7617 -0.2740
20694SOL    HW164335  10.250   6.478   6.108 -0.0129  0.2320 -0.5058
20694SOL    HW264336  10.134   6.529   6.190  0.2971  0.5896 -0.2787
20695SOL     OW64337   4.112   6.358   3.014 -0.0774  0.2740  0.9121
20695SOL    HW164338   4.137   6.278   2.967 -0.9184  0.7371 -0.3982
20695SOL    HW264339   4.116   6.334   3.107 -0.0752 -1.2156  0.5534
20696SOL     OW64340   1.492   2.260   2.489  0.0629 -0.3277  0.3673
20696SOL    HW164341   1.571   2.210   2.509  0.7867  0.8808  0.6466
20696SOL    HW264342   1.498   2.279   2.396  0.8291  0.9256  0.6466
20697SOL     OW64343   8.818   0.847  10.211  0.3070  0.7803  0.4300
20697SOL    HW164344   8.745   0.792  10.182  1.4907 -0.5559 -0.1259
20697SOL    HW264345   8.887   0.831  10.147  1.4661  1.1812  1.5497
20698SOL     OW64346   6.653   1.251   4.958  0.3637  0.0596 -0.5830
20698SOL    HW164347   6.670   1.297   4.876  3.3578  1.6682  0.7680
20698SOL    HW264348   6.716   1.179   4.959  1.8937  1.3309  1.1293
20699SOL     OW64349   5.034   9.241   1.568  0.3984 -0.2753 -0.1928
20699SOL    HW164350   5.043   9.320   1.620  1.9740 -0.1154 -0.6530
20699SOL    HW264351   5.044   9.169   1.630 -2.2680 -0.1945  0.4423
20700SOL     OW64352   9.748   8.410   9.031 -0.3499  0.2416  0.1020
20700SOL    HW164353   9.666   8.454   9.052 -1.1933 -0.9233 -0.6686
20700SOL    HW264354   9.723   8.321   9.009  1.2212 -0.3840  0.6836
20701SOL     OW64355   4.178   2.118   7.171  0.0545  0.3781  0.6537
20701SOL    HW164356   4.137   2.149   7.251 -0.6292  0.1874  0.3782
20701SOL    HW264357   4.111   2.067   7.127  1.0549 -1.2541  0.9309
20702SOL     OW64358   8.755   8.589   4.003  0.2407 -0.6586  0.3537
20702SOL    HW164359   8.826   8.591   4.067  1.9860 -1.2358 -1.4464
20702SOL    HW264360   8.721   8.500   4.008  1.4465 -1.1993 -0.5709
20703SOL     OW64361   3.659   2.398   9.907  0.0844  0.4872  0.3987
20703SOL    HW164362   3.611   2.406   9.824  0.2759 -1.0471  0.1149
20703SOL    HW264363   3.731   2.339   9.888 -0.3261 -0.5492  1.8379
20704SOL     OW64364   6.779   8.324   9.131  0.0736 -0.3273  0.0917
20704SOL    HW164365   6.844   8.369   9.078 -0.5262 -0.0827 -0.4481
20704SOL    HW264366   6.709   8.389   9.143 -0.8043 -1.1005 -0.7062
20705SOL     OW64367   2.857   2.538   8.601 -0.2275 -0.2361  0.1093
20705SOL    HW164368   2.781   2.487   8.631  0.3633 -1.2626 -0.0704
20705SOL    HW264369   2.912   2.473   8.557  0.3380  0.6712 -0.5322
20706SOL     OW64370   5.292   0.635   5.899  0.2344 -0.2106 -0.0648
20706SOL    HW164371   5.282   0.599   5.987 -3.3739 -1.7562 -0.9437
20706SOL    HW264372   5.309   0.559   5.844 -0.3228  0.3493 -1.0396
20707SOL     OW64373   4.662   7.429   2.223 -0.2019 -0.0019  0.2462
20707SOL    HW164374   4.580   7.461   2.260 -1.0682 -0.9404 -0.8170
20707SOL    HW264375   4.637   7.360   2.163  1.3914 -0.4402  0.0286
20708SOL     OW64376   9.430   9.844   9.406 -0.2626 -0.3640  0.4262
20708SOL    HW164377   9.511   9.892   9.391 -0.9688  0.4970 -0.7294
20708SOL    HW264378   9.431   9.773   9.342 -1.9237  1.6132 -1.9711
20709SOL     OW64379   5.025   4.460  10.622 -0.2665  0.1787  0.1377
20709SOL    HW164380   5.072   4.477  10.703  0.1203  1.4752 -0.3235
20709SOL    HW264381   4.933   4.478  10.643 -0.1597  0.5574  0.2900
20710SOL     OW64382   4.171   5.917   3.781 -0.3348  0.1204 -0.1341
20710SOL    HW164383   4.132   5.970   3.712 -0.8915 -0.3200 -0.1615
20710SOL    HW264384   4.155   5.966   3.862 -1.1759 -0.1841 -0.1136
20711SOL     OW64385  10.134   1.996   8.658 -0.0860 -0.2276  0.3920
20711SOL    HW164386  10.228   2.004   8.641 -0.1163 -0.2427  0.2142
20711SOL    HW264387  10.094   2.060   8.599 -0.4011 -2.3163 -1.7862
20712SOL     OW64388   0.532  10.039   9.831 -0.2143 -0.1627  0.0555
20712SOL    HW164389   0.548  10.120   9.879 -0.2723 -0.4265  0.5321
20712SOL    HW264390   0.613  10.022   9.784 -0.5735  0.7498 -0.9350
20713SOL     OW64391   1.663   9.144   6.903 -0.6197  0.3540  0.1723
20713SOL    HW164392   1.633   9.083   6.971  0.5912 -0.8989 -0.3784
20713SOL    HW264393   1.692   9.221   6.952 -1.1540  0.0696  0.9643
20714SOL     OW64394   6.935   8.384   8.491  0.2757 -0.2828 -0.0203
20714SOL    HW164395   6.893   8.406   8.575 -0.7714  1.5901 -0.9626
20714SOL    HW264396   7.025   8.361   8.515  0.3923  1.4985  1.5610
20715SOL     OW64397   0.194   8.510   8.262 -0.2734 -0.5410 -0.4166
20715SOL    HW164398   0.107   8.546   8.276 -0.7096 -1.3074 -1.0640
20715SOL    HW264399   0.251   8.586   8.254 -0.5234 -0.0218  1.9783
20716SOL     OW64400   0.542   1.169   9.344  0.2086  0.7581 -0.1054
20716SOL    HW164401   0.592   1.230   9.399 -0.7077  0.5365  1.0208
20716SOL    HW264402   0.606   1.105   9.315  0.5522  0.2960  1.5809
20717SOL     OW64403   7.224   7.714   0.571  0.0602 -0.6775  0.0546
20717SOL    HW164404   7.267   7.795   0.543 -0.2497 -0.7670 -0.7121
20717SOL    HW264405   7.292   7.648   0.568 -0.1459 -0.8430 -1.2683
20718SOL     OW64406   8.651   3.546   1.967  0.5067 -0.4259 -0.6005
20718SOL    HW164407   8.639   3.606   1.893 -0.5746 -1.6017 -1.4184
20718SOL    HW264408   8.699   3.598   2.032 -0.5204  1.3752 -1.2001
20719SOL     OW64409   3.122   2.604   4.681  0.5229  0.2271 -0.2923
20719SOL    HW164410   3.146   2.690   4.646  0.4192 -0.3951 -1.9860
20719SOL    HW264411   3.075   2.623   4.762 -1.3728  1.9131 -1.6892
20720SOL     OW64412   5.217   4.858   4.266  0.1519 -0.2368  0.2105
20720SOL    HW164413   5.173   4.844   4.183  0.5083  0.5349 -0.1197
20720SOL    HW264414   5.309   4.837   4.248  0.7633  2.5461 -0.3775
20721SOL     OW64415   8.790   0.806   4.847 -0.1895  0.3468  0.2152
20721SOL    HW164416   8.876   0.817   4.887  0.5893  1.2500 -1.5772
20721SOL    HW264417   8.803   0.830   4.755 -2.0869 -0.6850 -0.3857
20722SOL     OW64418   4.977   8.915   7.725 -0.1709  0.0226 -0.7397
20722SOL    HW164419   5.013   8.912   7.636 -1.4354 -0.3621 -1.2586
20722SOL    HW264420   5.038   8.863   7.777 -0.1789 -0.9792 -1.6906
20723SOL     OW64421   1.991   3.215   7.630 -0.5570 -0.2990 -0.0055
20723SOL    HW164422   2.034   3.149   7.576  1.9196 -0.5575  2.0766
20723SOL    HW264423   2.061   3.276   7.653 -2.0672  1.1943  0.8527
20724SOL     OW64424   6.584   2.803  10.602 -0.1287 -0.1965 -0.0954
20724SOL    HW164425   6.534   2.727  10.573 -1.5438 -0.1639  2.0038
20724SOL    HW264426   6.551   2.821  10.690  1.8566  1.3993  0.4037
20725SOL     OW64427   4.007   4.291  10.567 -0.1992  0.0216 -0.2412
20725SOL    HW164428   4.087   4.318  10.612 -1.2015  0.3187  1.4364
20725SOL    HW264429   3.977   4.370  10.522  1.2571 -0.4837 -2.2440
20726SOL     OW64430   6.901   1.092   7.013  0.1686 -0.3574 -0.6780
20726SOL    HW164431   6.867   1.114   7.100  0.3712  0.0604 -0.6994
20726SOL    HW264432   6.990   1.062   7.028  0.0550 -0.7055 -0.6989
20727SOL     OW64433   9.934   5.372   2.108 -0.4828 -0.7786 -0.1437
20727SOL    HW164434   9.994   5.313   2.154 -0.9678  0.2051  1.8261
20727SOL    HW264435   9.882   5.314   2.052 -0.8745 -2.2247  1.6421
20728SOL     OW64436   1.375   2.774   5.406  0.0218 -0.4383  0.5272
20728SOL    HW164437   1.410   2.848   5.356  1.1239 -0.1306  1.7159
20728SOL    HW264438   1.415   2.697   5.366  1.8946 -0.1107  1.6804
20729SOL     OW64439   8.227  10.448   7.898  0.8537  0.3406  0.7073
20729SOL    HW164440   8.293  10.382   7.918 -0.1031 -0.9429 -0.2464
20729SOL    HW264441   8.241  10.469   7.805 -0.5574 -0.5454  0.2618
20730SOL     OW64442   4.397   4.825   6.605 -0.1938  0.7850 -0.1118
20730SOL    HW164443   4.343   4.847   6.681  0.6106 -0.5513  0.9013
20730SOL    HW264444   4.448   4.748   6.633  2.5781  2.2305 -0.8299
20731SOL     OW64445   5.845   4.058  10.334  0.1709 -0.2097 -0.3730
20731SOL    HW164446   5.777   4.037  10.399 -0.5439  1.8307 -0.3736
20731SOL    HW264447   5.868   3.974  10.295 -2.7384 -0.9469 -0.7321
20732SOL     OW64448   8.860   8.770   7.243 -0.3061 -0.2445  0.6416
20732SOL    HW164449   8.918   8.695   7.254  1.3775  0.8295 -0.4702
20732SOL    HW264450   8.812   8.751   7.162  0.5224  0.0976  0.0549
20733SOL     OW64451   2.992   5.095   2.110 -0.1318  0.1335 -0.4260
20733SOL    HW164452   2.919   5.093   2.049  0.7622 -0.1967 -1.5074
20733SOL    HW264453   3.044   5.170   2.083  0.4939 -0.2620 -0.3362
20734SOL     OW64454   0.566   6.534   8.806  0.1469  0.6530  0.2798
20734SOL    HW164455   0.654   6.508   8.781 -0.0161 -0.7174  1.0760
20734SOL    HW264456   0.514   6.523   8.726  0.5745  0.9578 -0.0455
20735SOL     OW64457   9.842   4.187   8.255  0.2635  0.1684  0.1574
20735SOL    HW164458   9.848   4.116   8.319  2.2855  1.4960  1.5430
20735SOL    HW264459   9.921   4.178   8.201 -0.8657 -0.2646 -1.5082
20736SOL     OW64460   4.091   0.237   2.798  0.3761  0.0821 -0.0500
20736SOL    HW164461   4.177   0.277   2.784 -0.5276  2.1575  0.0758
20736SOL    HW264462   4.056   0.281   2.875 -1.6063  0.7180 -1.2337
20737SOL     OW64463   2.871   2.890   4.413 -0.0419  0.2553  0.3183
20737SOL    HW164464   2.958   2.909   4.447 -0.9708  0.1496  2.9996
20737SOL    HW264465   2.865   2.795   4.413 -0.3069  0.2676  0.6425
20738SOL     OW64466   7.405   8.848   7.549  0.1953  0.9109  0.3662
20738SOL    HW164467   7.338   8.905   7.513  0.3088  1.0126  0.3172
20738SOL    HW264468   7.482   8.862   7.493  0.4539  1.2611  0.8015
20739SOL     OW64469  10.298   0.749   2.227  0.8487  0.1938  0.7306
20739SOL    HW164470  10.256   0.834   2.240 -0.4512 -0.1971 -0.6432
20739SOL    HW264471  10.351   0.737   2.306  2.3868  2.9930  0.2698
20740SOL     OW64472   4.144   6.014   8.871 -0.5141  0.3676 -0.3604
20740SOL    HW164473   4.101   6.031   8.955  0.1166 -0.3459  0.1118
20740SOL    HW264474   4.078   6.038   8.806 -0.6604  1.8723  0.3078
20741SOL     OW64475   0.236   1.569   6.492  0.0240 -0.6188  0.2764
20741SOL    HW164476   0.256   1.662   6.509  1.4389 -0.8436 -0.0494
20741SOL    HW264477   0.286   1.548   6.413 -1.7387 -1.1948 -0.7360
20742SOL     OW64478   1.500   6.629   1.706 -0.3043  0.6161 -0.5307
20742SOL    HW164479   1.422   6.576   1.689  0.2091 -1.6374  3.0498
20742SOL    HW264480   1.471   6.694   1.770  0.7197 -0.4451  1.0783
20743SOL     OW64481   9.280   8.431   7.744  0.1662 -0.4292  0.0305
20743SOL    HW164482   9.356   8.412   7.799  0.7313  2.4947  0.4507
20743SOL    HW264483   9.316   8.441   7.656  0.0146 -0.4567 -0.0355
20744SOL     OW64484   5.925   7.400   7.562  0.0958 -0.3864 -0.2804
20744SOL    HW164485   5.897   7.313   7.532  1.4260 -0.4702 -1.3451
20744SOL    HW264486   5.843   7.448   7.572 -0.6573 -1.6907  0.1358
20745SOL     OW64487   8.989   0.295   3.811  0.6119  0.0689 -1.0794
20745SOL    HW164488   8.919   0.232   3.792  0.5885 -0.0266 -0.6767
20745SOL    HW264489   8.965   0.333   3.895  2.0020 -1.3032 -0.0081
20746SOL     OW64490   0.777   9.636   0.550 -0.2813  0.5303  0.6170
20746SOL    HW164491   0.713   9.672   0.611 -0.6888 -1.9646  1.8095
20746SOL    HW264492   0.737   9.555   0.519  2.1085 -0.9838  1.2097
20747SOL     OW64493   8.135   7.071   6.645 -0.4466  0.1568 -0.2383
20747SOL    HW164494   8.115   6.996   6.589  0.8227 -0.2673 -0.1671
20747SOL    HW264495   8.189   7.128   6.590 -0.9301  0.7388 -0.1063
20748SOL     OW64496   3.131   9.042   6.483 -0.0351  0.2334  0.0867
20748SOL    HW164497   3.222   9.064   6.506  0.2249  2.1858 -2.3212
20748SOL    HW264498   3.139   8.961   6.433  0.1467 -0.5381  1.3374
20749SOL     OW64499   2.487   4.145   0.203 -0.1257  0.0564  0.2217
20749SOL    HW164500   2.573   4.183   0.224  0.1341  0.2030 -1.0035
20749SOL    HW264501   2.425   4.200   0.250  0.3864  0.6428  0.2295
20750SOL     OW64502   0.731   0.998   9.228  0.5313  0.5741  0.0298
20750SOL    HW164503   0.677   0.963   9.157  0.0811 -0.9919  1.1187
20750SOL    HW264504   0.782   1.068   9.186 -0.2364  0.1677 -1.6645
20751SOL     OW64505   3.637   7.748   0.525 -0.3068  0.1559 -0.3499
20751SOL    HW164506   3.668   7.768   0.437  0.9723  0.0240  0.0497
20751SOL    HW264507   3.634   7.652   0.528 -0.3521  0.1600 -0.2460
20752SOL     OW64508   1.002  10.465   0.348 -0.3330 -0.0519  0.1577
20752SOL    HW164509   0.936  10.520   0.307  0.5370  0.4872 -0.5654
20752SOL    HW264510   1.085  10.495   0.311  0.2261 -1.4312  0.2168
20753SOL     OW64511   1.153  10.039   0.854  0.1365  0.1841  0.0192
20753SOL    HW164512   1.183  10.123   0.818  1.5709 -0.1176  0.4756
20753SOL    HW264513   1.162   9.978   0.781 -0.2493  0.2688 -0.1052
20754SOL     OW64514   9.255   6.721   2.334  0.7906 -0.2058  0.4612
20754SOL    HW164515   9.214   6.636   2.351  1.2528 -0.0899  2.3414
20754SOL    HW264516   9.234   6.740   2.243 -2.2524 -0.7413  0.9409
20755SOL     OW64517   4.987   8.521   9.508 -0.2821 -0.4846  0.1432
20755SOL    HW164518   5.054   8.561   9.564 -1.1197  2.5814 -0.8368
20755SOL    HW264519   4.931   8.472   9.569  1.4097 -1.0389  1.3098
20756SOL     OW64520   0.454   3.699   1.827  0.1122 -0.7576  0.1032
20756SOL    HW164521   0.402   3.720   1.749 -1.2880 -0.7236  0.9997
20756SOL    HW264522   0.527   3.647   1.794 -1.6222 -2.6688 -1.0226
20757SOL     OW64523   7.730   4.726   7.479  0.3759  0.2306  0.4421
20757SOL    HW164524   7.739   4.676   7.398  1.3680  0.7861  0.1937
20757SOL    HW264525   7.725   4.660   7.548 -0.4402 -0.2422 -0.0519
20758SOL     OW64526  10.270   3.516   1.848 -0.1345  0.6032  0.2313
20758SOL    HW164527  10.261   3.446   1.913 -2.2746 -0.2480 -0.8703
20758SOL    HW264528  10.229   3.592   1.890  0.6874  0.7535  0.7861
20759SOL     OW64529   0.800  10.646   8.192 -0.1063 -0.0376 -0.2665
20759SOL    HW164530   0.787  10.709   8.122 -2.1741 -0.1035 -0.0154
20759SOL    HW264531   0.883  10.604   8.172 -1.2781 -1.0923 -3.5466
20760SOL     OW64532   7.467   3.041   1.778 -0.4160  0.3004  0.4706
20760SOL    HW164533   7.542   2.981   1.789  0.7156  1.4515 -0.6671
20760SOL    HW264534   7.477   3.104   1.849 -1.5374 -0.7165  1.5904
20761SOL     OW64535   2.870   6.982   7.669  0.1063  0.2170 -0.2026
20761SOL    HW164536   2.847   6.935   7.590 -0.1999  0.5129 -0.2927
20761SOL    HW264537   2.960   6.955   7.688 -0.3081 -0.9543  0.1605
20762SOL     OW64538   0.932   9.832   3.484 -0.2136 -0.4474 -0.0756
20762SOL    HW164539   0.879   9.754   3.506  0.3000 -1.0540 -0.9541
20762SOL    HW264540   0.869   9.893   3.446 -0.6189 -0.4186  0.6028
20763SOL     OW64541   2.933   3.416   2.464  0.3891  0.6297  0.2723
20763SOL    HW164542   2.839   3.411   2.479  0.2764  2.2355  0.3438
20763SOL    HW264543   2.971   3.414   2.552  0.4904 -0.6529  0.2191
20764SOL     OW64544   8.898   1.880   1.983 -0.8605 -0.2490 -0.1292
20764SOL    HW164545   8.968   1.916   1.928  0.2232  1.0606  1.9907
20764SOL    HW264546   8.931   1.794   2.009 -0.3383  0.0779  0.3060
20765SOL     OW64547   9.467   4.451   8.375  0.5188 -0.0400  0.1629
20765SOL    HW164548   9.421   4.496   8.304 -0.6454 -1.2117  0.1421
20765SOL    HW264549   9.557   4.443   8.345  0.3914  0.8539 -0.4991
20766SOL     OW64550   3.727   7.410   7.112 -0.2878 -0.3359  0.1673
20766SOL    HW164551   3.785   7.336   7.093  0.0568  0.1139 -0.5449
20766SOL    HW264552   3.725   7.461   7.031 -0.7801  0.2650  0.5502
20767SOL     OW64553   4.586   0.194   0.718 -0.1332 -0.5412  0.3602
20767SOL    HW164554   4.499   0.157   0.704 -0.3957  0.1767  0.0411
20767SOL    HW264555   4.586   0.275   0.667  0.1422  0.3153  1.6639
20768SOL     OW64556   2.138   2.868   6.323  0.0515 -0.3956 -0.2926
20768SOL    HW164557   2.181   2.929   6.382 -1.1788  0.9336 -0.7210
20768SOL    HW264558   2.141   2.784   6.370  1.1690  0.1127  0.6026
20769SOL     OW64559   9.918   1.598   8.008  0.2549  0.3936 -0.0208
20769SOL    HW164560   9.933   1.658   8.080 -0.3851 -0.3265  0.7440
20769SOL    HW264561   9.879   1.651   7.939 -0.7959  0.7603  0.8404
20770SOL     OW64562   6.624   7.489   4.162 -0.0539  0.2205  0.1205
20770SOL    HW164563   6.673   7.407   4.154  0.2875  0.2870  1.3032
20770SOL    HW264564   6.582   7.501   4.077  0.5831 -0.7411 -0.3400
20771SOL     OW64565   8.148   7.593   9.441  0.3661  0.4859 -0.1160
20771SOL    HW164566   8.082   7.640   9.390 -0.2861 -1.4206 -1.1312
20771SOL    HW264567   8.099   7.550   9.511  0.2564 -1.7781 -1.4708
20772SOL     OW64568   9.661   2.782   6.181 -0.2308  0.2254  0.0396
20772SOL    HW164569   9.747   2.746   6.156  0.0037  0.5835  0.3353
20772SOL    HW264570   9.600   2.737   6.122  0.2042  0.2925 -0.4803
20773SOL     OW64571   5.629   0.249   7.492 -0.0146 -0.1961  0.6163
20773SOL    HW164572   5.561   0.182   7.504 -0.1771  0.0929  1.3497
20773SOL    HW264573   5.662   0.265   7.581 -0.9962  1.7689  0.6660
20774SOL     OW64574   8.488   6.732   9.262 -0.6005 -0.1762 -0.5463
20774SOL    HW164575   8.533   6.661   9.308  0.5638  0.8479 -0.0502
20774SOL    HW264576   8.405   6.694   9.234 -1.4102 -0.8630  2.4392
20775SOL     OW64577   5.395  10.115   0.740 -0.1400 -0.6886  0.4263
20775SOL    HW164578   5.383  10.134   0.833  0.5358  1.1725  0.1811
20775SOL    HW264579   5.312  10.077   0.712 -0.9726  0.3198  1.4388
20776SOL     OW64580   3.204   0.768   2.760  0.4075  0.2913  0.0882
20776SOL    HW164581   3.199   0.839   2.695 -0.0304 -0.4799 -0.7545
20776SOL    HW264582   3.295   0.741   2.759  0.1197 -0.7745 -1.4248
20777SOL     OW64583   2.260   1.110   4.832 -0.4350  0.4030  0.2513
20777SOL    HW164584   2.346   1.073   4.810  0.6352  0.5072  3.5718
20777SOL    HW264585   2.223   1.048   4.895 -1.0375  2.2263  1.7838
20778SOL     OW64586   3.552   5.725   0.699  0.2398  0.5263 -0.5953
20778SOL    HW164587   3.529   5.795   0.638  0.8806  0.0443 -1.4036
20778SOL    HW264588   3.593   5.658   0.645  1.1801  0.2554  0.4210
20779SOL     OW64589   8.827   1.078   5.606 -0.0677 -0.1943 -0.1179
20779SOL    HW164590   8.761   1.051   5.541  1.6122  0.6383 -2.3064
20779SOL    HW264591   8.861   0.996   5.641 -1.5986 -0.6472  0.4134
20780SOL     OW64592   0.388   4.285   8.336 -0.2376  0.4136 -0.5594
20780SOL    HW164593   0.295   4.285   8.313 -0.7512  3.4127  0.9457
20780SOL    HW264594   0.411   4.378   8.341  1.5712 -0.0272  3.5322
20781SOL     OW64595   8.245   2.900   6.856 -0.0512 -0.2855 -0.3606
20781SOL    HW164596   8.315   2.946   6.809 -0.7558  1.6293  0.3663
20781SOL    HW264597   8.291   2.845   6.920  0.8161 -0.2916 -0.9696
20782SOL     OW64598   4.948   8.782   2.377  0.1445  0.1604 -0.2332
20782SOL    HW164599   4.981   8.713   2.434  1.2999  0.5949 -0.3602
20782SOL    HW264600   4.861   8.801   2.411  0.4009 -0.3260  0.7185
20783SOL     OW64601   3.480   6.526   4.425  0.3399  0.5239 -0.1435
20783SOL    HW164602   3.535   6.495   4.497 -0.6748 -0.5667  0.1790
20783SOL    HW264603   3.507   6.474   4.350 -0.8797 -0.7090  0.2373
20784SOL     OW64604   7.608   8.607   3.199 -0.0408  0.0282  0.0208
20784SOL    HW164605   7.655   8.676   3.152  0.9044  0.0071  0.9173
20784SOL    HW264606   7.532   8.588   3.143  0.1277  1.2063 -0.6401
20785SOL     OW64607   3.103   4.709   0.528 -0.0794 -0.2466  0.4277
20785SOL    HW164608   3.055   4.650   0.470 -0.7408  0.1950  0.5074
20785SOL    HW264609   3.119   4.786   0.474 -2.4335  1.0014  1.3367
20786SOL     OW64610   8.186   8.580   7.808  0.4748  0.0305 -0.6582
20786SOL    HW164611   8.219   8.662   7.843 -1.2349  0.9786 -1.1186
20786SOL    HW264612   8.248   8.514   7.837  2.3012  1.5668 -0.8754
20787SOL     OW64613   7.754   0.552   7.761  0.2342 -0.7429 -0.3250
20787SOL    HW164614   7.700   0.489   7.808  0.5122 -1.4506 -0.9383
20787SOL    HW264615   7.827   0.570   7.820 -0.6194  0.1938  0.4987
20788SOL     OW64616   7.357   3.957   2.930 -0.2371 -0.8400 -0.1487
20788SOL    HW164617   7.421   3.887   2.915  1.5346  0.4097  1.1006
20788SOL    HW264618   7.390   4.031   2.880  1.1711  0.8061  2.9406
20789SOL     OW64619  10.035   8.756   0.262  0.5348  0.1019 -0.2741
20789SOL    HW164620  10.055   8.775   0.170  0.2335  1.0882 -0.1524
20789SOL    HW264621  10.012   8.663   0.263 -0.5927  0.3370 -1.4019
20790SOL     OW64622  10.524   1.780   1.278 -0.1178  0.0103  0.6623
20790SOL    HW164623  10.544   1.853   1.220  0.4836 -2.1460 -2.0720
20790SOL    HW264624  10.580   1.792   1.355  1.1009  1.5639 -0.4380
20791SOL     OW64625   6.092   8.841   3.231  0.1981 -0.4272  0.1587
20791SOL    HW164626   6.021   8.905   3.228  1.0666  0.6072  0.9767
20791SOL    HW264627   6.149   8.871   3.302  1.6837 -0.9679 -0.7529
20792SOL     OW64628   6.189   1.977   8.693 -0.0129 -0.8285  0.7829
20792SOL    HW164629   6.260   1.920   8.722 -0.2124 -0.7488  1.4707
20792SOL    HW264630   6.193   2.051   8.754  0.0322 -0.2721  0.1100
20793SOL     OW64631   6.072   9.773   7.920  0.2641 -0.5843 -0.2155
20793SOL    HW164632   6.113   9.699   7.875 -0.6549 -1.2369 -0.0064
20793SOL    HW264633   6.062   9.743   8.010  0.9831  0.2585  0.1503
20794SOL     OW64634   0.087   6.655   2.048  0.1044  0.5267  0.2376
20794SOL    HW164635   0.094   6.673   2.142  1.1948 -1.2450  0.5353
20794SOL    HW264636   0.156   6.709   2.009  0.7212  0.0634  0.6600
20795SOL     OW64637   4.347   6.357   1.874  0.2272  0.0029 -0.1612
20795SOL    HW164638   4.255   6.330   1.876 -0.2326  1.4438  1.5578
20795SOL    HW264639   4.396   6.276   1.887 -0.8859 -0.5930  0.5215
20796SOL     OW64640   0.096   2.147   2.006 -0.1283 -0.6033  0.8290
20796SOL    HW164641   0.001   2.157   2.010 -0.4994 -1.1799 -2.6505
20796SOL    HW264642   0.113   2.060   2.042 -1.5286 -2.1668 -1.9523
20797SOL     OW64643   2.116  10.234   1.081  0.2401  0.0134 -0.0053
20797SOL    HW164644   2.200  10.220   1.037  0.6091  1.4663  0.1688
20797SOL    HW264645   2.105  10.329   1.082 -1.7529 -0.1581 -0.6337
20798SOL     OW64646   7.089   1.357   7.692  0.8008 -0.2625  0.4837
20798SOL    HW164647   7.030   1.379   7.620  1.0290  0.8674  0.6239
20798SOL    HW264648   7.041   1.383   7.771  0.7649 -1.0065  0.7129
20799SOL     OW64649   9.840   9.865   1.945 -0.4903 -0.1170 -0.1200
20799SOL    HW164650   9.785   9.918   1.887  1.5736  1.7919 -0.4885
20799SOL    HW264651   9.867   9.791   1.891 -2.9217 -1.3121  0.1967
20800SOL     OW64652   6.680   4.227   0.891 -0.4317  0.0160  0.0870
20800SOL    HW164653   6.662   4.315   0.925 -0.4440  0.8463 -1.9299
20800SOL    HW264654   6.713   4.241   0.803 -0.8151 -2.0361 -0.4456
20801SOL     OW64655   8.965   4.130   8.472  0.3537 -0.0933 -0.4083
20801SOL    HW164656   9.021   4.110   8.397 -0.0680  0.4470 -0.8788
20801SOL    HW264657   8.994   4.217   8.500 -0.8176  0.5706 -1.2034
20802SOL     OW64658   4.238   0.587   6.525 -0.3153  0.6890 -0.4802
20802SOL    HW164659   4.189   0.511   6.558  1.6927 -1.0376 -1.2424
20802SOL    HW264660   4.260   0.564   6.435  1.3100  1.6539 -0.3667
20803SOL     OW64661   6.643   8.727   8.489  0.0482  0.1165 -0.0429
20803SOL    HW164662   6.693   8.754   8.566 -1.7358 -0.4886  1.4301
20803SOL    HW264663   6.596   8.649   8.518  1.0808 -1.5195 -2.5207
20804SOL     OW64664   8.407   4.865   3.465 -0.7083  0.7484  0.5103
20804SOL    HW164665   8.477   4.930   3.466 -0.8734  0.9167  1.3701
20804SOL    HW264666   8.327   4.915   3.483 -1.2871  0.7987 -1.8275
20805SOL     OW64667   0.063   6.574   8.246  0.1068 -0.3439  0.1273
20805SOL    HW164668   0.072   6.668   8.230 -0.7601 -0.1051  0.9622
20805SOL    HW264669   0.120   6.533   8.181 -0.3511  0.7137 -0.9763
20806SOL     OW64670   8.725   6.738   3.051  0.1760  0.0941 -0.0205
20806SOL    HW164671   8.719   6.765   3.142  0.8813  0.2001 -0.0009
20806SOL    HW264672   8.773   6.656   3.053 -1.5916 -1.0030 -0.1231
20807SOL     OW64673   2.415   8.922  10.063  0.1179  0.0429  0.6802
20807SOL    HW164674   2.415   9.017  10.057 -1.8072  0.0933  0.8119
20807SOL    HW264675   2.493   8.901  10.115  0.6799  1.5097  0.4798
20808SOL     OW64676   6.986   9.215   7.834  0.2897  0.2297  0.0858
20808SOL    HW164677   6.926   9.245   7.765 -1.0240 -1.9134  0.1672
20808SOL    HW264678   6.948   9.249   7.915  1.2405  1.8664 -0.1237
20809SOL     OW64679   7.335   6.660   5.380  0.0019 -0.0938 -0.4176
20809SOL    HW164680   7.330   6.699   5.293  1.0313 -2.0852 -1.4347
20809SOL    HW264681   7.254   6.610   5.389 -0.1695  0.2213 -0.1379
20810SOL     OW64682   4.301   7.482   7.421 -0.7005 -0.0655  0.0339
20810SOL    HW164683   4.336   7.401   7.385  1.2338 -0.1856  1.9687
20810SOL    HW264684   4.316   7.547   7.353 -0.1485 -0.8652 -0.6288
20811SOL     OW64685   5.885   0.377   0.828  0.1488  0.2518  0.4270
20811SOL    HW164686   5.958   0.329   0.868  0.9885  0.7876 -0.3951
20811SOL    HW264687   5.868   0.330   0.746  1.0172  1.3396 -0.4141
20812SOL     OW64688   6.888   7.429   6.824  0.0111  0.0196 -0.1861
20812SOL    HW164689   6.803   7.422   6.781 -1.1540  1.6451  1.6443
20812SOL    HW264690   6.917   7.518   6.806  0.2478  0.2074  1.0279
20813SOL     OW64691  10.125   7.051   0.366  0.0822  0.7746  0.3375
20813SOL    HW164692  10.116   7.065   0.272 -1.1794  0.4737  0.3962
20813SOL    HW264693  10.207   7.003   0.376  0.0695  0.5423 -0.6330
20814SOL     OW64694   7.694   5.015   6.019  0.2356  0.7870 -0.0149
20814SOL    HW164695   7.678   4.943   5.959  0.5013 -0.2908  1.1641
20814SOL    HW264696   7.740   5.080   5.967  0.2964 -0.0334 -1.0173
20815SOL     OW64697   3.955   9.038   5.594 -0.0932 -0.1749 -0.0323
20815SOL    HW164698   3.959   9.000   5.506 -1.0206  0.4705 -0.3676
20815SOL    HW264699   3.881   8.993   5.636  1.5585 -1.9314  1.1501
20816SOL     OW64700   4.020  10.641   5.741  0.3473 -0.7174  0.1818
20816SOL    HW164701   4.028  10.661   5.835 -1.5070  1.6639 -0.0738
20816SOL    HW264702   4.007  10.546   5.738 -2.4709 -0.5530  2.6384
20817SOL     OW64703   1.224   9.239   1.052  0.2720 -0.5804  0.3506
20817SOL    HW164704   1.284   9.258   0.980  2.0206  0.3131  1.9478
20817SOL    HW264705   1.149   9.297   1.037  1.1031  0.3923 -0.1797
20818SOL     OW64706   3.823  10.007   5.036  0.1677  0.4120  0.6586
20818SOL    HW164707   3.855  10.064   4.966 -0.1777 -0.1167  0.0605
20818SOL    HW264708   3.856   9.920   5.013  0.2222  0.2690  1.2624
20819SOL     OW64709   8.218   9.605   3.094  0.2950  0.2633  0.1233
20819SOL    HW164710   8.255   9.572   3.175 -0.5904  0.6138  0.6836
20819SOL    HW264711   8.286   9.589   3.028  0.7707 -0.6010  0.8054
20820SOL     OW64712   8.360   4.114  10.377 -0.0953  0.4070 -0.0477
20820SOL    HW164713   8.370   4.136  10.284 -0.4033 -0.8013 -0.3824
20820SOL    HW264714   8.449   4.108  10.409  0.0202  0.5268 -0.3350
20821SOL     OW64715   3.238   5.375   5.889 -0.3853  0.0376 -0.1783
20821SOL    HW164716   3.173   5.387   5.820  1.3414 -1.7482 -2.2645
20821SOL    HW264717   3.293   5.452   5.884 -0.4976  0.0956 -0.5345
20822SOL     OW64718   5.622   6.489   7.824  0.4372  0.2124  0.0618
20822SOL    HW164719   5.645   6.400   7.850  1.2069  0.2500 -0.4575
20822SOL    HW264720   5.547   6.479   7.766  1.3208 -0.2250 -1.0455
20823SOL     OW64721   4.258   6.022   1.574 -0.1031 -0.2705 -0.1523
20823SOL    HW164722   4.335   6.079   1.583  0.0004 -0.3606 -0.4590
20823SOL    HW264723   4.204   6.043   1.650  0.3546 -0.4015  0.2148
20824SOL     OW64724   9.833   8.706   2.615 -0.3074 -0.4881 -0.1960
20824SOL    HW164725   9.914   8.673   2.575  0.6154  0.1038  1.0807
20824SOL    HW264726   9.841   8.801   2.609 -1.1231 -0.4310 -0.4318
20825SOL     OW64727   9.685   5.520   2.134 -0.0111  0.1903 -0.5199
20825SOL    HW164728   9.746   5.457   2.095  1.7985  0.0318  2.2693
20825SOL    HW264729   9.653   5.572   2.061  0.5927 -2.1410 -2.5672
20826SOL     OW64730   9.974   1.467   2.384  0.3740  0.4495  0.6902
20826SOL    HW164731   9.935   1.547   2.347  0.2068  0.0611  0.0063
20826SOL    HW264732   9.926   1.452   2.465  0.7056  1.2860  1.0494
20827SOL     OW64733   8.622   2.198  10.095  0.0422 -0.1677 -0.0319
20827SOL    HW164734   8.650   2.207  10.004 -3.2421 -0.8787 -1.2621
20827SOL    HW264735   8.535   2.237  10.097 -0.9060 -2.1516  2.2677
20828SOL     OW64736   9.452   7.674   9.209  0.2892 -0.0815  0.0327
20828SOL    HW164737   9.383   7.657   9.145  0.1279 -0.9648  0.4345
20828SOL    HW264738   9.508   7.596   9.205  1.5500  0.8179 -0.6337
20829SOL     OW64739   0.505   0.908   8.428  0.6223  0.6054 -0.3115
20829SOL    HW164740   0.518   0.842   8.496 -0.6413 -0.3590 -0.9617
20829SOL    HW264741   0.417   0.941   8.442  1.4518  2.6533  0.3710
20830SOL     OW64742   4.954  10.582  10.520  0.1495  0.6375  1.3630
20830SOL    HW164743   5.046  10.592  10.497  0.0485 -0.4116  0.3744
20830SOL    HW264744   4.933  10.658  10.574  1.6440  0.7707  1.7833
20831SOL     OW64745   8.264   0.942   1.550  0.5055 -0.0629  0.3518
20831SOL    HW164746   8.225   0.896   1.475 -0.9704 -1.5825  1.9750
20831SOL    HW264747   8.351   0.902   1.560  0.5843 -0.0772 -0.3093
20832SOL     OW64748   9.989   4.916   5.084  0.2512  0.4684  0.3174
20832SOL    HW164749   9.986   4.969   5.163 -1.9795  1.2205 -0.2214
20832SOL    HW264750   9.986   4.826   5.115 -0.0200  0.7443  1.1094
20833SOL     OW64751  10.320   9.975   7.215  0.0156  0.1975 -0.4207
20833SOL    HW164752  10.293   9.904   7.157 -0.9587 -0.0937  0.3631
20833SOL    HW264753  10.404  10.004   7.180  0.2667 -1.1121 -0.9466
20834SOL     OW64754   9.848   5.825   8.999  0.3207 -0.1754  0.0171
20834SOL    HW164755   9.755   5.846   8.997  0.5837  1.0186 -0.9811
20834SOL    HW264756   9.880   5.865   9.080 -0.4318 -2.6532  1.6556
20835SOL     OW64757   9.804   7.271   6.531  0.8636 -0.1950  0.0924
20835SOL    HW164758   9.760   7.356   6.523 -0.8937 -1.1515 -1.1020
20835SOL    HW264759   9.752   7.222   6.595  0.2092 -1.3077 -1.2443
20836SOL     OW64760   0.441   5.586   8.920  0.0149  0.5222  0.3138
20836SOL    HW164761   0.422   5.572   9.013 -0.0588  0.2174  0.2528
20836SOL    HW264762   0.419   5.504   8.878 -1.7871  1.2694 -0.2712
20837SOL     OW64763   2.882   8.295   4.124 -0.5112  0.4057  0.2339
20837SOL    HW164764   2.842   8.233   4.063  0.1098 -0.0307  0.2631
20837SOL    HW264765   2.845   8.380   4.099 -0.5966  0.1709 -0.4670
20838SOL     OW64766   3.122   3.221   2.327  0.1974 -0.3421 -0.0043
20838SOL    HW164767   3.194   3.274   2.363 -0.0797  0.3153 -0.3917
20838SOL    HW264768   3.044   3.250   2.375 -0.1700  0.5154 -1.0761
20839SOL     OW64769   9.943   0.625   3.839  0.7191 -0.4672 -0.1620
20839SOL    HW164770   9.924   0.570   3.915  0.1855  0.2422  0.2306
20839SOL    HW264771  10.009   0.575   3.789  1.3403 -0.7766  0.9387
20840SOL     OW64772   8.088   8.476   2.444  0.2456  0.2478  0.1987
20840SOL    HW164773   8.013   8.522   2.408  1.4910  1.4866 -0.9272
20840SOL    HW264774   8.101   8.515   2.530 -0.6505 -0.2951  0.5938
20841SOL     OW64775   1.783   8.347   0.356 -0.2947 -0.2457 -0.4294
20841SOL    HW164776   1.737   8.268   0.385  1.1012 -1.0694 -0.3763
20841SOL    HW264777   1.738   8.371   0.275 -2.5344  0.5666  0.9433
20842SOL     OW64778   1.459   0.395   9.596 -0.2879  0.2439 -0.3251
20842SOL    HW164779   1.374   0.373   9.633 -0.3031  0.9037  0.0442
20842SOL    HW264780   1.521   0.344   9.649 -0.4413 -0.1598 -0.5306
20843SOL     OW64781   5.566   6.038   4.922 -0.1989 -0.1712  0.5218
20843SOL    HW164782   5.480   6.019   4.885 -0.8778  0.8244  1.5116
20843SOL    HW264783   5.624   6.045   4.846 -1.4813  1.5418 -0.3805
20844SOL     OW64784   0.920  10.115   0.954  0.8590 -0.4464 -0.2205
20844SOL    HW164785   0.835  10.095   0.915 -1.0492  0.7683  2.9134
20844SOL    HW264786   0.983  10.066   0.902 -1.6249 -0.7369 -3.2155
20845SOL     OW64787   4.127   2.895   0.122  0.0719  0.2432  0.0013
20845SOL    HW164788   4.145   2.862   0.210 -2.0316  0.4061  0.5360
20845SOL    HW264789   4.179   2.839   0.065  1.6149  0.2423  1.3261
20846SOL     OW64790   1.713   4.556   2.018  0.2632 -0.1844  0.2959
20846SOL    HW164791   1.775   4.485   2.036 -0.0026 -0.5946 -0.3382
20846SOL    HW264792   1.745   4.594   1.936 -0.4813 -0.5866 -0.1887
20847SOL     OW64793   2.165   0.596   4.096  0.1293 -0.0319  0.3210
20847SOL    HW164794   2.110   0.570   4.021  0.5140  1.8333 -0.6698
20847SOL    HW264795   2.130   0.681   4.122  2.3808  1.1037 -0.1925
20848SOL     OW64796   9.133   5.477   1.709  0.2581  0.4255 -0.1351
20848SOL    HW164797   9.151   5.558   1.661 -0.6007  0.9622  0.4305
20848SOL    HW264798   9.106   5.415   1.641 -2.0586  1.4932 -0.2841
20849SOL     OW64799   3.646   8.130   6.962 -0.9311 -0.0988 -0.4402
20849SOL    HW164800   3.740   8.115   6.968 -0.8934  0.5533  1.3025
20849SOL    HW264801   3.632   8.164   6.874  0.1932 -1.8288 -1.3334
20850SOL     OW64802   7.767   0.491   5.678 -0.5082  0.1018 -0.2541
20850SOL    HW164803   7.701   0.530   5.735 -0.6422 -2.5157  1.5819
20850SOL    HW264804   7.717   0.444   5.611 -0.3971  0.8849 -0.9040
20851SOL     OW64805   3.204   9.474   9.295  0.0538 -0.1450  0.0458
20851SOL    HW164806   3.275   9.461   9.232  0.7677  0.7174  0.6465
20851SOL    HW264807   3.171   9.562   9.277 -0.6192 -0.3973  0.0180
20852SOL     OW64808   8.574   7.699  10.585  0.3652 -0.1069 -0.1617
20852SOL    HW164809   8.532   7.626  10.631 -1.1282  0.2462 -0.9075
20852SOL    HW264810   8.566   7.773  10.644 -0.2104 -0.0055 -0.3630
20853SOL     OW64811   1.789   2.456  10.417  0.4180 -0.2614 -0.1370
20853SOL    HW164812   1.885   2.451  10.422  0.4818  0.7175 -0.2421
20853SOL    HW264813   1.771   2.467  10.323  0.0120 -3.5315 -0.5548
20854SOL     OW64814   4.690   4.860   4.906 -0.7247 -0.1475  0.6615
20854SOL    HW164815   4.601   4.885   4.884 -0.8497 -1.6428 -0.7531
20854SOL    HW264816   4.741   4.881   4.827 -0.2654 -1.3085  0.6243
20855SOL     OW64817   5.752   2.133   0.135  0.1883 -0.2252 -0.0758
20855SOL    HW164818   5.766   2.123   0.229 -1.1641  0.1086  0.1825
20855SOL    HW264819   5.709   2.051   0.108  0.2598 -0.1785 -0.3369
20856SOL     OW64820   3.595   7.827   5.197 -0.6359  0.1888  0.1617
20856SOL    HW164821   3.504   7.802   5.185 -0.9052  1.2672 -0.1930
20856SOL    HW264822   3.596   7.875   5.280 -0.4661  0.5106 -0.0242
20857SOL     OW64823   5.368   7.018   5.299  0.9621  0.2885  0.2359
20857SOL    HW164824   5.327   7.025   5.385 -1.1855  3.4559 -0.8576
20857SOL    HW264825   5.320   6.947   5.256  0.7964 -0.0793  1.0030
20858SOL     OW64826   6.394   3.989   4.265  0.5912  0.1620  0.1592
20858SOL    HW164827   6.406   3.947   4.350 -0.5243  0.1419  0.3276
20858SOL    HW264828   6.319   3.944   4.226  1.3867 -0.1541 -1.0512
20859SOL     OW64829   1.931   9.373   2.168 -0.0717  0.7278  0.4227
20859SOL    HW164830   1.859   9.340   2.221  0.0133 -0.1254  0.0131
20859SOL    HW264831   2.006   9.375   2.228 -0.2256  0.7901  0.6150
20860SOL     OW64832   9.541   7.541   7.576 -0.5662 -0.1888 -0.1093
20860SOL    HW164833   9.466   7.483   7.559 -1.1421  0.6925 -0.6600
20860SOL    HW264834   9.560   7.529   7.669 -0.7893 -1.1215 -0.1716
20861SOL     OW64835   9.386   5.928   7.735 -0.0956 -0.1850  0.6107
20861SOL    HW164836   9.295   5.947   7.712 -0.0309 -1.2232 -0.6372
20861SOL    HW264837   9.432   5.931   7.651  1.0863  0.6555  1.2814
20862SOL     OW64838   4.302   8.295   2.618  0.0560 -0.6977 -0.3337
20862SOL    HW164839   4.327   8.373   2.569  0.4609 -1.1039 -0.7766
20862SOL    HW264840   4.375   8.234   2.606  0.1619 -0.8031  0.7791
20863SOL     OW64841   5.645   4.752   7.971  0.2043 -0.2928  0.0715
20863SOL    HW164842   5.717   4.783   8.027  0.9384 -0.7891 -0.5694
20863SOL    HW264843   5.686   4.738   7.885 -0.1486 -2.5965  0.2068
20864SOL     OW64844   1.582   5.313   7.248  0.1759 -0.0093  0.2959
20864SOL    HW164845   1.655   5.362   7.286  0.0433  0.7438 -0.3992
20864SOL    HW264846   1.610   5.297   7.157  1.5000 -3.7123  1.1653
20865SOL     OW64847   7.091   3.938   4.581  0.1750 -0.2922 -0.4952
20865SOL    HW164848   7.115   3.854   4.540 -0.4971 -0.5074 -0.4562
20865SOL    HW264849   7.000   3.953   4.554  0.1906  0.2736 -0.2493
20866SOL     OW64850   6.604   0.706   7.396  0.5574  0.2803  0.7273
20866SOL    HW164851   6.514   0.703   7.363  1.4478  1.0851 -2.0331
20866SOL    HW264852   6.617   0.797   7.423  1.1487  0.7009 -0.8880
20867SOL     OW64853   3.174   2.127   9.012  0.1046 -0.2792  0.2538
20867SOL    HW164854   3.146   2.218   9.002 -2.8789 -0.9865  1.0829
20867SOL    HW264855   3.252   2.120   8.957  0.8369  2.8996  0.6884
20868SOL     OW64856   9.380   6.806   7.482  0.9401  0.8093  0.3372
20868SOL    HW164857   9.309   6.827   7.543  0.6746  1.9133 -0.3236
20868SOL    HW264858   9.460   6.810   7.535  0.5547 -0.0852  1.0079
20869SOL     OW64859   6.080   0.881   7.985  0.2132  0.2730  0.2284
20869SOL    HW164860   6.071   0.789   8.010  1.1861  0.0503 -0.1978
20869SOL    HW264861   6.153   0.883   7.924  1.0546  1.4932  1.2033
20870SOL     OW64862   5.451   0.408   5.731  0.0456  0.4707  0.1322
20870SOL    HW164863   5.527   0.393   5.787 -1.2396 -2.4547  1.2777
20870SOL    HW264864   5.488   0.430   5.646  2.1110  1.0642  1.1161
20871SOL     OW64865   5.248   8.392   3.543  0.4929 -0.1465 -0.1904
20871SOL    HW164866   5.305   8.464   3.571 -0.1320  0.5103 -0.5911
20871SOL    HW264867   5.288   8.314   3.583 -0.2041  0.7074  2.3775
20872SOL     OW64868   1.469   6.132   3.763 -0.3329  0.1919 -0.0567
20872SOL    HW164869   1.476   6.040   3.738  1.2676  0.1414  0.4839
20872SOL    HW264870   1.385   6.161   3.726 -1.5153 -1.8249  0.9046
20873SOL     OW64871   4.195   2.291   8.663  0.3730  0.1379 -0.3428
20873SOL    HW164872   4.249   2.271   8.587  0.3621 -2.2910  0.2187
20873SOL    HW264873   4.248   2.267   8.739 -0.8152 -0.6172  0.2857
20874SOL     OW64874   4.565   3.412   9.139  0.6771  1.0138  0.0071
20874SOL    HW164875   4.580   3.507   9.135 -4.7787  2.1538 -0.7223
20874SOL    HW264876   4.520   3.398   9.222 -0.6880 -0.5157 -0.9453
20875SOL     OW64877  10.126   3.950   8.122 -0.2572 -0.5157  0.6127
20875SOL    HW164878  10.106   3.926   8.212  2.5901  0.3331  1.5554
20875SOL    HW264879  10.146   4.044   8.126  0.2323 -0.5309 -0.8421
20876SOL     OW64880   1.148   0.349   3.507  0.0309  0.2720 -0.1341
20876SOL    HW164881   1.064   0.314   3.478  0.4116  0.2415 -1.2393
20876SOL    HW264882   1.210   0.278   3.493  0.4966  0.7864 -0.7182
20877SOL     OW64883   3.785   0.793   8.374  0.0259  0.6310  0.5967
20877SOL    HW164884   3.874   0.821   8.353  0.1947 -0.8834 -0.9884
20877SOL    HW264885   3.732   0.871   8.362  0.9445  1.1843 -0.0068
20878SOL     OW64886   3.509   2.065   0.518  0.5311 -0.2141  0.1608
20878SOL    HW164887   3.602   2.084   0.504  0.2188  0.9853 -0.4145
20878SOL    HW264888   3.468   2.151   0.523 -0.9572 -0.6910 -2.4122
20879SOL     OW64889   2.271   4.222   1.718 -0.3366  0.3034  0.2452
20879SOL    HW164890   2.330   4.163   1.765  0.0231  1.3100  1.1118
20879SOL    HW264891   2.188   4.216   1.766 -0.8418 -0.8174 -0.7381
20880SOL     OW64892   2.462   3.227   2.038  0.1569 -0.6194 -0.6782
20880SOL    HW164893   2.476   3.294   1.971  1.5345 -1.3401 -1.1514
20880SOL    HW264894   2.489   3.146   1.996  1.3873 -1.0488  0.8264
20881SOL     OW64895   5.636   9.519   1.873 -0.1447  0.4148 -0.3149
20881SOL    HW164896   5.715   9.528   1.821 -0.4916  0.3823 -0.8570
20881SOL    HW264897   5.663   9.467   1.949  0.2522  0.0036 -0.7295
20882SOL     OW64898   8.241   6.531  10.416 -0.6869 -0.0149  0.1089
20882SOL    HW164899   8.199   6.481  10.485 -2.4946  0.9274 -0.2565
20882SOL    HW264900   8.285   6.603  10.461 -0.0223 -0.5992  0.4250
20883SOL     OW64901   5.985   2.654   6.493 -0.4692  0.1558  0.6671
20883SOL    HW164902   6.021   2.590   6.432  0.8840  0.0352  1.5629
20883SOL    HW264903   6.038   2.732   6.479 -1.8345  0.9911 -0.1155
20884SOL     OW64904   5.748   6.115   4.721  0.2893 -0.3907 -0.1981
20884SOL    HW164905   5.821   6.057   4.698 -0.3789 -1.1230 -0.5410
20884SOL    HW264906   5.734   6.169   4.644  1.4262  0.8041  0.4052
20885SOL     OW64907   1.142   1.318   9.414  0.3467 -0.7491 -0.1925
20885SOL    HW164908   1.094   1.245   9.452 -1.3568  0.4733  0.1352
20885SOL    HW264909   1.219   1.328   9.470 -0.9002 -0.4897  1.5650
20886SOL     OW64910   0.573   4.046   3.724  0.2657  0.2353 -0.6405
20886SOL    HW164911   0.643   4.032   3.788 -0.6742  0.3911  0.4621
20886SOL    HW264912   0.560   3.960   3.683 -0.0088 -0.2094  0.3389
20887SOL     OW64913   3.682   5.119   2.118 -0.1777 -0.4188  0.3497
20887SOL    HW164914   3.772   5.091   2.133 -0.4777 -2.2900 -0.9371
20887SOL    HW264915   3.683   5.160   2.031 -0.5591 -0.4545  0.3261
20888SOL     OW64916   4.738   1.593   5.224 -0.4443  0.7671 -0.0736
20888SOL    HW164917   4.795   1.633   5.289 -1.0121 -0.4376  1.2178
20888SOL    HW264918   4.762   1.635   5.141  1.6068  0.9815  0.5891
20889SOL     OW64919   0.491   2.965   2.084  0.0331  0.2144 -0.4873
20889SOL    HW164920   0.442   2.987   2.005  1.5560 -0.0773 -1.5651
20889SOL    HW264921   0.428   2.920   2.139 -1.3471  1.3293 -1.0742
20890SOL     OW64922   9.569   6.275   7.049 -0.4333  0.4665 -0.5870
20890SOL    HW164923   9.573   6.333   6.973 -1.9095 -0.1996 -1.2140
20890SOL    HW264924   9.537   6.332   7.120  0.0412  0.8701 -0.6917
20891SOL     OW64925   8.905   1.985   5.440 -0.8219 -0.0786  0.4936
20891SOL    HW164926   8.983   1.984   5.384 -1.0042 -0.1056  0.2385
20891SOL    HW264927   8.932   2.034   5.518 -0.3612 -0.6381  0.6910
20892SOL     OW64928   7.107   3.744   9.953 -0.2762 -0.5689 -0.1301
20892SOL    HW164929   7.157   3.730   9.873 -0.4065  0.5511 -0.4268
20892SOL    HW264930   7.059   3.826   9.938  3.3588  2.4671  2.7863
20893SOL     OW64931   0.173   7.544   3.066  0.3199 -0.2244 -0.1992
20893SOL    HW164932   0.154   7.450   3.076 -0.8938 -0.0004 -0.2778
20893SOL    HW264933   0.267   7.551   3.084  0.1349 -1.2442  1.3885
20894SOL     OW64934   7.247   7.845   2.567  0.3572 -0.1030  0.5815
20894SOL    HW164935   7.213   7.771   2.516  0.8767  0.0267  0.0355
20894SOL    HW264936   7.244   7.814   2.658 -1.3404 -0.0362  0.5795
20895SOL     OW64937   7.776   9.229   5.310 -0.1033  0.2785  0.0614
20895SOL    HW164938   7.701   9.252   5.364 -0.4529  0.6522 -0.5770
20895SOL    HW264939   7.742   9.169   5.244  0.2238  0.1832 -0.0255
20896SOL     OW64940   9.785   0.842   4.628 -0.0245  0.4076 -0.4772
20896SOL    HW164941   9.753   0.897   4.557 -0.2890  1.7207  0.6122
20896SOL    HW264942   9.709   0.831   4.686 -0.3774 -2.2762 -1.3119
20897SOL     OW64943   7.469   3.574   9.501  0.3589  0.5076 -0.5043
20897SOL    HW164944   7.559   3.598   9.481  0.0895  0.3114 -2.0736
20897SOL    HW264945   7.476   3.489   9.545  0.9874  0.9588  0.2893
20898SOL     OW64946   0.300   2.603   3.525  0.2643 -0.4170 -0.3357
20898SOL    HW164947   0.224   2.661   3.528  0.0635 -0.6637 -0.5810
20898SOL    HW264948   0.351   2.636   3.451  0.6423  0.0453  0.1218
20899SOL     OW64949   2.934   4.312   5.043 -0.3902 -0.1622  0.9126
20899SOL    HW164950   2.942   4.309   5.139 -0.8530  1.0054  0.9989
20899SOL    HW264951   2.841   4.326   5.027 -0.0567  1.6786  0.3664
20900SOL     OW64952  10.348   2.560   1.511 -0.0090  0.0414 -0.1448
20900SOL    HW164953  10.443   2.554   1.497 -0.0540  0.7791 -0.7999
20900SOL    HW264954  10.335   2.642   1.558 -0.2775 -0.3496  0.4837
20901SOL     OW64955   9.565   8.057   0.868 -0.1407  0.2112  0.2214
20901SOL    HW164956   9.479   8.099   0.863  0.1057  0.6346 -0.6911
20901SOL    HW264957   9.551   7.982   0.925 -1.2194  0.0433 -0.2354
20902SOL     OW64958   1.315   2.443   6.629  0.2103  0.0713 -0.1073
20902SOL    HW164959   1.309   2.413   6.538  0.8168  1.5741 -0.6736
20902SOL    HW264960   1.270   2.528   6.629  0.1498  0.0493  1.0163
20903SOL     OW64961   5.620  10.476   8.506  0.4768  0.0895 -0.1191
20903SOL    HW164962   5.710  10.476   8.537  0.1715  1.3977  0.8470
20903SOL    HW264963   5.627  10.454   8.413  1.9505  1.6482 -0.4295
20904SOL     OW64964   6.906   7.052   9.899  0.0657 -0.1369  0.5537
20904SOL    HW164965   6.941   7.096   9.977  0.7389 -1.5889  1.1029
20904SOL    HW264966   6.866   7.122   9.848  0.1646  0.9444  1.9063
20905SOL     OW64967   0.682  10.617   9.026  0.2937  0.0835  0.3294
20905SOL    HW164968   0.655  10.527   9.005 -1.3545  0.2905  1.4328
20905SOL    HW264969   0.752  10.606   9.090 -0.2454 -0.4151  0.8449
20906SOL     OW64970   1.035   5.354   4.543  0.5075  0.8348 -0.0526
20906SOL    HW164971   1.065   5.269   4.573  1.7570  1.0015 -0.7801
20906SOL    HW264972   1.043   5.411   4.619  2.4945  0.9682 -0.3037
20907SOL     OW64973   1.380   0.706   5.802  0.2380  0.2337  0.2125
20907SOL    HW164974   1.469   0.736   5.788  0.1951  0.5385  0.5705
20907SOL    HW264975   1.351   0.675   5.716  1.2300 -1.3737  0.4251
20908SOL     OW64976   3.873   4.062   7.404  0.2102 -0.0234  0.1397
20908SOL    HW164977   3.782   4.070   7.433  0.0496 -1.6846  0.2015
20908SOL    HW264978   3.923   4.047   7.485  0.2088 -1.3342 -0.0723
20909SOL     OW64979   2.952   0.119   8.544 -0.4355 -0.2331  0.3956
20909SOL    HW164980   2.898   0.195   8.564 -0.4895 -0.6017  1.7389
20909SOL    HW264981   3.041   0.153   8.544 -0.6170  0.3263 -1.5785
20910SOL     OW64982   8.750   7.462   9.706 -0.0690  1.1447  0.2671
20910SOL    HW164983   8.704   7.383   9.735  1.2855  0.2708  0.1282
20910SOL    HW264984   8.694   7.534   9.737 -1.1186  0.1584  0.7779
20911SOL     OW64985  10.556   9.967   4.537 -0.8436  0.0419  0.4602
20911SOL    HW164986  10.594   9.971   4.449 -1.2704  1.4761  0.3282
20911SOL    HW264987  10.628   9.936   4.592  0.5434  2.5128  0.1813
20912SOL     OW64988   1.591   9.082   2.851  0.3423  0.7555 -0.5387
20912SOL    HW164989   1.684   9.067   2.871  0.2187 -0.2414 -0.6613
20912SOL    HW264990   1.569   9.161   2.900  0.6903 -0.2318  1.3410
20913SOL     OW64991   7.439   1.065   0.618  0.2233  0.0837  0.3263
20913SOL    HW164992   7.426   1.123   0.693  1.3831 -0.1098  0.6982
20913SOL    HW264993   7.359   1.013   0.614 -1.3414  2.4042 -0.6833
20914SOL     OW64994   4.340   4.374   6.182  0.3290  0.6742 -0.2269
20914SOL    HW164995   4.434   4.389   6.177  0.5046 -0.2879  0.1061
20914SOL    HW264996   4.308   4.394   6.094  1.2225 -1.4358 -1.0970
20915SOL     OW64997   1.483   2.579   5.285  0.2250  0.3199  0.7737
20915SOL    HW164998   1.566   2.618   5.256 -0.5291 -0.8453 -3.6554
20915SOL    HW264999   1.492   2.486   5.266 -1.8940  0.0706  0.8250
20916SOL     OW65000   2.886   4.021   2.877  0.1179  0.4644 -0.0564
20916SOL    HW165001   2.874   3.961   2.803  1.9978 -1.3579  1.0062
20916SOL    HW265002   2.963   4.073   2.852 -0.2752  1.0286 -0.0984
20917SOL     OW65003   4.828   4.997   6.940  0.7945 -0.1586  0.1454
20917SOL    HW165004   4.797   5.060   7.005  1.1406  0.5895 -0.4007
20917SOL    HW265005   4.782   5.021   6.859  0.6513 -0.8430  0.0155
20918SOL     OW65006   5.809   2.874   6.055  0.0616 -0.1261 -0.4421
20918SOL    HW165007   5.820   2.846   5.964 -0.3256 -1.5008 -0.0831
20918SOL    HW265008   5.715   2.861   6.073  0.7603 -4.1768  1.4452
20919SOL     OW65009   3.022   6.212   2.758 -0.4341  0.0287  0.1117
20919SOL    HW165010   3.071   6.226   2.839 -0.1500  0.5968 -0.1446
20919SOL    HW265011   3.009   6.301   2.723 -1.0335 -0.1716 -0.1847
20920SOL     OW65012   5.754   9.299  10.144 -0.2725 -0.0782  0.3287
20920SOL    HW165013   5.719   9.379  10.183 -1.7348 -0.1188 -0.8027
20920SOL    HW265014   5.777   9.325  10.055  1.8621 -0.2806  0.7593
20921SOL     OW65015   0.579   3.377  10.516 -0.2590  0.0137  0.1503
20921SOL    HW165016   0.538   3.353  10.433  0.5014 -1.6500  0.1956
20921SOL    HW265017   0.522   3.339  10.583 -0.2421  0.3166  0.3383
20922SOL     OW65018   2.614   8.977   5.154 -0.1188  0.1612 -0.5131
20922SOL    HW165019   2.571   8.892   5.146  0.0747  0.0808 -0.7022
20922SOL    HW265020   2.564   9.023   5.221  0.1060 -0.3125 -0.0111
20923SOL     OW65021  10.066   0.363  10.513  0.0687 -0.6545 -0.1821
20923SOL    HW165022  10.114   0.443  10.492 -2.9117  1.8857  1.8400
20923SOL    HW265023  10.108   0.330  10.593  1.5534 -1.4659 -1.2345
20924SOL     OW65024   3.791   9.244   3.246 -0.1094 -0.2621 -0.3179
20924SOL    HW165025   3.699   9.226   3.224 -0.5782  0.3959  0.9954
20924SOL    HW265026   3.831   9.158   3.254 -0.7679 -0.5741 -0.3076
20925SOL     OW65027   3.249   2.115   9.765  0.2163  0.5337 -0.1913
20925SOL    HW165028   3.264   2.131   9.672  0.4769  1.0765 -0.0597
20925SOL    HW265029   3.154   2.121   9.776  0.0864 -0.6030 -0.6127
20926SOL     OW65030   2.140   6.424   5.519 -0.2829 -0.8714  0.2298
20926SOL    HW165031   2.088   6.504   5.508  0.3485 -0.3159  1.1613
20926SOL    HW265032   2.109   6.387   5.602  0.8229 -0.5210  0.8054
20927SOL     OW65033   8.100   8.148   4.125  0.5683  0.5091  0.0591
20927SOL    HW165034   8.077   8.107   4.208  1.4115  2.4066  1.3027
20927SOL    HW265035   8.024   8.203   4.104 -0.5182 -1.4887 -1.5462
20928SOL     OW65036   4.893   1.958   8.745  0.3796 -0.4514 -0.2524
20928SOL    HW165037   4.856   1.871   8.762 -3.5332  0.9211 -0.6530
20928SOL    HW265038   4.909   1.995   8.831 -2.5280  0.0493  0.1757
20929SOL     OW65039   5.782   0.740  10.107 -0.4119 -0.1896  0.2665
20929SOL    HW165040   5.838   0.663  10.109 -0.6347 -0.3414  0.7734
20929SOL    HW265041   5.832   0.805  10.058  0.3787 -0.1855  1.0574
20930SOL     OW65042   2.919   0.364   8.300 -0.6134 -0.8474  0.3423
20930SOL    HW165043   2.861   0.433   8.335 -1.1281 -1.0434 -0.1046
20930SOL    HW265044   2.862   0.312   8.244  0.7375  1.1205 -3.1702
20931SOL     OW65045   2.977   8.361   1.472 -0.4000  0.0222 -0.1968
20931SOL    HW165046   2.930   8.369   1.389 -1.0311  2.9994  0.3553
20931SOL    HW265047   2.929   8.416   1.533  1.3630 -0.2553  1.5589
20932SOL     OW65048   6.309   8.786   1.509  0.7237  0.0138 -0.0120
20932SOL    HW165049   6.275   8.749   1.427  2.0755  0.8857 -1.0155
20932SOL    HW265050   6.231   8.810   1.559 -0.1802 -2.7901  0.0668
20933SOL     OW65051   1.368   5.913   0.983  0.3581  0.2103  0.3111
20933SOL    HW165052   1.350   5.932   0.891 -0.3244  1.4387  0.6779
20933SOL    HW265053   1.419   5.987   1.014  1.3498 -0.6123  0.7217
20934SOL     OW65054   1.723  10.570   2.958 -0.4155  0.1085 -0.9500
20934SOL    HW165055   1.649  10.538   3.009 -1.2300  1.8055 -1.0088
20934SOL    HW265056   1.735  10.660   2.987 -0.4369  0.8961 -3.2038
20935SOL     OW65057   3.170   6.181   9.196  0.7289 -0.2656 -0.3038
20935SOL    HW165058   3.083   6.189   9.156  0.1900  1.2057  1.0501
20935SOL    HW265059   3.197   6.272   9.212  2.4771 -0.6987 -0.5633
20936SOL     OW65060   5.888   8.542  10.458 -0.0585 -0.3734 -0.6259
20936SOL    HW165061   5.957   8.563  10.521 -1.8398  0.3705  1.2097
20936SOL    HW265062   5.883   8.619  10.401 -0.1899  0.1349  0.0513
20937SOL     OW65063   3.607   2.847  10.556 -0.2199  0.5572 -0.0156
20937SOL    HW165064   3.567   2.906  10.620  1.3806  1.7669 -0.0731
20937SOL    HW265065   3.554   2.858  10.477 -0.1921  1.6152  0.0981
20938SOL     OW65066   5.542   6.796   4.794 -0.6597  0.5285  0.0160
20938SOL    HW165067   5.566   6.709   4.762  0.9576  0.4093  1.3956
20938SOL    HW265068   5.595   6.856   4.740 -0.2136  0.5130  0.4288
20939SOL     OW65069   1.125   8.437   9.746  0.1806  0.1267  0.3688
20939SOL    HW165070   1.139   8.452   9.653 -1.0084  0.7499  0.2798
20939SOL    HW265071   1.196   8.377   9.771  0.7457  0.2576 -0.8367
20940SOL     OW65072   2.258   8.107   5.345  0.3993  0.4701  0.0687
20940SOL    HW165073   2.223   8.066   5.424  0.5153 -1.3394 -0.7612
20940SOL    HW265074   2.181   8.145   5.302  0.1933  0.6221  0.5695
20941SOL     OW65075  10.481   7.769   4.088  0.2121 -0.0176  0.5432
20941SOL    HW165076  10.553   7.713   4.059  1.8946  2.5762 -0.7079
20941SOL    HW265077  10.416   7.764   4.017  1.6308  1.6508 -0.9935
20942SOL     OW65078   0.349   1.823   8.265  0.1357  0.3588  0.1990
20942SOL    HW165079   0.401   1.884   8.317  0.0292  2.7658 -2.2899
20942SOL    HW265080   0.258   1.843   8.288  0.0161  2.3562 -1.6602
20943SOL     OW65081   6.598   8.428   9.489 -0.2995 -0.2194  0.1717
20943SOL    HW165082   6.638   8.411   9.574 -0.6746 -0.3726  0.3235
20943SOL    HW265083   6.552   8.511   9.501  1.5191  0.9495 -0.5669
20944SOL     OW65084   7.387   3.019   3.958 -0.2690 -0.2361  0.2252
20944SOL    HW165085   7.313   3.044   3.902  1.7868 -0.3376 -2.7415
20944SOL    HW265086   7.440   3.098   3.964  0.9017 -0.9601 -0.2765
20945SOL     OW65087   6.656   3.128   7.196 -0.2411  0.3933 -0.1807
20945SOL    HW165088   6.602   3.095   7.125  1.9725 -0.5693 -1.5037
20945SOL    HW265089   6.611   3.099   7.276 -0.7306 -2.0022 -1.2420
20946SOL     OW65090   5.440   4.049   5.383  0.3497  0.4545  0.0197
20946SOL    HW165091   5.355   4.086   5.359 -0.7539 -1.1784  1.1720
20946SOL    HW265092   5.454   3.978   5.321  0.3458  0.0231  0.5103
20947SOL     OW65093   4.324   5.515   3.623 -0.7575  0.1563  0.1173
20947SOL    HW165094   4.406   5.533   3.577 -0.2311 -0.9636  0.5638
20947SOL    HW265095   4.336   5.557   3.709 -1.1303  0.9687 -0.2192
20948SOL     OW65096   2.817   2.680   7.572  0.5314 -0.7522 -0.3715
20948SOL    HW165097   2.759   2.615   7.611  0.3442 -0.7885 -0.7082
20948SOL    HW265098   2.814   2.662   7.478  0.9682 -0.6594 -0.4088
20949SOL     OW65099   8.851   5.172   3.620  0.0446 -0.0375 -0.1361
20949SOL    HW165100   8.883   5.196   3.533 -1.2674  0.8623 -0.4015
20949SOL    HW265101   8.928   5.140   3.666  1.0060  0.6079 -1.2400
20950SOL     OW65102   8.617   0.092   2.914 -0.6971 -0.3370 -0.4722
20950SOL    HW165103   8.591   0.096   3.006 -1.2019  0.6972 -0.6378
20950SOL    HW265104   8.565   0.021   2.877 -0.7157 -0.5577 -0.0247
20951SOL     OW65105   4.995   5.288   3.123 -0.2556  0.1574  0.3040
20951SOL    HW165106   4.922   5.231   3.100 -0.7382  0.9335 -0.1163
20951SOL    HW265107   5.002   5.282   3.218  0.2582 -1.2611  0.2110
20952SOL     OW65108   7.786   8.148   2.811 -0.1981  0.1931 -0.1219
20952SOL    HW165109   7.761   8.086   2.743 -1.5616  1.5834 -0.9633
20952SOL    HW265110   7.789   8.096   2.891 -0.6310 -1.0884 -0.9043
20953SOL     OW65111   9.102   8.336   8.609  0.1269  0.6212 -0.0052
20953SOL    HW165112   9.048   8.335   8.529  0.1793  1.0574 -0.0507
20953SOL    HW265113   9.048   8.294   8.675 -0.6273  1.7929  0.1611
20954SOL     OW65114   0.429   6.893   3.784 -0.1650  0.1628  0.3166
20954SOL    HW165115   0.460   6.889   3.694  1.0889 -1.0829  0.7640
20954SOL    HW265116   0.341   6.856   3.781 -0.4106  0.7945 -0.4984
20955SOL     OW65117   6.946   7.656   8.066 -0.0072 -0.2580  0.2572
20955SOL    HW165118   6.953   7.623   7.976 -1.6856 -2.2572  0.7714
20955SOL    HW265119   7.031   7.635   8.106  1.4362  2.2461 -1.2595
20956SOL     OW65120   3.832   6.861   8.077 -0.0390  0.5331  0.0401
20956SOL    HW165121   3.838   6.944   8.124  0.9416  0.7204 -0.3885
20956SOL    HW265122   3.919   6.850   8.038 -0.1375 -0.7251  0.1460
20957SOL     OW65123   7.881   3.143   3.511 -0.7314 -0.0665 -0.0294
20957SOL    HW165124   7.851   3.203   3.443  2.3639  0.2670 -1.2738
20957SOL    HW265125   7.892   3.198   3.589  0.0366  0.5614 -0.5636
20958SOL     OW65126   7.724   7.292   3.167 -0.0658  0.1034  1.2522
20958SOL    HW165127   7.651   7.234   3.189  0.0685 -0.7417 -0.3788
20958SOL    HW265128   7.710   7.314   3.075  0.6606  1.5636  1.4658
20959SOL     OW65129   0.762   7.769   1.490  0.1193  0.2153  0.5307
20959SOL    HW165130   0.731   7.840   1.434 -1.5355 -0.7452  0.1462
20959SOL    HW265131   0.690   7.755   1.552 -0.5331 -2.3979 -0.6501
20960SOL     OW65132   7.732   5.524   3.396  0.0917 -0.1776  0.2223
20960SOL    HW165133   7.675   5.595   3.425  1.8771  1.2431  0.4243
20960SOL    HW265134   7.676   5.468   3.343 -1.9359  0.0976  1.9646
20961SOL     OW65135   1.856   2.544   2.625 -0.0006 -0.2873  0.1205
20961SOL    HW165136   1.790   2.558   2.557 -0.3017  0.1559  0.5003
20961SOL    HW265137   1.914   2.477   2.589 -0.6345 -0.6509 -0.2352
20962SOL     OW65138   2.231   4.072   5.907 -0.2569 -0.0889 -0.4229
20962SOL    HW165139   2.207   4.136   5.972 -0.8537 -1.2189  0.5064
20962SOL    HW265140   2.271   4.123   5.836 -0.9192  1.3016  0.1729
20963SOL     OW65141   8.853   5.630   2.900  0.9267 -0.2477  0.4398
20963SOL    HW165142   8.858   5.543   2.860 -0.0884  0.1755 -0.6763
20963SOL    HW265143   8.922   5.681   2.858 -0.4864  0.3537 -1.2689
20964SOL     OW65144   2.603   8.841   5.943 -0.4525 -0.3972  0.4017
20964SOL    HW165145   2.681   8.869   5.991 -0.3184 -0.0308 -0.0213
20964SOL    HW265146   2.613   8.880   5.856 -1.7621  0.7811  0.7390
20965SOL     OW65147   7.693   1.887   4.553  0.3460  0.2653 -0.2963
20965SOL    HW165148   7.670   1.794   4.555 -1.1214  0.5964 -0.4548
20965SOL    HW265149   7.774   1.890   4.502  1.1262 -1.0399  0.8042
20966SOL     OW65150   4.129   1.611   6.608 -0.0881 -0.2090  0.1447
20966SOL    HW165151   4.073   1.688   6.614  1.1440  0.6223  2.1420
20966SOL    HW265152   4.198   1.636   6.547 -0.3410 -0.1879 -0.1340
20967SOL     OW65153   6.222   4.046   7.434  0.3160  0.4264 -0.4868
20967SOL    HW165154   6.231   3.956   7.401  1.0062  0.4008 -0.2563
20967SOL    HW265155   6.185   4.035   7.522  0.6644  0.3437 -0.3472
20968SOL     OW65156   8.409   6.246   7.051 -0.5863 -0.5017  0.1489
20968SOL    HW165157   8.433   6.290   7.133 -0.5586 -1.2555  0.5559
20968SOL    HW265158   8.476   6.274   6.989 -2.4164  2.7882 -0.6213
20969SOL     OW65159   0.705  10.278   4.055 -0.1236 -0.1999  0.5843
20969SOL    HW165160   0.672  10.337   4.124 -0.3907  1.2075 -0.6900
20969SOL    HW265161   0.799  10.274   4.072 -0.2403 -0.1957  1.2780
20970SOL     OW65162   9.182   0.042   5.102 -0.4978  0.1273 -0.4380
20970SOL    HW165163   9.255  -0.007   5.065 -1.3204 -1.0129 -0.6145
20970SOL    HW265164   9.124   0.058   5.027 -2.2497 -2.3254  0.2700
20971SOL     OW65165   5.033   4.322   1.100  0.5566  0.4879  0.0752
20971SOL    HW165166   4.978   4.272   1.040  0.2794 -0.5690  1.1791
20971SOL    HW265167   5.121   4.315   1.064  0.8650 -2.4291  1.1688
20972SOL     OW65168   7.093   0.096   1.259 -0.1632  0.0907 -0.0014
20972SOL    HW165169   7.183   0.100   1.226 -0.8795 -0.6551 -2.2754
20972SOL    HW265170   7.100   0.049   1.342  1.4830 -0.5191 -0.4398
20973SOL     OW65171   3.170   7.577   3.151  0.1105  0.1144  1.0036
20973SOL    HW165172   3.234   7.622   3.095  0.0366 -0.1327  0.7164
20973SOL    HW265173   3.116   7.527   3.090 -0.0168 -0.1040  1.2939
20974SOL     OW65174  10.624   7.768   7.927  0.5516  0.1509 -0.2068
20974SOL    HW165175  10.693   7.717   7.884  0.1730 -0.6809  0.1560
20974SOL    HW265176  10.596   7.831   7.860  2.2245  1.0731 -0.0942
20975SOL     OW65177   9.757   1.157   1.533 -0.7888 -0.7882 -0.4933
20975SOL    HW165178   9.749   1.099   1.609 -0.1885  1.8541  1.7731
20975SOL    HW265179   9.850   1.179   1.530 -1.2557  1.5082 -0.0141
20976SOL     OW65180   2.256   1.583   0.895  0.2031 -0.4304  0.4061
20976SOL    HW165181   2.314   1.516   0.859 -0.7279 -0.4850 -1.0732
20976SOL    HW265182   2.284   1.664   0.852 -0.7053 -0.4330 -0.2015
20977SOL     OW65183   0.059   4.517   9.270  0.1910 -0.0626  0.0872
20977SOL    HW165184   0.010   4.435   9.264  0.1167 -0.0963  1.0926
20977SOL    HW265185   0.080   4.527   9.363  3.0750 -0.6392 -0.3978
20978SOL     OW65186   3.706   3.174   9.950 -0.2011 -0.0687 -0.1670
20978SOL    HW165187   3.722   3.219   9.867 -0.3024  1.5212  0.6349
20978SOL    HW265188   3.764   3.218  10.012  0.6314 -1.9058  0.4261
20979SOL     OW65189   0.830   5.318   4.365  0.3221  0.7275  0.0044
20979SOL    HW165190   0.904   5.318   4.426 -0.4425 -1.7099  1.0367
20979SOL    HW265191   0.837   5.235   4.319 -0.8164  1.2332 -1.1334
20980SOL     OW65192   6.770   3.653   2.278 -0.2787  0.2249  0.3848
20980SOL    HW165193   6.810   3.566   2.289  0.8653  0.5296 -1.1250
20980SOL    HW265194   6.742   3.677   2.367  0.6552 -1.0836  1.0722
20981SOL     OW65195   8.811   4.542   3.754 -0.1544 -0.1446 -0.0857
20981SOL    HW165196   8.818   4.599   3.677 -0.1004  0.0386  0.0546
20981SOL    HW265197   8.718   4.542   3.775 -0.2668 -0.7334 -0.5551
20982SOL     OW65198   1.672   4.328   4.909  0.2141  0.2386 -0.2871
20982SOL    HW165199   1.752   4.348   4.958  0.6153 -1.1793 -0.3188
20982SOL    HW265200   1.689   4.362   4.821  1.1680 -0.8110 -0.5401
20983SOL     OW65201   0.308   1.852   4.201 -0.3050  0.1456 -0.3757
20983SOL    HW165202   0.274   1.803   4.276  1.0212 -1.0460 -0.5135
20983SOL    HW265203   0.254   1.823   4.128 -1.6082  1.3162  0.0744
20984SOL     OW65204   4.632   5.445   4.238 -0.3735 -0.5553 -0.4146
20984SOL    HW165205   4.693   5.432   4.166  0.1190  0.7721 -0.2646
20984SOL    HW265206   4.659   5.382   4.304  0.4143 -0.4433 -0.6230
20985SOL     OW65207   5.466   4.720   1.118 -0.1881  0.2500  0.0972
20985SOL    HW165208   5.514   4.769   1.184  1.4515 -0.5757 -0.4287
20985SOL    HW265209   5.470   4.629   1.148 -1.4690  0.1498  0.0382
20986SOL     OW65210   0.922   3.332   7.594  0.1849  0.1320  0.1890
20986SOL    HW165211   0.935   3.282   7.514  0.1485  0.7859 -0.2378
20986SOL    HW265212   0.963   3.417   7.576  1.0893 -0.0559  1.2423
20987SOL     OW65213   1.453  10.441   4.520 -0.0920  0.1614  0.2976
20987SOL    HW165214   1.409  10.510   4.470 -0.3698  0.7919  1.3801
20987SOL    HW265215   1.495  10.386   4.454  0.5182  1.6288 -0.5791
20988SOL     OW65216   1.436   8.241  10.425  0.0920  0.1933  0.1050
20988SOL    HW165217   1.367   8.174  10.419 -0.6921  1.0582 -1.1959
20988SOL    HW265218   1.442   8.276  10.336  0.4925  1.8271  0.7483
20989SOL     OW65219   6.339   9.163   7.891 -0.6429  0.5674 -0.0558
20989SOL    HW165220   6.413   9.128   7.941 -0.9263 -0.5887 -0.3985
20989SOL    HW265221   6.275   9.092   7.891 -1.9301  1.6880  0.5493
20990SOL     OW65222   9.021   0.280   1.053 -0.2301 -0.0817 -0.0911
20990SOL    HW165223   9.115   0.295   1.043 -0.3018  1.5377  1.2806
20990SOL    HW265224   9.011   0.185   1.047  1.4332 -0.2597 -0.5676
20991SOL     OW65225   0.539  10.093   7.759 -0.2171  0.2189  0.0467
20991SOL    HW165226   0.480  10.163   7.786 -2.0389 -1.9425  2.0881
20991SOL    HW265227   0.505  10.065   7.674  0.0272  1.2174 -0.3950
20992SOL     OW65228   6.573   7.098   7.110  0.3907 -0.3114 -0.3144
20992SOL    HW165229   6.511   7.025   7.116  1.6571 -1.3750  0.5270
20992SOL    HW265230   6.597   7.116   7.200  1.0516  0.2993 -0.6045
20993SOL     OW65231   0.775   7.761  10.017 -0.0788  0.3447 -0.2905
20993SOL    HW165232   0.725   7.736   9.940  1.1302  0.7933 -1.2406
20993SOL    HW265233   0.708   7.784  10.082 -1.1326 -1.2211 -0.7750
20994SOL     OW65234   7.395   2.725   1.959  0.4572  0.5300 -0.4883
20994SOL    HW165235   7.304   2.732   1.987  0.4795  1.4007 -0.6075
20994SOL    HW265236   7.428   2.645   2.001  0.2429  1.3113  1.2425
20995SOL     OW65237   0.334   7.133   5.154 -0.3334  0.0377 -0.1911
20995SOL    HW165238   0.249   7.151   5.115  0.4749  0.5076 -1.8001
20995SOL    HW265239   0.385   7.213   5.140  1.4967 -1.4103 -2.4440
20996SOL     OW65240   3.681   4.639   0.911 -0.1751 -0.2780 -0.4043
20996SOL    HW165241   3.637   4.700   0.852  0.6218  1.0468  0.3057
20996SOL    HW265242   3.735   4.695   0.967  0.8972 -1.6761  0.0264
20997SOL     OW65243   2.000   7.849   7.349 -0.1797  0.4920  0.2409
20997SOL    HW165244   1.927   7.883   7.401  0.6456 -0.4120  2.0608
20997SOL    HW265245   1.963   7.775   7.301 -0.5222  0.1381  1.0303
20998SOL     OW65246   1.810   1.029   1.428  0.1110  0.1210  0.1335
20998SOL    HW165247   1.719   1.009   1.406 -0.2787  2.4106 -0.6834
20998SOL    HW265248   1.862   0.969   1.375 -0.9251  1.1690 -2.2267
20999SOL     OW65249   0.640   2.038   6.926  0.1733 -0.3858 -0.4376
20999SOL    HW165250   0.594   2.082   6.997  0.2899 -1.8288  0.5706
20999SOL    HW265251   0.594   1.956   6.915 -0.1043 -0.0074 -2.3515
21000SOL     OW65252   5.506   3.039   5.567  0.4051 -0.4607 -0.1250
21000SOL    HW165253   5.473   2.990   5.491 -2.6609 -0.4149  1.0277
21000SOL    HW265254   5.519   3.128   5.534 -0.2018 -0.6074 -0.7878
21001SOL     OW65255   2.315  10.197   8.159  0.1708  0.4050  0.1954
21001SOL    HW165256   2.265  10.179   8.239 -1.5909  0.1182 -0.9052
21001SOL    HW265257   2.266  10.151   8.090  1.2209  1.2571 -1.1632
21002SOL     OW65258   8.877   6.884   9.658 -0.1699 -0.1423 -0.0599
21002SOL    HW165259   8.950   6.945   9.643  0.0736 -0.1798  0.9285
21002SOL    HW265260   8.915   6.812   9.707 -0.4833 -1.0692 -1.1293
21003SOL     OW65261  10.398   3.124   4.736  0.4255 -0.6033 -0.2822
21003SOL    HW165262  10.391   3.123   4.831  1.1104 -1.8037 -0.2235
21003SOL    HW265263  10.364   3.039   4.708 -0.3760 -0.0089 -1.1650
21004SOL     OW65264   0.404   8.617   4.827 -0.0990 -0.0618 -0.0293
21004SOL    HW165265   0.408   8.655   4.915 -1.1676 -0.9406  0.4188
21004SOL    HW265266   0.447   8.532   4.835  0.3339  0.1046 -0.5079
21005SOL     OW65267   1.325   6.789   0.474  0.6235 -0.2940 -0.4609
21005SOL    HW165268   1.247   6.762   0.425  0.5602 -0.0836 -0.4775
21005SOL    HW265269   1.291   6.842   0.546  0.7418 -0.2992 -0.4008
21006SOL     OW65270   3.024   9.345   5.627 -0.5590 -0.0482 -0.1981
21006SOL    HW165271   3.012   9.251   5.640 -2.0414  0.3103  1.3136
21006SOL    HW265272   3.075   9.351   5.546  0.3537 -2.1561  0.1481
21007SOL     OW65273   7.504   1.000   2.343 -0.2395  0.8270  0.2444
21007SOL    HW165274   7.482   0.931   2.406 -0.7863  0.0299 -0.7963
21007SOL    HW265275   7.583   1.040   2.379  0.1763 -0.4360  0.7973
21008SOL     OW65276   5.736   8.874   6.485 -0.0776  0.2784  0.9167
21008SOL    HW165277   5.672   8.841   6.548 -1.1800  0.8294  0.1107
21008SOL    HW265278   5.781   8.796   6.453 -1.2582 -0.2513  0.5240
21009SOL     OW65279   2.365   9.571   0.163  0.4390  0.3994  0.3141
21009SOL    HW165280   2.459   9.572   0.148  0.5352 -2.5736  0.0471
21009SOL    HW265281   2.326   9.560   0.076  0.0648 -1.0792  0.6299
21010SOL     OW65282   2.966  10.545   5.643 -0.6249  0.0601  0.1759
21010SOL    HW165283   3.055  10.528   5.614 -0.9006 -0.9863 -0.1307
21010SOL    HW265284   2.973  10.618   5.703  0.6766 -1.0589  1.4582
21011SOL     OW65285   8.792   0.777   8.838 -0.1325  0.5829 -0.4436
21011SOL    HW165286   8.716   0.728   8.805  1.6679 -2.1446 -0.8355
21011SOL    HW265287   8.827   0.722   8.908  2.2907  1.0560 -1.2037
21012SOL     OW65288   5.510   3.246   7.917 -0.2879 -1.1125 -0.1874
21012SOL    HW165289   5.542   3.232   7.828 -2.1179 -4.1067 -0.4938
21012SOL    HW265290   5.547   3.174   7.968  0.3238  0.2667  1.4108
21013SOL     OW65291   8.748   7.082   8.918  0.1681  0.0180  0.3161
21013SOL    HW165292   8.724   7.075   8.825  0.2988 -0.2913  0.3041
21013SOL    HW265293   8.836   7.121   8.917 -0.3820  1.2861  0.3675
21014SOL     OW65294   3.050   9.512   3.517 -0.5933  0.8175 -0.5292
21014SOL    HW165295   2.993   9.556   3.580 -1.9051 -2.2955  0.6952
21014SOL    HW265296   2.991   9.483   3.448  0.1587  0.6915 -1.1266
21015SOL     OW65297  10.376   3.964   8.836  0.7213 -0.1849 -0.0299
21015SOL    HW165298  10.354   3.975   8.929 -0.5018  0.3456 -0.3653
21015SOL    HW265299  10.470   3.982   8.831  0.9168 -0.7392  1.1810
21016SOL     OW65300   6.973   2.993   1.918 -0.6825  0.1478  0.1369
21016SOL    HW165301   7.023   3.067   1.883 -1.9352  1.1705  0.4342
21016SOL    HW265302   6.921   3.031   1.988 -0.4484 -1.2841  1.1105
21017SOL     OW65303   1.026   8.991   8.099  0.0613  0.1864  0.1928
21017SOL    HW165304   1.093   8.931   8.066 -0.6735 -0.7306  0.3453
21017SOL    HW265305   0.965   9.002   8.026  0.0935  0.6079  0.2263
21018SOL     OW65306   4.310   7.203   4.328 -0.3051 -0.2022 -0.2182
21018SOL    HW165307   4.218   7.197   4.304 -0.2657 -0.0167 -0.4162
21018SOL    HW265308   4.354   7.141   4.270 -0.4523 -1.1836  0.6831
21019SOL     OW65309   0.557   1.872   6.063  0.5157  0.4751 -0.0708
21019SOL    HW165310   0.638   1.840   6.022 -0.0568 -3.6955  1.6104
21019SOL    HW265311   0.487   1.837   6.008 -0.1773 -2.6036  2.4850
21020SOL     OW65312   2.201   7.148   9.881  0.0425 -0.0650 -0.3605
21020SOL    HW165313   2.144   7.208   9.929 -0.0500  1.6598 -2.4348
21020SOL    HW265314   2.156   7.064   9.884 -1.6960  0.8123 -0.3591
21021SOL     OW65315   3.153   5.324   4.337 -0.6447 -0.2286  0.5248
21021SOL    HW165316   3.093   5.275   4.393 -0.3712 -1.9152 -0.5670
21021SOL    HW265317   3.119   5.311   4.249 -0.1715  1.0532  0.1352
21022SOL     OW65318   5.534  10.521   5.763  0.2625  1.0710 -0.1766
21022SOL    HW165319   5.535  10.437   5.717 -1.3558  1.1846 -0.4861
21022SOL    HW265320   5.442  10.535   5.785  0.3591  3.1865 -0.8995
21023SOL     OW65321   3.176   6.536   2.131 -0.0645  0.0575 -0.2651
21023SOL    HW165322   3.134   6.483   2.064  0.0073 -0.0211 -0.2483
21023SOL    HW265323   3.260   6.492   2.147 -0.5573 -0.5735  0.6931
21024SOL     OW65324   4.037   3.894   0.721  0.2005  0.0625  0.1942
21024SOL    HW165325   3.984   3.966   0.754  0.4766  0.3782 -0.0420
21024SOL    HW265326   4.017   3.890   0.628  1.1231  0.6555 -0.0435
21025SOL     OW65327   4.662   2.975   6.027  0.0311 -0.4977 -0.4952
21025SOL    HW165328   4.654   3.066   6.058  0.6634 -0.0508 -1.5748
21025SOL    HW265329   4.691   2.926   6.104  2.1019  0.6750 -0.4720
21026SOL     OW65330  10.559   9.478   2.739 -0.3818  0.3455  0.3722
21026SOL    HW165331  10.621   9.469   2.811 -1.6766 -0.8026  1.3988
21026SOL    HW265332  10.492   9.412   2.756 -0.6520 -0.0918 -1.9853
21027SOL     OW65333   7.973   5.965   5.677 -0.2600 -0.3281  0.1144
21027SOL    HW165334   8.001   6.042   5.726 -0.4369  0.1783 -0.5630
21027SOL    HW265335   7.937   6.000   5.596 -1.1435 -1.0767  0.1716
21028SOL     OW65336  10.073   3.342  10.235 -0.1913  0.3509  0.3998
21028SOL    HW165337  10.089   3.417  10.177 -0.9198 -0.0629 -0.3697
21028SOL    HW265338  10.144   3.344  10.298  0.4892  0.9745 -0.3657
21029SOL     OW65339   0.807   2.018   4.602 -0.1160  0.1939  1.0393
21029SOL    HW165340   0.888   2.040   4.648  0.5328  2.3479 -0.9188
21029SOL    HW265341   0.743   2.081   4.635 -0.0639  0.7038  0.2005
21030SOL     OW65342   6.526   3.113   4.871  0.4270  0.1410  0.2233
21030SOL    HW165343   6.517   3.022   4.844 -1.2486  0.0113  1.0791
21030SOL    HW265344   6.481   3.164   4.803  0.6051  0.2652  0.1956
21031SOL     OW65345   0.221  10.077   7.784 -0.6694 -0.2623 -0.5463
21031SOL    HW165346   0.166  10.090   7.861 -1.6571 -1.7396 -0.9716
21031SOL    HW265347   0.305  10.048   7.820 -0.1992  1.7246  0.0914
21032SOL     OW65348  10.373   3.221   7.925  1.1095  0.2075  0.1094
21032SOL    HW165349  10.312   3.291   7.950  0.7903 -0.2936  0.7728
21032SOL    HW265350  10.460   3.257   7.945  1.0187  0.7919 -0.5065
21033SOL     OW65351   4.770   8.231   9.393  0.0782 -0.1105  0.3944
21033SOL    HW165352   4.709   8.270   9.456 -1.0110  1.0000 -1.2618
21033SOL    HW265353   4.768   8.290   9.318  1.7163 -1.1210 -0.5007
21034SOL     OW65354   4.692  10.459   7.373  0.0807  0.1962  0.3758
21034SOL    HW165355   4.695  10.447   7.278 -0.3093  0.7315  0.2877
21034SOL    HW265356   4.611  10.416   7.401  0.8738 -1.1752  0.6717
21035SOL     OW65357   5.549   6.004   4.252 -0.1037 -0.7700  0.4947
21035SOL    HW165358   5.523   5.936   4.189 -0.4517  0.2269 -0.4722
21035SOL    HW265359   5.473   6.014   4.309 -0.9614  0.3746 -0.7770
21036SOL     OW65360   6.327   5.860   2.360 -0.1616  0.1158 -0.3634
21036SOL    HW165361   6.377   5.892   2.436 -0.0625 -0.9075  0.0130
21036SOL    HW265362   6.384   5.877   2.285  1.4228 -2.2536  0.1842
21037SOL     OW65363   0.298   7.794   4.739 -0.3176  0.7646  0.3164
21037SOL    HW165364   0.236   7.789   4.667 -0.1482 -0.2337  0.2196
21037SOL    HW265365   0.257   7.745   4.810  2.4946 -5.2596 -1.4508
21038SOL     OW65366   7.828   8.406   4.401  0.4106  0.2076 -0.0127
21038SOL    HW165367   7.738   8.378   4.421  1.0871 -0.9694  1.6281
21038SOL    HW265368   7.824   8.501   4.400 -0.4122  0.3012  2.7292
21039SOL     OW65369   5.655   5.007   7.173 -0.4266  0.4838  0.2704
21039SOL    HW165370   5.678   4.938   7.235 -2.2457  0.0964  0.5926
21039SOL    HW265371   5.717   5.077   7.191  3.6900 -2.1148 -2.2676
21040SOL     OW65372   6.975   6.473   9.834 -0.1050 -1.0529 -0.2989
21040SOL    HW165373   6.910   6.409   9.864  0.3925 -0.6347  1.7963
21040SOL    HW265374   6.992   6.528   9.910  1.7627 -0.3354 -1.1701
21041SOL     OW65375   2.287   5.261   1.099  0.2408  0.2334  0.0444
21041SOL    HW165376   2.353   5.192   1.093 -0.4576 -0.5508  1.0754
21041SOL    HW265377   2.230   5.247   1.024 -1.7358 -2.3361  1.8421
21042SOL     OW65378   2.334  10.100   6.246  0.2290 -0.6371 -0.0653
21042SOL    HW165379   2.249  10.112   6.287 -0.4404 -0.3300 -1.4885
21042SOL    HW265380   2.377  10.034   6.299 -0.4549 -0.0098  1.3163
21043SOL     OW65381   5.151  10.521   1.461  0.1683  0.0495 -0.8502
21043SOL    HW165382   5.238  10.526   1.421  0.7524 -1.8310  0.0605
21043SOL    HW265383   5.160  10.456   1.530 -1.9358 -0.0573 -0.6034
21044SOL     OW65384   7.301   7.350   8.025  0.3266 -0.1029 -0.5904
21044SOL    HW165385   7.259   7.283   7.973  0.9039 -0.0407 -1.1458
21044SOL    HW265386   7.369   7.304   8.074  0.7179  0.0691 -0.9660
21045SOL     OW65387   4.384   1.989   9.522  0.1394  0.1742  0.0287
21045SOL    HW165388   4.409   2.060   9.582 -2.0904  0.6917  0.4138
21045SOL    HW265389   4.295   2.010   9.496  0.2659 -1.2684 -1.7182
21046SOL     OW65390   9.199   1.030   1.479  0.0766  0.1801 -0.3573
21046SOL    HW165391   9.116   0.987   1.460  0.4632 -0.4237 -0.6926
21046SOL    HW265392   9.264   0.982   1.428  0.3074  2.2085 -2.0748
21047SOL     OW65393   4.708   8.171   1.258 -0.3635 -0.0869  0.4545
21047SOL    HW165394   4.658   8.226   1.319 -0.7387 -1.5561  1.5329
21047SOL    HW265395   4.794   8.161   1.300  0.0661  0.5523 -0.2646
21048SOL     OW65396   1.627   9.805   1.584  0.1263 -0.0361  0.0297
21048SOL    HW165397   1.621   9.766   1.672 -0.6429 -1.1457 -0.4865
21048SOL    HW265398   1.598   9.895   1.596  0.7243  0.0372  1.0405
21049SOL     OW65399   8.074   9.530   8.914  0.2680  0.0095 -0.0769
21049SOL    HW165400   8.053   9.481   8.994 -1.8076  1.5522  0.4039
21049SOL    HW265401   7.989   9.552   8.877  1.1915 -0.2952 -2.5284
21050SOL     OW65402   4.615   5.976   4.437  0.4476  0.3102  0.0907
21050SOL    HW165403   4.599   6.039   4.366 -0.4290 -0.3205 -0.2831
21050SOL    HW265404   4.624   5.892   4.394 -2.2553 -0.4613  0.8202
21051SOL     OW65405   2.218   3.313   4.632  0.2323  0.1822  0.7928
21051SOL    HW165406   2.170   3.237   4.665 -0.5758  1.0444  1.6484
21051SOL    HW265407   2.292   3.323   4.692  1.6810 -1.2785 -0.6510
21052SOL     OW65408   7.847   3.729   0.903 -0.0872  0.1843  0.0298
21052SOL    HW165409   7.873   3.684   0.823 -2.4996  1.0952 -1.3744
21052SOL    HW265410   7.801   3.662   0.954  0.8297 -0.2123  0.3582
21053SOL     OW65411   3.340   2.864  10.408  0.4919  0.1133 -0.1825
21053SOL    HW165412   3.369   2.776  10.385  1.8510  0.7012 -0.8408
21053SOL    HW265413   3.265   2.851  10.466  1.1044 -1.4789  0.2907
21054SOL     OW65414   7.153   7.578   2.024 -0.7169 -0.3877 -0.0613
21054SOL    HW165415   7.216   7.527   2.076  0.7537  0.2316 -1.1571
21054SOL    HW265416   7.067   7.543   2.048  0.0745 -1.5583  1.1668
21055SOL     OW65417   5.315   7.775   1.287  0.2495 -0.1500  0.0430
21055SOL    HW165418   5.256   7.706   1.256  1.7372 -1.5222  0.1205
21055SOL    HW265419   5.325   7.757   1.380 -1.3736  1.7907  0.6498
21056SOL     OW65420  10.467   0.106   5.602  0.3235 -0.2663  0.0937
21056SOL    HW165421  10.505   0.030   5.558 -0.4749 -0.2677 -0.6250
21056SOL    HW265422  10.385   0.074   5.639  0.2359  0.1156  0.2339
21057SOL     OW65423   8.857   9.571   6.755 -0.0841  0.2945  0.2185
21057SOL    HW165424   8.912   9.563   6.833 -1.2947  1.8174  1.2920
21057SOL    HW265425   8.772   9.538   6.782 -1.1003  2.7056  0.2807
21058SOL     OW65426   7.573   3.803   7.328  0.7052  0.0211  0.8543
21058SOL    HW165427   7.607   3.843   7.248 -0.2709 -1.0370 -0.1299
21058SOL    HW265428   7.593   3.710   7.318 -1.2228 -0.4400  0.8595
21059SOL     OW65429   6.492   3.435   6.425 -0.0773  0.4619 -0.7847
21059SOL    HW165430   6.563   3.384   6.463 -1.6752 -0.1891  1.5721
21059SOL    HW265431   6.521   3.526   6.433  0.5640  0.1999  0.0526
21060SOL     OW65432   0.248   8.124   2.764 -0.5003  0.1502  0.3038
21060SOL    HW165433   0.272   8.133   2.672  1.3518 -0.8051  0.6346
21060SOL    HW265434   0.257   8.030   2.782 -1.1420  0.2779  1.3793
21061SOL     OW65435  10.102   5.509   0.118  0.7826  0.3496  0.0207
21061SOL    HW165436  10.084   5.512   0.212  0.5962  0.1174 -0.0080
21061SOL    HW265437  10.081   5.597   0.087  1.9238  0.7775  0.3868
21062SOL     OW65438   1.721   3.645   6.595 -0.2941  0.1623 -0.0291
21062SOL    HW165439   1.751   3.632   6.685 -0.5547  0.7527  0.1515
21062SOL    HW265440   1.761   3.728   6.568  0.5299 -0.4796 -0.7894
21063SOL     OW65441   3.077   0.851   7.542  0.4301  0.3130 -0.1849
21063SOL    HW165442   3.006   0.846   7.478  0.9250  0.1327 -0.7295
21063SOL    HW265443   3.036   0.825   7.625  0.1391 -1.0528 -0.7193
21064SOL     OW65444   7.319   0.333   3.722 -0.4005 -0.1484  0.2044
21064SOL    HW165445   7.413   0.348   3.731  0.1344 -2.2876 -1.1833
21064SOL    HW265446   7.281   0.421   3.721  1.7747  0.8609 -1.3212
21065SOL     OW65447   7.845   7.970   9.991  0.5077  0.1934  0.1270
21065SOL    HW165448   7.802   7.908  10.051  0.0372 -0.6909 -1.0850
21065SOL    HW265449   7.801   7.956   9.907  2.2401  0.2315 -0.8326
21066SOL     OW65450   2.579   6.298   8.978 -0.6718  0.1791  0.1007
21066SOL    HW165451   2.527   6.234   9.025 -0.2976 -0.4805 -0.3624
21066SOL    HW265452   2.619   6.352   9.046 -1.8385  0.6065  0.4586
21067SOL     OW65453   4.091   0.610   7.789  0.9030 -1.0797  0.0771
21067SOL    HW165454   4.022   0.556   7.751  1.4711 -0.7851 -1.4253
21067SOL    HW265455   4.097   0.580   7.880 -3.7501  1.3402  1.5445
21068SOL     OW65456   6.672   0.853   3.852  0.4362  0.7444 -0.4312
21068SOL    HW165457   6.684   0.814   3.939  1.0550  1.8620  0.0159
21068SOL    HW265458   6.589   0.818   3.821  0.4741 -0.1087  0.3741
21069SOL     OW65459   7.545  10.297   4.878  0.2765 -0.4308 -0.1867
21069SOL    HW165460   7.451  10.302   4.866  0.1669 -3.4795 -1.3561
21069SOL    HW265461   7.557  10.229   4.944  1.6647  0.3593  0.4185
21070SOL     OW65462   6.997   0.789  10.218  0.3025  0.1939  0.0483
21070SOL    HW165463   6.902   0.782  10.209  0.3265 -0.7112  0.4567
21070SOL    HW265464   7.010   0.822  10.307  0.3686  0.5171 -0.0794
21071SOL     OW65465   0.945   0.552   9.372 -0.4143 -0.0525 -0.2159
21071SOL    HW165466   0.924   0.642   9.347  0.5982  0.0613 -0.7213
21071SOL    HW265467   0.878   0.528   9.435 -0.0498  1.4658  0.8009
21072SOL     OW65468   1.359   7.893   9.486  0.3123 -0.0091  1.0128
21072SOL    HW165469   1.367   7.862   9.396  0.1628  0.9575  0.6533
21072SOL    HW265470   1.269   7.871   9.511  0.0490  0.5612  0.5904
21073SOL     OW65471   4.088   4.050   4.018  0.4129 -0.1419 -0.1748
21073SOL    HW165472   4.081   4.045   4.113  1.9170  2.1063  0.1114
21073SOL    HW265473   3.997   4.051   3.988 -0.1147  0.6691  1.3364
21074SOL     OW65474   6.845   6.744  10.475 -0.5951 -0.2975 -0.0693
21074SOL    HW165475   6.907   6.787  10.534 -0.9451 -0.6428  0.5564
21074SOL    HW265476   6.897   6.721  10.398  0.0710 -0.6495  0.4740
21075SOL     OW65477   2.057   4.808   8.482  0.4483 -0.6619  0.4631
21075SOL    HW165478   1.971   4.785   8.446  0.5351 -0.1003 -0.1151
21075SOL    HW265479   2.084   4.729   8.530  0.2332 -1.3589 -0.5183
21076SOL     OW65480   0.114   7.899   8.130 -0.3084 -0.5803 -0.6402
21076SOL    HW165481   0.181   7.835   8.154 -2.2563 -2.7263 -0.5620
21076SOL    HW265482   0.073   7.862   8.052 -1.5050  0.5877 -0.5898
21077SOL     OW65483   5.767   4.596   3.757  0.2565 -0.2409  0.4158
21077SOL    HW165484   5.818   4.597   3.676 -0.2383  0.2151  0.1009
21077SOL    HW265485   5.737   4.686   3.766 -0.4826 -0.5031  0.6032
21078SOL     OW65486   0.988   5.864   6.990 -0.1232  0.8435 -0.1198
21078SOL    HW165487   0.937   5.848   6.911 -0.5794 -1.5161  0.5573
21078SOL    HW265488   1.079   5.850   6.963 -0.2217  0.6670 -0.3657
21079SOL     OW65489   3.970   3.249   6.389  0.7629  0.4962  0.5477
21079SOL    HW165490   3.983   3.344   6.381  1.2769  0.3510 -0.5863
21079SOL    HW265491   3.933   3.237   6.476  0.9747  1.7126  0.8240
21080SOL     OW65492   8.634   4.520   3.440 -0.4094  0.2678  0.4493
21080SOL    HW165493   8.712   4.541   3.388 -0.1988  1.7032  1.3000
21080SOL    HW265494   8.620   4.597   3.494 -1.7838 -0.4207  1.1128
21081SOL     OW65495  10.633  10.095   6.534 -0.3970  0.9777  0.4957
21081SOL    HW165496  10.646  10.101   6.439  0.3076 -0.4931  0.4636
21081SOL    HW265497  10.721  10.097   6.570 -0.6869  2.0078  1.1690
21082SOL     OW65498   6.227   9.061   1.665 -0.2239  0.1393  0.4870
21082SOL    HW165499   6.240   9.066   1.570  2.0713  2.0699  0.8394
21082SOL    HW265500   6.156   8.997   1.675 -0.1013 -0.6192 -2.4747
21083SOL     OW65501   9.670   3.629   8.401  0.1833 -0.1570 -0.3197
21083SOL    HW165502   9.622   3.575   8.464 -0.9334 -0.1845 -1.1550
21083SOL    HW265503   9.603   3.686   8.364  0.5987 -0.8382 -2.2115
21084SOL     OW65504   2.424   5.030   2.935 -0.8142 -0.3685 -0.6904
21084SOL    HW165505   2.366   5.083   2.989 -0.4514 -0.5183 -0.1410
21084SOL    HW265506   2.373   4.950   2.917 -0.6888 -0.6162  0.0142
21085SOL     OW65507   8.128   6.869   6.429 -0.0424  0.0580 -0.0028
21085SOL    HW165508   8.096   6.909   6.347  1.2153 -0.8127 -0.9562
21085SOL    HW265509   8.113   6.776   6.417  2.2458 -0.3284 -0.2608
21086SOL     OW65510   8.146  10.234   1.920 -0.6578  0.4545 -0.7624
21086SOL    HW165511   8.169  10.149   1.955 -0.2557 -0.3892 -2.9058
21086SOL    HW265512   8.082  10.270   1.982  1.3993 -0.0379  1.7907
21087SOL     OW65513   8.023   7.013   9.059 -0.2595  0.1783  1.2443
21087SOL    HW165514   7.965   7.086   9.039 -0.2162 -0.1403 -0.0974
21087SOL    HW265515   8.086   7.049   9.122  2.2155  2.5444 -2.2254
21088SOL     OW65516   3.087   7.494   5.839  0.4355  0.1334 -0.0286
21088SOL    HW165517   3.013   7.537   5.881  0.2245 -0.4092  0.1578
21088SOL    HW265518   3.093   7.535   5.753  0.2380  0.5382  0.1489
21089SOL     OW65519   2.421   7.615   3.008  0.0530 -0.1794  0.5245
21089SOL    HW165520   2.506   7.625   3.050 -0.0136  1.3482  0.3457
21089SOL    HW265521   2.397   7.703   2.981 -0.3657 -0.9561 -1.8311
21090SOL     OW65522   9.663   9.160   0.395 -0.0100  0.0026  0.2483
21090SOL    HW165523   9.596   9.095   0.415  0.7443 -1.0921 -0.6993
21090SOL    HW265524   9.734   9.111   0.354  1.4494  1.1200  1.3317
21091SOL     OW65525   4.630   9.890   6.159 -0.6223 -0.0935  0.3602
21091SOL    HW165526   4.569   9.910   6.230 -0.3586  0.2672  0.4891
21091SOL    HW265527   4.686   9.821   6.195  0.5024  1.1376  1.0875
21092SOL     OW65528   8.331   5.122   3.676  0.2067 -0.6937  0.2964
21092SOL    HW165529   8.351   5.047   3.732  0.1387  0.6468  2.1929
21092SOL    HW265530   8.263   5.169   3.723 -0.0850  0.3116 -1.0962
21093SOL     OW65531   9.059   1.767   4.697 -0.5907 -0.2057 -0.8256
21093SOL    HW165532   8.985   1.710   4.715  0.2203 -0.2997  2.9199
21093SOL    HW265533   9.109   1.721   4.629 -1.4548 -2.5343  0.0183
21094SOL     OW65534   4.871   6.847   4.631  0.6321 -0.1882  0.1547
21094SOL    HW165535   4.908   6.831   4.717  1.6066 -0.0372 -0.2147
21094SOL    HW265536   4.860   6.760   4.592 -0.7844 -0.3206  0.8007
21095SOL     OW65537   7.433   6.581   1.398  0.2616  0.0657  0.2395
21095SOL    HW165538   7.516   6.620   1.370  0.2255 -0.8295 -1.2183
21095SOL    HW265539   7.381   6.577   1.318 -1.0834  0.3191  1.0757
21096SOL     OW65540   1.463   7.759   4.090 -0.5003  0.2368 -0.6629
21096SOL    HW165541   1.450   7.847   4.056 -0.5635  1.0979  1.4107
21096SOL    HW265542   1.455   7.769   4.185 -0.4133 -1.9964 -0.3702
21097SOL     OW65543   9.148  10.568  10.404 -0.1474 -0.3111  0.7150
21097SOL    HW165544   9.222  10.626  10.386 -0.1269 -0.6266 -0.2539
21097SOL    HW265545   9.186  10.480  10.402 -0.4839 -0.4546  0.5287
21098SOL     OW65546   6.141   9.148   7.458 -0.4004 -0.5185 -0.3733
21098SOL    HW165547   6.094   9.133   7.376  0.8410 -0.7786 -1.0624
21098SOL    HW265548   6.232   9.160   7.431 -0.0665 -0.0277  0.9265
21099SOL     OW65549   4.114   7.271   7.228  0.4941 -0.4608 -0.6732
21099SOL    HW165550   4.203   7.254   7.260  1.0863  1.6551 -1.0469
21099SOL    HW265551   4.127   7.316   7.145 -0.9259  0.2918 -0.5178
21100SOL     OW65552   1.314   8.830   0.178 -0.1030  0.7679 -0.1897
21100SOL    HW165553   1.226   8.798   0.160  0.2933  0.2557 -1.2599
21100SOL    HW265554   1.363   8.815   0.097  0.8490  1.4782  0.2272
21101SOL     OW65555   1.248   0.299   7.910  0.4708  0.5103  0.4799
21101SOL    HW165556   1.272   0.283   8.001  0.3735  0.5020  0.5047
21101SOL    HW265557   1.279   0.388   7.892  0.8886  0.3458  0.3843
21102SOL     OW65558   6.655   2.474   9.582  0.2989 -0.4229  0.5741
21102SOL    HW165559   6.747   2.487   9.559 -0.2834 -1.1931 -2.5532
21102SOL    HW265560   6.613   2.558   9.562  0.1222 -0.4045  1.0031
21103SOL     OW65561   4.712   9.692   6.972  0.3973  0.2949  0.1346
21103SOL    HW165562   4.786   9.658   7.023  0.3544 -1.3584 -0.8377
21103SOL    HW265563   4.654   9.617   6.962 -0.0277  0.8093 -1.5663
21104SOL     OW65564  10.278  10.072   5.376 -0.1464  0.5193 -0.1499
21104SOL    HW165565  10.193  10.031   5.364  1.5585 -3.5156  0.0226
21104SOL    HW265566  10.291  10.073   5.471  1.2851 -2.1756 -0.2337
21105SOL     OW65567   0.503   0.285   4.710 -0.0567 -0.1551  0.2610
21105SOL    HW165568   0.595   0.273   4.731 -0.1363 -2.6331 -0.4579
21105SOL    HW265569   0.469   0.342   4.779  2.3021  2.2503 -0.3717
21106SOL     OW65570   6.228   9.565   7.746  0.3974 -0.0566 -0.3773
21106SOL    HW165571   6.169   9.518   7.804  0.2043 -1.3824 -1.5945
21106SOL    HW265572   6.302   9.505   7.733  0.1107 -0.1018 -2.0336
21107SOL     OW65573   4.570  10.577   8.663 -0.0143 -0.2511  0.1162
21107SOL    HW165574   4.612  10.620   8.738  2.1133 -0.8324 -0.6772
21107SOL    HW265575   4.477  10.601   8.670  0.4441  1.1684  1.9134
21108SOL     OW65576   8.865   9.759   0.185 -0.6783 -0.5071  0.0332
21108SOL    HW165577   8.844   9.853   0.183  2.9299  0.5538  2.5671
21108SOL    HW265578   8.815   9.726   0.260 -0.1257 -0.0340  0.6197
21109SOL     OW65579   8.618   8.145   9.473 -0.4094  0.2217  0.1079
21109SOL    HW165580   8.610   8.090   9.551 -0.9094  2.3937  1.6838
21109SOL    HW265581   8.700   8.117   9.432  0.0013 -0.8203  1.5447
21110SOL     OW65582   9.891   9.223   5.213 -0.2144  0.2315 -0.0557
21110SOL    HW165583   9.850   9.217   5.299 -1.4244  0.7071 -0.5700
21110SOL    HW265584   9.898   9.133   5.182 -0.6877  0.1329  0.1296
21111SOL     OW65585   5.466   7.617   9.387 -0.1788 -0.4220 -0.1373
21111SOL    HW165586   5.471   7.593   9.294  0.1387 -1.2561  0.0909
21111SOL    HW265587   5.522   7.554   9.432 -2.0380 -1.4278  0.8798
21112SOL     OW65588   6.859   3.383   2.300  0.5616 -0.3683  0.2618
21112SOL    HW165589   6.927   3.316   2.308  0.2494 -0.5053  2.0521
21112SOL    HW265590   6.787   3.351   2.355  0.3572  1.3918  1.0693
21113SOL     OW65591   5.404   9.677   1.422  0.0812  0.5415 -0.2599
21113SOL    HW165592   5.311   9.695   1.406  0.3867  3.6962  0.9386
21113SOL    HW265593   5.406   9.639   1.510 -0.1325 -0.7742 -0.7981
21114SOL     OW65594  10.312   0.770   5.380 -0.3749  0.6158  0.5198
21114SOL    HW165595  10.343   0.686   5.412 -0.1245  0.6828  0.4557
21114SOL    HW265596  10.384   0.830   5.396 -0.4083  0.7410  0.2222
21115SOL     OW65597   0.903   9.261   4.710  0.3620  0.7129 -0.3975
21115SOL    HW165598   0.951   9.183   4.738 -0.8703 -0.0240 -0.2395
21115SOL    HW265599   0.955   9.298   4.639 -0.0420 -1.4396 -1.9222
21116SOL     OW65600   4.483   1.195   3.110  0.5717  0.5124  0.1832
21116SOL    HW165601   4.477   1.104   3.138 -1.0423  0.7553  0.7533
21116SOL    HW265602   4.567   1.225   3.144  1.2999 -0.8515 -0.3411
21117SOL     OW65603   8.956   1.873   8.186  0.3902  0.1085  0.8515
21117SOL    HW165604   8.985   1.782   8.192  1.4855  0.3049 -0.7831
21117SOL    HW265605   9.024   1.922   8.233  1.3022  0.3044 -0.6052
21118SOL     OW65606   9.609  10.181   4.365  0.0750  0.1059 -0.1064
21118SOL    HW165607   9.683  10.130   4.330  0.2974  0.4837 -0.1998
21118SOL    HW265608   9.606  10.258   4.309 -0.4489  0.0503 -0.1522
21119SOL     OW65609   9.212   3.215   2.516  0.1323  0.3103  0.0022
21119SOL    HW165610   9.251   3.277   2.578 -1.7773  0.1365  1.4756
21119SOL    HW265611   9.195   3.137   2.568  1.7429 -1.2499 -1.6373
21120SOL     OW65612   6.085   3.536   9.363 -0.0177  0.1194  0.3313
21120SOL    HW165613   6.107   3.589   9.286  0.2598  1.4628  1.2872
21120SOL    HW265614   6.078   3.447   9.330  0.4437  0.6109 -1.1836
21121SOL     OW65615   5.097   3.143   4.101 -0.2731  0.2415  0.3385
21121SOL    HW165616   5.019   3.093   4.123 -1.0859  1.6390  0.8039
21121SOL    HW265617   5.075   3.234   4.124  1.6581  0.6265  0.9603
21122SOL     OW65618   6.387   6.130   9.374 -0.1100 -0.1760  0.2191
21122SOL    HW165619   6.418   6.140   9.464  1.3221  0.2670 -0.2937
21122SOL    HW265620   6.425   6.048   9.344 -0.6071 -0.3382  0.0209
21123SOL     OW65621   5.244   5.269   7.790  0.2002  0.5951 -0.7521
21123SOL    HW165622   5.251   5.175   7.772  1.1484  0.6146 -0.5481
21123SOL    HW265623   5.329   5.292   7.826 -0.6200  1.1690  0.9184
21124SOL     OW65624   4.488   3.949   7.225 -0.4353  0.0792  0.1817
21124SOL    HW165625   4.403   3.905   7.230  0.3441 -1.7925 -1.5367
21124SOL    HW265626   4.479   4.010   7.153 -0.3535 -0.0602  0.0530
21125SOL     OW65627   5.977   6.196   7.647  0.1033  0.1649  0.3090
21125SOL    HW165628   6.045   6.134   7.620  0.5129  0.2977  0.9929
21125SOL    HW265629   5.896   6.144   7.646  0.0689  0.2083 -1.2661
21126SOL     OW65630   7.436   2.072   3.577 -0.2435 -1.0114 -0.7501
21126SOL    HW165631   7.347   2.103   3.560 -0.1115  0.0089  0.3082
21126SOL    HW265632   7.429   1.976   3.572 -1.6168 -0.9952  0.2258
21127SOL     OW65633   4.601   4.313   2.699  0.1396 -0.3697 -0.3669
21127SOL    HW165634   4.512   4.316   2.733 -0.2500 -2.3799 -1.0343
21127SOL    HW265635   4.657   4.327   2.775 -0.7452  0.3519  0.1538
21128SOL     OW65636   1.861   8.230   1.580 -0.0105  0.0054  0.0951
21128SOL    HW165637   1.889   8.278   1.502 -1.1298  2.8993  1.3381
21128SOL    HW265638   1.902   8.277   1.653 -2.1263 -0.1290  1.4578
21129SOL     OW65639   6.925   9.870   0.441  0.3066 -0.4086 -0.3063
21129SOL    HW165640   6.883   9.954   0.425 -1.0952 -0.5025  2.4032
21129SOL    HW265641   6.855   9.806   0.432  1.6534 -1.6415 -3.9924
21130SOL     OW65642   8.621   6.020   2.802  0.1648 -0.7341  0.7910
21130SOL    HW165643   8.657   5.948   2.751 -0.0777 -0.3350  0.0378
21130SOL    HW265644   8.664   6.098   2.767  0.7228 -0.5418  1.8671
21131SOL     OW65645   6.505   2.937   3.492 -0.2397 -0.0693 -0.0489
21131SOL    HW165646   6.465   2.912   3.575 -0.0117  0.8329  0.3471
21131SOL    HW265647   6.451   3.010   3.460  1.8541  2.1958  1.2242
21132SOL     OW65648   3.473   4.657   0.513 -0.2284 -0.3664  0.2029
21132SOL    HW165649   3.508   4.716   0.579 -0.7561  0.0965  0.0729
21132SOL    HW265650   3.391   4.624   0.550 -0.6379  0.0644 -0.3061
21133SOL     OW65651   1.513   8.472   0.972 -0.0727 -0.3694  0.1224
21133SOL    HW165652   1.496   8.416   1.048 -1.2570 -1.1315 -0.6747
21133SOL    HW265653   1.551   8.414   0.907 -0.0841  0.0372 -0.2535
21134SOL     OW65654   6.568  10.329   3.517 -0.0381 -0.1346 -0.6340
21134SOL    HW165655   6.579  10.422   3.500 -1.4485  0.5366  1.7155
21134SOL    HW265656   6.476  10.312   3.501 -0.3161 -0.5533  1.2474
21135SOL     OW65657   4.127   9.744   3.455  0.1633  0.1806 -0.6425
21135SOL    HW165658   4.204   9.757   3.398 -0.5122  0.6498 -1.4811
21135SOL    HW265659   4.053   9.746   3.394 -0.5084 -0.2937  0.1571
21136SOL     OW65660   3.541   2.456   7.858 -0.1048  0.0375  0.2822
21136SOL    HW165661   3.552   2.373   7.813 -0.2661 -0.9434  1.9552
21136SOL    HW265662   3.494   2.434   7.939  0.8851  1.5615  1.3318
21137SOL     OW65663   8.621   7.021   3.217 -0.2923  0.3103 -0.3150
21137SOL    HW165664   8.537   7.017   3.171 -0.7673 -1.0026  0.6099
21137SOL    HW265665   8.620   6.944   3.275  0.6984  1.3684  1.1691
21138SOL     OW65666   7.801   3.209   2.299 -0.1359 -0.7071 -0.2280
21138SOL    HW165667   7.793   3.244   2.210  0.5453  0.4483  0.1428
21138SOL    HW265668   7.785   3.115   2.289 -1.6317 -0.3727 -1.3195
21139SOL     OW65669  10.347   0.790   6.464  0.6867 -0.3895  0.4974
21139SOL    HW165670  10.411   0.851   6.501  0.5458  0.1352 -0.1141
21139SOL    HW265671  10.333   0.821   6.375  0.6556 -1.3530  0.1535
21140SOL     OW65672   6.467   5.779   0.124 -0.4078 -0.1570 -0.5316
21140SOL    HW165673   6.428   5.850   0.175  1.7940  1.7688 -1.3518
21140SOL    HW265674   6.464   5.703   0.182 -2.8766  0.5367  0.3766
21141SOL     OW65675   1.940   6.820   0.835 -0.6645 -0.0743 -0.3863
21141SOL    HW165676   1.970   6.878   0.905  0.2411 -0.3393 -0.5440
21141SOL    HW265677   1.893   6.750   0.881  2.2751 -1.7931  0.3104
21142SOL     OW65678   9.303   1.086   5.445  0.2063 -0.3163  0.1848
21142SOL    HW165679   9.386   1.087   5.398  0.9923 -1.7048  1.4621
21142SOL    HW265680   9.323   1.125   5.530 -1.0152  1.4708 -0.2916
21143SOL     OW65681   5.493   1.374   7.870 -0.4757 -0.4823 -0.1020
21143SOL    HW165682   5.541   1.444   7.826 -1.3378 -0.1326 -0.5258
21143SOL    HW265683   5.511   1.386   7.963 -0.1143 -0.0867 -0.2215
21144SOL     OW65684   7.759   0.221   9.661  0.3032  0.1457 -0.8025
21144SOL    HW165685   7.750   0.192   9.570 -1.9038  2.5312 -1.4614
21144SOL    HW265686   7.757   0.316   9.656  2.3391  0.4068  1.6370
21145SOL     OW65687   5.086   6.249   1.560 -0.4320 -0.1180 -0.0831
21145SOL    HW165688   5.063   6.206   1.643  0.5731  1.3982  1.0213
21145SOL    HW265689   5.060   6.340   1.572  0.3838  0.2734 -1.1756
21146SOL     OW65690   3.768   4.997   7.509 -0.0853 -0.0572  0.1140
21146SOL    HW165691   3.741   4.969   7.597 -0.4449  1.3806  0.4888
21146SOL    HW265692   3.687   5.023   7.466 -0.0146 -1.5003 -0.9602
21147SOL     OW65693   8.416   9.032   9.823  0.5006  0.6472 -0.4876
21147SOL    HW165694   8.426   8.979   9.901  0.3911  1.3694  0.0307
21147SOL    HW265695   8.414   8.969   9.751  0.8859 -0.0091  0.0611
21148SOL     OW65696   7.015   7.616   5.050 -0.4257 -0.5121 -0.2943
21148SOL    HW165697   6.925   7.583   5.057 -1.1310  1.0036 -1.7504
21148SOL    HW265698   7.006   7.705   5.016  1.5951  0.0172  0.4205
21149SOL     OW65699   7.820   0.203   0.701 -0.1437 -0.7098 -0.8722
21149SOL    HW165700   7.752   0.261   0.666 -1.4857 -1.2790  0.6295
21149SOL    HW265701   7.869   0.174   0.625 -1.4531 -0.0894 -1.9919
21150SOL     OW65702   5.455   9.243   3.334  0.0758 -0.6923 -0.3868
21150SOL    HW165703   5.386   9.219   3.396 -1.0782  1.6596 -0.6820
21150SOL    HW265704   5.423   9.212   3.249 -1.2051  1.3002 -0.6967
21151SOL     OW65705   7.478   8.940  10.225  0.2292 -0.1801  0.1981
21151SOL    HW165706   7.524   8.997  10.287 -1.4645  0.8379  0.5962
21151SOL    HW265707   7.433   9.001  10.166 -0.4851 -1.1129 -0.2522
21152SOL     OW65708   1.397   6.919   3.476  0.3504  0.3300 -0.0377
21152SOL    HW165709   1.354   7.003   3.488 -1.0729 -0.3196 -0.4197
21152SOL    HW265710   1.383   6.898   3.383 -0.4818 -0.9438  0.3577
21153SOL     OW65711   3.693  10.417   4.134 -0.3396 -0.2665 -0.1058
21153SOL    HW165712   3.760  10.391   4.197 -1.7444 -0.5056  1.3438
21153SOL    HW265713   3.726  10.499   4.097  0.0825  0.3902  1.6411
21154SOL     OW65714   6.978  10.636   2.105 -0.1036  0.0290  0.4306
21154SOL    HW165715   6.887  10.616   2.084 -0.3371  0.4977  0.9657
21154SOL    HW265716   6.972  10.700   2.176  0.6286  1.2563 -0.5884
21155SOL     OW65717   8.334   0.522   5.794 -0.1293 -0.1992  0.1397
21155SOL    HW165718   8.251   0.526   5.842 -0.2573 -0.3612 -0.0671
21155SOL    HW265719   8.338   0.605   5.746  0.0951  0.0541  0.5851
21156SOL     OW65720   2.407   6.616   2.035 -0.1743  0.3394 -0.4725
21156SOL    HW165721   2.422   6.525   2.010  0.7493  0.4410 -0.3274
21156SOL    HW265722   2.369   6.656   1.957 -2.2558 -0.5619  0.0312
21157SOL     OW65723   0.008  10.419   9.191 -0.2597 -0.2458 -0.5463
21157SOL    HW165724   0.066  10.420   9.115 -0.1841  1.0518 -0.5009
21157SOL    HW265725   0.062  10.448   9.264 -0.5315 -0.7064 -0.1577
21158SOL     OW65726   5.653  10.063   9.693  0.1449  0.0066 -0.0197
21158SOL    HW165727   5.711  10.015   9.753  0.9709  1.2869  0.2435
21158SOL    HW265728   5.591  10.108   9.750  1.1584  1.5222 -0.0583
21159SOL     OW65729   6.145   5.159   2.767  0.1167 -0.1249  0.2344
21159SOL    HW165730   6.124   5.219   2.839 -0.0043  0.1199 -0.0050
21159SOL    HW265731   6.153   5.216   2.690  0.9160 -0.2975  0.1783
21160SOL     OW65732   1.507   2.446   0.247 -0.0292 -0.3792 -0.2505
21160SOL    HW165733   1.527   2.476   0.158  0.4122 -0.0692 -0.0498
21160SOL    HW265734   1.585   2.467   0.297 -0.6995  0.4885  0.4672
21161SOL     OW65735   9.401   1.774   2.673  0.5406 -0.2842  0.7122
21161SOL    HW165736   9.452   1.696   2.651 -0.5866 -1.1810  1.1849
21161SOL    HW265737   9.382   1.765   2.766 -0.4988  0.0092  0.5438
21162SOL     OW65738   8.848   9.886   1.354  0.0464 -0.0459  0.0467
21162SOL    HW165739   8.788   9.906   1.282  1.0711  0.8999 -0.5742
21162SOL    HW265740   8.853   9.967   1.404 -0.6409 -0.6869  1.2149
21163SOL     OW65741   3.232   9.571   0.394  0.4853 -0.5813 -0.4123
21163SOL    HW165742   3.145   9.607   0.377  1.5769  1.7353 -1.5430
21163SOL    HW265743   3.260   9.534   0.310  0.7181 -1.0500 -0.1342
21164SOL     OW65744   8.365   8.623  10.152  0.1062 -0.9770 -0.5647
21164SOL    HW165745   8.315   8.639  10.232 -0.2671  0.5433 -1.0697
21164SOL    HW265746   8.337   8.536  10.124 -0.0732 -1.3617  0.7178
21165SOL     OW65747   6.167   4.603   9.823 -0.2436 -0.5286  0.0913
21165SOL    HW165748   6.192   4.666   9.756 -0.6750  0.4036  0.7807
21165SOL    HW265749   6.071   4.606   9.824 -0.2892 -1.4984 -0.1361
21166SOL     OW65750   0.683   0.579   1.222  0.0586  0.1109 -0.0143
21166SOL    HW165751   0.637   0.538   1.295  0.7299  2.0035  1.5593
21166SOL    HW265752   0.776   0.560   1.237  0.1325 -0.2934 -0.9198
21167SOL     OW65753   4.127   9.729   7.913 -0.0872 -0.2337 -0.0380
21167SOL    HW165754   4.196   9.729   7.979  0.7774  0.1352 -0.9274
21167SOL    HW265755   4.087   9.642   7.919 -0.4996  0.0337  1.4432
21168SOL     OW65756   0.379   5.273   2.159 -0.4812  0.2379  0.0871
21168SOL    HW165757   0.400   5.263   2.252  0.5420  1.3551 -0.0039
21168SOL    HW265758   0.311   5.341   2.157 -1.1665 -0.4316  0.0676
21169SOL     OW65759   2.617   0.435   1.376 -0.0086  0.7641  0.3421
21169SOL    HW165760   2.637   0.495   1.447  3.6503 -0.5247  0.6033
21169SOL    HW265761   2.617   0.490   1.297 -0.3601  1.6163  0.9197
21170SOL     OW65762   3.462   1.778   3.517  0.5343 -0.3002 -0.3553
21170SOL    HW165763   3.510   1.859   3.530 -1.6352  1.0317 -0.2630
21170SOL    HW265764   3.466   1.733   3.602  0.1100  0.6286  0.1598
21171SOL     OW65765   8.423   2.841   2.626  0.0839  0.3956 -0.3039
21171SOL    HW165766   8.386   2.756   2.603  0.9872  0.1169 -0.7956
21171SOL    HW265767   8.480   2.822   2.701 -0.8301  0.8371  0.5192
21172SOL     OW65768   3.227   3.361   1.372  0.6505  0.5650  0.4230
21172SOL    HW165769   3.164   3.332   1.306  0.3041  0.6176  0.7273
21172SOL    HW265770   3.287   3.418   1.324 -0.1209  1.3192  0.3296
21173SOL     OW65771   4.568   2.592  10.479 -0.3877  0.1809  0.1336
21173SOL    HW165772   4.649   2.595  10.428  0.6902 -0.0918  1.7755
21173SOL    HW265773   4.538   2.683  10.480  0.0307  0.3315 -0.2658
21174SOL     OW65774  10.620   7.418   1.848 -0.0518  0.1313  0.2944
21174SOL    HW165775  10.592   7.330   1.823 -0.3625 -0.0039  1.1139
21174SOL    HW265776  10.623   7.417   1.943  0.8539  0.7313  0.2883
21175SOL     OW65777   9.028   9.639   7.011  0.6604  0.5213  0.2891
21175SOL    HW165778   9.085   9.601   6.945  0.3765 -0.1052  0.3979
21175SOL    HW265779   9.060   9.604   7.094  0.7210  0.9307  0.4404
21176SOL     OW65780   6.044   0.469   4.528  0.0366  0.1109  0.3623
21176SOL    HW165781   5.949   0.479   4.536 -0.1182 -1.8699  2.1024
21176SOL    HW265782   6.058   0.374   4.529  2.0132  0.3406 -0.6046
21177SOL     OW65783   7.891   4.642   7.185 -0.5401 -0.1744  0.5480
21177SOL    HW165784   7.906   4.548   7.197  1.6415 -0.1626 -1.3763
21177SOL    HW265785   7.968   4.684   7.222 -1.4438  0.8884  1.2954
21178SOL     OW65786   5.531   3.295   4.142 -0.1807 -0.2336 -0.7221
21178SOL    HW165787   5.558   3.232   4.209 -0.9489 -0.8638 -0.9875
21178SOL    HW265788   5.538   3.380   4.184  0.8769 -0.4884 -0.3533
21179SOL     OW65789   6.632   2.050   7.063  0.0437  0.3828 -0.5203
21179SOL    HW165790   6.681   2.032   6.983 -0.4185 -0.0729 -0.7073
21179SOL    HW265791   6.699   2.077   7.126  1.0716 -3.2645  0.2023
21180SOL     OW65792   5.484   0.442   3.225  0.3634  0.4984  0.0517
21180SOL    HW165793   5.426   0.507   3.184 -0.0874  1.2318  1.7930
21180SOL    HW265794   5.431   0.363   3.231  1.1204 -0.3329 -2.6829
21181SOL     OW65795   1.937   5.439   5.498  0.0480  0.1493 -0.3217
21181SOL    HW165796   1.920   5.466   5.588  1.8585 -0.5970  0.2833
21181SOL    HW265797   1.911   5.514   5.444 -1.3311  0.4919  0.7637
21182SOL     OW65798   2.643   8.999   6.615 -0.4377  0.5758  0.6526
21182SOL    HW165799   2.724   9.039   6.646  0.3359 -0.1443 -0.4052
21182SOL    HW265800   2.592   8.984   6.695  0.9885 -0.1072  1.4561
21183SOL     OW65801   7.834   8.982   2.685 -0.6238  0.3616 -0.1163
21183SOL    HW165802   7.859   8.890   2.698 -1.8778  0.0084 -0.0954
21183SOL    HW265803   7.764   8.997   2.748  0.7417  1.8829  1.1261
21184SOL     OW65804   6.092   8.281   6.190 -0.3696  0.2431  0.4210
21184SOL    HW165805   6.107   8.191   6.160  0.6859  0.5507 -0.0157
21184SOL    HW265806   6.016   8.310   6.140 -0.2533 -0.1538  0.0005
21185SOL     OW65807   5.466   0.205   9.534  0.4233 -0.4068  0.8424
21185SOL    HW165808   5.473   0.110   9.527  0.2659 -0.3707  0.0707
21185SOL    HW265809   5.489   0.237   9.447 -1.0847  0.1767  0.6263
21186SOL     OW65810   2.616   6.520   2.963 -0.1787  0.1662 -0.0179
21186SOL    HW165811   2.553   6.529   2.892 -0.3741  1.7200  0.3205
21186SOL    HW265812   2.701   6.533   2.920  0.0744 -2.8283 -0.6441
21187SOL     OW65813   8.763   6.120   2.583 -0.1228  0.4754  0.3417
21187SOL    HW165814   8.693   6.185   2.588 -0.6026  0.1099 -1.1532
21187SOL    HW265815   8.734   6.058   2.516  0.2846 -1.3340  1.7496
21188SOL     OW65816   1.361   6.578   4.746 -0.3762 -0.0445  0.0095
21188SOL    HW165817   1.455   6.578   4.759 -0.3217  1.7656 -0.0919
21188SOL    HW265818   1.344   6.655   4.692 -2.0208  0.4254  1.0935
21189SOL     OW65819   7.836   7.188   1.426 -0.0901  0.1689 -0.0968
21189SOL    HW165820   7.850   7.135   1.348  0.7632  1.3867 -0.8171
21189SOL    HW265821   7.903   7.158   1.488 -0.4092 -0.4212 -0.0318
21190SOL     OW65822  10.443   5.708   5.850 -0.3562  0.4784  0.2221
21190SOL    HW165823  10.523   5.705   5.798  0.1668  0.4300  1.0116
21190SOL    HW265824  10.387   5.772   5.806  0.3111  0.8749 -0.0490
21191SOL     OW65825   6.955   2.102   3.063 -0.7410  0.3695  0.4687
21191SOL    HW165826   6.914   2.025   3.102  0.7300 -0.2505  0.8953
21191SOL    HW265827   6.891   2.172   3.074 -1.5505 -0.4762  1.3424
21192SOL     OW65828   2.262   5.860   6.738 -0.1695 -0.0423  0.5948
21192SOL    HW165829   2.336   5.800   6.737  0.1403  0.3232  1.2793
21192SOL    HW265830   2.186   5.804   6.718 -0.0459 -0.9045  2.3018
21193SOL     OW65831   5.906   1.717   0.417  0.0246 -0.1618 -0.6596
21193SOL    HW165832   5.912   1.631   0.459 -0.8033 -0.4858 -1.1789
21193SOL    HW265833   5.884   1.777   0.489  0.0661 -0.4749 -0.3858
21194SOL     OW65834   0.673   3.963   7.471 -0.2853  0.7130 -0.0996
21194SOL    HW165835   0.757   3.978   7.514 -0.2860 -0.1751  0.2291
21194SOL    HW265836   0.635   3.888   7.517 -0.8318  0.5074 -0.8622
21195SOL     OW65837   8.035   0.745   1.673  0.0769  0.6575  0.3436
21195SOL    HW165838   8.104   0.746   1.607  0.2880  0.3397  0.5549
21195SOL    HW265839   8.082   0.748   1.757 -0.1876  1.0511  0.4798
21196SOL     OW65840   3.637   2.015   3.354 -0.0558  0.2417  0.2258
21196SOL    HW165841   3.595   2.020   3.440 -0.2351 -2.0063  0.3320
21196SOL    HW265842   3.572   2.050   3.293 -1.1282 -0.8318  0.6979
21197SOL     OW65843   3.014   4.479   6.485  0.1628 -0.1037 -0.8067
21197SOL    HW165844   3.005   4.411   6.551  1.9885  0.9489  0.5954
21197SOL    HW265845   2.924   4.503   6.463 -0.4833 -1.4873  0.2111
21198SOL     OW65846   2.820   7.520   2.245  0.0046  0.0556 -0.2531
21198SOL    HW165847   2.781   7.599   2.282  1.4526  0.2104  1.0539
21198SOL    HW265848   2.906   7.547   2.216  0.2109 -0.8705 -0.5376
21199SOL     OW65849   7.320   4.817   7.069  0.1149  0.0958  0.0040
21199SOL    HW165850   7.242   4.774   7.106 -0.0785  1.6018  1.4376
21199SOL    HW265851   7.365   4.854   7.145  0.7771  1.5900 -1.0885
21200SOL     OW65852   7.385  10.240   0.518  0.3700 -0.0686 -0.0605
21200SOL    HW165853   7.318  10.279   0.574 -0.0091 -0.9245  0.0865
21200SOL    HW265854   7.412  10.161   0.563 -0.1357 -0.9193 -1.1977
21201SOL     OW65855   7.343   8.319   5.886  0.3217  0.1829  0.8567
21201SOL    HW165856   7.429   8.292   5.916  1.4872 -0.9865 -2.9258
21201SOL    HW265857   7.360   8.398   5.833 -0.7027 -0.5777 -0.6966
21202SOL     OW65858   9.156   6.712   2.077 -0.3320 -0.1601  0.8026
21202SOL    HW165859   9.102   6.765   2.019  0.2063 -1.8837 -1.4131
21202SOL    HW265860   9.214   6.664   2.018  0.2730 -2.0095  2.7751
21203SOL     OW65861   4.887   4.276   1.354 -0.0637  0.4444 -0.2091
21203SOL    HW165862   4.887   4.368   1.381  0.2755  0.8910 -1.6462
21203SOL    HW265863   4.943   4.274   1.277  1.9095 -1.3997  1.1509
21204SOL     OW65864   1.329   0.688   9.920 -0.9028  0.3181 -0.2987
21204SOL    HW165865   1.353   0.596   9.937 -2.5728  0.2983  2.8471
21204SOL    HW265866   1.273   0.684   9.843 -1.5809 -1.4726  0.2342
21205SOL     OW65867   3.075   7.898   0.421 -0.2327 -0.2017 -0.1449
21205SOL    HW165868   2.984   7.905   0.393 -0.4295 -3.1695 -0.6034
21205SOL    HW265869   3.073   7.839   0.497  1.3195 -0.6378 -0.3915
21206SOL     OW65870   6.183   2.851   9.141  0.1998 -0.4246 -0.5308
21206SOL    HW165871   6.156   2.769   9.181 -1.2437  0.6178  0.7419
21206SOL    HW265872   6.127   2.917   9.180  1.4111  1.2167 -1.4087
21207SOL     OW65873   7.495   3.207   3.654 -0.0084  0.3039  0.0223
21207SOL    HW165874   7.569   3.157   3.688  0.7012  0.9834 -0.4720
21207SOL    HW265875   7.443   3.144   3.605  0.2791 -0.1677  0.3213
21208SOL     OW65876   2.530   6.901   9.865 -0.3858 -0.6160  0.2848
21208SOL    HW165877   2.577   6.873   9.944  0.1146  0.7135  0.4764
21208SOL    HW265878   2.503   6.991   9.884  3.3733  1.3659 -2.5519
21209SOL     OW65879  10.560   8.848   0.803 -0.4494 -0.2253 -0.0163
21209SOL    HW165880  10.587   8.852   0.711 -0.2379 -2.2385 -0.0962
21209SOL    HW265881  10.621   8.906   0.848  1.0185 -1.0528 -0.8525
21210SOL     OW65882   5.744   5.126  10.452  0.2336  0.8177  0.0234
21210SOL    HW165883   5.682   5.084  10.512  0.3713  1.6072  0.7303
21210SOL    HW265884   5.704   5.115  10.366 -0.1386 -0.0226  0.2913
21211SOL     OW65885   2.051   3.090   4.977  0.0430 -0.3788 -0.1696
21211SOL    HW165886   2.034   3.179   5.009  0.5739  0.1877 -1.3877
21211SOL    HW265887   1.986   3.036   5.021  1.0160  0.2475  2.2306
21212SOL     OW65888  10.181   0.559   0.130  0.0121  0.2421  0.5811
21212SOL    HW165889  10.238   0.607   0.189 -0.7453  2.4758 -0.3725
21212SOL    HW265890  10.174   0.616   0.053 -1.3993 -1.1728 -0.3903
21213SOL     OW65891   2.210   9.128   9.385  0.5965  0.0378  0.1828
21213SOL    HW165892   2.148   9.055   9.378 -0.5187  0.6552  2.6583
21213SOL    HW265893   2.154   9.205   9.396  1.7957  1.0403 -0.5939
21214SOL     OW65894   7.375   4.521   8.298  0.0979 -0.6418 -0.0416
21214SOL    HW165895   7.456   4.565   8.274 -1.0222  1.8615  0.4338
21214SOL    HW265896   7.402   4.438   8.337  2.5012  0.8535  1.6545
21215SOL     OW65897   8.323   8.961   9.494 -0.1026 -0.7917  0.2668
21215SOL    HW165898   8.273   8.970   9.413 -0.2118  0.9346  0.4937
21215SOL    HW265899   8.309   9.043   9.541  1.1404 -1.1661  1.3764
21216SOL     OW65900   4.257   3.109   2.021 -0.0829  0.0425  0.4757
21216SOL    HW165901   4.288   3.070   1.939  1.2242  0.6087  0.6733
21216SOL    HW265902   4.240   3.200   1.999  2.1574  0.7135  1.2204
21217SOL     OW65903   6.654   6.023   5.096  0.1510  0.2276 -0.3538
21217SOL    HW165904   6.562   6.018   5.120 -0.4715  1.2675 -2.3443
21217SOL    HW265905   6.681   5.932   5.084  0.0035 -0.2351  2.1733
21218SOL     OW65906   6.293   2.392   4.992  0.5912 -0.4636 -0.7892
21218SOL    HW165907   6.236   2.421   5.064  1.3608 -0.7114 -0.0605
21218SOL    HW265908   6.239   2.332   4.941 -0.2149  0.3207 -0.8730
21219SOL     OW65909   1.758   8.163   9.474 -0.4830  0.3275  0.0739
21219SOL    HW165910   1.829   8.204   9.523 -0.5315  1.4027 -0.7048
21219SOL    HW265911   1.783   8.174   9.382 -1.0823 -0.3451 -0.1834
21220SOL     OW65912   8.160   4.052   5.893  0.0850 -0.0446  0.0633
21220SOL    HW165913   8.100   3.978   5.882 -0.1667  0.1090  0.3769
21220SOL    HW265914   8.247   4.013   5.887 -0.0368 -0.4796  0.8624
21221SOL     OW65915   0.819   2.220   6.213  0.0741 -0.0958  0.1092
21221SOL    HW165916   0.898   2.272   6.195  0.3458  0.2792  2.1215
21221SOL    HW265917   0.768   2.224   6.132  2.3900 -0.9025 -1.5064
21222SOL     OW65918   2.957   7.370   0.492  0.2318 -0.1400  0.1020
21222SOL    HW165919   2.911   7.313   0.430  1.0327  0.0937 -0.7372
21222SOL    HW265920   2.952   7.457   0.453  0.7626  0.0062  0.3451
21223SOL     OW65921   3.508   8.814   9.492  0.3330  0.1343  0.0234
21223SOL    HW165922   3.592   8.792   9.452 -0.5536 -0.5235 -1.5517
21223SOL    HW265923   3.445   8.809   9.420 -1.5094 -2.0736  1.6414
21224SOL     OW65924   5.141  10.507   2.201 -0.4825  0.2321 -0.3164
21224SOL    HW165925   5.066  10.565   2.197  0.3453  1.2622 -1.3678
21224SOL    HW265926   5.216  10.562   2.178  0.6920 -0.6206  1.2257
21225SOL     OW65927   8.806   2.432   9.015 -0.4058  0.2211 -0.4649
21225SOL    HW165928   8.817   2.526   9.005  1.0362  0.3595  1.6537
21225SOL    HW265929   8.711   2.419   9.022 -0.6307  1.4683 -1.0994
21226SOL     OW65930   8.028   8.102   9.651 -0.4127  0.0285 -0.2806
21226SOL    HW165931   8.058   8.170   9.711 -0.4538 -1.2694  1.2747
21226SOL    HW265932   7.938   8.085   9.677  0.2459 -2.1253  0.8789
21227SOL     OW65933   7.677   1.592   8.910  0.4765 -0.4059 -0.3727
21227SOL    HW165934   7.701   1.616   8.999  1.7646 -0.5916 -0.6638
21227SOL    HW265935   7.714   1.662   8.855  0.2101 -0.6067 -0.8178
21228SOL     OW65936  10.000   4.708   2.152 -0.1174 -0.1086  0.0692
21228SOL    HW165937   9.923   4.732   2.203  0.6893  0.0664  1.2516
21228SOL    HW265938  10.034   4.630   2.195  0.7317  0.1925 -0.0342
21229SOL     OW65939   9.637   8.768   4.786 -0.1748 -0.2843  0.4799
21229SOL    HW165940   9.640   8.807   4.699  1.5266  2.5352  1.6578
21229SOL    HW265941   9.702   8.698   4.783  1.7119  1.3613  0.0381
21230SOL     OW65942   7.909   4.647   8.305 -0.1185 -0.7806  0.5335
21230SOL    HW165943   7.946   4.626   8.391  0.8859 -0.5930  0.1568
21230SOL    HW265944   7.851   4.721   8.322 -0.0864 -0.8763  1.0806
21231SOL     OW65945   9.729   8.207   7.510 -0.1782 -0.1935  0.5087
21231SOL    HW165946   9.786   8.156   7.452  0.9017  0.2694  1.1359
21231SOL    HW265947   9.679   8.141   7.559 -1.6788 -0.5983 -1.4477
21232SOL     OW65948   3.788   2.185   8.242  0.0321  0.6428  0.6250
21232SOL    HW165949   3.760   2.145   8.160  1.2530 -0.1445  0.5631
21232SOL    HW265950   3.740   2.267   8.246 -1.2768 -0.0612 -0.0672
21233SOL     OW65951   7.424   3.849  10.394  0.2941  0.3544  0.1122
21233SOL    HW165952   7.336   3.833  10.361 -1.1922  4.2987  1.5559
21233SOL    HW265953   7.444   3.772  10.448 -1.2043 -1.6724 -2.0301
21234SOL     OW65954   0.729   3.100   8.901 -0.4247 -0.3453 -0.0810
21234SOL    HW165955   0.731   3.071   8.810  0.2959  0.2372 -0.2603
21234SOL    HW265956   0.657   3.051   8.940 -1.7098  0.4828 -1.3199
21235SOL     OW65957   3.841   8.409   7.225 -0.3661  0.1113  0.0550
21235SOL    HW165958   3.915   8.381   7.171 -1.0349 -0.4188 -0.5962
21235SOL    HW265959   3.828   8.337   7.287  1.8770  1.6686  2.5405
21236SOL     OW65960   5.260   9.919   8.468  0.3681 -0.2018  0.1060
21236SOL    HW165961   5.170   9.913   8.500 -0.4344 -0.1788 -1.9825
21236SOL    HW265962   5.293  10.002   8.504 -1.1173  0.7540 -0.6318
21237SOL     OW65963   1.654   2.581   4.631  0.0040  0.1943  0.4095
21237SOL    HW165964   1.707   2.660   4.619 -0.1763  0.1093 -1.0935
21237SOL    HW265965   1.698   2.514   4.579 -1.8048  0.2486 -1.3131
21238SOL     OW65966  10.238   5.532   6.288 -0.0309  0.6964 -0.1453
21238SOL    HW165967  10.328   5.506   6.269  0.3396  1.0313  1.0736
21238SOL    HW265968  10.189   5.449   6.288  0.8962  0.0433  2.3860
21239SOL     OW65969   5.472   7.070   4.799  0.5304 -0.3999  0.0440
21239SOL    HW165970   5.512   7.087   4.714  2.1978 -1.8252  0.4910
21239SOL    HW265971   5.434   6.983   4.791  0.6569 -0.5235  0.7360
21240SOL     OW65972   9.291   2.695   7.583  0.0763  0.0022  0.0924
21240SOL    HW165973   9.255   2.609   7.562  0.4582  0.1999 -1.5149
21240SOL    HW265974   9.382   2.691   7.554  0.5548  0.4660  1.4292
21241SOL     OW65975   3.535  10.572   5.317  0.2149 -0.6680 -0.6970
21241SOL    HW165976   3.452  10.602   5.279  0.5808  1.7292  0.2247
21241SOL    HW265977   3.536  10.610   5.404  1.6471 -1.9090 -0.1347
21242SOL     OW65978   9.730   0.881   8.475 -0.2536  0.1537  0.4611
21242SOL    HW165979   9.796   0.910   8.538 -1.2163 -0.0275  1.5942
21242SOL    HW265980   9.653   0.862   8.529 -1.5958  1.4294 -0.9204
21243SOL     OW65981   0.919  10.156   2.339  0.5472  0.1613 -0.2154
21243SOL    HW165982   0.945  10.229   2.395  1.0038 -0.1054 -0.0788
21243SOL    HW265983   0.829  10.138   2.364  0.3267  0.8791 -0.4638
21244SOL     OW65984   2.278   6.187   8.176 -0.4028  0.4930 -0.5342
21244SOL    HW165985   2.264   6.275   8.210 -0.7294  0.4119 -0.4530
21244SOL    HW265986   2.189   6.152   8.162 -0.3545 -0.8079  1.9647
21245SOL     OW65987   8.844   3.550   8.567  0.1055 -0.4685  0.2662
21245SOL    HW165988   8.906   3.480   8.589 -0.1112 -1.3121 -1.5812
21245SOL    HW265989   8.888   3.600   8.499 -0.0163  0.8254  1.1144
21246SOL     OW65990   1.915   1.129   1.655  0.1220  0.0419 -0.0355
21246SOL    HW165991   1.831   1.115   1.698 -0.0531  0.3492 -0.2692
21246SOL    HW265992   1.898   1.115   1.562  0.3971 -0.1809 -0.0546
21247SOL     OW65993   7.275  10.207   5.041  0.3540 -0.4721  0.1937
21247SOL    HW165994   7.322  10.124   5.052 -0.2585 -0.8307  0.1670
21247SOL    HW265995   7.192  10.182   5.000 -0.5649 -0.0612  1.7317
21248SOL     OW65996   6.268   3.196   7.374  0.8086 -0.4368 -0.3023
21248SOL    HW165997   6.252   3.255   7.301  1.1864 -1.2264 -1.0412
21248SOL    HW265998   6.363   3.181   7.373  0.6876 -1.2710 -0.3138
21249SOL     OW65999   0.649   8.449   2.122  0.1649 -0.1513  0.3668
21249SOL    HW166000   0.658   8.462   2.028  1.6800  0.9894  0.6290
21249SOL    HW266001   0.639   8.537   2.158 -2.5194 -0.6895  1.1363
21250SOL     OW66002   6.643   0.611   1.936  0.3047 -0.1801 -0.2935
21250SOL    HW166003   6.668   0.691   1.890  0.8266  0.1579  0.5524
21250SOL    HW266004   6.608   0.554   1.868 -1.5375  1.3224 -0.6990
21251SOL     OW66005   6.286   4.390   4.776 -0.5072  0.4697 -0.1473
21251SOL    HW166006   6.359   4.444   4.745  0.6794  0.2751  2.0822
21251SOL    HW266007   6.323   4.302   4.780 -1.2835  0.1386 -0.2478
21252SOL     OW66008   9.493   1.843   1.143 -0.5394 -0.4948 -0.8233
21252SOL    HW166009   9.580   1.840   1.182  0.2082  0.5798 -2.3156
21252SOL    HW266010   9.433   1.837   1.217  0.7718 -2.2659  0.1563
21253SOL     OW66011   3.546  10.238   2.502 -0.2509  0.1231 -0.0035
21253SOL    HW166012   3.509  10.286   2.428 -0.1472 -1.1665 -0.9221
21253SOL    HW266013   3.639  10.230   2.482 -0.0787  0.4394  0.6545
21254SOL     OW66014   0.504   1.528   0.865  0.5665 -0.4476  0.0559
21254SOL    HW166015   0.564   1.512   0.792 -0.6819  0.6447 -1.2871
21254SOL    HW266016   0.434   1.580   0.826 -0.0882  0.2639  2.0872
21255SOL     OW66017   1.163   3.383   8.310 -0.1584  0.2263 -0.5402
21255SOL    HW166018   1.171   3.338   8.394  0.2915  2.0954  0.4822
21255SOL    HW266019   1.231   3.344   8.256  0.2468 -0.2958  0.3191
21256SOL     OW66020   8.641   0.344   7.639 -0.3401 -0.3346 -0.2055
21256SOL    HW166021   8.581   0.284   7.683  0.5962  0.0265  1.6596
21256SOL    HW266022   8.725   0.300   7.640 -0.1945 -0.1039 -1.2525
21257SOL     OW66023   2.565   4.231   9.912 -0.2685 -0.4737  0.2718
21257SOL    HW166024   2.568   4.214   9.818 -0.0208  0.8621  0.0104
21257SOL    HW266025   2.636   4.294   9.927 -0.1865 -0.8071  1.3864
21258SOL     OW66026   2.052   5.757   2.276  0.5315 -0.1693  0.2968
21258SOL    HW166027   2.031   5.730   2.365 -0.0709 -0.7529 -0.0162
21258SOL    HW266028   2.018   5.846   2.269 -0.0389 -0.3748  0.4333
21259SOL     OW66029   0.684   8.826   9.022 -0.0425  0.1506  0.6521
21259SOL    HW166030   0.703   8.903   9.077  0.1002  0.1665  0.5818
21259SOL    HW266031   0.694   8.751   9.081 -2.7415  0.3013  1.4292
21260SOL     OW66032   0.230   8.990   8.781 -0.0004  0.0311 -0.1735
21260SOL    HW166033   0.149   8.986   8.833  0.8846  0.7204  1.3377
21260SOL    HW266034   0.287   9.047   8.832  1.0682  0.4143 -1.7618
21261SOL     OW66035   5.432   2.092   1.556 -0.1048 -0.2989 -0.4005
21261SOL    HW166036   5.390   2.107   1.640  1.1008 -0.7161  0.3053
21261SOL    HW266037   5.414   2.000   1.536  0.1611 -0.3786 -0.2756
21262SOL     OW66038   2.558   3.804   1.873 -0.4795  0.1679 -0.3118
21262SOL    HW166039   2.622   3.735   1.856 -0.3132  0.5795 -1.5005
21262SOL    HW266040   2.590   3.849   1.951  0.5068  0.1604 -0.7028
21263SOL     OW66041   9.484   0.830   9.647  0.0616 -0.2242  0.1873
21263SOL    HW166042   9.541   0.887   9.596  0.3577  0.5506  1.3449
21263SOL    HW266043   9.463   0.758   9.588 -0.2698  1.0329 -1.2940
21264SOL     OW66044   8.418   7.209   4.870  0.2289 -0.2360 -0.2589
21264SOL    HW166045   8.369   7.213   4.788  2.0989  1.9317 -1.3613
21264SOL    HW266046   8.492   7.151   4.851  0.8357  0.5196 -0.2218
21265SOL     OW66047   6.468   9.770   4.922  0.3607  0.0085 -0.4022
21265SOL    HW166048   6.557   9.746   4.946  1.2434  1.4364 -2.0071
21265SOL    HW266049   6.416   9.754   5.001  1.7768 -2.0321  0.1857
21266SOL     OW66050   0.196   9.720   2.766 -0.0934 -0.9711  0.0456
21266SOL    HW166051   0.146   9.659   2.820 -0.9066 -0.4122 -0.0572
21266SOL    HW266052   0.167   9.702   2.677 -0.0121 -0.7374 -0.0284
21267SOL     OW66053   7.694   8.183  10.429 -0.0890 -0.1684 -0.4165
21267SOL    HW166054   7.712   8.264  10.476  0.3660 -0.9384  0.8015
21267SOL    HW266055   7.777   8.159  10.388 -0.0490 -0.3563 -0.2270
21268SOL     OW66056   5.460   8.651   3.861 -0.8780 -0.5285  0.1594
21268SOL    HW166057   5.545   8.695   3.860 -1.2065  0.1684 -1.3971
21268SOL    HW266058   5.472   8.574   3.916  1.2949 -1.4531 -1.4774
21269SOL     OW66059   9.562   7.552   5.169  0.6158  0.6083  0.3144
21269SOL    HW166060   9.605   7.502   5.238 -0.5611 -0.0299  0.5908
21269SOL    HW266061   9.576   7.644   5.194  1.2987  0.4046  0.7085
21270SOL     OW66062   2.907   3.577   6.871  0.2349 -0.5048  0.3210
21270SOL    HW166063   2.986   3.624   6.845  0.0240 -0.4171 -0.1817
21270SOL    HW266064   2.836   3.639   6.854  0.1110 -0.3225  1.4372
21271SOL     OW66065   1.546   2.499   6.363  0.7342 -0.2005 -0.1699
21271SOL    HW166066   1.527   2.416   6.407 -0.2890  1.0098  1.8005
21271SOL    HW266067   1.623   2.480   6.309  0.8172 -2.2918  0.5784
21272SOL     OW66068  10.413   8.162   7.368  0.1786 -0.4675 -0.1203
21272SOL    HW166069  10.366   8.213   7.434 -1.8809 -1.2190 -0.9180
21272SOL    HW266070  10.365   8.079   7.363  1.8435 -1.4402 -0.7551
21273SOL     OW66071   1.652   8.990   1.377 -0.1091 -0.2030  0.3851
21273SOL    HW166072   1.716   8.967   1.444  1.2448 -2.5131 -1.5621
21273SOL    HW266073   1.584   8.923   1.386 -0.0797 -0.3312 -0.3314
21274SOL     OW66074   4.450   9.752   1.139  0.1901 -0.3978 -0.3590
21274SOL    HW166075   4.536   9.792   1.131 -0.9842  1.9862 -2.7828
21274SOL    HW266076   4.392   9.826   1.159 -1.4701 -1.7196 -0.0808
21275SOL     OW66077   8.961  10.356  10.535  0.0277 -0.5204 -0.1447
21275SOL    HW166078   9.049  10.337  10.503  0.0008  0.2270 -0.7184
21275SOL    HW266079   8.911  10.377  10.456 -0.5017 -0.3345  0.2302
21276SOL     OW66080   1.291   9.763   4.570 -0.0161 -0.1692  0.0314
21276SOL    HW166081   1.261   9.713   4.494  0.8012 -0.2673 -0.2417
21276SOL    HW266082   1.308   9.851   4.536  0.5309 -0.2626  0.0469
21277SOL     OW66083   1.050   4.181   2.892  0.1161 -0.3302 -0.3823
21277SOL    HW166084   0.996   4.131   2.830 -0.1716  0.2111 -0.5733
21277SOL    HW266085   1.139   4.175   2.856  0.3535 -1.9178  0.3712
21278SOL     OW66086   1.735   5.250   6.646 -0.5276 -0.4135 -0.5006
21278SOL    HW166087   1.780   5.281   6.568 -0.4238  0.3124 -0.1599
21278SOL    HW266088   1.723   5.328   6.700  0.4629 -1.0687  0.7449
21279SOL     OW66089  10.332   9.577   6.425  0.0303  0.2543  0.5334
21279SOL    HW166090  10.249   9.534   6.404 -0.4495  2.5154 -3.2123
21279SOL    HW266091  10.307   9.658   6.468  0.5547 -0.3801  2.0950
21280SOL     OW66092   1.958   2.257   5.961 -0.5051  0.7902  0.4026
21280SOL    HW166093   1.987   2.302   6.040  0.2536  1.4030 -0.2180
21280SOL    HW266094   1.929   2.326   5.902 -2.3493  0.2659  0.6137
21281SOL     OW66095  10.205   7.541   4.526 -0.4203  0.4506 -0.3932
21281SOL    HW166096  10.182   7.575   4.440  1.4393  2.3059 -0.2453
21281SOL    HW266097  10.207   7.618   4.583 -2.1181 -0.7938  1.4760
21282SOL     OW66098   9.481   9.968   7.968  0.3360 -0.4237  0.4586
21282SOL    HW166099   9.419   9.895   7.962  1.2166 -1.1399 -0.2415
21282SOL    HW266100   9.563   9.927   7.998  0.5809  0.4375  0.9755
21283SOL     OW66101   8.695   1.465   3.889  0.2553  0.0625  0.4494
21283SOL    HW166102   8.683   1.534   3.954 -0.5639  0.3907 -0.0370
21283SOL    HW266103   8.637   1.395   3.918 -0.1127  0.2088  0.0818
21284SOL     OW66104   8.072   5.151   2.803  0.1174 -0.2157 -0.6331
21284SOL    HW166105   8.011   5.172   2.732 -0.2369 -0.5056 -0.4185
21284SOL    HW266106   8.044   5.207   2.876 -0.0769 -0.5672 -0.4397
21285SOL     OW66107   7.897   7.200   6.930  0.5122 -0.4286  0.4509
21285SOL    HW166108   7.855   7.162   6.853  0.1035  1.9627 -0.5796
21285SOL    HW266109   7.826   7.212   6.993  0.7119 -1.6292  0.9480
21286SOL     OW66110   2.179   1.757   6.651 -0.2741 -0.1784  0.1858
21286SOL    HW166111   2.275   1.749   6.654  0.3323  2.8329 -3.6055
21286SOL    HW266112   2.150   1.678   6.605  0.4710 -0.6682  0.5388
21287SOL     OW66113   7.838   3.318   7.959  0.7253  0.1335 -0.2016
21287SOL    HW166114   7.760   3.307   7.904  0.8673  1.3017 -0.6646
21287SOL    HW266115   7.911   3.323   7.897  1.1297 -0.5519  0.2097
21288SOL     OW66116   6.835   3.641   0.237 -0.0270 -0.2504 -0.3156
21288SOL    HW166117   6.857   3.675   0.150  0.5308 -1.7538 -0.7956
21288SOL    HW266118   6.836   3.546   0.226 -0.2129 -0.4586  1.2847
21289SOL     OW66119   7.490   7.492   4.202  0.2346  0.1627  0.2921
21289SOL    HW166120   7.435   7.431   4.152  1.0971  2.3235 -3.7877
21289SOL    HW266121   7.431   7.531   4.267 -1.4549 -1.7585 -0.0043
21290SOL     OW66122   6.365  10.263   2.935 -0.4184  0.0977  0.2891
21290SOL    HW166123   6.289  10.235   2.985 -0.5805 -2.2681 -1.1316
21290SOL    HW266124   6.440  10.232   2.985 -0.5333 -0.7909 -0.0666
21291SOL     OW66125   8.628   7.779   1.085 -0.1038 -0.2058 -0.2496
21291SOL    HW166126   8.600   7.785   1.176  2.3315  0.6511  0.5247
21291SOL    HW266127   8.567   7.835   1.037 -1.3615 -0.6006  0.8317
21292SOL     OW66128   1.872   1.810   7.547 -0.1238  0.4855 -0.3410
21292SOL    HW166129   1.883   1.863   7.468 -2.2673  0.3902 -0.7487
21292SOL    HW266130   1.848   1.724   7.515 -1.0084  0.4423  0.4023
21293SOL     OW66131   6.426   2.852   1.343  1.0658 -0.0517  0.1187
21293SOL    HW166132   6.405   2.831   1.434 -1.1219  1.2155  0.0034
21293SOL    HW266133   6.494   2.790   1.318 -1.3116 -3.4251  1.2927
21294SOL     OW66134   9.826   8.278  10.634  0.3660 -0.4355  0.0551
21294SOL    HW166135   9.760   8.321  10.579  0.2788  1.0658  1.2838
21294SOL    HW266136   9.904   8.332  10.625  1.3061 -1.8940 -0.9496
21295SOL     OW66137   4.520   2.583   8.472  0.2374  0.9524 -0.4476
21295SOL    HW166138   4.612   2.559   8.468  0.0865  0.4062 -0.7002
21295SOL    HW266139   4.485   2.557   8.387 -0.1605  1.1295 -0.3388
21296SOL     OW66140   8.824  10.426   5.239 -0.5354 -0.3795  0.0177
21296SOL    HW166141   8.900  10.375   5.212 -0.3930  0.1297 -0.5712
21296SOL    HW266142   8.860  10.511   5.264 -0.4792 -1.1735  3.0963
21297SOL     OW66143   2.019   9.335   3.349  0.3212  0.5119  0.0268
21297SOL    HW166144   2.094   9.283   3.378 -0.9906 -0.3760  2.0102
21297SOL    HW266145   1.954   9.270   3.323 -1.2401  1.0727  2.2725
21298SOL     OW66146   3.494   9.891   8.354  0.4595 -0.3149  0.6457
21298SOL    HW166147   3.427   9.845   8.405 -0.2041  1.4688  1.4879
21298SOL    HW266148   3.454   9.976   8.334  2.1886  0.5055  0.4855
21299SOL     OW66149   2.175   4.567   2.637  0.5675  0.1431  0.2132
21299SOL    HW166150   2.266   4.592   2.621  0.5829  0.6991  1.1288
21299SOL    HW266151   2.180   4.479   2.675  0.5610 -0.9405 -2.0822
21300SOL     OW66152   1.747   7.898   8.772  0.0486 -0.2350  0.4281
21300SOL    HW166153   1.714   7.915   8.684  0.4340 -0.1053  0.3036
21300SOL    HW266154   1.714   7.811   8.793  0.1080 -0.3467  0.0789
21301SOL     OW66155   6.531   0.771   1.661  0.3726  0.6623  0.0359
21301SOL    HW166156   6.543   0.690   1.612  1.1725  1.1108 -0.5402
21301SOL    HW266157   6.454   0.755   1.716 -0.4356  0.0693 -1.2165
21302SOL     OW66158   8.692   5.952   7.711 -0.2531  0.4907  0.8816
21302SOL    HW166159   8.716   5.973   7.620  0.4494 -0.7317  0.7694
21302SOL    HW266160   8.620   5.890   7.703  1.5177 -1.7282  1.0485
21303SOL     OW66161   5.852  10.186   1.898  0.6007 -0.0800  0.5978
21303SOL    HW166162   5.851  10.282   1.907  1.1710  0.0892 -0.8819
21303SOL    HW266163   5.771  10.157   1.939 -0.9562  1.2888 -1.3525
21304SOL     OW66164   2.758   2.541   0.294  0.1417  0.0059 -0.1717
21304SOL    HW166165   2.691   2.609   0.303  0.7232  0.4689  0.9027
21304SOL    HW266166   2.841   2.588   0.302  0.5871 -0.6467 -0.8384
21305SOL     OW66167   1.564   5.955  10.093 -0.5512  0.3913 -0.3538
21305SOL    HW166168   1.496   5.897  10.057 -0.4179 -0.5113  0.7590
21305SOL    HW266169   1.607   5.901  10.160  2.5236  0.2796 -2.2486
21306SOL     OW66170   1.494   0.180   1.762 -0.1717  0.2507  0.2233
21306SOL    HW166171   1.423   0.163   1.700  1.1151 -0.3254 -1.1423
21306SOL    HW266172   1.468   0.133   1.841 -1.7933  0.9028  0.1077
21307SOL     OW66173   1.253  10.096  10.361  0.4404  0.3402 -0.6878
21307SOL    HW166174   1.329  10.153  10.357 -0.4321  1.6244  0.0587
21307SOL    HW266175   1.287  10.009  10.343  2.0783  0.8682 -0.3364
21308SOL     OW66176   9.009   4.132   4.757 -0.0053 -0.0778  0.3505
21308SOL    HW166177   8.914   4.140   4.766  0.0544  0.5673  0.5203
21308SOL    HW266178   9.024   4.046   4.719 -0.6911  0.0353 -0.1762
21309SOL     OW66179   7.856   5.557   0.499  0.6094  0.0298  0.3171
21309SOL    HW166180   7.907   5.484   0.463 -0.3727 -2.5901  3.7378
21309SOL    HW266181   7.912   5.593   0.567  0.2987  1.2424 -0.0560
21310SOL     OW66182   9.622   3.756   9.882  0.0162  0.0646  0.1638
21310SOL    HW166183   9.585   3.733   9.967  1.6958  0.7522  1.1205
21310SOL    HW266184   9.698   3.810   9.902 -0.3741  1.4636 -1.8403
21311SOL     OW66185   8.317   7.485   8.537 -0.3826  0.1193 -0.4285
21311SOL    HW166186   8.318   7.390   8.544 -3.7326 -0.0498 -0.5798
21311SOL    HW266187   8.409   7.511   8.548  0.5141 -3.0104  0.5632
21312SOL     OW66188   2.209   9.989   4.792  0.1391 -0.0117 -0.1622
21312SOL    HW166189   2.197  10.073   4.747  0.3710 -0.4088 -0.9949
21312SOL    HW266190   2.121   9.966   4.823  0.0700  0.5275  0.0508
21313SOL     OW66191   9.233   8.596   0.606 -0.1254  0.3332 -0.2716
21313SOL    HW166192   9.169   8.530   0.578  0.1403 -0.0296 -0.0319
21313SOL    HW266193   9.198   8.679   0.573  0.1868 -0.0767 -1.6805
21314SOL     OW66194   1.983   1.493   6.821 -0.0264 -0.3744  0.4542
21314SOL    HW166195   2.054   1.447   6.777 -0.9001 -0.5310 -0.8479
21314SOL    HW266196   2.027   1.555   6.880  1.1872 -0.3892 -0.4004
21315SOL     OW66197   4.204   0.422   2.229 -0.3930 -0.2648  0.1357
21315SOL    HW166198   4.180   0.401   2.319 -1.8212  0.0569 -0.1468
21315SOL    HW266199   4.142   0.373   2.174 -0.0591  0.1601 -0.6476
21316SOL     OW66200   2.545   8.449   6.164  0.4644  0.3930  0.1946
21316SOL    HW166201   2.536   8.456   6.069 -0.6297  1.9318  0.3691
21316SOL    HW266202   2.458   8.471   6.198  1.0905  0.8460  1.5930
21317SOL     OW66203   4.079   0.440   5.348  0.1826 -0.7684  0.2628
21317SOL    HW166204   4.097   0.399   5.264  0.3322  1.1714 -0.6918
21317SOL    HW266205   4.112   0.377   5.413  0.5735 -2.0419 -1.1221
21318SOL     OW66206   4.927   4.379   8.635 -0.0363  0.1188 -0.5120
21318SOL    HW166207   4.998   4.403   8.695 -0.9118 -0.2501  0.7218
21318SOL    HW266208   4.956   4.410   8.549  1.0396  1.1125  0.1828
21319SOL     OW66209   1.532   9.556   5.479 -0.2611  0.1396  0.1800
21319SOL    HW166210   1.478   9.493   5.527 -1.3008  1.3822  0.6944
21319SOL    HW266211   1.472   9.597   5.417 -0.1569  2.0792  1.2796
21320SOL     OW66212   0.142  10.098   0.243 -0.1553  0.1886 -0.5051
21320SOL    HW166213   0.136  10.043   0.321 -1.4505  1.7420  0.5444
21320SOL    HW266214   0.219  10.153   0.257 -1.5896  2.0037  0.8087
21321SOL     OW66215   2.534   6.097   0.452 -0.1630 -0.4635  0.4057
21321SOL    HW166216   2.441   6.092   0.430 -0.1072 -1.5456  0.3902
21321SOL    HW266217   2.573   6.148   0.380 -0.4221 -1.7309 -0.6746
21322SOL     OW66218   9.446   6.732   4.101  0.0908 -0.3356 -0.1333
21322SOL    HW166219   9.451   6.682   4.019  0.0760  2.0643 -1.7223
21322SOL    HW266220   9.358   6.770   4.100  1.0640  2.0886 -0.5774
21323SOL     OW66221   8.238   4.774   6.091 -0.0617  0.2533  0.2870
21323SOL    HW166222   8.237   4.694   6.039  2.5616  0.1439  0.2378
21323SOL    HW266223   8.231   4.845   6.027  1.4479  0.0876 -0.0916
21324SOL     OW66224   1.751   1.994   6.403  0.0740 -0.1380  0.1874
21324SOL    HW166225   1.659   2.000   6.427 -0.4007 -4.4797  0.2829
21324SOL    HW266226   1.751   1.986   6.308  0.6866  2.4511 -0.0953
21325SOL     OW66227   8.389   3.647   1.677 -0.2900 -0.1160  0.0986
21325SOL    HW166228   8.348   3.587   1.739 -0.6467 -2.2249 -2.0598
21325SOL    HW266229   8.323   3.661   1.610  0.3672  1.4696 -0.2611
21326SOL     OW66230   5.565   8.981   9.600 -0.2897  0.6375  0.4718
21326SOL    HW166231   5.612   8.932   9.667  1.0102 -1.1233 -1.5981
21326SOL    HW266232   5.566   9.072   9.631  3.4719  0.5038  1.1261
21327SOL     OW66233   1.648   5.045   8.150  0.3505 -0.3892  0.2678
21327SOL    HW166234   1.679   5.098   8.224 -0.3021  0.3941 -0.0071
21327SOL    HW266235   1.553   5.056   8.151  0.3399 -0.3037 -0.7389
21328SOL     OW66236  10.026   2.282   3.531  0.2898 -0.1061 -0.1585
21328SOL    HW166237   9.958   2.327   3.580 -0.0742 -0.4869 -0.3017
21328SOL    HW266238   9.999   2.289   3.439  0.7268  0.2073 -0.2652
21329SOL     OW66239   3.470   3.956   1.165 -0.3478 -0.2216  0.1860
21329SOL    HW166240   3.412   4.025   1.197 -1.8034 -0.1149 -2.3195
21329SOL    HW266241   3.556   3.997   1.158 -0.7118  0.6668  0.7622
21330SOL     OW66242   8.177   9.165  10.155 -0.5710  0.3272 -0.3213
21330SOL    HW166243   8.192   9.146  10.248  0.2979  0.1810 -0.4863
21330SOL    HW266244   8.174   9.078  10.114  0.1140  0.4227 -0.5844
21331SOL     OW66245   7.833   7.656   2.291 -0.3901  0.0869 -0.3220
21331SOL    HW166246   7.765   7.589   2.286 -0.3233  0.0189 -0.3023
21331SOL    HW266247   7.785   7.738   2.278 -1.1073  0.3683  3.1029
21332SOL     OW66248   2.754   7.212  10.560 -0.5248  0.4864 -0.5438
21332SOL    HW166249   2.712   7.268  10.495 -0.0157  0.4816 -0.8828
21332SOL    HW266250   2.785   7.273  10.627 -2.2414  0.3910  0.4156
21333SOL     OW66251   4.580   2.814   2.118  0.3027  0.3656  0.1432
21333SOL    HW166252   4.630   2.736   2.144  0.5872 -0.2180 -1.9705
21333SOL    HW266253   4.489   2.790   2.130  0.3913 -0.3002 -0.4758
21334SOL     OW66254   9.405   0.858   3.252 -0.1404  0.3461  0.1482
21334SOL    HW166255   9.414   0.769   3.219  1.1548  0.3798  0.3555
21334SOL    HW266256   9.333   0.853   3.315  0.2256 -0.6559  0.5062
21335SOL     OW66257   1.568   0.988   5.870 -0.2701  0.1046 -0.0854
21335SOL    HW166258   1.554   1.071   5.824  0.5876  0.6327  0.5897
21335SOL    HW266259   1.637   0.945   5.821 -1.3171 -0.6329 -0.9601
21336SOL     OW66260   6.406   0.572   5.196  0.2546  0.6986  0.1767
21336SOL    HW166261   6.410   0.513   5.271  0.6912  0.4826 -0.0130
21336SOL    HW266262   6.330   0.628   5.214  0.6056  0.9269  0.9765
21337SOL     OW66263   7.985   8.915   5.073  0.7532  0.0371  0.4728
21337SOL    HW166264   8.002   8.845   5.011  0.3798  0.0763  0.3244
21337SOL    HW266265   7.931   8.875   5.141  0.7568  0.1142  0.5214
21338SOL     OW66266   1.118   7.977   7.253 -0.0523  0.0069  0.2744
21338SOL    HW166267   1.057   7.906   7.235 -0.9305  0.7261  0.3198
21338SOL    HW266268   1.117   8.031   7.174 -0.4181  0.6887  0.7321
21339SOL     OW66269   5.149   8.735   4.309  0.4009  0.3088 -0.3811
21339SOL    HW166270   5.130   8.775   4.394  0.1825 -0.9361  0.1825
21339SOL    HW266271   5.064   8.724   4.267  0.0777 -2.1693  0.7164
21340SOL     OW66272   1.941   1.448   5.478  0.4813  0.6905 -0.1119
21340SOL    HW166273   1.908   1.377   5.423 -1.4568  1.1806  0.3481
21340SOL    HW266274   2.033   1.457   5.453  0.2912 -0.7517 -1.4732
21341SOL     OW66275   8.144   6.011   0.547 -0.3972 -0.4473  0.6362
21341SOL    HW166276   8.182   6.033   0.632  0.4187  0.0407  0.1586
21341SOL    HW266277   8.165   5.918   0.534 -0.7051 -0.5757  1.0589
21342SOL     OW66278  10.550   0.973   4.583  0.6239 -0.3281  0.2154
21342SOL    HW166279  10.603   1.018   4.518 -0.6555  1.6484  0.4514
21342SOL    HW266280  10.487   0.922   4.532 -0.4714  1.3309 -0.1559
21343SOL     OW66281   5.105   0.677   3.842  0.3949 -0.2002 -0.4332
21343SOL    HW166282   5.153   0.656   3.923  0.1547  1.5150  0.1972
21343SOL    HW266283   5.068   0.593   3.814 -0.6538 -0.6307  1.9911
21344SOL     OW66284   4.304   1.742   5.093 -0.0114 -0.0158  0.3553
21344SOL    HW166285   4.294   1.778   5.005  3.8922 -1.9877 -1.1597
21344SOL    HW266286   4.257   1.658   5.090 -0.7510  0.3886  0.5208
21345SOL     OW66287   2.024   5.180   5.964 -0.1647 -0.4823  0.1750
21345SOL    HW166288   2.089   5.183   6.034 -0.7290 -1.1561  0.7418
21345SOL    HW266289   2.039   5.096   5.921  0.2353 -0.0383 -0.5928
21346SOL     OW66290   9.730   6.145   0.054  0.2920  0.5037  0.0941
21346SOL    HW166291   9.681   6.064   0.064 -0.4914  0.8706 -0.6325
21346SOL    HW266292   9.755   6.147  -0.039  0.1346  1.1816  0.0581
21347SOL     OW66293   7.063   0.357   1.443 -0.2501  0.6243 -0.4310
21347SOL    HW166294   7.145   0.332   1.486 -1.2015  1.6374  2.2532
21347SOL    HW266295   7.086   0.435   1.393  0.5516  0.6032 -0.1207
21348SOL     OW66296   5.979   4.073   3.817 -0.1663  0.2966 -0.1269
21348SOL    HW166297   5.939   3.988   3.797 -0.2045  0.2824  0.0038
21348SOL    HW266298   6.072   4.054   3.826 -0.4335 -0.2400  2.4671
21349SOL     OW66299   1.033  10.101   0.139  0.5111 -0.4254  0.4776
21349SOL    HW166300   1.049  10.109   0.233 -0.1267 -0.6012  0.6081
21349SOL    HW266301   1.037  10.190   0.106  1.8734 -0.4749  0.4718
21350SOL     OW66302   8.273   1.693   1.301  0.3910  0.4773 -0.2094
21350SOL    HW166303   8.189   1.683   1.257  0.6026 -1.0669 -0.3044
21350SOL    HW266304   8.280   1.617   1.358  2.1276  0.0534 -0.9150
21351SOL     OW66305   3.000   3.395   6.018  0.5661 -0.3138 -0.3126
21351SOL    HW166306   3.031   3.386   5.928 -0.0087 -0.8983 -0.4607
21351SOL    HW266307   3.077   3.422   6.068  0.8899  0.0101 -0.9782
21352SOL     OW66308   0.955   4.679   9.452 -0.1308 -0.0368  0.1798
21352SOL    HW166309   0.934   4.695   9.360  1.8084  0.9371 -0.1517
21352SOL    HW266310   0.886   4.621   9.483 -0.1077 -1.4970 -2.2512
21353SOL     OW66311  10.167   8.287   8.713 -0.2863  0.1602 -0.2554
21353SOL    HW166312  10.229   8.272   8.642  0.9821 -0.7289  1.0018
21353SOL    HW266313  10.108   8.355   8.678  1.7442  1.5349 -1.2607
21354SOL     OW66314   6.989   0.746   6.716 -0.0816  0.5821 -0.0587
21354SOL    HW166315   6.919   0.689   6.747 -0.4193  0.6085 -0.7561
21354SOL    HW266316   6.945   0.827   6.690  0.2330  0.6806 -0.2930
21355SOL     OW66317   7.182   0.683   4.724 -0.0108  0.0930  0.2188
21355SOL    HW166318   7.089   0.664   4.712  0.1531 -0.2855 -0.4770
21355SOL    HW266319   7.183   0.754   4.788 -0.6794 -1.5134  2.1129
21356SOL     OW66320   4.886   7.712   1.170 -0.2827  0.0499 -0.4540
21356SOL    HW166321   4.902   7.700   1.076  1.2718 -1.1353 -0.0849
21356SOL    HW266322   4.818   7.649   1.191 -1.3556  1.0115 -0.9448
21357SOL     OW66323   5.292   9.477   6.598  0.5399 -0.6027  0.1603
21357SOL    HW166324   5.351   9.545   6.633  0.2504 -0.9728  1.4157
21357SOL    HW266325   5.208   9.521   6.587  0.9250 -0.1790 -1.2462
21358SOL     OW66326   8.595   4.131   0.085 -0.0302 -0.2567  0.3407
21358SOL    HW166327   8.629   4.050   0.124  3.7819  0.4340 -1.0505
21358SOL    HW266328   8.640   4.200   0.133 -1.0616  0.9328 -0.3564
21359SOL     OW66329   1.367   3.378   2.379 -0.0930  0.4868  0.7645
21359SOL    HW166330   1.350   3.448   2.442  0.7160  0.4712  1.0082
21359SOL    HW266331   1.379   3.424   2.295 -0.0110  0.6062  0.8409
21360SOL     OW66332   9.815   4.701   8.324 -0.3778  0.1102  0.1643
21360SOL    HW166333   9.839   4.687   8.415  2.6899  2.9432 -0.0277
21360SOL    HW266334   9.745   4.767   8.327  1.2878  1.9710  0.5606
21361SOL     OW66335   1.764   8.888   2.500  0.5012 -0.2693 -0.4906
21361SOL    HW166336   1.856   8.892   2.529  0.1418 -0.2864  0.7103
21361SOL    HW266337   1.762   8.814   2.439  1.5289  0.4964 -1.4963
21362SOL     OW66338   4.343   9.304   1.370 -0.2971  0.1842  0.8200
21362SOL    HW166339   4.437   9.318   1.362 -0.3333 -0.3090 -0.6332
21362SOL    HW266340   4.325   9.225   1.320 -1.7121  1.1534 -0.2841
21363SOL     OW66341   3.196   3.290   6.992  0.3112  0.2149 -0.0650
21363SOL    HW166342   3.203   3.230   6.918  0.4561 -0.4589  0.4832
21363SOL    HW266343   3.269   3.351   6.980  0.5819 -0.1424 -0.2529
21364SOL     OW66344   4.028   9.894   6.264 -0.3266  0.3695  0.7841
21364SOL    HW166345   3.964   9.893   6.335 -1.3841  1.7029 -0.0984
21364SOL    HW266346   3.984   9.941   6.193  1.3474  0.6314 -0.1239
21365SOL     OW66347   6.844   1.399   1.571  0.5386  0.1494 -0.3598
21365SOL    HW166348   6.794   1.460   1.517  0.3740 -0.0298 -0.4111
21365SOL    HW266349   6.792   1.390   1.651  0.6378  0.1905 -0.2898
21366SOL     OW66350   1.144   0.961   4.151 -0.5983 -0.1625  0.5861
21366SOL    HW166351   1.139   1.048   4.189  0.4239  1.6425 -2.9219
21366SOL    HW266352   1.052   0.933   4.143 -1.1887  1.9416 -0.8131
21367SOL     OW66353   5.034   0.292   2.152  0.3157  0.3091 -0.2728
21367SOL    HW166354   5.055   0.381   2.178  1.6775 -0.3693  1.1019
21367SOL    HW266355   5.101   0.238   2.194 -1.7051 -1.5830  0.7183
21368SOL     OW66356   1.819   0.397   1.539  0.0504  0.6343 -0.2008
21368SOL    HW166357   1.897   0.403   1.594 -0.0807  0.6234 -0.0124
21368SOL    HW266358   1.748   0.427   1.596 -0.5082 -1.8615  0.5288
21369SOL     OW66359   0.927   9.342   7.596  0.0388  0.5438 -0.1638
21369SOL    HW166360   0.995   9.409   7.602 -0.2946  0.9965 -1.2516
21369SOL    HW266361   0.852   9.387   7.559 -0.4890 -0.2236 -0.0569
21370SOL     OW66362   2.816   4.642   3.268  0.3763 -0.0845 -0.1445
21370SOL    HW166363   2.828   4.547   3.263  2.4704  0.1754 -1.2969
21370SOL    HW266364   2.779   4.666   3.184  1.4768  0.2898 -0.5354
21371SOL     OW66365   4.466   0.852   5.591 -0.3258 -0.1039 -0.0711
21371SOL    HW166366   4.394   0.805   5.548 -0.3967 -1.2329  1.2368
21371SOL    HW266367   4.512   0.895   5.519 -1.7112 -0.1759 -1.0412
21372SOL     OW66368   8.338  10.472   2.199 -0.1624  0.4047 -0.0969
21372SOL    HW166369   8.368  10.558   2.229 -0.4591  0.1906  0.8499
21372SOL    HW266370   8.259  10.490   2.150 -1.2378  0.5450  1.6093
21373SOL     OW66371   4.054   9.035   3.565 -0.0459 -0.0935  0.2671
21373SOL    HW166372   4.149   9.034   3.560  0.0515  3.0879 -0.8302
21373SOL    HW266373   4.035   9.082   3.647 -0.6602 -0.1981  0.1927
21374SOL     OW66374   8.089   3.536   6.386  0.6639  0.3804  0.7169
21374SOL    HW166375   8.090   3.628   6.360  1.0719  0.4905  1.1213
21374SOL    HW266376   8.035   3.494   6.319 -0.3717  1.0785  1.0901
21375SOL     OW66377   0.724   3.337   4.759 -0.7011  0.4789  0.1200
21375SOL    HW166378   0.673   3.295   4.828  0.0706  1.1362  1.1195
21375SOL    HW266379   0.736   3.269   4.693 -1.3797 -0.1880  0.6751
21376SOL     OW66380   1.920   2.761   9.999 -0.0786  0.3125  0.3570
21376SOL    HW166381   1.834   2.785   9.964  1.1200  1.9488 -1.7065
21376SOL    HW266382   1.911   2.773  10.094 -2.2681 -0.1427  0.2562
21377SOL     OW66383   3.505   5.908   0.505 -0.2892  0.0800 -0.2519
21377SOL    HW166384   3.412   5.899   0.485 -0.5582  3.5057 -1.1072
21377SOL    HW266385   3.547   5.922   0.420  1.6188 -4.1989 -0.2884
21378SOL     OW66386   9.230   5.810  10.289 -0.9711  0.4301 -1.0544
21378SOL    HW166387   9.245   5.828  10.196 -0.4631  2.3468 -0.6600
21378SOL    HW266388   9.262   5.889  10.333 -0.8547 -0.6009  0.7795
21379SOL     OW66389   7.545   8.230   6.505  0.2363  0.6700  1.0662
21379SOL    HW166390   7.461   8.203   6.543 -1.3245  1.2451 -1.6850
21379SOL    HW266391   7.549   8.324   6.520  0.3085  0.6771  1.0032
21380SOL     OW66392   0.670  10.452   1.069  0.3730  0.2644  0.5424
21380SOL    HW166393   0.720  10.398   1.130  2.8429  1.3207 -0.3961
21380SOL    HW266394   0.702  10.541   1.083 -0.2224  0.7890 -1.0901
21381SOL     OW66395   8.141   5.237   5.231  0.4720  0.2958  0.4669
21381SOL    HW166396   8.165   5.187   5.309 -0.5942 -0.0077  0.6161
21381SOL    HW266397   8.070   5.294   5.260  0.4525  0.5909 -0.1437
21382SOL     OW66398   1.128   7.465   2.951 -0.3337 -0.0404  0.0196
21382SOL    HW166399   1.185   7.541   2.935 -0.4270 -0.0762 -0.5145
21382SOL    HW266400   1.189   7.393   2.969 -0.2482  0.1844  0.6338
21383SOL     OW66401   0.547   1.144   6.276  0.2020  0.5234 -0.3393
21383SOL    HW166402   0.578   1.224   6.320 -2.8665  1.4911  0.3093
21383SOL    HW266403   0.576   1.155   6.185  3.5512  0.2007  0.5352
21384SOL     OW66404   6.654   7.030   4.209 -0.4270  0.4611 -0.6973
21384SOL    HW166405   6.743   7.008   4.238 -0.7129  0.6896  0.3828
21384SOL    HW266406   6.658   7.025   4.114  0.8131  0.7083 -0.6721
21385SOL     OW66407   3.345  10.128   0.342  0.5881 -0.5057  0.0942
21385SOL    HW166408   3.346  10.222   0.323  1.7717 -0.7955 -1.4290
21385SOL    HW266409   3.339  10.123   0.438  1.4446  1.1270  0.2616
21386SOL     OW66410   5.125   1.601   2.977 -0.8694  0.3477  0.1496
21386SOL    HW166411   5.044   1.549   2.976  0.3640 -1.6484 -0.0405
21386SOL    HW266412   5.120   1.650   3.059 -0.6779 -2.4540  1.9447
21387SOL     OW66413  10.403   7.549   1.704  0.3092  0.0331  0.1430
21387SOL    HW166414  10.465   7.497   1.753  0.7639 -0.5200 -0.9809
21387SOL    HW266415  10.328   7.492   1.691 -0.0326  0.3603  0.6446
21388SOL     OW66416   4.494   7.531   3.158  0.0097  0.6165 -0.1600
21388SOL    HW166417   4.413   7.582   3.152 -1.0419 -0.9942 -0.0807
21388SOL    HW266418   4.544   7.558   3.081  0.0282  2.5981  0.4726
21389SOL     OW66419   0.155   2.586   2.174 -0.1601 -0.0224  0.4937
21389SOL    HW166420   0.147   2.594   2.079  4.2422  1.0083 -0.0454
21389SOL    HW266421   0.177   2.494   2.189  1.2603  0.2458  0.1864
21390SOL     OW66422   5.089   2.523   8.785  0.0978  0.3223  0.0243
21390SOL    HW166423   5.129   2.484   8.707  1.0289  4.0133 -1.5612
21390SOL    HW266424   5.029   2.589   8.751 -1.8481 -0.0524  2.4782
21391SOL     OW66425   5.554   3.732   1.337  0.3324 -0.0356  0.3491
21391SOL    HW166426   5.571   3.753   1.246  0.6450 -0.6310  0.2676
21391SOL    HW266427   5.549   3.636   1.340  1.3825 -0.0833  1.1323
21392SOL     OW66428   3.404   3.914   8.338  0.1127 -0.0727  0.5245
21392SOL    HW166429   3.368   3.893   8.424 -1.2303  2.0631  0.5669
21392SOL    HW266430   3.350   3.986   8.307  1.8850  0.5840 -1.2333
21393SOL     OW66431   1.192   8.823   1.540 -0.6393 -0.2316  0.3105
21393SOL    HW166432   1.225   8.738   1.568 -0.4224 -0.1428  0.3278
21393SOL    HW266433   1.249   8.849   1.468 -0.4163  0.1042  0.6019
21394SOL     OW66434   1.722   6.151   0.722  0.8909  0.3724 -0.1700
21394SOL    HW166435   1.777   6.229   0.735 -0.7904  1.4973  0.4903
21394SOL    HW266436   1.777   6.079   0.752  1.1621  1.7243  3.0130
21395SOL     OW66437   4.238   4.253   5.003  0.2577  0.4986 -0.2202
21395SOL    HW166438   4.291   4.321   5.046 -0.8152  0.6839  0.8796
21395SOL    HW266439   4.292   4.174   5.007  1.1568  1.0739 -0.7059
21396SOL     OW66440   8.575   6.496   7.810 -0.0831 -0.4083 -0.5965
21396SOL    HW166441   8.628   6.474   7.733  1.6186  1.0840  0.0561
21396SOL    HW266442   8.494   6.533   7.774  1.2792  1.6214 -1.7669
21397SOL     OW66443   2.333  10.409   7.880 -0.0459 -0.1186  0.2302
21397SOL    HW166444   2.248  10.429   7.920 -0.0853  1.7610 -0.6763
21397SOL    HW266445   2.391  10.392   7.954 -0.3471  2.3268  1.1151
21398SOL     OW66446   0.215   3.231   3.672 -1.0577 -0.2320 -0.1878
21398SOL    HW166447   0.212   3.190   3.585  0.7055  0.6392 -0.7089
21398SOL    HW266448   0.213   3.158   3.733 -0.6982 -0.9617 -1.0214
21399SOL     OW66449   1.913   7.308   1.286 -0.2021  0.5188  0.3133
21399SOL    HW166450   2.006   7.288   1.289 -0.2655  0.2682  0.8363
21399SOL    HW266451   1.877   7.265   1.364 -0.9706 -0.5342 -0.5838
21400SOL     OW66452   8.366   6.651   0.911 -0.7669  0.0645  0.7399
21400SOL    HW166453   8.297   6.650   0.978 -1.0906  0.7131  0.4178
21400SOL    HW266454   8.440   6.694   0.954 -1.6084  2.2767  0.0848
21401SOL     OW66455   5.234   4.581   8.480  0.5362 -0.8067 -0.4012
21401SOL    HW166456   5.250   4.488   8.498 -0.5160 -0.6004  1.9656
21401SOL    HW266457   5.157   4.582   8.424  0.6274 -1.3529 -0.5433
21402SOL     OW66458   9.949   2.580   2.126  0.2597  0.0789 -0.3236
21402SOL    HW166459   9.883   2.631   2.079 -1.3826 -0.4451  1.2929
21402SOL    HW266460   9.920   2.581   2.217  0.9150 -2.5520  0.0052
21403SOL     OW66461   8.668   0.845   6.683 -0.0281  0.2129  0.4208
21403SOL    HW166462   8.620   0.896   6.618 -0.8769 -1.0727 -0.0013
21403SOL    HW266463   8.637   0.879   6.767 -1.0500 -0.0158  0.1489
21404SOL     OW66464   5.453   8.251  10.206 -0.5207 -0.1541  0.0227
21404SOL    HW166465   5.538   8.246  10.250 -0.6812 -0.5535  0.3000
21404SOL    HW266466   5.474   8.258  10.113 -0.1938 -1.3656 -0.0026
21405SOL     OW66467   6.756   6.427   0.816 -0.1261 -0.3332 -0.5623
21405SOL    HW166468   6.688   6.459   0.756 -0.3838 -0.7109 -0.4738
21405SOL    HW266469   6.788   6.346   0.775  1.1678  0.4874 -1.2621
21406SOL     OW66470   4.621   3.844   2.963 -0.4332 -0.1516  0.0910
21406SOL    HW166471   4.686   3.888   3.019 -0.9784  0.1898  0.4721
21406SOL    HW266472   4.615   3.756   2.999 -0.6015 -0.0072  0.4271
21407SOL     OW66473   7.189   5.875   3.610 -0.5726 -0.1415  0.1491
21407SOL    HW166474   7.198   5.787   3.573 -1.1931 -0.6947  1.2768
21407SOL    HW266475   7.230   5.932   3.545 -2.0914 -1.0053 -1.6586
21408SOL     OW66476   6.964   4.740   5.606 -0.0816  0.5495 -0.0034
21408SOL    HW166477   6.878   4.700   5.588 -0.2357  0.5887  0.6276
21408SOL    HW266478   6.972   4.808   5.540 -0.5414  0.5472 -0.0683
21409SOL     OW66479   1.081   4.771   6.891 -0.3743 -0.3287  0.0355
21409SOL    HW166480   1.090   4.677   6.873  0.2456 -0.6544  1.8550
21409SOL    HW266481   1.008   4.799   6.836  0.9023 -1.3452 -2.3178
21410SOL     OW66482   8.039   5.619   9.902  0.3691  0.4687 -0.1763
21410SOL    HW166483   8.134   5.616   9.917  0.7106  1.0216 -1.9009
21410SOL    HW266484   8.009   5.694   9.954  1.3224  1.7787 -1.4170
21411SOL     OW66485  10.041   9.334   6.994  0.2117 -1.1866 -0.4370
21411SOL    HW166486  10.000   9.292   7.070  2.4629  0.9425  2.1711
21411SOL    HW266487  10.134   9.314   7.004  0.6419 -0.2094 -2.2353
21412SOL     OW66488   2.775   9.077   9.084 -0.0099  0.1097  0.3199
21412SOL    HW166489   2.700   9.021   9.102  0.8294 -0.6553  1.5408
21412SOL    HW266490   2.836   9.021   9.035 -0.3434  0.8201 -0.9541
21413SOL     OW66491   0.282   7.417   6.871  0.3845  0.2203  0.8855
21413SOL    HW166492   0.200   7.389   6.831  0.2674  2.3486 -0.5328
21413SOL    HW266493   0.316   7.484   6.812  1.1717  2.2095  3.4078
21414SOL     OW66494  10.163   4.587   8.533  0.6629  0.6132 -0.0215
21414SOL    HW166495  10.156   4.580   8.628  1.6217 -1.1880 -0.0509
21414SOL    HW266496  10.209   4.670   8.519 -0.0152  1.1901  1.0439
21415SOL     OW66497   8.368   9.280   2.523  0.2480  0.3913  0.0189
21415SOL    HW166498   8.457   9.268   2.555  0.3013 -1.7447 -0.7834
21415SOL    HW266499   8.312   9.254   2.596  0.2268  2.1185  0.6638
21416SOL     OW66500   1.119  10.620  10.222 -0.0236 -0.3319  0.0324
21416SOL    HW166501   1.067  10.684  10.270 -0.2178  0.9426 -1.7930
21416SOL    HW266502   1.187  10.671  10.178  0.7704 -1.5739 -0.2286
21417SOL     OW66503   9.389   6.724   7.217 -0.1032  0.1577 -0.3529
21417SOL    HW166504   9.297   6.745   7.200 -0.0158  0.2239 -0.7641
21417SOL    HW266505   9.402   6.745   7.310 -0.5105  0.1161 -0.2866
21418SOL     OW66506   2.744   0.706   7.976  0.2538  0.3068  0.3095
21418SOL    HW166507   2.702   0.633   8.022  2.3365 -1.8689 -1.0064
21418SOL    HW266508   2.724   0.690   7.884  0.6402  1.5071  0.0015
21419SOL     OW66509   4.552   0.854   1.565  0.0054 -0.2218  0.0096
21419SOL    HW166510   4.542   0.766   1.600 -1.0249  0.2776  1.0404
21419SOL    HW266511   4.514   0.911   1.632 -0.4905  0.9160 -1.1961
21420SOL     OW66512   8.104   1.598   1.853  0.5874 -0.3433  0.1731
21420SOL    HW166513   8.038   1.664   1.831  0.9670 -0.2411 -0.7029
21420SOL    HW266514   8.180   1.649   1.881  0.4935 -0.4453  0.6169
21421SOL     OW66515   1.004   9.617   2.596 -0.4003 -0.2859  0.4515
21421SOL    HW166516   0.920   9.596   2.636 -0.4256 -0.8913  0.0891
21421SOL    HW266517   0.988   9.698   2.548 -0.0584  1.1692  2.6404
21422SOL     OW66518   3.702   0.500   4.471  0.2467 -0.5297  0.1086
21422SOL    HW166519   3.674   0.503   4.563 -2.2323 -0.9073 -0.5409
21422SOL    HW266520   3.713   0.591   4.446 -0.8337 -0.3206  0.3358
21423SOL     OW66521   2.121   5.420   8.799  1.0793 -0.1859 -0.1776
21423SOL    HW166522   2.203   5.456   8.832  1.0603 -0.6544  0.3981
21423SOL    HW266523   2.125   5.433   8.704  1.4765  0.4813 -0.0708
21424SOL     OW66524   4.894   7.433   5.744 -0.1490 -0.3988 -0.2352
21424SOL    HW166525   4.951   7.417   5.819 -0.9090  0.4927  0.5637
21424SOL    HW266526   4.806   7.408   5.774 -0.0608 -3.1015 -1.8983
21425SOL     OW66527   5.490   3.440   7.208 -0.1171  0.2801 -0.3174
21425SOL    HW166528   5.473   3.523   7.163 -1.9547 -0.3107 -0.7944
21425SOL    HW266529   5.545   3.464   7.283 -0.1089  1.8348 -0.7880
21426SOL     OW66530   9.429  10.595   6.549 -0.5197  0.3114  0.4635
21426SOL    HW166531   9.373  10.601   6.471 -1.8596  0.4676  1.3980
21426SOL    HW266532   9.513  10.632   6.522 -1.0129  0.5167 -0.8506
21427SOL     OW66533   2.278   4.695   7.013 -0.4361 -0.2883  0.4125
21427SOL    HW166534   2.244   4.718   6.926  0.4205 -1.2644 -0.2022
21427SOL    HW266535   2.234   4.613   7.034 -0.6827 -0.0234  0.9442
21428SOL     OW66536   4.802  10.435   6.339 -0.1709  0.1498  0.0237
21428SOL    HW166537   4.858  10.483   6.278 -0.8987  1.6017  0.4465
21428SOL    HW266538   4.795  10.492   6.416  0.1116 -1.3061  1.1760
21429SOL     OW66539   2.449   7.032   4.975 -0.6336  0.0092 -0.1731
21429SOL    HW166540   2.542   7.049   4.960  0.0517 -1.6505  1.8131
21429SOL    HW266541   2.414   7.012   4.887  0.7554  1.0942 -1.0048
21430SOL     OW66542   5.515  10.144   9.909 -0.4433  0.0767 -0.1980
21430SOL    HW166543   5.421  10.129   9.897 -0.1386 -1.4200 -0.9975
21430SOL    HW266544   5.524  10.239   9.917 -1.8618  0.3606 -1.5906
21431SOL     OW66545   3.639   6.747   3.033 -0.1159 -0.3398 -0.1687
21431SOL    HW166546   3.561   6.717   3.080 -0.3740  0.2143 -0.2288
21431SOL    HW266547   3.695   6.786   3.100 -0.7526  0.9945 -0.3899
21432SOL     OW66548   9.782   0.476   6.543 -0.0589  0.1569 -0.3474
21432SOL    HW166549   9.771   0.551   6.485  0.9319  0.7421  0.1970
21432SOL    HW266550   9.784   0.514   6.631 -0.0124 -0.5573 -0.0357
21433SOL     OW66551   7.735   1.535   2.829 -0.2621 -0.4798 -0.0121
21433SOL    HW166552   7.657   1.547   2.775 -1.3583 -0.6250  1.4738
21433SOL    HW266553   7.763   1.624   2.850  0.4600 -0.4090 -1.1613
21434SOL     OW66554   8.120   9.303   1.178 -0.2422 -0.1034 -0.4381
21434SOL    HW166555   8.135   9.331   1.268 -2.0335  0.6336 -0.3274
21434SOL    HW266556   8.138   9.209   1.178  1.6317  0.2133  0.2137
21435SOL     OW66557   8.709   7.647   7.061  0.2452  0.3127  0.1120
21435SOL    HW166558   8.710   7.657   7.156 -0.7341  1.3716  0.0440
21435SOL    HW266559   8.663   7.564   7.046  0.0566  0.3317  0.5570
21436SOL     OW66560   7.475   1.272   4.317  0.4415  0.0654 -0.2117
21436SOL    HW166561   7.498   1.362   4.339  1.3424  0.0667 -1.0621
21436SOL    HW266562   7.493   1.222   4.396  3.8634  0.0097 -0.8892
21437SOL     OW66563   3.829   6.490   3.313  0.0418  0.4220 -0.1472
21437SOL    HW166564   3.842   6.567   3.258  0.9117  0.2673 -0.1648
21437SOL    HW266565   3.746   6.452   3.282  0.3958  0.4677 -1.1876
21438SOL     OW66566  10.206   8.903   8.397 -0.4129  0.1966  0.1363
21438SOL    HW166567  10.172   8.821   8.361  2.4399 -0.6738 -0.9114
21438SOL    HW266568  10.178   8.969   8.334 -0.2617 -0.4689 -0.6651
21439SOL     OW66569   3.988   9.501   1.653 -0.1994  0.3566 -0.5713
21439SOL    HW166570   3.934   9.553   1.713 -0.0388  0.0544 -0.1634
21439SOL    HW266571   3.964   9.410   1.672 -1.1448  0.2952 -1.9086
21440SOL     OW66572   9.431   7.435   0.348  0.3987  0.3215  0.0367
21440SOL    HW166573   9.346   7.431   0.391  0.8696 -0.1335  0.9578
21440SOL    HW266574   9.413   7.416   0.256 -0.4765  0.0744  0.2531
21441SOL     OW66575   0.321   0.741   4.692 -0.3811 -0.5386 -0.2516
21441SOL    HW166576   0.264   0.743   4.769 -0.3731  0.3996 -0.2597
21441SOL    HW266577   0.263   0.726   4.618 -0.7515  1.1521 -0.3484
21442SOL     OW66578   2.361   1.917   6.006 -0.0688  0.1002 -0.5177
21442SOL    HW166579   2.315   1.968   5.939  1.3315  1.0167 -0.8057
21442SOL    HW266580   2.291   1.872   6.053 -1.2216  0.9849 -1.3242
21443SOL     OW66581   7.949   0.793   3.222  0.2095 -0.0467 -0.1920
21443SOL    HW166582   7.897   0.865   3.258 -0.3423 -0.4974 -0.0778
21443SOL    HW266583   7.947   0.726   3.290 -0.7659 -0.8673 -0.9991
21444SOL     OW66584   3.148   7.396   0.183  0.4026 -0.3247 -0.1231
21444SOL    HW166585   3.134   7.433   0.269 -1.8962 -0.8310 -0.2149
21444SOL    HW266586   3.174   7.305   0.200  0.1324 -0.3713  0.0523
21445SOL     OW66587   4.930   5.074   3.935 -0.0486  0.2119  0.6127
21445SOL    HW166588   4.999   5.019   3.899  0.3519  1.0733  0.0155
21445SOL    HW266589   4.894   5.119   3.859  1.7217  3.1026  1.3229
21446SOL     OW66590   2.156   3.285   5.423 -0.0651  0.8248 -0.2262
21446SOL    HW166591   2.149   3.292   5.518 -0.4032  0.1164 -0.1899
21446SOL    HW266592   2.209   3.206   5.409 -0.7003  0.4617 -0.6295
21447SOL     OW66593   5.412   7.981   8.133  0.6798 -0.1961  0.7233
21447SOL    HW166594   5.469   8.058   8.124 -0.8345  0.8096 -0.8239
21447SOL    HW266595   5.439   7.923   8.061 -0.7495  0.6593 -0.5459
21448SOL     OW66596   7.883   2.331   1.979 -0.1221  0.2819  0.0137
21448SOL    HW166597   7.897   2.425   1.982  0.3669  0.2365 -0.5469
21448SOL    HW266598   7.971   2.294   1.964  0.2693 -0.4775  3.4411
21449SOL     OW66599   3.955   3.479   8.119  0.6411 -0.2715 -0.8311
21449SOL    HW166600   4.024   3.505   8.058  2.1419  0.0694  0.9150
21449SOL    HW266601   3.959   3.384   8.122  0.5376 -0.2920 -1.2619
21450SOL     OW66602   5.741   2.579   0.454 -0.3925  0.5022 -0.3863
21450SOL    HW166603   5.801   2.529   0.510 -1.9820 -0.3841  0.5939
21450SOL    HW266604   5.783   2.665   0.446  0.4089  0.3274  1.3298
21451SOL     OW66605   1.656   0.775   7.279 -0.0706  0.1950  0.0475
21451SOL    HW166606   1.729   0.800   7.223 -1.1601  0.9642 -1.1058
21451SOL    HW266607   1.657   0.679   7.279 -1.2447  0.0396 -3.1155
21452SOL     OW66608   1.636   6.724   8.659  0.4689 -0.2737 -0.4891
21452SOL    HW166609   1.696   6.676   8.603  1.8402  0.3855  0.3630
21452SOL    HW266610   1.657   6.816   8.645 -2.0917  0.1745 -2.0619
21453SOL     OW66611   1.165   3.099   9.238  0.0101 -0.4368  0.1174
21453SOL    HW166612   1.202   3.182   9.208 -0.4950  0.1336  1.0249
21453SOL    HW266613   1.238   3.037   9.235  0.4467  0.0873 -0.3526
21454SOL     OW66614   2.476   7.458   8.271  0.8427  0.3478 -0.7211
21454SOL    HW166615   2.459   7.376   8.225  0.4464  0.6155 -1.0442
21454SOL    HW266616   2.443   7.442   8.360  1.0931  0.0338 -0.6820
21455SOL     OW66617   8.302   1.577   9.020 -0.3756 -0.1276 -0.3550
21455SOL    HW166618   8.278   1.545   8.933 -1.9843 -2.8925  0.9803
21455SOL    HW266619   8.221   1.572   9.070  1.0235 -0.9728  1.9471
21456SOL     OW66620  10.325  10.242   0.525  1.0218  0.2726 -0.2247
21456SOL    HW166621  10.306  10.160   0.478 -2.3988  0.3159  0.8974
21456SOL    HW266622  10.294  10.311   0.466  0.6164  0.5647  0.3292
21457SOL     OW66623   2.030   4.086   6.657 -0.0136  0.0724 -0.4705
21457SOL    HW166624   2.091   4.156   6.638  1.2096  0.0733  2.8534
21457SOL    HW266625   1.953   4.130   6.695 -0.1099 -0.2198 -0.3180
21458SOL     OW66626   2.963   0.011   3.384  0.5483  0.1684  0.0923
21458SOL    HW166627   3.008  -0.038   3.315 -0.3179 -0.9257  0.2728
21458SOL    HW266628   3.015  -0.004   3.463 -0.9149 -2.5017  0.6873
21459SOL     OW66629   4.608   0.192   2.604  0.9274 -0.8460 -0.5473
21459SOL    HW166630   4.543   0.134   2.643 -0.0873 -0.0933 -1.0835
21459SOL    HW266631   4.607   0.271   2.658 -0.3683  0.1385 -1.9108
21460SOL     OW66632   4.518   3.588   0.153  0.3183 -0.1824 -0.3986
21460SOL    HW166633   4.537   3.649   0.224 -3.9616  1.2373 -0.1847
21460SOL    HW266634   4.546   3.634   0.074  1.4194 -0.0514  0.0418
21461SOL     OW66635   3.869   4.014   1.432  0.4299  0.4137  0.7138
21461SOL    HW166636   3.949   3.962   1.419 -0.7257 -1.7448  1.6301
21461SOL    HW266637   3.868   4.033   1.525 -0.4116 -0.0893  0.8126
21462SOL     OW66638   0.485   8.464   6.029  0.3106  0.0804 -0.2886
21462SOL    HW166639   0.455   8.427   6.112 -1.4167 -0.2017 -0.9985
21462SOL    HW266640   0.426   8.537   6.012  1.0085  0.4952 -0.9910
21463SOL     OW66641   6.243   0.129   1.266  0.1030 -0.1945  0.2478
21463SOL    HW166642   6.302   0.080   1.325  0.4380  1.7205  1.6167
21463SOL    HW266643   6.157   0.121   1.307 -0.2795 -1.4362 -0.7424
21464SOL     OW66644   5.690   3.705   8.460  0.4139  0.1767 -0.1992
21464SOL    HW166645   5.596   3.699   8.445  0.6051  1.6692 -2.4688
21464SOL    HW266646   5.721   3.614   8.457 -0.8576 -0.2822  0.0401
21465SOL     OW66647  10.366   6.250  10.425  0.4883 -0.1151  0.2747
21465SOL    HW166648  10.306   6.190  10.469 -0.7198  0.6195 -0.3135
21465SOL    HW266649  10.328   6.262  10.338  0.0354  2.4109  0.7630
21466SOL     OW66650   5.757   3.540   1.181 -0.6583  0.1907 -0.1781
21466SOL    HW166651   5.791   3.580   1.261  0.1720  1.5068 -1.1391
21466SOL    HW266652   5.813   3.464   1.167 -0.7903 -0.0335  0.4721
21467SOL     OW66653   8.654   8.804   4.768  0.7090  0.1706 -0.4520
21467SOL    HW166654   8.643   8.709   4.757  1.9694 -0.1180  0.5025
21467SOL    HW266655   8.734   8.813   4.821 -0.9459  1.6562  2.0045
21468SOL     OW66656   4.429   4.289   6.728  0.3481 -0.0520  0.0584
21468SOL    HW166657   4.504   4.336   6.766  1.9326 -2.6122  0.3995
21468SOL    HW266658   4.423   4.321   6.638  0.2849  1.8977  0.7044
21469SOL     OW66659   6.090   0.032   6.870  0.0756  0.2097 -0.4965
21469SOL    HW166660   6.146  -0.004   6.939 -1.0561  0.9342  0.8635
21469SOL    HW266661   6.145   0.093   6.822  0.4950  0.8022  0.7205
21470SOL     OW66662   8.482   9.386   9.612  0.0595  0.1243 -0.4805
21470SOL    HW166663   8.533   9.377   9.693  0.3000  1.0590 -0.5198
21470SOL    HW266664   8.411   9.323   9.622  0.2029  0.0836  0.3768
21471SOL     OW66665   8.551   0.365   2.837 -0.3149 -0.8595  0.1227
21471SOL    HW166666   8.538   0.270   2.838  0.7081 -1.0101  0.0083
21471SOL    HW266667   8.568   0.387   2.929 -1.5647 -0.6145  0.3247
21472SOL     OW66668   0.129   7.937   2.012  0.2044 -0.0752 -0.1401
21472SOL    HW166669   0.111   7.855   1.965  2.0213 -1.6848  1.7519
21472SOL    HW266670   0.202   7.976   1.964  0.9374 -0.8388  0.3313
21473SOL     OW66671   5.589   1.527   4.882  0.3023 -0.4933 -0.2848
21473SOL    HW166672   5.672   1.495   4.848  0.4617  0.2845 -0.6520
21473SOL    HW266673   5.593   1.510   4.976  0.1512 -2.0203 -0.5312
21474SOL     OW66674   7.093   8.276   9.992 -0.2257  0.0613 -0.7393
21474SOL    HW166675   7.176   8.247  10.029 -0.1709  0.8181 -0.2700
21474SOL    HW266676   7.091   8.370  10.006 -1.0557  0.0866 -0.9699
21475SOL     OW66677   8.880   2.589   7.890  0.4290 -0.9110 -0.0123
21475SOL    HW166678   8.882   2.620   7.800  4.1321  0.6271  0.4369
21475SOL    HW266679   8.796   2.622   7.924  0.0312  0.5853 -2.2114
21476SOL     OW66680   6.584   2.704   7.954 -0.1390 -0.1121  0.2737
21476SOL    HW166681   6.498   2.675   7.982  0.5394 -1.1074  1.4256
21476SOL    HW266682   6.579   2.800   7.957 -0.9035 -0.1602  1.3453
21477SOL     OW66683   8.109   0.444   9.626  0.1136  1.3467  0.0619
21477SOL    HW166684   8.201   0.447   9.601  0.5423 -0.0099  1.3303
21477SOL    HW266685   8.107   0.389   9.705 -1.7952  1.2588  0.0076
21478SOL     OW66686   4.586   9.415   0.586 -0.1605  0.0280 -0.3579
21478SOL    HW166687   4.526   9.489   0.574 -0.2829 -0.0303 -0.1231
21478SOL    HW266688   4.666   9.454   0.620 -0.0068  0.1263 -0.8233
21479SOL     OW66689   6.032   4.534  10.373  0.0044 -0.1666 -0.2309
21479SOL    HW166690   6.014   4.589  10.297  1.3729 -0.4804 -0.8146
21479SOL    HW266691   6.036   4.445  10.338  0.0475 -0.3769  0.3031
21480SOL     OW66692   8.053   4.145   8.179  0.2987  0.0215 -0.0672
21480SOL    HW166693   8.005   4.086   8.237  0.7850  0.4237  0.7817
21480SOL    HW266694   8.081   4.217   8.237  1.9274 -0.2096 -0.5196
21481SOL     OW66695   7.342   6.454   4.719 -0.1416 -0.7080 -0.0918
21481SOL    HW166696   7.302   6.481   4.636  0.0363  0.3375  0.1421
21481SOL    HW266697   7.270   6.422   4.772 -0.1702 -1.9880 -0.8695
21482SOL     OW66698   0.367   4.199   1.088 -0.6925 -0.2577  0.1056
21482SOL    HW166699   0.420   4.278   1.100 -0.6707 -0.3779  0.8420
21482SOL    HW266700   0.291   4.229   1.038 -1.2500  0.4825  1.3393
21483SOL     OW66701   0.624   9.820   1.147  0.1214  0.0266  0.1334
21483SOL    HW166702   0.677   9.851   1.219 -0.5361  3.0831 -0.5499
21483SOL    HW266703   0.581   9.741   1.180 -0.6166  1.6152  3.3348
21484SOL     OW66704   1.953   9.515   0.154 -0.1265 -0.4940 -0.1798
21484SOL    HW166705   1.982   9.524   0.245  1.8187 -1.1341 -0.6870
21484SOL    HW266706   1.949   9.420   0.140 -0.0745 -0.3990 -0.8683
21485SOL     OW66707  10.524   7.615   9.143 -0.2599 -0.6188 -0.1264
21485SOL    HW166708  10.519   7.696   9.194 -1.1107 -0.3811 -0.5732
21485SOL    HW266709  10.594   7.631   9.079 -0.5405 -0.1736 -0.3238
21486SOL     OW66710   6.058   9.348   0.218  0.0557 -0.8002 -0.1147
21486SOL    HW166711   6.140   9.394   0.203 -0.4609 -0.0950 -0.8967
21486SOL    HW266712   6.007   9.408   0.274 -0.1288 -0.9905 -0.0771
21487SOL     OW66713   1.381   2.285   6.841 -0.3058  0.0430 -0.2643
21487SOL    HW166714   1.335   2.321   6.765 -0.5755  0.3457  0.0377
21487SOL    HW266715   1.420   2.362   6.883 -1.3199  0.0658  0.6846
21488SOL     OW66716   3.949   5.357   3.198 -0.8732 -0.3489  0.4568
21488SOL    HW166717   3.910   5.270   3.200 -0.7031 -0.4237  0.5690
21488SOL    HW266718   3.908   5.400   3.123 -0.0072 -0.9746 -0.3994
21489SOL     OW66719   8.745   7.589   4.368 -0.0120 -0.4353 -0.3307
21489SOL    HW166720   8.671   7.612   4.311  0.9272 -0.5276 -1.6154
21489SOL    HW266721   8.721   7.626   4.453 -0.2015  2.2566 -1.4273
21490SOL     OW66722   1.365   4.378  10.242  0.7289  0.1954 -0.0381
21490SOL    HW166723   1.407   4.444  10.186  0.6079  0.5745  0.3059
21490SOL    HW266724   1.339   4.308  10.182 -1.0430  1.4031 -0.7685
21491SOL     OW66725   9.275   8.525   3.874 -0.1188  0.3537 -0.5313
21491SOL    HW166726   9.360   8.488   3.849 -0.5470  0.0223 -1.5700
21491SOL    HW266727   9.212   8.460   3.843 -0.7430  0.4296  0.5424
21492SOL     OW66728   9.041   3.329   8.563 -0.2086 -0.0941 -0.0477
21492SOL    HW166729   8.976   3.295   8.501 -0.8930  1.4740 -0.2429
21492SOL    HW266730   9.117   3.351   8.509 -0.7280  1.0751 -0.3380
21493SOL     OW66731   6.263   0.910   8.230 -0.2421 -0.5537 -0.4850
21493SOL    HW166732   6.208   0.905   8.308  0.2151 -0.0507 -0.1282
21493SOL    HW266733   6.213   0.863   8.163 -0.8832 -0.5200 -0.0366
21494SOL     OW66734   7.374   5.418   4.600 -1.0938 -0.0064  0.0381
21494SOL    HW166735   7.311   5.384   4.663 -2.0777  0.0035 -0.9070
21494SOL    HW266736   7.459   5.406   4.642 -1.7283  0.1681  1.4311
21495SOL     OW66737   2.556   6.955   2.776  0.2260  0.4131 -0.5231
21495SOL    HW166738   2.463   6.978   2.775  0.1782  0.2095 -1.2580
21495SOL    HW266739   2.601   7.035   2.800 -0.2458  0.0966  1.6371
21496SOL     OW66740   2.000   0.544   6.135  0.4764 -0.2402  0.1610
21496SOL    HW166741   1.937   0.565   6.204  1.1142 -1.7562  1.2480
21496SOL    HW266742   2.063   0.617   6.136  0.3005 -0.0984  0.9589
21497SOL     OW66743   7.429   7.709   1.092  0.2305 -0.1260 -0.0794
21497SOL    HW166744   7.468   7.631   1.133 -0.5244 -0.2607  0.4113
21497SOL    HW266745   7.446   7.698   0.999  0.4446 -0.7090  0.0213
21498SOL     OW66746   1.078   6.604   6.693  0.9578  0.3974  0.2914
21498SOL    HW166747   1.078   6.599   6.789 -2.4508 -0.5175  0.3703
21498SOL    HW266748   1.058   6.515   6.665  1.4416  0.7595 -1.2668
21499SOL     OW66749   0.962   8.735   9.502 -0.3222  0.5140  0.2749
21499SOL    HW166750   0.897   8.805   9.508  0.0810  1.0391 -1.0203
21499SOL    HW266751   0.911   8.656   9.487 -0.6562  1.1645 -2.5240
21500SOL     OW66752   7.114  10.608   9.647  0.2490 -0.7064 -0.4194
21500SOL    HW166753   7.136  10.689   9.602  1.0196 -0.0804  1.0086
21500SOL    HW266754   7.043  10.570   9.596  1.4552 -0.3321 -2.4652
21501SOL     OW66755   3.110   0.438   7.426  0.4097 -0.2475 -0.4240
21501SOL    HW166756   3.048   0.462   7.495 -1.3480  1.3394 -2.4051
21501SOL    HW266757   3.163   0.517   7.412  0.2499 -0.2920 -1.3593
21502SOL     OW66758   6.529   2.572   8.310 -0.6208  0.9097  0.0871
21502SOL    HW166759   6.526   2.586   8.405 -0.3831  0.6578  0.1326
21502SOL    HW266760   6.461   2.630   8.275 -1.0776  0.6039  0.4607
21503SOL     OW66761  10.350   8.478   0.833 -0.7680  0.0326  0.4618
21503SOL    HW166762  10.443   8.469   0.813 -1.1229 -1.6294 -0.7917
21503SOL    HW266763  10.346   8.526   0.915  1.2306 -0.6235  0.9862
21504SOL     OW66764   9.539   4.923   5.912  0.4267  0.2811  1.1205
21504SOL    HW166765   9.449   4.952   5.924 -0.0789 -1.3015  1.3859
21504SOL    HW266766   9.560   4.947   5.822 -1.2332 -1.7118  0.1310
21505SOL     OW66767   2.344   2.582   0.221 -0.1630 -0.0631 -0.2444
21505SOL    HW166768   2.379   2.494   0.230  0.4403  0.3194  1.8274
21505SOL    HW266769   2.419   2.639   0.239 -0.6169  0.8802 -1.2211
21506SOL     OW66770   1.878   4.468   3.627  0.4552 -0.0689  0.0947
21506SOL    HW166771   1.881   4.430   3.715 -1.2368  2.7608  1.5272
21506SOL    HW266772   1.805   4.425   3.584 -1.9570  1.8581  1.9727
21507SOL     OW66773   8.611   9.721   1.982 -1.0764  0.5196  0.4418
21507SOL    HW166774   8.580   9.651   1.925  1.4509 -0.6275  0.3329
21507SOL    HW266775   8.680   9.764   1.931 -0.7275  1.3117  1.5441
21508SOL     OW66776   7.634   7.244   4.227  0.1576  0.0295 -0.2423
21508SOL    HW166777   7.632   7.330   4.270 -1.0969  0.6204 -1.4042
21508SOL    HW266778   7.584   7.187   4.285 -0.1963  0.4436 -0.1293
21509SOL     OW66779   7.697   9.719   7.376  0.2177  0.1139 -0.2415
21509SOL    HW166780   7.695   9.646   7.314  1.5938  0.9691 -1.3818
21509SOL    HW266781   7.763   9.778   7.339 -0.2658  1.5291  1.0930
21510SOL     OW66782   6.816   8.369   4.954  0.8263  0.1962 -0.2005
21510SOL    HW166783   6.853   8.390   5.040  1.0783 -2.4259  0.4160
21510SOL    HW266784   6.734   8.324   4.973  1.0798 -0.7820 -1.2916
21511SOL     OW66785  10.546   4.225   7.187 -0.3480  0.4216  0.2230
21511SOL    HW166786  10.488   4.246   7.260 -1.5938 -0.4063 -0.4729
21511SOL    HW266787  10.487   4.202   7.116  0.8416  0.7611 -0.9197
21512SOL     OW66788   0.552   0.581   5.293 -0.3586  0.2526 -0.1910
21512SOL    HW166789   0.471   0.531   5.284 -2.1465  2.7136  1.1233
21512SOL    HW266790   0.534   0.664   5.249  1.9643  0.3940 -0.9950
21513SOL     OW66791   1.251   1.836   5.995 -0.5040  0.4574 -0.1723
21513SOL    HW166792   1.301   1.843   5.914  3.9457 -1.1431  2.0524
21513SOL    HW266793   1.199   1.756   5.985  1.2730 -0.6606 -0.9260
21514SOL     OW66794   4.253   9.605   7.520 -0.5395  0.0774 -0.1267
21514SOL    HW166795   4.291   9.552   7.590 -0.8318 -0.5528 -0.4274
21514SOL    HW266796   4.222   9.540   7.456 -0.4854  0.6320 -0.7252
21515SOL     OW66797   8.774   7.094  10.638  0.1660 -0.4374 -0.3465
21515SOL    HW166798   8.727   7.022  10.681 -0.7415  0.2739 -0.1313
21515SOL    HW266799   8.849   7.110  10.695 -0.6506  0.0341  0.6242
21516SOL     OW66800   1.630  10.124   6.454  0.2543  0.0999  0.3588
21516SOL    HW166801   1.667  10.205   6.488 -0.0942  0.3830  0.0620
21516SOL    HW266802   1.649  10.059   6.522 -0.9993  0.7960  1.4168
21517SOL     OW66803   1.108  10.339   7.529  0.0781  0.2362  0.4436
21517SOL    HW166804   1.142  10.416   7.483  0.0356 -0.4160 -0.7140
21517SOL    HW266805   1.119  10.267   7.467 -0.2833 -0.6163  1.3453
21518SOL     OW66806   3.877  10.024   6.489 -0.3771 -0.4486  0.0627
21518SOL    HW166807   3.895  10.090   6.421 -0.1516 -1.4876 -0.9197
21518SOL    HW266808   3.956  10.025   6.544 -0.4339  0.1954  0.1459
21519SOL     OW66809   8.218   0.496   1.338  0.6234 -0.0816  0.0425
21519SOL    HW166810   8.263   0.573   1.374  2.0680 -0.4868 -0.8176
21519SOL    HW266811   8.227   0.505   1.244 -1.8812  0.2322 -0.2397
21520SOL     OW66812   3.108   8.091   8.155 -0.5460 -0.4578 -0.3240
21520SOL    HW166813   3.105   8.100   8.060  0.2589  0.1443 -0.3055
21520SOL    HW266814   3.102   7.997   8.170 -3.0271 -0.4518 -0.8428
21521SOL     OW66815   2.137   1.263   1.665  0.0155 -0.2146 -0.4394
21521SOL    HW166816   2.205   1.219   1.615 -0.4735 -0.6076 -0.7663
21521SOL    HW266817   2.062   1.203   1.663  0.1895 -0.5629  1.3369
21522SOL     OW66818   5.668   3.880   3.492 -0.1977 -0.2872  0.2770
21522SOL    HW166819   5.709   3.966   3.480 -2.1438  1.0282  2.2807
21522SOL    HW266820   5.607   3.872   3.419  0.1600 -0.0776 -0.0495
21523SOL     OW66821   2.631   1.231   9.156 -0.1573 -0.5721  0.1687
21523SOL    HW166822   2.551   1.279   9.132 -0.6813 -2.0157 -1.1824
21523SOL    HW266823   2.602   1.139   9.162  0.9556 -0.8293  1.9403
21524SOL     OW66824   4.568   3.392  10.168 -0.8143 -0.7203 -0.3139
21524SOL    HW166825   4.646   3.428  10.125 -0.0357 -1.4806  0.4125
21524SOL    HW266826   4.495   3.442  10.132  0.1164  0.7746 -0.1896
21525SOL     OW66827   7.892   1.479   0.207  0.2640  0.5152 -0.4425
21525SOL    HW166828   7.823   1.437   0.258 -0.8209  2.2958 -0.3551
21525SOL    HW266829   7.927   1.546   0.265 -0.4592  2.0588 -1.6913
21526SOL     OW66830   3.379   1.976   0.739  0.1037  0.2178 -0.2073
21526SOL    HW166831   3.421   2.006   0.659 -0.5343  2.1567  0.1333
21526SOL    HW266832   3.446   1.987   0.807  0.2798 -0.3705 -0.2781
21527SOL     OW66833   5.327   2.648   3.010  0.0152  0.2158 -0.3050
21527SOL    HW166834   5.322   2.573   3.069 -1.2149  0.1289 -0.4902
21527SOL    HW266835   5.266   2.712   3.047 -1.2140 -0.0542 -1.7555
21528SOL     OW66836   5.163   2.388   1.113 -0.0681 -0.7610  0.5329
21528SOL    HW166837   5.143   2.308   1.065 -1.5284  0.4711 -1.0403
21528SOL    HW266838   5.079   2.414   1.152 -0.0587  0.8645 -0.4241
21529SOL     OW66839   9.786   9.619   8.942  0.3599 -0.1001 -0.3912
21529SOL    HW166840   9.881   9.631   8.946  0.6042 -1.6560 -1.2100
21529SOL    HW266841   9.765   9.617   8.849 -0.4559 -0.0541 -0.2192
21530SOL     OW66842   3.528   1.062   9.345  0.1286  0.1960  0.5947
21530SOL    HW166843   3.483   1.004   9.407 -1.9303 -0.3185 -1.2448
21530SOL    HW266844   3.499   1.150   9.368  1.5679  0.3452  2.0335
21531SOL     OW66845   3.136   1.575   1.744 -0.1064 -0.1950  0.4954
21531SOL    HW166846   3.113   1.636   1.674 -1.7348 -0.0020  1.1574
21531SOL    HW266847   3.216   1.532   1.713  0.4419  1.4446 -0.4881
21532SOL     OW66848   9.859   3.194   9.102 -0.1664  0.4845 -0.2180
21532SOL    HW166849   9.922   3.162   9.165  0.0473  0.7231 -0.3075
21532SOL    HW266850   9.871   3.289   9.102  0.5674  0.4158 -1.3725
21533SOL     OW66851   0.672   9.394   0.464  0.4866  0.3758 -0.6783
21533SOL    HW166852   0.727   9.377   0.387  0.4995  0.2579 -0.6443
21533SOL    HW266853   0.586   9.362   0.439  0.0755  1.8556 -1.2562
21534SOL     OW66854  10.089   9.744   6.307 -0.2254 -0.1133 -0.3446
21534SOL    HW166855  10.103   9.666   6.254 -0.0510 -0.2599 -0.0789
21534SOL    HW266856  10.011   9.724   6.359  0.4114 -0.5056  0.4688
21535SOL     OW66857   1.124   8.979   3.955 -0.2392 -0.1224 -0.1242
21535SOL    HW166858   1.085   8.958   3.870  0.2055  0.9712 -0.6139
21535SOL    HW266859   1.066   8.937   4.019 -1.4244  0.2626 -0.9027
21536SOL     OW66860   4.395   2.535   6.040 -0.2663  0.3785  0.3792
21536SOL    HW166861   4.305   2.555   6.064 -0.3098  0.8720 -0.1615
21536SOL    HW266862   4.429   2.617   6.004 -0.3464 -0.4285 -1.6319
21537SOL     OW66863   2.682   5.550   4.150 -0.7471  0.1501 -0.0168
21537SOL    HW166864   2.720   5.637   4.167 -0.5463  0.2584 -0.9384
21537SOL    HW266865   2.642   5.559   4.063  1.2535 -1.3169 -1.1688
21538SOL     OW66866   2.972   7.794   7.235  0.0103  0.3391  0.7714
21538SOL    HW166867   3.001   7.755   7.152  1.1316  1.7937  0.4261
21538SOL    HW266868   3.013   7.881   7.236 -1.9838  1.3419  1.7090
21539SOL     OW66869   8.965   4.005   3.876  0.4246  0.6178  0.3233
21539SOL    HW166870   9.046   3.985   3.829 -1.1081 -1.1624 -1.7364
21539SOL    HW266871   8.914   4.059   3.815 -1.3757 -1.2722  0.0352
21540SOL     OW66872   3.637   7.455   0.557  0.3898  0.1791  0.3460
21540SOL    HW166873   3.647   7.442   0.652  0.4999 -2.1068  0.0697
21540SOL    HW266874   3.552   7.418   0.537  0.9003 -0.4943 -0.6288
21541SOL     OW66875   7.350   7.513   6.586  0.2790  0.1586 -0.2644
21541SOL    HW166876   7.422   7.556   6.540 -0.2165  1.1678 -0.1446
21541SOL    HW266877   7.371   7.420   6.583  1.5250  0.4266 -0.3153
21542SOL     OW66878  10.487   2.587   4.091  0.0287 -0.1255  0.2737
21542SOL    HW166879  10.440   2.667   4.068  0.9865 -0.2493 -2.5096
21542SOL    HW266880  10.512   2.600   4.183 -1.4487  1.9064  0.4716
21543SOL     OW66881   6.640  10.580   9.440  0.4363  0.5431 -0.7320
21543SOL    HW166882   6.690  10.518   9.492  0.0734 -2.3864 -3.5358
21543SOL    HW266883   6.572  10.612   9.499  0.9406 -1.4044  1.0147
21544SOL     OW66884  10.017   4.071   1.095 -0.3493 -0.1105 -0.0938
21544SOL    HW166885  10.073   3.997   1.075  0.4926  1.0166 -2.1436
21544SOL    HW266886  10.076   4.146   1.101 -1.6091  1.4048 -3.7978
21545SOL     OW66887   7.018   9.212   6.371  0.5104 -0.1048  0.1214
21545SOL    HW166888   7.075   9.181   6.301  1.7786  1.1116  0.5618
21545SOL    HW266889   7.076   9.219   6.447 -0.8651 -1.5663  1.3613
21546SOL     OW66890   0.355   3.058   0.688 -0.2713  0.3792  0.2611
21546SOL    HW166891   0.439   3.016   0.668 -0.5515  0.5059 -1.3517
21546SOL    HW266892   0.294   2.986   0.702 -0.4966  0.2091 -1.3807
21547SOL     OW66893   3.080   2.148   0.084  0.2452  0.5485  0.2124
21547SOL    HW166894   3.100   2.060   0.116  3.4694  1.4830  1.1757
21547SOL    HW266895   3.000   2.173   0.131  1.2154 -0.5820  2.6561
21548SOL     OW66896   5.996   1.983  10.442  0.0256 -0.3873 -0.2190
21548SOL    HW166897   6.038   2.007  10.525  0.4654  0.9755 -0.8025
21548SOL    HW266898   6.042   2.036  10.377 -2.5081  1.0972 -0.9137
21549SOL     OW66899   3.009   7.477   0.741  0.0995  0.0084 -0.1754
21549SOL    HW166900   2.995   7.446   0.651 -0.1256 -0.0782 -0.1115
21549SOL    HW266901   3.013   7.397   0.794  0.7198  0.0363 -0.1710
21550SOL     OW66902   7.274   9.299   4.937 -0.1632  0.5580 -0.3429
21550SOL    HW166903   7.193   9.331   4.977 -0.1944  1.7838 -1.3190
21550SOL    HW266904   7.336   9.293   5.008 -0.3419  2.2470 -0.0094
21551SOL     OW66905   0.540   3.844   4.411  0.1901 -0.6756 -0.3340
21551SOL    HW166906   0.487   3.791   4.470  0.4716 -0.5570  0.0281
21551SOL    HW266907   0.528   3.934   4.441 -0.7288 -0.4648 -1.2971
21552SOL     OW66908   1.425   5.206   6.223  0.2976 -0.0219 -0.4749
21552SOL    HW166909   1.465   5.120   6.214  0.6634 -0.0891  1.4663
21552SOL    HW266910   1.379   5.220   6.140 -0.3225 -2.3617 -0.5951
21553SOL     OW66911   9.631   2.256   1.587 -0.1278  0.5017  0.6177
21553SOL    HW166912   9.594   2.169   1.601 -1.5981  0.9347 -0.2814
21553SOL    HW266913   9.723   2.240   1.568  0.0091 -0.7068  2.1284
21554SOL     OW66914   1.816   6.118   4.746 -0.0991 -0.1370  0.0362
21554SOL    HW166915   1.803   6.129   4.652 -2.1537 -0.0143  0.2921
21554SOL    HW266916   1.911   6.118   4.757  0.1912 -0.1840 -2.0309
21555SOL     OW66917   8.703   7.120   7.407  0.1513 -0.0425  0.0134
21555SOL    HW166918   8.662   7.067   7.476  0.6605 -2.1429 -1.2251
21555SOL    HW266919   8.651   7.102   7.329  0.9581  0.5002 -0.6669
21556SOL     OW66920   9.841   4.460   4.041 -0.1694 -0.1034 -0.4252
21556SOL    HW166921   9.931   4.482   4.015 -0.3520  1.4349  0.1745
21556SOL    HW266922   9.802   4.426   3.961  1.1427 -1.5076 -0.5241
21557SOL     OW66923   3.637   5.262  10.368 -0.6102 -0.3318 -0.2373
21557SOL    HW166924   3.705   5.290  10.430 -1.1593  0.7411 -0.0875
21557SOL    HW266925   3.564   5.323  10.384 -0.9046 -0.2770 -1.6631
21558SOL     OW66926   6.242   4.920   3.776  0.0747  0.2175  0.4715
21558SOL    HW166927   6.338   4.917   3.783  0.1148 -0.7489 -0.3383
21558SOL    HW266928   6.211   4.871   3.852  0.2689 -1.0552 -0.2580
21559SOL     OW66929   6.568   5.830   3.555  0.4630  0.3484 -0.5986
21559SOL    HW166930   6.569   5.923   3.533 -0.2871  0.5057 -0.0245
21559SOL    HW266931   6.573   5.785   3.471 -0.3347  0.9127 -0.9571
21560SOL     OW66932   9.204   3.494   3.802  0.0915  0.1914 -0.2132
21560SOL    HW166933   9.207   3.507   3.707  1.1350 -0.2254 -0.2468
21560SOL    HW266934   9.132   3.432   3.815 -0.2674  0.4945 -0.6911
21561SOL     OW66935   1.658   3.699   5.589  0.3417 -0.3366  0.0788
21561SOL    HW166936   1.725   3.763   5.613  0.0031 -0.4316  1.3724
21561SOL    HW266937   1.700   3.645   5.522  1.1108  0.3851 -0.0442
21562SOL     OW66938   5.239   1.322   9.555 -0.2224  0.4429  0.2435
21562SOL    HW166939   5.239   1.253   9.489  0.4966  1.2980 -0.6859
21562SOL    HW266940   5.281   1.396   9.512 -2.7965  2.1712  0.4704
21563SOL     OW66941   9.109   3.329   8.842 -0.1853  0.3840  0.4518
21563SOL    HW166942   9.125   3.237   8.861 -0.4100  0.5893  1.7544
21563SOL    HW266943   9.073   3.330   8.753 -0.8297 -0.8473  0.6794
21564SOL     OW66944   5.060   2.454   7.070  0.0161 -0.0219 -0.3638
21564SOL    HW166945   4.987   2.393   7.058 -0.1571 -0.4349  2.3628
21564SOL    HW266946   5.051   2.515   6.996 -4.2535  1.0862  0.7516
21565SOL     OW66947   9.833   9.650   9.898  0.2758 -0.1757  0.1120
21565SOL    HW166948   9.876   9.609   9.824  0.8977  1.3944 -0.4272
21565SOL    HW266949   9.863   9.741   9.897 -1.6024  0.5059  0.8296
21566SOL     OW66950   4.260   2.093   2.294  0.0263  0.3474  0.1197
21566SOL    HW166951   4.221   2.010   2.321  0.8652  0.1380  0.7235
21566SOL    HW266952   4.188   2.140   2.252  0.1643 -1.7835 -2.7983
21567SOL     OW66953   3.333  10.618   5.737 -0.1808 -0.1474 -0.0692
21567SOL    HW166954   3.300  10.576   5.657 -2.6768  1.9503 -0.2786
21567SOL    HW266955   3.260  10.612   5.799  0.1353  1.9179  0.5835
21568SOL     OW66956   1.671   4.108   4.348  0.5222  0.1253 -0.8940
21568SOL    HW166957   1.697   4.052   4.275  2.4671 -1.6348  1.0094
21568SOL    HW266958   1.668   4.049   4.424 -3.0074  1.5281  0.2664
21569SOL     OW66959  10.182   3.535   2.118  0.5751  0.2024 -0.3231
21569SOL    HW166960  10.163   3.627   2.103  1.4291  0.5710  0.7649
21569SOL    HW266961  10.118   3.507   2.183  2.3765  0.9507  1.9036
21570SOL     OW66962   1.730   6.216   2.586 -0.0850 -0.2886  0.1376
21570SOL    HW166963   1.683   6.297   2.608 -0.9544 -0.8953  0.5783
21570SOL    HW266964   1.675   6.174   2.520  0.7147 -0.2042 -0.6035
21571SOL     OW66965   3.362   7.340   0.601 -0.3363 -0.7668  0.1897
21571SOL    HW166966   3.309   7.314   0.526  1.1918 -0.7900 -0.9236
21571SOL    HW266967   3.375   7.259   0.650  0.2903 -1.1635 -0.6041
21572SOL     OW66968   4.065   4.266   2.546 -0.7818  0.6153 -0.1158
21572SOL    HW166969   4.072   4.187   2.492  2.0958  0.5656  0.1685
21572SOL    HW266970   4.138   4.321   2.516 -0.8708  1.8326  1.7781
21573SOL     OW66971   1.514   8.749   2.637  0.1497  0.5459  0.0091
21573SOL    HW166972   1.587   8.794   2.595 -0.3699  1.1243 -0.2924
21573SOL    HW266973   1.482   8.688   2.570  0.3813  0.2621  0.1558
21574SOL     OW66974   7.923   4.907   1.319  0.1570  0.0491  0.0665
21574SOL    HW166975   7.969   4.990   1.333 -1.3962  0.9721  0.0000
21574SOL    HW266976   7.853   4.907   1.384 -0.2901 -0.8801 -0.3942
21575SOL     OW66977   7.636   8.792  10.455  0.7550  0.2503  0.3766
21575SOL    HW166978   7.658   8.827  10.368  0.2423  0.9671  0.5286
21575SOL    HW266979   7.638   8.868  10.513 -2.2804  0.4641  0.3628
21576SOL     OW66980   2.300   2.282   3.147  0.4815 -0.1698  0.0849
21576SOL    HW166981   2.244   2.344   3.195  1.0185 -1.1189  2.0345
21576SOL    HW266982   2.238   2.221   3.106  0.0135 -0.1199  0.6959
21577SOL     OW66983  10.426   3.561   0.128  0.6686  0.2785  0.3383
21577SOL    HW166984  10.499   3.542   0.069  0.2056  1.0847 -0.5213
21577SOL    HW266985  10.348   3.531   0.081  0.4502 -1.1280  1.4914
21578SOL     OW66986   5.608   1.224   5.289  0.4767 -0.1153 -0.0419
21578SOL    HW166987   5.523   1.183   5.275 -0.6817  2.5278 -1.5411
21578SOL    HW266988   5.617   1.227   5.385 -1.0553 -0.5824  0.1501
21579SOL     OW66989   8.631   2.804   9.752 -0.4112  0.2185 -0.4023
21579SOL    HW166990   8.641   2.783   9.659  0.6745  0.8666 -0.4546
21579SOL    HW266991   8.608   2.721   9.793 -0.0127 -0.2606 -1.1220
21580SOL     OW66992   2.674   4.182   6.084 -0.0076  0.0787 -0.0898
21580SOL    HW166993   2.698   4.262   6.131 -1.2590 -1.4485  3.5381
21580SOL    HW266994   2.621   4.213   6.010  0.8476  2.6266  0.2566
21581SOL     OW66995   6.454   5.431   6.496 -0.3193 -0.3784 -0.0736
21581SOL    HW166996   6.456   5.526   6.505  0.3144 -0.4863  1.1372
21581SOL    HW266997   6.374   5.404   6.542 -1.6457 -0.3136 -2.1809
21582SOL     OW66998   2.239   2.390   2.864 -0.4187  0.0750  0.5912
21582SOL    HW166999   2.261   2.351   2.949 -2.0546  1.6803  1.8329
21582SOL    HW267000   2.186   2.322   2.821  1.3042 -1.1756  0.3333
21583SOL     OW67001   4.326   2.133   9.213  0.7355 -0.3169 -0.2709
21583SOL    HW167002   4.275   2.123   9.293  1.0616 -0.8795 -0.1360
21583SOL    HW267003   4.411   2.165   9.242  0.6449  0.1156 -0.4556
21584SOL     OW67004   5.112  10.201   0.054 -0.5984  0.6510 -0.0595
21584SOL    HW167005   5.157  10.252   0.122 -0.9478  0.2698  0.4675
21584SOL    HW267006   5.181  10.148   0.015 -0.0634  2.1231 -1.1972
21585SOL     OW67007   9.924   4.826   6.269  0.0357  0.0661 -0.4460
21585SOL    HW167008   9.916   4.811   6.364  0.5335 -0.1988 -0.4419
21585SOL    HW267009   9.844   4.789   6.232  1.4187 -3.1879 -0.4963
21586SOL     OW67010   7.842   6.366   6.100  0.1472 -0.3369  0.1226
21586SOL    HW167011   7.779   6.314   6.050  0.8068 -1.9826  0.8932
21586SOL    HW267012   7.879   6.427   6.036  0.5432 -1.9765 -1.3057
21587SOL     OW67013   1.343   2.993   7.017  0.3387 -0.3064  0.6604
21587SOL    HW167014   1.334   2.907   6.977 -0.1737  0.5054 -1.0511
21587SOL    HW267015   1.402   3.041   6.959 -1.3593  1.2813  0.1465
21588SOL     OW67016   3.608   9.797   6.309  0.0230  0.6595  0.3138
21588SOL    HW167017   3.697   9.830   6.324 -0.0265  0.2699  1.6177
21588SOL    HW267018   3.575   9.848   6.235  1.3493  0.7601 -0.2284
21589SOL     OW67019   8.373   2.705   7.080  0.3503  0.0936  0.1120
21589SOL    HW167020   8.375   2.782   7.136 -0.6338  1.1826 -1.2638
21589SOL    HW267021   8.339   2.635   7.136 -0.8460  1.1968  0.8216
21590SOL     OW67022   5.945   3.707   1.029 -0.1724  0.3257 -0.3275
21590SOL    HW167023   5.903   3.768   1.090  0.8342  1.7211 -0.9907
21590SOL    HW267024   5.891   3.628   1.034 -0.6840  0.7406  1.6226
21591SOL     OW67025   9.475   7.815   4.979 -0.0624  0.1060  0.3666
21591SOL    HW167026   9.503   7.891   5.030 -0.5521  1.4167 -1.2419
21591SOL    HW267027   9.387   7.795   5.010 -0.4109  0.9835 -0.0497
21592SOL     OW67028   8.724   7.180   6.062 -0.0378 -0.0377  0.4550
21592SOL    HW167029   8.701   7.105   6.116 -0.0304 -1.0513 -0.9026
21592SOL    HW267030   8.648   7.195   6.006  0.1763  0.5994  0.3229
21593SOL     OW67031   7.946   2.051   9.558  0.1505 -0.1694 -0.0867
21593SOL    HW167032   7.999   1.988   9.509 -1.7362 -1.4535 -0.5840
21593SOL    HW267033   7.856   2.019   9.549 -1.1382  3.4024 -1.5761
21594SOL     OW67034   8.818   6.285   3.675 -0.0129  0.2273  0.9709
21594SOL    HW167035   8.778   6.198   3.670 -1.2766  0.8307  0.1959
21594SOL    HW267036   8.855   6.289   3.763  0.7093 -1.3504  0.7856
21595SOL     OW67037   0.418   8.108   8.081  0.3339  0.7173 -0.8622
21595SOL    HW167038   0.426   8.099   7.986 -0.7570  1.2020 -1.0204
21595SOL    HW267039   0.423   8.018   8.113  3.0725  0.6858 -1.1134
21596SOL     OW67040   0.980   1.622   9.204  0.3478 -0.0583 -0.1781
21596SOL    HW167041   0.891   1.658   9.204  0.7684  1.0281  0.4235
21596SOL    HW267042   1.020   1.656   9.284  1.3563 -0.4099 -0.5120
21597SOL     OW67043  10.053   3.272   1.617 -0.5846 -0.0653 -0.2222
21597SOL    HW167044   9.996   3.275   1.694 -1.2316 -1.6760 -0.5983
21597SOL    HW267045  10.045   3.183   1.585  0.7913  0.1766 -1.3395
21598SOL     OW67046   5.677   9.621   3.073  0.4837 -0.6038  0.2933
21598SOL    HW167047   5.745   9.570   3.029 -1.1850 -0.9125 -2.1526
21598SOL    HW267048   5.603   9.561   3.081 -0.8095  0.7727 -0.7257
21599SOL     OW67049   7.276   0.168   6.359 -0.2043 -0.2462 -0.4544
21599SOL    HW167050   7.284   0.250   6.407 -1.2030 -0.9621  1.0587
21599SOL    HW267051   7.206   0.184   6.296 -0.6723 -0.0355  0.1053
21600SOL     OW67052   7.192   0.029   6.990 -0.7565  0.7364  0.1601
21600SOL    HW167053   7.191  -0.064   7.012 -0.2671  0.6278 -0.2544
21600SOL    HW267054   7.193   0.031   6.894 -0.7454  1.1661  0.1653
21601SOL     OW67055   0.630   2.194   0.134  0.1275  0.1018  0.0051
21601SOL    HW167056   0.675   2.124   0.181  0.8722  0.3140 -0.3862
21601SOL    HW267057   0.646   2.272   0.187 -0.9050 -0.0498  0.5701
21602SOL     OW67058   3.588   6.457   7.263  0.2698  0.0943  0.2100
21602SOL    HW167059   3.633   6.532   7.225 -0.4645  0.4512  0.0365
21602SOL    HW267060   3.579   6.478   7.356  2.2931 -0.8896  0.6868
21603SOL     OW67061   1.578   3.994   6.712  0.2921 -0.0099  0.2758
21603SOL    HW167062   1.632   4.073   6.716 -0.5824  0.6687 -0.7393
21603SOL    HW267063   1.612   3.946   6.637  0.4582 -0.3286  0.5538
21604SOL     OW67064   0.614   1.935   3.611 -0.1497 -0.6360  0.3697
21604SOL    HW167065   0.641   1.999   3.546  0.8769 -2.5720 -1.2071
21604SOL    HW267066   0.572   1.987   3.680  0.2150  1.6436 -1.0341
21605SOL     OW67067   8.149   6.934   5.828  0.1992 -1.0481 -0.1540
21605SOL    HW167068   8.084   6.951   5.760  1.3959 -0.9848 -1.3434
21605SOL    HW267069   8.207   6.868   5.790  2.2753  0.6828 -0.2028
21606SOL     OW67070   9.520   0.454   1.626  0.2473  0.3297 -0.4388
21606SOL    HW167071   9.583   0.452   1.555 -0.0129 -1.0489 -0.6690
21606SOL    HW267072   9.571   0.482   1.702  0.9053  0.2386 -0.8363
21607SOL     OW67073   5.212   3.067   8.682 -0.1198 -0.4402 -0.2980
21607SOL    HW167074   5.282   3.007   8.655 -1.4209 -1.6242 -1.1656
21607SOL    HW267075   5.207   3.130   8.610  1.1319  0.6635  0.5345
21608SOL     OW67076   1.598   4.144   9.090  0.0451 -0.2774  0.7865
21608SOL    HW167077   1.541   4.195   9.033  0.4096  1.3130  1.7576
21608SOL    HW267078   1.645   4.210   9.142  2.7934 -1.4720  0.0275
21609SOL     OW67079   4.076  10.049   2.693 -0.0366  0.1083 -0.3547
21609SOL    HW167080   4.025   9.968   2.693  0.9805 -0.5464 -0.2395
21609SOL    HW267081   4.153  10.029   2.640  0.4881  0.8283  0.1159
21610SOL     OW67082   1.295   6.058   8.434  0.0755  0.2096  0.3481
21610SOL    HW167083   1.370   6.026   8.484 -0.2571 -3.7425 -1.3059
21610SOL    HW267084   1.332   6.081   8.349 -0.4484 -1.3539 -0.3339
21611SOL     OW67085   7.802   0.862   4.881  0.5577  0.1259  0.3333
21611SOL    HW167086   7.743   0.801   4.839 -0.6434  0.6773  1.1763
21611SOL    HW267087   7.816   0.827   4.969  0.9274  0.3593  0.3725
21612SOL     OW67088   1.982   7.882   5.999 -0.0112 -0.0700 -0.6933
21612SOL    HW167089   2.068   7.921   6.017 -0.4076  0.8170 -0.6624
21612SOL    HW267090   2.001   7.806   5.945  1.0522 -1.6166  1.6900
21613SOL     OW67091   2.051   5.750   1.438 -0.1037  0.0435 -0.3490
21613SOL    HW167092   2.057   5.720   1.347 -0.2922 -0.1111 -0.3096
21613SOL    HW267093   2.030   5.672   1.488  0.3616  0.0602 -0.1225
21614SOL     OW67094  10.023   3.803   8.852 -0.1558 -0.1650 -0.1691
21614SOL    HW167095   9.998   3.718   8.816  0.3630 -0.3671 -0.0546
21614SOL    HW267096  10.009   3.864   8.780  1.9894 -0.7260 -1.1398
21615SOL     OW67097   8.376   2.297   0.609  0.1439 -0.0601 -0.2882
21615SOL    HW167098   8.445   2.280   0.545  0.3618  0.2826 -0.1489
21615SOL    HW267099   8.417   2.281   0.694  0.3609  1.1090 -0.1473
21616SOL     OW67100   9.867   9.402   8.187 -0.2184 -0.0698  0.3794
21616SOL    HW167101   9.778   9.385   8.155  0.0070  0.0040 -0.2914
21616SOL    HW267102   9.915   9.322   8.167 -0.5959 -0.8824  2.5014
21617SOL     OW67103   6.100   5.830   3.064  0.0285 -0.0826 -0.2087
21617SOL    HW167104   6.192   5.856   3.054  0.3794 -1.5988 -1.3125
21617SOL    HW267105   6.080   5.781   2.984 -1.4228 -0.7148  0.5037
21618SOL     OW67106   8.266   1.897   6.079 -0.2461  0.4876  0.4251
21618SOL    HW167107   8.178   1.926   6.053 -0.4583 -1.6216 -1.4888
21618SOL    HW267108   8.322   1.925   6.007  0.3826  0.3851  0.8688
21619SOL     OW67109   6.511   6.884   5.260 -0.1959  0.0311  0.0955
21619SOL    HW167110   6.487   6.914   5.173  0.0948  1.0886  0.3681
21619SOL    HW267111   6.460   6.938   5.320  0.4450  0.0802  0.6056
21620SOL     OW67112   3.200   6.083   4.000 -0.0190  0.5050  0.2309
21620SOL    HW167113   3.217   6.013   3.937  0.0656  0.6174  0.1285
21620SOL    HW267114   3.259   6.154   3.974 -0.4807  0.8130  0.0179
21621SOL     OW67115   4.475   4.923   8.528  0.5905 -0.0140  0.6006
21621SOL    HW167116   4.493   4.902   8.436  2.2524  1.5217  0.5174
21621SOL    HW267117   4.388   4.963   8.527  0.7988  0.4532 -0.3963
21622SOL     OW67118  10.345   1.456   1.492  0.4742  0.2421  0.7835
21622SOL    HW167119  10.388   1.379   1.456  1.7101  0.3756  1.8950
21622SOL    HW267120  10.275   1.420   1.547  0.4353 -0.0480  0.5466
21623SOL     OW67121   6.392   0.426  10.628 -0.1417  0.3565  0.1735
21623SOL    HW167122   6.407   0.444  10.721 -1.6929  2.3164  0.1026
21623SOL    HW267123   6.448   0.489  10.582 -0.4491  0.3682 -0.1946
21624SOL     OW67124   7.992   8.089   5.732  0.0099 -0.5537  0.3455
21624SOL    HW167125   8.035   8.171   5.756 -0.6989  0.0559 -0.3888
21624SOL    HW267126   7.916   8.116   5.681 -0.2992 -1.6721  0.1818
21625SOL     OW67127   1.280   0.160   2.799 -0.0169  0.0475 -0.6832
21625SOL    HW167128   1.302   0.072   2.770  1.4969 -0.4916  1.8144
21625SOL    HW267129   1.225   0.147   2.876 -2.9657  1.3903 -2.3855
21626SOL     OW67130   0.568   6.923   0.841 -0.1232  0.2377 -0.0270
21626SOL    HW167131   0.566   7.011   0.803 -0.4480  0.0043 -0.5531
21626SOL    HW267132   0.629   6.930   0.914  1.1848  0.4748 -1.1080
21627SOL     OW67133   2.494   3.848   5.121  0.0245  0.0716 -0.4932
21627SOL    HW167134   2.547   3.925   5.101  0.7478 -0.5353 -0.9631
21627SOL    HW267135   2.558   3.780   5.144 -0.4262 -1.1062 -2.4993
21628SOL     OW67136   6.540   1.604   9.051  0.1245  0.7492 -0.6164
21628SOL    HW167137   6.499   1.691   9.051 -1.3060  0.1066  0.4516
21628SOL    HW267138   6.599   1.606   9.127  0.9270  1.1410 -1.2363
21629SOL     OW67139   7.103   0.275   7.481  0.4364 -0.5529 -0.2766
21629SOL    HW167140   7.036   0.315   7.536  0.4296 -1.3957  0.3598
21629SOL    HW267141   7.129   0.344   7.420 -0.7001 -0.0917 -0.2565
21630SOL     OW67142  10.505   5.153   6.542  0.1341 -0.1050  0.7359
21630SOL    HW167143  10.490   5.161   6.447 -0.8188  0.1057  0.9026
21630SOL    HW267144  10.522   5.243   6.571 -0.6885 -0.0148  0.9488
21631SOL     OW67145   3.548   2.375   3.533  0.1325 -0.1312 -0.3800
21631SOL    HW167146   3.610   2.337   3.471  0.7234 -2.2610  1.4259
21631SOL    HW267147   3.602   2.422   3.596 -0.4939  2.4390 -1.6035
21632SOL     OW67148   6.626   1.455   5.143 -0.6315 -0.4731 -0.0063
21632SOL    HW167149   6.707   1.482   5.100 -1.0201 -0.1484 -0.5532
21632SOL    HW267150   6.598   1.378   5.094 -0.4932 -0.7774  0.3849
21633SOL     OW67151   6.317   4.857  10.651 -0.2825  0.1223 -0.0896
21633SOL    HW167152   6.255   4.808  10.596 -1.4276  0.3242  0.9804
21633SOL    HW267153   6.305   4.821  10.739  1.1860  0.1292  0.1454
21634SOL     OW67154   4.637   2.966   9.755 -0.4472  0.3783 -0.0822
21634SOL    HW167155   4.638   3.028   9.827  1.6471  0.5493 -0.1868
21634SOL    HW267156   4.692   2.894   9.785  0.0764  0.2388 -1.3102
21635SOL     OW67157   9.056   8.051   1.828  0.5256 -0.4533 -0.2565
21635SOL    HW167158   9.057   8.067   1.734 -0.1112  0.1021 -0.1766
21635SOL    HW267159   9.029   8.135   1.867 -1.4467 -1.2875  0.2736
21636SOL     OW67160   6.608   2.200   5.523 -0.2913  0.7962  0.3548
21636SOL    HW167161   6.631   2.215   5.432  0.0092 -1.3196  0.0206
21636SOL    HW267162   6.538   2.134   5.520  0.4848 -0.1492  1.6437
21637SOL     OW67163   1.210   6.858   5.611 -0.1698 -0.3456  0.2874
21637SOL    HW167164   1.281   6.799   5.637  1.2762  1.6683  1.2274
21637SOL    HW267165   1.249   6.913   5.543 -0.9090  0.6034  0.6158
21638SOL     OW67166   5.020   8.189   1.831 -0.0245  0.2928  0.7324
21638SOL    HW167167   5.057   8.170   1.745  1.1648  1.2420  1.0068
21638SOL    HW267168   5.094   8.221   1.882 -0.4421 -1.2738  2.4600
21639SOL     OW67169   3.671   5.408   9.076 -0.2233 -0.0556  0.2076
21639SOL    HW167170   3.735   5.354   9.123  0.3287 -0.0342 -0.5132
21639SOL    HW267171   3.596   5.350   9.063  1.0779 -1.3405 -2.2675
21640SOL     OW67172   4.772   8.445   3.664  0.6612  0.2372  0.1854
21640SOL    HW167173   4.792   8.486   3.580  3.0650 -1.1908 -0.0261
21640SOL    HW267174   4.847   8.466   3.719  0.8642 -1.8600  0.7956
21641SOL     OW67175   9.571   3.433   0.134 -0.4188  0.2304  0.1181
21641SOL    HW167176   9.636   3.420   0.066 -1.5198 -1.3598 -0.6948
21641SOL    HW267177   9.580   3.525   0.158  2.4975 -0.0656  0.4920
21642SOL     OW67178   5.781   3.819   7.677  0.5178 -0.2594  0.2430
21642SOL    HW167179   5.791   3.822   7.772  1.0055  0.8237  0.1807
21642SOL    HW267180   5.771   3.727   7.656  2.5132 -0.7406  1.1470
21643SOL     OW67181   2.381   9.757   2.853  0.6781 -0.4425  0.6735
21643SOL    HW167182   2.409   9.820   2.919 -0.2584  0.2889  0.3939
21643SOL    HW267183   2.338   9.687   2.902  1.3194 -0.6468  0.9497
21644SOL     OW67184   1.983   7.534   1.890 -0.1013 -0.4020  0.0628
21644SOL    HW167185   1.982   7.620   1.850 -1.1331  0.7857  2.4782
21644SOL    HW267186   1.920   7.483   1.839 -0.4891  0.6725 -0.5656
21645SOL     OW67187   1.312   4.819   9.976  0.2817 -0.3216  0.0448
21645SOL    HW167188   1.274   4.836   9.889  0.2057  1.2102  0.3555
21645SOL    HW267189   1.348   4.904  10.003  0.2564 -0.7699  1.5382
21646SOL     OW67190  10.350   8.127   8.223 -0.5081  0.0240 -0.1527
21646SOL    HW167191  10.432   8.079   8.220  0.2108  1.2484 -1.0412
21646SOL    HW267192  10.348   8.178   8.142 -1.5749  0.9118  0.3897
21647SOL     OW67193   4.114   9.929   7.130  0.1522  0.3797  1.0457
21647SOL    HW167194   4.167   9.994   7.176 -0.9186  1.1396  1.2296
21647SOL    HW267195   4.089   9.867   7.198 -0.8205  1.1027  1.3669
21648SOL     OW67196   7.679  10.620   5.973  0.3571  0.3618 -1.1169
21648SOL    HW167197   7.646  10.689   5.914 -0.9620  0.9769  0.2810
21648SOL    HW267198   7.716  10.668   6.047 -0.7860 -0.4067 -0.0096
21649SOL     OW67199   3.839  10.613   0.687  0.2763 -0.0765 -0.0860
21649SOL    HW167200   3.777  10.600   0.758  0.4332  0.1037  0.0834
21649SOL    HW267201   3.792  10.584   0.609  1.1388 -3.2174  0.4361
21650SOL     OW67202   3.211   1.123   6.634  0.5013 -0.0330  0.2711
21650SOL    HW167203   3.175   1.207   6.606  1.5179 -0.2758 -1.9545
21650SOL    HW267204   3.243   1.139   6.723  0.2109  1.7838  0.0824
21651SOL     OW67205   8.562   1.177   8.733  0.2460 -0.1110 -0.5577
21651SOL    HW167206   8.604   1.124   8.665  0.6910  0.0325 -0.3963
21651SOL    HW267207   8.587   1.267   8.713 -0.2739  0.0149 -0.6618
21652SOL     OW67208   8.312   8.422   4.286  0.1699 -0.0112 -0.2669
21652SOL    HW167209   8.239   8.468   4.246 -0.3694  0.5391  1.2789
21652SOL    HW267210   8.368   8.397   4.213 -2.0929 -1.4586 -1.6258
21653SOL     OW67211   1.972   8.629   6.469  0.2541  0.8053  0.3792
21653SOL    HW167212   1.898   8.608   6.412  0.6275 -0.2058  0.2346
21653SOL    HW267213   2.049   8.620   6.412  0.6122  0.0223  0.9710
21654SOL     OW67214   5.272   1.918   1.830 -0.2026 -0.1250 -0.2031
21654SOL    HW167215   5.343   1.881   1.883 -0.2039 -1.2920 -0.9773
21654SOL    HW267216   5.230   1.842   1.790 -0.6802  0.6854 -1.2816
21655SOL     OW67217   7.527   4.741   4.990  0.2175  0.1932 -0.1661
21655SOL    HW167218   7.478   4.759   5.070 -0.3939  0.8014 -0.6664
21655SOL    HW267219   7.467   4.688   4.937  0.4663  0.1404 -0.3964
21656SOL     OW67220   3.001   8.467   7.279 -0.0607  0.1734 -0.2583
21656SOL    HW167221   2.914   8.504   7.261  0.5665  2.1889  0.6111
21656SOL    HW267222   3.005   8.389   7.223 -1.9963  0.6274 -1.1433
21657SOL     OW67223   4.484   3.459   4.940  0.5111  0.1779  0.5609
21657SOL    HW167224   4.577   3.475   4.954  0.8134 -1.6403  0.9470
21657SOL    HW267225   4.455   3.414   5.019 -0.3962 -0.3873 -0.0717
21658SOL     OW67226   2.292   2.402   4.554  0.1053 -0.1145  0.4242
21658SOL    HW167227   2.295   2.310   4.578 -0.7497 -0.1698  0.3498
21658SOL    HW267228   2.370   2.415   4.498  1.9718 -0.0502  2.8763
21659SOL     OW67229   6.249   8.914   1.966  0.2396 -0.6775 -0.3881
21659SOL    HW167230   6.187   8.986   1.952 -1.0003 -1.7771 -0.7436
21659SOL    HW267231   6.307   8.918   1.890 -0.6134 -0.8230 -1.0680
21660SOL     OW67232   3.131   9.033   0.025 -0.2915  0.0921 -0.0721
21660SOL    HW167233   3.036   9.031   0.014 -0.3761  0.9917  0.4114
21660SOL    HW267234   3.147   8.991   0.109 -0.4757  1.9974  0.9620
21661SOL     OW67235   5.224   6.253   4.635 -0.8127  0.3700  0.4197
21661SOL    HW167236   5.139   6.218   4.607 -1.6308  1.2637  1.7019
21661SOL    HW267237   5.270   6.271   4.553 -1.4733 -1.0061 -0.2917
21662SOL     OW67238   3.899   5.551   8.949 -0.2814  0.3649  0.3937
21662SOL    HW167239   3.923   5.576   9.038 -0.7905 -0.0804  0.6599
21662SOL    HW267240   3.969   5.493   8.920  0.8846  1.9881 -0.2055
21663SOL     OW67241   4.108   5.891   2.293  0.4689  0.8743 -0.3698
21663SOL    HW167242   4.013   5.901   2.288  0.1199 -1.5473  0.3472
21663SOL    HW267243   4.126   5.806   2.255  2.0415  0.1496  1.7665
21664SOL     OW67244   6.596   9.887   7.751 -0.6617  0.3514  0.1379
21664SOL    HW167245   6.592   9.918   7.842 -0.2071 -0.0290  0.2903
21664SOL    HW267246   6.520   9.928   7.709 -0.2432  1.4522  0.4056
21665SOL     OW67247   0.198   8.356   8.852  0.3061  0.3958 -0.2580
21665SOL    HW167248   0.275   8.376   8.905  0.3547  0.3667 -0.3173
21665SOL    HW267249   0.179   8.438   8.805  0.8063  0.1575 -0.8829
21666SOL     OW67250   4.416   1.710   7.257  0.0550  0.4625 -0.2341
21666SOL    HW167251   4.485   1.646   7.238  0.3185  0.1281  1.6440
21666SOL    HW267252   4.335   1.661   7.242  0.2355 -0.7995  2.3408
21667SOL     OW67253   7.188   9.337   2.694 -0.2359 -0.6335  0.2513
21667SOL    HW167254   7.131   9.261   2.679 -1.8555  0.5033  0.3349
21667SOL    HW267255   7.143   9.387   2.763  0.2433  0.9159 -0.5105
21668SOL     OW67256   7.154   3.671   4.697 -0.1446  0.1397  0.1146
21668SOL    HW167257   7.247   3.687   4.679  0.2970 -0.0179  2.0616
21668SOL    HW267258   7.123   3.752   4.739 -0.3186 -0.5709  1.3991
21669SOL     OW67259   4.682   4.236   8.068  0.2172  0.3011 -0.3560
21669SOL    HW167260   4.735   4.248   8.147  2.2637  1.1093 -1.7524
21669SOL    HW267261   4.592   4.238   8.098  0.9341 -1.2655  2.1907
21670SOL     OW67262   2.874   0.513   7.619  0.0418  0.3046 -0.1360
21670SOL    HW167263   2.856   0.605   7.636  1.5643  0.6574 -0.3459
21670SOL    HW267264   2.847   0.468   7.699 -1.4394  0.8062 -0.3152
21671SOL     OW67265   7.112   6.196   9.912 -0.6608 -0.0526  0.4073
21671SOL    HW167266   7.024   6.186   9.947 -0.8587 -0.8682 -0.2910
21671SOL    HW267267   7.143   6.279   9.947 -1.7985  0.3610  0.4611
21672SOL     OW67268   2.089   6.081   7.868  0.1610 -0.2858 -0.0085
21672SOL    HW167269   2.048   6.127   7.795  0.5273  2.4585  1.3934
21672SOL    HW267270   2.178   6.064   7.838 -0.3277 -1.3096 -0.9987
21673SOL     OW67271   7.321   5.783   0.707  0.2265  0.6611  0.0394
21673SOL    HW167272   7.295   5.697   0.740 -1.6135  1.0142 -0.3709
21673SOL    HW267273   7.246   5.813   0.656  1.0281  2.3052 -0.2449
21674SOL     OW67274   1.524   4.484   8.237  0.3610  0.4401 -0.1676
21674SOL    HW167275   1.484   4.570   8.237 -2.4231 -0.7669 -0.1744
21674SOL    HW267276   1.535   4.461   8.145 -1.6121 -0.3299 -0.2508
21675SOL     OW67277  10.526   2.548   1.800 -0.0497 -0.3098  0.3260
21675SOL    HW167278  10.502   2.581   1.886 -0.4406  1.4292 -0.4184
21675SOL    HW267279  10.471   2.470   1.788 -0.3616 -0.2760  1.4164
21676SOL     OW67280   6.129   9.984   5.870 -0.2974 -0.2142  0.2659
21676SOL    HW167281   6.054   9.981   5.810 -0.0768  1.9902 -0.2126
21676SOL    HW267282   6.156  10.076   5.870  1.3820 -0.6507  1.7183
21677SOL     OW67283   1.418   7.311   7.347 -0.2944 -0.4709 -0.4892
21677SOL    HW167284   1.455   7.400   7.345 -1.6049  0.1234  0.4136
21677SOL    HW267285   1.442   7.278   7.434 -1.7162 -0.1159  0.0711
21678SOL     OW67286   9.363   5.436   4.188 -0.1610  0.3854  0.1470
21678SOL    HW167287   9.301   5.507   4.204  1.4910  1.7334  0.9199
21678SOL    HW267288   9.435   5.454   4.249  0.7713 -1.3880 -0.3791
21679SOL     OW67289   8.731   2.480   5.070 -0.0404 -0.0067 -0.0304
21679SOL    HW167290   8.757   2.437   4.989 -0.5658  0.9236 -0.7128
21679SOL    HW267291   8.724   2.573   5.047 -0.4334  0.2391  1.0210
21680SOL     OW67292   7.591   7.982   9.556 -0.1259 -0.2118  0.1108
21680SOL    HW167293   7.498   7.988   9.534 -0.4284 -0.6537  1.1904
21680SOL    HW267294   7.636   7.984   9.472 -1.0886  0.3863 -0.4036
21681SOL     OW67295   1.135   8.009   7.891 -0.1512 -0.4437 -0.2804
21681SOL    HW167296   1.226   8.037   7.900 -0.2448  0.1895 -1.1673
21681SOL    HW267297   1.141   7.924   7.846  0.0062 -0.4235 -0.2974
21682SOL     OW67298   2.969   8.086   1.138 -0.0298 -0.3549  0.0607
21682SOL    HW167299   2.919   8.084   1.056  0.0908  0.4752 -0.0457
21682SOL    HW267300   2.912   8.044   1.202 -0.9267  0.6748 -0.0345
21683SOL     OW67301   0.058   7.924   4.813 -0.4674  0.5430 -0.4786
21683SOL    HW167302   0.031   7.867   4.741 -0.4011 -0.3505  0.1970
21683SOL    HW267303  -0.024   7.956   4.850 -0.5009  1.1836 -1.0673
21684SOL     OW67304   3.995   0.753  10.155 -0.3925 -0.3734  0.5490
21684SOL    HW167305   3.946   0.810  10.213  0.3909 -0.7073  1.5571
21684SOL    HW267306   3.944   0.673  10.151 -1.2745  0.2224 -0.5290
21685SOL     OW67307   7.488   1.106   2.652 -0.5797  0.0522  0.1516
21685SOL    HW167308   7.574   1.148   2.659 -0.9637  0.8217  0.3657
21685SOL    HW267309   7.452   1.139   2.569 -0.1227 -1.3256 -0.6261
21686SOL     OW67310   8.901   3.527   2.225 -0.3101 -0.1249 -0.3940
21686SOL    HW167311   8.824   3.535   2.281 -0.0299  0.5733 -0.0969
21686SOL    HW267312   8.935   3.440   2.243  0.6079  0.5975  1.6176
21687SOL     OW67313   4.453   3.437   8.781  0.1413 -0.5201  0.4603
21687SOL    HW167314   4.453   3.361   8.839 -1.8280  0.5071  1.9587
21687SOL    HW267315   4.427   3.510   8.838 -0.2646  0.8644 -1.3946
21688SOL     OW67316   8.131   8.009   0.420 -0.6695 -0.4921  0.1066
21688SOL    HW167317   8.206   7.984   0.474 -0.9236  2.2538  1.9652
21688SOL    HW267318   8.144   7.962   0.338  3.1878 -0.0579  0.2502
21689SOL     OW67319   4.129   8.518   0.932  0.2212  0.1868  0.3849
21689SOL    HW167320   4.128   8.457   1.006  1.0887  0.4967  0.6589
21689SOL    HW267321   4.071   8.478   0.868  1.2159 -1.2519  0.3233
21690SOL     OW67322   9.562  10.051   1.538 -0.5428  0.3430  0.4054
21690SOL    HW167323   9.499   9.991   1.498 -1.7009  2.0968 -0.5397
21690SOL    HW267324   9.509  10.123   1.572  0.9241  1.9273 -0.4745
21691SOL     OW67325   8.070   9.675   9.484 -0.4156 -0.8684  0.8503
21691SOL    HW167326   8.098   9.584   9.496 -0.2000 -0.7243  1.4643
21691SOL    HW267327   8.144   9.717   9.440 -0.3985 -0.9176  0.8316
21692SOL     OW67328   1.942   3.852   8.926 -0.0149  0.0834 -0.2159
21692SOL    HW167329   2.020   3.901   8.902 -0.2989 -0.4599 -2.4216
21692SOL    HW267330   1.957   3.764   8.894 -1.0899 -0.3150  0.2980
21693SOL     OW67331   6.998  10.005   5.050 -0.0260 -0.3369  0.5064
21693SOL    HW167332   6.981  10.068   4.980  1.5159 -0.3917  0.0326
21693SOL    HW267333   6.917   9.954   5.058 -0.6011  0.3978 -0.4717
21694SOL     OW67334   6.469   3.038   6.975 -0.1261 -0.1337 -1.2102
21694SOL    HW167335   6.377   3.018   6.994 -0.6187  0.6733 -2.6324
21694SOL    HW267336   6.495   2.972   6.911  0.0915  0.0390 -1.2996
21695SOL     OW67337   6.077   3.714   8.486 -0.1731  0.1329 -0.4898
21695SOL    HW167338   6.053   3.762   8.565 -0.6843 -0.7326 -0.1053
21695SOL    HW267339   5.998   3.667   8.461  0.2043 -0.2024 -1.0799
21696SOL     OW67340   8.950   4.961   0.718  0.4586  0.5138  0.2516
21696SOL    HW167341   9.010   5.032   0.694  0.3711  0.6502  0.4332
21696SOL    HW267342   8.878   5.005   0.763 -0.2487  0.4650 -0.8087
21697SOL     OW67343   2.518   4.263   4.360  0.1972  0.1626 -0.0597
21697SOL    HW167344   2.479   4.343   4.394  1.5783  0.5333  0.7226
21697SOL    HW267345   2.465   4.241   4.283  0.1102  2.1453 -0.6244
21698SOL     OW67346   7.480   2.609   6.134  0.1561 -0.1772  1.0046
21698SOL    HW167347   7.415   2.561   6.084  0.0115  0.8594  0.1465
21698SOL    HW267348   7.460   2.701   6.117  1.2789  0.1731  1.4550
21699SOL     OW67349   8.239   0.473   3.068 -0.3041 -0.3863 -0.4052
21699SOL    HW167350   8.310   0.503   3.124  2.7230 -4.6180 -1.4880
21699SOL    HW267351   8.162   0.476   3.124  1.4489  0.6787  2.1466
21700SOL     OW67352   8.259   6.651   3.344  0.0414 -0.0901  0.1650
21700SOL    HW167353   8.183   6.685   3.298  0.2516 -1.0391 -0.9544
21700SOL    HW267354   8.223   6.597   3.414 -0.2862  1.9023  1.6192
21701SOL     OW67355   8.357   1.534   4.063 -0.1214  0.3340  0.2918
21701SOL    HW167356   8.445   1.571   4.068  0.1286 -0.3424  1.4752
21701SOL    HW267357   8.344   1.513   3.971  0.3671  1.8082 -0.1271
21702SOL     OW67358   1.679   7.655   3.421  0.5458  0.0183 -0.5246
21702SOL    HW167359   1.592   7.693   3.433  0.2216 -0.8993  0.0677
21702SOL    HW267360   1.727   7.680   3.500  0.2547 -0.9925 -0.0170
21703SOL     OW67361   6.847   7.357   2.426 -0.6505 -0.0035  0.1586
21703SOL    HW167362   6.841   7.337   2.520 -0.4379  0.6948  0.3305
21703SOL    HW267363   6.851   7.452   2.423 -2.1455  0.0530 -0.6603
21704SOL     OW67364   6.947  10.444   0.662  0.6143 -0.1161 -0.2231
21704SOL    HW167365   6.902  10.360   0.671 -1.0601  0.6863 -0.6344
21704SOL    HW267366   7.005  10.432   0.587 -0.3642 -0.6064 -0.9253
21705SOL     OW67367   8.788   9.864   6.743  0.3930  0.1402 -0.4775
21705SOL    HW167368   8.806   9.770   6.753 -1.5432 -0.1777  0.6757
21705SOL    HW267369   8.804   9.900   6.831 -1.7121  0.2988 -0.1081
21706SOL     OW67370   5.388   9.146   8.457 -0.2699  0.0142 -0.1150
21706SOL    HW167371   5.328   9.153   8.531  0.3416  0.0255  0.3910
21706SOL    HW267372   5.443   9.070   8.478  0.2225  0.3059 -0.3210
21707SOL     OW67373   9.504   6.549   8.629 -0.0302  0.1954 -0.2595
21707SOL    HW167374   9.437   6.515   8.688  1.0948 -0.4681  0.6947
21707SOL    HW267375   9.570   6.586   8.687  0.4049  0.8914 -1.1711
21708SOL     OW67376   1.153   8.124   5.233 -0.3020 -0.1102  0.1946
21708SOL    HW167377   1.089   8.143   5.301  1.1655 -0.1943  1.6829
21708SOL    HW267378   1.122   8.043   5.193  0.2346 -1.7329  2.7891
21709SOL     OW67379   9.418   6.285   1.780 -0.7343  0.1005  0.3808
21709SOL    HW167380   9.453   6.284   1.691 -1.0504  0.7840  0.2397
21709SOL    HW267381   9.348   6.351   1.777 -1.3298 -0.4898  0.9189
21710SOL     OW67382   5.118   8.262   6.177  0.1592  0.4348  0.1096
21710SOL    HW167383   5.038   8.213   6.197  0.5510 -0.4473 -0.4073
21710SOL    HW267384   5.189   8.200   6.196  0.6806  0.8789 -0.3470
21711SOL     OW67385   9.246  10.154   2.695  0.4950 -0.0132 -0.2249
21711SOL    HW167386   9.170  10.210   2.712  0.1307 -0.6298  0.2012
21711SOL    HW267387   9.306  10.210   2.646  0.8218  1.2504  1.5386
21712SOL     OW67388   9.386   1.632  10.404 -0.1148  0.4093  0.1830
21712SOL    HW167389   9.366   1.683  10.483 -0.5697  0.3751  0.0907
21712SOL    HW267390   9.380   1.541  10.433  4.5710  0.2208  1.4106
21713SOL     OW67391   9.309   8.675   4.591  0.1335  0.0918  0.7657
21713SOL    HW167392   9.290   8.768   4.583 -2.1794 -0.4750 -1.6769
21713SOL    HW267393   9.267   8.649   4.673 -0.5212  0.9334  0.7088
21714SOL     OW67394   9.188   9.346  10.125  0.6582  0.1467  0.6141
21714SOL    HW167395   9.217   9.401  10.053 -0.0671  1.0791  1.0205
21714SOL    HW267396   9.094   9.334  10.110  0.2778  1.2470  1.9718
21715SOL     OW67397   8.866   3.341   6.635 -0.0254 -0.7439 -0.3638
21715SOL    HW167398   8.863   3.434   6.610  0.1603  0.6113  3.9031
21715SOL    HW267399   8.959   3.320   6.638 -0.0720 -1.1531 -1.4652
21716SOL     OW67400   5.233  10.503  10.521  0.0603  0.2286  0.1550
21716SOL    HW167401   5.261  10.553  10.444  1.0928  3.2774  2.3205
21716SOL    HW267402   5.314  10.481  10.566 -0.5083 -1.7740  0.2807
21717SOL     OW67403   1.539   6.300   6.274  0.7859  0.3503  0.2807
21717SOL    HW167404   1.482   6.376   6.267 -0.5810 -0.7814 -1.7743
21717SOL    HW267405   1.606   6.314   6.206  0.1603 -0.5295 -0.5444
21718SOL     OW67406   9.318   2.424   5.428  0.5443  0.0490 -0.5156
21718SOL    HW167407   9.297   2.331   5.415  0.5112 -0.0044 -0.1061
21718SOL    HW267408   9.332   2.458   5.340 -0.9578  0.0266 -0.7812
21719SOL     OW67409   4.786   0.650   7.895  0.2550 -0.0761  0.2833
21719SOL    HW167410   4.692   0.630   7.886  0.2957 -0.0893 -0.1312
21719SOL    HW267411   4.817   0.588   7.961 -0.4749  1.3885  2.0947
21720SOL     OW67412   8.495   5.045   4.394  1.1172  0.8138  1.0222
21720SOL    HW167413   8.537   4.988   4.458 -1.2836 -1.8094  0.4738
21720SOL    HW267414   8.409   5.065   4.432 -0.0064 -0.0764 -0.8898
21721SOL     OW67415   8.183   5.011   7.967 -0.2509 -0.0519 -0.8499
21721SOL    HW167416   8.236   5.060   7.905 -1.3608  0.8211 -1.1460
21721SOL    HW267417   8.094   5.016   7.932 -0.9868  0.8290  0.9838
21722SOL     OW67418   9.368  10.128   9.447  0.4860 -0.1807 -0.1773
21722SOL    HW167419   9.374  10.034   9.464 -2.4572 -0.1434  1.8486
21722SOL    HW267420   9.321  10.133   9.363  1.3795 -0.4513 -0.7159
21723SOL     OW67421   3.658   5.674   5.720  0.2092  0.1793 -0.4436
21723SOL    HW167422   3.730   5.732   5.698 -0.2396  1.1783  0.6318
21723SOL    HW267423   3.687   5.588   5.691  1.5408  0.6675 -0.6303
21724SOL     OW67424   6.374   9.298   3.071  0.4397  0.0402  0.0586
21724SOL    HW167425   6.459   9.297   3.025 -0.2516 -0.1792 -1.2763
21724SOL    HW267426   6.395   9.324   3.160  1.2396  7.6805 -1.6953
21725SOL     OW67427   6.918   8.170   9.810  0.3618 -0.5702  0.6239
21725SOL    HW167428   6.985   8.205   9.868  0.1236 -1.7241  1.6162
21725SOL    HW267429   6.838   8.218   9.833  0.8037  0.8045 -0.5591
21726SOL     OW67430   0.453   3.527  10.185 -0.0497 -0.1721 -0.0848
21726SOL    HW167431   0.387   3.556  10.123  0.1707  0.3475 -0.0816
21726SOL    HW267432   0.403   3.498  10.261 -0.2490  1.8619  0.6246
21727SOL     OW67433   9.593   9.459   7.606  0.2415  0.0786 -0.8044
21727SOL    HW167434   9.637   9.529   7.557  1.0965  1.5164  1.8417
21727SOL    HW267435   9.518   9.502   7.647  0.0943 -0.8366 -0.0828
21728SOL     OW67436   3.850   1.691   0.309  0.2084 -0.2023 -0.1563
21728SOL    HW167437   3.940   1.659   0.303  0.8805  1.7204 -1.3063
21728SOL    HW267438   3.859   1.784   0.330 -1.6266 -0.5074  2.5972
21729SOL     OW67439   6.285  10.370   7.442  0.1212  0.0478  0.4042
21729SOL    HW167440   6.374  10.353   7.412 -0.1156  0.4557 -0.5960
21729SOL    HW267441   6.230  10.314   7.387 -0.2714  0.1346  0.7025
21730SOL     OW67442   2.049   0.015   0.481  0.0452  0.0549 -0.1358
21730SOL    HW167443   1.956   0.020   0.460 -0.5134  1.4914  2.3071
21730SOL    HW267444   2.054   0.039   0.573  2.9074  0.5998 -0.3440
21731SOL     OW67445   8.573   5.005   1.136  0.5843 -0.2313  0.8491
21731SOL    HW167446   8.544   5.096   1.141  2.2953  0.4634 -0.8455
21731SOL    HW267447   8.527   4.969   1.060 -1.2567 -1.3064  2.3840
21732SOL     OW67448   3.891   5.486   6.617 -0.4090 -0.1542  0.1694
21732SOL    HW167449   3.938   5.408   6.647  0.3129 -0.2847 -1.1796
21732SOL    HW267450   3.842   5.516   6.693 -1.2327 -2.3043  0.5744
21733SOL     OW67451  10.455   1.969   8.141  0.1312  0.2081  0.1927
21733SOL    HW167452  10.420   2.035   8.201 -0.8463  0.5790 -0.7440
21733SOL    HW267453  10.377   1.923   8.108  0.7307 -0.7809  0.1096
21734SOL     OW67454   4.957  10.399   7.403 -0.2481 -0.0702  0.5155
21734SOL    HW167455   4.862  10.411   7.400 -0.2474 -0.2511 -1.5623
21734SOL    HW267456   4.970  10.305   7.390  0.2301  0.2350 -1.5954
21735SOL     OW67457   4.697   4.293   5.379  0.4049 -0.2360 -0.3537
21735SOL    HW167458   4.748   4.358   5.330  1.0666 -1.6048 -1.5568
21735SOL    HW267459   4.693   4.217   5.321 -0.4572 -1.2331  0.9571
21736SOL     OW67460   7.052   9.618   7.485  0.4258  0.7478  0.2491
21736SOL    HW167461   7.003   9.608   7.567 -0.8821  0.0975 -0.5654
21736SOL    HW267462   7.035   9.708   7.458  0.3337  0.7686  0.3733
21737SOL     OW67463   9.371   4.626   5.248 -0.8469  0.2408  0.1601
21737SOL    HW167464   9.300   4.640   5.185 -1.7812 -1.7618  0.6913
21737SOL    HW267465   9.429   4.701   5.236 -2.3711  1.2657 -1.2143
21738SOL     OW67466   8.127  10.323   7.206 -0.0419  0.2094  0.6371
21738SOL    HW167467   8.080  10.350   7.128  0.6124  0.1846  0.2303
21738SOL    HW267468   8.212  10.366   7.199  0.2556 -0.3067  1.0137
21739SOL     OW67469   7.901   7.059   2.329  0.3113 -0.4985  0.2527
21739SOL    HW167470   7.971   7.121   2.305 -0.6111 -0.1530 -1.7837
21739SOL    HW267471   7.900   6.997   2.256 -2.9282  0.7807 -0.9423
21740SOL     OW67472   7.796  10.409  10.514 -0.3360 -0.4744  0.6523
21740SOL    HW167473   7.870  10.449  10.561 -0.2958  1.3722 -0.8647
21740SOL    HW267474   7.770  10.336  10.569  2.3948 -0.9842  1.4302
21741SOL     OW67475  10.365   1.117   6.528 -0.8357  0.0072  0.4059
21741SOL    HW167476  10.437   1.060   6.555  1.0383  1.7593 -0.6278
21741SOL    HW267477  10.332   1.155   6.610 -1.5018 -1.7666  1.0120
21742SOL     OW67478   3.155  10.031   2.351 -0.9697 -0.1651  0.0496
21742SOL    HW167479   3.083  10.006   2.409 -0.0202 -1.8769  0.5474
21742SOL    HW267480   3.146  10.126   2.343 -2.4952 -0.1671  1.1490
21743SOL     OW67481  10.538   0.917   8.679  0.2537  0.3202  0.1140
21743SOL    HW167482  10.592   0.986   8.718 -1.5132  1.7466  0.1823
21743SOL    HW267483  10.475   0.895   8.748  0.1425 -0.6546 -0.2833
21744SOL     OW67484   8.330   7.566   4.702  0.1714  0.1483  0.4956
21744SOL    HW167485   8.368   7.540   4.786  0.8733  0.6382  0.3340
21744SOL    HW267486   8.283   7.647   4.721 -0.9565 -0.5374  0.7289
21745SOL     OW67487   4.631   9.213   4.287  1.0530 -0.4312 -0.2141
21745SOL    HW167488   4.632   9.306   4.266  1.4773 -0.0939  1.1903
21745SOL    HW267489   4.651   9.209   4.381 -0.3104 -1.8521  0.0708
21746SOL     OW67490   1.039   3.385   2.140 -0.0957  0.4662 -0.1157
21746SOL    HW167491   1.096   3.395   2.064  1.2354 -0.0809  0.7682
21746SOL    HW267492   1.098   3.360   2.211 -0.6995  4.0509  1.9342
21747SOL     OW67493   2.231   6.352   0.558  0.2627 -0.5261 -0.9428
21747SOL    HW167494   2.317   6.363   0.599 -0.0529 -0.7082 -0.2154
21747SOL    HW267495   2.239   6.271   0.507  0.1769 -1.1955  0.0694
21748SOL     OW67496   4.003   1.534   5.871 -0.0142  0.5184 -0.4840
21748SOL    HW167497   3.923   1.562   5.916  0.0836  0.6743 -0.4032
21748SOL    HW267498   4.026   1.451   5.913 -0.7061 -0.0513 -1.2209
21749SOL     OW67499   6.663   6.093   7.965  0.0689  0.2217  0.2023
21749SOL    HW167500   6.732   6.046   7.917  0.2187  0.5831  0.0560
21749SOL    HW267501   6.657   6.047   8.048 -0.2138 -0.4336 -0.1707
21750SOL     OW67502   1.868   6.654   9.791 -0.4652  0.1041  0.0100
21750SOL    HW167503   1.786   6.605   9.797 -0.1008 -1.1477 -3.3799
21750SOL    HW267504   1.936   6.587   9.796  0.1433  0.5269 -1.8485
21751SOL     OW67505   1.623   1.502   6.083  0.1752 -0.3642  0.1723
21751SOL    HW167506   1.718   1.503   6.070  0.2656 -2.0749  0.4640
21751SOL    HW267507   1.604   1.584   6.129  1.2157  0.9147 -1.5607
21752SOL     OW67508   9.319   5.143   4.533  0.2142 -0.4690  0.1869
21752SOL    HW167509   9.383   5.144   4.462  1.1565  1.2080  0.9867
21752SOL    HW267510   9.349   5.074   4.591  0.2391 -0.9137 -0.3426
21753SOL     OW67511   4.309   6.716   2.826 -0.0018  0.2365 -0.3101
21753SOL    HW167512   4.275   6.772   2.756  2.6400 -0.9089 -2.7071
21753SOL    HW267513   4.277   6.629   2.805 -0.2588  0.0767  0.6963
21754SOL     OW67514   9.227  10.313  10.460 -0.7351 -0.2582 -0.5492
21754SOL    HW167515   9.260  10.232  10.421 -0.9094  0.4018 -2.1242
21754SOL    HW267516   9.303  10.352  10.503 -0.1335 -0.1827 -1.6586
21755SOL     OW67517   8.361   6.057   3.336  0.1682  0.1862  0.1609
21755SOL    HW167518   8.381   5.982   3.281  0.6387  0.0026  0.5676
21755SOL    HW267519   8.354   6.131   3.274 -1.3565 -0.3521 -0.3518
21756SOL     OW67520   4.194   3.783   8.456 -0.3440  0.2612  0.0233
21756SOL    HW167521   4.100   3.783   8.478 -0.3474  0.6258  0.0165
21756SOL    HW267522   4.208   3.699   8.412 -0.7480  0.3738 -0.3244
21757SOL     OW67523   7.786   4.480  10.324  0.1798 -0.3144  0.2906
21757SOL    HW167524   7.843   4.474  10.401  1.2440 -1.3759 -0.5274
21757SOL    HW267525   7.845   4.461  10.250 -1.0057 -0.2659 -0.6903
21758SOL     OW67526   7.667   3.647   4.063  0.2974  0.4249 -0.0199
21758SOL    HW167527   7.654   3.596   4.143 -0.4380 -1.4367 -1.2580
21758SOL    HW267528   7.592   3.705   4.060  0.5490  0.8083  0.8434
21759SOL     OW67529   3.586   7.000   0.697 -0.4089  0.4051  0.0734
21759SOL    HW167530   3.564   7.082   0.741  3.8419  0.4879  2.5687
21759SOL    HW267531   3.645   7.024   0.626  0.1070 -0.3923  0.2135
21760SOL     OW67532  10.304   0.910   5.083  0.0677 -0.4788  0.6038
21760SOL    HW167533  10.370   0.939   5.019 -2.5824  0.3560 -1.9381
21760SOL    HW267534  10.340   0.828   5.118  1.9232 -0.6855 -1.5479
21761SOL     OW67535   1.168   4.634   4.664 -0.2150  0.0210 -0.2524
21761SOL    HW167536   1.139   4.650   4.574 -0.6716 -0.0277 -0.1161
21761SOL    HW267537   1.164   4.720   4.705  1.3119  0.2984 -0.6471
21762SOL     OW67538   1.794   8.255   4.063  0.1058  0.6529  0.3383
21762SOL    HW167539   1.875   8.307   4.059  0.0771  0.6990  0.3717
21762SOL    HW267540   1.745   8.282   3.986 -1.1854  2.7433  1.7802
21763SOL     OW67541   2.776   4.344   4.278  0.3697  0.3569  0.3031
21763SOL    HW167542   2.690   4.303   4.292  0.6034 -0.9444 -1.5626
21763SOL    HW267543   2.777   4.418   4.337 -0.5947 -1.6320  3.0305
21764SOL     OW67544   5.553   6.548   3.628  0.3185 -0.1911 -0.1728
21764SOL    HW167545   5.570   6.516   3.717 -2.4145  0.9288  0.8545
21764SOL    HW267546   5.631   6.599   3.606  1.3682 -1.0977  1.2800
21765SOL     OW67547   0.346   4.484   8.655 -0.1623  0.3265  0.2683
21765SOL    HW167548   0.292   4.531   8.592 -0.6710  0.5926  0.8958
21765SOL    HW267549   0.322   4.392   8.643 -0.5471  0.4149  0.3506
21766SOL     OW67550   0.098   5.723   1.747  0.1543  0.4043  0.4777
21766SOL    HW167551   0.098   5.677   1.664 -0.2948 -1.1138  1.2928
21766SOL    HW267552   0.057   5.663   1.809  0.9520  1.2805  1.9233
21767SOL     OW67553   9.003   7.462  10.153  0.3122 -0.0289 -0.3183
21767SOL    HW167554   9.003   7.555  10.133 -0.6370 -0.0063 -0.2594
21767SOL    HW267555   9.083   7.429  10.112 -0.1148  0.5367 -1.6767
21768SOL     OW67556   7.793   8.904   7.821  0.3826 -0.3059 -0.4131
21768SOL    HW167557   7.825   8.832   7.876  3.2595  1.0678 -0.1373
21768SOL    HW267558   7.791   8.867   7.732 -1.0728 -1.5364  0.0820
21769SOL     OW67559   3.174   9.486   4.312 -0.2088 -0.2984  0.0278
21769SOL    HW167560   3.205   9.406   4.269  0.3460  0.2496 -0.6131
21769SOL    HW267561   3.242   9.507   4.376 -0.0638 -0.0187 -0.2151
21770SOL     OW67562   2.662   9.980   2.208  0.8655  0.1534  0.1745
21770SOL    HW167563   2.633  10.050   2.266  2.4994 -0.0450  1.3165
21770SOL    HW267564   2.586   9.921   2.202 -0.2904  1.6459 -0.2533
21771SOL     OW67565   0.108   0.819   6.946  0.1655  0.1898  0.1924
21771SOL    HW167566   0.198   0.818   6.913  0.0473  0.6237 -0.1547
21771SOL    HW267567   0.116   0.805   7.040  0.5319 -0.7094  0.0335
21772SOL     OW67568   3.319   8.628   3.616 -0.2145 -0.0649  0.0572
21772SOL    HW167569   3.392   8.603   3.672  0.1866  0.9996  0.0323
21772SOL    HW267570   3.256   8.670   3.674 -0.2509  0.1283 -0.1188
21773SOL     OW67571   6.017   8.591   5.711  0.4185  0.0939 -0.4153
21773SOL    HW167572   6.067   8.664   5.674  0.0280 -0.1075 -1.3732
21773SOL    HW267573   6.082   8.525   5.734  0.8663  1.0273  1.2196
21774SOL     OW67574  10.049   9.590   6.044 -0.0359 -0.0097 -0.3637
21774SOL    HW167575  10.129   9.603   5.994  0.8643 -0.1101  1.0002
21774SOL    HW267576  10.035   9.495   6.042 -0.2475  0.0259 -0.7676
21775SOL     OW67577   5.629  10.440   9.000  0.6308 -0.2937 -0.0610
21775SOL    HW167578   5.614  10.501   8.927  1.1306  0.9545  0.8364
21775SOL    HW267579   5.723  10.422   8.997  1.3871  2.5325  2.2673
21776SOL     OW67580   2.539   4.438   3.948  0.6646 -0.1099  0.2293
21776SOL    HW167581   2.528   4.488   3.867 -0.7446 -0.2489  0.3078
21776SOL    HW267582   2.497   4.491   4.015 -0.9134 -1.3846  0.3035
21777SOL     OW67583   4.384   7.419   4.451 -0.5913 -0.2485 -0.1261
21777SOL    HW167584   4.364   7.340   4.401 -3.2720  0.0921  0.2512
21777SOL    HW267585   4.470   7.446   4.420 -0.5793 -2.0734 -1.8855
21778SOL     OW67586   4.560   9.409   5.441  0.0715  0.4069 -0.2310
21778SOL    HW167587   4.579   9.465   5.517 -0.9761  1.3691 -0.6539
21778SOL    HW267588   4.632   9.426   5.380  0.0609  0.8717 -0.1199
21779SOL     OW67589   1.459   5.481   4.251  0.6853  0.9764 -0.2189
21779SOL    HW167590   1.461   5.577   4.254  0.1994  0.9777  0.2967
21779SOL    HW267591   1.543   5.454   4.288  1.1542  1.2019 -1.0758
21780SOL     OW67592   3.043   7.727   3.725 -0.0246  0.2129 -0.5571
21780SOL    HW167593   3.124   7.679   3.710 -0.7980 -1.1391 -0.5929
21780SOL    HW267594   2.978   7.682   3.671 -1.3430 -0.3630  1.3945
21781SOL     OW67595   3.261   2.322   7.096  0.4703  0.2347  0.6405
21781SOL    HW167596   3.202   2.347   7.167 -1.0375 -0.3960 -0.3508
21781SOL    HW267597   3.300   2.240   7.125 -0.9446 -0.5764  0.3139
21782SOL     OW67598   5.498   9.531   5.697  0.3644  0.0975 -0.3037
21782SOL    HW167599   5.578   9.483   5.674  0.9255  0.9755 -0.2427
21782SOL    HW267600   5.529   9.604   5.751 -0.1225  2.1244 -2.6063
21783SOL     OW67601   5.787   9.070   8.862 -0.1150  0.1342  0.4195
21783SOL    HW167602   5.846   9.001   8.832  1.6305  1.2321  1.1662
21783SOL    HW267603   5.759   9.115   8.783  1.9884  1.0752  0.1507
21784SOL     OW67604   5.421   1.378   5.629  0.1333 -0.2501  0.3816
21784SOL    HW167605   5.386   1.306   5.577 -0.4275 -0.1806  0.6611
21784SOL    HW267606   5.345   1.430   5.653  0.5457  0.5222  0.0635
21785SOL     OW67607   2.449   4.202   4.052  0.2091  0.4903  0.1655
21785SOL    HW167608   2.458   4.294   4.027 -1.3171  0.7748  0.5256
21785SOL    HW267609   2.418   4.158   3.972 -0.5262  0.5990  0.3755
21786SOL     OW67610   9.794   0.608   3.435 -0.2666 -0.1211  0.2487
21786SOL    HW167611   9.781   0.663   3.512 -1.1477 -0.9015  0.6801
21786SOL    HW267612   9.889   0.610   3.419 -0.4499  3.6111 -1.3608
21787SOL     OW67613   8.682   6.664   3.816  0.0950 -0.1743 -0.4905
21787SOL    HW167614   8.656   6.744   3.861  2.0284  0.5320 -0.5293
21787SOL    HW267615   8.602   6.613   3.808 -1.3940  2.1272 -1.2235
21788SOL     OW67616   5.748   7.092   5.598 -0.3451  0.2886  0.4299
21788SOL    HW167617   5.740   7.167   5.539 -0.8275 -1.0390 -1.2664
21788SOL    HW267618   5.659   7.079   5.633 -0.0004  1.2518  1.7216
21789SOL     OW67619  10.246   6.362   1.737  0.7083 -0.5384  0.4854
21789SOL    HW167620  10.313   6.431   1.735 -0.4755  0.6986  1.1981
21789SOL    HW267621  10.248   6.329   1.827  0.1230 -0.2242  0.6188
21790SOL     OW67622   0.776   8.062   1.359 -0.2432  0.1140  0.3177
21790SOL    HW167623   0.685   8.067   1.329 -0.5409 -0.4974  1.0848
21790SOL    HW267624   0.828   8.078   1.280 -1.0135  1.4511  0.0587
21791SOL     OW67625   5.748   1.437   0.848 -0.2928 -1.2544 -0.2973
21791SOL    HW167626   5.725   1.408   0.937 -0.0269  0.8100  0.4977
21791SOL    HW267627   5.672   1.488   0.819 -0.0558 -1.2634 -0.9493
21792SOL     OW67628   5.922   0.683   9.747 -0.0190 -0.0353 -0.1334
21792SOL    HW167629   5.875   0.617   9.797  0.9391 -3.2643 -3.1035
21792SOL    HW267630   5.868   0.762   9.756 -2.4276 -1.7299  1.8706
21793SOL     OW67631   4.752   0.902   5.433  0.3631 -0.0861 -0.6794
21793SOL    HW167632   4.729   0.971   5.371 -0.2752 -0.2728 -0.6571
21793SOL    HW267633   4.833   0.865   5.399  0.9882  1.0033 -0.4169
21794SOL     OW67634   9.356   6.408   2.084 -0.3689 -0.5047  0.0658
21794SOL    HW167635   9.273   6.404   2.131 -0.3215  2.2671  0.5520
21794SOL    HW267636   9.336   6.455   2.003  1.0185  2.2521  1.1890
21795SOL     OW67637   4.901   0.393   3.454 -0.0376  0.9503  0.2631
21795SOL    HW167638   4.989   0.371   3.423 -0.7774  0.0912 -1.3896
21795SOL    HW267639   4.854   0.310   3.453 -0.4785  1.1133  2.6467
21796SOL     OW67640   1.737   0.038   2.533  0.3736 -0.7988 -0.5182
21796SOL    HW167641   1.706  -0.015   2.459 -0.1524  0.3253 -1.1350
21796SOL    HW267642   1.808   0.090   2.496  1.9658 -2.1696  0.4817
21797SOL     OW67643   1.043   5.461   5.656  0.0281  0.5100 -0.2521
21797SOL    HW167644   1.058   5.409   5.577  0.4081  0.6626 -0.2853
21797SOL    HW267645   0.952   5.445   5.679  0.6812 -1.8668  0.9630
21798SOL     OW67646   3.085   5.239   0.886 -0.4354  0.5368 -0.4582
21798SOL    HW167647   3.006   5.252   0.834 -1.2928 -0.5539  0.5493
21798SOL    HW267648   3.057   5.246   0.977  0.4385 -0.7572 -0.0532
21799SOL     OW67649   1.602   8.374  10.190  0.0407 -0.5301  0.1821
21799SOL    HW167650   1.611   8.324  10.110  1.5435  0.0062 -0.0056
21799SOL    HW267651   1.686   8.366  10.234 -0.2658  0.3936  0.9877
21800SOL     OW67652   2.628   1.312   5.597  0.4934 -0.1758  0.7730
21800SOL    HW167653   2.615   1.218   5.614 -0.3551  0.1680  2.1365
21800SOL    HW267654   2.612   1.320   5.503  0.6042 -1.4000  0.6216
21801SOL     OW67655   3.891   1.521   3.265 -0.0525 -0.5422  0.3722
21801SOL    HW167656   3.814   1.562   3.227 -0.6510 -1.1336  0.9291
21801SOL    HW267657   3.858   1.473   3.341  1.0042 -0.0034  1.2015
21802SOL     OW67658   7.896   4.883   5.083  0.1818  0.0950 -0.2901
21802SOL    HW167659   7.985   4.918   5.079  0.6202 -0.7871  1.0555
21802SOL    HW267660   7.907   4.794   5.116 -1.2698  0.3121  0.9029
21803SOL     OW67661   3.621   4.983   1.529  0.0910  0.2044  0.3768
21803SOL    HW167662   3.698   4.957   1.479 -0.1435  0.0877  0.0741
21803SOL    HW267663   3.553   4.997   1.463 -0.5957 -1.2319  0.7431
21804SOL     OW67664   4.219   6.318   8.537 -0.5252  0.1528 -0.2540
21804SOL    HW167665   4.219   6.294   8.444  0.8792  0.1170 -0.2669
21804SOL    HW267666   4.266   6.246   8.580 -2.7241 -0.7564  0.7716
21805SOL     OW67667   2.740   6.118   5.774 -0.2544  0.4491  0.3130
21805SOL    HW167668   2.830   6.086   5.769  0.1822  1.3756  1.6274
21805SOL    HW267669   2.700   6.093   5.691  1.4271  0.6577 -0.5869
21806SOL     OW67670   9.496   5.815   5.465  0.3818  0.2355 -0.5023
21806SOL    HW167671   9.413   5.855   5.490  1.0694  1.2665  0.1861
21806SOL    HW267672   9.547   5.810   5.546  1.2923  0.3664 -1.0441
21807SOL     OW67673   5.406   5.055   2.931  0.2275  0.1112 -0.1298
21807SOL    HW167674   5.341   5.117   2.896  1.5493  1.6484  0.0457
21807SOL    HW267675   5.357   4.973   2.939 -1.0051  0.4792 -2.5597
21808SOL     OW67676   8.880   8.934   7.990 -0.1529 -0.1155 -0.3649
21808SOL    HW167677   8.952   8.997   7.994 -0.6745  0.5031 -0.5428
21808SOL    HW267678   8.908   8.871   7.923  0.1020  0.2792 -0.6422
21809SOL     OW67679   2.837   6.717   8.699 -0.3228 -0.3854  0.1373
21809SOL    HW167680   2.810   6.731   8.790 -0.4138  0.1162  0.0369
21809SOL    HW267681   2.850   6.805   8.664  0.5698 -0.5960 -0.0808
21810SOL     OW67682   7.338   0.258   0.053  0.0879 -0.0474  0.2254
21810SOL    HW167683   7.305   0.168   0.054  1.6370 -0.7768 -2.7910
21810SOL    HW267684   7.418   0.255   0.105  2.1634 -1.4679 -2.7591
21811SOL     OW67685   7.123   0.189   0.313 -0.2065  0.1445  0.2855
21811SOL    HW167686   7.152   0.115   0.260 -0.8770  0.1564 -0.1118
21811SOL    HW267687   7.075   0.150   0.386 -1.9444  0.2052 -0.7663
21812SOL     OW67688   5.932   7.163   4.555 -0.6677  0.1177 -0.5150
21812SOL    HW167689   5.998   7.140   4.490  1.3171  0.5710  1.2346
21812SOL    HW267690   5.890   7.241   4.520 -0.2601 -0.1446 -1.6412
21813SOL     OW67691   0.547   6.808   8.779 -0.9843  0.0833  0.1598
21813SOL    HW167692   0.583   6.809   8.690  0.9483  0.5371  0.9052
21813SOL    HW267693   0.550   6.716   8.805  2.3011  0.3540  1.1674
21814SOL     OW67694   7.404   1.979   6.805 -0.5031  0.0562  0.5445
21814SOL    HW167695   7.430   2.006   6.717  0.4682  0.6339  0.9848
21814SOL    HW267696   7.374   2.059   6.847 -0.7012 -0.1631  0.8283
21815SOL     OW67697   2.074   7.484   2.184 -0.5284 -0.5264  0.1096
21815SOL    HW167698   1.982   7.480   2.158 -1.6662  1.7355  3.1947
21815SOL    HW267699   2.075   7.456   2.275  1.5259  1.1066  0.6721
21816SOL     OW67700  10.582   0.773   7.493 -0.4513 -0.1255  0.1770
21816SOL    HW167701  10.613   0.818   7.414 -0.9550 -0.2213 -0.0815
21816SOL    HW267702  10.602   0.833   7.565 -1.0200  0.4713 -0.1492
21817SOL     OW67703   4.795   0.727   0.775 -0.1167  0.0473 -0.7863
21817SOL    HW167704   4.755   0.687   0.852  0.7886  0.3398 -0.1514
21817SOL    HW267705   4.759   0.815   0.772 -0.3336 -0.0424 -0.8349
21818SOL     OW67706   9.442   0.825   0.268 -0.3219  0.2113 -0.1595
21818SOL    HW167707   9.351   0.794   0.270  0.0192 -0.7818  0.4428
21818SOL    HW267708   9.493   0.748   0.244  0.4322  0.5935  0.1917
21819SOL     OW67709   8.557   8.075   5.086 -0.2853 -0.5003 -0.6593
21819SOL    HW167710   8.558   8.153   5.030  0.1903 -0.8507 -1.1490
21819SOL    HW267711   8.612   8.099   5.160 -0.0424 -0.4096 -0.8669
21820SOL     OW67712   3.444  10.440   8.589  0.7271  0.2681 -0.3234
21820SOL    HW167713   3.380  10.384   8.546  2.3620 -1.6879 -0.3604
21820SOL    HW267714   3.488  10.486   8.518  1.2078 -0.4845 -0.5245
21821SOL     OW67715   2.815   9.831   7.834 -0.2306  0.4205 -0.2197
21821SOL    HW167716   2.867   9.909   7.850 -0.1304  0.7471 -1.9903
21821SOL    HW267717   2.724   9.862   7.832 -0.1897  0.5103 -0.9374
21822SOL     OW67718  10.199   7.099   5.426 -0.3234 -0.0084 -0.3111
21822SOL    HW167719  10.215   7.143   5.342 -1.3462 -0.1148 -0.5698
21822SOL    HW267720  10.118   7.051   5.413 -0.4815 -0.0490  0.7420
21823SOL     OW67721   2.778   2.860   7.269 -0.1483  0.1504  0.2190
21823SOL    HW167722   2.686   2.832   7.265 -0.4239  0.8225  1.4882
21823SOL    HW267723   2.815   2.832   7.185 -1.6157  0.2279 -0.4838
21824SOL     OW67724   6.081  10.245  10.355 -0.5394  0.0180  0.2533
21824SOL    HW167725   6.110  10.231  10.265  1.5186  1.2752  0.6525
21824SOL    HW267726   6.047  10.160  10.383 -0.6591 -0.5506 -1.4901
21825SOL     OW67727   6.501   9.549   9.353  0.3171  0.3127  0.4516
21825SOL    HW167728   6.442   9.553   9.278 -0.8603  2.3532  1.4084
21825SOL    HW267729   6.475   9.471   9.401 -1.1311  0.7699  0.4493
21826SOL     OW67730   6.999   3.831   6.203 -0.6137 -0.3692  0.0628
21826SOL    HW167731   7.086   3.798   6.178 -0.0352  0.6374  0.6835
21826SOL    HW267732   6.946   3.822   6.124  0.2605 -0.3147 -0.5414
21827SOL     OW67733   0.001   6.934   2.843 -0.6655 -0.1620 -0.0558
21827SOL    HW167734  -0.035   6.990   2.911 -0.3993  1.7614 -1.4050
21827SOL    HW267735  -0.073   6.882   2.812 -0.9242 -0.5675  1.1957
21828SOL     OW67736   9.527   6.416   1.554  0.4249 -0.3571  0.3204
21828SOL    HW167737   9.540   6.402   1.460  1.8125 -1.6784  0.6658
21828SOL    HW267738   9.502   6.508   1.561 -1.4492 -0.6385 -1.4796
21829SOL     OW67739   7.260  10.034   6.459 -0.6718 -0.0737  0.1665
21829SOL    HW167740   7.166  10.027   6.478 -0.6383 -1.6577 -0.1694
21829SOL    HW267741   7.263  10.068   6.370 -0.9307 -0.3933  0.0346
21830SOL     OW67742   9.109   5.958   3.859  0.7199 -0.0214  0.1278
21830SOL    HW167743   9.162   6.036   3.870 -0.0879  0.4209  1.1301
21830SOL    HW267744   9.128   5.927   3.771  2.5115  0.1911  0.4181
21831SOL     OW67745   9.050   8.728   8.971 -0.9724 -0.2865 -0.1111
21831SOL    HW167746   8.997   8.800   8.936 -1.0824 -0.5757 -0.5660
21831SOL    HW267747   9.130   8.729   8.918  0.2913  1.2390  1.7063
21832SOL     OW67748  10.431  10.216   3.394 -0.5154  0.7781  0.1724
21832SOL    HW167749  10.412  10.155   3.465  1.4444 -1.6686 -1.2179
21832SOL    HW267750  10.507  10.266   3.425  1.5415 -1.5847 -0.7706
21833SOL     OW67751   9.587   1.057   3.005 -0.5583  0.4802 -0.2814
21833SOL    HW167752   9.493   1.068   3.021 -0.3706  0.3454  0.9666
21833SOL    HW267753   9.595   0.968   2.970 -0.6895 -0.2659  1.5138
21834SOL     OW67754   3.129   3.967   3.116  0.1339 -0.8570  0.2300
21834SOL    HW167755   3.047   3.987   3.071  0.3485 -0.6118 -0.0522
21834SOL    HW267756   3.138   3.872   3.106 -0.5005 -1.0016  0.9240
21835SOL     OW67757   7.100   8.412   9.547 -0.5264  0.2976  0.2607
21835SOL    HW167758   7.025   8.378   9.499 -0.2874 -0.7481  0.5985
21835SOL    HW267759   7.141   8.474   9.487  0.5054 -1.8876 -1.4549
21836SOL     OW67760   6.154  10.219   7.234  0.4738 -0.6530  0.5250
21836SOL    HW167761   6.151  10.304   7.190 -0.6889 -0.0123  1.7577
21836SOL    HW267762   6.088  10.166   7.190  0.3567 -0.5051  0.5212
21837SOL     OW67763   4.232   1.608   8.821  0.7669  0.1147 -0.2999
21837SOL    HW167764   4.284   1.529   8.833 -0.7586 -0.8691  0.1028
21837SOL    HW267765   4.170   1.608   8.894  0.1087  1.1654 -0.8335
21838SOL     OW67766   0.902   1.519   6.546 -0.7346  0.1642 -0.3859
21838SOL    HW167767   0.846   1.597   6.552 -0.5827  0.4610 -2.1742
21838SOL    HW267768   0.986   1.548   6.582 -1.4708 -0.0815  1.6757
21839SOL     OW67769   7.781   1.837   2.358  0.6699  0.3015 -0.1198
21839SOL    HW167770   7.712   1.771   2.353  1.0605 -0.1758  0.5709
21839SOL    HW267771   7.839   1.818   2.284  1.2615 -0.7069  0.5764
21840SOL     OW67772   9.657   9.877   4.852  0.0511 -0.0282 -0.0980
21840SOL    HW167773   9.627   9.826   4.927  0.6332 -1.8904 -1.0584
21840SOL    HW267774   9.742   9.839   4.829  0.9266  1.9714 -0.3706
21841SOL     OW67775   9.522   5.339   4.842  0.0443 -0.2975  0.3867
21841SOL    HW167776   9.583   5.377   4.906  0.3792  1.0933 -0.6898
21841SOL    HW267777   9.442   5.323   4.891  0.2823  0.7731  1.1593
21842SOL     OW67778  10.646   1.422   3.123 -0.1805 -0.5786  0.6280
21842SOL    HW167779  10.563   1.380   3.142 -0.0188 -0.4188  1.7478
21842SOL    HW267780  10.709   1.377   3.179  0.5796 -0.9926 -0.5280
21843SOL     OW67781   1.692   4.672   1.745  0.5080  0.0424  0.1097
21843SOL    HW167782   1.642   4.601   1.704  0.8589 -0.3568  0.3536
21843SOL    HW267783   1.715   4.730   1.672 -0.3455  0.2559  0.0074
21844SOL     OW67784  10.535   4.220   5.251 -0.2282 -0.2787 -0.5543
21844SOL    HW167785  10.610   4.269   5.215 -0.0628 -1.2025 -1.5228
21844SOL    HW267786  10.487   4.285   5.302  2.1347 -0.0253  1.5517
21845SOL     OW67787   8.971  10.090   6.263 -0.3911  0.1089  0.1363
21845SOL    HW167788   8.895  10.064   6.210  0.3732 -1.4045 -0.2680
21845SOL    HW267789   8.948  10.064   6.352 -0.8252  0.7513  0.2187
21846SOL     OW67790   1.805   9.934   6.054  0.0297  0.4410 -0.2816
21846SOL    HW167791   1.883   9.968   6.098 -0.3031  0.9485 -0.0677
21846SOL    HW267792   1.838   9.870   5.992  0.6230  0.6862 -0.2268
21847SOL     OW67793   7.952   2.854   1.258  0.3277 -0.5281  0.9225
21847SOL    HW167794   7.941   2.934   1.310 -1.3038  0.1592 -0.3886
21847SOL    HW267795   7.932   2.881   1.169  0.9278 -2.1622  0.2675
21848SOL     OW67796   0.653   1.181   6.041 -0.3381  0.0986 -0.5266
21848SOL    HW167797   0.601   1.182   5.961 -0.8026  0.1668 -0.2292
21848SOL    HW267798   0.729   1.235   6.022 -0.8308  0.7453 -0.6661
21849SOL     OW67799   3.363   6.115   2.755  0.1004 -0.1156 -0.9196
21849SOL    HW167800   3.323   6.178   2.815  1.8622  0.1445  0.0468
21849SOL    HW267801   3.321   6.032   2.777  1.1645 -0.1650  1.2337
21850SOL     OW67802   1.432   6.966   4.836 -0.1940  0.3701 -0.1790
21850SOL    HW167803   1.357   6.989   4.781 -1.7919 -2.7578  0.4831
21850SOL    HW267804   1.508   6.980   4.779 -1.4893  0.8518 -1.8882
21851SOL     OW67805   9.758   2.585   0.666  0.3849 -0.3895 -0.0260
21851SOL    HW167806   9.744   2.659   0.607  1.4533 -0.0986  0.0518
21851SOL    HW267807   9.741   2.508   0.613 -0.2094 -0.1037 -0.2612
21852SOL     OW67808   6.224   5.546   8.601  0.2566 -0.1115 -0.3052
21852SOL    HW167809   6.184   5.468   8.562  1.8967 -0.8924 -0.5059
21852SOL    HW267810   6.250   5.518   8.688  0.6036  0.3114 -0.2736
21853SOL     OW67811   8.592   1.399   9.936  0.4138  0.5883  0.1447
21853SOL    HW167812   8.547   1.471   9.892  0.5826  0.2710 -0.5609
21853SOL    HW267813   8.616   1.435  10.021  0.4352  1.3459 -0.1696
21854SOL     OW67814   6.518   1.768   6.863 -0.1323  0.1640  0.1726
21854SOL    HW167815   6.512   1.673   6.855  0.7281  0.1624 -0.5590
21854SOL    HW267816   6.480   1.787   6.949 -2.2596 -0.6290 -0.5238
21855SOL     OW67817   2.155   7.182  10.410  0.1500 -0.2990  0.0451
21855SOL    HW167818   2.221   7.207  10.345  0.7665 -1.9879 -0.0209
21855SOL    HW267819   2.080   7.153  10.358 -0.3968  0.9200  0.1208
21856SOL     OW67820   6.602   3.844   3.377 -0.0816 -0.2825  0.3516
21856SOL    HW167821   6.686   3.844   3.423  1.0513 -1.9697 -1.5377
21856SOL    HW267822   6.622   3.877   3.290 -1.6602  0.5016  0.2565
21857SOL     OW67823   9.244   6.637   6.786  0.2194 -0.5482 -0.4888
21857SOL    HW167824   9.252   6.691   6.864 -0.4889 -1.4594  0.2460
21857SOL    HW267825   9.239   6.699   6.713  2.0192  0.2865  0.0630
21858SOL     OW67826   2.563   5.932   5.097  0.4196  0.0065 -0.1333
21858SOL    HW167827   2.623   5.968   5.033 -0.0247 -0.6628 -0.9440
21858SOL    HW267828   2.570   5.837   5.085 -0.4295 -0.0906  0.1056
21859SOL     OW67829   2.316   3.895   0.601  0.5381 -0.3834 -0.2613
21859SOL    HW167830   2.252   3.961   0.626  2.2089  1.0627  0.4114
21859SOL    HW267831   2.269   3.838   0.540 -1.0586  1.2175 -0.6139
21860SOL     OW67832   8.148   6.094   9.203 -0.1448 -0.1717  0.1024
21860SOL    HW167833   8.235   6.111   9.167 -0.0333 -0.6511  0.1440
21860SOL    HW267834   8.088   6.137   9.142  0.0017 -1.4204 -0.9634
21861SOL     OW67835   8.463   9.125   6.200  0.6034 -0.0308  0.5444
21861SOL    HW167836   8.413   9.205   6.216  1.4215  0.3841  1.1262
21861SOL    HW267837   8.398   9.055   6.198 -0.2464  0.7537 -1.0092
21862SOL     OW67838   4.332  10.213   7.216 -0.4574  0.2175 -0.3625
21862SOL    HW167839   4.357  10.266   7.292 -1.0574 -0.5248  0.3732
21862SOL    HW267840   4.389  10.136   7.221  2.2348  1.8453 -2.8562
21863SOL     OW67841   3.511   0.297   8.916  0.2895 -0.1718 -0.4085
21863SOL    HW167842   3.438   0.339   8.870 -0.4098 -1.2544 -0.3490
21863SOL    HW267843   3.500   0.324   9.007 -0.7897 -1.2666 -0.1770
21864SOL     OW67844   1.029  10.439   5.883  0.3261 -0.0632 -0.4950
21864SOL    HW167845   0.935  10.438   5.904  0.7479  0.6584  1.6695
21864SOL    HW267846   1.032  10.425   5.789 -2.1241  2.6682 -1.1139
21865SOL     OW67847   1.503   5.516   4.540  0.1095  0.8473  0.1284
21865SOL    HW167848   1.486   5.599   4.584 -2.2213  0.1481  0.7089
21865SOL    HW267849   1.445   5.517   4.464  2.6109  1.1738 -1.9055
21866SOL     OW67850   7.836   6.339   2.609  0.2882 -0.5728 -0.0645
21866SOL    HW167851   7.807   6.255   2.644 -1.7435 -0.1412 -0.5717
21866SOL    HW267852   7.901   6.316   2.542 -0.2506 -1.7517 -0.2073
21867SOL     OW67853   8.374   0.345   6.432 -0.3790 -0.4399  0.3499
21867SOL    HW167854   8.302   0.372   6.376  0.2833  0.3137 -0.1728
21867SOL    HW267855   8.338   0.276   6.488 -1.8534  0.7934  0.9820
21868SOL     OW67856   8.655   6.405   4.366 -0.1195  0.1048 -0.1446
21868SOL    HW167857   8.623   6.336   4.307 -0.4145 -0.7681  1.0092
21868SOL    HW267858   8.743   6.378   4.390  1.0645  1.7890 -2.1791
21869SOL     OW67859   8.390  10.232   7.958 -0.2102 -0.3998  0.1616
21869SOL    HW167860   8.318  10.176   7.928  0.0989 -0.2855 -0.8162
21869SOL    HW267861   8.397  10.212   8.051 -0.7814 -1.2380  0.0456
21870SOL     OW67862   7.429   4.841  10.225  0.5174 -0.9085  0.2134
21870SOL    HW167863   7.501   4.785  10.252  0.5510 -0.5542  0.8835
21870SOL    HW267864   7.467   4.899  10.159  0.6214 -1.2921 -0.0713
21871SOL     OW67865   1.391   8.397  10.627 -0.0962 -0.0403  0.0045
21871SOL    HW167866   1.425   8.335  10.562  1.6841  0.9648 -0.0912
21871SOL    HW267867   1.370   8.476  10.577 -1.9114 -0.3581  0.1967
21872SOL     OW67868   1.202   1.657   9.039  0.3828 -0.1382 -0.3250
21872SOL    HW167869   1.152   1.685   8.962 -0.6947 -2.0948 -0.3814
21872SOL    HW267870   1.135   1.631   9.103  1.2698  0.9737  1.1217
21873SOL     OW67871   7.470  10.593   0.356  0.6542 -0.0082 -0.5705
21873SOL    HW167872   7.468  10.610   0.450  1.5890 -0.8524 -0.3841
21873SOL    HW267873   7.550  10.543   0.342 -0.7331 -2.1704 -1.4088
21874SOL     OW67874   9.914   8.764   9.146  0.1477  0.5156 -0.0336
21874SOL    HW167875   9.871   8.802   9.223 -0.6730 -1.5752  0.5880
21874SOL    HW267876   9.980   8.705   9.182  0.4269  0.2523 -0.9539
21875SOL     OW67877   9.534   1.503   9.452 -0.5927  0.5902 -0.2520
21875SOL    HW167878   9.561   1.595   9.457  3.0699 -0.3721  2.6624
21875SOL    HW267879   9.489   1.487   9.535  0.5862 -0.6257  0.1947
21876SOL     OW67880   0.226   2.777   3.055  0.1503  0.0720  0.2617
21876SOL    HW167881   0.268   2.811   2.976  1.6976 -0.5863  0.7754
21876SOL    HW267882   0.133   2.772   3.031  0.4419  0.7885 -1.1831
21877SOL     OW67883   0.418   0.267   9.321  0.1203 -0.0483 -1.0841
21877SOL    HW167884   0.416   0.353   9.363  0.3756 -0.3515 -0.4425
21877SOL    HW267885   0.336   0.263   9.271  0.2403  0.6787 -1.3534
21878SOL     OW67886   8.964   2.019   8.808 -0.5960 -0.1463  0.8560
21878SOL    HW167887   8.891   2.043   8.866 -0.8296  1.2047  0.0479
21878SOL    HW267888   8.922   1.972   8.736 -0.3155 -1.7588  1.7068
21879SOL     OW67889   8.529   3.275   2.838  0.3410 -0.1634 -0.9907
21879SOL    HW167890   8.475   3.196   2.832  0.8499 -0.7834  1.5588
21879SOL    HW267891   8.615   3.248   2.805  0.5308 -0.7282 -0.0721
21880SOL     OW67892   0.198   7.720   3.654  0.0395  0.0197 -0.5315
21880SOL    HW167893   0.186   7.754   3.566 -1.6766 -0.9455 -0.7160
21880SOL    HW267894   0.260   7.780   3.695  0.3662  0.8540 -2.1823
21881SOL     OW67895   9.141   0.684   3.152 -0.0236  0.4499 -0.0453
21881SOL    HW167896   9.078   0.691   3.224  0.4331  0.0915  0.3906
21881SOL    HW267897   9.091   0.713   3.075 -1.3398 -1.6874 -0.0669
21882SOL     OW67898   4.217   5.355   8.428  0.0477 -0.1230 -0.3263
21882SOL    HW167899   4.215   5.447   8.454 -0.3288  0.2194 -1.5079
21882SOL    HW267900   4.305   5.341   8.393  0.4733 -0.5235  0.8210
21883SOL     OW67901   3.089   7.600   8.183 -0.1383  0.4282 -0.1153
21883SOL    HW167902   3.134   7.669   8.134  0.8451  0.8682  1.3448
21883SOL    HW267903   3.135   7.520   8.158 -1.9869  0.0376 -2.6781
21884SOL     OW67904   1.650   4.002   7.246 -0.1956  0.3710  0.5774
21884SOL    HW167905   1.699   3.959   7.317 -1.0522 -0.5715  0.6293
21884SOL    HW267906   1.693   3.972   7.166  0.6883  1.3285  0.6769
21885SOL     OW67907   4.383   4.526   7.861 -0.1113  0.1964  0.1166
21885SOL    HW167908   4.370   4.431   7.861 -1.1370  0.3234 -0.1631
21885SOL    HW267909   4.317   4.559   7.800 -1.1913  1.2577  1.7670
21886SOL     OW67910   1.039   6.344   8.108 -1.0019 -0.2195  0.2706
21886SOL    HW167911   1.069   6.340   8.017  0.2250 -1.4037  0.7082
21886SOL    HW267912   0.954   6.388   8.102  0.3427  2.4408 -1.1146
21887SOL     OW67913   4.835   4.168  10.052 -0.5645 -0.2072 -0.1229
21887SOL    HW167914   4.882   4.214  10.121  0.0368 -0.5683 -0.2848
21887SOL    HW267915   4.861   4.213   9.971 -1.7142  0.5896 -0.0810
21888SOL     OW67916   8.342   3.616   5.982  0.6898  0.6793 -0.1974
21888SOL    HW167917   8.407   3.568   6.033  0.7823 -0.1593 -1.0831
21888SOL    HW267918   8.386   3.635   5.899 -0.3582 -0.3670 -1.0265
21889SOL     OW67919   7.034   9.062   4.820  0.3319 -0.3323  0.7439
21889SOL    HW167920   6.988   9.136   4.781  2.7938 -0.2291 -2.4515
21889SOL    HW267921   6.970   8.991   4.822 -1.2889  1.1060  1.2231
21890SOL     OW67922   0.102   3.954   6.898 -0.0531  0.1763  0.1395
21890SOL    HW167923   0.086   3.866   6.932 -0.2947  0.3178  0.4030
21890SOL    HW267924   0.035   3.966   6.830 -0.2624  0.2960  0.3653
21891SOL     OW67925   0.578   9.955   6.849 -1.0512  0.4068 -0.3935
21891SOL    HW167926   0.664   9.977   6.884 -1.1388 -1.6736  1.3242
21891SOL    HW267927   0.596   9.892   6.779 -1.1619 -1.5403  1.2317
21892SOL     OW67928   9.038   0.372   0.646 -0.2557 -0.4002 -0.1651
21892SOL    HW167929   8.993   0.289   0.628  0.4445 -0.9534  0.5427
21892SOL    HW267930   9.011   0.430   0.574 -0.3739 -1.3906 -0.9519
21893SOL     OW67931   1.319   2.912   9.541  0.0972 -0.1651  0.5903
21893SOL    HW167932   1.228   2.935   9.557 -0.4227 -0.6665 -1.3894
21893SOL    HW267933   1.323   2.818   9.555  0.0067 -0.3423 -0.5004
21894SOL     OW67934   1.132   0.728   5.270  0.4143 -0.5902  0.2104
21894SOL    HW167935   1.225   0.753   5.266  0.3761 -0.5305 -0.3538
21894SOL    HW267936   1.085   0.808   5.248  0.2534 -0.8175 -0.2836
21895SOL     OW67937   3.622   3.972   2.771 -0.1312 -0.3040 -0.2138
21895SOL    HW167938   3.643   3.925   2.851  2.7500  0.6834 -0.2775
21895SOL    HW267939   3.581   4.053   2.800 -1.6008 -1.1074  0.0636
21896SOL     OW67940   1.758   6.771   3.674  0.3069  0.2145 -0.1264
21896SOL    HW167941   1.730   6.821   3.751  0.8090  0.5362 -0.1466
21896SOL    HW267942   1.679   6.727   3.643  0.0799  0.1611  0.5183
21897SOL     OW67943   7.638   4.421   6.155 -0.0502 -0.5387 -0.1220
21897SOL    HW167944   7.704   4.408   6.223  0.2706 -0.5244 -0.4291
21897SOL    HW267945   7.569   4.470   6.198  0.0993 -0.6327  0.2271
21898SOL     OW67946   6.033  10.410   6.412  0.2318  0.8360  0.6301
21898SOL    HW167947   6.114  10.430   6.364 -0.6139  0.4533 -1.0121
21898SOL    HW267948   5.966  10.462   6.368 -0.4864  0.9059  1.7880
21899SOL     OW67949   0.584   0.922  10.247  0.6439 -0.1039 -0.5701
21899SOL    HW167950   0.668   0.957  10.221  0.2258  0.4523 -1.1960
21899SOL    HW267951   0.563   0.967  10.329  0.2886  0.8453 -1.1695
21900SOL     OW67952   6.865   2.252   0.916  0.2739 -0.5654  0.3390
21900SOL    HW167953   6.947   2.202   0.925 -0.0861 -0.9359  1.8599
21900SOL    HW267954   6.860   2.305   0.996 -1.5424 -1.4345  0.8539
21901SOL     OW67955   3.857   3.802  10.016 -0.6048 -0.0362 -0.3445
21901SOL    HW167956   3.870   3.876   9.957 -1.8356  0.2652 -0.2603
21901SOL    HW267957   3.875   3.837  10.103 -0.5750 -0.0016 -0.3645
21902SOL     OW67958   4.952   0.665   7.511  0.2780 -0.1181 -0.4097
21902SOL    HW167959   4.999   0.725   7.454  0.0049 -0.3309 -0.8584
21902SOL    HW267960   4.941   0.714   7.593  1.4232 -0.1245 -0.2400
21903SOL     OW67961  10.198   8.650  10.350  0.0058  0.1435 -0.6541
21903SOL    HW167962  10.220   8.742  10.360 -1.1989  0.5429 -1.4373
21903SOL    HW267963  10.251   8.619  10.277  0.8020  0.0663 -0.0515
21904SOL     OW67964  10.573   0.127   9.851 -0.3184 -0.1684 -0.1318
21904SOL    HW167965  10.592   0.106   9.759  2.0709 -1.6674  0.6377
21904SOL    HW267966  10.535   0.215   9.848  0.0444 -0.0339 -2.5067
21905SOL     OW67967  10.175   7.502   5.883  0.1042  0.1475  0.4615
21905SOL    HW167968  10.209   7.587   5.854  0.6707  0.1878  1.2185
21905SOL    HW267969  10.179   7.447   5.806 -2.0079  1.3139 -0.5564
21906SOL     OW67970   0.878   1.895   6.948  0.6319  0.5989 -0.8584
21906SOL    HW167971   0.890   1.807   6.913  2.1682  1.2765 -2.1518
21906SOL    HW267972   0.783   1.907   6.950  0.3587 -1.2731 -0.0681
21907SOL     OW67973   1.757   6.006   1.794 -0.2328 -0.3198 -0.3573
21907SOL    HW167974   1.663   6.002   1.814  0.0374 -0.0259  1.0969
21907SOL    HW267975   1.769   5.940   1.726 -1.1741 -1.7716  0.8188
21908SOL     OW67976   3.954   4.741   9.592 -0.2989  0.9269  0.4726
21908SOL    HW167977   3.888   4.742   9.523 -1.8493  2.6329  1.8944
21908SOL    HW267978   3.907   4.765   9.671  1.8214  1.0942  1.7636
21909SOL     OW67979   7.375   6.856   0.755  0.1996  0.5949 -0.6131
21909SOL    HW167980   7.299   6.806   0.787 -1.2475  1.4617 -2.4993
21909SOL    HW267981   7.368   6.941   0.797 -0.0954  0.8012 -1.0771
21910SOL     OW67982   6.911   5.337   3.615  0.0424  0.3213 -0.4320
21910SOL    HW167983   6.830   5.385   3.632 -0.6570 -1.7821  3.1409
21910SOL    HW267984   6.968   5.360   3.687  0.8669 -1.7139 -0.3731
21911SOL     OW67985   1.938   5.631   7.242 -0.2966 -0.5224 -0.4069
21911SOL    HW167986   1.879   5.616   7.316 -2.4658 -0.6958 -2.0561
21911SOL    HW267987   2.022   5.595   7.271 -1.7967 -3.4012  0.8956
21912SOL     OW67988   3.198   5.498  10.634  0.4756  0.0250 -0.1753
21912SOL    HW167989   3.119   5.455  10.666 -0.0506  1.4367  0.4969
21912SOL    HW267990   3.268   5.435  10.650 -0.3498 -0.8147  0.2117
21913SOL     OW67991   5.684   7.518   4.023 -0.3296 -0.5742 -0.0870
21913SOL    HW167992   5.697   7.481   3.935  1.2963 -1.0781  0.3348
21913SOL    HW267993   5.590   7.537   4.027 -0.1829  1.3316 -2.6849
21914SOL     OW67994   3.153   3.781   4.726 -0.2574  0.1182  0.2782
21914SOL    HW167995   3.224   3.734   4.769 -1.3888 -0.3160  1.7675
21914SOL    HW267996   3.085   3.716   4.713 -0.9281  0.8279  0.1518
21915SOL     OW67997   8.895   1.427   7.911 -0.3425  0.3916 -0.5062
21915SOL    HW167998   8.868   1.475   7.989  1.2890 -1.0028  1.0067
21915SOL    HW267999   8.989   1.411   7.924 -0.4881 -1.8055 -1.6334
21916SOL     OW68000   0.017   9.113   6.633 -0.3983  0.2071  0.7138
21916SOL    HW168001  -0.017   9.137   6.719  0.5514  0.6805  0.9657
21916SOL    HW268002  -0.028   9.031   6.612  0.5043 -0.7666  2.3594
21917SOL     OW68003  10.181   3.494   7.648 -0.5128  0.1908 -0.5803
21917SOL    HW168004  10.194   3.435   7.574 -1.7522 -1.6380  0.5684
21917SOL    HW268005  10.087   3.491   7.665 -0.3835  1.3115  0.4872
21918SOL     OW68006   8.994   5.180   0.287  0.0605  0.0615  0.1017
21918SOL    HW168007   8.927   5.230   0.241  0.9212  1.3458  0.1846
21918SOL    HW268008   8.946   5.108   0.329 -1.1754  0.6578 -0.2400
21919SOL     OW68009   5.162   4.596   2.159  0.1038  0.0055  0.3079
21919SOL    HW168010   5.068   4.577   2.155  0.4736 -2.3419  1.3689
21919SOL    HW268011   5.173   4.648   2.239 -0.3221  0.6592 -0.0488
21920SOL     OW68012   7.686   7.393  10.018  0.0722 -0.3522 -0.2647
21920SOL    HW168013   7.613   7.452  10.001 -0.0676 -0.6372 -0.6735
21920SOL    HW268014   7.675   7.367  10.110  0.8824  1.2602  0.3324
21921SOL     OW68015   8.810   2.990   6.212  0.2701 -0.4777 -0.0923
21921SOL    HW168016   8.899   2.963   6.192 -0.0166 -0.1834 -1.8811
21921SOL    HW268017   8.820   3.074   6.257  0.8867 -0.5825 -0.0189
21922SOL     OW68018   1.988   5.683   8.832  0.0736 -0.1675  0.6670
21922SOL    HW168019   2.028   5.596   8.829  1.5039  0.4739  0.1644
21922SOL    HW268020   1.921   5.677   8.900  1.0732 -1.2873  1.5910
21923SOL     OW68021   9.328   0.136   2.223  0.2212  0.2941 -0.6476
21923SOL    HW168022   9.401   0.165   2.278 -0.6512 -1.1077  1.4223
21923SOL    HW268023   9.282   0.217   2.199  0.5379  0.9803  0.9130
21924SOL     OW68024   3.128   1.471   2.923 -0.4174 -0.2783  0.2554
21924SOL    HW168025   3.130   1.535   2.994  0.9791  1.2216 -1.0436
21924SOL    HW268026   3.152   1.388   2.965 -0.3743  0.4169  1.6608
21925SOL     OW68027   0.813  10.370   0.828 -0.1469  0.1702  0.1178
21925SOL    HW168028   0.871  10.312   0.877  2.2899  2.1358 -0.2070
21925SOL    HW268029   0.751  10.403   0.893 -1.4013 -2.4073  0.3624
21926SOL     OW68030   5.918   8.141   4.592  0.0051  0.1391  0.1475
21926SOL    HW168031   5.842   8.166   4.644 -1.5405  0.4091 -2.1147
21926SOL    HW268032   5.963   8.223   4.574 -0.1299  0.2023  0.0940
21927SOL     OW68033   8.948   3.016   9.358 -0.2371 -0.5227  0.5127
21927SOL    HW168034   8.989   2.961   9.291 -0.4858  0.2253 -0.2696
21927SOL    HW268035   8.997   3.098   9.354 -0.4673 -0.3608  1.0273
21928SOL     OW68036   9.111   7.286   6.111  0.1838  0.1238  0.1918
21928SOL    HW168037   9.064   7.214   6.069  0.7414  0.0988 -0.4062
21928SOL    HW268038   9.063   7.302   6.192  0.3397 -1.2628  0.5787
21929SOL     OW68039   6.230   9.675   3.091 -0.3118 -0.4282 -0.0859
21929SOL    HW168040   6.208   9.760   3.128  0.7537 -0.0423 -0.3264
21929SOL    HW268041   6.222   9.614   3.165 -0.4092 -0.0157  0.2467
21930SOL     OW68042   8.097   9.753   6.069  0.6460  0.5330  0.4183
21930SOL    HW168043   8.115   9.846   6.049  0.1735  0.8001  1.2061
21930SOL    HW268044   8.046   9.755   6.150 -0.0391 -0.3831  0.0306
21931SOL     OW68045   5.144   7.937   7.606 -0.0351  0.4916 -0.1488
21931SOL    HW168046   5.061   7.897   7.634  0.1674  0.0370 -0.1936
21931SOL    HW268047   5.174   7.985   7.683  0.1880 -0.2138  0.2090
21932SOL     OW68048   1.416   9.276   2.152  0.2334  0.4791 -0.0898
21932SOL    HW168049   1.338   9.292   2.206 -0.6301  1.2829 -1.5106
21932SOL    HW268050   1.477   9.345   2.176 -0.1395  0.8263 -0.1353
21933SOL     OW68051   1.858   8.131   4.652 -0.3700 -0.2183  0.7789
21933SOL    HW168052   1.817   8.101   4.571 -0.8452  1.6669  0.2867
21933SOL    HW268053   1.843   8.060   4.714 -1.2163 -1.1014 -0.3989
21934SOL     OW68054   2.056   3.752   0.862 -0.2021 -0.2445  0.2495
21934SOL    HW168055   2.016   3.676   0.821 -1.2253  0.1474  0.4700
21934SOL    HW268056   2.002   3.826   0.833  0.7257  0.3907  0.0894
21935SOL     OW68057   9.076   3.922   8.643 -0.2440  0.3870 -0.3956
21935SOL    HW168058   9.079   3.997   8.703 -0.9483 -0.3849  0.6486
21935SOL    HW268059   9.027   3.954   8.568  2.4050  2.0246 -1.5933
21936SOL     OW68060   6.170   9.588  10.203  0.2656 -0.4665  0.0942
21936SOL    HW168061   6.111   9.515  10.221  0.0722  0.4101  3.8516
21936SOL    HW268062   6.234   9.553  10.141 -0.4791 -3.4494  0.8768
21937SOL     OW68063   8.485   4.954   8.451  0.6771  0.0260 -0.4568
21937SOL    HW168064   8.424   4.894   8.409 -0.7380  2.5925 -2.3736
21937SOL    HW268065   8.430   5.011   8.504  1.7051  0.9633 -0.3588
21938SOL     OW68066   0.478   4.341   2.934  0.6480 -0.1865 -0.1808
21938SOL    HW168067   0.417   4.280   2.975  0.9221 -0.1628  0.2644
21938SOL    HW268068   0.470   4.324   2.840 -1.5019  1.1462 -0.2956
21939SOL     OW68069   0.376   1.498   3.310 -0.1318 -1.2847 -0.0414
21939SOL    HW168070   0.414   1.486   3.397  0.4834 -1.8157 -0.3734
21939SOL    HW268071   0.452   1.513   3.253 -0.4567 -1.8548 -0.6342
21940SOL     OW68072   6.406   5.540   6.215 -0.1245 -0.0467 -0.0591
21940SOL    HW168073   6.421   5.482   6.289 -2.3771  0.5445  0.9445
21940SOL    HW268074   6.436   5.626   6.245 -1.8862  0.3851  0.5823
21941SOL     OW68075   4.748   9.458   4.593 -0.3095  0.1651  0.0371
21941SOL    HW168076   4.843   9.463   4.592 -0.2856 -0.2497 -0.5406
21941SOL    HW268077   4.728   9.366   4.573 -0.8081 -0.3945  2.6774
21942SOL     OW68078   1.022   3.746   7.304  0.2698 -0.2712 -0.7635
21942SOL    HW168079   1.054   3.823   7.350  0.1529 -0.9995  0.5859
21942SOL    HW268080   1.064   3.750   7.218  2.4901 -0.1673  0.2649
21943SOL     OW68081   5.280   2.859   4.116  0.8335 -0.4617 -0.2886
21943SOL    HW168082   5.248   2.769   4.108  0.7763 -0.7922  2.5146
21943SOL    HW268083   5.311   2.882   4.029 -2.4999 -1.8684 -2.0454
21944SOL     OW68084  10.614   8.245   4.421  0.3846  0.5325 -0.3484
21944SOL    HW168085  10.695   8.291   4.398 -0.5288  1.7968 -1.1584
21944SOL    HW268086  10.639   8.153   4.424  2.0481  0.9630  0.3176
21945SOL     OW68087   7.969   6.723   1.667 -0.6827  0.0437 -0.2381
21945SOL    HW168088   8.001   6.633   1.655 -0.0927 -0.1462  2.1656
21945SOL    HW268089   8.041   6.778   1.637 -0.4356 -0.3116 -0.3026
21946SOL     OW68090   1.049   1.111   2.556 -0.3751 -0.0129 -0.8219
21946SOL    HW168091   1.018   1.077   2.472 -3.0613  1.0923 -0.3759
21946SOL    HW268092   1.003   1.059   2.622  2.8560 -1.9476  0.1467
21947SOL     OW68093  10.267   5.066   6.882 -0.2996 -0.7089 -0.6141
21947SOL    HW168094  10.348   5.083   6.930 -0.9962  0.4705  0.1915
21947SOL    HW268095  10.211   5.019   6.943 -1.4152  1.3231 -0.0021
21948SOL     OW68096   7.267   0.829   2.106 -0.3103  0.0809  0.4216
21948SOL    HW168097   7.236   0.755   2.158  0.5568 -0.4256  0.2295
21948SOL    HW268098   7.357   0.807   2.084  0.0419  1.3038  0.5558
21949SOL     OW68099   2.771   1.839   7.750 -0.4126 -0.5996 -0.3921
21949SOL    HW168100   2.815   1.766   7.707  0.2346  0.3986 -1.5056
21949SOL    HW268101   2.818   1.917   7.718 -3.7317  0.6674 -2.6770
21950SOL     OW68102   1.195   4.451   6.778 -0.0785 -0.5091  0.1219
21950SOL    HW168103   1.118   4.399   6.799 -0.5665  0.8507  2.0002
21950SOL    HW268104   1.243   4.459   6.861  0.9220  0.4834 -0.5083
21951SOL     OW68105  10.439   9.598   7.227  0.1707  0.2160  0.0048
21951SOL    HW168106  10.382   9.659   7.180 -0.2887  0.1103  0.4194
21951SOL    HW268107  10.423   9.616   7.319 -0.8159 -1.2583  0.1679
21952SOL     OW68108   0.513   1.041   5.803  0.1057 -0.1870 -0.2420
21952SOL    HW168109   0.418   1.044   5.791 -0.0119  2.2978  0.7566
21952SOL    HW268110   0.537   0.951   5.781 -2.4678 -0.8912 -0.4822
21953SOL     OW68111   1.434   7.666   9.605  0.4094 -0.2969  0.5828
21953SOL    HW168112   1.507   7.628   9.557 -0.3464 -0.0976 -0.7717
21953SOL    HW268113   1.410   7.744   9.556  1.0396  1.2195  2.5565
21954SOL     OW68114   5.683   9.096   0.246  0.5187  0.1714  0.3669
21954SOL    HW168115   5.660   9.079   0.155 -0.0805 -3.3383  1.0357
21954SOL    HW268116   5.779   9.094   0.248  0.5638  1.1075 -0.2741
21955SOL     OW68117   4.642   9.309   9.086  0.0180  0.0673 -0.5999
21955SOL    HW168118   4.582   9.253   9.036 -0.6175  0.5794 -0.4180
21955SOL    HW268119   4.585   9.362   9.142  0.4998  1.8672 -1.7244
21956SOL     OW68120   8.158  10.426   5.438  0.3558  0.5107 -0.4266
21956SOL    HW168121   8.130  10.423   5.346  2.1437  0.6017 -1.0107
21956SOL    HW268122   8.121  10.508   5.471 -2.9435 -0.9282 -0.0810
21957SOL     OW68123  10.540   1.826  10.238 -0.0090  0.0288  0.0660
21957SOL    HW168124  10.589   1.744  10.248  1.6469  1.0284  0.5364
21957SOL    HW268125  10.508   1.823  10.148 -0.8724 -1.5810  0.3834
21958SOL     OW68126   6.067   7.908   6.428 -0.6930 -0.5664 -0.0180
21958SOL    HW168127   6.028   7.995   6.413  0.8610  0.1425 -0.1191
21958SOL    HW268128   5.998   7.859   6.474 -2.2545  0.1160 -1.5139
21959SOL     OW68129   5.477   4.325   8.827 -0.4073 -0.5895 -0.0574
21959SOL    HW168130   5.466   4.393   8.893 -1.2700  0.3547 -1.1350
21959SOL    HW268131   5.466   4.370   8.744  0.2870 -1.8225 -0.8415
21960SOL     OW68132   3.043   4.402   3.432 -0.4770 -0.0395  0.0093
21960SOL    HW168133   3.011   4.343   3.364 -2.2792  0.6671  0.1754
21960SOL    HW268134   2.973   4.403   3.497  0.5669  0.4445  1.1607
21961SOL     OW68135   5.362   9.967  10.390  0.0330  0.1898  0.3340
21961SOL    HW168136   5.444   9.936  10.428 -0.3846 -0.5393  0.6525
21961SOL    HW268137   5.294   9.930  10.445 -0.5552 -0.0683 -0.5361
21962SOL     OW68138   6.310   0.065  10.172  0.2244  0.4570 -0.0860
21962SOL    HW168139   6.265   0.001  10.226  0.8823 -0.3851 -0.5007
21962SOL    HW268140   6.346   0.013  10.100  2.5515  0.9278  0.6625
21963SOL     OW68141   0.105   9.177   5.183  0.4989  0.2280  0.2440
21963SOL    HW168142   0.042   9.211   5.120 -0.4536  1.1282  1.6163
21963SOL    HW268143   0.190   9.204   5.150 -0.1687  3.7981  1.0643
21964SOL     OW68144   8.893   2.587   3.529  0.6770 -0.1273 -0.0285
21964SOL    HW168145   8.859   2.499   3.511  0.9307 -0.2647  0.1551
21964SOL    HW268146   8.985   2.573   3.554  0.6824  0.1765  0.1317
21965SOL     OW68147   2.548   0.128   7.680 -0.6731  0.4636  0.2323
21965SOL    HW168148   2.632   0.163   7.711 -0.1891 -0.4365 -0.0056
21965SOL    HW268149   2.511   0.085   7.757 -0.1981 -0.4318 -0.0213
21966SOL     OW68150   3.041   6.716   8.919 -0.4127  0.4566  0.6379
21966SOL    HW168151   3.098   6.672   8.983  0.1492  0.2900  0.0307
21966SOL    HW268152   3.042   6.658   8.843 -2.4618 -0.2390  1.0742
21967SOL     OW68153   9.853   3.438   4.074  0.0162  0.2278 -0.0883
21967SOL    HW168154   9.833   3.438   3.980  2.6658 -1.2137 -0.7645
21967SOL    HW268155   9.850   3.531   4.099  1.4289  0.9234 -2.1843
21968SOL     OW68156  10.506   9.748   6.156 -0.2626  0.4671  0.1740
21968SOL    HW168157  10.442   9.790   6.099  0.8823  0.6414 -1.0213
21968SOL    HW268158  10.495   9.792   6.240 -1.7457  0.4364  0.0234
21969SOL     OW68159   6.538   1.584   4.236  0.0007 -0.0100  0.5223
21969SOL    HW168160   6.485   1.612   4.310  0.0647 -2.1064  1.4360
21969SOL    HW268161   6.558   1.492   4.254  1.7978 -0.0027 -1.0612
21970SOL     OW68162   4.652   2.360   9.966 -0.6903 -0.4532 -0.0831
21970SOL    HW168163   4.671   2.439   9.916 -0.4890 -0.1426  0.4837
21970SOL    HW268164   4.718   2.297   9.936  1.1425  0.5326  1.6775
21971SOL     OW68165   2.582   4.220   8.525  0.0352 -0.0069  0.6615
21971SOL    HW168166   2.669   4.179   8.515  1.1346  1.8317  2.0935
21971SOL    HW268167   2.553   4.235   8.435  1.3073 -0.4403  0.1447
21972SOL     OW68168   4.772   2.350   1.738  0.2607 -0.2231 -0.2338
21972SOL    HW168169   4.680   2.376   1.727 -0.0860 -1.0037  0.7136
21972SOL    HW268170   4.806   2.348   1.648 -0.3024  1.2146 -0.5242
21973SOL     OW68171   1.387   0.490   8.982 -0.2522  0.6631  0.1348
21973SOL    HW168172   1.461   0.544   8.953 -1.1772  1.6148 -0.5256
21973SOL    HW268173   1.412   0.460   9.069  1.2047  0.3991 -0.3369
21974SOL     OW68174   5.629   8.767   1.106  0.1620  0.1266 -0.0844
21974SOL    HW168175   5.645   8.706   1.178 -0.6313  0.6391  0.5391
21974SOL    HW268176   5.546   8.739   1.068  0.2999  0.1981 -0.4458
21975SOL     OW68177   3.479   2.742   0.954 -0.2725  0.0986  0.3985
21975SOL    HW168178   3.406   2.784   0.908  0.4143  0.3067 -0.5324
21975SOL    HW268179   3.477   2.651   0.924 -1.2805 -0.3847  1.8168
21976SOL     OW68180   3.318   9.344  10.012 -0.2258  0.3253  0.1991
21976SOL    HW168181   3.286   9.255   9.996  1.1165  0.1452 -1.8994
21976SOL    HW268182   3.387   9.333  10.078  0.0499 -0.2378 -0.1765
21977SOL     OW68183   4.265   1.488   6.823  0.0409 -0.3499  0.5658
21977SOL    HW168184   4.201   1.516   6.758 -0.4126  0.3152  1.2797
21977SOL    HW268185   4.248   1.394   6.835 -0.3540 -0.3180  0.2595
21978SOL     OW68186   2.388   4.271   2.577 -0.4221  0.0725  0.1486
21978SOL    HW168187   2.399   4.211   2.651 -0.4054 -1.0638 -0.7475
21978SOL    HW268188   2.294   4.277   2.564 -0.4317 -2.0892 -1.5250
21979SOL     OW68189   1.660   3.477   9.881 -0.4310  0.7972  0.0659
21979SOL    HW168190   1.629   3.516   9.963  0.3564  0.2918  0.6179
21979SOL    HW268191   1.612   3.524   9.813  0.6269  2.9022  0.6834
21980SOL     OW68192   1.232   8.961   9.963 -0.0117  0.0090  0.0526
21980SOL    HW168193   1.207   8.909  10.040  1.3505  0.7710  1.0364
21980SOL    HW268194   1.148   8.990   9.926 -0.7077 -0.8286  0.9185
21981SOL     OW68195   9.019   3.420   2.932 -0.1681 -0.6346 -0.0386
21981SOL    HW168196   9.046   3.487   2.870  1.3498 -0.3677  0.8432
21981SOL    HW268197   9.092   3.414   2.993 -1.3002 -1.4001  1.2963
21982SOL     OW68198  10.026   2.330   6.741  0.7826 -0.1413  0.0241
21982SOL    HW168199  10.032   2.248   6.692 -0.5515 -1.0223  1.2242
21982SOL    HW268200  10.096   2.325   6.806  0.2358 -0.7280  0.5923
21983SOL     OW68201   7.443   1.053   0.161 -0.7725  0.5749 -0.0770
21983SOL    HW168202   7.425   1.140   0.196 -0.0399  0.5553  0.3646
21983SOL    HW268203   7.459   0.999   0.238 -1.0013  0.0974 -0.3619
21984SOL     OW68204   1.414   5.763   0.562 -0.3852 -0.3714 -0.3394
21984SOL    HW168205   1.443   5.785   0.651  0.8484 -0.3855 -0.7138
21984SOL    HW268206   1.340   5.822   0.545 -0.4507 -0.1782  0.5908
21985SOL     OW68207   7.795   1.882   7.019 -0.2532  0.3721  0.0733
21985SOL    HW168208   7.890   1.867   7.020 -0.4103 -0.7868  1.4154
21985SOL    HW268209   7.786   1.977   7.027  0.7715  1.0203 -4.0314
21986SOL     OW68210   3.663   3.202   0.429 -0.2199 -0.5889 -0.4112
21986SOL    HW168211   3.609   3.237   0.358  0.3612 -0.9551 -1.0455
21986SOL    HW268212   3.643   3.258   0.504  0.2696  0.7891 -1.2524
21987SOL     OW68213   1.767   4.692  10.639 -0.7659 -0.5419  0.2092
21987SOL    HW168214   1.752   4.740  10.558  0.5369  0.6332  0.6089
21987SOL    HW268215   1.703   4.728  10.700  0.0299  0.5598  0.4326
21988SOL     OW68216   0.760   8.907   9.507 -0.4310 -0.2632  0.1186
21988SOL    HW168217   0.729   8.997   9.509  1.1219  0.4518 -2.8514
21988SOL    HW268218   0.692   8.859   9.460 -0.3476 -0.2071 -0.0608
21989SOL     OW68219   7.978   0.452   8.401 -0.0253  0.3084 -0.4053
21989SOL    HW168220   7.899   0.490   8.439  0.8558 -0.0254  1.9157
21989SOL    HW268221   7.974   0.477   8.309 -2.3591  1.0650 -0.1763
21990SOL     OW68222   1.308   9.960   2.040  0.1113 -0.7280 -0.6110
21990SOL    HW168223   1.279   9.917   2.121 -0.2985  1.1106  0.2568
21990SOL    HW268224   1.403   9.944   2.038  0.1324 -0.7955  0.2388
21991SOL     OW68225   5.622   4.362   8.002 -0.1815  0.0584 -0.5584
21991SOL    HW168226   5.705   4.360   7.955  0.3029 -0.1203  0.2833
21991SOL    HW268227   5.557   4.335   7.938  0.5337 -0.7015 -0.9793
21992SOL     OW68228   5.536   1.878   0.431 -0.4590  0.2489 -0.0391
21992SOL    HW168229   5.448   1.908   0.408 -0.0159  2.9350  1.3692
21992SOL    HW268230   5.548   1.798   0.379 -3.4514  0.1264 -0.7567
21993SOL     OW68231   5.771   9.072   7.751  0.8107  0.2361 -0.4704
21993SOL    HW168232   5.789   9.124   7.672  1.6661 -1.1390 -1.2218
21993SOL    HW268233   5.848   9.017   7.762 -0.1527 -1.0296  0.1599
21994SOL     OW68234   4.938   2.138   0.323  0.9204  0.3219 -0.0823
21994SOL    HW168235   4.925   2.084   0.401 -1.1899  2.2632  1.0427
21994SOL    HW268236   4.966   2.076   0.256  1.4448 -1.6634  1.8363
21995SOL     OW68237   7.898   1.283   0.554 -0.7431 -0.4154 -0.0136
21995SOL    HW168238   7.900   1.375   0.525 -0.3305 -0.3069  0.3503
21995SOL    HW268239   7.981   1.271   0.601  0.1728 -1.5412 -1.7792
21996SOL     OW68240   4.487   4.786   1.166 -0.2512 -0.1698  0.4332
21996SOL    HW168241   4.461   4.701   1.201  0.6773 -0.3191  0.7977
21996SOL    HW268242   4.421   4.847   1.198 -0.2155 -0.5450  1.2420
21997SOL     OW68243   5.647   2.729   2.476 -0.7353  0.2602  0.0751
21997SOL    HW168244   5.565   2.764   2.441 -0.5817 -0.1825 -0.7514
21997SOL    HW268245   5.655   2.769   2.563 -2.1793 -0.2646  0.4664
21998SOL     OW68246   6.392   4.821   8.103 -0.6401  0.1903 -0.1940
21998SOL    HW168247   6.411   4.779   8.019  1.9494  0.9791 -0.0996
21998SOL    HW268248   6.448   4.898   8.104 -0.7883  0.3410  2.1466
21999SOL     OW68249   9.220   6.909   0.381 -0.2522  0.1151  0.0392
21999SOL    HW168250   9.167   6.838   0.418  0.6384  0.2687  1.6904
21999SOL    HW268251   9.310   6.880   0.394  0.1219  0.3940 -1.6687
22000SOL     OW68252   1.290   8.481   0.828  0.2691  0.2682  0.2285
22000SOL    HW168253   1.361   8.538   0.859  0.0204  0.1690  1.0114
22000SOL    HW268254   1.281   8.415   0.897  0.8454 -1.0081 -0.8593
22001SOL     OW68255   9.443   6.975   2.173  0.0450  0.5900  0.4547
22001SOL    HW168256   9.525   7.011   2.205  0.5626 -0.4489  0.3351
22001SOL    HW268257   9.463   6.885   2.149 -0.7693  0.7429 -0.9913
22002SOL     OW68258  10.338   0.441   1.248 -0.3978 -0.3633 -0.5433
22002SOL    HW168259  10.277   0.370   1.268 -1.4417  0.7202  0.3274
22002SOL    HW268260  10.395   0.446   1.324  0.8461 -1.3969 -1.3729
22003SOL     OW68261  10.106   6.880   8.696  0.8239  0.3638 -0.2354
22003SOL    HW168262  10.184   6.910   8.741  1.0489  0.3783 -0.6281
22003SOL    HW268263  10.098   6.787   8.719  0.8252  0.4200 -0.0108
22004SOL     OW68264   0.250  10.309  10.078 -0.1774 -0.5749 -0.0797
22004SOL    HW168265   0.280  10.326   9.989  0.3689  0.3085  0.2651
22004SOL    HW268266   0.319  10.255  10.117  0.4037  0.4524  0.3345
22005SOL     OW68267   9.292   3.698   3.608  0.2274  0.0633 -0.3119
22005SOL    HW168268   9.199   3.710   3.627  0.6517  0.1706  2.0174
22005SOL    HW268269   9.296   3.689   3.513 -1.9194  2.2917 -0.7336
22006SOL     OW68270   3.125   0.848   4.887  0.2108  0.3957  0.2575
22006SOL    HW168271   3.074   0.792   4.945  0.0835  0.0088 -0.2139
22006SOL    HW268272   3.168   0.912   4.944  0.0208  0.0731  0.7568
22007SOL     OW68273   6.188   5.122   5.015  0.0637  0.0316 -0.1563
22007SOL    HW168274   6.094   5.109   5.027  0.3026 -1.7170  0.1259
22007SOL    HW268275   6.226   5.107   5.102  0.5198  2.1566  0.0724
22008SOL     OW68276   1.114   6.338   2.342 -1.1461 -0.1732  0.1870
22008SOL    HW168277   1.033   6.292   2.369 -0.8109 -1.5214 -0.9767
22008SOL    HW268278   1.114   6.418   2.394 -1.5592 -1.6669  2.6709
22009SOL     OW68279   5.795   5.213   7.612  0.1608  0.0904  0.2583
22009SOL    HW168280   5.855   5.248   7.546  0.7679  0.6601  1.0946
22009SOL    HW268281   5.753   5.290   7.650  0.3478 -0.1795  1.0305
22010SOL     OW68282   6.407   7.219   2.552  0.5432  0.2987  0.0985
22010SOL    HW168283   6.439   7.170   2.628 -3.1636 -1.6508  0.6246
22010SOL    HW268284   6.401   7.309   2.584 -0.0169 -0.3038  1.8317
22011SOL     OW68285  10.436   9.208   5.292 -0.6258 -0.3383  0.1381
22011SOL    HW168286  10.478   9.266   5.227 -0.6024 -1.1279 -0.5690
22011SOL    HW268287  10.342   9.223   5.280 -0.6180 -0.3926 -0.0009
22012SOL     OW68288   1.258   7.556   6.345  0.0911 -0.1119 -0.1094
22012SOL    HW168289   1.291   7.589   6.262 -0.2872  0.3188 -0.0935
22012SOL    HW268290   1.239   7.634   6.396  0.3590 -0.3718  0.4011
22013SOL     OW68291   9.612   2.869   6.530 -0.6561  0.3614  0.2488
22013SOL    HW168292   9.531   2.851   6.577  0.2909  0.7653  2.1271
22013SOL    HW268293   9.659   2.785   6.530  1.1709  1.2187  3.8302
22014SOL     OW68294   9.401   0.499   8.584  0.5463  0.4205  0.5886
22014SOL    HW168295   9.410   0.452   8.502  0.3580  0.3026  0.6349
22014SOL    HW268296   9.486   0.491   8.626  0.1201 -1.0548  1.2191
22015SOL     OW68297   0.022   5.350   3.210 -0.2797  0.2327  0.3790
22015SOL    HW168298  -0.024   5.268   3.193 -0.4564  0.8001 -2.2560
22015SOL    HW268299   0.071   5.334   3.291 -0.6357 -2.2962  0.1630
22016SOL     OW68300   1.074   5.021   2.331  0.2791  0.1211  0.3583
22016SOL    HW168301   1.163   5.027   2.297  0.7131  0.3852  1.4990
22016SOL    HW268302   1.072   5.082   2.405 -1.2670  1.1737 -0.4891
22017SOL     OW68303   3.944   2.769   3.884  0.0239 -0.5923  0.0893
22017SOL    HW168304   3.929   2.849   3.935  0.3908 -0.2572 -0.3258
22017SOL    HW268305   3.857   2.730   3.876 -0.4179  0.5473 -0.9996
22018SOL     OW68306   4.222   0.044   2.092 -0.3291 -0.4449  0.9526
22018SOL    HW168307   4.231  -0.051   2.083 -0.0838 -0.3282 -0.2402
22018SOL    HW268308   4.297   0.070   2.145  1.1766 -0.6292 -0.9473
22019SOL     OW68309   2.516   3.498   3.138 -0.1401  0.2112 -0.0114
22019SOL    HW168310   2.607   3.498   3.168 -0.4827 -0.4546  1.0763
22019SOL    HW268311   2.505   3.413   3.094 -0.4598 -0.0617  0.5890
22020SOL     OW68312   2.709   8.104   7.426 -0.0089  0.2094  0.3893
22020SOL    HW168313   2.745   8.190   7.448 -0.0600  0.3331 -0.0073
22020SOL    HW268314   2.664   8.076   7.505 -2.1148  1.6428 -0.2370
22021SOL     OW68315   6.359   7.570   5.380  0.3902 -0.0836  0.4812
22021SOL    HW168316   6.445   7.571   5.338  0.1523  0.5553 -0.0170
22021SOL    HW268317   6.301   7.529   5.315  0.5799 -1.9211  1.4020
22022SOL     OW68318   8.759   1.065   2.042  0.3734 -0.2067  0.7433
22022SOL    HW168319   8.827   1.020   1.992 -1.3025  1.2931 -3.2425
22022SOL    HW268320   8.716   0.996   2.092  0.6291 -2.3190 -1.7748
22023SOL     OW68321   2.530   0.311   1.786  0.1922 -0.2921  0.6128
22023SOL    HW168322   2.567   0.227   1.759  2.9106  0.6716  1.0613
22023SOL    HW268323   2.483   0.292   1.867 -0.4563 -1.6043 -0.0454
22024SOL     OW68324   2.306  10.020   4.131  0.5159 -0.2056  0.4005
22024SOL    HW168325   2.334   9.961   4.201 -1.6194  0.3168  1.7829
22024SOL    HW268326   2.231  10.067   4.167 -0.5947  0.2067 -2.1866
22025SOL     OW68327   8.912   6.479   5.965 -0.0795  0.0636  0.0866
22025SOL    HW168328   8.868   6.394   5.972  1.3828 -0.7154  0.0584
22025SOL    HW268329   8.982   6.476   6.030 -1.6760  2.3736  2.1560
22026SOL     OW68330   9.156   5.219   8.664  0.1171  0.0209 -0.4529
22026SOL    HW168331   9.199   5.303   8.677 -0.4891  0.3556 -0.5851
22026SOL    HW268332   9.085   5.237   8.602 -0.0780 -0.5662 -0.4065
22027SOL     OW68333   3.098   3.807   5.895 -0.0547  0.1157  0.0624
22027SOL    HW168334   3.193   3.812   5.881  0.0627  0.6858  1.0024
22027SOL    HW268335   3.086   3.729   5.949 -0.1889 -0.2605 -0.4948
22028SOL     OW68336   7.730   4.286   9.971 -0.1063  0.2582  0.5331
22028SOL    HW168337   7.678   4.366   9.977 -0.8046 -0.2938  2.2668
22028SOL    HW268338   7.777   4.282  10.054  1.5115 -0.1060 -0.3486
22029SOL     OW68339   3.225   7.931   7.697  0.7753  0.2954  0.8779
22029SOL    HW168340   3.251   7.859   7.754  2.1043  0.9176  1.0853
22029SOL    HW268341   3.276   7.919   7.617  0.9927  0.9804  0.9044
22030SOL     OW68342   9.976  10.500   0.954 -0.0833  0.1478  0.1065
22030SOL    HW168343  10.016  10.584   0.976  1.2743 -0.4089 -0.1297
22030SOL    HW268344   9.965  10.502   0.859  1.1460 -0.4034 -0.0764
22031SOL     OW68345   1.720   4.045  10.370  0.2200 -0.0855 -0.1891
22031SOL    HW168346   1.781   4.041  10.443  0.8428 -2.1363 -0.7803
22031SOL    HW268347   1.688   4.136  10.371 -0.5031 -0.2309  3.1699
22032SOL     OW68348   9.614   0.452   2.327 -0.2589 -0.5898  1.0261
22032SOL    HW168349   9.555   0.473   2.255  0.2581 -1.3634  0.3595
22032SOL    HW268350   9.662   0.533   2.345 -0.6006 -0.3166  0.7005
22033SOL     OW68351   3.535   1.701   4.734  0.0261  0.1118 -0.2972
22033SOL    HW168352   3.621   1.739   4.718  0.6974 -1.0386  0.4438
22033SOL    HW268353   3.551   1.608   4.743 -1.1169  0.0116  1.0460
22034SOL     OW68354   3.485   1.029  10.486  0.5947 -0.2789  0.4855
22034SOL    HW168355   3.520   1.029  10.575  1.7912 -1.0289  0.0477
22034SOL    HW268356   3.430   0.951  10.481  0.2282 -0.0351  0.6678
22035SOL     OW68357   6.904   1.437   6.088 -0.4948  0.4196  0.2604
22035SOL    HW168358   6.995   1.424   6.062 -0.8976  0.0668 -1.0593
22035SOL    HW268359   6.860   1.466   6.008 -1.8321 -0.7883  0.5222
22036SOL     OW68360   9.274   8.967   3.833  0.0178 -0.6068 -0.0198
22036SOL    HW168361   9.338   8.973   3.763 -0.6503 -2.4085 -0.8481
22036SOL    HW268362   9.268   9.056   3.868  1.2215  0.0854 -1.4643
22037SOL     OW68363   5.010  10.055   8.800  0.0578  0.3654 -0.0043
22037SOL    HW168364   4.935  10.011   8.840  0.7867 -0.0744  0.9338
22037SOL    HW268365   5.082   9.993   8.810  0.6728  1.0052 -0.3732
22038SOL     OW68366   0.312   7.757   7.109  0.3483 -0.0585  0.2145
22038SOL    HW168367   0.388   7.726   7.159 -0.5237  0.4924  1.9579
22038SOL    HW268368   0.259   7.805   7.173 -1.6061 -0.6353 -0.9003
22039SOL     OW68369   0.418   4.072   5.860 -0.7011 -0.1900  0.1495
22039SOL    HW168370   0.371   4.083   5.943  0.2100  1.9669  0.4362
22039SOL    HW268371   0.442   3.979   5.859 -2.2096 -0.6468  1.4658
22040SOL     OW68372   0.657   0.165   6.927  0.2827 -0.2347  0.1175
22040SOL    HW168373   0.564   0.169   6.906  0.2536 -0.8235  0.1270
22040SOL    HW268374   0.690   0.253   6.908 -0.3301  0.0559  0.3947
22041SOL     OW68375   2.607  10.367   2.577 -0.1228 -0.3186  0.5897
22041SOL    HW168376   2.663  10.444   2.585 -1.3421  0.4063  2.8056
22041SOL    HW268377   2.561  10.361   2.660 -1.4926 -2.3467 -0.2250
22042SOL     OW68378   4.738   0.464   7.517  0.5243 -0.0353 -0.4799
22042SOL    HW168379   4.787   0.394   7.560  0.3117  0.1476  0.0717
22042SOL    HW268380   4.800   0.537   7.511  0.6581 -0.1772 -0.7896
22043SOL     OW68381   8.093   9.749   4.164  0.5410 -0.2829  0.5990
22043SOL    HW168382   8.124   9.798   4.088 -0.6254 -0.3005  0.1011
22043SOL    HW268383   8.100   9.811   4.237  0.4286  0.1553  0.2394
22044SOL     OW68384   7.382   9.234   3.898  0.5902  0.3396  0.2830
22044SOL    HW168385   7.422   9.213   3.814  0.5990  1.5050 -0.0206
22044SOL    HW268386   7.354   9.149   3.933 -1.0672 -0.0104 -1.7103
22045SOL     OW68387   9.778   7.909   1.392  0.0122 -0.1846 -0.0233
22045SOL    HW168388   9.802   7.996   1.361 -0.7993 -0.1708 -0.6262
22045SOL    HW268389   9.860   7.859   1.389  0.6242  0.7144  0.9189
22046SOL     OW68390   3.550   4.052   1.866  0.3535  0.0511 -0.1191
22046SOL    HW168391   3.561   4.006   1.950  0.0505  0.2302  0.0198
22046SOL    HW268392   3.600   4.133   1.877 -0.7798  0.7073  0.3887
22047SOL     OW68393   7.575   4.071  10.242 -0.5817 -0.2780  0.1198
22047SOL    HW168394   7.501   4.014  10.264 -0.4023  0.1792  2.1346
22047SOL    HW268395   7.561   4.150  10.294  0.4992  0.4868 -0.7016
22048SOL     OW68396   5.054   9.900   9.196 -0.0782 -0.3955  0.5923
22048SOL    HW168397   5.136   9.856   9.177  0.3534  0.1527  1.1227
22048SOL    HW268398   5.078   9.970   9.258 -0.9025 -0.0911  0.5854
22049SOL     OW68399   2.653   6.506   0.347  0.5192  0.0414 -0.2015
22049SOL    HW168400   2.673   6.462   0.264 -1.6880 -3.7778  1.0287
22049SOL    HW268401   2.699   6.453   0.413  0.2059  1.4763  1.2129
22050SOL     OW68402   0.988   6.623   9.871  0.3261  0.1001 -0.2605
22050SOL    HW168403   1.009   6.530   9.861  0.9524  0.3164 -1.0416
22050SOL    HW268404   0.922   6.625   9.940  1.5174 -0.7673  0.9562
22051SOL     OW68405   3.498   0.510   1.552 -0.6438 -0.5295  0.1677
22051SOL    HW168406   3.591   0.498   1.538 -0.8610 -2.0880 -0.0856
22051SOL    HW268407   3.492   0.545   1.641  0.1312 -1.6107  0.6699
22052SOL     OW68408   9.260   5.920   1.939  0.5470  0.0930  0.6306
22052SOL    HW168409   9.198   5.855   1.972 -0.8947  0.7703 -0.6115
22052SOL    HW268410   9.291   5.884   1.856  2.1659 -0.4095  1.4026
22053SOL     OW68411   2.149   4.626   8.655  0.0171 -0.3850 -0.1660
22053SOL    HW168412   2.070   4.572   8.650 -1.0639  1.2416 -2.3525
22053SOL    HW268413   2.139   4.676   8.736 -1.3680 -0.0091 -0.5380
22054SOL     OW68414   2.393   9.717   1.324 -0.4457  0.0455  0.0753
22054SOL    HW168415   2.383   9.738   1.417 -0.2838 -0.1196  0.1288
22054SOL    HW268416   2.487   9.709   1.310 -0.5360 -1.4600  0.2337
22055SOL     OW68417   8.404   8.580   8.686 -0.3207  0.4763  0.2779
22055SOL    HW168418   8.338   8.511   8.681  0.5135 -0.3441  0.3717
22055SOL    HW268419   8.450   8.563   8.768  0.7821  0.3195 -0.3600
22056SOL     OW68420   0.107   0.920   0.836 -0.5620 -0.1001  0.2096
22056SOL    HW168421   0.196   0.909   0.868 -0.3052  0.8251 -0.1885
22056SOL    HW268422   0.061   0.966   0.906  0.1245  2.3725 -0.8566
22057SOL     OW68423   4.315   5.094   1.723  0.4908 -0.0845  0.2145
22057SOL    HW168424   4.364   5.174   1.740  0.7915 -0.4147  0.9593
22057SOL    HW268425   4.332   5.038   1.799 -0.1960 -0.6215 -0.0045
22058SOL     OW68426   4.133   3.314   3.586 -0.0356  0.3847 -0.1892
22058SOL    HW168427   4.210   3.356   3.624  1.5430  0.0987 -2.8158
22058SOL    HW268428   4.162   3.283   3.500 -2.6392 -1.2587 -0.5993
22059SOL     OW68429  10.545   7.028   7.198 -0.4368 -0.1326 -1.0192
22059SOL    HW168430  10.605   6.994   7.132  0.1985  0.9513 -1.0179
22059SOL    HW268431  10.459   6.993   7.173  0.3225 -2.6744 -0.3569
22060SOL     OW68432   3.495   8.984   4.514  0.0087  0.1003  0.4042
22060SOL    HW168433   3.468   8.896   4.539  0.3726 -0.1649 -0.1251
22060SOL    HW268434   3.490   9.035   4.595 -0.0956 -0.4321  0.7338
22061SOL     OW68435   8.019   7.151   5.298 -0.1755 -0.2874 -0.8747
22061SOL    HW168436   8.082   7.176   5.366 -0.0260  0.9000 -1.4154
22061SOL    HW268437   8.067   7.090   5.242  0.2003 -0.0980 -0.7642
22062SOL     OW68438   6.500   5.701   3.318 -0.0419 -0.2490  0.1172
22062SOL    HW168439   6.510   5.606   3.325 -0.9552 -0.3160  0.7450
22062SOL    HW268440   6.479   5.716   3.226  1.2306 -0.5268 -0.2368
22063SOL     OW68441   2.270   4.223   5.695  0.1417  0.6402 -0.8234
22063SOL    HW168442   2.336   4.162   5.661  1.6108  0.9972  1.2065
22063SOL    HW268443   2.189   4.196   5.652  0.8535 -2.2715 -0.6008
22064SOL     OW68444   9.118   8.622   6.055 -0.2889  0.1831 -0.3332
22064SOL    HW168445   9.147   8.541   6.011 -0.4490  0.3558 -0.7591
22064SOL    HW268446   9.101   8.595   6.145  0.3794 -0.1006 -0.2874
22065SOL     OW68447   2.727   0.326   3.990 -0.3896  0.3235  0.2347
22065SOL    HW168448   2.634   0.333   3.968 -0.0018 -0.0431 -1.7925
22065SOL    HW268449   2.751   0.237   3.962  0.3148 -0.0255  1.8523
22066SOL     OW68450   9.646   6.900   4.658  0.5842  0.2283 -0.1233
22066SOL    HW168451   9.587   6.897   4.734  1.4426 -0.9290  0.5292
22066SOL    HW268452   9.673   6.809   4.645 -1.0797  0.0120 -3.1043
22067SOL     OW68453   7.974   4.422   5.836 -0.1702  0.1503 -0.6195
22067SOL    HW168454   8.011   4.380   5.914 -0.8363  1.5443  0.4961
22067SOL    HW268455   7.882   4.396   5.836 -0.4006  0.9277 -0.3597
22068SOL     OW68456  10.099   5.711   2.450 -0.1927 -0.5108 -0.0547
22068SOL    HW168457  10.115   5.797   2.489 -0.7865 -0.4281  0.0091
22068SOL    HW268458  10.005   5.699   2.456 -0.1838 -0.9013 -0.6288
22069SOL     OW68459   6.271   1.515   7.656  0.0335  0.1363  0.4684
22069SOL    HW168460   6.365   1.516   7.637 -0.1559 -0.5091 -0.5546
22069SOL    HW268461   6.230   1.553   7.579 -0.5231  1.0179  1.1772
22070SOL     OW68462   3.513   1.105   5.150 -0.0541 -0.0789  0.1032
22070SOL    HW168463   3.595   1.078   5.192  0.2810  1.2665  0.3660
22070SOL    HW268464   3.490   1.187   5.193 -2.1044 -0.9204  0.7480
22071SOL     OW68465   8.128   6.261  10.553 -0.0121  0.2983  0.1171
22071SOL    HW168466   8.208   6.293  10.594  0.7063 -0.3258 -0.7644
22071SOL    HW268467   8.137   6.166  10.554  0.0215  0.2523 -1.4215
22072SOL     OW68468   9.837  10.235   0.933 -0.1808  0.5001 -0.3522
22072SOL    HW168469   9.752  10.207   0.968  0.1950 -0.1034  0.0793
22072SOL    HW268470   9.836  10.330   0.943 -0.0365  0.3441  1.4385
22073SOL     OW68471   6.319  10.021  10.353  0.0988 -0.0027  0.7425
22073SOL    HW168472   6.323   9.925  10.350 -1.2877 -0.0510 -0.5067
22073SOL    HW268473   6.226  10.041  10.357  0.2598  1.3015 -0.8492
22074SOL     OW68474   4.346  10.500   0.124 -0.1767 -0.4934 -0.1366
22074SOL    HW168475   4.391  10.429   0.077  0.8060  0.8280 -1.2708
22074SOL    HW268476   4.314  10.557   0.055 -0.4011  0.5011  0.7720
22075SOL     OW68477   8.991   1.035   4.022  0.1374 -0.0357  0.0407
22075SOL    HW168478   8.950   0.989   4.095 -0.6342 -2.1811 -1.6252
22075SOL    HW268479   8.918   1.073   3.973  0.5091  0.1666 -0.3713
22076SOL     OW68480   6.465   8.727   7.663 -0.1694  0.2462 -0.1107
22076SOL    HW168481   6.486   8.635   7.648 -0.4396  0.1734 -0.0322
22076SOL    HW268482   6.531   8.757   7.726 -0.7672 -0.1848  0.7228
22077SOL     OW68483   4.715   0.896   2.671 -0.2979 -0.1598  0.3546
22077SOL    HW168484   4.747   0.918   2.583 -0.3004 -1.0218  0.1273
22077SOL    HW268485   4.650   0.963   2.690  0.7394  0.8879  0.3058
22078SOL     OW68486   3.793   3.398   5.398 -0.6574  0.1853  0.3215
22078SOL    HW168487   3.853   3.472   5.397 -1.0855  0.6570 -2.7372
22078SOL    HW268488   3.712   3.433   5.435  0.0086  0.3922  1.6238
22079SOL     OW68489   5.073   0.365   0.213 -0.8154 -0.7633  0.2841
22079SOL    HW168490   5.167   0.379   0.225 -0.8926  2.0807 -1.4132
22079SOL    HW268491   5.033   0.393   0.295 -0.2769 -0.5555  0.4763
22080SOL     OW68492   3.443  10.343   5.768  0.1850  0.3030  0.1610
22080SOL    HW168493   3.519  10.290   5.746  1.1204  1.2952  0.9402
22080SOL    HW268494   3.465  10.431   5.738 -1.6702  0.1720 -1.8563
22081SOL     OW68495   6.817   1.779   1.011  0.0690 -0.0646 -0.0481
22081SOL    HW168496   6.877   1.727   1.065  0.5027 -1.2092 -1.5814
22081SOL    HW268497   6.747   1.805   1.072 -0.7585 -3.3928  0.6010
22082SOL     OW68498   5.623   6.798   8.828  0.9907  0.5994 -0.2769
22082SOL    HW168499   5.593   6.869   8.884  2.3014 -0.4667  1.9172
22082SOL    HW268500   5.717   6.791   8.845  1.3484 -0.1832 -2.1911
22083SOL     OW68501   0.048   1.372   9.465  0.1955 -0.0070  0.3136
22083SOL    HW168502   0.044   1.467   9.455  2.3281  0.1219  0.3024
22083SOL    HW268503   0.032   1.338   9.377 -0.6275  0.3257  0.3269
22084SOL     OW68504   1.456   8.534   7.598 -0.0053  0.1256  0.0345
22084SOL    HW168505   1.441   8.597   7.668 -0.2949 -0.6548  0.6901
22084SOL    HW268506   1.405   8.457   7.623 -0.1974 -0.1323 -1.0890
22085SOL     OW68507   3.773   5.558   6.869 -0.0260  0.0546  0.0539
22085SOL    HW168508   3.745   5.562   6.960  2.5200 -0.3344  0.9239
22085SOL    HW268509   3.756   5.646   6.835  1.6172  1.0900  1.7740
22086SOL     OW68510   6.156  10.300   3.098 -0.4288 -0.1716  0.1922
22086SOL    HW168511   6.236  10.352   3.106  0.4856 -1.0138 -2.4939
22086SOL    HW268512   6.166  10.232   3.165  0.2177  0.7513  1.0788
22087SOL     OW68513   9.618   2.797   8.548 -0.3641  0.7413  0.5363
22087SOL    HW168514   9.528   2.787   8.518 -0.6391  0.4933  1.4202
22087SOL    HW268515   9.614   2.867   8.613  0.6407  3.1119 -1.7220
22088SOL     OW68516   2.420   6.329   0.801  0.3108  0.7223 -0.3618
22088SOL    HW168517   2.412   6.311   0.894  1.2483  1.4170 -0.1283
22088SOL    HW268518   2.449   6.247   0.762  0.3896  0.5637  0.0321
22089SOL     OW68519   7.061   8.175  10.352  0.3140  0.1102  0.0773
22089SOL    HW168520   7.155   8.187  10.345  0.4894 -0.8539  0.5439
22089SOL    HW268521   7.049   8.080  10.353 -0.5999  0.2191  0.7315
22090SOL     OW68522  10.567   3.757   2.092 -0.2853 -0.1815  0.3787
22090SOL    HW168523  10.603   3.843   2.113  1.9799 -0.7306 -0.8712
22090SOL    HW268524  10.627   3.695   2.135 -0.2695 -1.1362 -0.9413
22091SOL     OW68525   7.268   2.249   6.651 -0.3602 -0.1529 -0.1617
22091SOL    HW168526   7.199   2.315   6.650  0.6308  0.9519  1.1028
22091SOL    HW268527   7.229   2.173   6.695 -0.7176  0.5176  0.6940
22092SOL     OW68528   7.753   4.406   5.482 -0.1694 -0.1588  0.2551
22092SOL    HW168529   7.699   4.340   5.525  2.1336 -2.4751 -0.1190
22092SOL    HW268530   7.748   4.384   5.388  0.9418 -0.1091  0.1677
22093SOL     OW68531   1.114   5.238   7.365  0.0427  0.4455 -0.1841
22093SOL    HW168532   1.078   5.234   7.453  0.5769 -0.5030  0.0059
22093SOL    HW268533   1.159   5.322   7.361  1.7310 -0.3387  1.1586
22094SOL     OW68534   0.373   9.792   2.968 -0.8535 -0.0014 -0.3920
22094SOL    HW168535   0.306   9.782   2.900 -2.3244  0.7290  0.8741
22094SOL    HW268536   0.328   9.769   3.050 -0.7241  3.8139  0.9785
22095SOL     OW68537   3.739   0.851   9.860 -0.3872 -0.1592 -0.1826
22095SOL    HW168538   3.809   0.789   9.879 -0.7279 -0.9253 -1.3412
22095SOL    HW268539   3.785   0.934   9.844  0.1797 -0.4213  0.0490
22096SOL     OW68540   4.062  10.437   8.239  0.0020  0.1877 -0.2831
22096SOL    HW168541   4.055  10.466   8.330  0.6653 -0.0136 -0.1593
22096SOL    HW268542   4.058  10.517   8.187 -0.0113  0.3339 -0.0572
22097SOL     OW68543   4.829   1.572   2.997 -0.1056 -0.1130  0.2450
22097SOL    HW168544   4.761   1.520   2.954  1.8532 -0.8565 -2.1938
22097SOL    HW268545   4.800   1.663   2.985 -0.2226 -0.3600 -1.7325
22098SOL     OW68546   8.703   7.019   4.291 -0.3284  0.4289  0.1254
22098SOL    HW168547   8.677   7.108   4.314 -1.2229 -0.1059  1.3286
22098SOL    HW268548   8.650   6.963   4.348 -0.5361 -0.9167 -1.3269
22099SOL     OW68549   2.026   6.696   3.518 -0.1031  0.8465  0.3050
22099SOL    HW168550   2.076   6.615   3.506  2.9287  2.2846  1.9016
22099SOL    HW268551   1.948   6.670   3.567 -0.6605 -1.4248 -1.6430
22100SOL     OW68552   2.883   4.381   8.814  0.1381  0.6507  0.1299
22100SOL    HW168553   2.927   4.316   8.759  1.5649  1.9035 -0.2661
22100SOL    HW268554   2.794   4.348   8.824  0.8362 -1.4132  0.0233
22101SOL     OW68555   9.386   4.279   4.202  0.2113 -0.4968  0.0408
22101SOL    HW168556   9.380   4.201   4.259  2.3569 -0.6808  0.0674
22101SOL    HW268557   9.477   4.307   4.209 -0.7406  2.7457  0.9351
22102SOL     OW68558   3.127   3.391   2.993 -0.4890  0.0133  0.8310
22102SOL    HW168559   3.214   3.366   3.025 -1.1676 -1.0040  1.9704
22102SOL    HW268560   3.114   3.338   2.915  0.1364  0.6222  0.2916
22103SOL     OW68561   4.003   5.950   1.199  0.7412 -0.1582 -0.5147
22103SOL    HW168562   3.994   5.912   1.286  0.0596 -1.0578 -0.9656
22103SOL    HW268563   4.088   5.995   1.202  0.4942  0.2774  0.7688
22104SOL     OW68564   0.564  10.090   4.153  0.3375 -0.0390  0.2573
22104SOL    HW168565   0.620  10.151   4.105  0.2938 -0.3189 -0.1456
22104SOL    HW268566   0.475  10.114   4.127  0.2711  0.3022  0.7760
22105SOL     OW68567   3.445   1.207   3.782  0.0750  0.0621 -0.5008
22105SOL    HW168568   3.351   1.223   3.792  0.3044  0.9602  0.3871
22105SOL    HW268569   3.482   1.225   3.869  0.8876 -1.6708 -0.4540
22106SOL     OW68570   1.161   7.750   7.772 -0.7794 -0.0922  0.1819
22106SOL    HW168571   1.151   7.657   7.756 -0.7812 -0.3493  1.5579
22106SOL    HW268572   1.255   7.764   7.778 -0.7939 -0.0853  0.4036
22107SOL     OW68573   5.423   7.012   3.812 -0.0305 -0.2777 -0.2742
22107SOL    HW168574   5.429   7.086   3.872  0.4243  0.7226 -1.5222
22107SOL    HW268575   5.330   7.005   3.792 -0.0579  0.0728 -0.2782
22108SOL     OW68576   4.095   9.751   7.334  0.7984 -0.0163 -0.4470
22108SOL    HW168577   4.151   9.703   7.395 -2.0593 -1.6105  1.1430
22108SOL    HW268578   4.057   9.684   7.278  0.5717  1.0255 -1.5766
22109SOL     OW68579   6.708   7.843   0.288 -0.3367  0.4884 -0.5617
22109SOL    HW168580   6.702   7.898   0.209 -0.5022 -0.8684 -1.5318
22109SOL    HW268581   6.692   7.754   0.256  0.9787 -0.2745  0.7733
22110SOL     OW68582   1.661   6.648   1.479  0.1971  0.1071 -0.0245
22110SOL    HW168583   1.591   6.643   1.544 -1.4347 -0.9713 -1.7306
22110SOL    HW268584   1.699   6.560   1.478  0.6401  0.2943 -0.0957
22111SOL     OW68585   6.102   0.177   8.261  0.1934  0.6218 -0.9482
22111SOL    HW168586   6.079   0.085   8.263  1.4066  0.3029  0.3805
22111SOL    HW268587   6.068   0.209   8.177 -0.5658 -0.9304 -1.2625
22112SOL     OW68588   1.763   7.850   1.597  0.4300  0.1205  0.2216
22112SOL    HW168589   1.843   7.821   1.641 -0.9531 -1.7994  1.6674
22112SOL    HW268590   1.697   7.851   1.666 -1.5997 -1.9281 -1.5037
22113SOL     OW68591   3.670   6.249   1.029 -0.2640 -0.1908  0.2779
22113SOL    HW168592   3.700   6.245   1.120 -0.1118  0.6536  0.2734
22113SOL    HW268593   3.582   6.285   1.034 -0.9694 -1.8379  0.2166
22114SOL     OW68594   3.295   0.013   6.764 -0.1573 -0.0550 -0.3005
22114SOL    HW168595   3.336   0.036   6.848  1.5571 -1.0230 -0.8152
22114SOL    HW268596   3.289   0.096   6.717  2.3923  0.0009 -0.6556
22115SOL     OW68597   1.653   2.612   5.850  0.0916  0.0916 -0.4951
22115SOL    HW168598   1.687   2.620   5.761  2.1636  0.9657  0.3151
22115SOL    HW268599   1.625   2.700   5.873  2.0544  0.4994  0.5929
22116SOL     OW68600   5.783   2.012   5.438  0.1744  0.0428 -0.1892
22116SOL    HW168601   5.875   2.014   5.464  0.2458  0.9357 -0.4905
22116SOL    HW268602   5.773   1.929   5.391  0.5202 -0.6350  0.9025
22117SOL     OW68603   4.599  10.371   8.265 -0.5202 -0.1129  0.5854
22117SOL    HW168604   4.673  10.426   8.239 -1.8400  1.3084 -0.2881
22117SOL    HW268605   4.622  10.340   8.353  0.6010  1.2159  0.7923
22118SOL     OW68606   5.964   6.010   7.950 -0.0874  0.4144  0.5202
22118SOL    HW168607   6.058   6.021   7.938 -0.5556  3.3768 -1.6793
22118SOL    HW268608   5.930   6.100   7.956 -2.7458 -0.5693  1.6288
22119SOL     OW68609   9.736   0.054   8.307 -0.4680  0.1753  0.1102
22119SOL    HW168610   9.663   0.019   8.357  1.3820 -2.3947  1.2251
22119SOL    HW268611   9.734   0.005   8.224  1.0027 -1.3080  0.8987
22120SOL     OW68612   8.767   9.863   4.004  0.0822  0.0207 -0.3040
22120SOL    HW168613   8.724   9.791   3.958  0.2551 -0.1516 -0.1951
22120SOL    HW268614   8.783   9.830   4.092  0.8547 -0.0854 -0.4772
22121SOL     OW68615   6.490   3.102   1.942  0.2119 -0.2196 -0.1050
22121SOL    HW168616   6.574   3.147   1.935 -0.0926  0.5170  0.7633
22121SOL    HW268617   6.511   3.009   1.934  1.1861 -0.0810  0.6539
22122SOL     OW68618   6.692   3.260   3.158 -0.2883 -0.0432 -0.3804
22122SOL    HW168619   6.649   3.177   3.139 -1.2228  0.8832 -2.8265
22122SOL    HW268620   6.782   3.237   3.182 -0.6175 -1.7548 -0.6899
22123SOL     OW68621   1.017   3.794   9.401  0.1051  0.1211  0.2881
22123SOL    HW168622   1.102   3.815   9.362 -0.1544 -1.2352 -1.1367
22123SOL    HW268623   1.036   3.772   9.492  1.2141  0.2766  0.1004
22124SOL     OW68624   0.978  10.135   9.590 -0.5818 -0.1922 -0.3983
22124SOL    HW168625   1.062  10.117   9.548 -0.5502  0.2691 -0.5435
22124SOL    HW268626   0.980  10.230   9.607 -1.0224 -0.1995 -0.2941
22125SOL     OW68627   3.969   5.852   7.065 -0.0506 -0.3942  0.2130
22125SOL    HW168628   3.985   5.810   6.981 -1.0003  0.5333 -0.4528
22125SOL    HW268629   3.886   5.816   7.096  0.6667 -1.3096  1.1506
22126SOL     OW68630   8.564   7.288  10.584 -0.0550  0.3068 -0.5336
22126SOL    HW168631   8.614   7.207  10.591  0.1403  0.4274 -0.5124
22126SOL    HW268632   8.478   7.261  10.553 -1.1917 -0.3829  2.7765
22127SOL     OW68633   1.329   6.761   1.842 -0.3063 -0.1500  0.1024
22127SOL    HW168634   1.310   6.842   1.889 -1.0669  0.3951 -1.1171
22127SOL    HW268635   1.306   6.692   1.905 -0.1613  0.5587  0.9583
22128SOL     OW68636   3.999   4.951   5.447  0.4897  0.1685 -0.2616
22128SOL    HW168637   4.047   5.024   5.485  1.3178  0.8920 -2.5323
22128SOL    HW268638   3.983   4.892   5.520  1.3438  1.7792  1.3032
22129SOL     OW68639   3.344   4.627   7.089  0.1382  0.1281 -0.3219
22129SOL    HW168640   3.276   4.560   7.086  0.6736 -0.3973 -1.4122
22129SOL    HW268641   3.426   4.578   7.085  0.5504  0.8175 -0.4417
22130SOL     OW68642   1.010   1.249   2.917 -0.0507  0.1533  0.0940
22130SOL    HW168643   1.060   1.313   2.866 -1.5121 -0.5177 -2.3571
22130SOL    HW268644   1.070   1.175   2.929  1.0982  1.2603  1.5144
22131SOL     OW68645   4.276   9.279   3.817  0.3812  0.2910 -0.4362
22131SOL    HW168646   4.362   9.281   3.858  0.8428  1.1173 -1.4151
22131SOL    HW268647   4.293   9.292   3.723 -0.7693 -0.0288 -0.7121
22132SOL     OW68648   9.495   7.183  10.182 -0.3360  0.9020 -0.2665
22132SOL    HW168649   9.507   7.278  10.176  0.4858  0.7463 -1.7467
22132SOL    HW268650   9.580   7.150  10.211 -0.9159  0.6798  1.2284
22133SOL     OW68651   9.794   5.460   8.712 -0.0033 -0.0182  0.2003
22133SOL    HW168652   9.774   5.371   8.741  0.8909  0.0415  1.0403
22133SOL    HW268653   9.733   5.516   8.759  0.2005 -0.0842  0.5399
22134SOL     OW68654   4.924   5.401   1.943  0.3508 -0.6991  0.4889
22134SOL    HW168655   4.961   5.440   1.864  0.6426 -0.2034  0.8660
22134SOL    HW268656   4.834   5.434   1.945  0.2920 -0.8441  0.2769
22135SOL     OW68657   9.950   2.429   8.968  0.9256  0.4688  0.4628
22135SOL    HW168658   9.963   2.346   9.014 -0.2615 -0.0020 -0.0030
22135SOL    HW268659   9.861   2.456   8.991  0.7263  0.8095 -0.6351
22136SOL     OW68660   5.711   3.481  10.588 -0.2112 -0.0394 -0.8041
22136SOL    HW168661   5.708   3.387  10.573  0.7498 -0.1195 -0.5679
22136SOL    HW268662   5.803   3.505  10.575 -0.7562  1.2122 -2.8662
22137SOL     OW68663   7.657   4.907   5.285 -0.0814 -0.4767  0.3315
22137SOL    HW168664   7.751   4.907   5.266 -0.0471  1.0295  0.3392
22137SOL    HW268665   7.642   4.825   5.332  0.7323 -1.9553 -1.8528
22138SOL     OW68666   5.409   4.193  10.592  0.0863 -0.1083  0.0624
22138SOL    HW168667   5.377   4.174  10.680 -0.7460  3.1161  0.6127
22138SOL    HW268668   5.495   4.233  10.607 -0.0317  0.4049 -0.5732
22139SOL     OW68669   2.935   1.995   7.466 -0.0333  0.1488  0.4939
22139SOL    HW168670   3.011   1.941   7.446  0.3646  0.7288  0.4251
22139SOL    HW268671   2.950   2.024   7.557 -0.9230 -0.9761  1.0168
22140SOL     OW68672   9.196   7.780   4.971 -0.2246  0.1090  0.4424
22140SOL    HW168673   9.199   7.697   5.019 -0.3844  0.4713  1.0778
22140SOL    HW268674   9.223   7.756   4.882  2.2582 -0.2023  1.1909
22141SOL     OW68675   3.918   1.786   8.827  0.2675 -0.0615  0.2070
22141SOL    HW168676   3.882   1.715   8.880  1.2293 -0.3031  0.5510
22141SOL    HW268677   3.878   1.774   8.741 -3.0992  1.6593  1.3470
22142SOL     OW68678   3.960  10.360   5.189  0.0970  0.3477 -0.2146
22142SOL    HW168679   3.911  10.419   5.132 -0.8727 -0.5515 -0.3353
22142SOL    HW268680   4.038  10.337   5.139 -0.1430  0.5342 -0.6796
22143SOL     OW68681   2.852   6.540   7.888 -0.0175  0.3824 -0.3297
22143SOL    HW168682   2.916   6.590   7.838  1.2992  1.1943  2.0258
22143SOL    HW268683   2.903   6.477   7.938 -1.0501  0.7845  1.3187
22144SOL     OW68684   2.408   3.713   3.268  0.1901 -0.0050  0.3107
22144SOL    HW168685   2.447   3.627   3.252 -1.4244 -0.9360  1.1212
22144SOL    HW268686   2.480   3.765   3.303  1.1116 -1.1467  0.1879
22145SOL     OW68687   1.052  10.011   2.156  0.4639 -0.0599 -0.0172
22145SOL    HW168688   1.091   9.965   2.231  1.3181  0.3096 -0.2318
22145SOL    HW268689   0.970  10.048   2.191  1.3962  1.0710  1.0545
22146SOL     OW68690   9.865   9.722   5.828  0.3772 -0.2447  0.8488
22146SOL    HW168691   9.910   9.655   5.880 -0.0578 -2.2079 -1.1434
22146SOL    HW268692   9.793   9.675   5.785 -0.3809  1.6761 -0.1141
22147SOL     OW68693   0.201   7.149   7.094  0.3369  0.3845  0.5748
22147SOL    HW168694   0.201   7.240   7.125  1.1430 -0.0226  1.8594
22147SOL    HW268695   0.287   7.137   7.054  0.3584  0.0905  0.7087
22148SOL     OW68696   4.609   4.409   5.867  0.1916 -0.1810  0.4844
22148SOL    HW168697   4.601   4.349   5.941 -1.1768 -0.0406  0.4638
22148SOL    HW268698   4.599   4.354   5.789 -0.6635  0.0054  0.4574
22149SOL     OW68699   8.661   8.927   8.934  0.2450  0.2207 -0.2237
22149SOL    HW168700   8.684   8.883   8.853 -1.3726  1.9971 -1.7563
22149SOL    HW268701   8.743   8.963   8.966  0.8852 -0.3562 -1.1632
22150SOL     OW68702   1.195   3.417   1.470 -0.6319 -0.1993 -0.4974
22150SOL    HW168703   1.163   3.493   1.519 -0.0263 -0.7225  0.7500
22150SOL    HW268704   1.283   3.443   1.441  0.0213 -0.8048  0.8763
22151SOL     OW68705   1.700   4.637   7.726 -0.6699 -0.3870  0.5695
22151SOL    HW168706   1.710   4.545   7.700  0.8759 -0.2052  0.4665
22151SOL    HW268707   1.629   4.669   7.672  1.0407 -0.5999 -1.9472
22152SOL     OW68708   1.801   3.392   2.020  0.7474 -0.0534 -0.0964
22152SOL    HW168709   1.814   3.456   1.951  0.2597 -0.7457 -0.8437
22152SOL    HW268710   1.861   3.320   1.998  0.1928 -0.5151 -0.1077
22153SOL     OW68711   8.455   2.234   4.092  0.3418 -0.1005  0.0484
22153SOL    HW168712   8.376   2.185   4.115  0.8228 -1.8472 -1.7299
22153SOL    HW268713   8.431   2.284   4.014  0.6496  0.2977  0.2050
22154SOL     OW68714   0.887   7.685   3.825  0.2471 -0.0141  0.5186
22154SOL    HW168715   0.868   7.745   3.896 -1.9300 -0.2513  0.1925
22154SOL    HW268716   0.804   7.672   3.780  0.9216 -2.2032 -0.2646
22155SOL     OW68717   2.370   7.687   2.477  0.1040  0.2057  0.4024
22155SOL    HW168718   2.429   7.735   2.535  0.2926 -2.5522  2.7502
22155SOL    HW268719   2.371   7.598   2.511 -2.9427 -0.6989 -1.4629
22156SOL     OW68720   6.885   2.115   5.615 -0.1108  0.2690  0.5100
22156SOL    HW168721   6.797   2.144   5.589  0.1474  1.4378  0.8514
22156SOL    HW268722   6.944   2.179   5.575  0.5754 -0.4083  0.4244
22157SOL     OW68723   0.418   0.738   9.287  0.0150 -0.2001 -0.1417
22157SOL    HW168724   0.501   0.692   9.282  1.4341  1.8727  2.3610
22157SOL    HW268725   0.412   0.785   9.204 -0.1431 -2.5832 -1.5629
22158SOL     OW68726   6.619   7.499   8.550  0.0867 -0.4279  0.2817
22158SOL    HW168727   6.525   7.508   8.562 -0.3563 -1.1620 -2.1055
22158SOL    HW268728   6.646   7.435   8.616 -0.7458  0.9345  2.0275
22159SOL     OW68729   1.511   3.769   9.776  0.0029 -0.1523  0.1496
22159SOL    HW168730   1.464   3.814   9.705 -0.5958  4.2469  2.9698
22159SOL    HW268731   1.466   3.797   9.856  2.3464 -2.5888  2.5069
22160SOL     OW68732   1.222   8.332   3.195  0.8398 -0.0942 -0.4160
22160SOL    HW168733   1.170   8.296   3.267 -0.4016 -0.9405 -1.6826
22160SOL    HW268734   1.308   8.290   3.205  1.0319  0.6045  1.1539
22161SOL     OW68735   2.397   4.261   1.131  0.2067  0.1239 -0.6284
22161SOL    HW168736   2.320   4.253   1.188  1.8732  0.4470  1.8411
22161SOL    HW268737   2.416   4.171   1.105  1.2114 -0.5425  2.0300
22162SOL     OW68738   9.799   3.617  10.264  0.1379  0.1848 -0.3066
22162SOL    HW168739   9.875   3.609  10.206 -0.8862 -0.5299 -1.6022
22162SOL    HW268740   9.814   3.699  10.311  2.4974 -0.7127  0.6841
22163SOL     OW68741   3.922   4.350   6.571  0.5498 -0.3042 -0.2478
22163SOL    HW168742   3.909   4.372   6.663 -0.5822  0.2797 -0.5190
22163SOL    HW268743   3.835   4.363   6.531  1.2213  0.3703 -1.5693
22164SOL     OW68744   2.156   7.944   0.875  0.4835  0.9141 -0.4544
22164SOL    HW168745   2.089   7.976   0.815  1.0763  1.7864 -0.6815
22164SOL    HW268746   2.234   7.995   0.852  1.3030 -0.2630 -0.3837
22165SOL     OW68747   7.744   4.422   8.273  0.2608 -0.0191 -0.0506
22165SOL    HW168748   7.809   4.493   8.276  0.5959 -0.3405  1.5368
22165SOL    HW268749   7.715   4.414   8.364  0.0283 -1.7303 -0.2533
22166SOL     OW68750   2.188   4.965   9.334  0.4106 -0.0167  0.1185
22166SOL    HW168751   2.257   5.026   9.311  0.1595 -0.2576 -1.3575
22166SOL    HW268752   2.221   4.920   9.412  2.7079 -1.3203 -1.4710
22167SOL     OW68753   4.690   4.521   7.200  0.3353 -0.1442 -0.0275
22167SOL    HW168754   4.779   4.548   7.223  0.2755 -0.1090  0.1640
22167SOL    HW268755   4.634   4.574   7.256  0.2097 -0.4977  0.1787
22168SOL     OW68756   9.479   6.954   0.472 -0.4102 -0.3718 -0.0364
22168SOL    HW168757   9.448   7.033   0.517 -0.1021 -0.6199  0.6289
22168SOL    HW268758   9.563   6.981   0.434 -1.1177  0.1158 -1.2981
22169SOL     OW68759   8.349   5.616   2.337  0.3262  0.2836 -0.4318
22169SOL    HW168760   8.380   5.706   2.343 -0.5642  0.5591  0.1077
22169SOL    HW268761   8.281   5.609   2.404 -0.1094 -0.5809 -0.9472
22170SOL     OW68762   3.679   1.541   7.052 -0.0695 -0.0121  0.4294
22170SOL    HW168763   3.736   1.470   7.079  0.7637  1.5733  3.2826
22170SOL    HW268764   3.713   1.569   6.967  0.1223 -2.3666 -0.3148
22171SOL     OW68765   3.423   7.144  10.500 -0.6879 -0.6670 -0.1279
22171SOL    HW168766   3.488   7.086  10.460  1.8898  0.6501  1.7633
22171SOL    HW268767   3.390   7.094  10.575 -0.3401 -0.6407  0.0486
22172SOL     OW68768   9.767   1.315   5.912 -0.1186 -0.4603 -0.6631
22172SOL    HW168769   9.834   1.382   5.920 -0.3448 -0.4657  1.8515
22172SOL    HW268770   9.684   1.363   5.917 -0.3822 -0.5296 -3.0696
22173SOL     OW68771   6.935   0.469   5.292 -0.3156  0.3273  0.8379
22173SOL    HW168772   6.939   0.410   5.367  0.0628  0.8565  1.2435
22173SOL    HW268773   6.880   0.542   5.322  0.9849  1.2208  1.0932
22174SOL     OW68774   7.886   9.737   2.550 -0.3513  0.1216  0.3514
22174SOL    HW168775   7.813   9.778   2.597 -0.1500  1.2244 -0.2661
22174SOL    HW268776   7.958   9.737   2.613  0.1184  2.1987 -0.1144
22175SOL     OW68777   2.557   4.993   6.378  0.3012  0.6978 -0.0714
22175SOL    HW168778   2.507   4.962   6.302  0.7873  0.4316 -0.2936
22175SOL    HW268779   2.577   5.084   6.359  1.2171  0.3848 -0.7162
22176SOL     OW68780   6.424   7.778   6.012 -0.2272 -0.0802 -0.2105
22176SOL    HW168781   6.401   7.748   5.924 -0.4527 -0.5249 -0.0013
22176SOL    HW268782   6.392   7.710   6.071  0.3500 -0.0255  0.1866
22177SOL     OW68783   6.516   3.425   1.865  0.6053 -0.4460  0.1777
22177SOL    HW168784   6.536   3.505   1.914  4.1283  0.8678 -2.9308
22177SOL    HW268785   6.601   3.382   1.854 -0.5293 -2.3577 -1.9287
22178SOL     OW68786   6.643   1.704   2.818  0.8841  0.3518  0.2244
22178SOL    HW168787   6.685   1.790   2.822  0.7983  0.3470  1.6401
22178SOL    HW268788   6.716   1.643   2.804  1.1168  0.5219  0.6771
22179SOL     OW68789   0.897   3.240   8.338  0.5189  0.7141 -0.5884
22179SOL    HW168790   0.973   3.249   8.396  0.6326 -1.6144 -0.2764
22179SOL    HW268791   0.935   3.214   8.254  0.1721  1.4978 -0.9987
22180SOL     OW68792   8.894   9.930  10.500  0.2590  0.2798  0.1593
22180SOL    HW168793   8.948   9.857  10.529  0.0062 -0.4434 -1.1181
22180SOL    HW268794   8.813   9.921  10.551 -0.0793 -0.8156 -0.5296
22181SOL     OW68795   9.281   8.319   2.976  0.5822  0.1416  0.5874
22181SOL    HW168796   9.248   8.253   2.915 -1.8482  0.9544  0.8950
22181SOL    HW268797   9.302   8.270   3.055  0.2946 -0.4620  0.2929
22182SOL     OW68798   6.607   1.190   8.413  0.5513 -0.1623  0.4219
22182SOL    HW168799   6.572   1.253   8.350  1.3703  0.2360  0.3482
22182SOL    HW268800   6.539   1.123   8.421  0.6496 -0.4956 -1.2733
22183SOL     OW68801   4.269   6.817   4.299  0.4611 -0.3675 -0.8359
22183SOL    HW168802   4.339   6.752   4.312  1.4260  0.7653 -0.0637
22183SOL    HW268803   4.227   6.824   4.385 -0.9953 -1.4303 -1.4294
22184SOL     OW68804   5.814   2.513   5.317  0.1879 -0.7137  0.4974
22184SOL    HW168805   5.786   2.553   5.399 -0.8319 -3.1634  1.4403
22184SOL    HW268806   5.783   2.422   5.323  0.1960 -1.0059 -2.5619
22185SOL     OW68807   7.716   8.111   6.314 -0.5426 -0.1695 -0.1239
22185SOL    HW168808   7.665   8.095   6.394  2.4196  0.0350  1.9861
22185SOL    HW268809   7.734   8.023   6.280 -1.1876 -0.2962 -0.1531
22186SOL     OW68810  10.211   1.893   8.037 -0.5634 -0.3699 -0.2402
22186SOL    HW168811  10.188   1.834   7.965 -1.4597  0.9721 -1.0886
22186SOL    HW268812  10.128   1.932   8.064 -0.0984 -0.0971  0.8690
22187SOL     OW68813   2.991   3.330   8.977  0.2104  0.1261 -0.0944
22187SOL    HW168814   3.021   3.421   8.973 -1.0673  0.5343 -0.7261
22187SOL    HW268815   3.027   3.290   8.897  0.2698  0.2430 -0.1275
22188SOL     OW68816   7.847   7.965   0.489 -0.6885  0.3965  0.3900
22188SOL    HW168817   7.939   7.991   0.482 -0.8370  0.9614  0.4519
22188SOL    HW268818   7.843   7.910   0.567 -0.2357 -0.4121 -0.1506
22189SOL     OW68819   2.987  10.432   0.432  0.5019 -0.4198  0.0931
22189SOL    HW168820   2.992  10.380   0.352 -1.5516 -1.3339  0.4930
22189SOL    HW268821   2.914  10.491   0.419  1.0963  0.4863  0.7261
22190SOL     OW68822  10.519   1.466   8.871  0.5891  0.2010 -0.1628
22190SOL    HW168823  10.590   1.524   8.844 -0.4266  0.9310 -1.3604
22190SOL    HW268824  10.480   1.510   8.947  0.2998  0.7201 -0.6038
22191SOL     OW68825   3.726   7.075   8.738  0.5691 -0.4217  0.0815
22191SOL    HW168826   3.711   6.993   8.784  0.7723 -1.3898 -1.5036
22191SOL    HW268827   3.658   7.078   8.670  0.7703  0.5441 -0.0991
22192SOL     OW68828   1.628   6.005  10.384 -0.5746  0.3773 -0.2672
22192SOL    HW168829   1.705   5.983  10.331  0.7302 -0.0907  1.7103
22192SOL    HW268830   1.557   5.954  10.345  0.6098 -0.9477 -0.7980
22193SOL     OW68831   3.442   9.356   2.902  0.4022 -0.5239  0.5612
22193SOL    HW168832   3.456   9.436   2.852  1.7065 -0.7938  0.4464
22193SOL    HW268833   3.371   9.311   2.856  0.5569 -0.0446 -0.1639
22194SOL     OW68834   0.773   1.696   0.756  0.1942  0.5826 -0.3304
22194SOL    HW168835   0.736   1.629   0.698 -2.7380  1.3458  0.4987
22194SOL    HW268836   0.823   1.647   0.821 -0.9136 -0.7292 -0.4310
22195SOL     OW68837   7.364   4.126   6.328 -0.8358 -0.0033 -0.2625
22195SOL    HW168838   7.446   4.149   6.373 -0.6837 -0.2121 -0.4310
22195SOL    HW268839   7.319   4.068   6.389  0.4134 -2.1625 -1.3037
22196SOL     OW68840   3.557   2.407   6.786  0.0573  0.2454  0.1647
22196SOL    HW168841   3.464   2.387   6.789 -0.2707  0.7437 -3.0575
22196SOL    HW268842   3.562   2.502   6.798  0.3685  0.0539  1.8780
22197SOL     OW68843   2.036   1.728   4.205 -0.0269 -0.2188  0.3328
22197SOL    HW168844   1.968   1.665   4.180 -0.3832  0.8974 -1.7095
22197SOL    HW268845   2.110   1.708   4.148  0.1684  0.6688  0.2560
22198SOL     OW68846   0.438   8.504   0.370  0.1160  0.3689  0.3864
22198SOL    HW168847   0.526   8.482   0.400  0.4437  0.4698 -0.4778
22198SOL    HW268848   0.450   8.536   0.281 -0.7627  0.6760  0.3670
22199SOL     OW68849   4.330   4.272   7.756 -0.1649  0.0659  0.1712
22199SOL    HW168850   4.325   4.318   7.672 -0.7829  1.6433  1.0161
22199SOL    HW268851   4.380   4.192   7.737  0.7657  0.9674 -1.4176
22200SOL     OW68852   4.728   5.119   6.699 -0.1259  0.3441 -0.0044
22200SOL    HW168853   4.685   5.205   6.693 -0.6593  0.1119  0.3019
22200SOL    HW268854   4.808   5.128   6.649  0.9631  1.7268  1.8618
22201SOL     OW68855   0.153   6.714   6.595 -0.3837  0.0459 -0.8068
22201SOL    HW168856   0.061   6.687   6.601 -0.2853 -0.4214 -1.3582
22201SOL    HW268857   0.184   6.711   6.685 -1.0257  0.6179 -0.5561
22202SOL     OW68858  10.527   7.315   6.990 -0.0304 -0.6046 -0.5480
22202SOL    HW168859  10.529   7.361   6.906 -1.4598 -0.2034 -0.3850
22202SOL    HW268860  10.510   7.224   6.966 -0.1138 -0.5458 -0.7189
22203SOL     OW68861   1.717   4.919   4.518 -0.9766  0.7212 -0.0368
22203SOL    HW168862   1.757   4.979   4.455  3.0179 -3.7339 -2.3784
22203SOL    HW268863   1.640   4.885   4.473 -1.0987  1.2948 -0.2740
22204SOL     OW68864   3.127   2.023   2.784 -0.0169  0.4774  0.3448
22204SOL    HW168865   3.192   2.017   2.714 -1.0999  0.7786 -0.7447
22204SOL    HW268866   3.047   1.988   2.744 -0.9546  1.7410  1.0262
22205SOL     OW68867   6.913   4.318   0.745 -0.0355 -0.0231 -0.5157
22205SOL    HW168868   6.942   4.356   0.827  0.5321 -1.1415 -0.1765
22205SOL    HW268869   6.918   4.390   0.682  0.4843  0.5929  0.2057
22206SOL     OW68870   4.347   1.372  10.340 -0.1069  0.5254  0.0779
22206SOL    HW168871   4.286   1.412  10.401  2.3768  0.2544  2.9637
22206SOL    HW268872   4.330   1.278  10.346 -0.0781  0.5208  0.0888
22207SOL     OW68873   2.480   0.585   0.727 -0.0857  0.0387  0.6564
22207SOL    HW168874   2.442   0.628   0.650  1.7982 -0.4255 -0.6153
22207SOL    HW268875   2.466   0.647   0.798 -3.2297 -0.1670  0.3355
22208SOL     OW68876   4.348   0.563   9.976 -0.5875 -0.2847  0.5770
22208SOL    HW168877   4.403   0.606  10.042  1.9333 -0.5630 -1.2166
22208SOL    HW268878   4.370   0.470   9.982 -0.3656 -0.3229 -0.5847
22209SOL     OW68879   7.545   9.682   1.080  0.0106  0.0107  0.6807
22209SOL    HW168880   7.581   9.594   1.070 -0.1320 -0.0412  0.6321
22209SOL    HW268881   7.575   9.710   1.167 -0.2046 -0.2063  0.8261
22210SOL     OW68882   4.877   8.097   4.691 -0.2938  0.0423 -0.1481
22210SOL    HW168883   4.967   8.130   4.678  0.0885 -0.9354 -0.0623
22210SOL    HW268884   4.824   8.176   4.700  0.7120  0.6388  0.8193
22211SOL     OW68885   8.665   2.157   4.284 -0.1657 -0.0328 -0.0349
22211SOL    HW168886   8.651   2.226   4.349 -4.1254 -2.8394  2.5546
22211SOL    HW268887   8.647   2.200   4.200 -0.2933  2.5491  1.1993
22212SOL     OW68888   0.552   5.303   5.877  0.5241 -0.0457  0.5644
22212SOL    HW168889   0.627   5.336   5.926  1.0932 -1.1700  0.4874
22212SOL    HW268890   0.564   5.208   5.876 -1.0864 -0.2811  0.8351
22213SOL     OW68891   7.116   1.176   0.615 -0.6370  0.1187  0.3438
22213SOL    HW168892   7.105   1.144   0.525 -0.4141  0.6644  0.1214
22213SOL    HW268893   7.060   1.118   0.667  0.4409 -1.2294  0.0739
22214SOL     OW68894   7.687   4.895   1.468 -0.3552 -0.4581  0.8889
22214SOL    HW168895   7.605   4.848   1.457 -1.0947  1.2451 -2.5934
22214SOL    HW268896   7.668   4.963   1.532 -1.9025  0.1869 -0.1832
22215SOL     OW68897   1.888   1.186   8.441 -0.0302 -0.0848 -0.1282
22215SOL    HW168898   1.831   1.144   8.506 -0.2339 -0.2051 -0.3852
22215SOL    HW268899   1.930   1.257   8.489 -1.2538  0.7239 -0.2190
22216SOL     OW68900   6.932   5.424   5.497 -0.2634 -0.6674 -0.0933
22216SOL    HW168901   6.858   5.468   5.539 -0.5139 -0.1815 -1.0107
22216SOL    HW268902   6.925   5.449   5.404  0.3366 -1.6077 -0.4041
22217SOL     OW68903   3.676   6.677   4.137 -0.6058 -0.4668  0.3110
22217SOL    HW168904   3.598   6.701   4.188 -0.8956 -0.5106 -0.1040
22217SOL    HW268905   3.662   6.717   4.052  0.2510  0.2804  0.5057
22218SOL     OW68906   2.038  10.453   8.194  0.4186  0.2821 -0.2615
22218SOL    HW168907   2.086  10.374   8.216  1.3535  1.0112  0.3742
22218SOL    HW268908   2.050  10.463   8.100  1.3214  0.3267 -0.1469
22219SOL     OW68909   9.902  10.421   0.196 -0.6326 -0.2199 -0.2238
22219SOL    HW168910   9.902  10.403   0.290 -1.8620 -0.4135 -0.2436
22219SOL    HW268911   9.978  10.477   0.182 -0.9784  0.5870  1.0398
22220SOL     OW68912   6.615   2.672   2.383  0.0656  0.0704  0.3424
22220SOL    HW168913   6.535   2.687   2.432 -0.4142 -0.5484 -0.2224
22220SOL    HW268914   6.604   2.724   2.303 -0.2572 -0.8320 -0.2185
22221SOL     OW68915   6.058   0.109   3.093 -0.3061 -0.0204 -0.1288
22221SOL    HW168916   6.153   0.120   3.100 -0.5887  3.3339  0.2020
22221SOL    HW268917   6.042   0.104   2.998  0.1069  1.1271 -0.2761
22222SOL     OW68918   0.543   9.688   9.040  0.1838  0.1574 -0.5229
22222SOL    HW168919   0.522   9.712   8.949  2.4458  0.4411 -1.0308
22222SOL    HW268920   0.614   9.747   9.064 -0.2986  0.0088  1.4410
22223SOL     OW68921   2.621   0.966   3.580 -0.2491  0.9060 -0.4488
22223SOL    HW168922   2.576   0.979   3.497  0.9478 -0.4870 -1.3658
22223SOL    HW268923   2.561   0.913   3.632 -1.0537  1.8827 -0.3477
22224SOL     OW68924   7.012   6.271   1.236  0.1662 -0.2048 -0.0700
22224SOL    HW168925   7.087   6.229   1.193 -0.7502 -1.2869 -0.6824
22224SOL    HW268926   6.968   6.199   1.282 -1.3263  0.0996 -0.9635
22225SOL     OW68927   5.141   2.782   3.169 -0.3331  0.2787 -0.1769
22225SOL    HW168928   5.048   2.788   3.147  0.2096 -0.3598 -2.8922
22225SOL    HW268929   5.142   2.737   3.254 -2.4626  0.2140 -0.1261
22226SOL     OW68930   4.857   6.513   4.545 -0.3492 -0.4453  0.7402
22226SOL    HW168931   4.943   6.529   4.507 -0.6332  1.6527  0.8453
22226SOL    HW268932   4.815   6.451   4.485  0.3171  0.4838 -0.7399
22227SOL     OW68933  10.397   3.502   4.773  0.2437 -0.3716 -0.1276
22227SOL    HW168934  10.377   3.587   4.734 -0.0265  0.1035  1.0125
22227SOL    HW268935  10.482   3.478   4.736 -0.3780 -0.3573 -1.6608
22228SOL     OW68936   8.799   4.945   1.270 -0.0371 -0.5326 -0.8925
22228SOL    HW168937   8.844   5.026   1.295 -1.5478 -0.4819  2.1775
22228SOL    HW268938   8.714   4.974   1.238 -1.8187 -0.7601  3.0375
22229SOL     OW68939   6.671  10.359   4.089  0.1351 -0.2665 -0.0667
22229SOL    HW168940   6.701  10.271   4.066 -0.7735 -1.0272  1.4921
22229SOL    HW268941   6.638  10.395   4.007 -0.4048 -1.7803 -0.5492
22230SOL     OW68942   8.107   0.457   3.586  0.4742 -0.2371 -0.1858
22230SOL    HW168943   8.055   0.466   3.506 -0.5234 -0.8733  0.3569
22230SOL    HW268944   8.195   0.485   3.562 -0.1230  0.8922 -1.1441
22231SOL     OW68945   3.884   7.566   1.445 -0.3533 -0.1156  0.0316
22231SOL    HW168946   3.857   7.658   1.451  0.1743  0.1102 -0.9789
22231SOL    HW268947   3.835   7.523   1.516 -0.5990  0.9363  0.5252
22232SOL     OW68948   6.895   4.129   3.153  0.2183 -0.1849 -0.3849
22232SOL    HW168949   6.954   4.065   3.112  1.4204  0.0075  0.9561
22232SOL    HW268950   6.952   4.203   3.173 -0.7575  0.5061 -0.1349
22233SOL     OW68951   9.982   7.226   4.438 -0.4640 -0.1313 -0.2423
22233SOL    HW168952   9.952   7.151   4.489  0.3209  0.9070  1.8428
22233SOL    HW268953   9.902   7.274   4.417 -0.8036 -0.5614  0.0513
22234SOL     OW68954   1.545   7.792   1.438  0.3752  0.0578  0.0982
22234SOL    HW168955   1.496   7.854   1.492  0.1386 -0.6441  0.6873
22234SOL    HW268956   1.631   7.788   1.478  0.2210 -0.4116  0.3809
22235SOL     OW68957   7.481   5.447   9.971 -0.3135 -0.0338 -0.0958
22235SOL    HW168958   7.445   5.485  10.051  0.4161 -0.2191  0.3343
22235SOL    HW268959   7.560   5.498   9.953  0.5435 -1.1479  0.3528
22236SOL     OW68960   4.312   2.620   7.983  0.3300 -0.9367  0.0091
22236SOL    HW168961   4.379   2.674   7.940  0.5744 -1.1584  0.1119
22236SOL    HW268962   4.294   2.664   8.066 -0.0033 -0.6127 -0.2314
22237SOL     OW68963   6.872   1.105   8.381  0.5102  0.4878  0.2017
22237SOL    HW168964   6.890   1.084   8.472  3.1527  1.4934  0.0085
22237SOL    HW268965   6.784   1.142   8.381  0.2478 -0.0396  2.2471
22238SOL     OW68966   4.089   3.497  10.060 -0.2440  0.2211  0.0202
22238SOL    HW168967   4.022   3.435  10.087  0.3063 -0.7464 -0.7720
22238SOL    HW268968   4.083   3.568  10.124 -0.7710 -0.7167  1.0518
22239SOL     OW68969   8.857   7.172   2.114 -0.4068  0.0667  0.1582
22239SOL    HW168970   8.863   7.257   2.159 -0.0566 -0.3435  0.8989
22239SOL    HW268971   8.769   7.140   2.136 -1.1048  0.8703 -1.3010
22240SOL     OW68972   7.972   2.924   6.030  0.2740 -0.5177 -0.3988
22240SOL    HW168973   8.064   2.948   6.029 -0.4603  2.9159 -2.1263
22240SOL    HW268974   7.943   2.940   6.120  1.1226 -0.5248 -0.1239
22241SOL     OW68975   8.200   7.955   1.583  0.4488  0.7165  0.3820
22241SOL    HW168976   8.179   7.866   1.613  0.1729  0.9731  0.9696
22241SOL    HW268977   8.208   8.006   1.664 -0.0363  1.3655  0.0254
22242SOL     OW68978   3.680   3.861   0.534  0.3881 -0.2874 -0.0314
22242SOL    HW168979   3.665   3.955   0.524  0.4889 -0.1437  1.0744
22242SOL    HW268980   3.677   3.846   0.628  1.4714 -1.2242 -0.1323
22243SOL     OW68981   9.951   4.335   9.853 -0.3004 -0.8245  0.7329
22243SOL    HW168982   9.922   4.421   9.822  1.6697  0.2121  1.5418
22243SOL    HW268983   9.956   4.281   9.774  1.3229  0.7385 -0.3172
22244SOL     OW68984   6.382   7.870  10.116  0.3672 -0.6298 -0.1800
22244SOL    HW168985   6.461   7.898  10.070  0.0185 -2.0859 -1.7607
22244SOL    HW268986   6.393   7.905  10.205  2.1020  0.4029 -0.7449
22245SOL     OW68987   7.167   2.822   0.848 -0.4024 -0.0987 -0.2965
22245SOL    HW168988   7.123   2.788   0.771 -0.7051  1.3983 -0.8282
22245SOL    HW268989   7.110   2.801   0.921 -0.1861 -1.3983 -0.4818
22246SOL     OW68990   3.493   4.280  10.247  0.0729  0.3263  0.7863
22246SOL    HW168991   3.510   4.187  10.234  1.0630  0.3950  1.5186
22246SOL    HW268992   3.426   4.282  10.316  0.3643  0.1556  1.0819
22247SOL     OW68993   2.251   0.974   4.322 -0.1425 -0.0176  0.0899
22247SOL    HW168994   2.285   1.043   4.379 -0.2689 -0.7813  1.1077
22247SOL    HW268995   2.242   0.897   4.378 -0.1756 -0.8315 -0.9761
22248SOL     OW68996   3.293   3.779   8.966 -0.4983  0.0134 -0.1569
22248SOL    HW168997   3.208   3.742   8.990 -0.0377  0.0236  1.6518
22248SOL    HW268998   3.355   3.708   8.979 -0.0682  0.3674 -0.2226
22249SOL     OW68999   1.222   7.545   6.983 -0.4949  0.0585 -0.1244
22249SOL    HW169000   1.283   7.560   7.055  1.5230 -0.8695 -1.5501
22249SOL    HW269001   1.143   7.592   7.009  0.4945  0.5761  2.2159
22250SOL     OW69002   6.375   6.355   2.281 -0.4467 -0.0527 -0.4536
22250SOL    HW169003   6.375   6.372   2.186 -1.1914  1.9100 -0.1507
22250SOL    HW269004   6.396   6.440   2.320 -0.1272 -0.8436  1.1641
22251SOL     OW69005   2.437   1.785   9.195 -0.4919  0.3128  0.3753
22251SOL    HW169006   2.425   1.714   9.258 -0.7134  0.8020  0.8886
22251SOL    HW269007   2.366   1.847   9.213 -0.8186  0.2606 -0.6341
22252SOL     OW69008   2.128   6.671   5.302 -0.5667  0.1470 -0.1243
22252SOL    HW169009   2.200   6.702   5.248  0.3229 -1.6948 -0.0882
22252SOL    HW269010   2.156   6.686   5.392 -0.1361 -0.6838 -0.1068
22253SOL     OW69011   6.924   5.542   5.195 -0.0009 -0.3483  0.1946
22253SOL    HW169012   6.885   5.572   5.113  2.6263  0.3587 -0.8929
22253SOL    HW269013   6.974   5.617   5.228  1.7119 -1.6211  0.6549
22254SOL     OW69014   2.311   6.708   2.682  0.0221  0.0819 -0.4409
22254SOL    HW169015   2.234   6.756   2.655  0.4582  1.0661  0.0092
22254SOL    HW269016   2.377   6.728   2.615  0.5629  1.0920  0.3697
22255SOL     OW69017  10.021   0.124   5.422 -0.5818 -0.6353 -0.3807
22255SOL    HW169018  10.020   0.205   5.472 -0.5192 -1.0094  0.2387
22255SOL    HW269019  10.090   0.136   5.357  0.5306 -0.8119  0.7550
22256SOL     OW69020   3.017   6.974   1.523 -0.0463 -0.6769 -0.0635
22256SOL    HW169021   2.938   7.020   1.493  2.0139  1.7272 -2.1984
22256SOL    HW269022   2.984   6.913   1.589 -3.9889 -1.2731 -2.2045
22257SOL     OW69023   0.997   8.648   5.971 -0.3271  0.2857 -0.1497
22257SOL    HW169024   0.902   8.647   5.973 -0.3274  0.9437  0.9310
22257SOL    HW269025   1.023   8.615   6.057  0.4104  0.9807 -0.0989
22258SOL     OW69026   8.458  10.370   8.876 -0.5208 -0.6375 -0.6174
22258SOL    HW169027   8.392  10.305   8.851 -0.4522 -1.0294  0.1562
22258SOL    HW269028   8.417  10.418   8.948 -0.2184 -0.4417 -0.5760
22259SOL     OW69029   3.232   4.957   2.387 -0.1589 -0.4217 -0.7955
22259SOL    HW169030   3.200   4.931   2.474  1.6531  1.1888  0.4319
22259SOL    HW269031   3.292   4.887   2.362  0.2968 -0.2805 -0.1388
22260SOL     OW69032   0.550   2.572  10.638 -0.1274  0.7531 -0.7624
22260SOL    HW169033   0.513   2.521  10.565 -0.0265 -0.8916  0.2957
22260SOL    HW269034   0.636   2.532  10.653 -0.9401 -0.2714  1.5222
22261SOL     OW69035   7.950   7.263   2.718 -0.3864 -0.7870  0.2053
22261SOL    HW169036   7.919   7.331   2.659  0.9909  0.9787  1.3675
22261SOL    HW269037   7.946   7.303   2.805  3.5752 -0.8212  0.6201
22262SOL     OW69038   6.835   8.521   8.747  0.0053  0.0820  0.9350
22262SOL    HW169039   6.772   8.464   8.792 -1.0925  0.9741  0.5653
22262SOL    HW269040   6.801   8.609   8.760  2.1051  0.7839  2.2011
22263SOL     OW69041   6.762  10.182   1.084 -0.1527 -0.0114  0.2205
22263SOL    HW169042   6.752  10.099   1.038  0.0643  0.2230 -0.2644
22263SOL    HW269043   6.843  10.174   1.133  0.8456  0.5584 -1.2633
22264SOL     OW69044   5.388   4.542   2.943 -0.3197  0.5240  0.0578
22264SOL    HW169045   5.413   4.456   2.909  0.5263  1.6785 -2.5025
22264SOL    HW269046   5.468   4.594   2.940 -1.2760  2.0578 -0.7783
22265SOL     OW69047   2.448   2.691   1.773  0.7281 -0.2008 -0.0166
22265SOL    HW169048   2.519   2.706   1.835 -0.3760 -0.3651  1.3373
22265SOL    HW269049   2.468   2.606   1.734  0.7677 -0.7207  1.0931
22266SOL     OW69050   9.984   0.048   9.058 -0.0128  0.9484 -0.4111
22266SOL    HW169051  10.041  -0.021   9.092 -0.7676  1.2077  1.4774
22266SOL    HW269052   9.896   0.013   9.066 -0.5359  2.5664  1.9075
22267SOL     OW69053   1.379   4.360   8.613  0.5364 -0.8477  0.3816
22267SOL    HW169054   1.440   4.336   8.683  1.2990 -0.5313 -0.1554
22267SOL    HW269055   1.433   4.357   8.533  0.3303  1.2411  0.1203
22268SOL     OW69056   9.452   7.145   4.870  0.8510  0.5781  0.2192
22268SOL    HW169057   9.523   7.205   4.845  0.9094  2.1607  3.5935
22268SOL    HW269058   9.388   7.201   4.915 -0.3535 -1.5110  1.2481
22269SOL     OW69059   4.287  10.552   4.793 -0.5757  0.1000 -0.0832
22269SOL    HW169060   4.342  10.532   4.718  0.4253 -0.9898  0.9014
22269SOL    HW269061   4.292  10.647   4.803  0.7639  0.0610 -0.2916
22270SOL     OW69062   5.228   0.612   0.703  0.1981 -0.0868  0.3410
22270SOL    HW169063   5.190   0.687   0.657 -2.7350 -1.1286  0.8450
22270SOL    HW269064   5.177   0.537   0.673  2.8173 -1.9096  0.1141
22271SOL     OW69065   1.236  10.531   6.337 -0.5093  0.2501  0.2108
22271SOL    HW169066   1.295  10.508   6.266  2.8297  0.3387  2.7537
22271SOL    HW269067   1.171  10.461   6.338  1.0788 -1.3160 -1.0735
22272SOL     OW69068   4.126   6.979   6.932  0.9222  0.2050  0.2095
22272SOL    HW169069   4.084   6.917   6.872 -0.0609  1.1382 -0.0899
22272SOL    HW269070   4.099   7.065   6.902  1.7963  0.7759  0.9764
22273SOL     OW69071   1.103   7.703   0.451  0.6553 -0.0912  0.3942
22273SOL    HW169072   1.113   7.797   0.431 -0.6460 -0.1854 -0.9151
22273SOL    HW269073   1.028   7.700   0.511 -0.7283 -0.4032 -1.2650
22274SOL     OW69074   7.275   3.228   6.253  0.1937  0.1305 -0.1419
22274SOL    HW169075   7.216   3.295   6.288 -0.6013 -0.3016 -0.6225
22274SOL    HW269076   7.240   3.209   6.166 -0.6464 -2.1273  0.6305
22275SOL     OW69077   6.299   2.816   6.749 -0.2047 -0.1150 -0.0648
22275SOL    HW169078   6.264   2.872   6.819  0.7922  1.1027 -0.5004
22275SOL    HW269079   6.224   2.798   6.692 -1.1908 -1.6752  1.6192
22276SOL     OW69080   6.901   1.305   0.982  0.0343 -0.1494 -0.1342
22276SOL    HW169081   6.903   1.269   1.070  0.8607  1.1550  0.4098
22276SOL    HW269082   6.860   1.237   0.929  2.7365 -2.5052  0.5746
22277SOL     OW69083   9.622   9.851   0.860  0.3718  0.0490 -0.0323
22277SOL    HW169084   9.714   9.825   0.858  0.5273  0.4151  1.2691
22277SOL    HW269085   9.590   9.836   0.771  1.5354 -0.6217 -0.3478
22278SOL     OW69086   9.238   0.205   3.079 -0.3545 -0.8600 -0.1672
22278SOL    HW169087   9.269   0.236   3.164 -1.5434 -3.2928  1.2707
22278SOL    HW269088   9.251   0.279   3.020  1.1775  0.6837  1.9514
22279SOL     OW69089  10.153   5.964   5.999  0.8085 -0.0652 -0.6021
22279SOL    HW169090  10.188   5.879   6.025  2.2108  0.4823 -0.5955
22279SOL    HW269091  10.103   5.946   5.919  0.2277 -1.0377 -0.0401
22280SOL     OW69092   2.169   4.140   1.359 -0.6253  0.6311  0.2947
22280SOL    HW169093   2.224   4.206   1.402  0.5740  0.5088 -0.9901
22280SOL    HW269094   2.080   4.165   1.382 -0.2069  2.6911 -0.1239
22281SOL     OW69095   0.523   1.148   2.621 -0.3130  0.1247 -0.1709
22281SOL    HW169096   0.618   1.144   2.633  0.1243  3.5798 -1.3396
22281SOL    HW269097   0.497   1.057   2.605  2.6909 -0.9953  0.6388
22282SOL     OW69098   4.565   0.904   0.358 -0.1993  0.2676 -0.0192
22282SOL    HW169099   4.473   0.877   0.352 -0.1338  0.1492 -0.4958
22282SOL    HW269100   4.605   0.872   0.278  0.4250 -0.2990  0.5125
22283SOL     OW69101   7.670   6.584   0.522 -0.1178  0.1930 -0.6098
22283SOL    HW169102   7.636   6.545   0.441 -0.5445 -0.1692 -0.2613
22283SOL    HW269103   7.684   6.676   0.500  0.0991  0.0239 -1.1982
22284SOL     OW69104   7.760   2.499   6.970 -0.3376 -0.7952  0.3077
22284SOL    HW169105   7.771   2.577   6.916  0.2225 -1.5305 -0.6756
22284SOL    HW269106   7.669   2.504   7.000 -0.2036  0.4218  0.5914
22285SOL     OW69107   1.670   1.383   8.313  0.1632 -0.6101  0.4722
22285SOL    HW169108   1.694   1.291   8.321 -1.6675 -1.1351  0.2907
22285SOL    HW269109   1.716   1.413   8.234 -0.9617 -1.9958 -0.7739
22286SOL     OW69110   0.774   9.691   6.916  0.2320 -0.5488 -0.2529
22286SOL    HW169111   0.700   9.665   6.972  1.4296 -2.0169  0.7213
22286SOL    HW269112   0.787   9.784   6.935  0.6556 -1.0233  2.0040
22287SOL     OW69113   9.069   5.466   1.976  0.8640  0.5764 -0.4098
22287SOL    HW169114   9.080   5.468   1.881 -0.7068  2.0572 -0.6103
22287SOL    HW269115   8.979   5.494   1.990  0.8537 -0.2732  1.5056
22288SOL     OW69116   4.274   3.670   1.360 -0.3324 -0.3082 -0.0515
22288SOL    HW169117   4.321   3.686   1.278 -1.2654 -0.8444 -0.7211
22288SOL    HW269118   4.342   3.642   1.422  0.3554 -0.1182 -0.7090
22289SOL     OW69119   1.887   7.679   4.956  0.0406  0.3483 -0.1563
22289SOL    HW169120   1.961   7.721   4.999 -0.2306  0.3667  0.3009
22289SOL    HW269121   1.877   7.595   5.002  0.4636 -0.1486 -0.9370
22290SOL     OW69122   9.099   6.691   6.338 -0.2527  0.2866 -0.2994
22290SOL    HW169123   9.118   6.723   6.426  1.9376 -0.0298 -0.5923
22290SOL    HW269124   9.106   6.768   6.281 -1.1159  0.3881 -0.2806
22291SOL     OW69125   8.613  10.129   6.876  0.0697  0.0234 -0.1783
22291SOL    HW169126   8.675  10.125   6.949 -0.3379 -0.5909  0.1396
22291SOL    HW269127   8.549  10.195   6.904  0.7937  0.9651 -0.6885
22292SOL     OW69128   9.881   8.421   9.306  0.2408  0.5503 -0.4730
22292SOL    HW169129   9.956   8.460   9.262 -0.3408  0.2608 -1.7761
22292SOL    HW269130   9.813   8.418   9.239 -1.2943  1.7587  0.9219
22293SOL     OW69131   0.741   7.519   4.764  0.0166  0.0796  0.3289
22293SOL    HW169132   0.692   7.540   4.684  0.5590 -1.2532 -0.3779
22293SOL    HW269133   0.737   7.424   4.771  2.2390 -0.0632  0.4150
22294SOL     OW69134   3.921  10.559  10.167 -0.0450 -0.0651 -0.1220
22294SOL    HW169135   3.996  10.592  10.117 -0.1670  0.0104 -0.2576
22294SOL    HW269136   3.850  10.619  10.144 -0.8587 -1.6891 -2.0967
22295SOL     OW69137   9.572   9.660   6.342 -0.4755 -0.0217 -0.3732
22295SOL    HW169138   9.601   9.644   6.432 -0.0483  2.1613 -0.0472
22295SOL    HW269139   9.653   9.666   6.291 -0.4574  2.1954 -0.1939
22296SOL     OW69140   4.209  10.407   2.937  0.5881  0.5102 -0.9265
22296SOL    HW169141   4.196  10.488   2.887 -0.9513  0.6269 -0.3819
22296SOL    HW269142   4.304  10.401   2.947  0.7414  2.3578 -0.8236
22297SOL     OW69143   5.059   3.745   2.945 -0.2066  0.3570 -0.5442
22297SOL    HW169144   5.044   3.714   3.034 -4.2198  0.2555 -1.0624
22297SOL    HW269145   5.028   3.836   2.946  1.3824  0.9495 -1.4912
22298SOL     OW69146   5.922   4.789   0.087 -0.2123  0.6099  0.1394
22298SOL    HW169147   5.992   4.778   0.023 -0.2420  0.2954  0.1617
22298SOL    HW269148   5.919   4.883   0.102  1.8981  0.4495  2.0199
22299SOL     OW69149   2.913   1.366   5.935  0.2749  0.0874 -0.0204
22299SOL    HW169150   2.937   1.401   5.848 -1.3930  2.0275  0.2373
22299SOL    HW269151   2.834   1.315   5.919 -1.5659  2.5649  0.6444
22300SOL     OW69152  10.075   3.321   5.059  0.0914 -0.6764 -0.1377
22300SOL    HW169153  10.070   3.310   4.964 -0.9768 -1.3184 -0.0289
22300SOL    HW269154  10.166   3.344   5.076  0.1745 -0.0151 -1.3683
22301SOL     OW69155   8.604   9.236   2.675 -0.2503  0.2285 -0.3314
22301SOL    HW169156   8.648   9.278   2.750  0.5131 -1.6425  0.3235
22301SOL    HW269157   8.675   9.196   2.625 -0.5441  2.8042 -3.0876
22302SOL     OW69158   0.376   4.049   7.905 -0.5927 -0.2234  0.0603
22302SOL    HW169159   0.379   4.028   7.812 -1.3046  0.8828 -0.2325
22302SOL    HW269160   0.390   4.144   7.909  0.4703 -0.3996  1.1648
22303SOL     OW69161  10.367   0.222   5.979 -0.4150  0.1918 -0.2501
22303SOL    HW169162  10.457   0.248   5.957 -0.4084  0.8597  0.5315
22303SOL    HW269163  10.317   0.241   5.899 -0.2616  1.9475  0.0109
22304SOL     OW69164   0.188   8.121   0.663  0.0681  0.0994 -0.0606
22304SOL    HW169165   0.104   8.155   0.693 -1.0205 -1.4985 -1.1624
22304SOL    HW269166   0.220   8.189   0.603 -1.8364 -0.4958 -1.8567
22305SOL     OW69167   6.748   3.945   1.162  0.4014 -0.1780 -0.4303
22305SOL    HW169168   6.836   3.984   1.165  0.1483  0.4124 -0.6043
22305SOL    HW269169   6.704   3.991   1.091 -0.3154  0.0922  0.1769
22306SOL     OW69170   3.873   5.041   8.135  0.0966  0.0007  0.4708
22306SOL    HW169171   3.800   5.101   8.117  0.3396  0.0835 -0.3072
22306SOL    HW269172   3.938   5.095   8.180  1.0280  0.8239 -1.7155
22307SOL     OW69173   4.312  10.402   9.521  0.1532  0.3449 -0.4052
22307SOL    HW169174   4.271  10.487   9.537  1.2132  0.5175  1.8085
22307SOL    HW269175   4.239  10.344   9.499 -0.6048  1.7599 -1.8243
22308SOL     OW69176   3.442   0.674   0.388  0.1668  0.8024 -0.0573
22308SOL    HW169177   3.369   0.726   0.420 -0.0641  0.3233  0.1950
22308SOL    HW269178   3.445   0.693   0.294 -0.9676 -0.0062 -0.2704
22309SOL     OW69179   2.339   0.480   4.812 -0.5026  0.3104  0.2085
22309SOL    HW169180   2.284   0.404   4.791  0.3865 -0.0812 -0.7865
22309SOL    HW269181   2.341   0.531   4.731 -0.2486  0.8527  0.5560
22310SOL     OW69182   8.400   9.487   7.784 -0.3679 -0.5567 -0.5049
22310SOL    HW169183   8.343   9.489   7.708 -0.0898  2.9882 -0.7776
22310SOL    HW269184   8.341   9.504   7.858  0.0893  2.6339 -0.7399
22311SOL     OW69185   9.409   8.334   2.180 -0.8220 -0.0705 -0.2838
22311SOL    HW169186   9.315   8.337   2.200 -0.7759 -1.4364  0.2862
22311SOL    HW269187   9.448   8.397   2.242 -1.3443  0.4408 -0.4639
22312SOL     OW69188   9.288   2.885   3.521  0.1828  0.1180 -0.4706
22312SOL    HW169189   9.322   2.887   3.611 -0.3992  0.9553 -0.2512
22312SOL    HW269190   9.209   2.939   3.525 -0.7222 -1.1059 -1.1471
22313SOL     OW69191   2.101   2.351   5.621 -0.2867  0.6928  0.0092
22313SOL    HW169192   2.126   2.291   5.551 -0.8188 -0.4632  0.7771
22313SOL    HW269193   2.103   2.438   5.580  0.5840  0.1747 -1.1003
22314SOL     OW69194   7.893   1.275   9.721  0.1674  0.0121 -0.0407
22314SOL    HW169195   7.871   1.184   9.742 -0.3371 -0.2877 -1.6980
22314SOL    HW269196   7.827   1.326   9.767  1.2170 -0.3372  1.9556
22315SOL     OW69197   1.552   1.654   7.133 -0.1404  0.0431  0.1048
22315SOL    HW169198   1.485   1.640   7.066 -0.0285  1.0255 -0.2223
22315SOL    HW269199   1.509   1.708   7.199 -0.6854 -2.0118  1.5523
22316SOL     OW69200   7.608   4.714   2.218  0.3477 -0.1912 -0.4466
22316SOL    HW169201   7.658   4.642   2.257 -0.3761  0.2712  1.4925
22316SOL    HW269202   7.517   4.684   2.219 -0.0199  0.8436  0.7745
22317SOL     OW69203   6.751   9.279   6.377  0.8157 -0.4813 -0.1207
22317SOL    HW169204   6.837   9.237   6.366  0.3726 -2.2018  2.1837
22317SOL    HW269205   6.752   9.313   6.466  0.4551  3.0414 -1.3068
22318SOL     OW69206   7.193   5.366   8.159 -0.3080 -0.0710  0.0630
22318SOL    HW169207   7.239   5.375   8.242 -1.1412  1.0882  0.4158
22318SOL    HW269208   7.105   5.337   8.184 -0.1682 -1.0650 -0.5248
22319SOL     OW69209   7.088   8.117   9.186 -0.5761  0.1354 -0.0103
22319SOL    HW169210   7.131   8.188   9.232 -1.9500  0.3969  0.9545
22319SOL    HW269211   7.154   8.081   9.128  1.6653 -0.9288  2.9232
22320SOL     OW69212   1.125   8.695   7.981 -0.0985 -0.3324  0.2136
22320SOL    HW169213   1.211   8.663   8.007 -0.1225 -1.2625 -0.7439
22320SOL    HW269214   1.073   8.615   7.969 -1.4921  0.2580  2.0257
22321SOL     OW69215   2.626   3.558   9.894  0.2671 -0.6257 -0.1678
22321SOL    HW169216   2.535   3.572   9.868  0.7258  0.1650 -1.3979
22321SOL    HW269217   2.641   3.464   9.878  0.2194 -0.3800 -1.8627
22322SOL     OW69218   9.786   2.293   2.089 -0.3498  0.6876 -0.1733
22322SOL    HW169219   9.819   2.288   1.999 -0.1551 -1.2375 -0.0490
22322SOL    HW269220   9.849   2.349   2.135  0.3283  0.5569 -0.9204
22323SOL     OW69221   2.996   7.743   4.009  0.0200  0.2841 -0.0989
22323SOL    HW169222   2.901   7.749   3.998 -0.0463  0.1534  0.3491
22323SOL    HW269223   3.032   7.757   3.922 -0.4094  0.4042 -0.2585
22324SOL     OW69224   7.518   7.240   9.778 -0.5563  0.2578 -0.2721
22324SOL    HW169225   7.477   7.266   9.861  0.3383  0.8336  0.0006
22324SOL    HW269226   7.554   7.321   9.743 -0.0024 -0.1675 -0.7000
22325SOL     OW69227   5.118   3.779   7.049  0.3884 -0.1295  0.0580
22325SOL    HW169228   5.026   3.788   7.027  0.3226 -1.9044 -0.5883
22325SOL    HW269229   5.128   3.825   7.132 -1.2831 -0.6691  0.5889
22326SOL     OW69230   3.742   9.634   7.348 -0.1039  0.3717  0.5341
22326SOL    HW169231   3.818   9.597   7.305  0.0400  0.3624  0.7955
22326SOL    HW269232   3.690   9.558   7.375 -0.2522  0.3798  0.2719
22327SOL     OW69233   4.275  10.259   4.376  0.0289 -0.3012  0.3275
22327SOL    HW169234   4.276  10.210   4.294 -1.0036  0.3617 -0.1085
22327SOL    HW269235   4.198  10.226   4.422 -0.4422  0.5994  0.2088
22328SOL     OW69236   5.117   2.866   2.360  0.1701  0.2184 -0.0460
22328SOL    HW169237   5.053   2.937   2.354  0.8264  0.8340  0.0783
22328SOL    HW269238   5.185   2.900   2.418  1.5142  0.2913 -1.5993
22329SOL     OW69239   8.253   9.762   5.526 -0.0324  0.1810  0.4832
22329SOL    HW169240   8.175   9.732   5.574  0.4470 -0.7389  0.7102
22329SOL    HW269241   8.253   9.711   5.445 -0.7067  1.5605 -0.4220
22330SOL     OW69242   5.932   7.169   1.555  0.0609  0.3078 -0.0219
22330SOL    HW169243   5.861   7.140   1.612  0.0493  0.6080  0.1179
22330SOL    HW269244   5.956   7.091   1.505  0.2308 -0.0168  0.5619
22331SOL     OW69245   1.717   7.172   0.046  0.2330 -0.6511 -0.2676
22331SOL    HW169246   1.812   7.182   0.037  0.3452  0.6636  1.8487
22331SOL    HW269247   1.706   7.104   0.112 -0.3250 -1.0892 -0.8032
22332SOL     OW69248   7.574   0.528   5.899 -0.4052 -0.6738 -0.5717
22332SOL    HW169249   7.621   0.582   5.963 -0.5978 -0.6990 -0.4076
22332SOL    HW269250   7.495   0.578   5.879 -0.5073 -0.8206 -0.5393
22333SOL     OW69251   4.387   5.297   0.492 -0.1370  0.3168  0.2024
22333SOL    HW169252   4.454   5.289   0.560 -1.9746 -1.7906  1.9255
22333SOL    HW269253   4.316   5.346   0.535 -0.5086  0.7759 -0.9097
22334SOL     OW69254   2.708   8.848   3.121  0.1376 -0.1529 -0.3035
22334SOL    HW169255   2.686   8.783   3.055  0.5886 -0.1188 -0.4911
22334SOL    HW269256   2.741   8.796   3.195  2.0738 -0.0775 -1.0623
22335SOL     OW69257   5.007   1.658   0.005 -0.1596 -0.0116 -0.1993
22335SOL    HW169258   5.072   1.648  -0.065 -1.2103  2.0149 -1.5762
22335SOL    HW269259   4.980   1.569   0.026 -1.6050 -0.7465 -4.2024
22336SOL     OW69260   3.287   1.541   8.903  0.0211 -0.2815 -0.7314
22336SOL    HW169261   3.328   1.497   8.977 -0.7193 -0.6773 -0.5431
22336SOL    HW269262   3.255   1.624   8.939 -0.5815 -0.5927 -0.5257
22337SOL     OW69263   0.594   4.619   4.978  0.3929 -0.1365  0.0641
22337SOL    HW169264   0.553   4.693   4.933 -0.1369 -0.2896  0.2847
22337SOL    HW269265   0.615   4.557   4.908  0.3583 -0.0039 -0.0642
22338SOL     OW69266  10.161   6.108   6.877 -0.3038 -0.3897  0.0053
22338SOL    HW169267  10.090   6.146   6.930  1.0148  0.2523  1.3815
22338SOL    HW269268  10.192   6.034   6.930  1.8228  0.9800  0.7655
22339SOL     OW69269   2.158   7.795   5.592 -0.1772  0.0340 -0.4115
22339SOL    HW169270   2.242   7.766   5.557  0.2261  1.8322 -1.0511
22339SOL    HW269271   2.103   7.717   5.592  1.2100 -0.9639 -0.8547
22340SOL     OW69272   1.220   3.857   5.691  0.0550 -0.2556  0.7076
22340SOL    HW169273   1.300   3.883   5.647 -0.6256  0.3198 -0.2253
22340SOL    HW269274   1.207   3.924   5.759 -1.4591  1.7672 -1.4096
22341SOL     OW69275   9.056   8.283   9.226 -0.4753  0.1779 -0.1712
22341SOL    HW169276   9.012   8.307   9.145 -1.2172 -1.1711 -0.1934
22341SOL    HW269277   9.111   8.209   9.203  1.7072  1.6934 -0.0925
22342SOL     OW69278   6.436   7.692   7.506 -0.2989 -0.3339  0.2720
22342SOL    HW169279   6.376   7.688   7.431  0.1988 -0.4956 -0.1217
22342SOL    HW269280   6.387   7.650   7.578 -1.2168  0.8315  0.3553
22343SOL     OW69281   4.073   2.570   5.888 -0.0523 -0.2592  0.5297
22343SOL    HW169282   4.016   2.645   5.869 -0.3922 -0.8503 -0.9720
22343SOL    HW269283   4.036   2.531   5.967 -2.0901 -0.8993 -0.6575
22344SOL     OW69284  10.511  10.236   2.751  0.1841  0.0977  0.0253
22344SOL    HW169285  10.540  10.298   2.684  0.2015 -1.4376 -1.4479
22344SOL    HW269286  10.572  10.250   2.824  1.2495  0.6412 -0.9372
22345SOL     OW69287   1.472  10.469   1.737 -0.0324  0.0764 -0.1557
22345SOL    HW169288   1.406  10.498   1.800  0.0076 -1.0949  0.4419
22345SOL    HW269289   1.429  10.478   1.652 -0.2555  1.2008  0.0496
22346SOL     OW69290   7.471   7.157   4.428 -0.0705  0.1810 -0.5668
22346SOL    HW169291   7.380   7.181   4.411 -1.0111 -2.3804  0.3061
22346SOL    HW269292   7.514   7.239   4.452 -2.7394  1.1212  1.4565
22347SOL     OW69293   1.054   8.158   7.045  0.2322 -0.1304 -0.3076
22347SOL    HW169294   1.077   8.101   6.972 -0.2700 -1.4390  0.5174
22347SOL    HW269295   0.968   8.193   7.021  1.6342  2.4917 -2.0530
22348SOL     OW69296   4.858   7.820   2.931 -0.0295 -0.2771 -0.4438
22348SOL    HW169297   4.887   7.816   3.022  0.8842  0.7486 -0.6666
22348SOL    HW269298   4.937   7.804   2.879 -0.8013 -2.2964 -1.0935
22349SOL     OW69299   1.554  10.191   0.972  0.3201  0.0021  0.4063
22349SOL    HW169300   1.482  10.248   0.999 -1.8219 -2.4913  0.3695
22349SOL    HW269301   1.605  10.178   1.051 -0.4901  0.1706  0.9698
22350SOL     OW69302   9.704   7.005   2.268  0.5792  0.2712  1.0497
22350SOL    HW169303   9.712   7.085   2.320  2.0842  1.7254 -1.2283
22350SOL    HW269304   9.794   6.979   2.250  0.3683  1.6762 -3.2687
22351SOL     OW69305   5.783   1.322   6.911 -0.2646 -0.1547  0.1421
22351SOL    HW169306   5.797   1.395   6.851  0.1066 -0.8071 -0.5874
22351SOL    HW269307   5.770   1.364   6.997 -0.8085  0.7868 -0.3806
22352SOL     OW69308   8.267   6.648   6.632  0.8031 -0.5149 -0.4603
22352SOL    HW169309   8.190   6.704   6.626  0.8853 -0.3036  0.3073
22352SOL    HW269310   8.263   6.592   6.554 -2.1004 -2.9717  1.2137
22353SOL     OW69311  10.088   0.094   6.999 -0.2193 -0.5793 -0.3284
22353SOL    HW169312  10.019   0.115   7.062  0.6637 -0.3807  0.6059
22353SOL    HW269313  10.059   0.135   6.917  0.7667  3.3624  1.0347
22354SOL     OW69314   7.723   4.364   5.908 -0.0236 -0.0398  0.1561
22354SOL    HW169315   7.709   4.415   5.988  3.3555 -1.9379  2.2065
22354SOL    HW269316   7.712   4.273   5.935  0.4775 -0.7144 -1.7447
22355SOL     OW69317   7.942   1.703   0.329 -0.4593 -0.5110  0.0777
22355SOL    HW169318   7.944   1.669   0.418  2.2819 -1.0903 -0.1341
22355SOL    HW269319   7.898   1.788   0.337 -0.6771 -0.7493  1.8735
22356SOL     OW69320   2.505   0.474   7.698  0.3632 -0.1382 -0.4285
22356SOL    HW169321   2.547   0.446   7.779 -0.2834  0.1954  0.0353
22356SOL    HW269322   2.418   0.433   7.701 -0.2069  1.0517 -0.2408
22357SOL     OW69323   2.197   3.229   1.944  0.3310  0.0249  0.3212
22357SOL    HW169324   2.277   3.233   1.997  0.3967  0.3480  0.2011
22357SOL    HW269325   2.183   3.136   1.929  0.6594 -0.0371  0.3832
22358SOL     OW69326   7.394   1.496   3.677  0.4161  0.8817 -0.0649
22358SOL    HW169327   7.317   1.482   3.621  0.6345  0.0923 -0.1887
22358SOL    HW269328   7.468   1.498   3.616  0.6470  0.0808  0.1743
22359SOL     OW69329   0.583   5.830   3.316 -0.0206  0.0141 -0.2140
22359SOL    HW169330   0.635   5.906   3.342  1.7136 -0.4057 -2.1819
22359SOL    HW269331   0.570   5.840   3.222 -0.7236 -1.5784 -0.3275
22360SOL     OW69332   2.759   5.063  10.244  0.2659 -0.2753 -0.2636
22360SOL    HW169333   2.719   5.081  10.159  0.0836  0.0897 -0.1041
22360SOL    HW269334   2.825   5.131  10.255  0.1293 -0.1796 -0.0113
22361SOL     OW69335   0.645  10.241   9.336  0.2099  0.1104  0.2401
22361SOL    HW169336   0.739  10.222   9.342  0.0176 -0.7943  0.3906
22361SOL    HW269337   0.604  10.182   9.398 -0.4874  0.3554  0.0237
22362SOL     OW69338   9.143   2.298   8.896 -0.0606 -0.1687 -0.4047
22362SOL    HW169339   9.185   2.384   8.908 -1.0503  0.2275  0.4171
22362SOL    HW269340   9.122   2.295   8.803  0.7316  0.1187 -0.6043
22363SOL     OW69341   9.139   8.303   2.245  0.2825  0.8571  0.4857
22363SOL    HW169342   9.173   8.246   2.315 -2.6199 -1.0451  0.5146
22363SOL    HW269343   9.083   8.366   2.290 -0.7423  0.3057  0.0277
22364SOL     OW69344   3.079   0.289   3.224 -0.0269  0.0046 -0.0783
22364SOL    HW169345   3.125   0.206   3.214 -0.5191  0.0122 -4.2979
22364SOL    HW269346   2.987   0.266   3.226 -0.1165  0.3807  0.2135
22365SOL     OW69347   9.167   4.387  10.376  0.1556 -0.3485  0.2878
22365SOL    HW169348   9.168   4.449  10.303  1.2062 -1.4807 -0.7112
22365SOL    HW269349   9.112   4.315  10.345 -1.3333  0.1942  1.5633
22366SOL     OW69350   1.600   5.068   7.445 -0.9512 -0.3239 -0.2466
22366SOL    HW169351   1.573   5.106   7.529 -1.7513 -1.9401  0.2691
22366SOL    HW269352   1.565   5.128   7.379 -0.2034  1.0384  0.5468
22367SOL     OW69353   5.655   7.549   6.210 -0.1916 -0.1079  0.2438
22367SOL    HW169354   5.699   7.467   6.188  2.9320  1.4682  0.1004
22367SOL    HW269355   5.578   7.551   6.154 -0.3629 -2.9024  0.2628
22368SOL     OW69356   0.221   0.969   8.843 -0.4537 -0.1496 -0.0944
22368SOL    HW169357   0.294   1.019   8.881 -0.1483 -1.3678  0.9993
22368SOL    HW269358   0.142   1.012   8.878 -0.2506  0.5527 -0.4752
22369SOL     OW69359   3.634   1.425   4.714 -0.4737 -0.4274 -0.3304
22369SOL    HW169360   3.716   1.379   4.733  0.1692  0.9661  0.4198
22369SOL    HW269361   3.569   1.385   4.771 -0.2094 -1.2336 -0.5926
22370SOL     OW69362   3.549   7.972   0.207  0.8191 -0.2432  0.0107
22370SOL    HW169363   3.465   8.014   0.226  0.8550 -0.7183  1.2996
22370SOL    HW269364   3.533   7.921   0.128 -0.3995 -1.0915  0.7763
22371SOL     OW69365   1.624   5.896   8.863 -0.0268 -0.0363 -0.1297
22371SOL    HW169366   1.615   5.945   8.945 -1.4470 -1.4991  0.6379
22371SOL    HW269367   1.706   5.847   8.874  0.3198  0.5501 -0.0363
22372SOL     OW69368   1.735   6.172   3.633  0.0354  0.2801 -0.0288
22372SOL    HW169369   1.646   6.187   3.664 -0.1385 -0.9315  0.1122
22372SOL    HW269370   1.767   6.259   3.607 -1.6415  0.5646 -1.3232
22373SOL     OW69371  10.216  10.617  10.507  0.1483 -0.3596 -0.9035
22373SOL    HW169372  10.215  10.711  10.523 -0.2510 -0.3866 -0.7641
22373SOL    HW269373  10.308  10.597  10.486  0.3920 -0.0593 -0.1831
22374SOL     OW69374   9.954   5.422   3.215  0.3237 -0.6145  0.0333
22374SOL    HW169375   9.973   5.484   3.145  0.7825 -0.8622 -0.0658
22374SOL    HW269376   9.862   5.437   3.236  0.2390 -0.3888 -0.4765
22375SOL     OW69377   5.287   5.312   6.240  0.4809  0.2212 -0.1901
22375SOL    HW169378   5.330   5.255   6.175 -0.5527  0.7505 -1.3863
22375SOL    HW269379   5.279   5.257   6.318 -0.8238 -1.4498 -1.4333
22376SOL     OW69380   2.274   5.325   5.070 -0.3753  0.3026 -0.1169
22376SOL    HW169381   2.313   5.264   5.007 -1.3800  1.5682 -2.0624
22376SOL    HW269382   2.240   5.268   5.140 -0.6336 -1.3349 -1.5002
22377SOL     OW69383   8.285   2.844   8.874  0.4215 -0.2323  0.3439
22377SOL    HW169384   8.309   2.841   8.782 -0.4464 -0.4005  0.1074
22377SOL    HW269385   8.357   2.890   8.917  1.5258 -1.4136 -0.1763
22378SOL     OW69386   9.884   4.453   5.074 -0.4011  0.1778  0.7139
22378SOL    HW169387   9.801   4.406   5.064  0.3158 -0.9423 -0.3122
22378SOL    HW269388   9.916   4.464   4.984  0.9854 -0.2015  1.1423
22379SOL     OW69389   8.483   9.259   5.942 -0.5526  0.3402 -0.5356
22379SOL    HW169390   8.412   9.238   6.003  0.0970  1.3861  0.6368
22379SOL    HW269391   8.466   9.349   5.916  0.6703  0.8479  0.2969
22380SOL     OW69392   3.540   5.670   7.409  0.2941  0.3901 -0.5235
22380SOL    HW169393   3.634   5.682   7.421  0.4168 -0.1483 -0.8913
22380SOL    HW269394   3.533   5.604   7.341 -0.3626  0.7707 -0.8310
22381SOL     OW69395   1.857   7.157   8.393 -0.3196  0.2974 -0.1296
22381SOL    HW169396   1.939   7.186   8.433  0.3326 -0.8874 -0.5559
22381SOL    HW269397   1.805   7.124   8.467  0.1561 -0.2250 -0.0215
22382SOL     OW69398   7.127   9.718   3.307 -0.6287 -0.3317 -0.0066
22382SOL    HW169399   7.134   9.770   3.387 -2.8589  0.9718 -0.5829
22382SOL    HW269400   7.216   9.687   3.291 -0.0208 -0.1794  2.6600
22383SOL     OW69401   5.938   0.619   6.374  0.1955 -0.6350 -0.2406
22383SOL    HW169402   5.985   0.537   6.363  0.5161 -0.2054 -2.6733
22383SOL    HW269403   6.005   0.681   6.404  0.1054 -1.0651  0.8955
22384SOL     OW69404   9.840   0.858   6.048 -0.1169  0.3658 -0.1877
22384SOL    HW169405   9.881   0.937   6.014  0.5869  0.3421  0.5722
22384SOL    HW269406   9.804   0.814   5.971 -0.9207  1.6378 -0.5786
22385SOL     OW69407   4.158   1.926   1.744 -0.4884  0.2720  0.6651
22385SOL    HW169408   4.102   1.986   1.792 -2.4416 -0.5171 -0.5427
22385SOL    HW269409   4.230   1.980   1.711 -0.9116  1.4421  1.6073
22386SOL     OW69410   7.664   0.949  10.323  0.0031  0.2626 -0.5691
22386SOL    HW169411   7.747   0.900  10.321  0.1653  0.5238 -0.2819
22386SOL    HW269412   7.655   0.978  10.413 -0.6220 -0.1243 -0.5009
22387SOL     OW69413   3.812   6.944   3.628 -0.7367  0.1649  0.2402
22387SOL    HW169414   3.844   6.861   3.663  1.4171  0.9552  0.2897
22387SOL    HW269415   3.855   6.953   3.543 -3.6970 -0.3698 -1.4846
22388SOL     OW69416   0.187   9.646   0.641 -0.0969 -0.0408 -0.0331
22388SOL    HW169417   0.169   9.579   0.707  0.0986 -0.9212 -0.8636
22388SOL    HW269418   0.219   9.721   0.692 -1.1385 -0.2652  0.9795
22389SOL     OW69419   3.462  10.503   4.371  0.0124  0.2435  0.2938
22389SOL    HW169420   3.415  10.585   4.362 -0.7332 -0.2236 -0.1394
22389SOL    HW269421   3.470  10.469   4.281  0.4347 -0.0934  0.4512
22390SOL     OW69422   0.062  10.508   4.416  0.1729  0.5060 -0.0277
22390SOL    HW169423   0.145  10.554   4.425  0.6490 -0.7304  4.0377
22390SOL    HW269424   0.085  10.416   4.422 -1.4056  0.0529 -0.4317
22391SOL     OW69425  10.077   8.448   4.559 -0.0983  0.4563 -0.0257
22391SOL    HW169426  10.080   8.354   4.539  0.0066 -0.0220  2.0770
22391SOL    HW269427  10.118   8.489   4.483  0.1231 -1.2118 -0.8642
22392SOL     OW69428   3.117   7.265   7.563  0.0566 -0.3806  0.1898
22392SOL    HW169429   3.084   7.244   7.650  1.9630  1.6783  1.5036
22392SOL    HW269430   3.130   7.180   7.521  0.5970 -1.5066  2.4999
22393SOL     OW69431  10.321   8.680   2.803 -0.0440  0.0090 -0.1600
22393SOL    HW169432  10.374   8.611   2.763  0.7774 -0.9749  2.4111
22393SOL    HW269433  10.245   8.635   2.838 -0.9701  0.9113 -0.9558
22394SOL     OW69434   2.434   7.842   8.540 -0.0208  0.4063 -0.1969
22394SOL    HW169435   2.480   7.849   8.456  0.0482 -0.4075 -0.2305
22394SOL    HW269436   2.478   7.771   8.585  0.5527  1.4310  0.9278
22395SOL     OW69437   5.390   4.734   8.288 -0.0573  0.0971  0.0419
22395SOL    HW169438   5.330   4.693   8.350  1.7320  1.3161  2.8001
22395SOL    HW269439   5.427   4.661   8.238 -1.5998 -0.9462  0.3712
22396SOL     OW69440   4.932   6.231   1.280 -0.2849 -0.8750  0.2491
22396SOL    HW169441   5.017   6.196   1.254  0.9948  1.9925  0.1530
22396SOL    HW269442   4.948   6.271   1.366 -0.6837  2.1706 -0.9694
22397SOL     OW69443   0.054   1.045   8.425 -0.0248 -0.1573  0.2677
22397SOL    HW169444   0.022   0.972   8.477  2.4162 -0.1929  1.9019
22397SOL    HW269445   0.148   1.032   8.421  0.2054  1.5937 -1.5249
22398SOL     OW69446   0.766  10.559   3.805 -0.4579  0.6801  0.1241
22398SOL    HW169447   0.732  10.555   3.716 -0.1237  0.6462 -0.0023
22398SOL    HW269448   0.789  10.469   3.827  0.2128  0.8028 -0.0517
22399SOL     OW69449   0.003   1.321   4.699 -0.4033 -0.0829  0.2897
22399SOL    HW169450   0.065   1.249   4.715 -2.2653 -1.4393  1.7697
22399SOL    HW269451  -0.046   1.294   4.622 -0.1645  0.2908  0.0019
22400SOL     OW69452   9.746   1.818   4.043 -0.0031  0.6109  0.1122
22400SOL    HW169453   9.834   1.802   4.009  0.1932 -1.4934  1.4562
22400SOL    HW269454   9.760   1.859   4.128 -0.2779 -0.3995  0.6554
22401SOL     OW69455   1.519   0.828   7.724 -0.0087 -0.6060 -0.1252
22401SOL    HW169456   1.483   0.884   7.792 -1.3766 -1.4276 -0.1106
22401SOL    HW269457   1.560   0.756   7.771  0.7706 -0.1883 -0.1568
22402SOL     OW69458   0.954   8.700   2.099 -0.1672  0.7057  0.2026
22402SOL    HW169459   0.859   8.712   2.101 -0.1710  0.5716  1.7004
22402SOL    HW269460   0.970   8.629   2.160  0.7600 -0.4453 -1.3243
22403SOL     OW69461   0.982   5.780   7.930  0.7935 -0.2925 -0.5442
22403SOL    HW169462   1.016   5.842   7.866  0.1273  1.3719  0.6391
22403SOL    HW269463   0.897   5.816   7.956  0.5685 -1.4911  0.4781
22404SOL     OW69464   1.738   1.734   3.253 -0.0282 -0.2315 -0.2792
22404SOL    HW169465   1.690   1.741   3.335  1.2081 -0.0830  0.4634
22404SOL    HW269466   1.680   1.686   3.195 -1.3146  0.4875  0.3677
22405SOL     OW69467   2.544   7.927   8.006  0.2522  0.0806 -0.5055
22405SOL    HW169468   2.618   7.986   8.008 -0.2427  0.6942  0.3060
22405SOL    HW269469   2.572   7.852   8.059 -0.4361  1.2590  1.6779
22406SOL     OW69470   1.851   1.259   8.108 -0.6800  0.3287  0.2629
22406SOL    HW169471   1.780   1.207   8.070  0.2417 -0.3388 -0.5935
22406SOL    HW269472   1.924   1.247   8.048  0.2811  0.7069  1.3235
22407SOL     OW69473   8.736   3.162   2.714 -0.0954 -0.2749 -0.1952
22407SOL    HW169474   8.781   3.233   2.669  0.2120 -1.9827 -2.7882
22407SOL    HW269475   8.797   3.134   2.782  0.0850  1.4042  0.3576
22408SOL     OW69476   6.540   8.274   1.125 -0.1372  0.1173  0.0702
22408SOL    HW169477   6.481   8.206   1.158 -1.4457  0.6742 -1.0199
22408SOL    HW269478   6.607   8.226   1.077 -0.6107 -0.4563 -0.0281
22409SOL     OW69479   4.158   7.761  10.030  0.1102 -0.8662  0.1888
22409SOL    HW169480   4.180   7.786  10.120 -0.0917 -0.7540  0.2084
22409SOL    HW269481   4.064   7.748  10.031 -0.3175  1.6718 -0.5952
22410SOL     OW69482   0.175   5.438   9.543 -0.2776  0.2383  0.0200
22410SOL    HW169483   0.258   5.431   9.590 -0.0954  1.0248 -0.1736
22410SOL    HW269484   0.185   5.516   9.488  0.3385 -1.7062 -2.8979
22411SOL     OW69485   0.380   3.050   4.289 -0.1555 -0.1140 -0.6499
22411SOL    HW169486   0.455   3.064   4.348  0.2908  0.8911 -1.4302
22411SOL    HW269487   0.377   2.955   4.276  1.8413 -0.0907 -1.6696
22412SOL     OW69488   0.453   2.255  10.199 -0.5615 -0.3526  0.0353
22412SOL    HW169489   0.427   2.315  10.269  1.3851  0.6633 -0.0347
22412SOL    HW269490   0.374   2.204  10.181 -1.6143  0.5562  1.7423
22413SOL     OW69491   5.532   2.032   9.495  0.0157  0.0866 -0.1154
22413SOL    HW169492   5.441   2.037   9.464  0.3361  0.2599 -1.0412
22413SOL    HW269493   5.565   2.121   9.488  0.8462 -0.3059 -1.6355
22414SOL     OW69494   2.707   5.802   6.976 -0.0771  0.4678 -0.3219
22414SOL    HW169495   2.712   5.820   7.070  0.2442 -2.0146  0.2242
22414SOL    HW269496   2.791   5.830   6.941 -0.4325  1.9828 -0.0121
22415SOL     OW69497   7.414   2.017   9.250  0.1049  0.1673  0.0717
22415SOL    HW169498   7.409   2.092   9.191  0.3907  0.0390 -0.1205
22415SOL    HW269499   7.358   2.040   9.324  0.5947  0.7975  0.2603
22416SOL     OW69500   5.824   2.136   9.053  0.4180  0.2111  0.5907
22416SOL    HW169501   5.792   2.224   9.072  1.0251  0.5848 -0.0484
22416SOL    HW269502   5.902   2.150   9.000 -1.5047 -0.7010 -2.8423
22417SOL     OW69503  10.470   6.187   4.964 -0.5376 -0.4417  0.4397
22417SOL    HW169504  10.544   6.245   4.983  1.9036 -1.3883 -4.4843
22417SOL    HW269505  10.398   6.246   4.943  0.0069  0.6261  1.4838
22418SOL     OW69506   3.696   4.647   9.041  0.3878 -0.2415 -0.8946
22418SOL    HW169507   3.693   4.601   9.125  2.0289 -1.0137 -1.2194
22418SOL    HW269508   3.642   4.594   8.983 -0.0047 -0.2030 -0.5758
22419SOL     OW69509   9.512   2.273   8.569  0.1886  0.0839 -0.6890
22419SOL    HW169510   9.428   2.252   8.610 -0.3281 -0.1754 -1.8354
22419SOL    HW269511   9.571   2.288   8.642 -0.7942  0.0305  0.1446
22420SOL     OW69512   5.040   4.095   3.638 -0.3835 -0.5151  0.5873
22420SOL    HW169513   4.998   4.175   3.669  0.1214  0.2681 -0.6590
22420SOL    HW269514   5.124   4.092   3.685  0.1503  0.3857 -0.2729
22421SOL     OW69515   0.975   0.330   4.612  0.0977  0.6702 -0.0502
22421SOL    HW169516   0.996   0.248   4.656  0.2426  0.0841 -1.1693
22421SOL    HW269517   0.893   0.312   4.566 -0.0743  1.2847  0.0113
22422SOL     OW69518   8.893   4.634   3.296 -0.1543  0.4028  0.3634
22422SOL    HW169519   8.887   4.728   3.309  0.1932  0.5206 -0.3246
22422SOL    HW269520   8.899   4.622   3.202  1.6317 -0.1997  0.5186
22423SOL     OW69521   3.715   4.994   5.693  0.5677  0.5766  0.0603
22423SOL    HW169522   3.785   4.932   5.713 -1.1768 -1.3014  0.7408
22423SOL    HW269523   3.723   5.062   5.760  0.7171 -0.5465  1.2374
22424SOL     OW69524   0.707  10.598   4.779 -0.2700  0.2973  0.5056
22424SOL    HW169525   0.733  10.514   4.739 -1.2895  0.7924 -1.3064
22424SOL    HW269526   0.614  10.606   4.760 -0.3591  1.4850  1.3505
22425SOL     OW69527   1.546   0.011   7.125  0.2901 -0.0167  0.3618
22425SOL    HW169528   1.490  -0.033   7.188 -2.3818  0.4052 -1.5320
22425SOL    HW269529   1.485   0.060   7.070  2.7236  1.8974 -0.7812
22426SOL     OW69530   9.994   3.375   6.590 -0.4640  0.3747  0.0045
22426SOL    HW169531   9.977   3.373   6.496  1.0477  1.7278 -0.3328
22426SOL    HW269532  10.078   3.330   6.600 -1.5768 -1.6376  1.0105
22427SOL     OW69533  10.426   8.350   5.863 -0.2553 -0.0791  0.0556
22427SOL    HW169534  10.398   8.342   5.772  0.7531  0.2420 -0.2966
22427SOL    HW269535  10.501   8.409   5.860  0.1307 -0.4972  1.0320
22428SOL     OW69536   6.493   2.018   2.703 -0.3888 -0.0806 -0.4041
22428SOL    HW169537   6.469   2.042   2.613 -0.1528 -0.0899 -0.4711
22428SOL    HW269538   6.438   1.943   2.724 -3.1175  2.0821  0.7764
22429SOL     OW69539   6.477  10.394   5.419  0.1666  0.1415 -0.8423
22429SOL    HW169540   6.478  10.299   5.434  0.7161 -0.1679 -2.5797
22429SOL    HW269541   6.449  10.403   5.328 -2.0770  1.7952 -0.0780
22430SOL     OW69542   2.032   5.852   5.241  0.3974  0.1365  0.0864
22430SOL    HW169543   1.987   5.917   5.295  0.0820  0.2695 -0.3328
22430SOL    HW269544   2.107   5.899   5.205  0.8675 -0.0770  0.7616
22431SOL     OW69545   2.292   4.634   7.618  0.0074 -0.3083 -0.2345
22431SOL    HW169546   2.219   4.653   7.677  0.8449  1.8129  0.2201
22431SOL    HW269547   2.252   4.637   7.531 -1.0169 -2.3453  0.1172
22432SOL     OW69548  10.509   4.532   0.669 -0.1934  0.5096  0.1830
22432SOL    HW169549  10.434   4.561   0.618 -1.1170  0.2573  1.3684
22432SOL    HW269550  10.504   4.436   0.667 -0.5263  0.5025  1.1596
22433SOL     OW69551  10.023   6.540   7.024 -0.1352  0.1649  0.2584
22433SOL    HW169552  10.099   6.523   6.968  1.1393  4.7310  0.2030
22433SOL    HW269553  10.039   6.489   7.103  2.2898 -0.0793 -0.3113
22434SOL     OW69554   9.002   0.874   1.363 -0.3367  0.6585 -0.5442
22434SOL    HW169555   8.930   0.830   1.317  0.2592 -0.3074 -0.5852
22434SOL    HW269556   9.026   0.814   1.433  0.8012  0.6949 -0.8778
22435SOL     OW69557  10.248  10.232   8.302  0.1132  0.6069 -0.3726
22435SOL    HW169558  10.192  10.308   8.314  0.4638  0.7701  0.2809
22435SOL    HW269559  10.337  10.264   8.320  0.4884  0.4646 -1.8443
22436SOL     OW69560   9.908   2.252   0.722 -0.0102 -0.0841 -0.0564
22436SOL    HW169561   9.995   2.283   0.745  0.4316 -0.9259 -0.5289
22436SOL    HW269562   9.874   2.214   0.803  0.6702 -1.0924 -0.2282
22437SOL     OW69563  10.537   4.770  10.278  0.5384 -0.2367  0.3082
22437SOL    HW169564  10.583   4.719  10.344  1.5537 -0.5727 -0.6372
22437SOL    HW269565  10.508   4.706  10.214  1.1164  0.2815 -0.4828
22438SOL     OW69566   6.359   6.413   3.810  0.3287 -0.3335 -0.3092
22438SOL    HW169567   6.453   6.396   3.800  0.9855  0.1702  3.4222
22438SOL    HW269568   6.350   6.508   3.799  0.4971 -0.2230  0.4280
22439SOL     OW69569   9.557   7.167   5.486 -0.4374 -0.0468  0.4383
22439SOL    HW169570   9.578   7.088   5.436 -1.8697 -0.7662  0.9199
22439SOL    HW269571   9.612   7.234   5.448 -0.1438 -0.9893 -0.8814
22440SOL     OW69572   9.878   3.412   6.331 -0.2628 -0.3350 -0.0537
22440SOL    HW169573   9.857   3.464   6.253  2.8341  0.4849 -0.4732
22440SOL    HW269574   9.876   3.321   6.300 -0.3120 -0.1060 -0.7436
22441SOL     OW69575   7.779   3.903  10.529 -0.2456  0.4167  0.0770
22441SOL    HW169576   7.699   3.898  10.581 -0.6028 -0.7324 -0.5463
22441SOL    HW269577   7.822   3.818  10.543  0.1422  0.4716 -0.7242
22442SOL     OW69578   7.682   1.728   8.537 -0.0874  0.0599  0.0585
22442SOL    HW169579   7.646   1.641   8.550  2.1669 -1.0271 -0.5489
22442SOL    HW269580   7.631   1.765   8.465 -1.1799 -0.6595  0.4422
22443SOL     OW69581   5.261   7.972   5.924  0.3428 -0.2031 -0.0376
22443SOL    HW169582   5.335   8.029   5.940  0.3351 -0.0342 -0.5824
22443SOL    HW269583   5.297   7.900   5.872 -0.0809  0.4582 -1.3015
22444SOL     OW69584   4.821  10.549   5.994  0.2800  0.1386  0.5773
22444SOL    HW169585   4.848  10.636   6.024 -0.6827  0.4349  0.6450
22444SOL    HW269586   4.725  10.553   5.995  0.2305 -0.6306 -0.2860
22445SOL     OW69587   4.240   9.597   1.213 -0.0857 -0.2753 -0.7698
22445SOL    HW169588   4.320   9.642   1.185 -0.0817 -0.0483 -0.3983
22445SOL    HW269589   4.254   9.578   1.306 -0.5956  0.0482 -0.6264
22446SOL     OW69590   1.494   3.691   7.153  0.1004 -0.3589 -0.0625
22446SOL    HW169591   1.499   3.675   7.247 -0.5784 -0.3571 -0.0244
22446SOL    HW269592   1.541   3.617   7.114 -0.4819 -0.8888  0.2373
22447SOL     OW69593   6.222   4.000   6.190 -0.3828 -0.0260  0.0339
22447SOL    HW169594   6.261   4.031   6.271 -0.2528  0.5440 -0.2419
22447SOL    HW269595   6.277   3.926   6.164  0.2125  0.4482 -0.0810
22448SOL     OW69596   8.095   5.087   0.859  0.3401  0.1664  0.0482
22448SOL    HW169597   8.051   5.004   0.878  2.3462 -0.8125  0.6741
22448SOL    HW269598   8.149   5.103   0.936  1.2573  1.1793 -0.7878
22449SOL     OW69599   1.990   7.579   5.587 -0.4561 -0.4544  0.3425
22449SOL    HW169600   2.009   7.486   5.595  0.7074 -0.2186  0.5751
22449SOL    HW269601   1.904   7.583   5.546 -0.2197 -1.6306 -0.3159
22450SOL     OW69602   0.293   1.396   0.998  0.3894  0.1262 -0.0847
22450SOL    HW169603   0.279   1.469   1.059  0.6090 -0.6435  0.9236
22450SOL    HW269604   0.379   1.413   0.960  1.1381 -0.3687  1.2990
22451SOL     OW69605   9.832   1.918   0.006  0.6863 -0.0822 -0.4050
22451SOL    HW169606   9.885   1.844   0.035  0.4382  0.2756  1.0450
22451SOL    HW269607   9.890   1.994   0.013  0.2448  0.1997  0.4863
22452SOL     OW69608   9.260   6.560   5.911 -0.0740  0.0053  0.2949
22452SOL    HW169609   9.334   6.507   5.941 -1.6714 -2.6023 -0.0131
22452SOL    HW269610   9.191   6.543   5.976 -0.8538  1.2310 -0.1777
22453SOL     OW69611   3.951   9.718   4.564 -0.3246 -0.4051 -0.4515
22453SOL    HW169612   3.974   9.627   4.547 -0.9897 -0.8170  0.7592
22453SOL    HW269613   3.996   9.740   4.645  0.4229  0.5910 -1.1178
22454SOL     OW69614   6.530   4.667   7.548  0.4392  0.5645  0.0335
22454SOL    HW169615   6.505   4.745   7.499  0.7693  0.1453 -0.8286
22454SOL    HW269616   6.604   4.694   7.601 -1.0778  1.5316  1.7856
22455SOL     OW69617   4.246   6.737   8.857 -0.7388 -0.4255 -0.2603
22455SOL    HW169618   4.341   6.753   8.857 -0.6794 -0.7502 -0.7133
22455SOL    HW269619   4.238   6.646   8.830 -1.0355 -1.3652  2.7368
22456SOL     OW69620   4.183   1.034   1.526 -0.4046  0.0857 -0.0849
22456SOL    HW169621   4.246   1.012   1.457 -2.7531 -1.3044 -1.8950
22456SOL    HW269622   4.173   1.129   1.519  1.0740  0.2721 -0.0636
22457SOL     OW69623   2.501  10.436   9.827 -0.2315  0.3205  0.1855
22457SOL    HW169624   2.492  10.478   9.913  0.5748  0.2392  0.3154
22457SOL    HW269625   2.481  10.505   9.764 -2.1235  0.0691  0.4337
22458SOL     OW69626   0.424  10.350   2.409 -0.2146 -0.5433  0.3472
22458SOL    HW169627   0.415  10.444   2.396  0.9419 -0.5356 -0.5818
22458SOL    HW269628   0.376  10.332   2.489  0.2424  0.9675  0.9981
22459SOL     OW69629   5.529   9.826   0.290 -0.1665 -0.4894  0.7311
22459SOL    HW169630   5.458   9.844   0.228  1.1538  1.5760 -0.3049
22459SOL    HW269631   5.577   9.909   0.294  1.5962 -1.5399  2.1700
22460SOL     OW69632   6.009   2.261   0.805 -0.1327  0.3302  0.0668
22460SOL    HW169633   6.081   2.244   0.744  0.4837 -1.8329  1.2808
22460SOL    HW269634   6.051   2.264   0.891 -1.5998 -2.6982  1.0113
22461SOL     OW69635   2.282   6.280   2.645 -0.1070 -0.1031 -0.0486
22461SOL    HW169636   2.349   6.254   2.582  0.3847 -3.6919  1.6468
22461SOL    HW269637   2.323   6.348   2.698  0.9467  0.0666 -1.0459
22462SOL     OW69638   7.122   5.674   6.640  0.0592  0.6718 -0.1548
22462SOL    HW169639   7.147   5.589   6.603  0.8142  1.7299 -2.2795
22462SOL    HW269640   7.064   5.653   6.713  0.5652 -1.6610 -0.3452
22463SOL     OW69641   4.172   8.098   3.844 -0.4972 -0.1179  0.1215
22463SOL    HW169642   4.090   8.134   3.811 -1.3463 -0.5961  1.5934
22463SOL    HW269643   4.210   8.170   3.896 -1.7567 -0.9374  2.3246
22464SOL     OW69644   9.151   8.086   4.754 -0.2154 -0.6798  0.0288
22464SOL    HW169645   9.222   8.022   4.744  0.1336 -0.5808  1.6940
22464SOL    HW269646   9.170   8.131   4.837 -0.1712  1.9268 -1.2672
22465SOL     OW69647   0.988   9.677   8.726 -0.3803 -0.1056 -0.0090
22465SOL    HW169648   0.932   9.617   8.676  0.5813 -1.6653  0.6772
22465SOL    HW269649   0.975   9.650   8.817  1.4142 -0.4886  0.1692
22466SOL     OW69650   9.479   6.063   7.489  0.4632  0.2624 -0.7443
22466SOL    HW169651   9.427   6.073   7.409 -1.6942  0.8744  0.6435
22466SOL    HW269652   9.500   6.152   7.516  1.1470  0.0648 -0.5998
22467SOL     OW69653   7.886   4.343   7.152 -0.4208 -0.2634 -0.0709
22467SOL    HW169654   7.917   4.345   7.243  0.1306 -1.1132 -0.2302
22467SOL    HW269655   7.830   4.266   7.148 -0.6897 -0.0528 -0.3831
22468SOL     OW69656   5.553   5.179   3.572 -0.2354  0.7805 -0.4292
22468SOL    HW169657   5.576   5.096   3.614 -2.5832  1.7725  3.3308
22468SOL    HW269658   5.631   5.233   3.582 -0.5811  0.8786  2.7813
22469SOL     OW69659  10.654   6.027   6.656 -0.1343 -0.8155  0.1739
22469SOL    HW169660  10.599   6.005   6.731 -0.0028 -2.0512 -0.0734
22469SOL    HW269661  10.593   6.048   6.586 -0.2729  1.6610  0.9398
22470SOL     OW69662   1.311   5.426   1.175 -0.1489 -0.0858  0.3321
22470SOL    HW169663   1.219   5.402   1.181 -0.5738  1.7411  2.7172
22470SOL    HW269664   1.351   5.389   1.254  0.9485 -0.0243 -0.1758
22471SOL     OW69665   2.039   0.788   0.901 -0.6931  0.2621  0.2800
22471SOL    HW169666   2.076   0.848   0.966 -1.0237  0.5415  0.2157
22471SOL    HW269667   2.040   0.703   0.943 -0.2229  0.3128  0.3770
22472SOL     OW69668   1.201   6.852   7.499  0.4850  0.0350  0.4226
22472SOL    HW169669   1.291   6.873   7.473  0.4176  0.2341  0.3464
22472SOL    HW269670   1.156   6.834   7.417  0.2996  0.5553  0.4082
22473SOL     OW69671   7.133   4.198   8.318 -0.0874 -0.0453  0.0632
22473SOL    HW169672   7.150   4.107   8.291 -0.0635  0.7070 -2.7787
22473SOL    HW269673   7.214   4.227   8.359 -0.4155 -1.5531  1.9206
22474SOL     OW69674   7.801   7.018   5.192  0.4408  0.3348 -0.1638
22474SOL    HW169675   7.885   7.052   5.224  0.6273  0.3467 -0.6635
22474SOL    HW269676   7.754   7.095   5.163  0.6663  0.2211 -0.8365
22475SOL     OW69677   5.845   1.795   4.391 -0.2737  0.7931 -0.5877
22475SOL    HW169678   5.773   1.803   4.329  0.8388  0.1728 -2.0358
22475SOL    HW269679   5.815   1.841   4.469 -2.6126 -0.2610 -0.7731
22476SOL     OW69680  10.008   4.289   3.381  0.1959  0.3845 -0.4822
22476SOL    HW169681  10.089   4.336   3.399 -0.0830  0.4819  0.6139
22476SOL    HW269682   9.988   4.307   3.290  2.5215 -1.3542 -1.4298
22477SOL     OW69683   5.989   7.229   8.963  0.3085  0.9172  0.4725
22477SOL    HW169684   6.046   7.153   8.971 -2.1280 -1.0148  0.5840
22477SOL    HW269685   5.975   7.258   9.053 -0.6680 -0.0538  0.6533
22478SOL     OW69686   3.763   4.678  10.297 -0.2239 -0.1638 -0.5875
22478SOL    HW169687   3.676   4.641  10.281  0.0475 -1.3557  0.5601
22478SOL    HW269688   3.745   4.761  10.341 -0.8398 -1.8326  2.6390
22479SOL     OW69689   2.531   3.411   0.902  0.6482  0.3379  0.2131
22479SOL    HW169690   2.451   3.416   0.849 -0.5785  0.1867  1.9797
22479SOL    HW269691   2.595   3.463   0.853 -0.5117  0.4928 -1.2339
22480SOL     OW69692   5.000   4.066   0.046  0.4867  0.1318 -0.1720
22480SOL    HW169693   5.012   3.980   0.088 -0.5380  0.2075  0.2983
22480SOL    HW269694   5.079   4.077  -0.007  1.1432 -0.6209  0.6000
22481SOL     OW69695   9.695   2.872   0.980  0.8282  0.4102  0.4603
22481SOL    HW169696   9.729   2.895   0.893 -1.2616  3.5357  0.3272
22481SOL    HW269697   9.737   2.934   1.039  0.5589 -0.2538  1.3676
22482SOL     OW69698   7.229   9.496   1.479  0.2918  0.8617 -0.2452
22482SOL    HW169699   7.291   9.423   1.474  0.5536  1.1399 -1.1273
22482SOL    HW269700   7.241   9.531   1.567  1.3487  0.8762 -0.3836
22483SOL     OW69701   0.903   6.367   9.302 -0.4039 -0.1535  0.3215
22483SOL    HW169702   0.972   6.429   9.325  2.1302 -1.9656 -1.7084
22483SOL    HW269703   0.864   6.402   9.222  0.9205 -0.9674 -0.7354
22484SOL     OW69704   4.283   2.493   5.732 -0.2325 -0.5056 -0.2619
22484SOL    HW169705   4.271   2.454   5.818 -0.4784 -3.3576 -1.5030
22484SOL    HW269706   4.197   2.525   5.707 -0.2067  0.1246  0.4226
22485SOL     OW69707  10.515   9.685   4.446  0.0947 -0.0785  0.0867
22485SOL    HW169708  10.452   9.690   4.517  0.3471 -0.7617  0.3659
22485SOL    HW269709  10.600   9.682   4.489  0.2068 -1.5756 -0.1821
22486SOL     OW69710   8.435  10.315   6.991  0.0612  0.4450 -0.2820
22486SOL    HW169711   8.413  10.299   7.083  0.9557  0.8609  0.0204
22486SOL    HW269712   8.479  10.400   6.992 -1.6085  1.3733 -1.3699
22487SOL     OW69713   6.794   8.792   8.736  0.3356  0.3984 -0.2542
22487SOL    HW169714   6.714   8.844   8.746 -0.0779 -0.2877  0.1011
22487SOL    HW269715   6.861   8.855   8.711 -0.3327  0.9756 -0.6266
22488SOL     OW69716   8.807   8.380   4.561 -0.2639  0.5038 -0.4580
22488SOL    HW169717   8.764   8.324   4.496 -0.9959 -1.1782  1.3813
22488SOL    HW269718   8.880   8.327   4.593 -1.3137  0.3057  1.7335
22489SOL     OW69719   7.882   0.573   6.104  0.2690  0.8108 -0.9900
22489SOL    HW169720   7.828   0.649   6.082 -0.9985  0.1324 -0.3341
22489SOL    HW269721   7.861   0.554   6.196  0.4561 -0.4185 -1.1836
22490SOL     OW69722   9.981   5.023   2.499 -0.4271  0.3765 -0.6331
22490SOL    HW169723   9.995   4.928   2.497 -0.3001  0.2495  2.2215
22490SOL    HW269724   9.886   5.033   2.499 -0.4909  0.0886  0.9869
22491SOL     OW69725   4.367   7.691   8.345  0.0426 -0.2243  0.1941
22491SOL    HW169726   4.313   7.760   8.307 -0.4407 -1.1751 -0.8782
22491SOL    HW269727   4.427   7.738   8.404  0.3706  1.2219 -1.2161
22492SOL     OW69728   3.134   5.416   0.397 -0.5545  0.2980 -0.1437
22492SOL    HW169729   3.062   5.353   0.397 -0.5905  0.2288  2.3151
22492SOL    HW269730   3.158   5.425   0.490  1.7726  1.2716 -0.7591
22493SOL     OW69731   2.585   9.006   1.912 -0.0185 -0.1908 -0.2731
22493SOL    HW169732   2.513   8.949   1.939 -1.6900  1.6030 -0.7450
22493SOL    HW269733   2.573   9.016   1.817  0.8352  0.1744 -0.3528
22494SOL     OW69734   4.859   2.631   4.184 -0.1713 -0.1631 -0.1648
22494SOL    HW169735   4.935   2.643   4.241 -0.1824  0.5280 -0.2812
22494SOL    HW269736   4.794   2.693   4.217 -0.1643  0.2659 -0.9359
22495SOL     OW69737   1.460   4.010  10.485  0.6132 -0.6975 -0.1340
22495SOL    HW169738   1.512   4.031  10.408  0.7901 -0.7102 -0.0192
22495SOL    HW269739   1.372   4.042  10.465  0.2308 -2.2128 -1.0242
22496SOL     OW69740   6.178   1.042   9.957 -0.4271  0.0852  0.0858
22496SOL    HW169741   6.226   1.098   9.896  1.6060  0.4101  1.8613
22496SOL    HW269742   6.162   1.098  10.033  0.1131 -1.2130  1.2022
22497SOL     OW69743   0.626   5.802   0.599  0.1915  0.3530 -0.0975
22497SOL    HW169744   0.662   5.818   0.686 -0.8129 -0.4824  0.4948
22497SOL    HW269745   0.542   5.759   0.615  0.1570 -0.1605 -1.4861
22498SOL     OW69746   2.694   3.062   7.812 -0.1352  0.5648  0.0559
22498SOL    HW169747   2.653   3.046   7.727  1.4891 -1.1082 -0.4801
22498SOL    HW269748   2.784   3.085   7.791  0.1286  0.7306  1.3237
22499SOL     OW69749   1.062   6.611   2.407 -0.2278 -0.5052  0.2909
22499SOL    HW169750   1.126   6.674   2.439  0.2494 -0.6979 -0.2525
22499SOL    HW269751   0.983   6.662   2.390  0.7625  0.3639 -2.0633
22500SOL     OW69752   2.899   1.678   5.494  0.5679 -0.3415  0.8090
22500SOL    HW169753   2.834   1.686   5.424  1.7061 -1.9781 -0.5076
22500SOL    HW269754   2.946   1.761   5.492 -0.1993  0.1001  0.4699
22501SOL     OW69755   1.556   0.317   8.128 -0.5384  0.2787 -0.2939
22501SOL    HW169756   1.541   0.404   8.093 -0.8076  0.2252 -0.3137
22501SOL    HW269757   1.471   0.290   8.164  0.0821  0.9725  1.8511
22502SOL     OW69758   2.708   1.111   8.119 -0.3602  0.0403  0.0520
22502SOL    HW169759   2.681   1.084   8.032 -0.3943 -0.3687  0.1844
22502SOL    HW269760   2.676   1.201   8.129 -1.8615 -0.4979  0.2868
22503SOL     OW69761   4.019   3.345   5.777 -0.8267  0.1377  0.7735
22503SOL    HW169762   4.059   3.294   5.847 -0.1862 -0.0506  0.2771
22503SOL    HW269763   4.003   3.431   5.815 -1.0219 -0.1372  1.3205
22504SOL     OW69764   3.515   2.874   5.797 -0.0232 -0.0069 -0.1318
22504SOL    HW169765   3.547   2.843   5.713 -1.4465 -0.5474 -0.5075
22504SOL    HW269766   3.593   2.905   5.843  0.8214 -0.0133 -1.5094
22505SOL     OW69767   6.291   3.640   9.553 -0.3123  0.3716 -0.7760
22505SOL    HW169768   6.210   3.648   9.502 -0.7062 -0.9530 -0.3887
22505SOL    HW269769   6.339   3.569   9.511 -0.8818 -1.1095  0.9796
22506SOL     OW69770   9.812   1.524  10.366  0.4571 -0.4103  0.1247
22506SOL    HW169771   9.821   1.500  10.459  0.3546  3.3810  1.3006
22506SOL    HW269772   9.882   1.588  10.352 -0.2533 -0.0467 -2.1023
22507SOL     OW69773   7.045   6.586   0.312 -0.1173 -0.1710 -0.7154
22507SOL    HW169774   7.034   6.497   0.346 -0.2857 -0.2450 -0.9571
22507SOL    HW269775   6.961   6.605   0.270 -0.3559  0.3908  0.0009
22508SOL     OW69776   2.947   1.878   9.612 -0.1596  0.1778 -0.0139
22508SOL    HW169777   2.874   1.896   9.553  0.2363 -0.7065 -0.8109
22508SOL    HW269778   2.910   1.824   9.681 -0.2501 -0.3272 -0.4528
22509SOL     OW69779   1.416   3.007   6.571  0.1587 -0.2250  0.8880
22509SOL    HW169780   1.438   2.917   6.546 -0.1974  0.1220 -0.7846
22509SOL    HW269781   1.338   3.028   6.520  1.4974  1.7750 -0.5183
22510SOL     OW69782   4.553   9.718   5.223 -0.6393  0.9625 -0.6446
22510SOL    HW169783   4.574   9.806   5.194  0.6694  0.0197 -2.8277
22510SOL    HW269784   4.581   9.661   5.151 -0.5270 -1.3180  1.0630
22511SOL     OW69785   6.529   2.565   8.578 -0.2944  0.3195 -0.1885
22511SOL    HW169786   6.517   2.477   8.543  1.0069 -0.5359  1.3582
22511SOL    HW269787   6.456   2.578   8.638  0.1759 -0.2296  0.5179
22512SOL     OW69788   1.652  10.423   0.535 -0.3274 -0.0035 -0.1413
22512SOL    HW169789   1.681  10.514   0.526  2.5816 -0.4479  2.9925
22512SOL    HW269790   1.705  10.374   0.472  0.3251  0.0863  0.3434
22513SOL     OW69791   9.095   7.653   9.304 -0.3082  0.5193 -0.3837
22513SOL    HW169792   9.073   7.626   9.393  2.5201 -1.7498 -0.2214
22513SOL    HW269793   9.154   7.728   9.315  0.9029 -0.4176 -0.2043
22514SOL     OW69794   2.319   4.329   0.360  0.1711 -0.1146  0.0014
22514SOL    HW169795   2.346   4.403   0.305  0.5422  0.3945  0.8522
22514SOL    HW269796   2.375   4.334   0.437 -0.3691 -0.7923  0.4575
22515SOL     OW69797   3.382   1.164   0.178  0.0460 -0.2771 -0.3828
22515SOL    HW169798   3.322   1.166   0.103  1.1329  0.1734 -1.2726
22515SOL    HW269799   3.345   1.097   0.236 -1.2776 -0.0549 -0.9188
22516SOL     OW69800   8.525   5.871   5.923 -0.3107 -0.2040 -0.4203
22516SOL    HW169801   8.608   5.826   5.910 -1.5782 -3.0204  0.3889
22516SOL    HW269802   8.548   5.955   5.963  2.0969 -1.1332  0.2761
22517SOL     OW69803   9.601   6.531   5.712 -0.0326  0.5029  0.1333
22517SOL    HW169804   9.650   6.586   5.773 -1.2263  1.3666  0.3614
22517SOL    HW269805   9.652   6.535   5.631 -0.0167  1.8916  0.1740
22518SOL     OW69806   4.169   7.037   1.808 -0.2915  0.0888 -0.0609
22518SOL    HW169807   4.264   7.053   1.803 -0.3531  1.7500  2.2949
22518SOL    HW269808   4.157   6.953   1.764  2.5503 -1.0818  1.1103
22519SOL     OW69809  10.515   4.658   2.115 -0.3578 -0.0861  0.1013
22519SOL    HW169810  10.516   4.728   2.180  1.7769  2.6891 -2.6124
22519SOL    HW269811  10.607   4.636   2.100 -0.9046 -2.7239 -0.0325
22520SOL     OW69812   1.238   6.143   0.765  0.3352  0.4814  0.3200
22520SOL    HW169813   1.189   6.140   0.847 -0.1027  0.2477  0.0518
22520SOL    HW269814   1.294   6.221   0.773 -1.8746  2.2451 -0.4000
22521SOL     OW69815   3.397   2.409   8.078  0.2610 -0.0257  0.7725
22521SOL    HW169816   3.304   2.420   8.099  0.7883  0.3774  3.2602
22521SOL    HW269817   3.415   2.317   8.099  0.7989  0.3719  2.1568
22522SOL     OW69818   2.268   4.889   9.034  0.1932 -0.3542 -0.1119
22522SOL    HW169819   2.192   4.911   8.980 -0.2405  1.3508  1.1112
22522SOL    HW269820   2.234   4.826   9.098 -0.5015  1.1585  1.0654
22523SOL     OW69821   7.086   0.782   0.835  0.3005 -0.4585 -0.3946
22523SOL    HW169822   7.033   0.703   0.824 -1.7613  0.7974 -0.0536
22523SOL    HW269823   7.110   0.782   0.928  0.0814 -0.5646 -0.3374
22524SOL     OW69824   6.728   3.334   6.529 -0.0091  0.0814 -0.2444
22524SOL    HW169825   6.790   3.401   6.501  0.1169 -0.3988 -1.1698
22524SOL    HW269826   6.774   3.285   6.597  0.7831 -0.4856 -1.1555
22525SOL     OW69827   5.767   8.528   0.860 -0.3509 -0.4503  0.0050
22525SOL    HW169828   5.786   8.551   0.769  0.5894  0.6010  0.4350
22525SOL    HW269829   5.681   8.486   0.857 -0.8011  0.4820 -1.2518
22526SOL     OW69830   1.391   2.057   9.887  0.0723  0.2167  0.3993
22526SOL    HW169831   1.311   2.005   9.882 -0.0484  0.1053  2.6047
22526SOL    HW269832   1.459   2.001   9.849 -0.4864 -0.6150  0.6089
22527SOL     OW69833   2.303   4.334   1.475 -0.0472 -0.4225 -0.1556
22527SOL    HW169834   2.298   4.308   1.567 -1.0264 -0.9694 -0.3551
22527SOL    HW269835   2.372   4.400   1.472 -0.8802  0.5327  1.1769
22528SOL     OW69836   5.141   7.319   4.385 -0.2878 -0.0152 -0.2037
22528SOL    HW169837   5.142   7.244   4.444 -1.3887  0.0190 -0.1357
22528SOL    HW269838   5.119   7.394   4.440 -1.6668 -0.0360 -0.6986
22529SOL     OW69839   5.971   2.119   6.256 -0.4569 -0.0035 -0.8755
22529SOL    HW169840   5.964   2.033   6.215 -1.7355  0.1695 -1.0376
22529SOL    HW269841   5.941   2.105   6.346  2.0281 -0.3146 -0.0068
22530SOL     OW69842   6.185   2.983   6.998 -0.4361  0.0125  0.1270
22530SOL    HW169843   6.158   2.997   7.089 -0.4122  2.8442 -0.2205
22530SOL    HW269844   6.104   2.980   6.949 -0.4604  3.0802 -0.2319
22531SOL     OW69845   5.628  10.322   0.743  0.7869  0.0619  0.5259
22531SOL    HW169846   5.676  10.375   0.807  3.4682 -1.1999 -0.2975
22531SOL    HW269847   5.569  10.383   0.700 -0.8239  1.0499  3.8175
22532SOL     OW69848   2.848   9.052   8.118  0.4783 -0.1437 -0.0459
22532SOL    HW169849   2.820   9.045   8.027  0.9401 -0.2519 -0.1793
22532SOL    HW269850   2.844   8.962   8.151  0.9041 -0.1981 -0.1366
22533SOL     OW69851   4.065   7.255   0.801  0.1697 -0.5651 -0.7910
22533SOL    HW169852   4.008   7.256   0.724 -0.2336 -0.3690 -0.4959
22533SOL    HW269853   4.022   7.195   0.862 -0.7998  1.0672  0.2146
22534SOL     OW69854   7.355   2.576   7.670 -0.3755  0.4945  0.1920
22534SOL    HW169855   7.345   2.527   7.588  0.0965  0.8699 -0.0978
22534SOL    HW269856   7.266   2.607   7.690 -0.4971  0.3988 -0.1829
22535SOL     OW69857   4.641   7.094   9.384 -0.1537  0.7348 -0.0557
22535SOL    HW169858   4.593   7.156   9.328 -0.8241  0.2774  0.0014
22535SOL    HW269859   4.574   7.059   9.444  0.8751  2.5975  2.3371
22536SOL     OW69860   9.714   7.717   7.841  0.4358  0.1548 -0.3542
22536SOL    HW169861   9.750   7.719   7.930 -0.4620  1.9151 -0.0018
22536SOL    HW269862   9.675   7.630   7.834  1.7206 -0.5267  0.4597
22537SOL     OW69863   6.470   4.360   8.429  0.0511  0.2447  0.0457
22537SOL    HW169864   6.420   4.283   8.457 -0.8294  1.0572  0.7999
22537SOL    HW269865   6.420   4.396   8.356  0.0911  0.4731  0.1289
22538SOL     OW69866   2.289   0.727  10.615  0.2693 -0.2801  0.2869
22538SOL    HW169867   2.343   0.739  10.693  0.4193  0.7130  0.0407
22538SOL    HW269868   2.312   0.639  10.584  0.3489 -0.6098  1.2360
22539SOL     OW69869   2.661   3.914   0.771 -0.1125 -0.2243 -0.3491
22539SOL    HW169870   2.704   3.915   0.685 -1.5776 -1.8937 -1.1891
22539SOL    HW269871   2.727   3.877   0.830  0.0629 -1.6662 -1.3693
22540SOL     OW69872   4.397   9.917   2.153 -0.6642 -0.4615  0.0588
22540SOL    HW169873   4.461   9.880   2.093 -1.7657 -0.9918 -0.8388
22540SOL    HW269874   4.431   9.898   2.240  2.2141  2.4231 -0.2276
22541SOL     OW69875   4.262   1.926   8.612  0.3430 -0.7460 -0.1298
22541SOL    HW169876   4.189   1.889   8.562 -0.3783  1.0203 -0.4469
22541SOL    HW269877   4.224   1.943   8.699  0.3561  0.1475 -0.2876
22542SOL     OW69878   1.509   2.818   1.039  0.0644 -0.2251 -0.2147
22542SOL    HW169879   1.601   2.842   1.028 -0.2108  1.1438  0.3707
22542SOL    HW269880   1.490   2.763   0.963  1.6154 -1.3298  0.1645
22543SOL     OW69881   2.340   3.282   0.008  0.0825  0.4352 -0.1501
22543SOL    HW169882   2.271   3.216   0.001  1.1652 -0.8874  1.1398
22543SOL    HW269883   2.299   3.356   0.053 -0.5066 -0.3470  0.6184
22544SOL     OW69884   7.650  10.006   6.297 -0.4270 -0.0116 -0.1425
22544SOL    HW169885   7.597  10.054   6.234 -0.0610 -0.3331 -0.7010
22544SOL    HW269886   7.592   9.936   6.329 -0.6400  0.2025 -0.0627
22545SOL     OW69887   4.096   2.681  10.551 -0.6438  0.1183  0.0438
22545SOL    HW169888   4.041   2.671  10.473 -1.5009  0.1382  0.6303
22545SOL    HW269889   4.041   2.650  10.623  0.2706 -0.2516  0.6008
22546SOL     OW69890   8.446   9.544   9.325 -0.4083  0.5031 -0.8400
22546SOL    HW169891   8.487   9.517   9.407 -1.2023 -0.0813 -0.6257
22546SOL    HW269892   8.519   9.570   9.269  0.1520  0.7435 -0.0108
22547SOL     OW69893   2.508   8.112   7.241  0.4585  0.0123 -0.1834
22547SOL    HW169894   2.443   8.048   7.269  0.6145 -0.9155 -1.8088
22547SOL    HW269895   2.576   8.109   7.309 -0.5210 -0.0001  0.8224
22548SOL     OW69896   4.311   4.623   0.531 -0.0179  0.2967 -0.3240
22548SOL    HW169897   4.308   4.571   0.612 -1.7682  0.8036 -0.0295
22548SOL    HW269898   4.329   4.559   0.462  2.4339 -0.0284  0.4949
22549SOL     OW69899   4.952   8.015   0.253 -0.3254 -0.0457  0.3294
22549SOL    HW169900   5.036   8.048   0.222  0.7730 -2.5190  0.4057
22549SOL    HW269901   4.963   8.004   0.348 -1.7697  2.2606  0.8430
22550SOL     OW69902   1.177   7.712   8.908  0.9289  0.5007  0.3367
22550SOL    HW169903   1.149   7.650   8.841  0.5527  0.3089  0.6656
22550SOL    HW269904   1.244   7.665   8.958  0.1189  0.0633  1.0564
22551SOL     OW69905   7.622   6.317   6.698  0.2943 -0.0185 -0.1121
22551SOL    HW169906   7.620   6.267   6.617  1.1992  1.0221 -0.8145
22551SOL    HW269907   7.530   6.322   6.726 -0.1361  0.3052 -1.5152
22552SOL     OW69908   2.861   0.370   9.056  0.1410 -0.2989 -0.3135
22552SOL    HW169909   2.936   0.429   9.050  0.9609 -1.1987  0.7311
22552SOL    HW269910   2.898   0.282   9.043 -0.2111 -1.0369  2.8555
22553SOL     OW69911   0.720  10.365   3.179  0.2341  0.2052 -0.4306
22553SOL    HW169912   0.629  10.354   3.154  0.1606  0.6834 -0.3935
22553SOL    HW269913   0.765  10.289   3.144 -0.6698 -1.6298  2.0928
22554SOL     OW69914   6.558   9.078   7.701 -0.1765  0.3279  0.1166
22554SOL    HW169915   6.496   9.084   7.773  0.8151  0.0278  1.0243
22554SOL    HW269916   6.611   9.001   7.721 -1.0382 -0.8761 -1.8957
22555SOL     OW69917   9.887   7.886   4.377  0.1130  0.1415 -0.1797
22555SOL    HW169918   9.928   7.965   4.342 -2.3033  2.0276  0.9560
22555SOL    HW269919   9.942   7.861   4.451  0.2682  1.5160  0.2062
22556SOL     OW69920   6.217   5.136   3.173  0.0012 -0.5046  0.0895
22556SOL    HW169921   6.174   5.214   3.208 -0.5951  0.2019 -2.0410
22556SOL    HW269922   6.272   5.105   3.244 -1.2568  0.7036  1.6747
22557SOL     OW69923   7.447   9.419   0.775  0.5422  0.4847  0.2730
22557SOL    HW169924   7.427   9.352   0.841  0.2120  0.7222  0.4146
22557SOL    HW269925   7.385   9.402   0.704  1.2642 -0.1203 -0.2267
22558SOL     OW69926   4.987   0.113   0.414  0.4828 -0.7199 -0.0129
22558SOL    HW169927   4.909   0.082   0.459  0.5180 -1.3324 -0.3723
22558SOL    HW269928   4.978   0.209   0.414 -0.8087 -0.8222 -1.0274
22559SOL     OW69929   5.271   2.407   1.376 -0.2569  0.0052  0.1937
22559SOL    HW169930   5.238   2.424   1.288  0.3273  0.6934  0.0916
22559SOL    HW269931   5.293   2.494   1.410 -0.5737 -0.2434  1.0592
22560SOL     OW69932   9.773   6.014  10.191  0.0621  0.3022  0.5455
22560SOL    HW169933   9.763   6.099  10.149  2.8896  0.7083  0.4972
22560SOL    HW269934   9.690   5.969  10.176 -0.8755  2.3980 -0.9201
22561SOL     OW69935   0.105   6.167   5.157 -0.3796 -0.5242 -0.5883
22561SOL    HW169936   0.097   6.262   5.149  1.7795 -0.3673 -1.5996
22561SOL    HW269937   0.188   6.147   5.115 -2.9820 -3.4827 -5.0419
22562SOL     OW69938   9.680  10.270   8.199 -0.0668 -0.1005  0.4136
22562SOL    HW169939   9.710  10.351   8.156 -1.4367  1.1273  1.6537
22562SOL    HW269940   9.593  10.256   8.163  0.0136 -0.8286  0.4989
22563SOL     OW69941   7.304   6.431   7.440 -0.8821 -0.0564  0.5917
22563SOL    HW169942   7.392   6.420   7.406 -1.0530 -1.1097  0.4425
22563SOL    HW269943   7.316   6.440   7.535 -0.3915  3.0858  0.3413
22564SOL     OW69944   7.264   3.060   8.985 -0.4044 -0.3211  0.0045
22564SOL    HW169945   7.345   3.104   8.958 -0.9235 -0.2463 -1.5733
22564SOL    HW269946   7.240   3.006   8.910 -1.6128 -0.6439  0.5874
22565SOL     OW69947   4.959   0.410   2.699  0.5176 -0.0853 -0.1255
22565SOL    HW169948   4.902   0.446   2.631 -0.5512 -0.9155  0.2979
22565SOL    HW269949   5.041   0.390   2.654 -0.3718 -1.1886 -1.3257
22566SOL     OW69950   5.008   4.884   8.095  0.5344 -0.7329 -0.3912
22566SOL    HW169951   5.029   4.924   8.011  0.3040 -0.5459 -0.3612
22566SOL    HW269952   4.913   4.868   8.091 -0.0235  1.7172  0.8411
22567SOL     OW69953   5.928   8.900   8.177  0.1873  0.1963  0.3285
22567SOL    HW169954   5.845   8.877   8.134  1.5343 -1.1663 -1.7137
22567SOL    HW269955   5.965   8.816   8.205  0.9414  0.7772  1.1316
22568SOL     OW69956   4.484   5.321   6.788 -0.6465  0.4714 -0.6066
22568SOL    HW169957   4.549   5.371   6.838  0.2717  0.0846 -1.3796
22568SOL    HW269958   4.409   5.380   6.780 -0.1909  1.1265 -0.1512
22569SOL     OW69959   2.780   4.152   9.272  0.3295  0.0480  0.2630
22569SOL    HW169960   2.748   4.224   9.217  0.0806  0.2109  0.6144
22569SOL    HW269961   2.753   4.073   9.225  1.8128  0.1501 -0.8379
22570SOL     OW69962   6.608   0.936   6.375 -0.0609 -0.2941 -0.2185
22570SOL    HW169963   6.578   0.853   6.338 -1.0603  0.1150 -0.3561
22570SOL    HW269964   6.529   0.978   6.408  0.4575  0.5212  0.0183
22571SOL     OW69965   6.419   8.034   1.163 -0.0875 -0.0401  0.9976
22571SOL    HW169966   6.377   8.000   1.084  1.1805  1.1081 -0.2233
22571SOL    HW269967   6.377   7.985   1.234 -1.9427 -0.4557 -0.2763
22572SOL     OW69968   8.939   4.188   8.079 -0.0683 -0.1131 -0.3827
22572SOL    HW169969   8.890   4.178   7.998 -0.1338  1.7802 -0.6166
22572SOL    HW269970   9.016   4.238   8.055 -1.3051  2.7406  1.0712
22573SOL     OW69971   0.758   0.479   8.704 -0.5940  0.0375 -0.2512
22573SOL    HW169972   0.693   0.454   8.639 -1.3132  1.5895 -0.1821
22573SOL    HW269973   0.828   0.416   8.694 -1.5071 -0.8525 -1.2686
22574SOL     OW69974   7.542   4.947   8.079 -0.2147 -0.1660  0.2012
22574SOL    HW169975   7.531   5.041   8.088 -1.0097 -0.3782  2.0480
22574SOL    HW269976   7.600   4.922   8.151  1.1034 -0.9424 -1.0723
22575SOL     OW69977   4.114   9.343   3.254 -0.5970  0.0349  0.2506
22575SOL    HW169978   4.077   9.319   3.170 -0.6688  1.1871 -0.0576
22575SOL    HW269979   4.039   9.363   3.310 -0.5304  2.4269 -0.3913
22576SOL     OW69980   1.929   3.594   3.843 -0.3358  0.0013 -0.3452
22576SOL    HW169981   1.842   3.621   3.812  0.0905  2.0021  0.0785
22576SOL    HW269982   1.989   3.652   3.796  0.6847 -0.5269  0.2967
22577SOL     OW69983   1.510   3.463   5.705 -0.5788  0.8492  0.6314
22577SOL    HW169984   1.556   3.529   5.653 -0.7648  1.7640  1.5837
22577SOL    HW269985   1.561   3.457   5.787 -0.8975  0.2372  0.7927
22578SOL     OW69986  10.277   1.703   6.811 -0.0362 -0.4342  0.8191
22578SOL    HW169987  10.271   1.613   6.843  2.8760 -0.6535  1.0199
22578SOL    HW269988  10.300   1.754   6.889  1.3550 -0.0422  0.1818
22579SOL     OW69989   0.054   8.304   2.386 -0.5932  0.0141  0.0782
22579SOL    HW169990   0.061   8.210   2.402  0.3904  0.2085  0.8405
22579SOL    HW269991  -0.040   8.321   2.386 -0.9035 -1.2531 -1.8478
22580SOL     OW69992   7.535   0.757   0.054 -0.3149 -0.0729 -0.1238
22580SOL    HW169993   7.600   0.822   0.027  0.2160 -0.8760 -0.8356
22580SOL    HW269994   7.451   0.802   0.045  0.0388  0.4960 -0.6801
22581SOL     OW69995   9.518   4.613   5.913  0.7658 -0.3513 -0.1498
22581SOL    HW169996   9.543   4.706   5.918 -0.6965  0.0791 -0.2803
22581SOL    HW269997   9.487   4.592   6.002 -0.0190 -0.3545 -0.4130
22582SOL     OW69998   8.408   9.393  10.539 -0.1665  0.3224  0.1483
22582SOL    HW169999   8.438   9.325  10.599 -1.0475 -1.1942 -1.0736
22582SOL    HW270000   8.319   9.412  10.568 -0.2747  0.2401 -0.1336
22583SOL     OW70001   6.546   2.463   6.860  0.3480  0.3357 -0.5928
22583SOL    HW170002   6.459   2.426   6.845  0.1560  1.2465 -1.9447
22583SOL    HW270003   6.602   2.421   6.794  1.0032 -0.4063  0.4104
22584SOL     OW70004   5.492  10.201   6.764 -0.2114  0.0582 -0.0096
22584SOL    HW170005   5.456  10.258   6.696 -1.6767 -1.4924 -0.5910
22584SOL    HW270006   5.580  10.236   6.780 -1.1457  2.6788 -0.0653
22585SOL     OW70007   3.614   5.328   7.619 -0.7615  0.1364  1.0570
22585SOL    HW170008   3.552   5.345   7.689 -1.8989 -1.7861  0.6068
22585SOL    HW270009   3.577   5.252   7.573  1.5216 -0.5705  0.2709
22586SOL     OW70010   5.145   7.168   8.479  0.6113 -0.1355  0.1930
22586SOL    HW170011   5.119   7.108   8.409  3.9714 -1.8819  0.2764
22586SOL    HW270012   5.121   7.254   8.446 -0.7567 -1.1589 -1.6948
22587SOL     OW70013   8.623   0.494   6.434  0.4923  0.4452 -0.1908
22587SOL    HW170014   8.540   0.450   6.446  0.8545  0.0764  1.1633
22587SOL    HW270015   8.627   0.513   6.340 -0.1577 -1.4081 -0.6364
22588SOL     OW70016   2.977   8.729   5.077  0.0387 -0.2733  0.0083
22588SOL    HW170017   2.993   8.640   5.045  2.1888 -0.0195  0.2225
22588SOL    HW270018   3.024   8.734   5.160  0.6291  1.2915 -0.3810
22589SOL     OW70019   1.357   2.515   2.048  0.2676 -0.5053  0.4402
22589SOL    HW170020   1.324   2.426   2.036 -1.7120 -0.1217  2.3907
22589SOL    HW270021   1.452   2.507   2.039  0.1119 -2.7261  0.2010
22590SOL     OW70022   5.002   6.595   5.183  0.0560 -0.0338  0.3018
22590SOL    HW170023   4.953   6.519   5.151 -0.3016  0.9602 -1.6524
22590SOL    HW270024   5.040   6.566   5.266 -2.1205 -1.5151  0.8602
22591SOL     OW70025   8.654   5.420   9.735  0.1091  0.2308 -0.9414
22591SOL    HW170026   8.673   5.382   9.821 -0.0219  1.1344 -0.4998
22591SOL    HW270027   8.558   5.420   9.729  0.1376 -1.5582 -1.8969
22592SOL     OW70028  10.492   7.339   0.498  0.0639 -0.0289  0.0961
22592SOL    HW170029  10.471   7.411   0.439 -2.1988 -0.7177 -0.0327
22592SOL    HW270030  10.574   7.366   0.541 -0.3807  2.3176 -0.3944
22593SOL     OW70031   2.589   5.470   8.234  0.0959  0.3145 -0.3518
22593SOL    HW170032   2.578   5.555   8.192  1.1106 -0.2553 -1.8590
22593SOL    HW270033   2.562   5.406   8.167 -2.1652 -0.5747  1.2475
22594SOL     OW70034   0.790   9.166   3.829  0.1871  0.0521  0.4012
22594SOL    HW170035   0.818   9.258   3.829 -0.9080  0.3997  0.0461
22594SOL    HW270036   0.722   9.162   3.761 -1.2648 -0.5409  1.8350
22595SOL     OW70037   9.742   6.537   6.996  0.6138 -0.4417 -0.7776
22595SOL    HW170038   9.718   6.616   7.044 -0.3475 -0.9040 -0.4730
22595SOL    HW270039   9.837   6.541   6.990  0.7195 -0.0639  0.6478
22596SOL     OW70040   2.064   2.482   0.331  0.1171 -0.2032 -0.1917
22596SOL    HW170041   2.082   2.411   0.393 -2.2020  0.5470  1.4756
22596SOL    HW270042   2.150   2.519   0.311  0.9163  0.2552  3.5266
22597SOL     OW70043   1.549   7.021   5.736 -0.0671  0.1572 -0.4201
22597SOL    HW170044   1.620   6.965   5.703 -0.5864 -0.5686 -0.3239
22597SOL    HW270045   1.576   7.044   5.825  0.9507  1.4559 -1.0248
22598SOL     OW70046   6.544   4.032   8.772  0.1954 -0.0719 -0.0537
22598SOL    HW170047   6.458   4.000   8.801  0.2812 -1.2290 -0.9895
22598SOL    HW270048   6.544   4.125   8.793 -0.7192 -0.3471  1.2932
22599SOL     OW70049   0.792   0.699   2.525  0.3993  0.2658  0.3451
22599SOL    HW170050   0.879   0.730   2.549  0.6056 -0.5330  0.6627
22599SOL    HW270051   0.800   0.671   2.434  0.7882 -0.8607  0.7027
22600SOL     OW70052   1.572   4.094   5.799  0.6971  0.4458  0.4022
22600SOL    HW170053   1.481   4.122   5.805 -0.1548 -1.7747 -0.9598
22600SOL    HW270054   1.590   4.054   5.884  0.0138 -0.1270  0.2871
22601SOL     OW70055   3.187   1.423   0.720  0.1208 -0.2135 -0.2632
22601SOL    HW170056   3.282   1.424   0.734  0.1233  1.0607 -0.2679
22601SOL    HW270057   3.172   1.343   0.670  1.2605 -0.1754 -0.7136
22602SOL     OW70058   9.766  10.631   3.282  0.4433 -0.2288  0.1446
22602SOL    HW170059   9.689  10.596   3.238  0.2036  0.8816 -0.3479
22602SOL    HW270060   9.732  10.697   3.342  0.9663 -0.0863  0.2931
22603SOL     OW70061   5.918   3.867   9.250 -0.3234 -0.5043  0.1880
22603SOL    HW170062   5.983   3.832   9.190 -1.9266  0.5561 -2.3437
22603SOL    HW270063   5.834   3.854   9.206 -1.6670  0.0017  2.3948
22604SOL     OW70064   8.869   3.105   7.197 -0.0403  0.4003 -0.3062
22604SOL    HW170065   8.953   3.059   7.196  0.3657  1.0158 -2.7341
22604SOL    HW270066   8.872   3.160   7.118 -2.4945  0.8775 -0.1344
22605SOL     OW70067   9.041  10.530   4.188  0.0875 -0.1238 -0.7222
22605SOL    HW170068   8.982  10.596   4.154  0.7379  1.0787  0.3928
22605SOL    HW270069   9.101  10.511   4.115  0.5150  1.2738 -0.7626
22606SOL     OW70070   2.372   8.313   0.509 -0.4965  0.6063 -0.0131
22606SOL    HW170071   2.416   8.345   0.430 -2.9974  3.9394 -0.2835
22606SOL    HW270072   2.439   8.319   0.577  1.0008  0.0908 -1.3752
22607SOL     OW70073   2.781   8.699   0.860  0.1075  0.3281  0.2767
22607SOL    HW170074   2.867   8.722   0.896  0.0122  0.4297  0.4429
22607SOL    HW270075   2.780   8.739   0.774  0.6051 -0.4910 -0.1256
22608SOL     OW70076  10.026   5.058   8.501 -0.2814  0.1509  0.0230
22608SOL    HW170077  10.051   4.998   8.572  0.9879 -0.1426 -0.6449
22608SOL    HW270078  10.079   5.136   8.516 -1.0455  0.6443  0.1946
22609SOL     OW70079   6.638   7.595   4.467  0.1504  0.5521  0.8535
22609SOL    HW170080   6.724   7.604   4.507  0.4675 -1.8594  0.8754
22609SOL    HW270081   6.655   7.551   4.384 -0.9272  1.6191  0.0171
22610SOL     OW70082   4.318   9.797   3.268  0.4011 -0.3309  0.1706
22610SOL    HW170083   4.289   9.816   3.179 -1.3771  0.8708  0.9582
22610SOL    HW270084   4.407   9.832   3.272  0.9321 -1.3699 -1.4133
22611SOL     OW70085   6.273   3.693   1.831 -0.2632  0.4661 -0.6071
22611SOL    HW170086   6.347   3.736   1.787  0.5936 -0.1481  0.1903
22611SOL    HW270087   6.215   3.666   1.760  0.5271  0.5175 -1.2809
22612SOL     OW70088   5.131   4.875   7.395  0.4311 -0.3159 -0.0840
22612SOL    HW170089   5.137   4.971   7.398  0.8677 -0.3199 -0.6761
22612SOL    HW270090   5.222   4.846   7.398  0.2716 -0.7522  1.0126
22613SOL     OW70091   8.553   6.103   3.516 -0.3282  0.1579 -0.1088
22613SOL    HW170092   8.481   6.091   3.454  0.7185  1.3668 -1.6350
22613SOL    HW270093   8.562   6.198   3.524 -0.1888  0.0339  1.6514
22614SOL     OW70094   4.663   5.882   7.160  0.4454 -0.3527  0.3064
22614SOL    HW170095   4.572   5.857   7.173  0.3403 -0.2914 -0.2673
22614SOL    HW270096   4.674   5.884   7.065  1.5237 -2.0976  0.3577
22615SOL     OW70097   4.017   4.534  10.194  0.4737  0.3010 -0.3326
22615SOL    HW170098   4.087   4.537  10.259  0.6802 -0.2623 -0.5257
22615SOL    HW270099   3.961   4.608  10.217  0.3916 -0.0540  0.6556
22616SOL     OW70100   2.549   0.441   3.247  0.4569  0.5339 -0.2104
22616SOL    HW170101   2.490   0.382   3.294  0.8960 -0.0101 -0.3361
22616SOL    HW270102   2.527   0.528   3.281 -0.7104  0.4019 -0.5589
22617SOL     OW70103   3.791   9.771   0.832 -0.1448  0.2238  0.3491
22617SOL    HW170104   3.777   9.787   0.925  1.6738  0.6656  0.5802
22617SOL    HW270105   3.842   9.690   0.829  0.8683  0.8561 -0.1719
22618SOL     OW70106   8.516   2.448   4.296  0.1635  0.0147  1.0165
22618SOL    HW170107   8.493   2.378   4.234  1.0668  0.5200  0.0709
22618SOL    HW270108   8.433   2.471   4.337 -0.9900  1.3155 -1.7723
22619SOL     OW70109   9.304   6.803   3.287 -0.1996  0.8472  0.0305
22619SOL    HW170110   9.382   6.845   3.322 -0.5127  0.4971  1.2166
22619SOL    HW270111   9.261   6.871   3.235  1.2548  0.8211 -1.2676
22620SOL     OW70112   7.015   2.340   1.666 -0.4179  0.1037 -0.1923
22620SOL    HW170113   7.098   2.329   1.621 -1.0551 -1.9891 -0.9488
22620SOL    HW270114   7.033   2.405   1.734  1.3103  1.1404 -1.5581
22621SOL     OW70115   2.959   9.061   5.513  0.1846 -0.0420  0.1499
22621SOL    HW170116   3.014   9.085   5.438 -0.2344 -0.1449 -0.1922
22621SOL    HW270117   2.870   9.083   5.486  0.1666  1.2117  1.1376
22622SOL     OW70118   5.495   1.624  10.469  0.2688 -0.5409  0.5356
22622SOL    HW170119   5.575   1.641  10.519 -0.4735 -0.1102  1.6005
22622SOL    HW270120   5.424   1.646  10.529 -0.6623 -1.2692 -0.2696
22623SOL     OW70121   5.250   3.893   0.696 -0.3186 -0.3236 -0.4252
22623SOL    HW170122   5.259   3.801   0.723  0.8328 -0.1053 -0.0196
22623SOL    HW270123   5.244   3.942   0.778  1.2540  0.1538 -0.5555
22624SOL     OW70124   0.258   7.944   5.086  0.0017  0.3190 -0.3550
22624SOL    HW170125   0.181   7.893   5.060  0.0502  0.0710 -0.0347
22624SOL    HW270126   0.314   7.880   5.131 -0.4233  0.8775  1.0157
22625SOL     OW70127   1.016  10.171   0.422  1.0315 -0.2538  0.2309
22625SOL    HW170128   1.081  10.185   0.490 -1.1770 -0.2854  2.4652
22625SOL    HW270129   1.002  10.257   0.382  0.8311  0.2028  1.2748
22626SOL     OW70130   9.175   9.030   6.102  0.2899  0.1781  0.3565
22626SOL    HW170131   9.255   9.073   6.131  0.1988  1.0912 -0.6831
22626SOL    HW270132   9.150   9.076   6.022 -0.3593 -1.1842 -0.2611
22627SOL     OW70133   4.557   6.452   7.446  0.7714  0.3841 -0.0164
22627SOL    HW170134   4.576   6.461   7.353 -2.4238  0.9633 -0.7383
22627SOL    HW270135   4.494   6.380   7.451 -0.2956  1.3483  1.4537
22628SOL     OW70136   7.661   6.195   9.082 -0.4673  0.3877  0.3985
22628SOL    HW170137   7.583   6.143   9.065  0.3759 -0.5872 -0.6606
22628SOL    HW270138   7.682   6.177   9.174 -1.5001  0.7178  0.7163
22629SOL     OW70139   1.292   1.463   5.525 -0.1245  0.0210  0.2269
22629SOL    HW170140   1.234   1.411   5.580 -1.1125  0.1165 -0.7080
22629SOL    HW270141   1.363   1.403   5.501 -1.7334 -1.2669 -1.6424
22630SOL     OW70142   8.600   5.329   1.646  0.4427 -0.0880 -0.1400
22630SOL    HW170143   8.635   5.367   1.565 -1.1574  1.7492 -0.0532
22630SOL    HW270144   8.512   5.301   1.623 -0.2242  0.9327  1.0553
22631SOL     OW70145   0.045   0.169   7.184  0.6636  0.2876  0.2614
22631SOL    HW170146   0.024   0.262   7.176  1.3453  0.3361 -1.3435
22631SOL    HW270147   0.138   0.167   7.207  1.3353  0.0493 -2.1554
22632SOL     OW70148   3.671   9.395   0.620  0.1347  0.7928 -0.5775
22632SOL    HW170149   3.687   9.302   0.638  2.0275  0.8334 -1.7382
22632SOL    HW270150   3.727   9.441   0.682  0.8178  1.0872 -1.3943
22633SOL     OW70151   5.239   3.253   8.890  0.2789 -0.2239 -0.8034
22633SOL    HW170152   5.328   3.259   8.925 -0.2677  0.8662  0.5193
22633SOL    HW270153   5.237   3.170   8.843  1.0775 -1.9211  1.9115
22634SOL     OW70154   9.055   8.480   9.428  0.0568 -0.3696 -0.2682
22634SOL    HW170155   9.013   8.407   9.384 -3.6027  1.5346 -0.2758
22634SOL    HW270156   9.050   8.552   9.366  0.3888  0.7766  0.9872
22635SOL     OW70157   6.621   5.250  10.190 -0.2576  0.2255  0.1226
22635SOL    HW170158   6.626   5.159  10.161  2.0332  0.1911  0.4627
22635SOL    HW270159   6.682   5.297  10.133  2.2147  0.6635  2.9098
22636SOL     OW70160   5.992   3.903   2.978 -0.2436 -0.3682 -0.1500
22636SOL    HW170161   6.007   3.998   2.983  0.5592 -0.5086  0.3707
22636SOL    HW270162   5.904   3.891   3.013 -0.5880  0.2391 -0.7728
22637SOL     OW70163   5.071   2.763   9.454  0.6463 -0.1291 -0.2495
22637SOL    HW170164   5.045   2.749   9.545 -2.3069  0.9822 -0.8217
22637SOL    HW270165   5.167   2.758   9.456  0.7127  0.1760  2.9630
22638SOL     OW70166   7.900   6.157   5.151  0.1627 -0.4191 -0.3984
22638SOL    HW170167   7.832   6.211   5.190  0.7054 -0.8472  1.2354
22638SOL    HW270168   7.972   6.218   5.133  0.8546 -0.5556  1.6349
22639SOL     OW70169   8.145   0.434   7.173 -0.3153  0.2106  0.0407
22639SOL    HW170170   8.095   0.386   7.239  0.7229 -1.9892 -0.6687
22639SOL    HW270171   8.234   0.436   7.208 -0.1832  0.9866 -0.3113
22640SOL     OW70172   6.514   3.581   7.472 -0.2204  0.2426 -0.2474
22640SOL    HW170173   6.518   3.673   7.448 -0.0855  0.8936  2.0361
22640SOL    HW270174   6.593   3.565   7.523 -1.2237 -0.5533  1.1515
22641SOL     OW70175   7.990  10.416   7.439 -0.0844 -0.2845  0.1770
22641SOL    HW170176   7.981  10.423   7.344 -2.0240 -0.2586  0.3247
22641SOL    HW270177   7.919  10.469   7.475  0.2222 -0.7959  1.6427
22642SOL     OW70178   5.488   3.853   0.240 -0.4022 -0.3804 -0.2271
22642SOL    HW170179   5.464   3.764   0.214 -1.7035  0.1553 -0.9639
22642SOL    HW270180   5.571   3.870   0.196  0.0728 -1.3633  0.2545
22643SOL     OW70181   3.505   1.623   2.300 -0.2750  0.4867  0.2995
22643SOL    HW170182   3.509   1.713   2.267 -2.1637  0.1145 -1.1248
22643SOL    HW270183   3.426   1.622   2.354 -0.0857 -0.2431  0.5626
22644SOL     OW70184   6.245   5.101   7.917 -0.7767  0.0562 -0.1032
22644SOL    HW170185   6.325   5.147   7.892 -0.9606  0.9131  0.8350
22644SOL    HW270186   6.224   5.134   8.004 -2.2337 -0.0532 -0.3827
22645SOL     OW70187   4.748   4.423   7.878 -0.2563  0.0163 -0.7715
22645SOL    HW170188   4.741   4.372   7.959 -1.4705  0.0828 -0.8158
22645SOL    HW270189   4.713   4.365   7.810  0.9693 -0.1256 -1.3050
22646SOL     OW70190   0.499   8.280  10.355 -0.0250 -0.1001 -0.3657
22646SOL    HW170191   0.541   8.329  10.284  0.5761 -0.2370 -0.1108
22646SOL    HW270192   0.475   8.196  10.316  0.9635 -0.4553 -0.2202
22647SOL     OW70193   5.481  10.293   2.651  0.2384  0.2679 -0.0734
22647SOL    HW170194   5.542  10.266   2.582  0.5568 -0.7684  0.5781
22647SOL    HW270195   5.456  10.211   2.694 -0.7960  0.7881  0.3540
22648SOL     OW70196   8.426   6.591   7.116 -0.1253  0.2100  0.0986
22648SOL    HW170197   8.450   6.512   7.164  1.5228  1.7115  1.9404
22648SOL    HW270198   8.342   6.617   7.154  0.0179  0.0984  0.5023
22649SOL     OW70199   2.889   9.676   3.224  0.4185 -0.3971  0.8944
22649SOL    HW170200   2.833   9.742   3.265 -0.2856 -1.1284  1.1209
22649SOL    HW270201   2.974   9.720   3.215 -0.5236  1.2478 -0.8191
22650SOL     OW70202   5.492   3.283  10.360 -0.0359 -0.3014 -0.0255
22650SOL    HW170203   5.570   3.231  10.339 -0.0191 -0.1232 -0.4098
22650SOL    HW270204   5.454   3.305  10.275 -0.0067  0.3700  0.1248
22651SOL     OW70205   2.191   8.694   7.167 -0.0217 -0.3699 -0.7529
22651SOL    HW170206   2.166   8.616   7.218  0.8238 -1.3759 -1.8096
22651SOL    HW270207   2.130   8.695   7.094  0.5329 -0.5766 -1.2274
22652SOL     OW70208   6.988   4.618   8.009 -0.1247  0.0415 -0.3287
22652SOL    HW170209   6.987   4.585   7.919  0.0924  0.6484 -0.5626
22652SOL    HW270210   7.070   4.667   8.015 -0.1958  0.1024  0.1651
22653SOL     OW70211   8.494   3.146   0.789 -0.2431 -0.5658 -0.4856
22653SOL    HW170212   8.510   3.231   0.747 -0.1199 -0.4294 -0.1673
22653SOL    HW270213   8.579   3.101   0.785 -0.5575 -1.1031 -1.5924
22654SOL     OW70214   6.731   1.903   3.082 -0.3012 -0.6362  0.4272
22654SOL    HW170215   6.658   1.956   3.115  1.5852  1.8517  0.9493
22654SOL    HW270216   6.737   1.926   2.990 -1.8553 -3.0395 -0.3596
22655SOL     OW70217   9.523   5.893   6.296  0.4674 -0.6355 -0.8616
22655SOL    HW170218   9.525   5.969   6.237  1.2360 -0.6398 -0.8574
22655SOL    HW270219   9.507   5.930   6.382 -0.6272 -0.6247 -1.0600
22656SOL     OW70220   6.682   0.549   8.295 -0.0864  0.8267  0.3821
22656SOL    HW170221   6.668   0.462   8.332 -0.8637  0.5972 -0.4387
22656SOL    HW270222   6.600   0.595   8.311 -0.1412  0.9888 -0.3324
22657SOL     OW70223   1.217   3.375   3.791 -0.2856 -0.9752 -0.5587
22657SOL    HW170224   1.203   3.413   3.705  0.7250 -2.9993 -1.6891
22657SOL    HW270225   1.313   3.372   3.801 -0.3893 -0.6901  0.6703
22658SOL     OW70226   4.068   1.357   4.037  0.0469  0.3841  0.6934
22658SOL    HW170227   4.018   1.437   4.018 -0.3148 -0.0507 -0.2502
22658SOL    HW270228   4.033   1.325   4.120  1.2863  2.0521  1.9326
22659SOL     OW70229   5.885   5.806   6.544 -0.0715 -0.2263  0.3734
22659SOL    HW170230   5.815   5.769   6.490 -1.3019  0.4869  1.4124
22659SOL    HW270231   5.839   5.850   6.615  1.4380  0.8109  0.7460
22660SOL     OW70232   7.670   6.770   7.380 -0.1141  0.2230  0.4043
22660SOL    HW170233   7.759   6.802   7.364  0.9274 -2.4881  0.2652
22660SOL    HW270234   7.649   6.802   7.468  1.1945  0.5066  0.6371
22661SOL     OW70235   0.739   9.315   5.805  0.3061 -0.1279  0.0441
22661SOL    HW170236   0.663   9.289   5.753  0.1397  1.8951 -0.8194
22661SOL    HW270237   0.810   9.324   5.741  0.6195  0.4575  0.4607
22662SOL     OW70238   9.157   3.313   7.644 -0.0707  0.3887 -0.3035
22662SOL    HW170239   9.161   3.377   7.715  0.3032  0.4409 -0.3697
22662SOL    HW270240   9.185   3.230   7.684 -0.5002  0.2733 -0.2314
22663SOL     OW70241   2.190   0.893   7.165 -0.1304 -0.3321  0.4218
22663SOL    HW170242   2.102   0.931   7.163  0.1684  0.3739  0.3710
22663SOL    HW270243   2.210   0.886   7.258  0.8244  2.0980  0.4824
22664SOL     OW70244   0.678   1.212   9.605  1.0302 -0.0032 -0.1446
22664SOL    HW170245   0.611   1.241   9.666  1.3402  0.7786 -0.1576
22664SOL    HW270246   0.672   1.117   9.605  1.7124 -0.0886  1.9001
22665SOL     OW70247   7.246   3.831   0.472  0.1116  0.4099  0.1738
22665SOL    HW170248   7.157   3.801   0.456  0.2086  0.5586 -0.6893
22665SOL    HW270249   7.248   3.853   0.565 -0.3359 -0.9817  0.5304
22666SOL     OW70250   9.456   7.845   1.041 -0.0344 -0.2116 -0.0234
22666SOL    HW170251   9.522   7.776   1.035 -1.0251 -1.0696 -1.5417
22666SOL    HW270252   9.374   7.802   1.017 -0.8471  1.2692 -0.0023
22667SOL     OW70253   1.879   7.919   2.615 -0.4813  0.6795  0.5127
22667SOL    HW170254   1.816   7.939   2.546 -1.3921  1.7617  1.6134
22667SOL    HW270255   1.832   7.934   2.696  0.4020 -1.0694  1.4195
22668SOL     OW70256   5.659   2.767   9.002  0.1096 -0.0796  0.1055
22668SOL    HW170257   5.628   2.688   8.959  1.2109  0.3602 -1.6009
22668SOL    HW270258   5.591   2.832   8.985 -0.1360 -0.2854  0.2967
22669SOL     OW70259   8.657   2.234   2.260 -0.3820  0.2011 -0.7734
22669SOL    HW170260   8.731   2.210   2.316 -0.4634  0.8704 -0.3844
22669SOL    HW270261   8.697   2.283   2.188 -0.2635 -0.7531 -1.3829
22670SOL     OW70262   6.983   9.167   2.682 -0.6306 -0.4526 -0.1331
22670SOL    HW170263   6.947   9.177   2.770  0.0726  1.3624  0.0015
22670SOL    HW270264   6.906   9.164   2.625 -1.0640 -0.5923  0.4467
22671SOL     OW70265   1.359   7.402   3.587  0.2247  0.7754 -0.2878
22671SOL    HW170266   1.427   7.468   3.590 -0.2799  1.2938 -0.1218
22671SOL    HW270267   1.317   7.414   3.502  1.8142 -1.0691 -1.4437
22672SOL     OW70268  10.470   7.854   7.493 -0.0052 -0.4554  0.5568
22672SOL    HW170269  10.512   7.774   7.527  1.6263 -0.6818 -1.7741
22672SOL    HW270270  10.535   7.922   7.509 -0.1139 -0.1789 -0.1990
22673SOL     OW70271   1.074   5.262  10.249  0.6367 -0.3090  0.1961
22673SOL    HW170272   1.140   5.192  10.255 -0.9960 -1.8534  1.4169
22673SOL    HW270273   1.023   5.253  10.329 -0.7228  1.1853 -0.4487
22674SOL     OW70274   1.158   9.092   3.063 -0.3283  0.4696  0.1070
22674SOL    HW170275   1.187   9.070   2.974  0.5427  2.7640 -0.2534
22674SOL    HW270276   1.064   9.106   3.054 -0.3617  0.0380 -0.3018
22675SOL     OW70277   1.328   0.537  10.642 -0.2882 -0.2081 -0.3536
22675SOL    HW170278   1.325   0.454  10.595  1.1170 -0.5557  0.1237
22675SOL    HW270279   1.240   0.573  10.633 -1.1587 -2.1176  0.0999
22676SOL     OW70280   4.779   7.964   7.074 -1.0203  0.0965 -0.6123
22676SOL    HW170281   4.777   7.945   7.168  0.4554 -0.4767 -0.6585
22676SOL    HW270282   4.731   7.892   7.034  0.1707 -0.8509 -0.4169
22677SOL     OW70283   3.229   3.340   4.803  0.1872  0.2785  0.1776
22677SOL    HW170284   3.249   3.249   4.828  1.3040  0.7576  1.0979
22677SOL    HW270285   3.170   3.331   4.728  0.4602 -1.2123  0.1014
22678SOL     OW70286   4.325   2.338   5.521 -0.0419  0.7410  0.6880
22678SOL    HW170287   4.310   2.406   5.587 -0.1496  0.2088  1.2185
22678SOL    HW270288   4.254   2.350   5.458 -0.6084  0.5347  1.2732
22679SOL     OW70289   9.739   1.911   2.696  0.1173  0.2348 -0.3317
22679SOL    HW170290   9.822   1.866   2.710 -0.8018 -1.3127  0.4228
22679SOL    HW270291   9.673   1.852   2.732 -1.4177  0.9730 -1.7850
22680SOL     OW70292   4.294   0.493   6.070 -0.0325  0.1135 -0.1333
22680SOL    HW170293   4.274   0.547   5.994  2.8539  1.3062 -0.1560
22680SOL    HW270294   4.301   0.404   6.036 -2.3852  0.0157 -0.5270
22681SOL     OW70295   7.215   1.439   3.476 -0.4603  0.1527 -0.6344
22681SOL    HW170296   7.152   1.369   3.459  0.8764 -0.9970 -1.0898
22681SOL    HW270297   7.226   1.482   3.391  0.2107 -0.3914 -0.8294
22682SOL     OW70298   0.951   5.362   7.117 -0.2470  0.0006  0.2379
22682SOL    HW170299   0.994   5.324   7.194  2.0617  0.6877 -0.6443
22682SOL    HW270300   0.940   5.289   7.057  2.7885  0.2998 -0.8370
22683SOL     OW70301   1.584   1.547   5.522  0.2113 -0.1094  0.2658
22683SOL    HW170302   1.501   1.554   5.569  1.0078  0.9104  1.6027
22683SOL    HW270303   1.569   1.594   5.440 -0.4779  0.2084  0.5642
22684SOL     OW70304   3.024   0.020   4.070 -0.9485  0.1826  0.2223
22684SOL    HW170305   2.945   0.024   4.016  0.8488 -0.9502 -2.7672
22684SOL    HW270306   3.040  -0.074   4.081  1.0698  0.2991 -1.1380
22685SOL     OW70307   5.271   1.462   4.096 -0.2330  0.2353  0.3458
22685SOL    HW170308   5.356   1.419   4.086 -0.0845  0.3171  1.2004
22685SOL    HW270309   5.212   1.392   4.123 -0.1472  0.4208  1.0322
22686SOL     OW70310   0.660   7.518   1.292 -0.0414  0.0416 -0.3688
22686SOL    HW170311   0.689   7.551   1.377 -0.6867 -1.1022  0.3178
22686SOL    HW270312   0.568   7.542   1.287  0.1346  0.5949 -0.9973
22687SOL     OW70313   2.701   2.331   7.196  0.2725  0.3478 -0.4631
22687SOL    HW170314   2.701   2.243   7.157  0.6275  0.6309 -1.1189
22687SOL    HW270315   2.776   2.331   7.255 -0.8545 -0.4206  1.0420
22688SOL     OW70316   4.921   8.011   2.082  0.0352  0.2854  0.6599
22688SOL    HW170317   4.927   8.073   2.010  0.5794  0.5661  0.9382
22688SOL    HW270318   4.838   8.033   2.125 -0.3755  0.0001  0.0213
22689SOL     OW70319   6.583   6.972   3.954 -0.5249  0.0034 -0.1968
22689SOL    HW170320   6.648   6.961   3.885 -1.2223 -1.1131 -0.7165
22689SOL    HW270321   6.512   6.912   3.929 -1.0676  0.0464  1.1609
22690SOL     OW70322   7.609   5.529   1.609  0.2052 -0.2286 -0.2325
22690SOL    HW170323   7.597   5.600   1.547 -0.3301 -0.5680 -0.5309
22690SOL    HW270324   7.531   5.533   1.665  1.2373  0.8407  1.2239
22691SOL     OW70325   6.858   6.266   6.554  0.4377  0.1940 -0.0718
22691SOL    HW170326   6.807   6.186   6.567  1.8294 -0.4778  1.5136
22691SOL    HW270327   6.792   6.335   6.541 -0.8605 -0.7555  1.2242
22692SOL     OW70328   5.091   7.540   9.328  0.2174  0.2960 -0.0192
22692SOL    HW170329   5.099   7.449   9.356  0.4427  0.3896  0.2194
22692SOL    HW270330   5.139   7.590   9.393 -1.2411  0.7517  0.7559
22693SOL     OW70331   7.712   1.706   0.077 -0.5020 -0.0850 -0.7480
22693SOL    HW170332   7.775   1.639   0.105 -1.9910 -0.9636  0.6594
22693SOL    HW270333   7.639   1.656   0.041 -2.5142  0.5847  2.0963
22694SOL     OW70334   4.765   9.068   8.608 -0.3347  0.3751  0.3409
22694SOL    HW170335   4.696   9.134   8.605 -1.2708 -0.4429  2.2610
22694SOL    HW270336   4.811   9.085   8.690 -1.7023 -2.2912  1.8156
22695SOL     OW70337   1.972   2.096   1.818 -0.0991 -0.6384 -0.1382
22695SOL    HW170338   2.054   2.076   1.864  0.3954  0.6068 -0.4210
22695SOL    HW270339   1.965   2.027   1.752  0.6986 -0.8014 -0.0714
22696SOL     OW70340   7.978   1.369   7.625  0.0792  0.3771  0.0656
22696SOL    HW170341   7.985   1.274   7.631  1.8574  0.5242  0.9750
22696SOL    HW270342   7.937   1.385   7.540 -0.4813 -1.1917  0.0103
22697SOL     OW70343   9.047   1.228   0.935 -0.1297  0.1906 -0.1650
22697SOL    HW170344   9.130   1.181   0.936 -1.5470 -2.5325 -0.7821
22697SOL    HW270345   9.018   1.226   1.026 -0.7598 -1.3614 -0.3670
22698SOL     OW70346   9.717   5.673   4.679  0.0301 -0.4249  0.3579
22698SOL    HW170347   9.624   5.648   4.682  0.1338 -0.7396  1.0168
22698SOL    HW270348   9.718   5.762   4.715 -0.0866 -0.2124 -0.1623
22699SOL     OW70349   1.195   1.503   4.612  0.4046  0.4143 -0.0733
22699SOL    HW170350   1.171   1.436   4.547  0.7060  0.9561 -0.7610
22699SOL    HW270351   1.219   1.453   4.690 -0.4383 -0.2382 -0.2102
22700SOL     OW70352   7.178   6.927   4.699 -0.0407 -0.4418 -0.1167
22700SOL    HW170353   7.272   6.938   4.716  0.0581  0.2384 -1.0177
22700SOL    HW270354   7.138   7.005   4.737 -0.1101 -0.2096 -0.6515
22701SOL     OW70355   5.787   8.251   4.145 -0.1874 -0.0508  0.8861
22701SOL    HW170356   5.880   8.244   4.123 -0.1990 -2.6406  1.3597
22701SOL    HW270357   5.786   8.284   4.235  0.2905 -0.2176  0.9552
22702SOL     OW70358   9.885   0.158   1.398  0.1433 -0.3502 -0.3048
22702SOL    HW170359   9.891   0.137   1.491  1.8460  0.1591 -0.2775
22702SOL    HW270360   9.876   0.073   1.355 -1.2461 -0.5630  0.3178
22703SOL     OW70361   8.749   9.272   3.581  0.2176  0.1347 -0.4701
22703SOL    HW170362   8.724   9.359   3.613 -2.0615 -0.6209 -0.0261
22703SOL    HW270363   8.670   9.219   3.592  1.6194 -2.0756 -0.4981
22704SOL     OW70364   3.884   1.738   0.648 -0.5077  0.4009  0.1909
22704SOL    HW170365   3.819   1.708   0.712  0.0361  1.5074  1.3188
22704SOL    HW270366   3.959   1.680   0.660 -1.0611 -0.5448 -0.7469
22705SOL     OW70367   8.934   5.045   5.803  0.6158 -0.5105  0.3703
22705SOL    HW170368   9.024   5.011   5.803 -0.0348 -2.3230  1.3313
22705SOL    HW270369   8.894   5.008   5.881 -1.3242 -0.6995 -0.6641
22706SOL     OW70370   4.098   3.764   5.562 -0.2435 -0.1645 -0.0984
22706SOL    HW170371   4.130   3.680   5.527  1.0440  0.0776  0.4194
22706SOL    HW270372   4.005   3.750   5.576  0.0860 -1.8179  0.7723
22707SOL     OW70373   1.206   9.619   4.885  0.2459 -0.4315  0.3258
22707SOL    HW170374   1.117   9.600   4.914  0.3358 -1.1277  0.1849
22707SOL    HW270375   1.245   9.532   4.871  0.5619 -0.1346 -0.7629
22708SOL     OW70376   1.412   5.730   2.635 -0.0773  0.3472  0.1433
22708SOL    HW170377   1.366   5.681   2.703 -0.0353 -0.9513 -0.7350
22708SOL    HW270378   1.502   5.699   2.640 -0.1846 -0.1642 -0.8396
22709SOL     OW70379   0.068   5.146   4.256  0.0866 -0.5048  0.8657
22709SOL    HW170380   0.076   5.051   4.245 -0.0021 -0.2757 -1.6371
22709SOL    HW270381   0.158   5.175   4.271  0.5066 -0.7367 -1.0244
22710SOL     OW70382   1.537   6.061   8.018 -0.1947  0.2868  0.2805
22710SOL    HW170383   1.544   6.152   8.048  0.2248  0.3455  0.0201
22710SOL    HW270384   1.515   6.069   7.925  2.2190  0.1845 -0.3852
22711SOL     OW70385   6.296   1.603   9.937  0.0968 -0.3801  0.9065
22711SOL    HW170386   6.282   1.522   9.986 -0.7072 -0.6330  0.2866
22711SOL    HW270387   6.272   1.580   9.847 -0.4661  0.6318  0.7867
22712SOL     OW70388   6.918   0.587   4.923 -0.3168 -0.4304 -0.7479
22712SOL    HW170389   6.863   0.530   4.977  0.7216 -1.2226 -0.4791
22712SOL    HW270390   6.857   0.638   4.872 -1.3101 -0.7184  0.1154
22713SOL     OW70391   9.279   8.120   8.822 -0.2293  0.0802  0.4388
22713SOL    HW170392   9.349   8.068   8.784 -0.2015 -0.1977  0.8668
22713SOL    HW270393   9.202   8.099   8.769 -0.2432 -0.4815  0.6851
22714SOL     OW70394   3.096   6.054  10.202 -0.2868  0.1543  0.4426
22714SOL    HW170395   3.115   6.074  10.110 -0.5057 -0.8197  0.1768
22714SOL    HW270396   3.036   5.980  10.198 -0.0519 -0.0944  1.3871
22715SOL     OW70397   9.721   9.987   8.874 -1.1411 -0.3019  0.7896
22715SOL    HW170398   9.747   9.947   8.791 -0.1607 -0.2999  1.0712
22715SOL    HW270399   9.658  10.055   8.850  1.2279  1.6686 -0.3007
22716SOL     OW70400   7.665   1.605   6.643  0.4414 -0.1987  0.4395
22716SOL    HW170401   7.658   1.681   6.700  0.6947 -0.4508  0.8063
22716SOL    HW270402   7.694   1.533   6.700  0.1268 -0.5919  0.1162
22717SOL     OW70403   2.481   2.077   8.386 -0.9153  0.3023 -0.2704
22717SOL    HW170404   2.513   2.046   8.470  1.0772  1.8183 -0.3752
22717SOL    HW270405   2.465   1.998   8.335  0.5142 -0.6158  0.6348
22718SOL     OW70406   6.331   1.733   6.458  0.1096 -0.3142  0.1630
22718SOL    HW170407   6.327   1.664   6.392  1.1655  0.8243 -1.1654
22718SOL    HW270408   6.400   1.792   6.427  1.9291 -0.6366  3.2289
22719SOL     OW70409   4.596   8.456   9.353 -0.0732  0.0578 -0.4518
22719SOL    HW170410   4.637   8.505   9.281 -0.8430  0.9244 -0.3115
22719SOL    HW270411   4.502   8.468   9.341 -0.2064  1.8131  1.7531
22720SOL     OW70412   8.136   1.932   1.034 -0.2455 -0.5294  0.2332
22720SOL    HW170413   8.176   1.961   1.116 -0.6586 -0.2596  0.3446
22720SOL    HW270414   8.142   1.836   1.037  0.8159 -0.4817  0.0241
22721SOL     OW70415   3.885   4.668   1.460  0.5674  0.2553 -0.1727
22721SOL    HW170416   3.847   4.631   1.539 -0.7344  0.2342 -0.7903
22721SOL    HW270417   3.976   4.636   1.460  0.3675 -0.3672  0.9019
22722SOL     OW70418   1.932   1.546   3.846  0.3764  0.5177  0.1485
22722SOL    HW170419   1.904   1.456   3.830  1.4636  0.5366 -2.3009
22722SOL    HW270420   1.875   1.577   3.916 -0.0902 -2.0238  0.9780
22723SOL     OW70421   3.288   9.488   0.112  0.5183 -0.3529 -0.4268
22723SOL    HW170422   3.290   9.401   0.151  0.5136 -0.2230 -0.1364
22723SOL    HW270423   3.371   9.527   0.137 -0.1945  0.3611  0.8941
22724SOL     OW70424   9.854   7.567   4.147  0.4303  0.0422 -0.2311
22724SOL    HW170425   9.896   7.526   4.071  0.1814 -0.1667 -0.2568
22724SOL    HW270426   9.767   7.592   4.117  0.3552  0.0176 -0.0376
22725SOL     OW70427   9.176   5.633   4.555 -0.0044 -0.0100 -0.0360
22725SOL    HW170428   9.121   5.673   4.623 -0.1015 -0.8137  0.3806
22725SOL    HW270429   9.234   5.574   4.604  1.6616  1.2585 -0.3968
22726SOL     OW70430   3.188   9.866   3.161  0.5312 -0.1451  0.3209
22726SOL    HW170431   3.199   9.961   3.160  0.6665 -0.1579  0.5392
22726SOL    HW270432   3.276   9.832   3.171  0.5476 -0.3119 -0.3834
22727SOL     OW70433   2.954  10.240   5.761  0.2205 -0.1737  0.2916
22727SOL    HW170434   2.959  10.305   5.691  3.2558  0.8470  1.2865
22727SOL    HW270435   2.874  10.262   5.809  0.2222  1.6896 -0.4831
22728SOL     OW70436   0.151   5.209   9.211  0.1126  0.0169 -0.7891
22728SOL    HW170437   0.105   5.154   9.274 -0.9115  0.5506 -1.0502
22728SOL    HW270438   0.238   5.222   9.249 -1.0080  1.7810  1.4081
22729SOL     OW70439   2.653   3.507   3.688 -0.0371 -0.0166 -0.6220
22729SOL    HW170440   2.600   3.586   3.675  0.0367 -0.0137 -0.9185
22729SOL    HW270441   2.738   3.530   3.652  0.2054  0.0181 -0.0416
22730SOL     OW70442   3.281   0.035   9.426 -0.1080  0.0239  0.1176
22730SOL    HW170443   3.317  -0.053   9.437 -1.0355 -0.3249  0.4472
22730SOL    HW270444   3.220   0.046   9.499 -0.9229  0.4590 -0.6056
22731SOL     OW70445   9.668   3.676   2.450  0.0282 -0.0702 -0.0989
22731SOL    HW170446   9.661   3.636   2.536  3.0649  0.8842  0.6983
22731SOL    HW270447   9.578   3.701   2.428 -1.1062 -2.0298  1.8794
22732SOL     OW70448   4.302   7.741   9.117 -0.1338  0.0849 -0.5346
22732SOL    HW170449   4.221   7.750   9.066  0.3014  0.9958 -1.0940
22732SOL    HW270450   4.293   7.657   9.161 -2.9592  1.6057  2.1789
22733SOL     OW70451   7.033   8.662   9.208 -0.4076  0.5725 -0.3941
22733SOL    HW170452   7.027   8.735   9.147 -0.2337  0.6444 -0.3244
22733SOL    HW270453   6.989   8.693   9.288  2.0609  1.6419  0.6448
22734SOL     OW70454   8.449   9.103   1.535 -0.2708  0.2652  0.2517
22734SOL    HW170455   8.446   9.008   1.533  1.6577  0.1056  1.6301
22734SOL    HW270456   8.449   9.126   1.628 -0.1948  1.5751 -0.0412
22735SOL     OW70457   1.273   3.510   0.269  0.0698 -0.3631 -0.5809
22735SOL    HW170458   1.250   3.548   0.184 -1.2798  0.1780  0.0033
22735SOL    HW270459   1.217   3.433   0.277  1.6080 -1.5812 -1.0197
22736SOL     OW70460   2.319   1.298   8.726 -0.2411  0.0271  0.3066
22736SOL    HW170461   2.406   1.261   8.708 -0.4772  0.0939 -1.0601
22736SOL    HW270462   2.268   1.223   8.755  0.1609 -0.0938  0.7187
22737SOL     OW70463   1.920   3.408   5.800  0.3464  0.4335  0.3418
22737SOL    HW170464   1.985   3.390   5.732 -0.9162 -0.9446 -0.5751
22737SOL    HW270465   1.930   3.335   5.862 -1.3185 -0.7039 -0.6411
22738SOL     OW70466   1.259  10.442   6.059 -0.0340  0.0788 -0.4039
22738SOL    HW170467   1.232  10.379   6.125 -1.1444 -0.2369 -1.1384
22738SOL    HW270468   1.192  10.436   5.991 -0.2675  2.1596 -0.4203
22739SOL     OW70469   7.392   6.598  10.127 -0.2201  0.2113 -0.2890
22739SOL    HW170470   7.365   6.664  10.062  0.0432 -0.6988 -1.3639
22739SOL    HW270471   7.347   6.624  10.207  2.4509  3.6774  0.3591
22740SOL     OW70472   5.838   5.956   3.328 -0.8892  0.1047  0.3521
22740SOL    HW170473   5.854   5.963   3.423 -0.3394  0.6769  0.2290
22740SOL    HW270474   5.899   6.019   3.290 -0.2974 -0.9497 -0.4686
22741SOL     OW70475   6.872   1.528   0.818 -0.3970  0.1439 -0.2143
22741SOL    HW170476   6.936   1.594   0.845 -1.2728  0.7422  0.4508
22741SOL    HW270477   6.864   1.469   0.893 -2.5502  1.5900  0.7785
22742SOL     OW70478   5.428   4.550   6.720 -0.3321 -0.3799 -0.0950
22742SOL    HW170479   5.396   4.521   6.634  1.4183 -1.5830 -0.3734
22742SOL    HW270480   5.439   4.469   6.770 -2.9542  0.3598  1.9570
22743SOL     OW70481   4.519   4.105   3.165 -0.5808 -0.6415 -0.1110
22743SOL    HW170482   4.587   4.108   3.098 -1.8813 -0.3113 -1.4645
22743SOL    HW270483   4.480   4.018   3.156 -2.3863  0.2502 -1.5182
22744SOL     OW70484   6.485   0.074   5.294 -0.0249 -0.4532 -0.1213
22744SOL    HW170485   6.550   0.019   5.249  0.9768  0.4270  0.2152
22744SOL    HW270486   6.406   0.020   5.297 -0.3068 -0.4156 -3.3657
22745SOL     OW70487   4.333   0.347   1.279 -0.0322  0.2194  0.2928
22745SOL    HW170488   4.275   0.310   1.213  0.2649  0.5206 -0.1359
22745SOL    HW270489   4.365   0.272   1.328 -2.0938  0.1171  1.6524
22746SOL     OW70490   5.786  10.055   0.549 -0.2823  0.0565 -0.7326
22746SOL    HW170491   5.854   9.989   0.558 -0.0418  0.3708 -0.2476
22746SOL    HW270492   5.751  10.040   0.461  0.5069 -0.0188 -1.0470
22747SOL     OW70493   6.971  10.487   0.952 -0.2422 -0.3728 -1.0764
22747SOL    HW170494   6.913  10.502   1.027 -0.2313 -1.2265 -0.8877
22747SOL    HW270495   6.913  10.486   0.876 -0.1456  1.4628 -1.2170
22748SOL     OW70496   0.265   0.305   2.431  0.5392  0.4868  0.4058
22748SOL    HW170497   0.259   0.401   2.432  1.8158  0.6910 -2.1904
22748SOL    HW270498   0.212   0.279   2.356  1.2263 -0.7233  0.3197
22749SOL     OW70499   6.739   1.323   5.571 -0.3199  0.5759 -0.4425
22749SOL    HW170500   6.736   1.227   5.572 -1.3492  0.5929  0.5045
22749SOL    HW270501   6.684   1.347   5.496 -0.0849  0.4265 -0.6639
22750SOL     OW70502   9.319   4.911   6.690  0.2727  0.4791 -0.7199
22750SOL    HW170503   9.249   4.972   6.666 -0.7766 -0.4399 -0.0940
22750SOL    HW270504   9.273   4.833   6.721  1.5828  0.3677  1.0616
22751SOL     OW70505   4.260   8.252   9.154 -0.5546 -0.7382  0.2604
22751SOL    HW170506   4.276   8.270   9.061 -0.4911 -1.2150  0.1789
22751SOL    HW270507   4.171   8.217   9.157 -0.6415 -0.5028  0.4074
22752SOL     OW70508   8.275   1.314   3.839 -0.0274 -0.0379  0.0886
22752SOL    HW170509   8.295   1.320   3.746 -0.7921 -0.2277 -0.0937
22752SOL    HW270510   8.200   1.371   3.851  0.2806  0.2568  0.6609
22753SOL     OW70511   3.790   7.009   1.306 -0.3194  0.2382 -0.2075
22753SOL    HW170512   3.789   7.038   1.215 -0.2669  0.8132 -0.0309
22753SOL    HW270513   3.826   7.083   1.354  1.8808 -0.8712 -0.0051
22754SOL     OW70514   8.342   5.132   7.767  0.1650 -0.0411  0.0189
22754SOL    HW170515   8.305   5.215   7.738  1.6804  0.5299 -0.3669
22754SOL    HW270516   8.437   5.145   7.761  0.4342 -2.1623 -1.0745
22755SOL     OW70517   2.668   8.408   2.821  0.4575  0.4343  0.6893
22755SOL    HW170518   2.729   8.419   2.894  2.2707 -1.2902 -0.4782
22755SOL    HW270519   2.704   8.462   2.751  0.1794  0.0302  0.2315
22756SOL     OW70520   5.186   0.179   6.090 -0.0920 -0.1098 -0.0420
22756SOL    HW170521   5.145   0.118   6.029 -0.7488 -0.6253  0.8842
22756SOL    HW270522   5.113   0.225   6.131  0.1441 -1.3509  1.9504
22757SOL     OW70523   4.704   2.988   2.806  0.0424  1.0168  0.0240
22757SOL    HW170524   4.655   2.995   2.888 -0.3122  1.1370 -0.1921
22757SOL    HW270525   4.765   3.062   2.808  0.3566  0.7531  0.3844
22758SOL     OW70526   6.014   9.698   2.446  0.8421  0.2662 -0.0207
22758SOL    HW170527   5.997   9.770   2.506 -0.1981 -0.8595  1.0936
22758SOL    HW270528   6.017   9.739   2.360 -0.1132  1.5780  0.5391
22759SOL     OW70529   2.023   2.954   6.878 -0.1829 -0.0117  0.2126
22759SOL    HW170530   1.933   2.968   6.849 -0.9964 -0.9559  2.1228
22759SOL    HW270531   2.034   3.014   6.952 -0.2846 -1.9628  1.8887
22760SOL     OW70532   8.846   8.386  10.087  0.0198 -0.4874 -0.2015
22760SOL    HW170533   8.772   8.431  10.127  0.7692 -0.0911  0.7989
22760SOL    HW270534   8.882   8.449  10.024 -1.0677 -1.0516 -1.4167
22761SOL     OW70535   2.691   7.565   1.247  0.1313  0.3163 -0.2146
22761SOL    HW170536   2.785   7.580   1.249  0.1536  0.2003 -0.4124
22761SOL    HW270537   2.668   7.548   1.339  0.7286 -2.2637 -0.4583
22762SOL     OW70538   5.589   5.698   3.390  0.4297 -0.0795 -0.1148
22762SOL    HW170539   5.653   5.759   3.353  0.4142  0.5464  0.8733
22762SOL    HW270540   5.539   5.750   3.452 -1.7355 -0.2898 -1.5801
22763SOL     OW70541   7.809   1.006   3.405 -0.4408  1.0918  0.0705
22763SOL    HW170542   7.756   0.972   3.477  0.7448  0.8448  0.8499
22763SOL    HW270543   7.841   1.090   3.437 -0.4989  1.3217 -0.4689
22764SOL     OW70544   1.937  10.034   2.947  0.0390  0.2868  0.2209
22764SOL    HW170545   1.892   9.979   2.884 -1.0060 -1.2130  2.1664
22764SOL    HW270546   1.909  10.002   3.032 -0.0266  3.3730  1.5067
22765SOL     OW70547   8.487   0.908   0.364  0.1367  0.1716 -0.0809
22765SOL    HW170548   8.555   0.968   0.332 -0.7072  1.7413  0.9106
22765SOL    HW270549   8.515   0.886   0.453 -0.1010 -0.0539 -0.0627
22766SOL     OW70550   7.947   9.386   9.131 -0.1651  0.3829 -0.1119
22766SOL    HW170551   7.855   9.401   9.110 -0.8986 -0.5348  2.1493
22766SOL    HW270552   7.957   9.420   9.220  1.7400  0.5898 -0.3622
22767SOL     OW70553   0.819   1.430   7.921  0.3072  0.0596  0.0736
22767SOL    HW170554   0.897   1.400   7.873 -0.1975  1.3642 -1.6421
22767SOL    HW270555   0.754   1.446   7.853 -1.6188 -1.2840  1.4832
22768SOL     OW70556   5.054  10.208   4.159 -0.4691 -0.2258 -0.2608
22768SOL    HW170557   5.065  10.115   4.143 -0.3043 -0.4443  1.0464
22768SOL    HW270558   5.002  10.239   4.084  1.5117 -0.8499 -1.9942
22769SOL     OW70559   5.371   4.129   1.489  0.3766 -0.4330 -0.1250
22769SOL    HW170560   5.304   4.186   1.451  0.6991  0.5340  0.7243
22769SOL    HW270561   5.335   4.040   1.480 -1.0293  0.0638  0.3404
22770SOL     OW70562   2.063   3.519   4.104 -0.0163 -0.0153 -0.5093
22770SOL    HW170563   2.120   3.593   4.124  0.0218 -0.5224  1.4593
22770SOL    HW270564   2.008   3.551   4.032  1.2429  1.2479 -0.9630
22771SOL     OW70565   1.445   8.568   2.415 -0.0837  0.5318 -0.3757
22771SOL    HW170566   1.378   8.500   2.416  0.4861 -0.1498 -2.6756
22771SOL    HW270567   1.433   8.613   2.331  1.1021  1.6998  0.0343
22772SOL     OW70568   0.489   6.938   6.670 -0.1805  0.8852  0.1085
22772SOL    HW170569   0.479   6.846   6.695  0.0601  0.9588  0.4743
22772SOL    HW270570   0.504   6.985   6.752  0.7922  1.1021 -0.1747
22773SOL     OW70571   0.150   8.921   7.881  0.2145 -0.1216  0.0545
22773SOL    HW170572   0.124   8.983   7.813  1.3117 -0.9018 -1.1159
22773SOL    HW270573   0.233   8.886   7.851 -0.2499 -1.9838  0.8207
22774SOL     OW70574   6.877   2.256   8.460  0.4479  0.1403 -0.2795
22774SOL    HW170575   6.911   2.240   8.372 -0.7039  0.1411 -0.7455
22774SOL    HW270576   6.843   2.171   8.488  1.5518 -0.0588  0.5163
22775SOL     OW70577   6.834   2.588   2.530  0.2590  0.0955 -0.2135
22775SOL    HW170578   6.901   2.654   2.548 -1.4110  1.9149 -0.2172
22775SOL    HW270579   6.759   2.639   2.497 -2.8979 -1.0300  4.1869
22776SOL     OW70580   3.216   6.338   7.457  0.4594 -0.0193  0.0054
22776SOL    HW170581   3.274   6.407   7.424  0.0105  0.3162 -0.0993
22776SOL    HW270582   3.272   6.284   7.513  0.6053  1.0194  0.9073
22777SOL     OW70583   3.019   2.180   7.280  0.0421  0.2344 -0.2669
22777SOL    HW170584   3.021   2.241   7.353  0.1945  0.0283 -0.0985
22777SOL    HW270585   2.990   2.097   7.318  2.6790 -0.5953  0.1062
22778SOL     OW70586   4.473   2.555   5.240 -0.0688  0.0889 -0.5800
22778SOL    HW170587   4.381   2.577   5.247 -0.4682 -1.3771 -0.8710
22778SOL    HW270588   4.476   2.483   5.176  1.1988 -0.3126 -0.1078
22779SOL     OW70589   6.310   0.252   9.181  0.2388 -0.0462  0.0451
22779SOL    HW170590   6.397   0.237   9.144  0.1901 -0.5810  0.1482
22779SOL    HW270591   6.279   0.332   9.138  0.1871 -0.6358 -1.0580
22780SOL     OW70592   0.120   7.208   1.053 -0.0777 -0.1367 -0.1434
22780SOL    HW170593   0.203   7.164   1.072 -0.3720 -0.7869 -0.3568
22780SOL    HW270594   0.053   7.147   1.080 -0.4945  0.1692 -0.4649
22781SOL     OW70595   9.074   8.798   0.523  0.7842  0.2822 -0.4135
22781SOL    HW170596   8.992   8.840   0.549  0.9611  1.4204 -1.5764
22781SOL    HW270597   9.101   8.846   0.445  2.3402 -0.3643 -0.2991
22782SOL     OW70598   5.677   0.428   8.601 -0.5289 -0.0447 -0.1601
22782SOL    HW170599   5.686   0.515   8.562 -1.8768 -0.1242 -0.6836
22782SOL    HW270600   5.717   0.369   8.536  0.8678  0.2085  0.4337
22783SOL     OW70601   9.053   7.927   5.465  0.5897  0.4557  0.1893
22783SOL    HW170602   9.061   8.021   5.479 -1.6003  0.6775  0.3419
22783SOL    HW270603   9.005   7.895   5.542 -0.9057 -0.3266 -1.0109
22784SOL     OW70604   5.984   7.635   6.342 -0.0112  0.0502  0.1107
22784SOL    HW170605   5.946   7.652   6.428  1.1808  1.7435  0.3582
22784SOL    HW270606   6.076   7.613   6.361  0.2298  0.3064 -0.7074
22785SOL     OW70607   9.268   8.728   7.600 -0.6487  0.3306 -0.2202
22785SOL    HW170608   9.317   8.657   7.558  0.2175  0.4257  0.5986
22785SOL    HW270609   9.179   8.720   7.565 -0.6877 -1.4550  0.2199
22786SOL     OW70610   0.256   2.503   5.224  0.5604 -0.1418 -0.0752
22786SOL    HW170611   0.308   2.461   5.294  1.4336  1.7568  0.4812
22786SOL    HW270612   0.295   2.590   5.215 -0.9653  0.4335 -1.4281
22787SOL     OW70613   6.022   7.186   5.131  0.3195  0.6599  0.6505
22787SOL    HW170614   6.000   7.098   5.160  1.5734  0.2814  0.5083
22787SOL    HW270615   6.005   7.185   5.037  1.0598  0.3254  0.5158
22788SOL     OW70616   1.210  10.495   4.269 -0.0120 -0.5605  1.0635
22788SOL    HW170617   1.121  10.497   4.233  0.7588  0.7634 -1.0147
22788SOL    HW270618   1.220  10.579   4.314  0.0996 -0.8346  1.5573
22789SOL     OW70619   3.774   0.014   4.023 -0.3504 -0.1832  0.2963
22789SOL    HW170620   3.756   0.021   3.929  2.1373  2.5496 -0.1375
22789SOL    HW270621   3.733   0.092   4.060  1.5161  0.5735  0.8646
22790SOL     OW70622   4.970   1.684   8.949 -0.2925  0.3492  0.3500
22790SOL    HW170623   4.943   1.630   8.875 -0.2579  1.5044 -0.5126
22790SOL    HW270624   4.891   1.730   8.976 -0.5287 -0.7140  1.6373
22791SOL     OW70625   1.967   5.563   0.560  0.0307 -0.3019 -0.1803
22791SOL    HW170626   1.966   5.467   0.549 -0.2773 -0.5139  1.4612
22791SOL    HW270627   1.914   5.578   0.638  1.6775  1.0592  0.7127
22792SOL     OW70628   2.951   6.347   9.354  0.3523 -0.0287 -0.6827
22792SOL    HW170629   3.014   6.368   9.284 -0.6568  1.8614 -1.0822
22792SOL    HW270630   2.923   6.433   9.387 -0.9659 -0.8619  0.4398
22793SOL     OW70631   0.481   7.455   6.595 -0.0645 -0.0852  0.1179
22793SOL    HW170632   0.526   7.444   6.679  2.7575  3.7549 -0.6153
22793SOL    HW270633   0.525   7.394   6.536  0.2212 -0.4286  0.6709
22794SOL     OW70634   9.402   4.346   9.820  0.2655  0.0973  0.3811
22794SOL    HW170635   9.347   4.376   9.893 -2.0479  0.5049 -1.4347
22794SOL    HW270636   9.472   4.411   9.814 -0.5996  1.1052  1.0348
22795SOL     OW70637   6.555   7.453   1.135  0.0248  0.1282 -0.0966
22795SOL    HW170638   6.466   7.419   1.129  0.5773 -1.0819 -2.6730
22795SOL    HW270639   6.588   7.418   1.219 -1.4684 -0.5359  0.2483
22796SOL     OW70640   1.347   3.702   8.685  0.1263 -0.0212  0.2074
22796SOL    HW170641   1.421   3.663   8.638 -1.1035 -1.9220 -0.2779
22796SOL    HW270642   1.359   3.797   8.674  2.8926 -0.2052  0.8448
22797SOL     OW70643   9.897   7.464   9.985 -0.7943 -0.8561  0.2429
22797SOL    HW170644   9.844   7.406   9.930 -0.8369 -0.0057 -0.6502
22797SOL    HW270645   9.858   7.551   9.971  0.0214 -0.4265  0.6065
22798SOL     OW70646   9.353   1.267   8.101  0.0844 -0.3130  0.3256
22798SOL    HW170647   9.388   1.333   8.161 -0.4582  0.6810 -0.4161
22798SOL    HW270648   9.430   1.225   8.063  0.4354 -0.2689  0.9802
22799SOL     OW70649   4.160   1.390   2.416 -0.0879 -0.3547  0.1648
22799SOL    HW170650   4.200   1.384   2.503 -1.3747  0.4491  0.8522
22799SOL    HW270651   4.076   1.344   2.425 -0.4939  0.2414 -0.4772
22800SOL     OW70652   4.547   2.452   1.646  0.0919 -0.0825  0.2439
22800SOL    HW170653   4.512   2.428   1.560 -0.9115 -0.1062  0.6431
22800SOL    HW270654   4.501   2.533   1.669 -0.8003 -0.9011  1.4308
22801SOL     OW70655   2.688   1.291   6.207  0.7465 -0.0707  0.2465
22801SOL    HW170656   2.652   1.307   6.295  1.8264 -0.8443  0.8559
22801SOL    HW270657   2.678   1.375   6.162 -0.4954  0.1366  0.8539
22802SOL     OW70658   9.686   2.158  10.109 -0.1545  0.7880 -0.5217
22802SOL    HW170659   9.666   2.119  10.193 -0.7104  2.0865 -0.0228
22802SOL    HW270660   9.601   2.172  10.067  0.1391 -0.3645 -1.5628
22803SOL     OW70661   6.692   6.828   2.782  0.1046 -0.1880 -0.1160
22803SOL    HW170662   6.747   6.776   2.723 -1.5287 -1.2664 -0.7533
22803SOL    HW270663   6.641   6.764   2.831 -2.4645  0.7226 -1.4030
22804SOL     OW70664   6.298   7.618   9.998  0.6667 -0.0076  0.3814
22804SOL    HW170665   6.303   7.691   9.936  2.4974 -1.9069 -1.9188
22804SOL    HW270666   6.335   7.653  10.079 -1.2549  2.4054  0.3174
22805SOL     OW70667   4.592   2.224   7.214 -0.4757  0.1728  0.4499
22805SOL    HW170668   4.552   2.308   7.237  0.6040  1.0116 -0.5694
22805SOL    HW270669   4.533   2.158   7.250 -1.8649  1.3565  0.4364
22806SOL     OW70670   3.726   8.234   0.257 -0.2547 -0.3860 -0.1403
22806SOL    HW170671   3.802   8.176   0.267  0.2963 -0.1926 -2.6081
22806SOL    HW270672   3.655   8.176   0.230 -0.4052 -0.2676  0.0026
22807SOL     OW70673   2.741  10.570   0.597 -0.1957  0.2031  0.2487
22807SOL    HW170674   2.796  10.565   0.676  0.8912 -1.3604 -0.5515
22807SOL    HW270675   2.672  10.505   0.613 -0.9572  1.0644  0.5826
22808SOL     OW70676   1.023   6.906   2.174 -0.9118  0.2396 -1.0382
22808SOL    HW170677   0.963   6.856   2.230  1.1968 -1.0338  0.2447
22808SOL    HW270678   1.004   6.875   2.085 -2.8181  0.6522 -0.8230
22809SOL     OW70679   9.356   2.669   6.623  0.0150  0.2570 -0.3834
22809SOL    HW170680   9.293   2.666   6.694  1.8922 -3.1054  1.3742
22809SOL    HW270681   9.305   2.693   6.546 -2.9583 -0.3265  1.2797
22810SOL     OW70682   3.760   7.177   4.633  0.1711  0.0862 -0.0309
22810SOL    HW170683   3.718   7.253   4.594  0.1306 -0.1069 -0.3772
22810SOL    HW270684   3.770   7.116   4.559  2.4704  0.7275 -0.3070
22811SOL     OW70685   5.560   3.494   2.162  0.4977  0.0663 -0.8317
22811SOL    HW170686   5.561   3.581   2.203  1.4126 -0.2198 -0.2060
22811SOL    HW270687   5.642   3.453   2.192  0.2590 -0.8665 -1.4282
22812SOL     OW70688   3.436   9.794   9.158 -0.0222  0.3480  0.1707
22812SOL    HW170689   3.510   9.807   9.216  2.7346 -2.8871 -2.1404
22812SOL    HW270690   3.421   9.699   9.160 -3.5323  0.7641 -0.2460
22813SOL     OW70691   0.203   3.323   9.294 -0.3185  0.1839  0.0416
22813SOL    HW170692   0.117   3.359   9.315 -0.5980 -0.1732 -0.4915
22813SOL    HW270693   0.251   3.328   9.377 -1.4528 -1.3262  0.8464
22814SOL     OW70694  10.386   8.248  10.419  0.2588  0.9134 -0.3300
22814SOL    HW170695  10.403   8.247  10.325 -0.1042  3.2186 -0.4812
22814SOL    HW270696  10.291   8.237  10.426  0.5771 -3.3468  0.0819
22815SOL     OW70697   2.250   3.139   3.139 -0.1983  0.1983  0.5438
22815SOL    HW170698   2.288   3.194   3.070 -3.5853  1.0784 -0.7869
22815SOL    HW270699   2.270   3.186   3.220 -0.8863  2.1388 -0.3539
22816SOL     OW70700   3.886   3.907   4.227 -0.2268 -0.4897 -0.0970
22816SOL    HW170701   3.895   3.836   4.163  1.5043 -0.9053  0.5386
22816SOL    HW270702   3.974   3.942   4.236 -0.8123  0.8694  0.6125
22817SOL     OW70703   1.119   2.506   5.601 -0.4247  0.2856 -0.3215
22817SOL    HW170704   1.112   2.542   5.513  0.5494  0.7925 -0.2022
22817SOL    HW270705   1.204   2.460   5.602 -0.7744 -0.3761  0.1189
22818SOL     OW70706   0.055   9.118   4.088  0.2254  0.6902 -0.1919
22818SOL    HW170707  -0.003   9.168   4.144 -1.3918  0.5796 -1.6845
22818SOL    HW270708   0.140   9.163   4.095 -0.4633  1.8980  0.6979
22819SOL     OW70709   3.499  10.542   1.115 -0.0399 -0.3862  0.4409
22819SOL    HW170710   3.435  10.482   1.153 -2.2940  0.8517 -1.1127
22819SOL    HW270711   3.472  10.629   1.146 -1.5167  0.5946 -3.0952
22820SOL     OW70712   6.834   5.139   9.939 -0.2247 -0.1207  0.1303
22820SOL    HW170713   6.868   5.180  10.019  0.6576  0.0154 -0.3060
22820SOL    HW270714   6.877   5.053   9.936 -1.8441 -1.0074  0.8904
22821SOL     OW70715   0.462   5.466   1.443 -0.2145 -0.3053  0.3738
22821SOL    HW170716   0.411   5.386   1.454 -1.6804  0.2604 -1.5984
22821SOL    HW270717   0.398   5.531   1.414  1.1209  1.3131  0.8592
22822SOL     OW70718   8.331   4.399   1.426 -0.2544 -0.1745  0.3605
22822SOL    HW170719   8.419   4.435   1.410 -0.7336  1.1822  0.6670
22822SOL    HW270720   8.343   4.338   1.498  0.3206  0.5855  0.9292
22823SOL     OW70721   3.696   0.535   8.321 -0.3881 -0.7783 -0.1412
22823SOL    HW170722   3.602   0.542   8.303 -0.2593  0.7185 -0.4292
22823SOL    HW270723   3.724   0.626   8.331  1.0472 -1.2075 -0.1360
22824SOL     OW70724   0.336   4.625   7.334  0.6490  0.0442  0.0179
22824SOL    HW170725   0.258   4.583   7.370  0.5893  0.2769  0.1645
22824SOL    HW270726   0.354   4.697   7.394  0.5186  0.4718 -0.4491
22825SOL     OW70727   4.002   5.891   1.479 -0.0540 -0.3584  0.2030
22825SOL    HW170728   3.929   5.921   1.533  0.6524  0.5700  0.6791
22825SOL    HW270729   4.080   5.926   1.523  0.8507 -2.9286  0.7926
22826SOL     OW70730   0.784   8.860  10.479 -0.0040 -0.1900  0.7681
22826SOL    HW170731   0.809   8.857  10.387 -1.6070  1.2024  0.2310
22826SOL    HW270732   0.755   8.770  10.498  1.4090 -0.7746  0.2691
22827SOL     OW70733   7.904   3.598   1.846 -0.2776 -0.0074  0.5421
22827SOL    HW170734   7.853   3.651   1.785 -1.2139 -1.9595 -0.4188
22827SOL    HW270735   7.840   3.546   1.893  0.7363 -2.3456 -0.5191
22828SOL     OW70736   6.073   0.197   9.462 -0.2091  0.2140 -0.0886
22828SOL    HW170737   6.044   0.229   9.377  1.3032  1.0469 -0.3308
22828SOL    HW270738   6.064   0.102   9.457 -1.2921  0.3402 -0.7187
22829SOL     OW70739   9.638   6.965   3.371 -0.4851  0.2519 -0.2801
22829SOL    HW170740   9.620   6.931   3.284 -2.0830  1.2060 -0.3596
22829SOL    HW270741   9.603   6.899   3.431  2.8128 -1.6241 -0.2225
22830SOL     OW70742   7.449   5.414   3.244  0.9048 -0.2770  0.2410
22830SOL    HW170743   7.436   5.394   3.337 -0.7247 -0.2017  0.0542
22830SOL    HW270744   7.512   5.349   3.214 -1.5115 -2.9258  0.4859
22831SOL     OW70745   4.986   3.721   9.071  0.0210  0.2289 -0.3425
22831SOL    HW170746   5.010   3.757   9.156 -0.9550 -0.7844  0.3884
22831SOL    HW270747   5.058   3.746   9.013  1.4453 -0.3198  1.1124
22832SOL     OW70748   2.156   8.974   2.765 -0.3935  0.7348  0.2717
22832SOL    HW170749   2.168   8.921   2.843  0.5568  1.7214  0.8249
22832SOL    HW270750   2.098   8.922   2.709  1.1701 -1.2471  0.4104
22833SOL     OW70751   7.989   5.313   2.025  0.2890 -0.3764  0.0508
22833SOL    HW170752   8.026   5.237   2.071  0.3393 -0.0840  0.4983
22833SOL    HW270753   7.934   5.275   1.956 -0.1960 -0.8265  0.6783
22834SOL     OW70754   4.387   8.737   1.211  0.0745  0.1731 -0.4633
22834SOL    HW170755   4.425   8.809   1.161  1.1546  0.8301  1.2033
22834SOL    HW270756   4.418   8.658   1.166  2.7946  0.6946  0.2880
22835SOL     OW70757   0.056   6.485   5.119 -0.1927 -0.3620 -0.0673
22835SOL    HW170758   0.109   6.480   5.199 -1.5011 -0.9422  0.7921
22835SOL    HW270759   0.101   6.427   5.057  1.3341  0.7803 -0.0934
22836SOL     OW70760   4.793   1.734   4.994 -0.4274  0.2951  0.5515
22836SOL    HW170761   4.828   1.711   4.908  0.7677  0.7274  0.8952
22836SOL    HW270762   4.757   1.822   4.982  1.0936  0.9763  0.8303
22837SOL     OW70763   6.311   5.660   0.817 -0.0444  0.2149  0.0208
22837SOL    HW170764   6.287   5.665   0.724 -1.0891  0.6707  0.2975
22837SOL    HW270765   6.350   5.573   0.827  0.6566  0.3879 -0.9625
22838SOL     OW70766   5.757   4.604   5.726  0.1451 -0.0489  0.1245
22838SOL    HW170767   5.797   4.664   5.664 -0.4317 -0.6737 -0.8921
22838SOL    HW270768   5.789   4.518   5.700  1.0270 -0.2034  1.6122
22839SOL     OW70769   8.855   1.720   3.292 -0.3877  0.1516  0.5180
22839SOL    HW170770   8.889   1.809   3.281 -1.2396  0.4418  0.1447
22839SOL    HW270771   8.905   1.668   3.228  0.1847  0.3325  0.8056
22840SOL     OW70772   6.251   7.712   7.326  0.7190 -0.1545 -0.0371
22840SOL    HW170773   6.159   7.738   7.318  0.8924  0.1933 -1.0091
22840SOL    HW270774   6.292   7.746   7.247  1.4744 -1.2352 -0.1241
22841SOL     OW70775  10.342  10.038   9.203 -0.5121  0.5651 -0.0443
22841SOL    HW170776  10.334  10.011   9.111  1.8435  0.2306 -0.1925
22841SOL    HW270777  10.434  10.026   9.224 -0.8235  1.5273  2.1147
22842SOL     OW70778  10.121   5.641   9.159 -0.2810  0.2171 -0.4043
22842SOL    HW170779  10.211   5.618   9.133  0.0352  0.3222  0.5815
22842SOL    HW270780  10.102   5.721   9.109  0.2564  0.3234 -0.4486
22843SOL     OW70781   9.089   9.202   1.784 -0.2297 -0.2522 -0.5937
22843SOL    HW170782   9.042   9.283   1.804 -1.1583 -0.8817 -0.1589
22843SOL    HW270783   9.149   9.190   1.858  0.5155  0.4581 -1.0632
22844SOL     OW70784   4.387   5.305   5.460 -0.0160  0.0703 -0.3047
22844SOL    HW170785   4.447   5.282   5.531 -0.0330  1.0040  0.0248
22844SOL    HW270786   4.435   5.283   5.380  0.7565  0.7308 -0.0435
22845SOL     OW70787   0.803   6.871   7.424 -0.1736  0.4444 -0.2953
22845SOL    HW170788   0.767   6.900   7.508 -0.8692 -0.1117 -0.3906
22845SOL    HW270789   0.843   6.949   7.387  1.9828  0.2713  1.4737
22846SOL     OW70790   7.280   9.829   6.873  0.4355 -0.0586  0.0022
22846SOL    HW170791   7.191   9.796   6.887  0.4884 -0.3800 -0.3872
22846SOL    HW270792   7.267   9.915   6.833  0.2994 -0.1517 -0.1548
22847SOL     OW70793   4.896   1.930   9.722 -0.5868 -0.1197  0.4458
22847SOL    HW170794   4.868   1.935   9.631 -1.2636  1.3825  0.7017
22847SOL    HW270795   4.982   1.888   9.719 -0.5132  0.0918 -0.9010
22848SOL     OW70796   7.337   2.308   9.863 -0.1971 -0.2809  0.6007
22848SOL    HW170797   7.378   2.333   9.780  0.7386 -2.6919  0.2541
22848SOL    HW270798   7.248   2.282   9.838 -0.4206  0.4323  0.6214
22849SOL     OW70799   9.453   2.248   7.468 -0.0975  0.3250  0.3103
22849SOL    HW170800   9.465   2.280   7.378  2.4160  0.7941  0.7507
22849SOL    HW270801   9.424   2.157   7.457 -4.0610  1.5430 -0.9265
22850SOL     OW70802   6.730   5.779   9.242 -0.4507 -0.6434  0.2127
22850SOL    HW170803   6.705   5.738   9.159  3.1996  0.0751 -1.4396
22850SOL    HW270804   6.770   5.708   9.293 -0.3169 -0.5445  0.2458
22851SOL     OW70805   6.633   5.774   6.044 -0.6017 -0.1306 -0.4353
22851SOL    HW170806   6.602   5.722   5.970 -1.2597  1.0400 -1.0061
22851SOL    HW270807   6.560   5.832   6.065  1.0002  2.4627 -1.5728
22852SOL     OW70808   9.068   7.515   2.140  0.6548 -0.5442  0.1177
22852SOL    HW170809   9.133   7.484   2.077 -0.8175  0.8039 -2.2484
22852SOL    HW270810   8.986   7.517   2.090 -0.3203  2.0678  1.5901
22853SOL     OW70811   8.025   5.309   6.970  0.6147 -0.2913  0.0450
22853SOL    HW170812   7.996   5.272   6.886  0.0331  1.2950 -0.4969
22853SOL    HW270813   8.032   5.403   6.953  1.1613 -0.0279  1.6016
22854SOL     OW70814   1.685   4.945   9.903  0.0468 -0.3977  0.2536
22854SOL    HW170815   1.723   4.858   9.895 -2.0665 -1.2385 -1.8851
22854SOL    HW270816   1.635   4.957   9.822  0.9908  3.2079  0.0270
22855SOL     OW70817  10.520   8.192   9.928 -0.0778 -0.1866  0.5661
22855SOL    HW170818  10.457   8.223   9.993 -0.5679  0.7396 -0.3307
22855SOL    HW270819  10.512   8.254   9.856 -0.3246 -1.8093 -0.8425
22856SOL     OW70820   2.967   2.603   7.906  0.8483 -0.3073 -0.3282
22856SOL    HW170821   2.888   2.547   7.903  0.7732 -0.1531 -1.9810
22856SOL    HW270822   2.996   2.607   7.816  1.3667  1.6370 -0.1010
22857SOL     OW70823   0.749   4.462   6.081 -0.9733 -0.0009 -0.0436
22857SOL    HW170824   0.747   4.366   6.076  1.0657 -0.0393 -1.8342
22857SOL    HW270825   0.709   4.491   5.999 -1.0818  0.6538  0.2363
22858SOL     OW70826   0.910   5.496   6.523 -0.2094  0.3727  0.1007
22858SOL    HW170827   0.815   5.500   6.533 -0.4071  0.6450 -1.6327
22858SOL    HW270828   0.928   5.403   6.508 -0.2798  0.4121 -0.2299
22859SOL     OW70829   1.331   6.438   5.969 -0.1503  0.1879 -0.2952
22859SOL    HW170830   1.420   6.406   5.988 -0.2962  0.9778  2.0406
22859SOL    HW270831   1.281   6.358   5.950  1.1317 -0.2308 -2.2767
22860SOL     OW70832   8.660   8.428   7.150 -0.0597  0.0040 -0.1045
22860SOL    HW170833   8.705   8.500   7.105  3.0437  0.1870  2.8920
22860SOL    HW270834   8.727   8.360   7.160 -1.7959 -1.6919  0.5896
22861SOL     OW70835   5.406   9.745   5.033 -0.0926 -0.0654 -0.1138
22861SOL    HW170836   5.345   9.694   5.086 -0.7303 -0.1017 -0.8677
22861SOL    HW270837   5.397   9.709   4.945  1.1535 -0.1873 -0.2012
22862SOL     OW70838   2.202   5.307   3.891 -0.3214 -0.2054  0.0496
22862SOL    HW170839   2.215   5.322   3.798 -0.4188  0.8003  0.1848
22862SOL    HW270840   2.287   5.326   3.931 -0.2276 -0.8213  0.1468
22863SOL     OW70841   0.162   0.037   6.721 -0.4038  0.1386 -0.2929
22863SOL    HW170842   0.133  -0.052   6.740  0.4688 -0.1347 -0.2060
22863SOL    HW270843   0.146   0.048   6.628  1.3632 -0.8534 -0.7565
22864SOL     OW70844   7.076   1.532   2.090  0.1765  0.0019 -0.2669
22864SOL    HW170845   7.075   1.623   2.061  1.1548 -0.0328 -0.4732
22864SOL    HW270846   7.162   1.500   2.062  0.3936 -0.5807  1.0166
22865SOL     OW70847   0.326   9.693   6.423  0.1411 -0.3076  0.3457
22865SOL    HW170848   0.382   9.688   6.500 -0.4776 -0.0512  0.8270
22865SOL    HW270849   0.291   9.604   6.414 -1.6260  0.1708  1.8034
22866SOL     OW70850   9.276   1.314   9.280 -0.1059 -0.0872 -0.4463
22866SOL    HW170851   9.251   1.222   9.282  0.1688 -0.1551 -0.0740
22866SOL    HW270852   9.322   1.329   9.363 -2.4701  1.0713  0.7364
22867SOL     OW70853  10.373   3.566   9.633  0.4805 -0.4887  0.1120
22867SOL    HW170854  10.468   3.577   9.624  0.6924  0.1138  2.3297
22867SOL    HW270855  10.338   3.654   9.626 -0.0260 -0.7718 -1.2799
22868SOL     OW70856  10.062   9.430  10.026 -0.4741 -0.0005 -0.0471
22868SOL    HW170857  10.088   9.494  10.093  3.2438 -1.5895  0.3060
22868SOL    HW270858  10.069   9.478   9.944  1.2059  0.4451  0.2991
22869SOL     OW70859   2.009   7.816   1.848  0.4540 -0.1689  0.5049
22869SOL    HW170860   2.090   7.775   1.818  0.9320  0.2391  1.2073
22869SOL    HW270861   2.035   7.906   1.869  0.2529 -0.5474  2.5482
22870SOL     OW70862   1.390   3.962   7.296  0.6836  0.1204 -0.0458
22870SOL    HW170863   1.481   3.980   7.271  1.2109 -2.3392 -0.2042
22870SOL    HW270864   1.376   3.871   7.269 -1.4027  0.0162  1.2044
22871SOL     OW70865   8.253   1.438   1.434 -0.2881 -0.5765 -0.1556
22871SOL    HW170866   8.328   1.379   1.438 -1.8000 -2.5651  0.9542
22871SOL    HW270867   8.217   1.438   1.523 -0.2516  2.2384 -0.0697
22872SOL     OW70868  10.496   8.121   4.869 -0.1222 -0.0602 -0.3490
22872SOL    HW170869  10.472   8.186   4.935  1.3197 -0.6952  0.8606
22872SOL    HW270870  10.434   8.049   4.882  0.6232 -0.5081  0.8752
22873SOL     OW70871   5.090   7.705   7.878 -0.3120 -0.0084 -0.4114
22873SOL    HW170872   5.123   7.787   7.915  0.6484 -0.4005 -0.3723
22873SOL    HW270873   5.040   7.665   7.949  0.6843 -0.2815  0.1528
22874SOL     OW70874   1.154   6.503   5.598 -0.6723  0.5828  0.3093
22874SOL    HW170875   1.086   6.534   5.538 -0.3980  0.7941  0.1047
22874SOL    HW270876   1.228   6.563   5.584  0.1353 -0.5928 -0.6090
22875SOL     OW70877   1.982   7.045   7.121 -0.1978  0.3071 -0.0599
22875SOL    HW170878   2.021   6.995   7.193  1.4512  0.6371 -0.6778
22875SOL    HW270879   1.993   7.137   7.147  1.1490  0.4549 -1.0580
22876SOL     OW70880   0.091   6.958   1.848  0.4651 -0.0102 -1.0632
22876SOL    HW170881   0.146   6.880   1.852 -0.5135 -0.8362 -2.4410
22876SOL    HW270882   0.005   6.924   1.823 -0.7123  1.2182  1.0488
22877SOL     OW70883   0.861   5.784   0.723 -0.2052 -0.0641  0.2438
22877SOL    HW170884   0.837   5.696   0.752  1.6703 -0.5459  0.4130
22877SOL    HW270885   0.922   5.816   0.789 -0.8738  1.3892  0.1887
22878SOL     OW70886   2.796   1.382   4.172 -0.1793 -0.9155 -0.2875
22878SOL    HW170887   2.871   1.365   4.229  0.9656  2.1089 -0.7214
22878SOL    HW270888   2.834   1.397   4.086 -1.3240  0.1331 -0.6387
22879SOL     OW70889   8.979   7.422   0.159 -0.3142 -0.3914  0.5880
22879SOL    HW170890   8.951   7.365   0.230 -0.1702 -0.9725  0.1861
22879SOL    HW270891   8.909   7.487   0.151 -0.5767 -0.6315  0.9156
22880SOL     OW70892   6.328   0.010   8.736  0.1588  0.0147 -0.4920
22880SOL    HW170893   6.361  -0.032   8.816 -0.1832  4.0825  2.0860
22880SOL    HW270894   6.400   0.003   8.674  0.7589 -2.5897  0.3408
22881SOL     OW70895   3.432   4.081   3.642  0.4220  0.3661  0.2729
22881SOL    HW170896   3.509   4.135   3.661 -0.4243  1.6937  0.0813
22881SOL    HW270897   3.358   4.139   3.659 -0.5579 -0.9882  0.7673
22882SOL     OW70898   3.533   0.726   5.383  0.0868 -0.6078 -0.7551
22882SOL    HW170899   3.613   0.688   5.347  1.2491  0.1571  0.8565
22882SOL    HW270900   3.514   0.671   5.460 -0.3466 -0.1796 -0.5549
22883SOL     OW70901   7.754   2.077   9.307  0.6274  0.5468  0.5097
22883SOL    HW170902   7.777   2.155   9.257  0.6271  1.0432  1.2686
22883SOL    HW270903   7.771   2.004   9.246  0.7564  1.1203 -0.1592
22884SOL     OW70904   3.425   7.707   1.118  0.2711  0.4623  0.5142
22884SOL    HW170905   3.511   7.750   1.125  0.6584 -0.0645 -0.6250
22884SOL    HW270906   3.391   7.737   1.033 -0.5393  0.4248  0.8210
22885SOL     OW70907   6.061   8.224   2.318  0.1486 -0.0658 -0.4540
22885SOL    HW170908   6.029   8.285   2.252 -1.6202 -1.9084 -1.3933
22885SOL    HW270909   6.005   8.148   2.310 -0.8962 -0.0158  3.9572
22886SOL     OW70910   4.780   3.877   7.635  0.2193  0.1487  0.6243
22886SOL    HW170911   4.866   3.889   7.596  0.2322  1.0926  0.9172
22886SOL    HW270912   4.770   3.951   7.695 -1.2634  0.7557 -0.2856
22887SOL     OW70913   6.047   6.144   5.260  0.0340 -0.4633  0.0886
22887SOL    HW170914   6.077   6.174   5.346 -0.7797 -0.3011  0.3319
22887SOL    HW270915   6.040   6.049   5.268  1.6355 -0.6491 -0.3622
22888SOL     OW70916   9.444   9.275   1.042 -0.5219  0.1954 -0.1856
22888SOL    HW170917   9.511   9.333   1.006  0.9726 -1.6446 -0.5748
22888SOL    HW270918   9.473   9.256   1.131 -0.9676  0.0171 -0.0724
22889SOL     OW70919   9.671   0.650   6.385 -0.1332  0.0633 -0.1546
22889SOL    HW170920   9.612   0.581   6.356 -0.4252 -0.6250  1.8931
22889SOL    HW270921   9.613   0.714   6.428  0.2105  1.2703 -1.4349
22890SOL     OW70922   7.295   1.242   1.670  0.1782 -0.5640  0.3671
22890SOL    HW170923   7.349   1.235   1.749  1.0813  0.3480 -0.1434
22890SOL    HW270924   7.218   1.293   1.699  1.0438  0.7687  0.4273
22891SOL     OW70925   0.607   7.983   9.143  0.4441  0.3095  0.1338
22891SOL    HW170926   0.674   8.041   9.106  0.7037  0.3615  0.6750
22891SOL    HW270927   0.651   7.898   9.151  0.0107 -0.0112 -0.8189
22892SOL     OW70928   9.004  10.486   2.197 -0.4614 -0.1222  0.0633
22892SOL    HW170929   9.034  10.452   2.282  0.8755 -2.1901 -1.1476
22892SOL    HW270930   8.935  10.424   2.170  0.9740 -1.1375 -1.5106
22893SOL     OW70931  10.451   4.956   4.807  0.2415 -0.2259 -0.0156
22893SOL    HW170932  10.523   4.967   4.745  0.3793  1.0143  0.3459
22893SOL    HW270933  10.372   4.975   4.755  0.4236  1.9732  0.4024
22894SOL     OW70934   2.355  10.221  10.100  0.5320 -0.1247  0.3271
22894SOL    HW170935   2.381  10.143  10.051 -1.3313  0.0690 -1.1072
22894SOL    HW270936   2.305  10.187  10.174 -0.3744 -0.3390 -0.3589
22895SOL     OW70937   9.383   9.975   6.402  0.3157 -0.2040 -0.0036
22895SOL    HW170938   9.373   9.933   6.317  0.7541 -0.6071  0.1390
22895SOL    HW270939   9.295   9.977   6.439  0.2639 -0.8623 -0.0768
22896SOL     OW70940   3.290   9.091   9.318 -0.2684  0.6635  0.4322
22896SOL    HW170941   3.271   8.999   9.298 -0.9772  0.8401  0.2697
22896SOL    HW270942   3.374   9.108   9.276 -0.6069  0.3659 -0.3758
22897SOL     OW70943   1.634   5.644   3.726 -0.2321 -0.1915 -0.1756
22897SOL    HW170944   1.539   5.632   3.735  0.0347 -1.3179  1.6105
22897SOL    HW270945   1.643   5.732   3.689 -1.9549  0.5537  0.9992
22898SOL     OW70946   0.950   6.073   9.309 -0.2075  0.0276  0.1028
22898SOL    HW170947   0.931   6.166   9.321  0.3859  0.4073 -1.6962
22898SOL    HW270948   0.965   6.062   9.215  1.8577 -1.4675  0.5188
22899SOL     OW70949   8.414   9.525   4.516 -0.1602  0.7513  0.5353
22899SOL    HW170950   8.414   9.620   4.507  0.2014  0.7465  0.4909
22899SOL    HW270951   8.506   9.501   4.525 -0.3161  0.5247  1.7426
22900SOL     OW70952   3.528   6.910   8.328  0.2981 -0.3617 -0.3102
22900SOL    HW170953   3.454   6.950   8.283  0.3032 -1.0420 -0.9356
22900SOL    HW270954   3.558   6.841   8.269  1.1100 -0.4292  0.1665
22901SOL     OW70955   9.346   2.843   0.005 -0.2772  1.0833  0.0520
22901SOL    HW170956   9.373   2.795  -0.073 -0.1487  0.5708  0.4044
22901SOL    HW270957   9.264   2.801   0.032 -0.3627  1.3075  0.1470
22902SOL     OW70958   3.733   7.724   6.868  0.6513  0.2087 -0.1460
22902SOL    HW170959   3.678   7.719   6.946  2.0280  0.7550  0.9067
22902SOL    HW270960   3.729   7.816   6.841 -0.0367 -0.0340 -0.9000
22903SOL     OW70961  10.391   9.003   1.735  0.2914 -0.5586 -0.2955
22903SOL    HW170962  10.416   8.920   1.695 -0.1379 -0.5617 -0.5658
22903SOL    HW270963  10.434   9.002   1.821  1.0342 -0.6509 -0.6584
22904SOL     OW70964   2.055   7.457   8.931 -0.4087 -0.5209 -0.5516
22904SOL    HW170965   2.040   7.455   8.837 -1.9705 -1.4726 -0.3150
22904SOL    HW270966   1.967   7.461   8.970  0.0796 -2.3420  0.8911
22905SOL     OW70967   0.933   1.485   5.041  0.0340  0.4894 -0.3626
22905SOL    HW170968   0.999   1.420   5.063 -0.4691 -0.8897 -2.6893
22905SOL    HW270969   0.863   1.436   4.999 -2.3873  1.9596  1.6438
22906SOL     OW70970   9.500   5.087   1.978  0.0804 -0.1416  0.0185
22906SOL    HW170971   9.448   5.022   1.930 -0.0401 -0.3998  0.4974
22906SOL    HW270972   9.478   5.073   2.070  0.5994  0.0985  0.1830
22907SOL     OW70973   8.317   7.271   2.653  0.2491  0.0717  0.7353
22907SOL    HW170974   8.371   7.307   2.723 -1.3745 -0.2871  2.2401
22907SOL    HW270975   8.248   7.336   2.641 -0.5909 -0.7851  0.8618
22908SOL     OW70976   2.305   1.395   8.388  0.1420  0.7455 -0.1415
22908SOL    HW170977   2.321   1.489   8.384 -0.8866  1.0469  1.5995
22908SOL    HW270978   2.248   1.377   8.313  1.6545  1.1672 -1.4447
22909SOL     OW70979   8.492   8.893   7.180 -0.4014 -0.7102  0.3694
22909SOL    HW170980   8.403   8.866   7.155 -0.6175  0.0309  0.3148
22909SOL    HW270981   8.548   8.854   7.113 -0.8561  0.1946 -0.5828
22910SOL     OW70982   4.828   6.043   8.437 -0.7804  0.2369  0.0771
22910SOL    HW170983   4.917   6.078   8.446 -0.3412 -0.7921 -0.1507
22910SOL    HW270984   4.828   5.964   8.491 -1.3472 -0.1398 -0.4650
22911SOL     OW70985  10.563   2.597   3.176  0.2272  0.4334 -0.4263
22911SOL    HW170986  10.540   2.537   3.247  1.4559  1.1597  0.6271
22911SOL    HW270987  10.499   2.668   3.182 -0.8848 -0.4491 -1.3264
22912SOL     OW70988   2.956   4.888   9.250  0.4109 -0.3761  0.2664
22912SOL    HW170989   2.967   4.844   9.166  0.6435  0.9359 -0.4062
22912SOL    HW270990   2.861   4.896   9.261  0.3905  0.2866 -0.3300
22913SOL     OW70991   5.953   4.245   7.420  0.3159  0.6248  0.2676
22913SOL    HW170992   5.932   4.230   7.512 -2.4586 -0.9247 -0.4943
22913SOL    HW270993   5.996   4.164   7.392  0.8876  0.9741  0.1275
22914SOL     OW70994   8.665   6.408   2.360 -0.1349 -0.1768 -0.3568
22914SOL    HW170995   8.581   6.363   2.365 -0.9956  1.4773  1.5612
22914SOL    HW270996   8.712   6.379   2.438  0.2051  0.4906 -0.3037
22915SOL     OW70997   5.393   9.356  10.549 -0.0929 -0.0674  0.3258
22915SOL    HW170998   5.372   9.263  10.559  0.2212 -0.2557 -0.7079
22915SOL    HW270999   5.307   9.399  10.546 -0.3648 -0.6280 -1.8386
22916SOL     OW71000  10.080   8.416   0.241  0.3424 -0.0551 -0.1039
22916SOL    HW171001  10.099   8.323   0.254  0.6027 -0.1670 -1.2232
22916SOL    HW271002  10.066   8.425   0.147 -1.3244  0.7411  0.1813
22917SOL     OW71003   6.361   1.068   6.506  0.6491 -0.3352  0.5350
22917SOL    HW171004   6.384   1.141   6.448  0.0539 -0.6796 -0.1618
22917SOL    HW271005   6.266   1.059   6.494  0.6800 -1.0298  0.8392
22918SOL     OW71006   2.259   5.042  10.409 -0.3916  0.2613 -0.7606
22918SOL    HW171007   2.212   4.988  10.473  0.1390  1.0333  0.3189
22918SOL    HW271008   2.339   4.993  10.391  0.1617  0.7014  0.3343
22919SOL     OW71009   2.289   7.136   2.123 -0.2150 -0.1995 -0.3306
22919SOL    HW171010   2.385   7.143   2.121 -0.1814  0.5106  1.6229
22919SOL    HW271011   2.270   7.093   2.206 -1.6812  2.4176  0.8247
22920SOL     OW71012   4.168   9.204  10.088 -0.1352  0.1581  0.3169
22920SOL    HW171013   4.226   9.256  10.033  0.7705 -1.4039 -0.2679
22920SOL    HW271014   4.097   9.175  10.029  0.9225 -1.6525 -0.1579
22921SOL     OW71015  10.146   8.332   2.041 -0.0258  0.4045  0.2939
22921SOL    HW171016  10.222   8.319   1.983  0.4180  2.0054  0.4842
22921SOL    HW271017  10.154   8.262   2.106 -0.9478 -1.9227 -1.9101
22922SOL     OW71018   9.318   9.576   2.127  0.8449 -0.1790  0.0383
22922SOL    HW171019   9.305   9.572   2.222  0.4991 -0.2474 -0.0107
22922SOL    HW271020   9.348   9.665   2.111  0.5928 -0.0673  0.1776
22923SOL     OW71021   5.627   2.929   1.486 -0.4456 -0.1635 -0.0493
22923SOL    HW171022   5.627   2.988   1.561  0.9565  0.4541 -0.4938
22923SOL    HW271023   5.563   2.967   1.426 -0.3189  0.3360  0.1206
22924SOL     OW71024   4.403   4.456   8.123  0.5113 -0.5594  0.1615
22924SOL    HW171025   4.457   4.503   8.187  1.1675  0.4402 -1.0733
22924SOL    HW271026   4.412   4.507   8.042 -0.6337 -1.5435 -0.6269
22925SOL     OW71027   1.296   7.811   3.464 -0.4991 -0.1667  0.2720
22925SOL    HW171028   1.298   7.754   3.387  1.0089  1.6284 -1.1072
22925SOL    HW271029   1.384   7.805   3.501 -0.5029  0.7586  0.4671
22926SOL     OW71030   8.284   9.426   3.293  0.1816  0.6273  0.2942
22926SOL    HW171031   8.262   9.388   3.378  1.1859  1.9067  1.1757
22926SOL    HW271032   8.235   9.374   3.229  2.3090 -2.8978  1.2457
22927SOL     OW71033   7.365   1.881   9.787 -0.3529 -0.4177 -0.2499
22927SOL    HW171034   7.379   1.786   9.786  0.1824 -0.3442  0.0114
22927SOL    HW271035   7.284   1.893   9.836 -0.0702 -0.6965  0.2861
22928SOL     OW71036   6.143   5.189   4.438  0.2640  0.0674  0.4064
22928SOL    HW171037   6.165   5.202   4.531  0.5618  0.5462  0.2710
22928SOL    HW271038   6.096   5.269   4.413 -1.1201 -0.6795  0.5262
22929SOL     OW71039   3.653   7.092   4.080 -0.2730  0.7837  0.0599
22929SOL    HW171040   3.746   7.115   4.073  0.0969 -0.0600  1.6020
22929SOL    HW271041   3.635   7.040   4.001  0.9008 -0.0330  0.2974
22930SOL     OW71042   9.941   8.213   1.911  0.1852  0.1842 -0.3188
22930SOL    HW171043   9.946   8.209   1.816 -0.4471 -0.5305 -0.3306
22930SOL    HW271044  10.021   8.258   1.938  0.7719 -0.3494 -1.1391
22931SOL     OW71045  10.000   5.619   8.130  0.0239 -0.4620  0.1853
22931SOL    HW171046  10.070   5.587   8.186 -0.4127 -0.4114  0.7756
22931SOL    HW271047   9.919   5.591   8.175 -0.4228  2.0607  1.1359
22932SOL     OW71048   3.151   0.306   8.507 -0.5133 -0.3990  0.8160
22932SOL    HW171049   3.139   0.391   8.549 -1.6260  0.2822 -0.8051
22932SOL    HW271050   3.112   0.316   8.421 -1.9427 -3.0016  1.0756
22933SOL     OW71051   6.519   9.308   2.035  0.0633  0.9535 -0.7222
22933SOL    HW171052   6.606   9.286   2.068 -0.3231  1.2347  0.5294
22933SOL    HW271053   6.464   9.312   2.113 -1.1761  0.3611 -1.5302
22934SOL     OW71054   8.060   2.140   7.462  0.2371 -0.1122 -0.5602
22934SOL    HW171055   8.107   2.062   7.432  0.2850 -0.2114 -0.2273
22934SOL    HW271056   7.995   2.107   7.524  0.5976  0.1619 -0.0250
22935SOL     OW71057   5.702  10.162  10.414  0.2770  0.2770  0.0838
22935SOL    HW171058   5.721  10.152  10.321  1.5069  1.3631  0.1935
22935SOL    HW271059   5.629  10.224  10.418 -1.2214 -1.3700 -0.1994
22936SOL     OW71060   1.924   1.174   4.822 -0.6039 -0.6434 -0.3669
22936SOL    HW171061   1.923   1.208   4.912  1.6666  0.1130 -0.5770
22936SOL    HW271062   1.997   1.113   4.820 -1.2592 -1.4301 -1.4698
22937SOL     OW71063  10.489   3.152   7.005  0.0489  0.9021  0.2485
22937SOL    HW171064  10.447   3.103   7.075  1.8153 -0.9534  0.0787
22937SOL    HW271065  10.470   3.244   7.025 -0.8972  0.3255  2.1972
22938SOL     OW71066   7.284   0.051   2.696  0.3642  0.7493  0.2429
22938SOL    HW171067   7.362   0.055   2.640  0.0897  0.4275 -0.1639
22938SOL    HW271068   7.268  -0.042   2.708  0.3662  0.8159  0.7891
22939SOL     OW71069   4.860   5.610   6.585  0.2097  0.5794 -0.2155
22939SOL    HW171070   4.831   5.664   6.511 -0.8700  0.6582  0.2458
22939SOL    HW271071   4.951   5.637   6.600  0.1436  1.2342 -0.9048
22940SOL     OW71072   5.432   0.724   4.007 -0.2274 -0.4065 -0.1483
22940SOL    HW171073   5.348   0.688   4.036  0.0477 -0.4154  0.6546
22940SOL    HW271074   5.418   0.819   4.006  0.0590 -0.3264  1.0525
22941SOL     OW71075   8.738   2.094   5.896  0.0286 -0.5306  0.0774
22941SOL    HW171076   8.760   2.187   5.899  2.0699 -1.0028  1.1366
22941SOL    HW271077   8.756   2.068   5.806 -1.2087  0.2019 -0.4152
22942SOL     OW71078   6.574   7.543   3.856 -0.1442 -0.1478 -0.3472
22942SOL    HW171079   6.568   7.453   3.823 -0.4217 -0.2874  0.0685
22942SOL    HW271080   6.549   7.597   3.781  0.8171 -0.3652 -0.8430
22943SOL     OW71081   2.079   4.370  10.123 -0.4607  0.2627  0.0317
22943SOL    HW171082   2.010   4.314  10.085 -0.3970 -0.5026  0.9873
22943SOL    HW271083   2.161   4.326  10.100 -0.3563  0.5119 -0.0718
22944SOL     OW71084   4.868   9.511   0.485  0.0173 -0.3544 -0.4021
22944SOL    HW171085   4.928   9.579   0.515 -0.6842  0.1907 -0.2008
22944SOL    HW271086   4.812   9.554   0.420 -1.7511 -0.1528  1.1638
22945SOL     OW71087   7.894   2.892  10.499 -0.3706  0.0178  0.0583
22945SOL    HW171088   7.860   2.826  10.559 -0.8805 -0.6668 -0.9490
22945SOL    HW271089   7.944   2.842  10.434  0.6714  0.8001  0.2314
22946SOL     OW71090   1.175   7.416   5.018  0.2623 -0.1707  0.3089
22946SOL    HW171091   1.113   7.474   4.975 -1.5481 -2.5200 -0.4878
22946SOL    HW271092   1.256   7.466   5.023 -1.3487  2.6119  0.3286
22947SOL     OW71093   9.407   1.404   3.212 -0.1816  0.0563  0.3924
22947SOL    HW171094   9.342   1.382   3.145 -2.3732 -1.5894  2.8879
22947SOL    HW271095   9.371   1.482   3.256 -1.2954 -1.6130  2.6289
22948SOL     OW71096   8.416   0.861  10.029  0.4117 -0.7381  0.2301
22948SOL    HW171097   8.355   0.910  10.085  1.7672  0.0629  1.0734
22948SOL    HW271098   8.399   0.893   9.940 -1.4098 -1.6401  0.2183
22949SOL     OW71099   9.581   9.636   1.832  0.2561  1.0725  0.0310
22949SOL    HW171100   9.523   9.697   1.878 -0.6854  0.7784 -0.7377
22949SOL    HW271101   9.626   9.691   1.768 -0.0075  1.1066 -0.1270
22950SOL     OW71102   3.865   1.252   3.127 -0.1694  0.2029 -0.0781
22950SOL    HW171103   3.941   1.295   3.089  0.1690  0.2109  0.6021
22950SOL    HW271104   3.872   1.160   3.098 -0.2713  0.3444 -0.5678
22951SOL     OW71105   8.437   9.789   4.504 -0.0833 -0.2227 -0.1738
22951SOL    HW171106   8.486   9.806   4.423  1.7758 -2.0431  0.4957
22951SOL    HW271107   8.466   9.857   4.564  0.9774 -0.7519 -0.0687
22952SOL     OW71108   1.421   8.307   8.012  0.2978 -0.4331 -0.2577
22952SOL    HW171109   1.442   8.221   8.048  2.4447 -0.0627 -0.5022
22952SOL    HW271110   1.379   8.288   7.928 -1.6793 -1.2327  0.8390
22953SOL     OW71111   2.202   4.683   7.366 -0.2509  0.6755 -0.0550
22953SOL    HW171112   2.239   4.757   7.317  0.7405  0.1187 -0.1769
22953SOL    HW271113   2.116   4.669   7.327  1.2876 -1.1005 -3.1703
22954SOL     OW71114  10.478   9.652   1.200 -0.2974  0.3762 -0.3645
22954SOL    HW171115  10.443   9.566   1.178 -0.0114  0.2963 -0.5185
22954SOL    HW271116  10.440   9.711   1.136  0.0835  0.2391 -0.7279
22955SOL     OW71117  10.641   6.370   1.524 -0.6064 -0.0673 -0.2594
22955SOL    HW171118  10.687   6.432   1.466  0.5894  1.1430  1.8677
22955SOL    HW271119  10.706   6.303   1.543 -0.7845 -0.1178  0.1712
22956SOL     OW71120   5.712   7.929   2.526  0.3475 -0.1608  0.4110
22956SOL    HW171121   5.650   7.971   2.585 -0.1518  0.2099 -0.3763
22956SOL    HW271122   5.729   7.844   2.567  1.3899  0.7581  2.0378
22957SOL     OW71123   9.621   6.020   4.828  0.5083 -0.3671  0.0189
22957SOL    HW171124   9.561   6.074   4.879 -0.0943  0.1226 -1.1709
22957SOL    HW271125   9.590   5.930   4.841  1.1875 -0.4120  1.5699
22958SOL     OW71126   5.249   3.108  10.248 -0.1345  0.0451 -0.4328
22958SOL    HW171127   5.181   3.174  10.238  0.6295  1.1003  0.9251
22958SOL    HW271128   5.328   3.151  10.214  0.0643 -0.7818 -1.0426
22959SOL     OW71129  10.055  10.341   5.091  0.3969  0.0273  0.2744
22959SOL    HW171130  10.001  10.271   5.054 -0.4617  1.6550 -1.7666
22959SOL    HW271131  10.113  10.367   5.019  0.8412  1.2628  1.0498
22960SOL     OW71132   6.994   6.552   4.008  0.0276 -0.2673  0.2037
22960SOL    HW171133   7.065   6.494   3.981  1.7125  2.6394 -2.2428
22960SOL    HW271134   7.026   6.593   4.088 -0.3914 -1.3662  0.9477
22961SOL     OW71135   7.292   0.185   4.883  0.5016 -0.2817  0.6749
22961SOL    HW171136   7.222   0.249   4.896  0.5018 -0.5035  1.9092
22961SOL    HW271137   7.305   0.183   4.788 -0.6642  0.2922  0.4791
22962SOL     OW71138   6.759   7.260   4.027 -0.4811  0.2465  0.0042
22962SOL    HW171139   6.809   7.197   3.975  1.1062 -0.4508  2.1914
22962SOL    HW271140   6.781   7.345   3.990  0.6602 -0.2119 -0.4226
22963SOL     OW71141   9.980   9.068   2.900  0.4200  0.3071  0.4200
22963SOL    HW171142  10.000   9.075   2.806  1.8847 -0.6252  0.6325
22963SOL    HW271143   9.900   9.016   2.904  0.4873  0.1369 -0.3041
22964SOL     OW71144   1.647   4.750   2.183  0.4334  0.2281 -0.5156
22964SOL    HW171145   1.647   4.693   2.106  1.7517 -0.4539 -0.0427
22964SOL    HW271146   1.633   4.691   2.257  1.1761  0.5902 -0.0757
22965SOL     OW71147   8.265  10.584   4.762  0.2109 -0.1009  0.3354
22965SOL    HW171148   8.324  10.579   4.687  1.0900 -1.5417  1.0879
22965SOL    HW271149   8.193  10.525   4.740 -0.0768  0.3101  0.1682
22966SOL     OW71150   7.881   9.055   7.468  0.2658 -0.1760  0.2735
22966SOL    HW171151   7.895   8.960   7.462  0.4687 -0.1014 -0.5467
22966SOL    HW271152   7.865   9.082   7.378 -3.0723  0.0970  0.8346
22967SOL     OW71153   5.841   4.471   5.071 -0.7449  0.1088 -0.2980
22967SOL    HW171154   5.905   4.436   5.008  0.3141  0.5102  0.5288
22967SOL    HW271155   5.894   4.508   5.141 -1.9031 -0.3783  0.8786
22968SOL     OW71156   5.410   0.650   9.203 -0.3987 -0.5550 -0.3818
22968SOL    HW171157   5.350   0.575   9.204 -0.2903 -0.6437  0.0957
22968SOL    HW271158   5.444   0.653   9.114  0.7089 -1.9832 -0.0574
22969SOL     OW71159   3.317   0.361   0.339  0.4109  0.0411  0.0281
22969SOL    HW171160   3.367   0.309   0.403  1.9162 -3.1361 -3.3885
22969SOL    HW271161   3.341   0.452   0.359  3.5498 -1.0080  1.7749
22970SOL     OW71162   5.923   8.489   1.325  0.4223  0.1407 -0.6769
22970SOL    HW171163   5.939   8.443   1.242 -0.7626 -1.5905 -0.0112
22970SOL    HW271164   5.902   8.419   1.387  2.4420  1.2558  1.4249
22971SOL     OW71165   4.152   0.548   5.807 -0.3975  0.1748 -0.3159
22971SOL    HW171166   4.169   0.455   5.798  3.2354  0.4316  1.7597
22971SOL    HW271167   4.062   0.554   5.839 -0.7463 -2.5626 -0.5987
22972SOL     OW71168   9.178   5.442   2.711 -0.1352  0.0152  0.3520
22972SOL    HW171169   9.107   5.456   2.649  1.6722  0.6291 -1.7558
22972SOL    HW271170   9.256   5.473   2.664  1.4276  0.0086  2.7809
22973SOL     OW71171   8.749   8.074   8.949 -0.1239  0.6047 -0.0121
22973SOL    HW171172   8.678   8.114   9.001 -0.3243 -2.4940  2.3879
22973SOL    HW271173   8.717   7.987   8.928  1.3470  0.6176 -2.6539
22974SOL     OW71174   9.620   7.294   8.122 -0.6194 -0.8633 -0.0915
22974SOL    HW171175   9.536   7.249   8.129 -0.4396 -1.6148 -2.0281
22974SOL    HW271176   9.666   7.273   8.203 -0.7546 -3.7772 -0.6859
22975SOL     OW71177   6.065   6.806   7.758 -0.3393  0.3534  0.1165
22975SOL    HW171178   6.128   6.745   7.720  3.0411  2.2709  2.1015
22975SOL    HW271179   6.014   6.838   7.684  1.7985 -0.4964 -1.8372
22976SOL     OW71180   0.562   8.115   8.597 -0.0557  0.1476  0.2202
22976SOL    HW171181   0.471   8.133   8.621 -0.1035 -0.1989  0.3008
22976SOL    HW271182   0.562   8.118   8.501 -0.0410  0.6761  0.2335
22977SOL     OW71183   1.440   0.619   8.637 -0.0400  0.2894 -0.1221
22977SOL    HW171184   1.346   0.624   8.622 -0.1970  1.1215  0.9779
22977SOL    HW271185   1.462   0.527   8.624 -1.2290 -0.1527  0.8097
22978SOL     OW71186   8.293   2.153   3.722  0.6881 -0.1061 -0.2108
22978SOL    HW171187   8.333   2.108   3.648  0.2251 -0.5811 -0.1712
22978SOL    HW271188   8.205   2.175   3.692  1.1310  1.4367 -0.5045
22979SOL     OW71189   8.906   8.878   1.175  0.0855  0.0146 -0.0983
22979SOL    HW171190   9.000   8.860   1.170  0.4151  1.1572  1.3637
22979SOL    HW271191   8.871   8.804   1.226 -0.1977 -1.5038 -2.3610
22980SOL     OW71192   0.502   5.683   8.178  0.0472  0.0715  0.3651
22980SOL    HW171193   0.597   5.693   8.173 -0.0384  1.6945  1.3316
22980SOL    HW271194   0.488   5.589   8.186  1.4092 -0.4482 -2.3376
22981SOL     OW71195   3.077  10.197   3.579 -0.2337  0.0615  0.0939
22981SOL    HW171196   3.005  10.135   3.593 -1.0568  0.5983 -1.5792
22981SOL    HW271197   3.150  10.143   3.551 -0.9126 -0.1973 -1.2412
22982SOL     OW71198   8.468  10.537   4.545  0.0469  0.2030 -0.2961
22982SOL    HW171199   8.532  10.601   4.514  1.2504 -0.8116  0.0540
22982SOL    HW271200   8.425  10.506   4.465  0.0830  0.7748 -0.5459
22983SOL     OW71201   4.745   4.774   8.099 -0.1593  0.1073  0.1004
22983SOL    HW171202   4.702   4.723   8.030 -0.4081 -0.8677  0.9452
22983SOL    HW271203   4.680   4.780   8.168 -0.2058  1.7973 -0.0525
22984SOL     OW71204   2.542   6.229   3.049  0.0296 -0.6565  0.3569
22984SOL    HW171205   2.551   6.163   2.980  3.0272 -1.0138  0.9716
22984SOL    HW271206   2.610   6.293   3.031 -0.3926  0.2942  1.9132
22985SOL     OW71207   9.364   9.212   5.220 -0.5729 -0.6530 -0.3391
22985SOL    HW171208   9.384   9.290   5.272 -1.3948  0.3639 -1.4927
22985SOL    HW271209   9.290   9.172   5.264  0.2534 -1.1796  0.6272
22986SOL     OW71210   0.173   2.870   0.744 -0.3045 -0.0855 -0.2239
22986SOL    HW171211   0.163   2.865   0.839  0.7628 -1.5431 -0.1498
22986SOL    HW271212   0.098   2.820   0.710 -1.9938  2.3266 -0.2900
22987SOL     OW71213   2.530   8.782   2.560 -0.1687 -0.4213  0.0920
22987SOL    HW171214   2.523   8.846   2.489 -0.7477  0.1228  0.6305
22987SOL    HW271215   2.619   8.796   2.595  0.1754 -0.7969 -0.6154
22988SOL     OW71216   6.268   6.333   7.506 -0.1288  0.2722 -0.1088
22988SOL    HW171217   6.226   6.247   7.518  0.4956 -0.0765 -0.4006
22988SOL    HW271218   6.194   6.393   7.493 -0.6969  0.1231  1.9502
22989SOL     OW71219   3.007   9.913  10.123 -0.7600 -0.3106  0.1981
22989SOL    HW171220   2.968   9.872  10.046  1.5355 -1.4584 -0.4528
22989SOL    HW271221   2.933   9.949  10.171 -2.4011 -0.7861 -1.8240
22990SOL     OW71222   8.280   6.861   3.561  0.0363  0.1294 -0.2093
22990SOL    HW171223   8.307   6.772   3.540 -1.2544 -0.3138 -0.1090
22990SOL    HW271224   8.350   6.916   3.527  0.1118 -0.8310 -1.7084
22991SOL     OW71225   3.098   1.275   3.805 -0.2725 -0.3373  0.1032
22991SOL    HW171226   3.051   1.304   3.883  0.6259 -2.4608  1.5149
22991SOL    HW271227   3.042   1.207   3.768 -0.2126 -0.0394 -0.5452
22992SOL     OW71228   9.726   9.653   3.883  0.0317 -0.6475 -0.2347
22992SOL    HW171229   9.686   9.574   3.920  1.3550 -0.3856  1.9891
22992SOL    HW271230   9.674   9.725   3.920  0.4195 -0.4193 -0.1289
22993SOL     OW71231   5.003   8.927  10.517 -0.0725 -0.2743  0.1287
22993SOL    HW171232   5.014   9.013  10.476 -0.4454 -0.5511 -0.5636
22993SOL    HW271233   4.908   8.913  10.519  0.0397 -1.3563 -1.2216
22994SOL     OW71234   2.306   3.608   4.503 -0.1939 -0.0865  0.5406
22994SOL    HW171235   2.352   3.605   4.587  0.0164  3.0658  0.6300
22994SOL    HW271236   2.214   3.595   4.526 -0.0864  0.2724  1.1911
22995SOL     OW71237   1.937  10.564   5.636 -0.0351 -0.0703  0.6740
22995SOL    HW171238   1.968  10.580   5.547 -0.5377  0.9407  0.6648
22995SOL    HW271239   2.015  10.535   5.684 -0.0396 -2.1045 -0.4150
22996SOL     OW71240   7.972   8.459  10.288 -0.1287 -0.4662  0.0302
22996SOL    HW171241   7.912   8.509  10.343  3.3958  0.9020  3.0387
22996SOL    HW271242   7.987   8.377  10.336  1.6183 -0.0344  0.3105
22997SOL     OW71243   8.181   7.245   6.839 -0.7288  0.0225  0.4061
22997SOL    HW171244   8.160   7.179   6.773 -1.9815 -1.5127  2.2416
22997SOL    HW271245   8.117   7.232   6.908  0.2640  1.8402  1.7792
22998SOL     OW71246   9.664   6.216   9.239  0.0412 -0.2406  0.0708
22998SOL    HW171247   9.624   6.201   9.325  2.2668 -2.2968  0.8716
22998SOL    HW271248   9.646   6.308   9.220 -0.4509  0.3310  2.7936
22999SOL     OW71249   6.420   4.752   7.834  0.1729 -0.0616 -0.1484
22999SOL    HW171250   6.509   4.721   7.818  0.6861  0.7166  1.1480
22999SOL    HW271251   6.381   4.757   7.746  1.6525  0.3690 -0.8083
23000SOL     OW71252   9.583   3.367   0.666 -0.2508 -0.1576  0.2183
23000SOL    HW171253   9.502   3.358   0.716 -0.3687 -0.7266 -0.0695
23000SOL    HW271254   9.556   3.357   0.574  0.5034 -3.2833  0.2284
23001SOL     OW71255   5.217   1.001   1.775  0.4918 -0.0515 -0.5799
23001SOL    HW171256   5.235   0.913   1.742  1.5172 -0.1633  0.2273
23001SOL    HW271257   5.301   1.032   1.810  0.2205  1.3650 -1.1002
23002SOL     OW71258   1.688   3.247  10.481 -0.0089 -0.0913  0.4868
23002SOL    HW171259   1.621   3.277  10.543 -0.1902  0.0882  0.2071
23002SOL    HW271260   1.645   3.251  10.396 -0.4481 -2.2818  0.5496
23003SOL     OW71261   2.948   9.162   4.847  0.4154  0.1872  0.4194
23003SOL    HW171262   2.967   9.113   4.767  0.2473  1.6274 -0.5404
23003SOL    HW271263   2.954   9.097   4.917  1.2259 -0.9748 -0.6816
23004SOL     OW71264   1.209   5.282   6.996 -0.0653  0.1880  0.5074
23004SOL    HW171265   1.221   5.371   7.029  4.6407 -0.1090  0.3061
23004SOL    HW271266   1.185   5.294   6.904  0.5540  1.2999  0.4753
23005SOL     OW71267   6.032   1.672   5.826  0.3596 -0.0635  0.2985
23005SOL    HW171268   6.096   1.645   5.892  0.0403 -0.3490  0.4980
23005SOL    HW271269   6.075   1.658   5.742  0.3031 -0.9282  0.4091
23006SOL     OW71270   7.192   0.045   4.428 -0.2067  0.4647  0.3429
23006SOL    HW171271   7.185   0.064   4.334  0.6331 -1.4159 -0.1530
23006SOL    HW271272   7.104   0.060   4.462 -1.2284 -1.3425 -1.2843
23007SOL     OW71273   4.332   7.710   5.047  0.7693  0.0836 -0.0319
23007SOL    HW171274   4.347   7.617   5.031  0.0114  0.0054 -0.3105
23007SOL    HW271275   4.420   7.747   5.057  1.0947 -0.5772 -0.3874
23008SOL     OW71276  10.578   5.081   8.513  0.1291 -0.5674 -0.4543
23008SOL    HW171277  10.668   5.087   8.479  1.1438 -2.2300  1.7019
23008SOL    HW271278  10.523   5.084   8.435  2.0358  0.3839 -1.8640
23009SOL     OW71279  10.586   3.784   5.799 -0.1108  0.1389 -0.0034
23009SOL    HW171280  10.492   3.766   5.803 -0.3580  0.8668 -1.6502
23009SOL    HW271281  10.623   3.732   5.870 -1.6415 -0.9147  0.0842
23010SOL     OW71282   8.983   2.243   8.306 -0.0686 -0.7612 -0.0773
23010SOL    HW171283   9.047   2.171   8.306 -1.2301 -1.8493 -1.1790
23010SOL    HW271284   8.928   2.227   8.382  1.5181  0.7692  1.4916
23011SOL     OW71285   1.991   8.783   5.908 -0.2890  0.1007  0.1235
23011SOL    HW171286   2.032   8.858   5.865 -1.7495  0.7565 -0.2128
23011SOL    HW271287   1.915   8.820   5.953 -1.0353 -1.1621 -0.0413
23012SOL     OW71288   8.106  10.026   8.014 -0.0167  0.4529  0.4507
23012SOL    HW171289   8.064   9.946   8.047  0.4402 -0.2520 -0.6081
23012SOL    HW271290   8.058  10.097   8.055 -1.7561 -0.3354 -0.1187
23013SOL     OW71291   9.148   2.167   9.971  0.2487  0.1842  0.4075
23013SOL    HW171292   9.107   2.168  10.058  0.5536  2.5253  0.5806
23013SOL    HW271293   9.075   2.155   9.911 -0.2087  0.4916  0.8894
23014SOL     OW71294   2.767   4.537   4.467  0.0158 -0.4361  0.2458
23014SOL    HW171295   2.841   4.596   4.481 -0.9145  0.6360  0.8330
23014SOL    HW271296   2.743   4.507   4.555 -1.6226  0.9986  0.3485
23015SOL     OW71297   2.944   8.715   9.296  0.6972 -0.3903 -0.2505
23015SOL    HW171298   2.988   8.654   9.356  1.5464  0.0954 -0.3742
23015SOL    HW271299   3.005   8.788   9.286 -0.7926  1.0906  0.8572
23016SOL     OW71300   4.142   5.103   8.825  0.5375  0.2383  0.2676
23016SOL    HW171301   4.175   5.040   8.888  0.5468 -0.6654 -0.6194
23016SOL    HW271302   4.083   5.159   8.876 -1.0100 -1.6807  0.7354
23017SOL     OW71303   7.530   2.619   5.170 -0.0299 -0.3327 -0.0220
23017SOL    HW171304   7.539   2.689   5.234  1.4988 -0.4862 -0.0462
23017SOL    HW271305   7.546   2.662   5.086  3.4158 -1.0695  0.1161
23018SOL     OW71306   5.418   6.391   5.456  0.3331  0.3757 -0.2079
23018SOL    HW171307   5.459   6.340   5.386 -0.5556  1.5375 -1.6439
23018SOL    HW271308   5.452   6.480   5.443  0.7281  0.4783  1.3293
23019SOL     OW71309   3.971   4.479   1.038  0.4196  0.3545 -0.4121
23019SOL    HW171310   3.955   4.390   1.006  4.0088 -0.9971  1.0255
23019SOL    HW271311   3.947   4.474   1.131  1.5127  0.5503 -0.1045
23020SOL     OW71312   6.578   9.100   6.665 -0.1495 -0.3842 -0.0412
23020SOL    HW171313   6.655   9.081   6.719  1.0407  1.5012 -0.9579
23020SOL    HW271314   6.559   9.193   6.682 -1.1801 -0.3702 -1.1191
23021SOL     OW71315   1.771   6.382   1.587 -0.2710 -0.0900 -0.2127
23021SOL    HW171316   1.722   6.313   1.630 -0.7699 -0.2638 -1.0568
23021SOL    HW271317   1.847   6.338   1.548 -1.5358 -0.5277 -2.3502
23022SOL     OW71318   0.927   8.127   6.155  0.0806  0.0153 -0.2908
23022SOL    HW171319   0.925   8.122   6.059 -0.0113 -0.2903 -0.2725
23022SOL    HW271320   0.843   8.168   6.178  0.6080  1.2018 -0.4046
23023SOL     OW71321   4.987   2.481   5.580 -0.5445  0.5126 -0.9291
23023SOL    HW171322   4.973   2.432   5.498  2.5708 -0.9446 -0.7425
23023SOL    HW271323   5.033   2.560   5.553  1.2423 -0.3661 -0.5936
23024SOL     OW71324   6.038   8.980   9.108  0.1344  0.0978 -0.5177
23024SOL    HW171325   6.031   8.971   9.203 -0.2791  0.9657 -0.4534
23024SOL    HW271326   6.029   8.891   9.074  1.9587 -0.4595  0.3404
23025SOL     OW71327   3.033   7.255  10.055 -0.7564 -0.3582  0.0668
23025SOL    HW171328   2.961   7.311  10.026  0.8055  0.9514 -1.4621
23025SOL    HW271329   3.076   7.305  10.124 -1.2206 -1.1252  0.9485
23026SOL     OW71330   9.726   3.022   6.795  0.3925 -0.4927  0.1814
23026SOL    HW171331   9.645   3.070   6.814 -0.1722 -1.1164 -0.5755
23026SOL    HW271332   9.699   2.952   6.736  1.4764 -0.7769 -0.0010
23027SOL     OW71333   1.680   9.210   4.333 -0.2106 -0.1992 -0.0116
23027SOL    HW171334   1.664   9.266   4.257  1.7410 -1.5695 -1.5347
23027SOL    HW271335   1.730   9.266   4.393 -0.6291  0.5055 -0.3081
23028SOL     OW71336   9.419   0.868   4.631  0.0578 -0.3263 -0.4770
23028SOL    HW171337   9.441   0.857   4.538  1.1742  1.9560 -0.5554
23028SOL    HW271338   9.451   0.789   4.673  3.7564  0.5070 -1.4144
23029SOL     OW71339   0.551   2.538   3.654 -0.0558  0.2086 -0.1993
23029SOL    HW171340   0.584   2.604   3.714 -3.0452  1.5674  0.1158
23029SOL    HW271341   0.474   2.578   3.614 -1.3217 -2.6662 -0.8983
23030SOL     OW71342   4.448   7.151   1.491 -0.0762  0.0598  0.0592
23030SOL    HW171343   4.430   7.227   1.436 -0.2456 -1.2834 -1.8710
23030SOL    HW271344   4.522   7.107   1.447 -0.9347 -1.6605  0.2315
23031SOL     OW71345   0.465   9.605   4.545 -0.1901 -0.0679 -0.8840
23031SOL    HW171346   0.458   9.684   4.599  0.7998 -0.4679 -0.1343
23031SOL    HW271347   0.558   9.582   4.548 -0.4872 -1.3539 -0.9507
23032SOL     OW71348   3.992   3.099   4.623 -0.2221  0.9571 -0.3101
23032SOL    HW171349   3.902   3.133   4.621 -0.9579 -0.8923 -0.8338
23032SOL    HW271350   4.020   3.103   4.532 -0.1942  0.5196 -0.3233
23033SOL     OW71351   0.926   0.471   2.638  0.1753  0.0669 -0.7513
23033SOL    HW171352   0.862   0.528   2.597  0.7916  1.0969 -0.3155
23033SOL    HW271353   0.923   0.493   2.731  2.0898  1.1347 -0.8876
23034SOL     OW71354   6.236   8.136   3.902  0.3474 -0.7230  0.2131
23034SOL    HW171355   6.241   8.153   3.808  1.1862 -0.1361  0.3567
23034SOL    HW271356   6.311   8.079   3.920  1.0742  0.3721  0.7693
23035SOL     OW71357   0.470   4.892   2.306  0.3463 -0.0587  0.1890
23035SOL    HW171358   0.534   4.925   2.369 -0.4155  0.7044  0.5835
23035SOL    HW271359   0.426   4.821   2.353 -0.7383  1.0022  0.8207
23036SOL     OW71360   9.799  10.561   6.625  0.8370  0.2786  0.5654
23036SOL    HW171361   9.746  10.482   6.638 -1.5958  1.3278 -1.8150
23036SOL    HW271362   9.881  10.529   6.589 -0.8317 -1.2183 -2.2805
23037SOL     OW71363   4.175   0.170   7.382 -0.1782  0.3652 -0.6927
23037SOL    HW171364   4.256   0.197   7.339  0.8363 -2.5842 -0.8266
23037SOL    HW271365   4.164   0.232   7.454  2.9618  0.1136  0.1601
23038SOL     OW71366   9.950   7.852   6.307 -0.3528 -0.1793 -0.3893
23038SOL    HW171367   9.966   7.806   6.225  1.7604  0.0541 -0.1644
23038SOL    HW271368   9.957   7.945   6.285  2.3409 -0.1178  0.3355
23039SOL     OW71369   7.013   1.933   7.734  0.2967  0.2397  0.6035
23039SOL    HW171370   7.067   1.970   7.804  1.4442 -1.0846  0.4602
23039SOL    HW271371   6.970   1.857   7.775 -1.2673  1.0977  0.6337
23040SOL     OW71372   3.046   3.576   8.059  0.3648 -0.1754 -0.1854
23040SOL    HW171373   3.059   3.529   7.977 -1.8062 -0.1070 -0.6314
23040SOL    HW271374   3.050   3.508   8.127  0.1009 -0.5551 -0.5494
23041SOL     OW71375   1.939   8.546   8.907  0.1272 -0.4014 -0.4833
23041SOL    HW171376   1.970   8.619   8.961 -0.5294 -1.1994  1.0314
23041SOL    HW271377   1.941   8.470   8.965  0.5689 -1.5761 -1.9544
23042SOL     OW71378   3.996   9.002   9.928  0.3329 -0.0218 -0.4441
23042SOL    HW171379   3.958   8.977  10.012 -0.7647 -0.2064 -0.9825
23042SOL    HW271380   3.992   8.923   9.875 -0.1273  0.4057 -1.0691
23043SOL     OW71381   6.361   9.232   4.753 -0.0978  0.7949  0.4597
23043SOL    HW171382   6.370   9.326   4.772  0.6009  0.9865 -0.7143
23043SOL    HW271383   6.277   9.225   4.707  0.0749  0.9135  0.1265
23044SOL     OW71384   7.165   9.140   8.436 -0.1461 -0.7150  0.6299
23044SOL    HW171385   7.165   9.116   8.343  0.0296  0.2137  0.3805
23044SOL    HW271386   7.221   9.075   8.478 -1.5750 -2.1896  0.3773
23045SOL     OW71387   7.895   9.572   3.861 -0.3993  0.4936  0.3564
23045SOL    HW171388   7.955   9.502   3.835 -2.1055 -1.3871  1.2269
23045SOL    HW271389   7.898   9.634   3.788  0.7830 -0.7307 -0.6974
23046SOL     OW71390   8.318   7.156  10.518  0.0625  0.1800 -0.4719
23046SOL    HW171391   8.270   7.147  10.600 -1.2645  1.4812 -1.0586
23046SOL    HW271392   8.285   7.085  10.463 -1.2566  1.0721 -0.8768
23047SOL     OW71393   0.844  10.222   5.132 -0.0701 -0.5451 -0.6506
23047SOL    HW171394   0.859  10.302   5.182 -0.0600 -1.8480  1.5974
23047SOL    HW271395   0.913  10.162   5.162 -1.5625 -2.2016 -0.3374
23048SOL     OW71396   6.410   2.705   3.062 -0.2319  0.2459 -0.0214
23048SOL    HW171397   6.452   2.626   3.029  0.8796  1.4744 -1.7421
23048SOL    HW271398   6.458   2.725   3.143  0.9677  0.3375 -0.7322
23049SOL     OW71399  10.390   0.820  10.598  0.2753 -0.0685  0.0929
23049SOL    HW171400  10.296   0.815  10.578 -0.1147  1.9404  1.0665
23049SOL    HW271401  10.433   0.810  10.514 -0.7985 -1.0270 -0.3798
23050SOL     OW71402   8.296   8.688   4.973 -0.4448 -0.3307 -0.5018
23050SOL    HW171403   8.359   8.726   5.035 -0.6872 -2.3610  1.1210
23050SOL    HW271404   8.348   8.671   4.894  0.2887  0.8005 -0.2852
23051SOL     OW71405   0.389  10.589   0.909 -0.3554  0.5334 -0.2397
23051SOL    HW171406   0.356  10.530   0.977 -0.5285 -0.6207 -1.2862
23051SOL    HW271407   0.413  10.669   0.956 -0.2866 -0.2980  1.1938
23052SOL     OW71408   0.763   3.438   5.879  0.0740 -0.0233 -0.2044
23052SOL    HW171409   0.833   3.479   5.929  0.6163  0.2699 -1.1932
23052SOL    HW271410   0.741   3.501   5.812 -1.8938  0.3490  0.7229
23053SOL     OW71411   6.138   4.306   6.741  0.0996  0.3339  0.2125
23053SOL    HW171412   6.105   4.260   6.664 -0.5825  1.0787  0.0508
23053SOL    HW271413   6.114   4.398   6.726  1.2289  0.7128  0.6378
23054SOL     OW71414   1.129   9.362   4.547 -0.7461  0.3109 -0.5952
23054SOL    HW171415   1.140   9.443   4.497 -0.5500  1.2774  0.9427
23054SOL    HW271416   1.125   9.293   4.481 -1.8500  1.6587 -2.0064
23055SOL     OW71417   7.166   7.392   4.782 -0.0534  0.2112  0.3203
23055SOL    HW171418   7.250   7.368   4.744  0.8990  1.7720  1.3206
23055SOL    HW271419   7.189   7.446   4.858 -1.9478  2.3436 -0.4917
23056SOL     OW71420   8.331   2.475   4.596 -0.3106  0.3502 -0.5008
23056SOL    HW171421   8.293   2.555   4.561  0.5933  0.8619 -0.3393
23056SOL    HW271422   8.425   2.492   4.599 -0.3762  0.6960  3.0357
23057SOL     OW71423   2.744   7.915   5.929 -0.0832  0.3062 -0.3561
23057SOL    HW171424   2.732   7.972   5.853  2.1347 -0.6554 -1.5006
23057SOL    HW271425   2.801   7.964   5.988 -2.8249  1.6144  1.4578
23058SOL     OW71426   3.052   9.181   2.603 -0.4428 -0.0007  0.7973
23058SOL    HW171427   3.046   9.109   2.666 -0.8689  0.2647  1.0623
23058SOL    HW271428   3.067   9.138   2.519 -1.5349 -0.4544  0.8173
23059SOL     OW71429  10.583   6.475   1.009 -0.6938 -0.0652  0.0763
23059SOL    HW171430  10.561   6.548   0.950  1.7366  2.1499  1.7286
23059SOL    HW271431  10.554   6.505   1.095  1.1981 -0.5686  0.9349
23060SOL     OW71432   3.551   2.696   1.957  0.1957 -0.5272 -0.2672
23060SOL    HW171433   3.561   2.646   1.876 -1.1335 -1.9097  0.3481
23060SOL    HW271434   3.486   2.763   1.936 -0.7774 -1.4056 -0.1728
23061SOL     OW71435   6.418   1.472   9.590 -0.0810 -0.1067  0.2674
23061SOL    HW171436   6.361   1.435   9.522  0.9900  0.7874 -1.1866
23061SOL    HW271437   6.400   1.419   9.668  1.0141 -3.3992 -1.5143
23062SOL     OW71438   3.565   9.515   1.680  0.0741 -0.2070 -0.0091
23062SOL    HW171439   3.533   9.547   1.764 -0.1553  0.9523 -0.5162
23062SOL    HW271440   3.581   9.595   1.629  0.8228 -0.8769 -0.8367
23063SOL     OW71441   5.446   3.572   4.786 -0.4739  0.1483  0.1979
23063SOL    HW171442   5.533   3.570   4.747  0.0462 -1.4278  1.3042
23063SOL    HW271443   5.395   3.631   4.730  1.3647  1.3538 -0.2965
23064SOL     OW71444   7.666  10.537   6.669 -0.2095 -0.1190  0.0485
23064SOL    HW171445   7.742  10.491   6.633 -0.2727 -0.3905  0.2518
23064SOL    HW271446   7.604  10.466   6.689 -1.0894  0.1963 -1.4482
23065SOL     OW71447   8.833   6.349   1.993 -0.2006  0.3512 -0.4291
23065SOL    HW171448   8.809   6.281   2.056  0.6506  1.6179  1.3662
23065SOL    HW271449   8.778   6.332   1.917 -1.9687 -0.7175  1.0005
23066SOL     OW71450   8.909   0.540   1.833 -0.4438  0.4808  0.2741
23066SOL    HW171451   8.876   0.580   1.753 -1.3260  1.2691  1.0133
23066SOL    HW271452   8.872   0.451   1.832  0.6302  0.0292 -0.8311
23067SOL     OW71453   6.053   1.380   9.589 -0.1083  0.1555 -0.0309
23067SOL    HW171454   6.112   1.304   9.586  1.0734  1.0244  0.5876
23067SOL    HW271455   6.006   1.376   9.505 -1.4606 -2.2947  0.7455
23068SOL     OW71456   7.891   4.288   9.723 -0.6885  0.0061  0.5323
23068SOL    HW171457   7.831   4.283   9.797 -1.4453  1.3661  0.0537
23068SOL    HW271458   7.837   4.319   9.650  0.3535  0.1764 -0.1975
23069SOL     OW71459  10.624   2.831   1.254 -0.5218  0.1900 -0.4259
23069SOL    HW171460  10.633   2.900   1.319  1.2711  1.0892 -1.5493
23069SOL    HW271461  10.545   2.783   1.280  0.8614 -0.3939  3.2136
23070SOL     OW71462  10.150   2.954   9.754 -0.8478 -0.3045 -0.1380
23070SOL    HW171463  10.210   2.951   9.829 -0.0862 -2.8129 -0.7161
23070SOL    HW271464  10.147   3.046   9.729  0.4877  0.3079  1.7169
23071SOL     OW71465  10.529   2.747   3.489 -0.1090  0.2553 -0.0670
23071SOL    HW171466  10.521   2.660   3.450 -0.6556  1.0990 -1.9685
23071SOL    HW271467  10.438   2.771   3.510  0.1412 -0.0258  1.4362
23072SOL     OW71468   7.565   7.883   8.217 -0.2367  1.1982  0.3350
23072SOL    HW171469   7.507   7.836   8.276 -0.1180 -0.8869 -1.0998
23072SOL    HW271470   7.530   7.973   8.215 -1.0836  0.9511  2.3915
23073SOL     OW71471   2.461   2.339   0.238 -0.0945 -0.0288  0.3556
23073SOL    HW171472   2.526   2.343   0.168  0.3565 -0.5622  0.7391
23073SOL    HW271473   2.491   2.268   0.294 -0.9821 -0.2407  0.5679
23074SOL     OW71474   7.317   2.381   4.651 -0.6246  0.1137 -0.0300
23074SOL    HW171475   7.320   2.407   4.559 -2.2796 -0.0564 -0.1754
23074SOL    HW271476   7.394   2.325   4.663 -1.2419 -1.2145 -1.7744
23075SOL     OW71477   8.554  10.418   4.961 -0.2156  0.3982  0.0280
23075SOL    HW171478   8.564  10.505   4.924  2.5687  0.4599  0.7020
23075SOL    HW271479   8.514  10.432   5.047 -2.1449  0.7038 -0.8667
23076SOL     OW71480   6.154   3.369   4.278  1.1966 -0.2405  0.3847
23076SOL    HW171481   6.115   3.342   4.195  1.1208  2.9865 -0.7656
23076SOL    HW271482   6.243   3.336   4.274  0.7033 -1.5657 -0.1926
23077SOL     OW71483   5.981   8.777   2.648  0.1210  0.1533 -0.8215
23077SOL    HW171484   5.981   8.712   2.718  1.0543 -0.1792 -1.1163
23077SOL    HW271485   6.014   8.857   2.691  1.5258 -0.2748 -1.0578
23078SOL     OW71486   0.890   2.812   3.945  0.2375 -0.1403 -0.0581
23078SOL    HW171487   0.961   2.867   3.977  1.0310  0.1965 -2.2180
23078SOL    HW271488   0.811   2.864   3.958  0.9164  1.3396 -1.5796
23079SOL     OW71489   5.242   3.924   8.330 -0.4215 -0.3034  0.3132
23079SOL    HW171490   5.169   3.920   8.392 -1.5953 -0.4099 -1.0251
23079SOL    HW271491   5.302   3.855   8.360 -1.1691 -0.6511  1.0539
23080SOL     OW71492   2.513   0.103   3.131  0.1724  0.5646 -0.0901
23080SOL    HW171493   2.454   0.105   3.207  0.3092  2.2162  0.0240
23080SOL    HW271494   2.588   0.051   3.160 -0.3058  0.1884  0.4925
23081SOL     OW71495   7.932   1.454   5.939  0.1390 -0.7578  0.4824
23081SOL    HW171496   7.903   1.405   6.016  0.7948 -2.3393 -0.2409
23081SOL    HW271497   8.027   1.450   5.943  0.1843 -0.2617 -0.0568
23082SOL     OW71498   7.766   1.447   6.460 -0.5154 -0.3313  0.1787
23082SOL    HW171499   7.689   1.438   6.403 -0.4182  0.9098 -0.1813
23082SOL    HW271500   7.746   1.522   6.515  0.0407 -0.5985  0.7489
23083SOL     OW71501   2.872   3.571   8.489  0.4062 -0.1610 -0.3657
23083SOL    HW171502   2.953   3.575   8.438  0.5597 -0.3694 -0.1373
23083SOL    HW271503   2.835   3.659   8.481  1.5167  0.4570  0.9333
23084SOL     OW71504   3.675   4.934  10.368  0.3136  0.6809  0.3658
23084SOL    HW171505   3.680   4.921  10.463  2.4231  0.6768  0.2912
23084SOL    HW271506   3.681   5.029  10.356  1.8282  0.5738  0.1758
23085SOL     OW71507   9.854   7.788   2.775  0.0479  0.1815 -0.5689
23085SOL    HW171508   9.901   7.858   2.820  0.7297  0.4020 -1.5796
23085SOL    HW271509   9.915   7.714   2.777 -0.0244  0.1112 -0.8744
23086SOL     OW71510  10.466   8.009   0.156  0.1416 -0.0723  0.3799
23086SOL    HW171511  10.500   8.088   0.114  0.1536 -0.3038 -0.0489
23086SOL    HW271512  10.374   8.029   0.174  0.2939  0.2558  0.8075
23087SOL     OW71513   7.586   1.436   6.260 -0.1265 -0.3070 -1.3118
23087SOL    HW171514   7.491   1.434   6.253 -0.2789  2.7363 -1.4710
23087SOL    HW271515   7.614   1.499   6.193  1.7488  0.8494  0.4353
23088SOL     OW71516   5.098   3.928  10.374  0.7368 -0.3176  0.0028
23088SOL    HW171517   5.118   3.876  10.451  0.4790  0.5076  0.6441
23088SOL    HW271518   5.124   4.017  10.397  2.1027 -0.2956 -1.4299
23089SOL     OW71519   0.274   7.440   5.788  0.5454  0.0563  0.0326
23089SOL    HW171520   0.255   7.464   5.879 -0.5677 -2.2682  0.4866
23089SOL    HW271521   0.318   7.356   5.794  2.7624  1.0090 -1.5282
23090SOL     OW71522   5.446   8.269   0.676 -0.0628  0.1580 -0.4632
23090SOL    HW171523   5.427   8.216   0.753  0.0014  0.2678 -0.3712
23090SOL    HW271524   5.538   8.251   0.656 -0.0708  0.1522 -0.4952
23091SOL     OW71525   2.275   4.770   6.570  0.1618 -0.0059 -0.0567
23091SOL    HW171526   2.221   4.765   6.649  0.3033 -0.5674  0.0081
23091SOL    HW271527   2.246   4.851   6.527 -0.6482 -0.2239  0.0453
23092SOL     OW71528   1.533   0.961   1.360 -0.2549 -0.1824  0.2462
23092SOL    HW171529   1.512   0.881   1.409 -0.3080  0.9404  2.1380
23092SOL    HW271530   1.476   1.028   1.398  0.3999  0.9468 -0.7056
23093SOL     OW71531   1.952   4.092   7.160 -0.2634 -0.0204 -0.6463
23093SOL    HW171532   1.961   4.140   7.242  0.5665 -0.7637 -0.2768
23093SOL    HW271533   1.868   4.120   7.124 -0.9698 -0.1898  0.7932
23094SOL     OW71534   4.765   7.973   1.700  0.2964  0.0473  0.2915
23094SOL    HW171535   4.747   7.880   1.682  0.5657  0.1720 -0.6322
23094SOL    HW271536   4.858   7.983   1.682  0.1808  0.5945 -0.0007
23095SOL     OW71537   1.198   6.971   3.165  0.2492  0.2231 -0.1949
23095SOL    HW171538   1.233   6.924   3.090 -0.2389 -0.8796  0.2578
23095SOL    HW271539   1.129   6.915   3.200  0.0393  1.0035  0.6988
23096SOL     OW71540   6.964   6.449   4.593 -0.4389  0.2151 -0.5408
23096SOL    HW171541   6.873   6.476   4.581 -0.7336 -1.3040 -2.2326
23096SOL    HW271542   7.004   6.520   4.644 -1.6028  2.8793 -3.0451
23097SOL     OW71543   0.387   1.754   5.526 -0.4877 -0.3947  0.2627
23097SOL    HW171544   0.315   1.815   5.509 -0.3365 -0.3443 -0.1833
23097SOL    HW271545   0.454   1.776   5.462 -0.4355 -1.0363  0.0961
23098SOL     OW71546   2.664   1.129   1.340  0.1617 -0.3843 -0.3327
23098SOL    HW171547   2.758   1.145   1.340  0.4452 -1.8738 -0.2577
23098SOL    HW271548   2.634   1.160   1.426  0.1913  1.9264 -1.0809
23099SOL     OW71549   4.251  10.424   2.091  0.1700 -0.0495  0.2764
23099SOL    HW171550   4.171  10.410   2.143  1.4756  0.7487  2.6687
23099SOL    HW271551   4.302  10.344   2.103  0.3321 -0.0009 -0.0761
23100SOL     OW71552   3.381   1.416   6.149 -0.5082 -0.1032 -0.3450
23100SOL    HW171553   3.331   1.419   6.068 -0.8908 -0.3778 -0.1198
23100SOL    HW271554   3.317   1.393   6.217 -0.5312  1.6940  0.3023
23101SOL     OW71555   0.497   6.074   7.310  0.5500  0.5266  0.4002
23101SOL    HW171556   0.490   6.064   7.405 -0.1523 -1.8665  0.1850
23101SOL    HW271557   0.590   6.062   7.291  0.3632 -1.6505  0.6246
23102SOL     OW71558   3.720   3.120   9.393  0.0247  0.4646  0.3883
23102SOL    HW171559   3.642   3.175   9.392 -0.6950 -0.5042  1.2415
23102SOL    HW271560   3.708   3.062   9.468  0.5852 -1.1002 -0.6834
23103SOL     OW71561   5.039   1.963   7.913 -0.5345  0.3337 -0.0189
23103SOL    HW171562   5.065   2.021   7.984 -1.4001 -0.0197  0.6107
23103SOL    HW271563   4.965   1.914   7.948 -0.5098 -0.3788 -0.9127
23104SOL     OW71564   9.196   2.832   0.974  0.0177 -0.4893  0.0741
23104SOL    HW171565   9.139   2.864   1.045 -0.3187 -0.5129 -0.1825
23104SOL    HW271566   9.142   2.769   0.927 -0.5272  1.0956 -1.5102
23105SOL     OW71567   6.613   3.489   7.185 -0.1165 -0.1961  0.4431
23105SOL    HW171568   6.604   3.527   7.273 -3.4428  1.2830 -0.3476
23105SOL    HW271569   6.526   3.499   7.146  1.0166 -1.4814 -2.7795
23106SOL     OW71570   6.744   3.070   9.740  0.6627  0.2365 -0.3434
23106SOL    HW171571   6.833   3.043   9.715  1.0515  0.4881  0.7215
23106SOL    HW271572   6.687   3.011   9.691  1.2925  1.6980 -3.0831
23107SOL     OW71573   9.366   4.919   4.696 -0.2430 -0.2208 -0.1310
23107SOL    HW171574   9.311   4.854   4.654 -0.9993 -1.0138  1.9443
23107SOL    HW271575   9.311   4.955   4.766  1.2697  0.2480  0.8668
23108SOL     OW71576   2.584   1.065   4.629 -0.9654  0.0440  0.2629
23108SOL    HW171577   2.627   1.112   4.701 -0.1319  1.0744 -0.8723
23108SOL    HW271578   2.647   1.069   4.557 -2.8282  1.3379 -1.3702
23109SOL     OW71579   2.080   8.492   2.713 -0.2796  0.1355  0.3832
23109SOL    HW171580   2.035   8.560   2.762 -0.2831  1.3617 -1.2481
23109SOL    HW271581   2.129   8.443   2.780 -1.0592  1.1061  1.7105
23110SOL     OW71582   0.226   7.156   0.036 -0.3601 -0.2471  0.6935
23110SOL    HW171583   0.213   7.095   0.109  1.0071 -0.5302  0.7242
23110SOL    HW271584   0.220   7.243   0.077 -0.2435 -0.3970  1.0376
23111SOL     OW71585  10.303   6.464   4.675  0.4563 -0.3486  0.1132
23111SOL    HW171586  10.399   6.461   4.678  0.6066  0.5858 -2.0384
23111SOL    HW271587  10.283   6.496   4.587 -1.8263  0.3790  0.8431
23112SOL     OW71588   1.026   6.117   9.604 -0.2229 -0.0243  0.2312
23112SOL    HW171589   1.047   6.044   9.545 -0.4033 -0.3874  0.6098
23112SOL    HW271590   1.106   6.168   9.608 -0.7244  0.9987 -1.7219
23113SOL     OW71591   9.489   6.855   4.921  0.3041  0.4429 -0.3233
23113SOL    HW171592   9.442   6.820   4.996 -0.4846  0.1655 -0.9342
23113SOL    HW271593   9.456   6.945   4.911 -0.9839 -0.1159 -1.4383
23114SOL     OW71594   6.740   8.725   4.603 -0.2117 -0.4614 -0.3422
23114SOL    HW171595   6.688   8.775   4.540  0.0958 -0.9490 -0.9980
23114SOL    HW271596   6.803   8.788   4.637 -0.2908 -0.2258 -0.6259
23115SOL     OW71597   1.828   6.633   1.008  0.1587  0.2592 -0.0623
23115SOL    HW171598   1.782   6.678   1.080 -3.0118 -1.9960 -0.5167
23115SOL    HW271599   1.867   6.556   1.049 -1.7958 -1.1223 -0.6873
23116SOL     OW71600   3.183  10.336   4.008  0.1081 -0.0933 -0.0640
23116SOL    HW171601   3.181  10.352   3.914  1.8807 -0.2129 -0.1607
23116SOL    HW271602   3.276  10.323   4.028 -0.3769 -1.7189  1.4188
23117SOL     OW71603   5.899   3.007   3.727  0.0700  0.4755 -0.1358
23117SOL    HW171604   5.993   3.022   3.714  0.0629  0.5435 -0.1127
23117SOL    HW271605   5.868   3.088   3.768  0.5753 -0.6551  2.7449
23118SOL     OW71606   2.962   0.645   0.342 -0.4648  0.2139  0.1567
23118SOL    HW171607   2.866   0.640   0.344 -0.5788  2.1107  0.6162
23118SOL    HW271608   2.981   0.700   0.266  0.1381  1.6707  1.3188
23119SOL     OW71609   7.053   5.575   7.690  0.4789 -0.2044  0.2509
23119SOL    HW171610   6.968   5.534   7.672  1.3774 -1.8422 -0.5069
23119SOL    HW271611   7.078   5.614   7.606  0.7696 -0.3143  0.2858
23120SOL     OW71612   7.576   2.867   0.159  0.4307  0.4578  0.3918
23120SOL    HW171613   7.578   2.917   0.078  0.8183 -0.0993  0.0491
23120SOL    HW271614   7.485   2.873   0.188  0.4148  1.1255  0.2146
23121SOL     OW71615   8.152   7.506   3.219  0.0770 -0.4929  0.2853
23121SOL    HW171616   8.089   7.433   3.216  1.9514 -2.2552  1.5685
23121SOL    HW271617   8.160   7.527   3.312  0.1811  0.8633 -0.0095
23122SOL     OW71618   7.893   9.156   0.774  0.8195  0.3682  0.0834
23122SOL    HW171619   7.821   9.114   0.725  0.9279 -0.8234  0.9019
23122SOL    HW271620   7.858   9.242   0.798 -1.0602 -0.8076  1.9481
23123SOL     OW71621   4.024   3.667   7.499 -0.3024 -0.7402 -0.5108
23123SOL    HW171622   3.943   3.695   7.456 -0.7513  1.0973  1.3213
23123SOL    HW271623   3.998   3.594   7.554 -0.5699 -0.6269 -0.4854
23124SOL     OW71624   6.668   5.473   0.845 -0.7993 -0.3287  0.2377
23124SOL    HW171625   6.682   5.459   0.939 -1.4157 -1.2415  0.2012
23124SOL    HW271626   6.644   5.387   0.811  0.9289 -0.3563 -1.0498
23125SOL     OW71627   5.287   4.184   2.753  0.5033 -0.5659  0.2154
23125SOL    HW171628   5.325   4.167   2.839 -0.4722 -1.3448  0.5128
23125SOL    HW271629   5.269   4.097   2.717 -0.3360 -0.2359 -0.1989
23126SOL     OW71630   7.004   1.588   2.995 -0.1177  0.8536  0.3044
23126SOL    HW171631   6.940   1.527   2.960  0.6382  0.5467 -0.6056
23126SOL    HW271632   6.962   1.627   3.071 -0.2714 -1.4855  1.5077
23127SOL     OW71633   1.449   5.278   3.303  0.5417  0.6154 -0.4599
23127SOL    HW171634   1.388   5.347   3.277  0.3548  0.4160 -0.5497
23127SOL    HW271635   1.408   5.236   3.379  0.6942  0.6550 -0.3544
23128SOL     OW71636   5.815   9.577   8.048 -0.0331  0.3395  0.2808
23128SOL    HW171637   5.854   9.499   8.009  0.4585  0.6372  0.1744
23128SOL    HW271638   5.723   9.572   8.021 -0.0441 -0.2833  0.4101
23129SOL     OW71639   3.259   4.699   4.834  0.0492 -0.4799  0.1967
23129SOL    HW171640   3.167   4.726   4.829  0.3092  0.6763  1.1826
23129SOL    HW271641   3.255   4.603   4.842 -1.0037 -0.5593 -0.9859
23130SOL     OW71642   0.230  10.136   3.869  0.9318  0.3987  0.1915
23130SOL    HW171643   0.258  10.176   3.952  2.8691 -0.5315  0.0351
23130SOL    HW271644   0.162  10.074   3.894  0.9716  0.6568  0.9735
23131SOL     OW71645   2.462   0.727   8.536 -0.6592 -0.0138 -0.0950
23131SOL    HW171646   2.471   0.816   8.502 -1.2537  0.9019  1.9986
23131SOL    HW271647   2.529   0.720   8.603 -0.3543 -1.3151 -0.5136
23132SOL     OW71648   2.468   5.480   2.079  0.3592  0.1864  0.3904
23132SOL    HW171649   2.400   5.519   2.134 -0.0548  0.3873 -0.2451
23132SOL    HW271650   2.421   5.452   2.000  0.7499 -1.0667  0.5748
23133SOL     OW71651   8.354   8.434  10.432  0.0982  1.1083  0.2819
23133SOL    HW171652   8.323   8.344  10.419  0.8097  0.6892  1.3242
23133SOL    HW271653   8.438   8.424  10.477  1.6868  2.1998 -2.2250
23134SOL     OW71654   3.447   4.682   4.430 -0.4027 -0.3068  0.0873
23134SOL    HW171655   3.394   4.627   4.373  0.7216 -0.0713 -1.2439
23134SOL    HW271656   3.463   4.762   4.379 -0.1814  0.3284  1.1177
23135SOL     OW71657   4.735   1.560   8.300 -0.7065  0.5439  0.8780
23135SOL    HW171658   4.654   1.610   8.287  0.1727  1.6575 -0.6181
23135SOL    HW271659   4.804   1.626   8.295  0.4506 -0.7118 -0.2610
23136SOL     OW71660   3.845  10.250   3.464 -0.1322  0.0976 -0.3206
23136SOL    HW171661   3.899  10.234   3.387 -1.3096 -0.9527 -0.9641
23136SOL    HW271662   3.872  10.183   3.527 -0.7470 -0.5098 -0.6899
23137SOL     OW71663   7.591   9.998   7.880  0.3907  0.0305 -1.1845
23137SOL    HW171664   7.624   9.914   7.847 -0.1325 -0.0216 -1.5881
23137SOL    HW271665   7.515  10.017   7.826 -2.0606 -1.2690  1.5233
23138SOL     OW71666   5.827   7.618   9.261 -0.1266 -0.1786 -0.4585
23138SOL    HW171667   5.757   7.632   9.324 -0.7969  0.8749 -1.3938
23138SOL    HW271668   5.907   7.644   9.306 -0.5124 -0.0572  0.1602
23139SOL     OW71669   7.098   3.937   8.884 -0.1174 -0.6449  0.4711
23139SOL    HW171670   7.142   3.884   8.951  0.0115 -0.4324  0.5579
23139SOL    HW271671   7.005   3.930   8.904 -0.2709 -2.4411 -0.7063
23140SOL     OW71672   4.915   1.413   8.836  0.5575  0.2116 -0.1260
23140SOL    HW171673   4.821   1.396   8.835  0.8704 -2.2864  1.8461
23140SOL    HW271674   4.952   1.349   8.776  1.0745  0.6199 -0.2508
23141SOL     OW71675  10.261   7.404   5.600  0.5040 -0.1906  0.2594
23141SOL    HW171676  10.347   7.399   5.557  0.4773  0.2559  0.1498
23141SOL    HW271677  10.226   7.315   5.593  0.3071 -0.0284 -1.0375
23142SOL     OW71678   8.440  10.168   9.386 -0.4204 -0.0262  0.2589
23142SOL    HW171679   8.449  10.261   9.407  0.3457 -0.4050  1.7007
23142SOL    HW271680   8.348  10.148   9.406 -0.3984  0.2575  0.6576
23143SOL     OW71681   2.013   4.027   5.333  0.1309  0.6444 -0.5048
23143SOL    HW171682   1.943   3.988   5.282 -0.8887 -0.5952  1.6941
23143SOL    HW271683   2.085   3.964   5.327 -0.6227 -0.4133  0.9701
23144SOL     OW71684   1.841   9.854   0.157  0.2211 -0.2823 -0.2979
23144SOL    HW171685   1.782   9.781   0.143 -0.3350 -0.4509  2.2783
23144SOL    HW271686   1.917   9.816   0.202  1.1627  0.3266 -1.3216
23145SOL     OW71687   3.533   2.864   9.268 -0.3691 -0.3583 -0.4324
23145SOL    HW171688   3.621   2.862   9.230 -0.3537 -1.6299 -0.3662
23145SOL    HW271689   3.494   2.944   9.233  0.1719 -0.7167 -1.9285
23146SOL     OW71690   0.048   1.168   0.703  0.4023  0.1878  0.3049
23146SOL    HW171691   0.013   1.084   0.732 -1.5360  0.5112 -0.8721
23146SOL    HW271692   0.138   1.150   0.678 -0.1435 -1.7018 -0.4810
23147SOL     OW71693  10.141   8.683   8.172 -0.9793  0.3449 -0.2390
23147SOL    HW171694  10.224   8.665   8.128 -0.1401  0.9284  1.0315
23147SOL    HW271695  10.123   8.605   8.224 -1.5829 -0.0469 -1.0230
23148SOL     OW71696   7.592   5.739   2.936  0.4596  0.0382 -0.6479
23148SOL    HW171697   7.585   5.815   2.994 -1.4025 -0.3022 -0.3425
23148SOL    HW271698   7.625   5.775   2.854 -0.8607  1.3151 -0.6754
23149SOL     OW71699   4.937   1.094   0.709  0.2045 -0.2762 -0.0392
23149SOL    HW171700   4.887   1.118   0.632  0.4085 -1.2567 -0.4908
23149SOL    HW271701   4.885   1.124   0.783 -0.2185  0.2439 -0.5504
23150SOL     OW71702   8.953   6.359   5.318  0.6074 -0.6080  0.2844
23150SOL    HW171703   8.893   6.392   5.386  1.8102 -1.7665  1.9881
23150SOL    HW271704   8.979   6.437   5.269 -0.6295  0.2054  0.8695
23151SOL     OW71705   3.912   6.750   0.460 -0.0693 -0.3674  0.0377
23151SOL    HW171706   3.982   6.790   0.512 -0.9666  0.2881  0.7705
23151SOL    HW271707   3.875   6.683   0.517 -1.4076  0.7067  0.5076
23152SOL     OW71708   3.644   2.470   9.625  0.0687  0.2976  0.5379
23152SOL    HW171709   3.726   2.479   9.674  0.4927 -0.7533  0.0639
23152SOL    HW271710   3.643   2.545   9.566  0.7935  0.2145  0.4121
23153SOL     OW71711   2.083   1.933   7.655 -0.3610  0.3809  0.0703
23153SOL    HW171712   2.107   1.992   7.584 -0.3526 -1.4702 -1.5591
23153SOL    HW271713   2.005   1.888   7.622 -1.4466  0.7337  2.0216
23154SOL     OW71714   3.981   3.168   3.191  0.4747 -0.2045  0.0877
23154SOL    HW171715   3.946   3.203   3.109  1.2908  1.0154  0.2232
23154SOL    HW271716   3.959   3.234   3.257 -0.6608 -1.4308  0.9794
23155SOL     OW71717   3.766   0.843   0.894 -0.2164 -0.5171 -0.0890
23155SOL    HW171718   3.786   0.937   0.900 -0.9285 -0.2172 -1.7725
23155SOL    HW271719   3.834   0.808   0.836 -0.9142 -0.6992 -0.8137
23156SOL     OW71720   4.601   7.743   6.677  0.3501  0.4305 -0.0116
23156SOL    HW171721   4.673   7.792   6.637 -0.2931 -0.0993 -1.9085
23156SOL    HW271722   4.587   7.668   6.618 -0.2806 -0.7288  1.5302
23157SOL     OW71723   8.997   7.506   9.549  0.1428 -0.5114  0.3976
23157SOL    HW171724   8.922   7.468   9.596 -0.5832  1.9472  1.3662
23157SOL    HW271725   9.055   7.538   9.618  0.0557  1.3261 -0.3266
23158SOL     OW71726   5.579   2.223   8.865 -0.3859 -0.2453  0.0416
23158SOL    HW171727   5.586   2.227   8.769  0.6185  2.3668  0.1503
23158SOL    HW271728   5.652   2.167   8.891  0.8270  0.9450 -0.6434
23159SOL     OW71729   7.130   9.921   3.498 -0.1946  0.0784  0.5382
23159SOL    HW171730   7.078  10.001   3.484 -0.8319 -0.0632  1.9237
23159SOL    HW271731   7.119   9.902   3.591  0.2333 -1.4365  0.2949
23160SOL     OW71732   2.741   7.893   5.264  0.5738 -0.1462  0.3236
23160SOL    HW171733   2.766   7.964   5.324 -0.3444  0.1964  0.3244
23160SOL    HW271734   2.822   7.845   5.249  0.9194  0.0254  1.4928
23161SOL     OW71735   2.805   2.702   2.403  0.5498  0.4461  0.2570
23161SOL    HW171736   2.869   2.709   2.474  1.8707  0.3439 -0.8747
23161SOL    HW271737   2.809   2.786   2.359  1.7876 -0.3709 -1.3138
23162SOL     OW71738   9.191   2.196   1.654 -0.3662 -0.1217 -0.1699
23162SOL    HW171739   9.134   2.184   1.730 -0.7627 -0.3128 -0.4937
23162SOL    HW271740   9.202   2.290   1.646 -1.3842 -0.0338 -0.6450
23163SOL     OW71741   8.392   7.027   2.533 -0.1911 -0.1940  0.0319
23163SOL    HW171742   8.331   7.066   2.595  0.0235 -0.7961  0.6362
23163SOL    HW271743   8.435   7.101   2.491 -0.0737  0.2211  0.8651
23164SOL     OW71744   3.151   4.816   4.439 -0.0089 -0.1911 -0.0454
23164SOL    HW171745   3.247   4.814   4.444 -0.0285  0.3062  0.5876
23164SOL    HW271746   3.130   4.907   4.419 -0.3247 -0.4586 -1.0025
23165SOL     OW71747   6.450  10.075  10.654 -0.1724  0.1649  0.2284
23165SOL    HW171748   6.524  10.064  10.714  1.1392  2.6366 -0.7856
23165SOL    HW271749   6.480  10.037  10.572 -0.9588 -0.8867  0.4114
23166SOL     OW71750   2.240   7.730   2.098 -0.1877  0.0868 -0.5278
23166SOL    HW171751   2.327   7.717   2.136 -0.3790  0.6195  0.1184
23166SOL    HW271752   2.222   7.823   2.112 -0.5809  0.1307 -1.2689
23167SOL     OW71753   9.761   5.021   2.713 -0.2314  0.1502  0.0130
23167SOL    HW171754   9.796   5.108   2.731  0.2067  0.3528 -1.7023
23167SOL    HW271755   9.675   5.021   2.755 -0.8312  1.9126 -1.1088
23168SOL     OW71756   4.383   6.640   5.820  0.5419  0.0304  0.6776
23168SOL    HW171757   4.299   6.619   5.779  1.5219  0.6599 -1.8763
23168SOL    HW271758   4.441   6.568   5.795  1.2049  0.4739  0.8987
23169SOL     OW71759   6.974   8.098   0.120 -0.4402 -0.1756 -0.2284
23169SOL    HW171760   6.965   8.089   0.215 -0.9829  1.4667 -0.0988
23169SOL    HW271761   6.954   8.190   0.102  0.4338 -0.2648 -1.8546
23170SOL     OW71762   0.271   6.003   4.306  0.1943 -0.3134  0.8349
23170SOL    HW171763   0.239   6.093   4.315 -0.1369 -0.1727 -1.2080
23170SOL    HW271764   0.191   5.950   4.310  0.0624 -0.2656 -0.5352
23171SOL     OW71765   6.186   9.851   9.552  0.4682 -0.2975  0.4690
23171SOL    HW171766   6.275   9.817   9.541  0.8602  0.1715  2.0189
23171SOL    HW271767   6.150   9.802   9.625 -0.4830 -0.3082  0.0099
23172SOL     OW71768   3.339   0.982   0.848  0.1091  0.0290 -0.1678
23172SOL    HW171769   3.356   0.888   0.843 -0.1554 -0.0655  0.6031
23172SOL    HW271770   3.284   0.993   0.925 -0.1277  0.7837 -0.4341
23173SOL     OW71771   2.169   8.156   0.572 -0.2812  0.1561  0.4821
23173SOL    HW171772   2.150   8.238   0.617 -0.5075  1.3777 -1.6613
23173SOL    HW271773   2.258   8.167   0.539 -0.6970  0.0385 -0.7361
23174SOL     OW71774   6.459  10.571   7.587  0.0403 -0.8140  0.1251
23174SOL    HW171775   6.414  10.642   7.633 -1.1446  0.5066 -2.8681
23174SOL    HW271776   6.388  10.511   7.561  0.0599  0.3756 -3.0921
23175SOL     OW71777   9.239   6.467   1.395 -0.1549  0.6659 -0.1814
23175SOL    HW171778   9.285   6.477   1.312  1.2628  2.5252  0.7569
23175SOL    HW271779   9.146   6.465   1.371  0.2505  0.2508 -1.8472
23176SOL     OW71780   6.416   7.152   4.056  0.1634 -0.2776  0.5616
23176SOL    HW171781   6.475   7.090   4.014 -1.2003 -1.1900 -0.1175
23176SOL    HW271782   6.468   7.192   4.125  1.6316 -0.8348 -0.1717
23177SOL     OW71783   2.257   4.151   0.721  0.5304  0.2302  0.0550
23177SOL    HW171784   2.191   4.168   0.653 -0.0055 -1.7933 -0.0186
23177SOL    HW271785   2.207   4.113   0.793  1.7265 -2.9866 -0.6487
23178SOL     OW71786  10.097   0.261   1.231  0.0531 -0.2898  0.1473
23178SOL    HW171787  10.101   0.198   1.159  1.5543 -0.2130  0.1472
23178SOL    HW271788  10.018   0.236   1.280 -0.9736 -0.3483 -1.4923
23179SOL     OW71789   0.601   4.513   1.515 -0.4216  0.2687 -0.3397
23179SOL    HW171790   0.542   4.579   1.479 -0.2508  0.3099 -0.5461
23179SOL    HW271791   0.567   4.494   1.602 -0.9060  0.0838 -0.5686
23180SOL     OW71792   1.104  10.260   9.143 -0.3104 -0.2693 -0.1969
23180SOL    HW171793   1.167  10.258   9.215 -1.1372 -0.3165  0.5506
23180SOL    HW271794   1.105  10.350   9.111  0.1376 -0.2746 -0.2011
23181SOL     OW71795   6.781   8.117   7.557  0.1567  0.3651  0.5330
23181SOL    HW171796   6.746   8.202   7.585 -0.5261  0.0585  0.6332
23181SOL    HW271797   6.849   8.097   7.622 -0.8066  0.0732  1.4934
23182SOL     OW71798   2.390   4.427   9.740  0.0568  0.5477  0.1747
23182SOL    HW171799   2.480   4.447   9.715  0.5096 -0.4432  0.9690
23182SOL    HW271800   2.381   4.333   9.726 -0.6174  0.5072  0.8017
23183SOL     OW71801   3.363   5.380   1.029 -0.3874  0.2072  0.1930
23183SOL    HW171802   3.283   5.350   0.986 -1.0649  1.5586  0.4530
23183SOL    HW271803   3.334   5.414   1.113  0.5585  0.0902  0.5784
23184SOL     OW71804   6.802   9.754   1.887 -0.1016 -0.1931 -0.0308
23184SOL    HW171805   6.729   9.797   1.842 -1.9412 -0.8422  2.1141
23184SOL    HW271806   6.781   9.660   1.881  1.4799 -0.5202 -0.8196
23185SOL     OW71807   3.520   3.010   0.142 -0.0450  0.3452  0.0390
23185SOL    HW171808   3.434   2.973   0.123 -0.1090  1.4708 -2.1494
23185SOL    HW271809   3.503   3.102   0.163  0.5314  0.2723  0.9074
23186SOL     OW71810   0.309   2.264   5.410 -0.4065 -0.6382  0.5327
23186SOL    HW171811   0.340   2.290   5.497 -1.5018 -1.7682  1.2902
23186SOL    HW271812   0.387   2.230   5.366  0.3460  0.7470  0.7200
23187SOL     OW71813   8.248   1.407   5.182  0.3981  0.4101 -0.5657
23187SOL    HW171814   8.206   1.453   5.255  0.6339  0.9373 -0.7584
23187SOL    HW271815   8.341   1.426   5.191  0.4187  0.5581 -1.0581
23188SOL     OW71816   9.762   9.144   6.837 -0.8738  0.5650 -0.9422
23188SOL    HW171817   9.841   9.090   6.833 -0.4886  1.1814 -1.9295
23188SOL    HW271818   9.701   9.092   6.890  0.3475  0.3040  0.2661
23189SOL     OW71819   2.810   4.449   8.228 -0.2111  0.1319 -0.2359
23189SOL    HW171820   2.722   4.444   8.265  0.5046  2.8817  2.2786
23189SOL    HW271821   2.849   4.525   8.271  2.7785  0.1435 -2.6574
23190SOL     OW71822   9.819   1.508  10.654  0.4992 -0.2394 -0.1246
23190SOL    HW171823   9.726   1.525  10.659  0.7681  1.5594 -0.7074
23190SOL    HW271824   9.840   1.464  10.736 -0.8138 -0.5030  0.0852
23191SOL     OW71825   0.004   8.689   3.273 -0.4784 -0.2721 -0.7034
23191SOL    HW171826  -0.082   8.675   3.311 -0.5848  0.4210 -0.6715
23191SOL    HW271827   0.065   8.648   3.335 -0.7041  0.1976 -0.1574
23192SOL     OW71828   9.180   0.441   5.547 -0.3733 -0.2957  0.0604
23192SOL    HW171829   9.196   0.348   5.563 -0.6811 -0.7138 -1.7340
23192SOL    HW271830   9.264   0.475   5.515  0.0256  0.3230  1.6690
23193SOL     OW71831   8.369   2.324   5.222  0.5630  0.0941 -0.3666
23193SOL    HW171832   8.360   2.401   5.167  0.3487  0.3933  0.0736
23193SOL    HW271833   8.384   2.359   5.310 -1.7649 -0.2904  0.2612
23194SOL     OW71834   0.765  10.439   1.890  0.2430 -0.2437  1.0665
23194SOL    HW171835   0.677  10.413   1.863 -0.0112 -0.0936  1.7299
23194SOL    HW271836   0.770  10.532   1.869 -0.7762  0.4424  3.5371
23195SOL     OW71837   3.454   5.846   3.384 -0.5120  0.0528 -0.3075
23195SOL    HW171838   3.489   5.827   3.470 -0.6827 -1.5861 -0.5771
23195SOL    HW271839   3.378   5.903   3.401  0.7336  1.5762  0.4290
23196SOL     OW71840   9.672   1.305   8.912 -0.6441 -0.6329  0.4312
23196SOL    HW171841   9.658   1.378   8.971 -0.3081 -1.1792  1.2114
23196SOL    HW271842   9.585   1.283   8.878 -0.8870 -0.5160  0.9761
23197SOL     OW71843   9.088   5.480   0.928 -0.0435  0.1125 -0.4638
23197SOL    HW171844   9.070   5.461   1.020  1.5959 -0.7330 -0.2746
23197SOL    HW271845   9.182   5.465   0.918  0.0124  1.1909 -2.0529
23198SOL     OW71846   2.051   7.590   0.348 -0.2148 -0.4304 -0.0003
23198SOL    HW171847   2.096   7.562   0.268 -0.3666 -0.1591 -0.1828
23198SOL    HW271848   2.010   7.673   0.324  0.4874  0.1097  0.6164
23199SOL     OW71849   2.391   5.688   1.284 -0.0824  0.1037  0.1258
23199SOL    HW171850   2.463   5.724   1.336  0.9882 -1.2573 -0.3800
23199SOL    HW271851   2.336   5.764   1.265  2.1221  1.5368 -0.9632
23200SOL     OW71852  10.179   9.243   5.205  0.5700  0.1209 -0.0824
23200SOL    HW171853  10.098   9.294   5.201 -0.1054 -0.8843  0.3058
23200SOL    HW271854  10.150   9.152   5.202  1.7079 -0.2578 -0.1491
23201SOL     OW71855   2.644   2.651   4.824 -0.3670 -0.2979 -0.0228
23201SOL    HW171856   2.691   2.636   4.743  0.1596  0.1482  0.1951
23201SOL    HW271857   2.591   2.572   4.836 -2.3757  0.6339 -2.0678
23202SOL     OW71858   9.510   2.430   4.583 -0.1561 -0.0762 -0.4720
23202SOL    HW171859   9.422   2.410   4.614  0.5847 -2.1875  0.3938
23202SOL    HW271860   9.567   2.418   4.659  0.9579  0.8930 -1.1039
23203SOL     OW71861   6.850   0.078   8.198  0.4428  0.4084 -0.4211
23203SOL    HW171862   6.795   0.157   8.202  0.1153  0.3849 -2.9504
23203SOL    HW271863   6.929   0.106   8.153  1.3580 -0.2095  0.7506
23204SOL     OW71864   3.358  10.421   9.317  0.4573  0.2502 -0.5326
23204SOL    HW171865   3.294  10.416   9.245  0.0310 -1.2713 -0.0756
23204SOL    HW271866   3.355  10.335   9.357 -0.6723  1.5605  2.4712
23205SOL     OW71867   6.534   8.228   7.222  0.2012  0.1116  0.2803
23205SOL    HW171868   6.505   8.193   7.306  0.9819  0.0952  0.5561
23205SOL    HW271869   6.624   8.195   7.213  0.5879  1.1839  0.0596
23206SOL     OW71870   5.038   1.479   0.978 -0.1296 -0.0617 -0.3616
23206SOL    HW171871   5.128   1.451   0.995  0.0042 -1.3355 -2.7839
23206SOL    HW271872   4.985   1.403   1.001 -0.7111  0.8451  1.5184
23207SOL     OW71873  10.252   6.480   9.819  0.2732 -0.1089 -0.1217
23207SOL    HW171874  10.299   6.548   9.771  0.3389  0.5740  0.8789
23207SOL    HW271875  10.312   6.405   9.820  0.7964  0.3048  0.0068
23208SOL     OW71876   6.107   3.461   8.230  0.3936  0.3102 -0.3871
23208SOL    HW171877   6.176   3.486   8.292  0.3813  0.4552 -0.4306
23208SOL    HW271878   6.128   3.511   8.150 -1.3273  2.5442  0.4527
23209SOL     OW71879   3.466   3.290   0.209 -0.0072 -0.0384  0.2388
23209SOL    HW171880   3.384   3.270   0.163  0.7631 -0.0223 -1.1654
23209SOL    HW271881   3.510   3.354   0.154  1.2229 -0.4696  0.6894
23210SOL     OW71882   3.246   7.972   2.330 -0.2602  0.2716 -0.2006
23210SOL    HW171883   3.186   7.997   2.260 -0.4214  0.2513 -0.0719
23210SOL    HW271884   3.192   7.976   2.410  0.3435  1.9601  0.1540
23211SOL     OW71885   0.296   6.377   2.357  0.5923  0.2705 -0.5891
23211SOL    HW171886   0.341   6.293   2.348  1.3886  0.7796 -1.5379
23211SOL    HW271887   0.248   6.388   2.276 -0.8585 -0.0117  0.2012
23212SOL     OW71888   0.764   4.658   8.810 -0.7224  0.3206  0.0775
23212SOL    HW171889   0.732   4.594   8.874 -0.2983 -2.5214 -2.3694
23212SOL    HW271890   0.704   4.651   8.736  1.6883 -0.3537 -1.9364
23213SOL     OW71891   0.528   7.405   7.206  0.4592  0.1498 -0.4299
23213SOL    HW171892   0.552   7.498   7.204 -0.0298  0.2900 -0.0606
23213SOL    HW271893   0.432   7.405   7.198  0.4592 -0.3258 -0.4520
23214SOL     OW71894   5.219   1.112   6.432  0.2077 -0.3934  0.2968
23214SOL    HW171895   5.213   1.201   6.399  1.5081 -0.1321  0.7055
23214SOL    HW271896   5.162   1.111   6.509  0.9748  0.3966  0.8993
23215SOL     OW71897   3.616   4.847   5.440  0.2192  0.2991  0.3848
23215SOL    HW171898   3.670   4.817   5.367  1.6005 -0.1957  1.5746
23215SOL    HW271899   3.678   4.864   5.511 -1.0021  1.5205  1.2208
23216SOL     OW71900   6.732   9.679   0.594 -0.3082  0.0627  0.1137
23216SOL    HW171901   6.699   9.662   0.683  0.9956  1.3214  0.8843
23216SOL    HW271902   6.661   9.724   0.550 -0.3372  1.0247  1.1149
23217SOL     OW71903   4.688   1.872   9.281 -0.1248  0.3161  0.3457
23217SOL    HW171904   4.610   1.817   9.282 -0.2062  0.4313  1.1884
23217SOL    HW271905   4.654   1.961   9.269  0.0910  0.1040 -2.5187
23218SOL     OW71906   2.475   1.134   0.138  0.2940  0.0827  0.2911
23218SOL    HW171907   2.483   1.157   0.231 -0.4301 -2.0424  0.9485
23218SOL    HW271908   2.411   1.063   0.137 -0.8390  1.0193 -2.0299
23219SOL     OW71909   7.751   4.952   9.538 -0.3636 -0.3601 -0.0469
23219SOL    HW171910   7.783   5.042   9.549  1.7182 -0.8705 -1.3851
23219SOL    HW271911   7.704   4.953   9.455  1.3064 -0.8947 -1.0241
23220SOL     OW71912   6.020   9.807   9.773  0.1167 -0.0002  0.3959
23220SOL    HW171913   5.950   9.870   9.756 -2.4460 -2.6153  0.6042
23220SOL    HW271914   6.055   9.833   9.859 -0.2607  1.5902  0.1102
23221SOL     OW71915   6.846   7.936   2.360  0.1490 -0.1936  0.2534
23221SOL    HW171916   6.917   7.999   2.347  0.0838  0.3325  2.2329
23221SOL    HW271917   6.823   7.908   2.271  3.1268 -0.7382 -0.4441
23222SOL     OW71918   0.070  10.191   9.809  0.4058  0.3640  0.7464
23222SOL    HW171919   0.074  10.125   9.878 -0.7632 -0.8943 -0.3262
23222SOL    HW271920   0.074  10.141   9.728  0.9510  1.7499 -0.1202
23223SOL     OW71921   3.093   1.729   9.442 -0.2002 -0.2872  0.2505
23223SOL    HW171922   3.109   1.671   9.517  2.6254  0.7435  0.5605
23223SOL    HW271923   3.081   1.815   9.481 -2.8750 -0.3293 -0.3087
23224SOL     OW71924   3.640   2.086   2.302 -0.2206 -0.2019 -0.7526
23224SOL    HW171925   3.596   2.016   2.351  2.6147 -1.6794 -0.0720
23224SOL    HW271926   3.589   2.095   2.221 -1.8896 -1.5422  0.0776
23225SOL     OW71927   4.448   0.898   7.533  0.3069  0.2273  0.3291
23225SOL    HW171928   4.435   0.807   7.507 -2.5292  1.2068 -2.2340
23225SOL    HW271929   4.444   0.897   7.629 -1.8447 -2.0930  0.2876
23226SOL     OW71930   4.774   3.557   6.168  0.0417 -0.7866 -0.0702
23226SOL    HW171931   4.764   3.580   6.076  0.7619 -0.8598 -0.1765
23226SOL    HW271932   4.793   3.463   6.168  1.0199 -0.6049  0.0679
23227SOL     OW71933   1.133   3.664   4.941  0.2595 -0.0466 -0.1583
23227SOL    HW171934   1.055   3.616   4.916  0.4393 -1.2251  1.3729
23227SOL    HW271935   1.202   3.630   4.885  0.1639 -0.8481  0.1931
23228SOL     OW71936   6.363   2.702   5.156  0.2945  0.0359 -0.4362
23228SOL    HW171937   6.292   2.685   5.095  0.9867  1.1199 -1.6044
23228SOL    HW271938   6.325   2.759   5.223  0.0112  0.4808 -0.9669
23229SOL     OW71939   8.560   6.625   1.954 -0.3183 -0.0637  0.3222
23229SOL    HW171940   8.535   6.682   2.027 -0.6713  0.7133 -0.3966
23229SOL    HW271941   8.652   6.648   1.936 -0.0017 -0.7663  0.9778
23230SOL     OW71942   2.119   5.411   1.909 -1.1508  0.4193 -0.3611
23230SOL    HW171943   2.068   5.357   1.849  0.0242 -0.5219 -0.5323
23230SOL    HW271944   2.074   5.401   1.993 -2.1292  0.8324 -0.8090
23231SOL     OW71945   1.040   3.343   6.743 -0.2107  0.6301  0.1560
23231SOL    HW171946   1.126   3.351   6.784 -0.8408  0.4955  1.5619
23231SOL    HW271947   0.997   3.273   6.791 -1.9905  2.2939  1.1379
23232SOL     OW71948  10.307   8.562   9.508 -0.1976 -0.6977 -0.4557
23232SOL    HW171949  10.308   8.495   9.440  0.0263 -0.2669 -0.8830
23232SOL    HW271950  10.257   8.634   9.470  1.3255  0.2122 -0.8149
23233SOL     OW71951   1.968   5.023   1.033 -0.1937  0.0174 -0.0040
23233SOL    HW171952   1.941   4.931   1.029  0.7646 -0.3520  1.3027
23233SOL    HW271953   2.033   5.032   0.964 -2.4552  0.5594 -2.2306
23234SOL     OW71954   3.448  10.331   7.312  0.7685  0.2436 -0.5614
23234SOL    HW171955   3.510  10.258   7.305  0.1901 -0.1152 -2.7248
23234SOL    HW271956   3.366  10.291   7.341  0.4209 -0.0159 -1.8568
23235SOL     OW71957   6.061  10.455   5.288  0.0364 -0.4101  0.3622
23235SOL    HW171958   5.977  10.466   5.244  1.0285 -2.1588 -2.2007
23235SOL    HW271959   6.047  10.381   5.347 -0.8107  0.8240  1.7902
23236SOL     OW71960   2.271   0.139   9.825 -0.2155  0.0405  0.4413
23236SOL    HW171961   2.358   0.113   9.853  0.4077  2.6465  1.2085
23236SOL    HW271962   2.274   0.136   9.729  1.0758  1.0497  0.4247
23237SOL     OW71963   2.997   1.078   3.155 -0.5951 -0.4213  0.2699
23237SOL    HW171964   2.992   0.983   3.162  0.4869 -0.5080 -0.0833
23237SOL    HW271965   2.988   1.109   3.246  1.3007 -0.9717  0.6788
23238SOL     OW71966   2.246   6.046   3.647  0.0390 -0.1841 -0.1889
23238SOL    HW171967   2.252   6.023   3.740 -3.8796  0.0202  0.2818
23238SOL    HW271968   2.258   6.141   3.645 -0.0151 -0.1685  0.1328
23239SOL     OW71969   3.882   2.101   6.512 -0.2985  0.0363  0.2045
23239SOL    HW171970   3.833   2.125   6.591 -1.3415 -2.5442  0.4529
23239SOL    HW271971   3.918   2.014   6.531  2.3558  0.7631 -0.9399
23240SOL     OW71972   7.825   8.848  10.210  0.1965  0.3346  0.0108
23240SOL    HW171973   7.860   8.784  10.271 -2.0859  0.4938  1.5848
23240SOL    HW271974   7.833   8.932  10.255 -0.3686  0.6383 -0.4383
23241SOL     OW71975   2.956  10.124   1.943  0.0674  0.3864 -0.0814
23241SOL    HW171976   2.878  10.093   1.898  0.1975  0.9411 -0.6957
23241SOL    HW271977   2.985  10.049   1.994 -0.9069  0.1930  0.2160
23242SOL     OW71978  10.503   1.927   4.581  0.4289  0.7745  0.0233
23242SOL    HW171979  10.443   1.867   4.537  0.6213  0.5618  0.0498
23242SOL    HW271980  10.449   2.002   4.605  0.4077  1.0786 -0.9356
23243SOL     OW71981   2.955   7.193   6.174  0.0876  0.9669 -0.2952
23243SOL    HW171982   2.935   7.108   6.136 -0.6389  1.7483 -1.7513
23243SOL    HW271983   2.993   7.243   6.102 -0.0538  2.0727  0.3719
23244SOL     OW71984   9.759   4.847   9.954 -0.1398  0.0345  0.4198
23244SOL    HW171985   9.804   4.846   9.870  1.4351 -0.2503  1.2370
23244SOL    HW271986   9.668   4.869   9.932  0.7292  2.5112 -1.1061
23245SOL     OW71987   1.972   6.518   9.400 -0.3069 -0.0633  0.1702
23245SOL    HW171988   1.900   6.466   9.436 -1.2724  1.2150  0.1683
23245SOL    HW271989   1.933   6.565   9.326  0.2661  1.3874  0.7607
23246SOL     OW71990   9.948   8.058   0.693 -0.3733  0.2823  0.5118
23246SOL    HW171991  10.007   7.988   0.666 -0.1090  0.1139  1.4977
23246SOL    HW271992   9.997   8.139   0.674 -0.9782  0.2616 -1.3423
23247SOL     OW71993   4.077   2.438   6.777 -0.4394  0.0661  0.5890
23247SOL    HW171994   4.141   2.392   6.831 -1.4319 -0.4831  1.3342
23247SOL    HW271995   4.077   2.527   6.810  1.3666  0.6200 -0.7448
23248SOL     OW71996   1.603   1.786   1.114 -0.1218  0.2041 -0.7545
23248SOL    HW171997   1.677   1.749   1.065 -1.7352 -1.0053 -2.4031
23248SOL    HW271998   1.596   1.876   1.082  1.5948  0.9028  0.6420
23249SOL     OW71999   2.988   2.717   2.601 -0.1500  0.3812 -0.7547
23249SOL    HW172000   3.074   2.749   2.574  0.1667 -0.7935 -1.2182
23249SOL    HW272001   3.002   2.624   2.618 -0.8966  0.5733  1.1225
23250SOL     OW72002   9.546   5.918   5.137  0.0161  0.9650  0.5313
23250SOL    HW172003   9.597   5.948   5.213 -0.7382  0.3397  1.3054
23250SOL    HW272004   9.510   5.998   5.099 -0.0202  1.2476  1.1496
23251SOL     OW72005   8.643   7.127   6.864  0.2184 -0.3996  0.1114
23251SOL    HW172006   8.723   7.086   6.832  2.4184  3.1159  0.5147
23251SOL    HW272007   8.608   7.174   6.788 -1.5151 -1.8633 -0.0459
23252SOL     OW72008   9.358   9.248   6.285 -0.5499 -0.0993 -0.5772
23252SOL    HW172009   9.338   9.292   6.368  0.2185 -0.6390 -0.0999
23252SOL    HW272010   9.401   9.315   6.233 -1.8322  0.5153 -0.9046
23253SOL     OW72011   3.780   5.720   3.266  0.2540  0.0973  0.2829
23253SOL    HW172012   3.783   5.676   3.351 -1.3209 -0.3825  0.1150
23253SOL    HW272013   3.702   5.684   3.223  0.5936  0.8988 -1.0567
23254SOL     OW72014   4.157   9.059   6.604 -0.3978  0.3186  0.0230
23254SOL    HW172015   4.074   9.096   6.634 -0.3246  1.3110 -0.9539
23254SOL    HW272016   4.189   9.121   6.538  1.6123  0.4905  1.0713
23255SOL     OW72017   1.123   2.477   9.723  0.1729 -0.4700  0.6337
23255SOL    HW172018   1.068   2.436   9.656  0.4706 -0.1833  0.2075
23255SOL    HW272019   1.160   2.403   9.772  0.0362 -0.6860  0.4134
23256SOL     OW72020   2.923   6.390   6.169 -0.4519  0.2582 -0.5545
23256SOL    HW172021   2.835   6.353   6.170  0.2704 -1.6291 -1.5550
23256SOL    HW272022   2.927   6.439   6.086 -0.0926 -0.9499 -1.2704
23257SOL     OW72023   5.387   1.844   8.825 -0.2190  0.5160 -0.0430
23257SOL    HW172024   5.475   1.879   8.811  0.3806 -0.2028  1.7048
23257SOL    HW272025   5.342   1.860   8.742  1.2268  1.8322 -0.6246
23258SOL     OW72026  10.455   6.219   8.339 -0.1957  0.2518  0.2925
23258SOL    HW172027  10.539   6.198   8.378  0.6765  0.8846 -1.1434
23258SOL    HW272028  10.400   6.143   8.357  1.1590 -0.8583 -0.0807
23259SOL     OW72029   8.068   4.929  10.622 -0.0925  0.1645  0.3090
23259SOL    HW172030   7.992   4.979  10.652 -1.7686 -2.2695  0.4520
23259SOL    HW272031   8.036   4.878  10.548  0.8685 -2.1637  1.3777
23260SOL     OW72032   9.841  10.044   4.276 -0.3923  0.2491 -0.8012
23260SOL    HW172033   9.846   9.953   4.248  0.6259  0.2936 -0.8171
23260SOL    HW272034   9.912  10.087   4.229  1.4893  0.2944  1.8422
23261SOL     OW72035   3.224   8.452   1.416  0.8947  0.2589  0.1688
23261SOL    HW172036   3.258   8.446   1.327  1.0801 -0.3646  0.2730
23261SOL    HW272037   3.131   8.429   1.408  1.3598 -1.9138  0.4067
23262SOL     OW72038   9.103   6.075   4.210  0.4392 -0.2303 -0.6101
23262SOL    HW172039   9.075   6.159   4.245 -0.4501 -1.4895  1.9886
23262SOL    HW272040   9.024   6.036   4.173  0.5148 -0.4984 -0.4944
23263SOL     OW72041   6.118   8.064   9.000  0.1594  0.6763 -0.3357
23263SOL    HW172042   6.081   8.041   8.915  0.8564  0.7573 -0.6716
23263SOL    HW272043   6.165   7.986   9.029 -1.8849 -0.1263  1.0274
23264SOL     OW72044   6.277   4.976   7.679  0.5803 -0.6976 -0.0478
23264SOL    HW172045   6.311   5.041   7.618  0.8113 -0.1791  0.6239
23264SOL    HW272046   6.291   5.014   7.765 -1.6659 -0.4636  0.2778
23265SOL     OW72047   2.366   6.566   3.782 -0.1776  0.5744  0.7132
23265SOL    HW172048   2.343   6.647   3.737  1.1714  0.2286 -0.6664
23265SOL    HW272049   2.460   6.575   3.801  0.7025 -1.7563 -1.9696
23266SOL     OW72050   6.470   3.890   5.337  0.0850  0.1033  0.0302
23266SOL    HW172051   6.399   3.862   5.280  2.0455  0.5380 -2.8379
23266SOL    HW272052   6.529   3.939   5.280  2.7915 -0.3704  2.1963
23267SOL     OW72053   4.247   4.456   5.905 -0.0748 -0.4495  0.0552
23267SOL    HW172054   4.313   4.435   5.839 -0.9801  1.1545 -1.4457
23267SOL    HW272055   4.217   4.544   5.882 -1.7501 -0.5796  1.5064
23268SOL     OW72056   1.502   4.741   8.525  0.2945 -0.4838  0.1134
23268SOL    HW172057   1.571   4.805   8.510 -0.5788  0.3225 -0.5729
23268SOL    HW272058   1.475   4.713   8.437  0.2706 -1.3693  0.3904
23269SOL     OW72059   3.667  10.328   1.497  0.5725 -0.3372  0.4141
23269SOL    HW172060   3.582  10.355   1.533  0.9345  0.4851  0.6761
23269SOL    HW272061   3.646  10.256   1.437 -0.7099  1.8748 -1.9704
23270SOL     OW72062  10.483   6.055   3.852  0.0919  0.2566 -0.2808
23270SOL    HW172063  10.574   6.028   3.844 -0.2420 -0.7442 -0.9377
23270SOL    HW272064  10.455   6.021   3.937  0.2839  0.3950 -0.1637
23271SOL     OW72065   8.129   4.654   1.399 -0.1401 -0.3312  0.7099
23271SOL    HW172066   8.111   4.703   1.318 -0.2280  0.8029  1.3948
23271SOL    HW272067   8.221   4.626   1.390 -0.4452 -1.1129 -0.2191
23272SOL     OW72068   2.447   1.028   8.724  0.2264  0.0319 -0.0164
23272SOL    HW172069   2.542   1.022   8.735  0.3185 -0.5251 -0.9913
23272SOL    HW272070   2.411   1.010   8.811  1.0485  2.3984  0.9041
23273SOL     OW72071   5.467   7.374   2.982 -0.4204  0.3874  0.1183
23273SOL    HW172072   5.427   7.427   3.051 -0.4078  0.5378  0.0099
23273SOL    HW272073   5.426   7.288   2.992 -0.4350  0.4146  0.2997
23274SOL     OW72074   1.597   7.661   8.826  0.0987  0.0414 -0.3167
23274SOL    HW172075   1.636   7.585   8.781  0.1982 -0.3603  0.4365
23274SOL    HW272076   1.526   7.624   8.878 -0.2392  0.5567 -0.4039
23275SOL     OW72077   1.256   4.105   5.111  0.4352 -0.4707  0.6424
23275SOL    HW172078   1.244   4.199   5.124  1.6883 -0.3141  0.8160
23275SOL    HW272079   1.306   4.075   5.187 -1.3970 -1.6302  1.4474
23276SOL     OW72080   0.992  10.326   8.753  0.3554  0.0259 -0.0689
23276SOL    HW172081   0.921  10.293   8.699  0.8400  0.2855 -0.8772
23276SOL    HW272082   0.999  10.263   8.825 -2.0892  1.1047  1.2355
23277SOL     OW72083   4.346   9.638   4.663 -0.1760 -0.3958 -0.4654
23277SOL    HW172084   4.433   9.632   4.702 -0.4776 -0.1150  0.2714
23277SOL    HW272085   4.321   9.547   4.646 -0.2550 -0.5696  0.4984
23278SOL     OW72086   0.091   6.517   7.050 -0.3262  0.5737  0.2984
23278SOL    HW172087   0.078   6.611   7.055 -0.3081  0.6414 -0.7174
23278SOL    HW272088   0.087   6.497   6.957 -0.6376 -0.4777  0.5227
23279SOL     OW72089  10.371   0.479   8.299  0.2987 -0.0746 -0.1926
23279SOL    HW172090  10.295   0.517   8.343  0.8746  1.7296 -0.6617
23279SOL    HW272091  10.345   0.389   8.279 -1.0328 -0.0520  1.2256
23280SOL     OW72092   7.433   9.433   6.922  0.0723 -0.4777  0.0902
23280SOL    HW172093   7.495   9.374   6.878 -0.9511  0.8221 -3.3557
23280SOL    HW272094   7.464   9.521   6.900 -2.7018  0.2187 -1.4883
23281SOL     OW72095   9.597   9.504   6.877  0.3582 -0.1408  0.1353
23281SOL    HW172096   9.665   9.514   6.943 -1.1915  2.2551  1.5656
23281SOL    HW272097   9.641   9.522   6.794  2.0715 -1.8953  0.5808
23282SOL     OW72098   9.182   3.568   1.384  0.3998 -0.0865 -0.1451
23282SOL    HW172099   9.235   3.494   1.355  0.9704 -0.2167  1.1673
23282SOL    HW272100   9.207   3.640   1.325 -0.7374 -1.0958 -1.9496
23283SOL     OW72101   3.359   0.195   8.283  0.0626 -0.0208  0.1248
23283SOL    HW172102   3.405   0.176   8.202 -1.5897 -1.8713 -0.4632
23283SOL    HW272103   3.267   0.190   8.260 -0.5438  3.0110  1.3806
23284SOL     OW72104   4.651   5.776   1.846  0.6698 -0.1392 -0.3542
23284SOL    HW172105   4.684   5.687   1.858 -0.4877 -0.6357 -0.6952
23284SOL    HW272106   4.674   5.797   1.755  1.1104 -0.0033 -0.2166
23285SOL     OW72107   8.305   6.074   8.418 -0.1331 -0.0379 -0.0206
23285SOL    HW172108   8.297   6.127   8.498 -0.0918 -1.3702  0.9097
23285SOL    HW272109   8.397   6.082   8.394  0.2343 -0.8603  1.0005
23286SOL     OW72110  10.138   1.200   8.199  0.7595 -0.2675  0.3513
23286SOL    HW172111  10.120   1.188   8.106 -0.7736 -0.4744  0.6458
23286SOL    HW272112  10.171   1.115   8.229  0.6128 -0.4017  0.1317
23287SOL     OW72113   0.355   6.233   5.482 -0.1671 -0.3051  0.2119
23287SOL    HW172114   0.271   6.226   5.437 -0.8126 -1.6760  1.5356
23287SOL    HW272115   0.408   6.164   5.443 -0.8192 -1.6822  1.6284
23288SOL     OW72116   6.608   4.374   9.065 -0.6779 -0.2579 -0.5506
23288SOL    HW172117   6.695   4.391   9.101 -1.1008 -0.5497  0.6573
23288SOL    HW272118   6.624   4.359   8.971  0.6010 -0.5387 -0.3182
23289SOL     OW72119   6.679   8.882   4.313 -0.5699  0.3409  0.1472
23289SOL    HW172120   6.768   8.910   4.335 -1.0473  1.6888  0.4654
23289SOL    HW272121   6.686   8.848   4.224  0.2484  0.5100  0.1364
23290SOL     OW72122   7.949   2.782   0.331  0.0434 -0.2124 -0.4725
23290SOL    HW172123   7.928   2.868   0.367  1.7616  0.1204 -0.1920
23290SOL    HW272124   8.044   2.782   0.321  0.2290 -2.4597  0.5322
23291SOL     OW72125   2.996   0.374   9.966  0.2325  0.5510 -0.1161
23291SOL    HW172126   2.993   0.465   9.937  1.5696  0.9013  0.7779
23291SOL    HW272127   2.913   0.337   9.937 -0.1635  1.9433 -0.8375
23292SOL     OW72128   7.579   4.998   2.945  0.0613 -0.4916  0.2360
23292SOL    HW172129   7.610   4.976   3.033  0.5422 -1.3423 -0.1308
23292SOL    HW272130   7.484   4.997   2.952  0.0879 -0.1979  0.8184
23293SOL     OW72131   5.365   4.357  10.377  0.2987 -0.2679  0.0790
23293SOL    HW172132   5.372   4.306  10.458  2.1613  0.6631  0.5509
23293SOL    HW272133   5.451   4.348  10.336  0.1554  1.2077 -0.6042
23294SOL     OW72134   3.503   4.732   9.272 -0.2634 -0.3585  0.0488
23294SOL    HW172135   3.480   4.814   9.315  1.0707 -0.5511  1.1844
23294SOL    HW272136   3.484   4.665   9.337  2.2514 -0.6122  0.6269
23295SOL     OW72137   7.982   7.321   6.397  0.1189  0.1103 -0.1383
23295SOL    HW172138   8.061   7.298   6.348  0.0035 -0.4604 -0.0688
23295SOL    HW272139   8.015   7.353   6.481  0.2739 -0.5974  0.0840
23296SOL     OW72140   7.885   0.845   8.390 -0.0913  0.4826  0.1081
23296SOL    HW172141   7.811   0.828   8.448  0.9263 -1.0151  1.0531
23296SOL    HW272142   7.855   0.816   8.304 -0.7539  0.2644  0.4019
23297SOL     OW72143   2.958   7.573   1.306  0.2862  0.5491  0.4382
23297SOL    HW172144   3.008   7.551   1.384 -2.2345 -0.8633  1.7766
23297SOL    HW272145   3.005   7.531   1.234  1.2337 -0.3706  1.5670
23298SOL     OW72146   8.739   8.135   3.354 -0.5787 -0.3979  0.3780
23298SOL    HW172147   8.748   8.121   3.260 -0.5496 -0.0425  0.3277
23298SOL    HW272148   8.761   8.227   3.367  1.2534 -0.8686  0.9649
23299SOL     OW72149   2.229   1.616   2.350  0.2827 -0.3447 -0.2528
23299SOL    HW172150   2.204   1.632   2.441 -0.1076 -2.0804 -0.0054
23299SOL    HW272151   2.299   1.551   2.356  0.9164  0.2406 -1.1690
23300SOL     OW72152   3.517   3.471  10.246  0.1600  0.2333 -0.5330
23300SOL    HW172153   3.608   3.495  10.263 -0.0191  0.9663 -0.5928
23300SOL    HW272154   3.506   3.387  10.291  0.5331  0.7050  0.4681
23301SOL     OW72155   4.067   0.097   7.153  0.4498  0.5559  0.6273
23301SOL    HW172156   4.098   0.009   7.134 -0.4416  0.2457  0.5577
23301SOL    HW272157   4.090   0.112   7.245  0.2979  0.1168  0.7373
23302SOL     OW72158   8.259   2.707   0.406 -0.7169  0.1053  0.3190
23302SOL    HW172159   8.236   2.640   0.341  0.3127  0.1829 -0.1549
23302SOL    HW272160   8.263   2.661   0.489 -0.5364 -0.3182  0.0772
23303SOL     OW72161   5.878   7.997   9.357  0.0028 -0.5849 -0.2643
23303SOL    HW172162   5.881   8.078   9.408  0.6326 -0.0882 -1.0761
23303SOL    HW272163   5.799   7.953   9.388 -0.7665  0.6898 -0.3476
23304SOL     OW72164   3.921   7.325   6.077 -0.0825 -0.2458  0.0846
23304SOL    HW172165   3.919   7.392   6.145  2.1292  0.4252 -0.4462
23304SOL    HW272166   3.997   7.271   6.098 -0.6913 -1.4304 -0.6050
23305SOL     OW72167  10.314   3.395   1.585 -0.2993  0.4568  0.0948
23305SOL    HW172168  10.332   3.433   1.671 -2.1051  3.0666 -0.5779
23305SOL    HW272169  10.233   3.346   1.597  0.7872 -1.3608  0.3976
23306SOL     OW72170   0.880   9.346   6.678  0.3968 -0.0294 -0.4497
23306SOL    HW172171   0.953   9.285   6.677  0.3697 -0.0804  0.3600
23306SOL    HW272172   0.920   9.432   6.667  0.6088 -0.0278  0.3454
23307SOL     OW72173   2.297   9.073   1.092  0.0210  0.1056 -0.6105
23307SOL    HW172174   2.334   9.105   1.174 -1.4984  1.8300 -0.5299
23307SOL    HW272175   2.372   9.052   1.037  1.1010  1.7079  0.1904
23308SOL     OW72176   4.276   2.232   3.322  0.7148  0.4209  0.0679
23308SOL    HW172177   4.196   2.180   3.313  0.8987  0.3373 -1.2228
23308SOL    HW272178   4.304   2.249   3.232  3.2161 -1.2125  0.4331
23309SOL     OW72179   8.594   3.168   6.443 -0.6196 -0.2566  0.4023
23309SOL    HW172180   8.687   3.186   6.432 -0.4662 -1.0157  0.4122
23309SOL    HW272181   8.565   3.230   6.511 -0.2223  0.2642  0.0999
23310SOL     OW72182   4.245   8.225   8.459  0.0549  0.1773 -0.4472
23310SOL    HW172183   4.302   8.159   8.420 -0.0553 -2.1922  2.9467
23310SOL    HW272184   4.288   8.308   8.441  3.5871 -1.3397  0.2007
23311SOL     OW72185   1.646   8.376   8.141  0.1413 -0.2764  0.2153
23311SOL    HW172186   1.615   8.443   8.202  2.0470 -0.4247  1.4064
23311SOL    HW272187   1.576   8.369   8.076 -0.2087  2.7358  0.1332
23312SOL     OW72188  10.654   7.147   8.358  0.2767 -0.0092 -0.1032
23312SOL    HW172189  10.636   7.153   8.452 -1.3261  1.2026 -0.4442
23312SOL    HW272190  10.743   7.113   8.353  0.2406 -0.5315  1.8428
23313SOL     OW72191   1.404  10.638  10.368  0.2903 -0.1950  0.0969
23313SOL    HW172192   1.354  10.576  10.421  2.0964 -0.8847  1.0595
23313SOL    HW272193   1.451  10.584  10.305 -1.0258  0.5418 -1.5966
23314SOL     OW72194  10.373   6.921   0.394 -0.2811 -0.0311 -0.1206
23314SOL    HW172195  10.392   6.836   0.434  0.3131 -0.9788 -2.2599
23314SOL    HW272196  10.459   6.961   0.381 -0.5364  0.7392  0.5231
23315SOL     OW72197   8.338   0.780   2.721  0.4869 -0.0739  0.1724
23315SOL    HW172198   8.384   0.772   2.637  0.5787 -1.4856  0.3381
23315SOL    HW272199   8.258   0.729   2.710  0.5867 -0.4156  1.0011
23316SOL     OW72200   5.939  10.052   8.747 -0.6654 -0.3911 -0.0963
23316SOL    HW172201   5.847  10.032   8.729 -0.6596  1.4061 -2.5093
23316SOL    HW272202   5.988  10.007   8.679  0.1005  0.0767  0.1317
23317SOL     OW72203   2.372   7.136   6.231 -0.4279 -0.3497 -0.1730
23317SOL    HW172204   2.316   7.076   6.182 -0.1717 -0.1154 -0.7677
23317SOL    HW272205   2.380   7.096   6.318 -0.5817 -0.9673 -0.4360
23318SOL     OW72206   0.979   8.515   0.305 -0.1083 -0.1914 -0.0546
23318SOL    HW172207   0.987   8.542   0.396  0.3750 -0.4811 -0.0038
23318SOL    HW272208   1.002   8.593   0.255  0.7378 -0.3413  0.0859
23319SOL     OW72209   8.407   9.576   6.913  0.4637  0.4002  0.5893
23319SOL    HW172210   8.411   9.648   6.851 -0.7037 -0.6224 -0.7502
23319SOL    HW272211   8.313   9.557   6.922  0.7716 -1.8984 -0.2931
23320SOL     OW72212   2.991  10.015   9.584 -0.2848  0.1202 -0.4382
23320SOL    HW172213   3.044   9.941   9.611 -0.7130 -0.0756 -0.1149
23320SOL    HW272214   3.050  10.090   9.587  0.3234 -0.2918 -1.3651
23321SOL     OW72215   1.955   4.402  10.502 -0.1655 -0.3252  0.4733
23321SOL    HW172216   1.887   4.362  10.557 -0.6999  2.2987  1.8785
23321SOL    HW272217   1.906   4.456  10.441  0.6049  0.3172  0.4224
23322SOL     OW72218   8.937   0.668   2.340  1.0321  0.0821 -0.6118
23322SOL    HW172219   8.927   0.681   2.246  1.1542  2.0067 -0.3982
23322SOL    HW272220   8.858   0.620   2.366  0.1669  1.0160 -1.4358
23323SOL     OW72221   1.762   5.220   6.003  0.2884 -0.3304 -0.0284
23323SOL    HW172222   1.725   5.134   6.023 -1.1783 -0.0647 -1.4037
23323SOL    HW272223   1.848   5.200   5.965 -0.2075 -1.2366 -0.7306
23324SOL     OW72224   4.042   6.298   4.812  0.0474 -0.5578  0.8905
23324SOL    HW172225   4.102   6.249   4.755  2.4212  1.0495  1.8551
23324SOL    HW272226   4.055   6.261   4.899 -0.6014 -0.3816  1.0713
23325SOL     OW72227   9.710   5.803   0.395 -0.1850 -0.0009 -0.4660
23325SOL    HW172228   9.719   5.896   0.416 -2.2219 -0.1844  1.6607
23325SOL    HW272229   9.688   5.762   0.479  0.7487 -2.4307 -1.3388
23326SOL     OW72230   4.974   1.736   9.535  0.3634  0.0171 -0.3857
23326SOL    HW172231   4.969   1.819   9.487  0.2764  0.0235 -0.3646
23326SOL    HW272232   4.888   1.697   9.525  0.3202  0.0560 -0.1621
23327SOL     OW72233   8.157   9.576   4.865  0.0632  0.6995  0.4449
23327SOL    HW172234   8.180   9.632   4.791  1.0369  0.5312  0.5976
23327SOL    HW272235   8.235   9.522   4.878 -0.8957 -0.7805  0.2263
23328SOL     OW72236   1.242   5.702   5.125  0.0220 -0.6694  0.6014
23328SOL    HW172237   1.276   5.613   5.135  1.7192  0.1514  2.8316
23328SOL    HW272238   1.265   5.726   5.035 -0.3836 -2.4154 -0.0021
23329SOL     OW72239   7.528  10.424   7.092 -0.3312  0.3697  0.2202
23329SOL    HW172240   7.593  10.465   7.149 -1.1733  0.3497  1.2343
23329SOL    HW272241   7.561  10.335   7.077 -0.2342  0.2839  0.9188
23330SOL     OW72242   7.736   9.136   7.673 -0.6790 -0.1695  0.0254
23330SOL    HW172243   7.718   9.070   7.741  2.3472 -0.0033  1.1790
23330SOL    HW272244   7.781   9.087   7.604 -0.5573  0.2800 -0.2141
23331SOL     OW72245   1.782   0.068   0.466  0.2610  0.2618  0.2348
23331SOL    HW172246   1.741   0.088   0.550 -0.3837 -1.7182  0.4333
23331SOL    HW272247   1.733   0.120   0.402 -0.8922 -0.1292  0.7789
23332SOL     OW72248   9.160   3.098   8.180 -0.5794  0.6960 -0.2382
23332SOL    HW172249   9.241   3.076   8.226 -0.5493 -0.8410 -0.9412
23332SOL    HW272250   9.181   3.177   8.130  1.3938 -1.0662 -2.4626
23333SOL     OW72251   8.402   8.801   7.608  0.6070 -0.1015  0.7755
23333SOL    HW172252   8.450   8.721   7.589 -0.9336 -0.6725 -1.0356
23333SOL    HW272253   8.388   8.842   7.523 -1.3474  0.4574  1.3116
23334SOL     OW72254   0.068   7.953   1.473  1.2342  0.0051 -0.5548
23334SOL    HW172255   0.060   7.925   1.382 -1.0187 -0.1567 -0.3804
23334SOL    HW272256  -0.021   7.980   1.497  2.1399  1.7247  1.0825
23335SOL     OW72257   9.061   5.821   5.080 -0.6465  0.3525 -0.6320
23335SOL    HW172258   9.146   5.801   5.121 -0.7929  0.3946 -0.3045
23335SOL    HW272259   9.071   5.910   5.047 -1.2610  1.2003  1.3058
23336SOL     OW72260   3.738   1.067   5.295  0.1448  0.5802 -0.0930
23336SOL    HW172261   3.778   1.075   5.382 -2.0642 -1.7194  1.2653
23336SOL    HW272262   3.801   1.015   5.245  0.9057  0.8967  0.5112
23337SOL     OW72263   5.686   2.759   0.813  0.3334  0.2241  0.0291
23337SOL    HW172264   5.652   2.848   0.826  1.1368  0.5165  0.1727
23337SOL    HW272265   5.771   2.759   0.856  0.6806 -0.3965 -0.6295
23338SOL     OW72266   2.175   2.290   4.097  0.3764 -0.9220 -0.0417
23338SOL    HW172267   2.198   2.380   4.074 -1.2235 -0.7689 -1.2325
23338SOL    HW272268   2.096   2.299   4.150  0.0831 -1.6131 -0.3531
23339SOL     OW72269   9.715   1.258   5.348 -0.2203 -0.0583  0.1634
23339SOL    HW172270   9.765   1.270   5.429 -0.3488  2.2025 -0.0375
23339SOL    HW272271   9.672   1.173   5.359 -0.6241  0.3883  2.7040
23340SOL     OW72272   0.089   1.359   9.012  0.1307  0.4934 -0.7023
23340SOL    HW172273   0.183   1.340   9.005  0.2174  1.1127 -1.3668
23340SOL    HW272274   0.072   1.421   8.940 -0.8837  0.0156 -0.8882
23341SOL     OW72275   2.100   5.294   5.323  0.2076 -0.4840  0.7064
23341SOL    HW172276   2.129   5.203   5.327 -0.5450 -0.7016  1.9423
23341SOL    HW272277   2.042   5.303   5.399  1.6406  1.4994  1.6396
23342SOL     OW72278   9.126  10.465   8.512 -0.0515  0.5930 -0.3912
23342SOL    HW172279   9.039  10.442   8.543  0.2577 -2.2587 -1.2980
23342SOL    HW272280   9.179  10.471   8.591 -1.2380  3.8186  0.3064
23343SOL     OW72281   7.556  10.127   2.399  0.2232  0.2000 -0.0199
23343SOL    HW172282   7.469  10.159   2.426  0.4585  1.2371 -0.4407
23343SOL    HW272283   7.616  10.168   2.462  0.5303  0.6051 -0.5689
23344SOL     OW72284   1.231   1.804   6.747 -0.2762  0.0669  0.0457
23344SOL    HW172285   1.207   1.783   6.837 -0.8903 -0.1103 -0.1550
23344SOL    HW272286   1.183   1.885   6.728 -1.2660 -0.6347 -0.5711
23345SOL     OW72287   3.437   7.533  10.214  0.3498  0.3850 -0.4552
23345SOL    HW172288   3.431   7.530  10.310  0.2270  3.9307 -0.2160
23345SOL    HW272289   3.352   7.501  10.184  0.9213 -2.2348  0.4643
23346SOL     OW72290   0.671   7.256   4.748 -0.0130 -0.5109 -0.5209
23346SOL    HW172291   0.737   7.229   4.684 -0.4314 -1.6728 -0.4873
23346SOL    HW272292   0.602   7.190   4.741 -0.9196  0.3583 -0.1469
23347SOL     OW72293  10.035   4.755   2.554  0.4840 -0.2944 -0.7543
23347SOL    HW172294  10.064   4.780   2.642  0.1994 -2.2985 -0.0468
23347SOL    HW272295   9.953   4.708   2.568 -1.1471  1.8749 -2.4012
23348SOL     OW72296   9.848   7.283   2.352  0.1225 -0.0973 -0.2764
23348SOL    HW172297   9.902   7.282   2.272  0.0537 -0.1258 -0.3231
23348SOL    HW272298   9.905   7.245   2.419  0.1832 -0.0696 -0.3108
23349SOL     OW72299   2.375   1.658   8.339  0.3926  0.2312 -0.5729
23349SOL    HW172300   2.365   1.635   8.247 -0.3007 -0.1361 -0.4071
23349SOL    HW272301   2.312   1.728   8.353  0.1767 -0.0212 -0.2706
23350SOL     OW72302  10.508   2.284   0.108 -0.3268  0.3088 -0.3694
23350SOL    HW172303  10.432   2.226   0.103  1.3932 -2.0360 -1.5564
23350SOL    HW272304  10.582   2.225   0.124  1.4707  2.2695 -0.9976
23351SOL     OW72305   4.130   3.725   9.597 -0.4227 -0.1401  0.3727
23351SOL    HW172306   4.151   3.672   9.674 -0.2428 -1.4627 -0.5489
23351SOL    HW272307   4.193   3.797   9.600  1.5076 -1.7250 -0.0513
23352SOL     OW72308   7.765   1.910   1.283 -0.2306  0.3558  0.2418
23352SOL    HW172309   7.680   1.885   1.321 -0.4719 -2.1966 -1.6966
23352SOL    HW272310   7.745   1.932   1.192  0.9804  1.4414  0.2130
23353SOL     OW72311   4.911   3.955   0.479  0.4996 -0.6461 -0.5584
23353SOL    HW172312   4.922   3.864   0.453 -0.0024 -0.5105 -1.2791
23353SOL    HW272313   4.834   3.985   0.431 -0.7712 -0.4951  1.4413
23354SOL     OW72314   5.718   3.604   3.523  0.0146 -0.5952  0.5508
23354SOL    HW172315   5.722   3.699   3.509  0.5865 -0.2672  2.6057
23354SOL    HW272316   5.652   3.592   3.591  1.2709 -1.4686  1.6620
23355SOL     OW72317   2.821   0.342   8.624 -0.4989  0.3226 -0.0389
23355SOL    HW172318   2.727   0.347   8.640 -0.2265  0.0718  1.8700
23355SOL    HW272319   2.852   0.431   8.637 -0.7446  0.9285 -3.0240
23356SOL     OW72320   2.569   9.391   9.364  0.3306  0.2312 -0.1223
23356SOL    HW172321   2.549   9.300   9.385 -1.3144  0.2148 -1.4653
23356SOL    HW272322   2.650   9.387   9.313  0.2991 -0.4950 -0.1264
23357SOL     OW72323   3.388   5.387   9.962  0.5549 -0.3531 -0.5112
23357SOL    HW172324   3.346   5.361  10.044 -0.6941 -1.3092 -1.4185
23357SOL    HW272325   3.396   5.306   9.912  0.4593  0.3475 -1.6972
23358SOL     OW72326   4.589   8.215   8.401  0.2864 -0.2595  0.0473
23358SOL    HW172327   4.579   8.144   8.464  1.0869 -0.6360 -0.2398
23358SOL    HW272328   4.520   8.200   8.336  0.1004 -0.4422  0.2834
23359SOL     OW72329   5.596   0.571  10.548 -0.3804  0.4016  0.4614
23359SOL    HW172330   5.685   0.542  10.528 -0.5657  0.2870 -0.2136
23359SOL    HW272331   5.541   0.493  10.534 -0.5282  0.3247  1.3901
23360SOL     OW72332   0.614   9.062   4.574 -0.4199 -0.4433 -0.2347
23360SOL    HW172333   0.704   9.034   4.589 -0.0622  0.7530 -0.0161
23360SOL    HW272334   0.621   9.132   4.508 -1.2102 -0.5088 -0.4036
23361SOL     OW72335   5.439   5.509   6.599  0.0319 -0.2193  0.2511
23361SOL    HW172336   5.501   5.445   6.564  2.3396  1.5097  0.8899
23361SOL    HW272337   5.494   5.574   6.643 -2.0433  2.6880 -1.0626
23362SOL     OW72338   1.997   7.764   2.963  0.1952 -0.7222 -0.0781
23362SOL    HW172339   2.025   7.775   3.054 -0.0106  1.4696 -0.2062
23362SOL    HW272340   1.902   7.758   2.968  0.0313  1.1422 -0.2053
23363SOL     OW72341   0.562   9.664   9.939 -0.4075 -0.0426 -0.3073
23363SOL    HW172342   0.506   9.619   9.875  1.6749 -1.0621 -1.5551
23363SOL    HW272343   0.571   9.753   9.905 -1.4831  0.2133  0.0637
23364SOL     OW72344   8.075   3.998   4.707 -0.0534 -0.2956  0.2942
23364SOL    HW172345   8.022   4.071   4.675  1.7414  2.2285  2.6213
23364SOL    HW272346   8.150   3.996   4.648 -0.2806 -0.5060  0.0112
23365SOL     OW72347   4.311   2.931   7.877  0.4805 -0.4224  0.2698
23365SOL    HW172348   4.247   2.860   7.871 -0.0593  0.0530  0.3585
23365SOL    HW272349   4.314   2.969   7.788  1.3533 -1.0491  0.0130
23366SOL     OW72350   3.161   1.893   5.414 -0.9398 -0.0668 -0.2310
23366SOL    HW172351   3.122   1.977   5.441  0.2327  0.7428 -0.9556
23366SOL    HW272352   3.196   1.856   5.495 -2.1513 -0.2517  0.2310
23367SOL     OW72353   7.409   7.518   8.753  0.8893  0.3826 -0.0636
23367SOL    HW172354   7.323   7.479   8.768  0.8706  0.8232  1.0257
23367SOL    HW272355   7.452   7.518   8.839  1.6873  0.8656 -0.4451
23368SOL     OW72356   8.010   9.451   3.134 -0.1484  0.0130 -0.1201
23368SOL    HW172357   8.085   9.503   3.104 -0.1484 -0.4690 -0.9889
23368SOL    HW272358   7.985   9.399   3.058 -1.9122  0.7844 -0.0994
23369SOL     OW72359   2.833   6.178   0.332  0.1177  0.3536  0.1467
23369SOL    HW172360   2.924   6.150   0.330  0.4930  1.5775 -0.2065
23369SOL    HW272361   2.813   6.205   0.243 -0.7797 -0.4233  0.0838
23370SOL     OW72362   5.028   7.260   3.681  0.0773 -0.4405  0.0902
23370SOL    HW172363   5.060   7.174   3.705 -0.3163  0.1704  3.2869
23370SOL    HW272364   5.087   7.321   3.725 -0.4874  0.8937 -0.9271
23371SOL     OW72365   7.291   2.415   2.058  0.1072 -0.1304  0.1816
23371SOL    HW172366   7.226   2.432   2.126 -2.9048 -2.7240 -1.7472
23371SOL    HW272367   7.361   2.368   2.103 -2.1243 -2.4404  1.5124
23372SOL     OW72368  10.305   2.985   8.162 -0.0446 -0.1399 -0.6932
23372SOL    HW172369  10.259   3.067   8.180 -0.2588 -0.5756  0.8346
23372SOL    HW272370  10.238   2.926   8.129  0.1447  0.3180 -1.9845
23373SOL     OW72371   5.973  10.387   4.905  0.3129  0.3094 -0.4455
23373SOL    HW172372   5.980  10.292   4.915 -0.1146  0.3776  0.5855
23373SOL    HW272373   6.047  10.421   4.955  0.7362  0.5100 -1.1977
23374SOL     OW72374   9.535   7.955   7.483  0.0696 -0.1604 -0.2294
23374SOL    HW172375   9.562   7.987   7.397 -0.1099 -0.1997 -0.3019
23374SOL    HW272376   9.606   7.897   7.511 -0.3394 -0.9795 -0.8148
23375SOL     OW72377   8.896   0.983   1.006  0.9301  0.2076  0.1520
23375SOL    HW172378   8.867   1.051   0.945  0.6936  0.6545  0.7662
23375SOL    HW272379   8.958   1.026   1.064  1.1718 -0.2272  0.2271
23376SOL     OW72380   1.034   7.344   1.110 -0.0396 -0.7193 -0.6763
23376SOL    HW172381   1.030   7.431   1.150 -0.4641 -1.9131  2.1303
23376SOL    HW272382   1.123   7.339   1.075 -0.1805  1.0193 -1.4046
23377SOL     OW72383   5.061   1.948   6.239 -0.5573  0.0339 -0.2238
23377SOL    HW172384   5.081   2.039   6.259  2.5916 -0.4414 -0.7311
23377SOL    HW272385   4.991   1.953   6.174 -0.6402  2.0797 -0.0508
23378SOL     OW72386   3.711   8.594   0.060  0.2416 -0.1711  0.5088
23378SOL    HW172387   3.676   8.557   0.141 -1.1726 -0.1629 -0.0726
23378SOL    HW272388   3.738   8.518   0.009 -2.0775 -0.4372 -0.4225
23379SOL     OW72389   1.669   2.605   8.303 -0.3945  0.1719  0.1913
23379SOL    HW172390   1.720   2.639   8.230 -1.4409 -2.0694 -1.6997
23379SOL    HW272391   1.734   2.567   8.362  0.3232 -0.2856 -0.8601
23380SOL     OW72392   6.425   4.559   5.629  0.0592  0.3029  0.1324
23380SOL    HW172393   6.393   4.622   5.694 -1.0498  0.6771 -0.7425
23380SOL    HW272394   6.504   4.599   5.594  0.0202  0.6395  0.4231
23381SOL     OW72395   9.942   1.549   3.446 -0.0317  0.4146 -0.7179
23381SOL    HW172396   9.868   1.490   3.430  1.3433 -1.9602  1.0821
23381SOL    HW272397   9.965   1.583   3.360 -2.5682  0.4919 -1.4531
23382SOL     OW72398  10.433   0.873   8.430  0.2884  0.0444  0.4908
23382SOL    HW172399  10.480   0.870   8.513 -0.6830  0.9128  1.1012
23382SOL    HW272400  10.468   0.799   8.380  0.8946 -0.4931  1.6604
23383SOL     OW72401   4.846   4.550   1.038 -0.4987 -0.7055  0.0580
23383SOL    HW172402   4.904   4.584   0.969  0.0789  1.1432  1.3680
23383SOL    HW272403   4.903   4.500   1.096 -0.0356  1.3724  1.5195
23384SOL     OW72404   7.634   5.470   5.147 -0.1731  0.1973 -0.6486
23384SOL    HW172405   7.609   5.556   5.181 -0.1816  0.5545 -1.5165
23384SOL    HW272406   7.626   5.411   5.222 -0.4002  0.9087 -0.0977
23385SOL     OW72407   2.669   6.640   6.133  0.0488  0.3319  0.3098
23385SOL    HW172408   2.575   6.655   6.148  0.1318 -0.2697  1.5281
23385SOL    HW272409   2.672   6.569   6.069 -0.3154  1.0744 -0.5575
23386SOL     OW72410   7.775   7.838   0.796 -0.1379  0.4162  0.2761
23386SOL    HW172411   7.706   7.898   0.825  0.4498  1.5667 -0.5969
23386SOL    HW272412   7.856   7.880   0.824  0.2866  0.0530 -0.3849
23387SOL     OW72413   1.715   8.584   2.782  0.6239 -0.1869 -0.1760
23387SOL    HW172414   1.642   8.640   2.754  1.0540 -1.0476 -3.3460
23387SOL    HW272415   1.678   8.496   2.783  1.2969 -0.4810 -0.6148
23388SOL     OW72416   6.393   6.676   3.814  0.1258  0.4246  0.2703
23388SOL    HW172417   6.431   6.731   3.745 -2.2522  0.0868 -1.4601
23388SOL    HW272418   6.329   6.733   3.857 -1.5640 -0.5610 -0.8069
23389SOL     OW72419   1.752   0.227   8.500  0.1391 -0.0696  0.2712
23389SOL    HW172420   1.729   0.136   8.478 -3.6432  0.8073 -0.2244
23389SOL    HW272421   1.776   0.224   8.592  2.2020 -1.8188 -0.2574
23390SOL     OW72422   2.101   7.277   6.803 -0.6880  0.5243 -0.4166
23390SOL    HW172423   2.194   7.265   6.824 -0.9618 -1.2125 -0.0874
23390SOL    HW272424   2.102   7.339   6.730  0.7359  0.3915 -0.5527
23391SOL     OW72425   9.900   9.466   4.208 -0.0251 -0.2249 -0.1245
23391SOL    HW172426   9.806   9.473   4.198 -0.2977 -2.1683  0.5534
23391SOL    HW272427   9.930   9.428   4.125 -0.2663 -2.2337  0.6471
23392SOL     OW72428   7.906   9.556   7.061  0.1739  0.2697  0.5276
23392SOL    HW172429   7.871   9.641   7.035 -0.2392 -0.6649 -2.3970
23392SOL    HW272430   7.831   9.510   7.100 -0.5017  0.2117 -0.7511
23393SOL     OW72431   8.417   9.923   3.042  0.1880  0.0323  0.7275
23393SOL    HW172432   8.386  10.003   3.086 -0.0357  0.2390  0.2031
23393SOL    HW272433   8.481   9.954   2.979  0.0621 -0.1996  0.4851
23394SOL     OW72434   6.051   5.779   2.403 -0.7228 -0.2488  0.0264
23394SOL    HW172435   6.145   5.795   2.391 -0.5252 -0.8667  0.7519
23394SOL    HW272436   6.021   5.852   2.458 -0.5535 -0.3764  0.2863
23395SOL     OW72437   7.538   0.060   3.407  0.0384  0.1318  0.3918
23395SOL    HW172438   7.549   0.075   3.313  0.1850  1.3512  0.5792
23395SOL    HW272439   7.455   0.103   3.429  0.1332  0.0799  0.8683
23396SOL     OW72440   0.401   7.065   5.395  0.0963  0.2693  0.2588
23396SOL    HW172441   0.495   7.080   5.406  0.4186 -1.0238 -0.4849
23396SOL    HW272442   0.386   7.074   5.301  0.4633 -4.0968 -0.4572
23397SOL     OW72443   2.184   6.485   3.431 -0.0132 -0.1469 -0.4113
23397SOL    HW172444   2.234   6.541   3.372  1.9628 -0.9211  0.4358
23397SOL    HW272445   2.119   6.443   3.375 -0.6589  1.9214 -1.3083
23398SOL     OW72446   6.944   9.807   2.381  0.2701 -0.6285 -0.2479
23398SOL    HW172447   7.021   9.853   2.347 -0.0572  0.1136 -0.0071
23398SOL    HW272448   6.978   9.755   2.454  0.6905 -0.9893 -0.6877
23399SOL     OW72449   0.355   5.762   4.138 -0.1477  0.2629  0.0680
23399SOL    HW172450   0.330   5.851   4.163  0.3880  0.4509 -0.0546
23399SOL    HW272451   0.406   5.773   4.058 -1.6277 -0.3002 -1.0109
23400SOL     OW72452   0.571   7.193   4.031  0.2752  0.2803  0.0008
23400SOL    HW172453   0.483   7.208   3.996  0.7880 -0.0302 -1.4796
23400SOL    HW272454   0.567   7.107   4.072 -0.2060  0.4253  0.2626
23401SOL     OW72455   2.640   9.431   3.353 -0.6746  0.1300 -0.7132
23401SOL    HW172456   2.581   9.459   3.284 -0.2141  5.2566  0.5696
23401SOL    HW272457   2.725   9.469   3.330  0.2817 -0.7410  1.1034
23402SOL     OW72458   7.565   3.461   2.136 -0.3549  0.0991 -0.4766
23402SOL    HW172459   7.648   3.494   2.104 -0.2021  0.4056  0.2199
23402SOL    HW272460   7.579   3.446   2.230 -1.2373  0.6889 -0.2332
23403SOL     OW72461   3.668   1.380   9.142 -0.6387 -0.3035 -0.3722
23403SOL    HW172462   3.735   1.416   9.083 -0.7798 -0.0016 -0.3498
23403SOL    HW272463   3.596   1.443   9.137 -1.0334 -0.7689 -0.6057
23404SOL     OW72464   4.949   5.710   2.852  0.1722  0.2335  0.5825
23404SOL    HW172465   5.007   5.648   2.897 -0.2104 -1.1803 -0.7785
23404SOL    HW272466   4.881   5.730   2.916  0.3370 -0.7243  1.0823
23405SOL     OW72467   8.879   0.386   5.474  0.3551  0.3061  0.2219
23405SOL    HW172468   8.956   0.356   5.426 -0.2557  0.8378 -1.1367
23405SOL    HW272469   8.899   0.477   5.497  0.2432  0.3618  0.1003
23406SOL     OW72470   9.679   1.683   2.852 -0.0181 -0.0516 -0.8147
23406SOL    HW172471   9.660   1.663   2.944  1.1838  0.4537 -0.4317
23406SOL    HW272472   9.624   1.622   2.803 -2.4062  1.1841  0.1634
23407SOL     OW72473   5.805   6.444   3.498  0.0281 -0.5945  0.0368
23407SOL    HW172474   5.882   6.387   3.501 -0.3698 -1.2075 -0.9379
23407SOL    HW272475   5.834   6.524   3.541  1.9460  0.0201 -2.1296
23408SOL     OW72476   9.185   1.165   3.433 -0.3953  0.0804  0.1255
23408SOL    HW172477   9.209   1.073   3.443 -2.6868 -0.5071  0.8211
23408SOL    HW272478   9.267   1.210   3.415  0.8079 -2.0614  0.0061
23409SOL     OW72479   9.347   6.159   1.432  0.3009  0.6620 -1.0460
23409SOL    HW172480   9.256   6.132   1.438  0.9509 -2.7348 -3.4167
23409SOL    HW272481   9.353   6.201   1.346  1.1387  0.0157 -1.3082
23410SOL     OW72482   1.414   8.062   5.316 -0.1598 -0.8194 -0.2260
23410SOL    HW172483   1.330   8.096   5.286  0.9527  1.4427 -0.9685
23410SOL    HW272484   1.418   8.087   5.409 -1.2530 -3.0391  0.4999
23411SOL     OW72485   4.736   7.530   8.890  0.9288  0.1807 -0.2115
23411SOL    HW172486   4.714   7.615   8.927 -1.4531 -0.5338  0.1920
23411SOL    HW272487   4.751   7.474   8.966 -2.2705 -0.8669 -0.2228
23412SOL     OW72488   3.529   9.833   7.709  0.1947 -0.2641 -0.7176
23412SOL    HW172489   3.525   9.856   7.802 -0.0565  2.4781 -1.3232
23412SOL    HW272490   3.622   9.819   7.691  0.3910  0.5453 -0.3401
23413SOL     OW72491   3.469   7.955   9.819  0.4061  0.1030 -0.0706
23413SOL    HW172492   3.434   7.912   9.898  1.5606  0.3456  0.5963
23413SOL    HW272493   3.456   8.048   9.834 -0.5210  0.0941 -0.7476
23414SOL     OW72494   7.326   5.848   7.713 -0.0394 -0.2956 -0.1370
23414SOL    HW172495   7.413   5.821   7.741  1.3542  1.4261 -2.4757
23414SOL    HW272496   7.309   5.929   7.761  1.9590  2.1530 -3.1630
23415SOL     OW72497  10.235   3.063   4.284  0.1988  0.3268  0.4056
23415SOL    HW172498  10.297   2.989   4.283  2.8226  2.2593 -2.9103
23415SOL    HW272499  10.268   3.121   4.352 -0.8827 -0.6884  1.8641
23416SOL     OW72500   7.681   3.470   5.572  0.3999  0.0936 -0.1303
23416SOL    HW172501   7.671   3.378   5.547 -1.5758  0.3559 -0.4733
23416SOL    HW272502   7.702   3.467   5.665 -2.4126 -0.6958  0.5509
23417SOL     OW72503   8.544   2.692   8.902 -0.2702  0.6524  0.0915
23417SOL    HW172504   8.484   2.636   8.852 -0.7844  1.7408 -0.5440
23417SOL    HW272505   8.495   2.715   8.980 -1.3926  2.8459 -1.1559
23418SOL     OW72506   5.125  10.411   6.232 -0.4432  0.4222  0.0763
23418SOL    HW172507   5.141  10.322   6.199  0.3038  0.0767  1.2994
23418SOL    HW272508   5.143  10.405   6.326  0.2476  2.0215  0.0712
23419SOL     OW72509  10.595   3.859   1.083 -0.0990  0.0625 -0.2657
23419SOL    HW172510  10.552   3.878   1.000 -1.5702  2.5969  0.9310
23419SOL    HW272511  10.542   3.904   1.148  1.7139 -0.7425  1.9122
23420SOL     OW72512   2.630   2.560   8.189 -0.2408 -0.4123 -0.0115
23420SOL    HW172513   2.617   2.597   8.276  1.2852 -0.4027  0.2325
23420SOL    HW272514   2.618   2.635   8.130  1.3467  0.1998  0.3853
23421SOL     OW72515   8.342   4.222   0.176 -0.2636 -0.4747  0.1633
23421SOL    HW172516   8.279   4.182   0.117 -0.8904  0.4424  0.1802
23421SOL    HW272517   8.427   4.187   0.150 -0.6593 -0.8933 -0.5723
23422SOL     OW72518   2.740   5.647   7.865  0.0550 -0.3976 -0.2506
23422SOL    HW172519   2.807   5.593   7.822 -0.2588 -0.5731 -0.5217
23422SOL    HW272520   2.718   5.714   7.800  0.0628 -0.2635 -0.1139
23423SOL     OW72521   9.468   9.865   2.252 -0.1264  0.0167 -0.1601
23423SOL    HW172522   9.531   9.795   2.235  0.6065  0.6138  0.0398
23423SOL    HW272523   9.486   9.930   2.185 -0.0906  0.4775  0.2886
23424SOL     OW72524   6.293   8.713  10.304  0.3942  0.9015 -0.0177
23424SOL    HW172525   6.240   8.707  10.224 -0.2916  1.3071  0.3995
23424SOL    HW272526   6.375   8.754  10.275  0.4345  0.3994 -0.6396
23425SOL     OW72527  10.472   8.457   2.697 -0.4043  0.4257 -0.5612
23425SOL    HW172528  10.523   8.417   2.767 -2.3323 -0.6552  0.3216
23425SOL    HW272529  10.466   8.391   2.629 -0.2435  0.7114 -0.8548
23426SOL     OW72530   5.028   3.280   9.434 -0.0053 -0.2385  0.3902
23426SOL    HW172531   5.030   3.229   9.516 -2.0507  0.4873  0.9453
23426SOL    HW272532   5.004   3.216   9.367  3.2252 -1.1864 -0.0178
23427SOL     OW72533   4.382   5.087   6.919 -0.2651 -0.3870  0.0513
23427SOL    HW172534   4.316   5.047   6.862 -1.7726  2.5937 -0.5100
23427SOL    HW272535   4.419   5.158   6.866  1.0862  0.0513  1.5084
23428SOL     OW72536   3.340   4.046   4.281  0.1756 -0.1489  0.0011
23428SOL    HW172537   3.417   4.084   4.239  1.0831 -1.6065  0.2488
23428SOL    HW272538   3.341   4.081   4.370  0.2271  0.2870 -0.1722
23429SOL     OW72539   9.393   3.270   3.454  0.0409 -0.0852 -0.5589
23429SOL    HW172540   9.454   3.207   3.417  0.5854 -0.3263  0.7017
23429SOL    HW272541   9.360   3.227   3.533 -0.4292  0.7578 -0.2895
23430SOL     OW72542   5.794   4.756   5.143  0.3802 -0.0863  0.6074
23430SOL    HW172543   5.756   4.843   5.156 -0.3000 -0.6884  3.2108
23430SOL    HW272544   5.726   4.708   5.095  0.3279  0.4813  0.0916
23431SOL     OW72545   0.429   7.003   6.282  0.2185  0.0061 -0.1899
23431SOL    HW172546   0.378   6.996   6.363  1.8215 -0.4177  0.8267
23431SOL    HW272547   0.493   7.072   6.300  0.5611 -0.0540 -1.1304
23432SOL     OW72548   8.894   3.149   9.601  0.2477  0.6066  0.0390
23432SOL    HW172549   8.804   3.149   9.632  0.4820  2.4802  0.8478
23432SOL    HW272550   8.895   3.085   9.529 -1.5457  0.0796  0.4365
23433SOL     OW72551   4.299  10.549   6.015  0.2846 -0.2824 -0.4634
23433SOL    HW172552   4.300  10.570   5.921  1.9641  2.9092  0.1236
23433SOL    HW272553   4.365  10.607   6.053 -1.9481  0.2309  3.0480
23434SOL     OW72554   5.874  10.528   8.889 -0.3354  0.4442  0.3333
23434SOL    HW172555   5.911  10.549   8.975 -1.1671 -0.7383  1.0191
23434SOL    HW272556   5.937  10.468   8.850 -0.6576 -0.1981  0.7697
23435SOL     OW72557   3.933   8.412   8.463  0.0364  0.0617 -0.1973
23435SOL    HW172558   3.959   8.322   8.447  1.4339  0.1051  1.5238
23435SOL    HW272559   3.914   8.416   8.557 -0.9892  1.3369 -0.4165
23436SOL     OW72560   1.924   2.995   4.020  0.0119  0.4304 -0.2687
23436SOL    HW172561   1.950   3.059   4.086  1.2550  1.4346 -1.6563
23436SOL    HW272562   1.935   3.040   3.937  3.0897 -2.1614 -1.4835
23437SOL     OW72563   8.826   7.921   0.101  0.3817 -0.1985 -0.4065
23437SOL    HW172564   8.916   7.937   0.130  0.3971 -0.2378 -0.4329
23437SOL    HW272565   8.820   7.964   0.016  0.4746 -0.4872 -0.5580
23438SOL     OW72566   3.676   8.785   7.698 -0.2612  0.1646  0.1417
23438SOL    HW172567   3.609   8.845   7.667  1.5287  1.7230 -0.8878
23438SOL    HW272568   3.682   8.717   7.630 -0.7950 -0.0126  0.2651
23439SOL     OW72569   4.781   8.399   0.953  0.5783 -0.5662  0.0774
23439SOL    HW172570   4.738   8.382   0.870  0.6756 -1.9887  0.2963
23439SOL    HW272571   4.861   8.347   0.950  1.9025  1.3446  0.0312
23440SOL     OW72572   9.930   0.895   8.655 -0.3796  0.4537  0.0127
23440SOL    HW172573   9.974   0.813   8.678 -0.9386 -0.2842 -1.4172
23440SOL    HW272574   9.999   0.951   8.620 -0.1866  0.1571 -0.0843
23441SOL     OW72575   1.787   5.775   4.473 -0.3809  0.6687  0.3716
23441SOL    HW172576   1.871   5.785   4.428 -0.2800 -0.1409  0.3555
23441SOL    HW272577   1.806   5.794   4.565 -0.1105  0.2263  0.4122
23442SOL     OW72578   8.754   7.793   8.410  0.0012  0.4054 -0.6493
23442SOL    HW172579   8.682   7.761   8.464 -0.1555  0.7140 -0.6748
23442SOL    HW272580   8.742   7.888   8.408  1.4126  0.6449  0.7876
23443SOL     OW72581   4.433   9.488  10.340  0.1816 -0.7211  0.4169
23443SOL    HW172582   4.497   9.417  10.327  0.0197 -1.3664  2.7012
23443SOL    HW272583   4.422   9.493  10.435 -1.4317  0.9602  0.1930
23444SOL     OW72584   1.531   3.610   6.838  0.0541 -0.0775 -0.0234
23444SOL    HW172585   1.527   3.524   6.879 -0.2287 -0.1266 -0.1553
23444SOL    HW272586   1.580   3.596   6.757  2.0525  0.3116  1.0357
23445SOL     OW72587   6.815   3.331   4.215 -0.3377 -0.0527  0.1191
23445SOL    HW172588   6.854   3.248   4.186 -0.8309 -0.1653 -0.2465
23445SOL    HW272589   6.841   3.339   4.306  1.1717  0.2602 -0.3035
23446SOL     OW72590   5.197   1.793  10.147 -0.5121 -0.5139  0.0232
23446SOL    HW172591   5.281   1.787  10.194 -1.1166 -0.4891  1.1377
23446SOL    HW272592   5.157   1.873  10.180 -0.2458  0.4279 -1.7894
23447SOL     OW72593   8.318   9.983  10.300 -0.0959 -0.4401  0.9890
23447SOL    HW172594   8.374  10.051  10.338  2.3938 -2.7033  1.6711
23447SOL    HW272595   8.327   9.995  10.206  0.3188  0.1331  1.0947
23448SOL     OW72596   2.879   5.373   0.726 -0.4151  0.3371 -0.4137
23448SOL    HW172597   2.865   5.408   0.637  3.1678  0.4404 -1.0793
23448SOL    HW272598   2.892   5.450   0.780  0.6556  0.2522 -0.5162
23449SOL     OW72599   1.524   2.767   2.016  0.5373 -0.0799  0.0366
23449SOL    HW172600   1.433   2.737   2.014  0.7710 -0.9906  1.6141
23449SOL    HW272601   1.542   2.793   1.925 -0.6816 -1.7916 -0.7602
23450SOL     OW72602   2.720   0.553   2.631 -0.2114 -0.3561  0.1199
23450SOL    HW172603   2.650   0.496   2.598 -2.5693  2.1419  0.4747
23450SOL    HW272604   2.768   0.580   2.552 -2.1285  0.9289 -0.6730
23451SOL     OW72605   0.670   6.601   6.465  0.0443  0.1911  0.7708
23451SOL    HW172606   0.615   6.534   6.425 -1.1106  0.0880  2.4201
23451SOL    HW272607   0.609   6.653   6.517  1.0466  2.0218  0.2011
23452SOL     OW72608   7.826   1.803   8.116 -0.2611 -0.3047 -0.1777
23452SOL    HW172609   7.843   1.711   8.136  1.4575 -0.5532 -2.3746
23452SOL    HW272610   7.824   1.806   8.020 -0.2263  1.9704 -0.1533
23453SOL     OW72611   4.111   5.320   0.584 -0.0133 -0.4170  0.1874
23453SOL    HW172612   4.131   5.241   0.633 -1.2792  0.6923  2.6816
23453SOL    HW272613   4.039   5.296   0.526  1.1060 -1.6125 -0.7523
23454SOL     OW72614  10.608  10.032  10.419  0.6650  0.9004 -0.0679
23454SOL    HW172615  10.608  10.008  10.512 -1.0956  0.6399 -0.0928
23454SOL    HW272616  10.685   9.988  10.383  0.5022 -0.2999  0.9709
23455SOL     OW72617   9.319   0.110   7.416 -0.2399 -0.3550 -0.3252
23455SOL    HW172618   9.312   0.205   7.429  0.4268 -0.2225 -0.8389
23455SOL    HW272619   9.230   0.077   7.429 -0.5713  0.4017 -0.6102
23456SOL     OW72620   3.698   9.376   4.370  0.2302  0.6417  0.2230
23456SOL    HW172621   3.735   9.379   4.282  0.3891  1.7780  0.3116
23456SOL    HW272622   3.604   9.385   4.357  0.2217  0.4676  0.1572
23457SOL     OW72623  10.026   3.842   3.630  0.1213  1.0294 -0.5407
23457SOL    HW172624  10.069   3.775   3.682 -0.3593 -0.2424 -1.7302
23457SOL    HW272625  10.095   3.906   3.611  1.2044 -0.3490 -1.3940
23458SOL     OW72626  10.517   2.250   6.944  0.1294 -0.8252  0.3886
23458SOL    HW172627  10.481   2.242   6.855  1.7336 -0.5085 -0.3343
23458SOL    HW272628  10.552   2.163   6.964 -1.5053 -1.2878  1.3192
23459SOL     OW72629   3.286   5.862   3.878 -0.3452  0.1721 -0.1652
23459SOL    HW172630   3.300   5.839   3.970 -0.0418 -0.2916 -0.3272
23459SOL    HW272631   3.336   5.798   3.828 -0.7104  0.2632 -0.6667
23460SOL     OW72632   6.559   1.663   3.564  0.0886  0.7839  0.5236
23460SOL    HW172633   6.636   1.710   3.596  1.0744 -0.2188 -0.2987
23460SOL    HW272634   6.548   1.693   3.474  0.5102 -0.2435  0.1094
23461SOL     OW72635   6.431   9.689   4.160  0.1649 -0.1589 -0.0335
23461SOL    HW172636   6.466   9.603   4.138  0.7377  0.4941 -1.7838
23461SOL    HW272637   6.447   9.698   4.254 -0.6980 -2.3074  0.3681
23462SOL     OW72638   0.898   0.361   6.168 -0.3070  0.4125  0.0265
23462SOL    HW172639   0.821   0.308   6.147  0.2740 -0.9239  1.1060
23462SOL    HW272640   0.973   0.304   6.147  0.3395  0.8537  1.0502
23463SOL     OW72641   4.640   1.684   6.219 -0.2436  0.3496  0.1423
23463SOL    HW172642   4.677   1.721   6.299 -1.3192  0.2192  0.7195
23463SOL    HW272643   4.619   1.759   6.165 -0.7539  0.5090  0.5544
23464SOL     OW72644   5.722   8.398   6.726  0.1725  0.2354 -0.4075
23464SOL    HW172645   5.670   8.446   6.790  0.2852  1.3297 -1.1020
23464SOL    HW272646   5.660   8.336   6.687 -0.1174  0.1770  0.1390
23465SOL     OW72647   4.848   4.344   3.363 -0.1114  0.1887  0.0275
23465SOL    HW172648   4.774   4.394   3.327 -0.2010 -0.3829 -0.6218
23465SOL    HW272649   4.848   4.364   3.456  0.5280  2.2572 -0.3591
23466SOL     OW72650  10.133   6.825   1.147 -0.2598 -0.0201  0.1590
23466SOL    HW172651  10.129   6.730   1.156 -0.4441 -0.0684 -0.3954
23466SOL    HW272652  10.045   6.855   1.169 -0.5501 -0.0891 -0.8725
23467SOL     OW72653   1.394   2.611   9.872  0.0159  0.4279  0.1630
23467SOL    HW172654   1.338   2.689   9.865 -0.6125 -0.0620 -0.3951
23467SOL    HW272655   1.333   2.537   9.867  0.7968 -0.1600 -1.9497
23468SOL     OW72656   9.643   8.670   9.075 -0.0972  0.2919 -0.4983
23468SOL    HW172657   9.735   8.683   9.097  0.1731 -1.4331 -0.4398
23468SOL    HW272658   9.601   8.649   9.159 -0.5020  0.8395 -0.5604
23469SOL     OW72659   9.799   0.210   8.010 -0.1880  0.0882 -0.0583
23469SOL    HW172660   9.867   0.149   8.039 -0.3876 -0.1605 -0.1017
23469SOL    HW272661   9.747   0.158   7.947  1.2057  1.0731 -2.1410
23470SOL     OW72662  10.083  10.144   7.898 -0.7804  0.5046 -0.2905
23470SOL    HW172663  10.174  10.129   7.922 -0.8180  0.7795  0.0361
23470SOL    HW272664  10.087  10.174   7.808 -0.4909  1.1238 -0.0805
23471SOL     OW72665   5.611   0.380   5.474  0.3694 -0.3265 -0.1516
23471SOL    HW172666   5.699   0.357   5.445  0.8652  0.5381  0.6050
23471SOL    HW272667   5.573   0.297   5.503  1.3333 -0.5444  0.5254
23472SOL     OW72668   1.838   1.548   2.344 -0.0046 -0.1027  0.4237
23472SOL    HW172669   1.762   1.559   2.400 -1.2112  1.1014 -1.3329
23472SOL    HW272670   1.900   1.615   2.373 -1.9134  2.7487 -1.6034
23473SOL     OW72671   8.249   5.207   8.639  0.1253  0.3385 -0.1005
23473SOL    HW172672   8.315   5.144   8.667 -0.2007  0.3100  0.6239
23473SOL    HW272673   8.266   5.285   8.692  1.3086  1.3389 -1.8502
23474SOL     OW72674   6.443   2.536  10.140 -0.1755 -0.2789  0.5649
23474SOL    HW172675   6.497   2.462  10.115 -1.8680 -1.1593 -0.7020
23474SOL    HW272676   6.468   2.606  10.079  0.7717 -0.0880  1.1587
23475SOL     OW72677   7.557   3.174   0.195 -0.7965  0.1393 -0.4765
23475SOL    HW172678   7.551   3.181   0.100  0.6401 -0.4685 -0.6414
23475SOL    HW272679   7.505   3.096   0.216  0.5367 -0.9266 -1.0158
23476SOL     OW72680   1.852   2.639   0.132  0.4385 -0.2616  0.1554
23476SOL    HW172681   1.882   2.714   0.183  0.8702  0.0650 -0.5659
23476SOL    HW272682   1.911   2.568   0.156  0.4497 -0.1881  0.3418
23477SOL     OW72683   1.061   2.369  10.591  0.2454  0.2787 -0.7729
23477SOL    HW172684   1.151   2.402  10.596 -0.0683  1.0292  0.4852
23477SOL    HW272685   1.071   2.274  10.586  1.1198  0.2766  0.4030
23478SOL     OW72686   5.964   5.845   3.810  0.1777  0.2824 -0.2229
23478SOL    HW172687   5.927   5.858   3.898 -0.2086 -1.2347 -0.1346
23478SOL    HW272688   5.995   5.755   3.811  2.0629  0.8686 -0.9846
23479SOL     OW72689   9.901   8.259   4.939  0.8342  0.1524  0.3182
23479SOL    HW172690   9.876   8.167   4.929 -1.1397  0.6786 -0.0491
23479SOL    HW272691   9.835   8.296   4.998  1.1659  1.4926 -0.1084
23480SOL     OW72692   1.994   8.626   1.580  0.1434  0.1269 -0.3708
23480SOL    HW172693   1.899   8.635   1.580  0.2623  1.7036  0.1290
23480SOL    HW272694   2.012   8.560   1.514 -1.3932 -1.5358  0.7958
23481SOL     OW72695   7.465   5.721   4.484  0.5167 -0.0150 -0.2798
23481SOL    HW172696   7.484   5.661   4.412 -0.1565 -0.3821 -0.1565
23481SOL    HW272697   7.476   5.808   4.447  1.4954 -0.2081 -0.4647
23482SOL     OW72698  10.287   7.449   6.625 -0.7279  0.1763  0.0589
23482SOL    HW172699  10.271   7.472   6.716 -1.6946  2.6603 -0.6596
23482SOL    HW272700  10.365   7.499   6.601  0.9766 -2.2695  0.0792
23483SOL     OW72701   0.227   3.454   5.065 -0.1616 -0.0191  0.1152
23483SOL    HW172702   0.293   3.470   5.132 -0.5193 -0.5142  0.5929
23483SOL    HW272703   0.186   3.539   5.051  1.0363  0.4495 -0.6931
23484SOL     OW72704   6.522   5.712   1.734 -0.0259 -0.3535  0.2573
23484SOL    HW172705   6.475   5.688   1.654 -1.2192 -0.0506  0.8443
23484SOL    HW272706   6.602   5.755   1.703 -0.4780 -0.2272 -0.7734
23485SOL     OW72707   9.715   7.200   3.530 -0.3731 -0.2064 -0.4955
23485SOL    HW172708   9.670   7.121   3.500  1.6242 -1.9701  0.7761
23485SOL    HW272709   9.676   7.219   3.615  0.0128 -0.6465 -0.2123
23486SOL     OW72710   6.912   2.870   2.459  0.0143 -0.3132 -0.3644
23486SOL    HW172711   6.946   2.880   2.548  0.7337 -2.2406 -0.3812
23486SOL    HW272712   6.843   2.936   2.453 -1.0003 -1.0194  2.0986
23487SOL     OW72713   7.532   7.853   7.863  0.0713 -0.6725  0.1064
23487SOL    HW172714   7.612   7.856   7.915 -1.0611  1.7868  1.9288
23487SOL    HW272715   7.477   7.922   7.899 -2.0391 -0.8041 -2.4963
23488SOL     OW72716   5.660   2.972   3.582  0.0224 -0.1340 -0.3271
23488SOL    HW172717   5.678   2.980   3.488 -0.6622 -0.4030 -0.4879
23488SOL    HW272718   5.739   3.005   3.625  1.7033 -2.9968 -1.0004
23489SOL     OW72719   2.292   5.641   9.883 -0.4572  0.3684  0.1416
23489SOL    HW172720   2.291   5.733   9.857 -0.2515  0.5903  0.8754
23489SOL    HW272721   2.215   5.603   9.840  0.1159  0.5952 -1.1322
23490SOL     OW72722   3.098   7.534   5.554  0.3787 -0.3304  0.0256
23490SOL    HW172723   3.190   7.559   5.554  0.4151 -0.4315 -0.8567
23490SOL    HW272724   3.050   7.616   5.556  0.4745  0.0972 -4.7141
23491SOL     OW72725   5.504   5.886   8.372 -0.7577 -0.4172  0.1312
23491SOL    HW172726   5.561   5.841   8.434  1.6777  0.7167 -1.1474
23491SOL    HW272727   5.483   5.820   8.307 -1.6123 -1.0516  1.0181
23492SOL     OW72728   0.589   5.642   7.820  0.0032  0.4310 -0.8730
23492SOL    HW172729   0.605   5.560   7.773  1.8292 -0.4836  1.1576
23492SOL    HW272730   0.578   5.615   7.911 -1.4139  2.3018 -0.4482
23493SOL     OW72731   5.619   4.755  10.367 -0.4936 -0.5468 -0.2944
23493SOL    HW172732   5.563   4.833  10.359 -1.5113 -1.0774  1.2292
23493SOL    HW272733   5.649   4.738  10.277 -1.0255  1.0251 -0.8024
23494SOL     OW72734   1.837   8.184   2.284  0.3859  0.5507  0.1104
23494SOL    HW172735   1.751   8.211   2.314  0.0691  0.3835 -0.6229
23494SOL    HW272736   1.898   8.221   2.348 -0.2292  0.6235  0.6628
23495SOL     OW72737   7.947   4.400   7.435 -0.0181 -0.0362 -0.5492
23495SOL    HW172738   8.015   4.441   7.488  0.1735  0.1373 -0.9223
23495SOL    HW272739   7.865   4.427   7.475  0.0683  1.4582 -1.3085
23496SOL     OW72740   6.363   0.291   4.629  0.2638  0.3870 -0.3523
23496SOL    HW172741   6.368   0.254   4.541  0.0666  0.3181 -0.3331
23496SOL    HW272742   6.455   0.298   4.656  0.4007  1.4401 -0.9918
23497SOL     OW72743   7.046   7.390   8.619 -0.0943  0.1387  0.1408
23497SOL    HW172744   7.085   7.372   8.534 -0.3527 -1.6914  0.3674
23497SOL    HW272745   6.999   7.473   8.608  2.5149  1.6342 -0.5679
23498SOL     OW72746   4.437   1.157   4.418 -0.2156 -0.0627 -0.0267
23498SOL    HW172747   4.368   1.149   4.484 -1.2327  1.5277 -0.8220
23498SOL    HW272748   4.470   1.247   4.429  0.0036  0.0279 -1.2751
23499SOL     OW72749   3.540   0.142   1.241  0.1459 -0.3350 -0.4970
23499SOL    HW172750   3.601   0.139   1.167 -0.8245 -0.5339 -1.3129
23499SOL    HW272751   3.492   0.224   1.229 -0.5831 -0.7619 -0.5562
23500SOL     OW72752   1.817   3.906   7.495  0.4138  0.0194  0.3981
23500SOL    HW172753   1.896   3.936   7.541  2.0844 -0.7524 -1.8035
23500SOL    HW272754   1.825   3.811   7.493 -1.7224 -0.2593  1.9639
23501SOL     OW72755   2.044   0.661   6.828 -0.1979 -0.2455  0.3050
23501SOL    HW172756   2.116   0.671   6.890  0.0733 -0.7447  0.0695
23501SOL    HW272757   1.989   0.593   6.867 -0.2034 -0.3229  0.1588
23502SOL     OW72758  10.254   9.038   5.768  0.2153  0.0192 -0.2612
23502SOL    HW172759  10.265   9.003   5.856  2.2930 -0.6086 -0.7258
23502SOL    HW272760  10.226   8.963   5.715  0.1100  0.1275 -0.3595
23503SOL     OW72761   5.857   3.676   0.632 -0.1858  0.3047  0.1610
23503SOL    HW172762   5.951   3.659   0.628 -0.3355 -0.2802 -1.8604
23503SOL    HW272763   5.849   3.771   0.624  0.2164  0.3168 -0.1210
23504SOL     OW72764   1.464   1.724   9.051  0.3606  0.1972  0.0809
23504SOL    HW172765   1.474   1.814   9.018 -2.3149  0.2958 -0.6968
23504SOL    HW272766   1.373   1.702   9.032  0.5170 -2.1408  1.6912
23505SOL     OW72767   7.654   7.217   5.447 -0.5078  0.0902  0.1586
23505SOL    HW172768   7.743   7.249   5.465 -0.9191  1.4398 -0.1229
23505SOL    HW272769   7.619   7.278   5.381 -1.4727 -0.7193 -0.1051
23506SOL     OW72770   0.590   5.745   2.417 -0.0592 -0.5215  0.2695
23506SOL    HW172771   0.664   5.758   2.476  0.7699 -1.2307 -0.5984
23506SOL    HW272772   0.602   5.811   2.349  1.0054 -2.0104 -1.0464
23507SOL     OW72773   3.485   7.579   5.888 -0.2838  0.0475  0.6429
23507SOL    HW172774   3.580   7.567   5.889 -0.0829  1.3958  1.1360
23507SOL    HW272775   3.451   7.501   5.845  1.1935  0.4921 -1.4846
23508SOL     OW72776   0.381   4.136   5.238  0.0262 -0.0505  0.0871
23508SOL    HW172777   0.443   4.064   5.252  0.0064 -0.1299 -0.2289
23508SOL    HW272778   0.365   4.171   5.326  0.1017 -0.3787  0.2349
23509SOL     OW72779   6.329   4.092   9.606 -0.2277 -0.5042 -0.1538
23509SOL    HW172780   6.379   4.171   9.624 -3.1268  1.7966 -1.2593
23509SOL    HW272781   6.266   4.086   9.678 -0.6074 -1.3142 -0.5314
23510SOL     OW72782   5.251   0.787   2.501  0.3088  0.0403 -0.2623
23510SOL    HW172783   5.232   0.878   2.525  0.2185  0.0233 -0.2687
23510SOL    HW272784   5.234   0.737   2.581 -0.6151 -0.0998 -0.5372
23511SOL     OW72785   0.194   7.005   7.352  0.1369  0.5601  0.6870
23511SOL    HW172786   0.131   6.947   7.396  0.9150 -1.2585 -0.4572
23511SOL    HW272787   0.145   7.046   7.281 -0.3583  1.1073  1.3373
23512SOL     OW72788   0.013   5.467   5.983  0.1997  0.3762 -0.1380
23512SOL    HW172789  -0.008   5.531   6.052  0.5009  0.5975 -0.2507
23512SOL    HW272790   0.061   5.517   5.918  1.0942 -0.1247  0.1167
23513SOL     OW72791   9.299   1.041  10.269 -0.2815  0.2167  0.5740
23513SOL    HW172792   9.212   1.000  10.275  0.4685 -1.4475  0.7563
23513SOL    HW272793   9.332   1.013  10.184  0.6857 -0.4932  1.1599
23514SOL     OW72794   2.292   4.485   1.910  0.5051 -0.0535 -0.0427
23514SOL    HW172795   2.282   4.391   1.897  0.5911 -0.2344  1.1333
23514SOL    HW272796   2.203   4.520   1.905  0.4908 -0.1631 -0.6515
23515SOL     OW72797   7.522   0.867   7.494 -0.5803 -0.1716  0.3146
23515SOL    HW172798   7.590   0.868   7.427  0.9552  1.8139  1.7690
23515SOL    HW272799   7.570   0.860   7.576 -2.3477 -1.4032  1.3039
23516SOL     OW72800  10.274   2.189   7.755 -0.2774  0.0269  0.9741
23516SOL    HW172801  10.191   2.209   7.799 -0.9488 -1.2330  0.3175
23516SOL    HW272802  10.319   2.129   7.815 -0.1519  0.1440  0.9987
23517SOL     OW72803   3.153   0.059   2.931 -0.5734  0.3245  0.3333
23517SOL    HW172804   3.214   0.115   2.883 -1.6357  1.1344 -0.1038
23517SOL    HW272805   3.177   0.072   3.023 -1.7751  2.7533  0.3793
23518SOL     OW72806   2.356   1.596   3.781  0.6685  0.4923  0.0963
23518SOL    HW172807   2.447   1.608   3.808  0.8828  2.1740 -1.2203
23518SOL    HW272808   2.341   1.664   3.715 -0.5696 -1.7819 -2.1203
23519SOL     OW72809   6.741   5.380   3.928 -0.0654  0.6809  0.3657
23519SOL    HW172810   6.812   5.443   3.943 -0.7013  1.5696 -0.1905
23519SOL    HW272811   6.714   5.396   3.837 -1.5049  0.9375  0.8100
23520SOL     OW72812   4.527   5.800   7.674  0.4179  0.0156 -0.2610
23520SOL    HW172813   4.475   5.828   7.600 -0.1226 -0.8027 -0.2077
23520SOL    HW272814   4.529   5.704   7.667 -1.0674 -0.2148  1.6907
23521SOL     OW72815   0.254   1.068   1.877  0.0702  0.2545  0.1789
23521SOL    HW172816   0.200   1.114   1.942  0.1216  1.7096 -0.7483
23521SOL    HW272817   0.245   1.121   1.797  0.3977 -1.2157 -0.8652
23522SOL     OW72818   4.898   6.224   1.801  0.0359 -0.0590  0.1293
23522SOL    HW172819   4.965   6.246   1.866 -1.1152 -0.0805  1.3728
23522SOL    HW272820   4.873   6.134   1.823 -0.5476  0.0247 -0.1690
23523SOL     OW72821   1.617   7.013   1.656 -0.4116  0.2902  0.3181
23523SOL    HW172822   1.673   6.937   1.641 -0.1487  0.2008  1.6695
23523SOL    HW272823   1.587   7.003   1.746 -2.0572  0.7035 -0.1516
23524SOL     OW72824   7.813   3.293  10.358 -0.2302 -0.6806 -0.6325
23524SOL    HW172825   7.852   3.295  10.271  1.8083  0.0754  0.2396
23524SOL    HW272826   7.887   3.282  10.418 -1.6298 -1.8369  0.9897
23525SOL     OW72827   7.915   0.226   8.004  0.2952  0.1923 -0.0268
23525SOL    HW172828   7.923   0.281   7.926  0.3122 -1.5158 -1.2953
23525SOL    HW272829   8.004   0.221   8.039  1.0541 -1.7742 -1.9543
23526SOL     OW72830   9.503   9.058   7.305  0.4058  0.3556  0.1604
23526SOL    HW172831   9.562   9.123   7.343  1.2818 -0.0981 -0.3865
23526SOL    HW272832   9.415   9.090   7.327  0.7621  2.2251 -0.8803
23527SOL     OW72833   2.239   8.271   9.333  0.1066  0.1877 -0.2956
23527SOL    HW172834   2.152   8.304   9.356 -0.0654 -1.2326  1.2544
23527SOL    HW272835   2.293   8.349   9.323 -1.1432  1.0564 -0.4406
23528SOL     OW72836   7.613   0.815   3.206  0.0792 -0.3303  0.4564
23528SOL    HW172837   7.597   0.842   3.297  0.5549  2.0561 -0.1198
23528SOL    HW272838   7.641   0.895   3.161  0.0486 -1.4920 -1.7691
23529SOL     OW72839   8.822   5.358   2.846 -0.0197  0.1449  0.4870
23529SOL    HW172840   8.738   5.313   2.856 -0.8392  1.4277 -0.2481
23529SOL    HW272841   8.879   5.318   2.911 -1.5106 -0.0608  1.7167
23530SOL     OW72842  10.068   3.262   5.408 -0.2238  0.4184 -0.4298
23530SOL    HW172843   9.976   3.254   5.434  0.7509 -0.5572  3.3214
23530SOL    HW272844  10.088   3.355   5.419 -0.7572  0.6765 -1.4862
23531SOL     OW72845   0.576   5.653   6.906  0.3821 -0.0860 -0.0265
23531SOL    HW172846   0.630   5.714   6.956 -1.0039  0.0260  1.4051
23531SOL    HW272847   0.545   5.590   6.971  0.5258 -1.4222 -1.2054
23532SOL     OW72848   0.294   8.328   1.238 -0.3159  0.1132  0.0457
23532SOL    HW172849   0.240   8.317   1.317  0.6773  1.4722  0.9644
23532SOL    HW272850   0.230   8.338   1.167 -1.2777  0.6330  0.9497
23533SOL     OW72851   6.774   8.544   1.760 -0.4041 -0.4818 -0.7167
23533SOL    HW172852   6.710   8.604   1.721  2.0030  0.8798 -2.9015
23533SOL    HW272853   6.793   8.582   1.846 -0.3207  0.8619 -1.2941
23534SOL     OW72854   8.763   6.368   9.037 -0.2554  0.3969  0.1018
23534SOL    HW172855   8.800   6.428   8.972 -1.4350 -0.0951 -1.0745
23534SOL    HW272856   8.798   6.398   9.120  0.7886  1.4529 -0.6858
23535SOL     OW72857   3.333   7.700   6.352  0.1054  0.0139 -0.0709
23535SOL    HW172858   3.313   7.743   6.435  0.3353  0.6876 -0.3487
23535SOL    HW272859   3.275   7.625   6.348 -0.0818  0.1242  0.5866
23536SOL     OW72860   9.243   2.466   3.977  0.4618  0.1019  0.1934
23536SOL    HW172861   9.249   2.374   4.004  0.3195 -0.4225 -1.4265
23536SOL    HW272862   9.149   2.485   3.976  0.1655 -0.8986 -2.8476
23537SOL     OW72863   2.282   4.186   9.160 -0.5290 -0.1733 -0.7068
23537SOL    HW172864   2.211   4.228   9.208  0.9522  1.2369  0.4015
23537SOL    HW272865   2.316   4.255   9.103 -0.7518 -1.1598 -2.0805
23538SOL     OW72866   9.942   2.666   7.390  0.1119 -1.0518  0.3198
23538SOL    HW172867   9.906   2.735   7.446  1.1041  0.5898 -0.9368
23538SOL    HW272868   9.976   2.601   7.450 -1.1919 -0.6379  1.5631
23539SOL     OW72869   5.692   4.026   9.081 -0.0667 -0.0972  0.3193
23539SOL    HW172870   5.619   4.019   9.142  0.4791  1.4473  1.1936
23539SOL    HW272871   5.652   4.054   8.998 -0.5696 -0.2553  0.5067
23540SOL     OW72872   8.392   1.966   0.866  0.0950 -0.0658  0.2143
23540SOL    HW172873   8.301   1.966   0.836  0.2047 -1.4431 -0.2107
23540SOL    HW272874   8.387   1.938   0.957  0.0323  0.7623  0.4727
23541SOL     OW72875   0.010   3.196  10.643 -0.6480 -0.4044  0.3876
23541SOL    HW172876   0.098   3.207  10.607 -0.8466  0.7727  0.2438
23541SOL    HW272877   0.025   3.171  10.735 -0.1727 -0.7393  0.2240
23542SOL     OW72878   0.749   8.214   2.412  0.1875  0.0795  0.0890
23542SOL    HW172879   0.801   8.246   2.338  0.7982 -0.8063  0.1147
23542SOL    HW272880   0.750   8.286   2.475 -1.1771  1.2390 -1.1422
23543SOL     OW72881  10.551   8.033   9.490  0.1746 -0.6271  0.6732
23543SOL    HW172882  10.583   7.996   9.573  1.0294 -0.3674  0.4643
23543SOL    HW272883  10.625   8.082   9.456 -0.6889  0.6041  0.5301
23544SOL     OW72884   4.630   8.274   6.991 -0.3767 -0.3509 -0.1926
23544SOL    HW172885   4.564   8.256   7.057 -1.1265 -1.5354 -1.2120
23544SOL    HW272886   4.588   8.334   6.930  0.0425  0.1315 -0.0155
23545SOL     OW72887   1.600   3.623   2.916  0.3965 -0.1638  0.4498
23545SOL    HW172888   1.528   3.599   2.975  0.3942  1.4617  1.1522
23545SOL    HW272889   1.581   3.574   2.836 -0.5009 -1.1559  1.2300
23546SOL     OW72890   3.552   1.905   2.537 -1.1528  0.1748 -0.2979
23546SOL    HW172891   3.559   1.943   2.624  0.9699  1.6550 -1.0323
23546SOL    HW272892   3.600   1.823   2.542 -0.8031  0.3883 -0.1346
23547SOL     OW72893  10.170  10.439   4.856 -0.1670 -0.1769 -0.1063
23547SOL    HW172894  10.164  10.382   4.778  0.7951  0.7742 -0.8985
23547SOL    HW272895  10.120  10.517   4.832 -0.8777 -0.3677  0.7064
23548SOL     OW72896   2.681  10.041   8.996  0.4706 -0.2635 -0.3005
23548SOL    HW172897   2.684   9.977   9.067  0.6906 -0.5271 -0.5404
23548SOL    HW272898   2.619  10.003   8.933  0.1107  0.0732 -0.1502
23549SOL     OW72899   0.813   4.910   6.790  0.2905  0.4917  0.0127
23549SOL    HW172900   0.741   4.951   6.837  0.3080  0.6103 -0.0632
23549SOL    HW272901   0.805   4.943   6.701 -0.3193 -0.4774 -0.3078
23550SOL     OW72902   5.184   1.281   5.792  0.1441  0.5617 -0.3878
23550SOL    HW172903   5.197   1.371   5.822  0.8996  0.8124 -1.4107
23550SOL    HW272904   5.208   1.227   5.868  0.0262  1.2106  0.1206
23551SOL     OW72905   1.247   0.595   5.590  0.0660  0.0050 -0.4073
23551SOL    HW172906   1.206   0.652   5.525  0.7382  0.7608 -0.1892
23551SOL    HW272907   1.188   0.520   5.598 -1.5394  1.3080  0.3201
23552SOL     OW72908   4.467   7.909   1.763  0.0157 -0.4156  0.5359
23552SOL    HW172909   4.559   7.923   1.744 -0.1968  0.4941  0.0969
23552SOL    HW272910   4.426   7.995   1.748 -0.8424 -0.7135  1.0545
23553SOL     OW72911   2.976   6.500   7.184 -0.2405 -0.2940 -0.0874
23553SOL    HW172912   3.019   6.433   7.130 -1.1455 -2.4352  1.6885
23553SOL    HW272913   2.884   6.496   7.157 -0.4281 -0.3048  0.5451
23554SOL     OW72914   9.501   1.627   5.154  0.1025 -0.2589  0.1839
23554SOL    HW172915   9.465   1.563   5.093 -0.7267  0.0423  0.3360
23554SOL    HW272916   9.474   1.712   5.119  0.2863 -0.0462  0.5465
23555SOL     OW72917   4.906   1.730   5.397  0.2435 -0.7056  0.1978
23555SOL    HW172918   4.847   1.800   5.369  0.8785 -0.5154 -0.6913
23555SOL    HW272919   4.917   1.744   5.491 -0.3314 -0.1532  0.1893
23556SOL     OW72920   4.220   9.988   4.673  0.3294 -0.1068 -0.3912
23556SOL    HW172921   4.310   9.993   4.705 -0.3033  0.5668  1.4327
23556SOL    HW272922   4.211  10.062   4.614  0.3457  1.2932  1.2707
23557SOL     OW72923   2.929   3.560   0.526  0.2474  0.9433 -0.0095
23557SOL    HW172924   2.927   3.594   0.436  2.7279  1.5199  0.0773
23557SOL    HW272925   2.956   3.635   0.579  0.6341  0.1412  0.9549
23558SOL     OW72926   9.271   7.592   5.185  0.0023 -0.4789  0.0544
23558SOL    HW172927   9.260   7.609   5.279  0.3007 -0.1378  0.0324
23558SOL    HW272928   9.361   7.559   5.177  0.3740  0.5536 -0.2379
23559SOL     OW72929   0.848   9.060   0.603  0.2126  0.0288  0.1069
23559SOL    HW172930   0.856   9.136   0.660 -0.2819 -1.6090  2.4720
23559SOL    HW272931   0.913   8.997   0.636 -0.1265 -1.0051 -1.0952
23560SOL     OW72932  10.147   4.613  10.294 -0.6766  0.3706  0.0701
23560SOL    HW172933  10.147   4.705  10.322  1.7617 -0.0092  1.6660
23560SOL    HW272934  10.209   4.571  10.353  3.0479 -1.0947 -4.3025
23561SOL     OW72935   5.000   9.081   6.760  0.0672 -0.2707  0.0656
23561SOL    HW172936   4.957   9.131   6.830  2.0771 -0.0519  1.2188
23561SOL    HW272937   5.054   9.145   6.714  0.8687 -0.9437  0.0587
23562SOL     OW72938   8.105   0.102   9.430 -0.1167 -0.2630  0.0105
23562SOL    HW172939   8.115   0.128   9.338 -1.2194 -2.2910 -0.7360
23562SOL    HW272940   8.193   0.077   9.457 -0.1003 -1.6754 -1.1922
23563SOL     OW72941   2.627   5.404   8.952 -0.1516 -0.1905  0.3132
23563SOL    HW172942   2.691   5.381   9.019  2.1263  2.2090 -0.8552
23563SOL    HW272943   2.602   5.495   8.973 -0.8231 -0.0543 -0.9987
23564SOL     OW72944   3.151   6.529   3.683 -0.2807  0.1033 -0.1535
23564SOL    HW172945   3.088   6.580   3.735  0.8476 -0.1505  1.5552
23564SOL    HW272946   3.226   6.518   3.741  0.7031 -0.9803 -1.5604
23565SOL     OW72947   0.632   8.033   2.235  0.3084 -0.5867  0.5523
23565SOL    HW172948   0.596   7.972   2.299  1.5983 -0.9231  0.9800
23565SOL    HW272949   0.631   8.118   2.279  0.4454 -0.6747  0.7269
23566SOL     OW72950   1.245   8.890   6.600  0.0259 -0.1915  0.2208
23566SOL    HW172951   1.295   8.884   6.519  2.1892 -0.8309  1.5407
23566SOL    HW272952   1.255   8.981   6.627 -0.9312  0.0953 -0.3241
23567SOL     OW72953   8.013   4.947   5.821  0.3018 -0.0200  0.4302
23567SOL    HW172954   8.010   4.863   5.866 -1.3799 -0.4334 -0.3472
23567SOL    HW272955   8.024   4.925   5.728 -0.0298  0.6179  0.2283
23568SOL     OW72956   4.127   8.314   6.401  0.5646  0.1460  0.0273
23568SOL    HW172957   4.161   8.400   6.378 -1.9517  1.3248  0.4564
23568SOL    HW272958   4.127   8.313   6.497 -0.4603  0.1353  0.0375
23569SOL     OW72959   8.354   4.234   1.209 -0.2081 -0.1235 -0.0162
23569SOL    HW172960   8.366   4.296   1.282 -1.8431  0.0577  0.1260
23569SOL    HW272961   8.273   4.188   1.229  0.0286 -1.0415 -1.0562
23570SOL     OW72962   8.901   1.587   2.075 -0.0615  0.1981  0.3618
23570SOL    HW172963   8.809   1.561   2.086  0.5159 -1.4679  1.8797
23570SOL    HW272964   8.945   1.550   2.151  2.1386 -0.3783 -1.0950
23571SOL     OW72965   8.619   6.334   7.572 -0.0024  0.2114 -0.4002
23571SOL    HW172966   8.547   6.302   7.628 -0.5979 -0.5362 -1.5645
23571SOL    HW272967   8.577   6.392   7.509  0.1201 -1.4518 -2.0962
23572SOL     OW72968   3.566   0.362   2.429 -0.2205 -0.7365  0.3169
23572SOL    HW172969   3.629   0.417   2.475 -0.6029 -0.1412  0.1387
23572SOL    HW272970   3.600   0.357   2.339  0.1631 -1.3389  0.4895
23573SOL     OW72971   3.282   0.607   1.094  0.4346 -0.1708 -0.1513
23573SOL    HW172972   3.337   0.552   1.150 -3.0171 -1.1768  2.5686
23573SOL    HW272973   3.209   0.550   1.069  0.0928  1.3219 -2.9325
23574SOL     OW72974   8.026   8.999   1.570 -0.4020  0.5247 -0.0260
23574SOL    HW172975   7.941   9.042   1.561 -2.2541 -2.5465  0.9589
23574SOL    HW272976   8.025   8.931   1.502  0.6514 -0.4252  0.8711
23575SOL     OW72977   6.019   5.859   5.277 -0.2703  0.0708 -0.4504
23575SOL    HW172978   6.044   5.832   5.189  0.1609  0.3164 -0.4040
23575SOL    HW272979   6.038   5.783   5.332 -0.1909  0.0467 -0.5107
23576SOL     OW72980   0.638   8.444   3.515  0.1589 -0.1986 -0.0830
23576SOL    HW172981   0.707   8.380   3.533 -0.4146 -1.4343 -2.0341
23576SOL    HW272982   0.562   8.392   3.490 -1.0912  1.1929  0.6984
23577SOL     OW72983   8.215  10.187   9.862 -0.5502  0.4783  0.1385
23577SOL    HW172984   8.124  10.215   9.869 -1.4451 -1.6771 -1.8394
23577SOL    HW272985   8.257  10.256   9.810 -1.5993  0.4314 -0.8076
23578SOL     OW72986   6.137   8.464   1.588 -0.4755  0.6335 -0.5542
23578SOL    HW172987   6.158   8.548   1.547 -0.7105  0.6603 -0.6210
23578SOL    HW272988   6.166   8.398   1.525 -1.2487  0.6771 -0.9763
23579SOL     OW72989   1.305   7.570   4.277 -0.5680 -0.1815 -0.3363
23579SOL    HW172990   1.301   7.653   4.325 -1.7499 -1.0887  1.2212
23579SOL    HW272991   1.354   7.511   4.334 -1.3759 -1.0815 -0.5421
23580SOL     OW72992   3.088   6.531   2.661  0.5075 -0.6385  0.1645
23580SOL    HW172993   3.124   6.547   2.574 -0.6141 -2.0159 -0.5865
23580SOL    HW272994   3.098   6.615   2.707  1.7428 -0.0976 -1.0444
23581SOL     OW72995   3.185   0.456   6.466 -0.4417  0.3489  0.2914
23581SOL    HW172996   3.164   0.513   6.392  0.4168  0.2857 -0.0203
23581SOL    HW272997   3.274   0.426   6.448 -1.5774 -2.8620 -0.7203
23582SOL     OW72998   3.341   8.643   4.217 -0.3971  0.1590 -0.0290
23582SOL    HW172999   3.342   8.719   4.159 -1.5550  0.6603  0.5641
23582SOL    HW273000   3.275   8.664   4.283 -0.6045 -1.2791  0.2658
23583SOL     OW73001   3.741   1.484   8.677 -1.0702  0.1723  0.3394
23583SOL    HW173002   3.702   1.551   8.734 -0.2225  0.8565  0.1561
23583SOL    HW273003   3.754   1.529   8.593 -1.4605 -0.5517 -0.1172
23584SOL     OW73004   2.304   1.811   0.744  0.3294  0.4678 -0.1659
23584SOL    HW173005   2.261   1.754   0.680  0.1480 -0.2095  0.5456
23584SOL    HW273006   2.397   1.796   0.730  0.3173  0.8995 -0.7774
23585SOL     OW73007  10.635   9.396   2.507  0.4076 -0.2356  0.4589
23585SOL    HW173008  10.601   9.427   2.591  1.2517 -0.0248  0.7345
23585SOL    HW273009  10.560   9.399   2.448 -0.6212 -1.9923  1.6152
23586SOL     OW73010   8.690   5.073   0.550  0.1670 -0.0415  0.0510
23586SOL    HW173011   8.654   4.989   0.578  0.4238 -0.0851  0.2500
23586SOL    HW273012   8.714   5.118   0.631 -1.3718  0.8674  0.0438
23587SOL     OW73013   2.191   2.822   0.143  0.2255 -0.0442  0.5256
23587SOL    HW173014   2.099   2.807   0.161 -0.6300  0.6289 -2.6420
23587SOL    HW273015   2.231   2.735   0.146 -0.6543 -0.4389  1.1119
23588SOL     OW73016   6.371   1.236   0.301  0.1470 -0.4706 -0.3898
23588SOL    HW173017   6.278   1.223   0.283  0.0943 -0.9568  0.1702
23588SOL    HW273018   6.415   1.165   0.253  0.0467 -1.4587  0.8991
23589SOL     OW73019   4.500   2.888  10.246  0.6253  0.2133 -1.0850
23589SOL    HW173020   4.492   2.801  10.206 -0.0137  0.0444 -0.6052
23589SOL    HW273021   4.555   2.874  10.323 -3.4394 -0.8511  1.9488
23590SOL     OW73022   8.322   5.735   3.699 -0.5712 -0.2226  0.3519
23590SOL    HW173023   8.302   5.644   3.680 -2.4077  0.6127 -2.3088
23590SOL    HW273024   8.393   5.758   3.639 -0.9762  0.4044  0.0964
23591SOL     OW73025   8.615   6.419   4.769 -0.1523 -0.6394  0.4709
23591SOL    HW173026   8.610   6.355   4.841  1.3323 -0.6273  0.6139
23591SOL    HW273027   8.524   6.440   4.750 -0.6716 -2.4227  0.7585
23592SOL     OW73028   9.920   5.925   5.259  0.1374 -0.3604  0.2004
23592SOL    HW173029   9.954   5.952   5.344  0.6908 -0.3278 -0.0282
23592SOL    HW273030   9.825   5.935   5.267  0.3085  1.7610  0.0945
23593SOL     OW73031   3.109   3.448   4.208  0.2496 -0.7114 -0.0380
23593SOL    HW173032   3.152   3.479   4.287 -1.2420  0.9039  0.2065
23593SOL    HW273033   3.100   3.527   4.153 -1.3442 -1.1980 -0.5347
23594SOL     OW73034   2.480   2.670   4.386  0.0702 -0.1425 -0.3346
23594SOL    HW173035   2.453   2.691   4.297 -0.9532  0.5155  0.1135
23594SOL    HW273036   2.529   2.747   4.415  0.2069 -0.2613 -0.2501
23595SOL     OW73037   7.846   8.583   8.316  0.1795  0.4965  0.4848
23595SOL    HW173038   7.826   8.534   8.237 -0.6146  3.0727 -1.0459
23595SOL    HW273039   7.820   8.526   8.388 -1.4977 -0.9455 -1.1822
23596SOL     OW73040   2.818   4.231   7.169 -0.1612  0.3902 -0.0352
23596SOL    HW173041   2.815   4.326   7.155  1.7623  0.4766 -0.1048
23596SOL    HW273042   2.868   4.197   7.095  0.2338 -0.5119  0.6185
23597SOL     OW73043   5.275   8.120   5.118  0.4119 -0.7775 -0.0141
23597SOL    HW173044   5.207   8.100   5.182 -0.6230 -0.2384 -0.9309
23597SOL    HW273045   5.262   8.056   5.048  1.1413 -0.9517 -0.0085
23598SOL     OW73046  10.608   8.830   5.952  0.3985 -0.0420 -0.2502
23598SOL    HW173047  10.579   8.881   5.877  0.2435  0.5993  0.2423
23598SOL    HW273048  10.599   8.888   6.027  1.1056 -0.4795  0.1956
23599SOL     OW73049   0.184   0.871  10.156  0.0293  0.1546 -0.0857
23599SOL    HW173050   0.245   0.863  10.083  1.1306 -0.1064  0.8262
23599SOL    HW273051   0.209   0.953  10.199  2.5469 -1.8786  2.6982
23600SOL     OW73052   0.443   1.706   7.317  0.0877 -0.4223  0.3584
23600SOL    HW173053   0.392   1.785   7.337 -1.4773 -1.4810  0.7044
23600SOL    HW273054   0.417   1.682   7.228  0.9211 -0.3001  0.0722
23601SOL     OW73055   7.506   4.835   0.718 -0.0190  0.5114  0.7252
23601SOL    HW173056   7.530   4.770   0.652  1.8708  0.8254  1.0492
23601SOL    HW273057   7.410   4.839   0.714 -0.2330 -2.5441  0.9838
23602SOL     OW73058   5.347   5.932   3.196 -0.2066  0.0535  0.0984
23602SOL    HW173059   5.432   5.973   3.179 -0.2939  0.3850  0.4433
23602SOL    HW273060   5.307   5.987   3.264 -0.0063 -1.0374  1.1226
23603SOL     OW73061   4.335   1.364   8.565  0.2672 -0.2754 -0.0955
23603SOL    HW173062   4.347   1.342   8.657 -1.9027  1.7618  0.7731
23603SOL    HW273063   4.245   1.339   8.546  0.1739  0.7799 -1.1913
23604SOL     OW73064   5.128   8.184   4.605 -0.5590 -0.0689  0.0946
23604SOL    HW173065   5.152   8.158   4.516 -0.3047  0.4739  0.0036
23604SOL    HW273066   5.182   8.260   4.624 -1.9380  0.9642  0.0118
23605SOL     OW73067   2.706   3.493   3.349  0.0276 -0.0242  0.1486
23605SOL    HW173068   2.775   3.519   3.288 -1.8581  2.3900 -1.1032
23605SOL    HW273069   2.728   3.537   3.431  0.7049 -0.4357  0.1958
23606SOL     OW73070   6.905   4.887   5.396 -0.7881 -1.1883  1.0681
23606SOL    HW173071   6.854   4.966   5.414 -0.6171 -0.9049  0.3603
23606SOL    HW273072   6.903   4.879   5.300  2.0201 -0.1149  0.8414
23607SOL     OW73073   7.006   3.684   1.028  0.6085 -0.4056 -0.2560
23607SOL    HW173074   6.965   3.657   0.946 -0.5195  1.0100 -0.1941
23607SOL    HW273075   7.057   3.761   1.004 -1.0796  1.0582  0.6322
23608SOL     OW73076   5.352   9.445   8.149  0.3083  0.1019  0.0982
23608SOL    HW173077   5.306   9.528   8.161  1.1990  0.8278 -1.3408
23608SOL    HW273078   5.399   9.432   8.231 -0.9980  0.2439  0.9018
23609SOL     OW73079   0.295   3.905   1.394  0.0431 -0.4607 -0.1253
23609SOL    HW173080   0.360   3.851   1.439  2.0396  0.8501 -1.2791
23609SOL    HW273081   0.329   3.994   1.400 -1.5847  0.2639 -0.9418
23610SOL     OW73082   8.189  10.168   8.394 -0.1125  0.5982  0.2860
23610SOL    HW173083   8.213  10.083   8.432  0.9974  1.8436  2.6636
23610SOL    HW273084   8.097  10.159   8.370 -0.8889 -0.4550  3.1941
23611SOL     OW73085   9.507   6.023   9.905  0.2810  0.2243  0.1751
23611SOL    HW173086   9.553   6.105   9.925  0.9210 -0.1964  0.4765
23611SOL    HW273087   9.574   5.966   9.868 -0.3548  0.1276 -0.8640
23612SOL     OW73088   2.579   2.089   6.026  0.6118 -0.5625 -0.5344
23612SOL    HW173089   2.538   2.154   5.969 -0.9395  1.1349  2.2696
23612SOL    HW273090   2.510   2.024   6.042  0.3552 -0.0269  0.7441
23613SOL     OW73091   8.567   9.731   1.269  0.0625  0.4248 -0.3137
23613SOL    HW173092   8.608   9.770   1.192 -0.4073 -0.2830 -0.9291
23613SOL    HW273093   8.615   9.650   1.284  0.0454  0.4782  0.0404
23614SOL     OW73094   0.847  10.283   4.386 -0.1845  0.3371 -0.1074
23614SOL    HW173095   0.809  10.220   4.447  0.2132 -0.5071 -0.7183
23614SOL    HW273096   0.896  10.230   4.324  2.2175  1.3627  0.7764
23615SOL     OW73097  10.206   5.869  10.243  0.1941 -0.1865  0.1274
23615SOL    HW173098  10.255   5.787  10.249  1.2197  0.3668 -0.5706
23615SOL    HW273099  10.118   5.842  10.217 -0.0069 -1.2233  1.7274
23616SOL     OW73100   7.222   3.757   9.063 -0.5433 -0.1765  0.0101
23616SOL    HW173101   7.282   3.774   9.136  0.2204  1.0283 -0.8494
23616SOL    HW273102   7.243   3.668   9.035 -0.4939 -0.4662  0.9193
23617SOL     OW73103   7.280   2.858   6.323 -0.6140 -0.1388  0.1660
23617SOL    HW173104   7.291   2.935   6.379 -1.6290 -0.7820  1.3174
23617SOL    HW273105   7.352   2.863   6.260  0.8885  0.3609  1.8452
23618SOL     OW73106   6.948   9.797  10.649  0.3101 -0.7440 -0.7392
23618SOL    HW173107   7.036   9.791  10.610 -0.1831 -1.5954 -1.7574
23618SOL    HW273108   6.946   9.884  10.689  1.1545 -0.1794 -1.8622
23619SOL     OW73109   0.156   2.448   9.243  0.4809 -0.0039  0.0203
23619SOL    HW173110   0.121   2.510   9.306  0.7261  0.6384 -0.4580
23619SOL    HW273111   0.247   2.436   9.269  0.5540  0.1817 -0.1458
23620SOL     OW73112   8.520   7.480   6.938  0.0758 -0.0742  0.7208
23620SOL    HW173113   8.455   7.505   6.872 -1.3602  2.2688  2.8570
23620SOL    HW273114   8.477   7.413   6.990  1.0183 -1.5493 -0.3231
23621SOL     OW73115   7.430   0.050   7.701  0.1252  0.3091  0.2364
23621SOL    HW173116   7.378   0.064   7.780  0.4054  0.3034  0.4212
23621SOL    HW273117   7.515   0.090   7.720 -0.7996  3.2778 -1.2371
23622SOL     OW73118   7.676   8.584   5.463 -0.0672 -0.0816 -0.5434
23622SOL    HW173119   7.675   8.678   5.447  1.0554 -0.0858 -0.7322
23622SOL    HW273120   7.612   8.571   5.533 -0.4938  0.7686 -0.7681
23623SOL     OW73121   3.037   3.754   5.378  0.1624 -0.4186 -0.2015
23623SOL    HW173122   3.069   3.844   5.381  0.8474 -0.6195 -1.1790
23623SOL    HW273123   3.076   3.712   5.455 -0.8638  0.3220  0.7613
23624SOL     OW73124   0.337   2.221  10.602  0.7491 -0.5615  0.3307
23624SOL    HW173125   0.347   2.304  10.556  0.1524 -0.2330  0.7895
23624SOL    HW273126   0.425   2.183  10.602  1.0895  0.2104  0.3844
23625SOL     OW73127   8.573   9.635   3.945  0.0102  0.0602 -0.3693
23625SOL    HW173128   8.554   9.618   4.037  0.5744 -1.4593 -0.4984
23625SOL    HW273129   8.490   9.668   3.909  0.1221  1.9244  0.9198
23626SOL     OW73130   7.698   1.404   1.166 -0.3604 -0.2758  0.0189
23626SOL    HW173131   7.706   1.494   1.198  1.4720 -0.1685 -0.6512
23626SOL    HW273132   7.729   1.350   1.239 -2.3196 -0.4759  0.7688
23627SOL     OW73133   7.397   0.046   8.245  0.3503  0.1879  0.9455
23627SOL    HW173134   7.338   0.068   8.317  0.5038 -2.7085  2.0978
23627SOL    HW273135   7.473   0.006   8.288 -0.2121 -3.0537 -0.7705
23628SOL     OW73136   6.914   4.852   5.121  0.5454 -0.3438 -0.0610
23628SOL    HW173137   6.973   4.919   5.088  1.2507 -0.6922  0.4592
23628SOL    HW273138   6.830   4.897   5.131  0.2759 -0.2487 -2.3247
23629SOL     OW73139   7.584   9.525   2.797  0.8491  0.2367 -0.3845
23629SOL    HW173140   7.528   9.447   2.788  2.4544 -0.8805 -1.3719
23629SOL    HW273141   7.526   9.598   2.778 -0.5081 -0.7749 -0.3497
23630SOL     OW73142   0.212   8.127   5.335 -0.4102 -0.0234 -0.1535
23630SOL    HW173143   0.282   8.084   5.287 -2.0338 -2.0080 -0.9291
23630SOL    HW273144   0.240   8.218   5.343  0.9793 -0.1090 -2.8559
23631SOL     OW73145   4.459   8.880   6.402  0.2424  0.3836  0.4309
23631SOL    HW173146   4.370   8.870   6.368  0.2948 -1.2862  0.7305
23631SOL    HW273147   4.515   8.877   6.325  0.1108  0.4296  0.3333
23632SOL     OW73148   8.705   2.806   8.576 -0.0390  0.1545 -0.1000
23632SOL    HW173149   8.668   2.718   8.572 -0.3070  0.2368  0.5344
23632SOL    HW273150   8.632   2.862   8.600 -0.3200  0.8476 -2.3216
23633SOL     OW73151   1.415   4.624   0.957 -0.0903  0.2648  0.8771
23633SOL    HW173152   1.374   4.621   0.870 -0.1187  1.5607  0.8146
23633SOL    HW273153   1.365   4.562   1.010  0.1485 -0.8024 -0.1128
23634SOL     OW73154   5.556   6.903   2.979  0.3914 -0.1111 -0.1629
23634SOL    HW173155   5.560   6.843   3.053  1.6377 -0.4326 -0.4646
23634SOL    HW273156   5.469   6.889   2.941  0.0925 -0.6065  0.6801
23635SOL     OW73157   3.808   9.562   5.705 -0.1294 -0.6345  0.5212
23635SOL    HW173158   3.747   9.606   5.645  2.3801  1.3732 -0.7523
23635SOL    HW273159   3.809   9.619   5.782 -1.1463 -1.6258  1.2863
23636SOL     OW73160   7.970   6.253   9.520 -0.2657  0.3011 -0.1541
23636SOL    HW173161   7.984   6.321   9.585 -2.6786  1.0341 -0.3121
23636SOL    HW273162   8.024   6.279   9.445 -0.1257  1.3113  0.2880
23637SOL     OW73163   4.297  10.176  10.393 -0.0163 -0.0642 -0.0016
23637SOL    HW173164   4.386  10.209  10.405 -0.6322  1.0778  1.8456
23637SOL    HW273165   4.307  10.100  10.336  1.9763  0.7983 -0.8965
23638SOL     OW73166   7.191   6.228   0.990  0.2582  0.1141  0.7787
23638SOL    HW173167   7.234   6.309   0.965 -1.6169  0.5959 -1.2535
23638SOL    HW273168   7.232   6.161   0.936 -1.9905  0.7339 -1.9472
23639SOL     OW73169   5.430   6.149   6.657  0.3397 -0.1437 -0.5662
23639SOL    HW173170   5.369   6.084   6.693  1.4509 -1.0358 -0.2237
23639SOL    HW273171   5.480   6.180   6.732  0.9703 -0.1571 -0.9676
23640SOL     OW73172   3.405   7.167   6.590  0.0272  0.3513  0.6481
23640SOL    HW173173   3.334   7.119   6.547 -0.2094  1.4522 -0.2381
23640SOL    HW273174   3.379   7.169   6.682 -1.0124  0.5747  0.3674
23641SOL     OW73175   3.980   7.120   8.608 -0.1855  0.1794 -0.1198
23641SOL    HW173176   3.893   7.118   8.649 -0.8395 -1.0585 -1.4688
23641SOL    HW273177   3.970   7.068   8.529  1.2211  1.8471 -1.4685
23642SOL     OW73178   1.063  10.354   0.056 -0.3576  0.2424 -0.2688
23642SOL    HW173179   0.982  10.383   0.013  0.0059  3.0034  0.7035
23642SOL    HW273180   1.133  10.397   0.006  0.1781  1.8935  1.7569
23643SOL     OW73181  10.512   1.771   2.869  0.1637 -0.4142  0.3953
23643SOL    HW173182  10.545   1.754   2.781  0.7221  0.4107  0.4327
23643SOL    HW273183  10.589   1.757   2.926  0.6220  1.9724  0.4414
23644SOL     OW73184   2.376   3.649   1.676 -0.0958 -0.2030 -0.3263
23644SOL    HW173185   2.329   3.604   1.746 -1.5313  1.8186  0.0832
23644SOL    HW273186   2.457   3.680   1.717  1.1586 -2.6498 -0.7313
23645SOL     OW73187   1.597   1.079  10.489 -0.4199 -0.4885 -0.2304
23645SOL    HW173188   1.598   1.153  10.428 -1.5255 -0.7357 -0.5815
23645SOL    HW273189   1.683   1.039  10.480  0.5397  1.2453  0.6079
23646SOL     OW73190   9.097   8.204   5.524 -0.5993  0.1734 -0.6217
23646SOL    HW173191   9.152   8.198   5.602 -0.4255 -0.3197 -0.7791
23646SOL    HW273192   9.158   8.219   5.452 -0.7694  0.7570 -0.6533
23647SOL     OW73193   0.344  10.059   6.921  0.0911 -0.3300 -0.5145
23647SOL    HW173194   0.286  10.008   6.977  0.8799  0.5149  1.1412
23647SOL    HW273195   0.421  10.004   6.908  1.5822  0.8447  2.4644
23648SOL     OW73196   2.838   3.705   2.576 -0.3992 -0.1519 -0.0813
23648SOL    HW173197   2.828   3.800   2.584  0.3688 -0.1028  0.3118
23648SOL    HW273198   2.782   3.670   2.645  1.0498  0.0944  1.2711
23649SOL     OW73199   3.488   8.891   2.766  0.0049  0.2956  0.0315
23649SOL    HW173200   3.552   8.853   2.705 -2.8084  1.4241 -4.0542
23649SOL    HW273201   3.476   8.980   2.735 -5.4005 -0.6044 -1.4180
23650SOL     OW73202   5.431   2.930   8.341  0.4061 -0.1383  0.1250
23650SOL    HW173203   5.409   3.006   8.289  0.8629 -0.6724 -0.8649
23650SOL    HW273204   5.489   2.878   8.286 -0.6736 -1.6946  0.3846
23651SOL     OW73205   4.342   3.627   6.964 -0.7722  0.4658 -0.1122
23651SOL    HW173206   4.353   3.639   6.870 -0.9932 -0.2357 -0.2361
23651SOL    HW273207   4.429   3.606   6.997 -0.7407  0.4602 -0.2003
23652SOL     OW73208   9.865   7.362   0.210  0.4554 -0.2344  0.1897
23652SOL    HW173209   9.799   7.325   0.268 -0.6504  1.4564  0.0939
23652SOL    HW273210   9.923   7.411   0.268  0.9896 -0.7949  0.1444
23653SOL     OW73211   4.490   3.389   1.870 -0.6912 -0.4116  0.3327
23653SOL    HW173212   4.487   3.414   1.963 -2.0509 -0.6505  0.3735
23653SOL    HW273213   4.534   3.463   1.827 -0.1450 -0.2502  1.1442
23654SOL     OW73214   2.245   6.736   7.078 -0.1855 -0.7194  0.1275
23654SOL    HW173215   2.196   6.655   7.086 -0.3566 -0.4543  2.3363
23654SOL    HW273216   2.299   6.740   7.157  0.8677  0.6330 -0.6159
23655SOL     OW73217   9.888   3.384   0.453  0.0356  0.3188 -0.1204
23655SOL    HW173218   9.862   3.307   0.403  0.2741 -0.5817  1.0843
23655SOL    HW273219   9.879   3.457   0.392 -0.8009 -0.5771 -1.1056
23656SOL     OW73220   4.214   5.081   0.410 -0.5322 -0.4541 -0.1460
23656SOL    HW173221   4.285   5.031   0.449  0.7498  0.1964 -1.5811
23656SOL    HW273222   4.236   5.172   0.427 -2.2718 -0.2550  1.4517
23657SOL     OW73223   0.077   1.155   6.931  0.0479 -0.3671 -0.4339
23657SOL    HW173224   0.079   1.060   6.942  0.5389 -0.4055 -0.8044
23657SOL    HW273225   0.068   1.167   6.836  0.1627 -0.0450 -0.4037
23658SOL     OW73226   0.117   4.295   0.372  0.0775  0.4261  0.2890
23658SOL    HW173227   0.093   4.315   0.282 -0.5402 -0.9569  0.1234
23658SOL    HW273228   0.057   4.226   0.398 -0.0910  1.1553  1.9423
23659SOL     OW73229   8.242   0.208   6.615 -0.3748 -0.4273  0.3789
23659SOL    HW173230   8.151   0.222   6.643 -0.0669  0.2885  1.0825
23659SOL    HW273231   8.294   0.255   6.681  0.3874  1.7453 -1.6473
23660SOL     OW73232   6.890   2.322   9.336 -0.8799  0.0572 -0.6317
23660SOL    HW173233   6.978   2.290   9.356 -1.8405 -1.5699  1.5005
23660SOL    HW273234   6.901   2.414   9.314  1.1899  0.3000  1.1759
23661SOL     OW73235   0.715   5.226   9.640 -0.1982  0.0479  0.0527
23661SOL    HW173236   0.699   5.178   9.722  0.2148 -0.2955 -0.0669
23661SOL    HW273237   0.740   5.159   9.577 -0.1655  0.3564 -0.2659
23662SOL     OW73238   8.977   8.521   7.304  0.0718  0.1978 -0.1791
23662SOL    HW173239   8.913   8.473   7.251 -0.3123  0.5284 -0.0208
23662SOL    HW273240   9.062   8.490   7.273 -0.1032  1.2441 -1.8261
23663SOL     OW73241   2.753   8.285   0.136  0.1123  0.7216  0.2382
23663SOL    HW173242   2.834   8.310   0.091  1.0777 -1.1095  0.8621
23663SOL    HW273243   2.720   8.211   0.086  1.0652 -1.1924  2.2815
23664SOL     OW73244   6.423   9.462   7.069  0.2037  0.6012 -0.5256
23664SOL    HW173245   6.360   9.462   7.142 -1.1516  0.3012 -1.6593
23664SOL    HW273246   6.399   9.539   7.017 -0.7123 -0.7059 -2.1575
23665SOL     OW73247   1.173   6.732   1.359  0.2453  0.1582 -1.0326
23665SOL    HW173248   1.217   6.731   1.445  0.6867 -1.0411 -1.2481
23665SOL    HW273249   1.121   6.812   1.360 -1.5134 -0.8761  1.2573
23666SOL     OW73250   3.220   0.673   7.998  0.2063 -0.2783 -0.1345
23666SOL    HW173251   3.271   0.747   7.966 -1.3151  0.4045 -1.0707
23666SOL    HW273252   3.220   0.684   8.094  0.1064  0.8692 -0.2519
23667SOL     OW73253   8.090   0.863   9.195  0.3868  0.1940 -0.1177
23667SOL    HW173254   8.103   0.875   9.101  0.6705  1.3892  0.0593
23667SOL    HW273255   8.021   0.926   9.218  1.5153  1.1545  0.7666
23668SOL     OW73256   0.838   8.111   1.879  0.4462 -0.1187  0.0301
23668SOL    HW173257   0.851   8.141   1.789  1.3092  2.0248  0.8213
23668SOL    HW273258   0.908   8.048   1.893  0.4295 -0.3166 -0.7185
23669SOL     OW73259   0.017   5.438   7.336 -0.4888  0.3162  0.6133
23669SOL    HW173260  -0.048   5.493   7.292  1.2016  0.4460 -1.9996
23669SOL    HW273261   0.048   5.490   7.410 -0.5813  1.9468 -0.4414
23670SOL     OW73262   5.213   4.952   3.368 -0.0717  0.0225 -0.3228
23670SOL    HW173263   5.208   5.046   3.381 -1.1866 -0.3910  3.5638
23670SOL    HW273264   5.306   4.934   3.353  0.4740  1.6066  0.8682
23671SOL     OW73265   5.889   8.711   3.638  0.1015 -0.4881  0.3211
23671SOL    HW173266   5.894   8.798   3.678 -0.6263 -0.7951  1.1058
23671SOL    HW273267   5.964   8.664   3.673 -0.4275 -0.6946  1.1891
23672SOL     OW73268   6.332   7.774   4.640  0.9524 -0.1394 -0.1048
23672SOL    HW173269   6.368   7.696   4.683  0.8973 -0.5040 -0.7095
23672SOL    HW273270   6.359   7.765   4.548 -0.1148 -0.0931 -0.4399
23673SOL     OW73271   2.564   6.978   8.563 -0.2008  0.5000 -0.7246
23673SOL    HW173272   2.568   6.926   8.483 -0.0541  1.7454 -1.5468
23673SOL    HW273273   2.648   6.963   8.605  0.8418  1.9102 -2.1769
23674SOL     OW73274   3.779   9.976   1.943 -0.1961 -0.6208  0.1861
23674SOL    HW173275   3.848   9.951   1.882 -0.5823 -1.1519 -0.0381
23674SOL    HW273276   3.814   9.956   2.029  0.8966  1.3955  0.2614
23675SOL     OW73277   3.800  10.317  10.124  0.2789 -0.4354  0.0376
23675SOL    HW173278   3.707  10.337  10.114  0.5161  0.3510 -0.6731
23675SOL    HW273279   3.842  10.402  10.131  0.7743 -0.8052  2.2595
23676SOL     OW73280   3.467   9.491   5.891 -0.7589 -0.1404  0.5215
23676SOL    HW173281   3.469   9.398   5.913  2.0218 -0.5412 -1.0150
23676SOL    HW273282   3.510   9.534   5.965 -0.6175 -0.2756  0.5197
23677SOL     OW73283   8.979   2.331   9.520 -0.0023 -0.0722 -0.5223
23677SOL    HW173284   9.051   2.353   9.461  2.1170 -1.3783  1.4063
23677SOL    HW273285   8.914   2.289   9.463  1.7088 -0.8346 -2.0261
23678SOL     OW73286   2.186   1.097   3.323 -0.1829 -0.3009  0.2815
23678SOL    HW173287   2.248   1.162   3.291  0.0507 -1.1321 -1.0237
23678SOL    HW273288   2.138   1.069   3.245  0.9112 -2.9325  0.4511
23679SOL     OW73289   3.756   4.684   7.919 -0.1739  0.0148  0.0688
23679SOL    HW173290   3.672   4.673   7.963 -0.9465  1.0940 -1.0993
23679SOL    HW273291   3.819   4.691   7.991 -0.9123 -1.7624  0.9540
23680SOL     OW73292   5.551   1.985   4.461 -0.5317  0.3304  0.5455
23680SOL    HW173293   5.481   1.935   4.503  0.8083 -1.7753  0.4090
23680SOL    HW273294   5.569   1.939   4.380 -0.3311  2.0310 -0.4336
23681SOL     OW73295   8.256   1.688   4.266 -0.0137  0.3101 -0.1074
23681SOL    HW173296   8.170   1.659   4.237  0.1221 -0.2579  0.0576
23681SOL    HW273297   8.318   1.640   4.210  0.2387 -0.5320  0.8752
23682SOL     OW73298   9.763  10.437   6.331 -0.4128 -0.1531 -0.0016
23682SOL    HW173299   9.688  10.392   6.371 -0.9063 -0.6391 -1.3856
23682SOL    HW273300   9.834  10.373   6.334  0.0649  0.4271  1.6152
23683SOL     OW73301   4.318   0.056   4.305 -0.4451 -0.5286  0.1435
23683SOL    HW173302   4.236   0.060   4.255 -0.3049 -1.4899 -0.1800
23683SOL    HW273303   4.297   0.001   4.380 -0.2431 -0.3236  0.3487
23684SOL     OW73304   5.249   8.729   7.080 -0.4180 -0.0866  0.1393
23684SOL    HW173305   5.215   8.652   7.035  0.1960 -0.7995  0.8692
23684SOL    HW273306   5.289   8.781   7.010 -0.3874 -0.6690 -0.2871
23685SOL     OW73307   1.996   7.748   8.360 -0.0005  0.0982 -0.6385
23685SOL    HW173308   1.914   7.776   8.320 -1.1329 -0.3482  1.2478
23685SOL    HW273309   2.001   7.654   8.341  0.2220  0.1750 -0.9730
23686SOL     OW73310   6.864   1.210   1.224 -0.3291  0.3707 -0.2889
23686SOL    HW173311   6.788   1.156   1.205 -0.9828  1.5455 -1.0804
23686SOL    HW273312   6.842   1.254   1.307 -0.0811 -0.0471  0.0025
23687SOL     OW73313   0.208   6.917   3.240 -0.0573 -0.6067  0.0822
23687SOL    HW173314   0.293   6.882   3.266 -0.7093 -0.7216  2.2498
23687SOL    HW273315   0.211   7.009   3.263  0.0573 -0.2149 -1.4253
23688SOL     OW73316   6.345   4.492   2.335  0.2488  0.0304 -0.5153
23688SOL    HW173317   6.282   4.562   2.320 -0.2338 -0.0434  0.9623
23688SOL    HW273318   6.399   4.490   2.256 -1.1691  0.5398 -1.5342
23689SOL     OW73319   1.092   6.994   6.546 -0.3279 -0.2775  0.1874
23689SOL    HW173320   1.157   6.957   6.606 -0.4369 -2.3661 -0.8961
23689SOL    HW273321   1.143   7.030   6.474 -0.2332  1.6188  1.1459
23690SOL     OW73322   9.603   0.378   7.272 -0.1380 -0.0644  0.0677
23690SOL    HW173323   9.594   0.470   7.298  0.4127  0.1572 -0.5174
23690SOL    HW273324   9.616   0.331   7.355  3.5542  0.8576  0.1931
23691SOL     OW73325   3.428   9.689   2.546  0.3859  0.3310 -0.7539
23691SOL    HW173326   3.474   9.628   2.488  0.2058  0.4839 -1.0609
23691SOL    HW273327   3.372   9.740   2.487 -0.8318 -0.4444 -0.2933
23692SOL     OW73328   8.408   9.337   0.281 -0.0332 -0.1479  0.3730
23692SOL    HW173329   8.451   9.278   0.219  0.0627  0.2930  0.0162
23692SOL    HW273330   8.407   9.288   0.363  0.8180 -0.3089  0.2966
23693SOL     OW73331   4.156   7.539   1.418  0.0431 -0.0012 -0.5126
23693SOL    HW173332   4.181   7.631   1.419  1.1501 -0.2826 -0.7962
23693SOL    HW273333   4.062   7.539   1.435  0.2809  1.0974  0.9511
23694SOL     OW73334   1.163   9.065   0.792 -0.2155  0.6214 -0.7226
23694SOL    HW173335   1.243   9.106   0.824 -1.2383  1.7927  0.4415
23694SOL    HW273336   1.096   9.134   0.799 -1.4546 -0.4983 -1.0963
23695SOL     OW73337   8.115   9.406   9.698  0.0747  0.4396  0.4900
23695SOL    HW173338   8.174   9.373   9.630 -0.2920  1.1102 -0.1745
23695SOL    HW273339   8.154   9.376   9.780  0.6216 -0.2428 -0.0008
23696SOL     OW73340   4.511   1.486   1.238 -0.0470 -1.2137 -0.2889
23696SOL    HW173341   4.483   1.432   1.313  0.9383 -2.3117 -0.6868
23696SOL    HW273342   4.429   1.510   1.194 -0.5263 -2.1065  0.0893
23697SOL     OW73343   5.881   9.870   9.062 -0.5310  0.0619 -0.8992
23697SOL    HW173344   5.945   9.941   9.065 -0.5897  0.1961 -2.2458
23697SOL    HW273345   5.873   9.841   9.153  2.2523 -0.6865 -0.7863
23698SOL     OW73346   4.653   0.137   3.110  0.3811  0.3884  0.2800
23698SOL    HW173347   4.566   0.144   3.151 -1.3127  1.5318 -3.1299
23698SOL    HW273348   4.671   0.226   3.079  1.2686 -0.4548 -1.7777
23699SOL     OW73349   8.027   1.161   2.720 -0.1907  0.7403 -0.1824
23699SOL    HW173350   8.088   1.189   2.652  1.0452  2.6279  1.5996
23699SOL    HW273351   7.999   1.242   2.762 -1.3242 -0.3349  1.2137
23700SOL     OW73352   6.010   6.150   3.255  0.4326  0.0571 -0.4319
23700SOL    HW173353   6.069   6.202   3.200  1.2629  0.7683  1.0560
23700SOL    HW273354   6.057   6.141   3.338  0.1373 -2.7792 -0.4809
23701SOL     OW73355   0.051   3.535   0.429  0.0344 -0.4310  0.2365
23701SOL    HW173356  -0.036   3.494   0.425 -0.0084 -0.3414  0.2341
23701SOL    HW273357   0.032   3.629   0.432  0.1261 -0.4187  0.4246
23702SOL     OW73358   8.252   8.434   9.645  0.8179 -0.0561  0.2199
23702SOL    HW173359   8.218   8.376   9.576 -1.2114 -0.9550  1.8322
23702SOL    HW273360   8.273   8.515   9.601 -1.1835 -0.3291 -1.3710
23703SOL     OW73361  10.652   8.725   4.803  0.0416  0.1485  0.2562
23703SOL    HW173362  10.599   8.803   4.824 -0.5810 -0.3055  0.4107
23703SOL    HW273363  10.691   8.700   4.886 -0.1866 -0.0188  0.3122
23704SOL     OW73364   8.114   5.625   0.122 -0.1591 -0.3649 -0.2096
23704SOL    HW173365   8.077   5.618   0.034 -2.5353  2.1110  0.4224
23704SOL    HW273366   8.063   5.563   0.174 -1.5453  0.9460  0.0850
23705SOL     OW73367   2.425   7.180   8.211  0.3849 -0.1383  0.1427
23705SOL    HW173368   2.513   7.168   8.174  0.8006  1.5810  0.5165
23705SOL    HW273369   2.395   7.091   8.230  2.0489 -0.7562  0.0242
23706SOL     OW73370   8.033   1.425  10.071  0.1314 -0.3927  0.2934
23706SOL    HW173371   8.080   1.461  10.147  0.5418 -0.5851  0.1335
23706SOL    HW273372   7.946   1.402  10.105  0.0689  0.1815  0.5383
23707SOL     OW73373   8.994   6.922   5.219 -0.0098  0.1202 -0.0812
23707SOL    HW173374   9.052   6.850   5.195  2.6048  2.0008  0.2618
23707SOL    HW273375   8.976   6.908   5.312  1.0540  0.2679  0.1548
23708SOL     OW73376   4.368   2.963   5.451  0.0776 -0.3290 -0.5904
23708SOL    HW173377   4.438   2.956   5.387  0.8547  2.4211 -0.1836
23708SOL    HW273378   4.288   2.942   5.402  1.0797 -4.6009 -0.8082
23709SOL     OW73379   4.417   4.517   0.835  0.1635  0.2266  0.1901
23709SOL    HW173380   4.464   4.496   0.916 -0.1605 -1.2512  0.0156
23709SOL    HW273381   4.338   4.464   0.839 -0.8073  1.5834 -0.2159
23710SOL     OW73382   4.067   2.008  10.019 -0.0344 -0.7612  0.2118
23710SOL    HW173383   4.134   2.063  10.061 -0.7899  0.8177 -0.5702
23710SOL    HW273384   4.105   1.985   9.934 -1.0826  1.5941 -0.9880
23711SOL     OW73385   8.479   4.076   2.325  0.2079 -0.6267 -0.6567
23711SOL    HW173386   8.546   4.139   2.301  0.0896 -0.0988  0.3634
23711SOL    HW273387   8.509   3.993   2.287  1.5585 -0.4523 -0.0296
23712SOL     OW73388   3.489   1.692  10.095  0.4961  0.4097 -0.0889
23712SOL    HW173389   3.436   1.657  10.166 -0.0978 -0.4704 -0.9352
23712SOL    HW273390   3.427   1.739  10.039  0.9583  1.1270 -0.0129
23713SOL     OW73391   6.850   2.637   8.219  0.6386  0.3369  0.2164
23713SOL    HW173392   6.788   2.590   8.164 -0.5017 -0.4228  2.0854
23713SOL    HW273393   6.804   2.717   8.245  1.0828  0.5786  0.2802
23714SOL     OW73394   3.441   8.678   0.410  0.1615 -0.3560 -0.2240
23714SOL    HW173395   3.440   8.770   0.435  1.7284 -0.7362  1.4501
23714SOL    HW273396   3.395   8.633   0.481  0.6869 -1.0173 -0.2931
23715SOL     OW73397   8.542   9.219   5.654 -0.3383 -0.3438  0.0125
23715SOL    HW173398   8.450   9.233   5.676 -0.7768  1.6399 -2.5668
23715SOL    HW273399   8.590   9.253   5.729 -1.7128  1.0224  0.3155
23716SOL     OW73400   4.060   8.223   2.847 -0.2254  0.4146 -0.0140
23716SOL    HW173401   4.116   8.291   2.884  1.1684 -1.2280  1.0569
23716SOL    HW273402   4.098   8.141   2.878 -2.1095 -0.8601 -0.8654
23717SOL     OW73403   0.255   9.580   0.395 -0.7029  0.9262 -0.2527
23717SOL    HW173404   0.211   9.495   0.403 -0.6095  0.7392 -1.5412
23717SOL    HW273405   0.235   9.624   0.477 -0.5432 -0.4359  0.5522
23718SOL     OW73406   9.821   0.607   6.812 -0.5998 -0.1768  0.1582
23718SOL    HW173407   9.773   0.674   6.861 -0.2699 -0.1002  0.3751
23718SOL    HW273408   9.889   0.655   6.765 -0.0053 -0.4214  0.7548
23719SOL     OW73409   6.187   9.523   9.748 -0.1862 -0.2363 -0.0870
23719SOL    HW173410   6.117   9.483   9.697  1.0174 -1.4127 -0.8836
23719SOL    HW273411   6.220   9.593   9.692 -0.0225 -0.3899 -0.1850
23720SOL     OW73412   3.670   8.515   4.670 -0.3682 -0.4043  0.3786
23720SOL    HW173413   3.660   8.599   4.714 -0.9345  0.5889 -1.5167
23720SOL    HW273414   3.749   8.525   4.617 -0.1190 -1.2874  0.5644
23721SOL     OW73415  10.156   2.031   7.386 -0.1079 -0.2491 -1.2763
23721SOL    HW173416  10.074   1.989   7.412  0.6349 -0.1536  1.6317
23721SOL    HW273417  10.222   1.962   7.396  0.6726  0.6768  0.4559
23722SOL     OW73418   7.108   5.434   6.419 -0.3772  0.1503  0.6158
23722SOL    HW173419   7.044   5.472   6.358 -1.8340 -1.1297  1.2881
23722SOL    HW273420   7.063   5.432   6.503  0.2506 -1.4867  0.9566
23723SOL     OW73421   3.450   1.017   9.738  0.6380 -0.1406 -0.2129
23723SOL    HW173422   3.386   1.017   9.810  2.0084  2.1965  1.1073
23723SOL    HW273423   3.480   0.926   9.733 -0.2646 -0.5761  1.4550
23724SOL     OW73424   5.640   7.588   9.691 -0.1474 -0.2479 -0.3912
23724SOL    HW173425   5.571   7.649   9.716  0.2749  0.6587 -1.3576
23724SOL    HW273426   5.593   7.507   9.670 -0.9086  0.3096 -0.9028
23725SOL     OW73427   1.783   8.334   5.875 -0.7893  0.2134  1.2226
23725SOL    HW173428   1.764   8.423   5.845 -0.3874 -0.3422 -0.8583
23725SOL    HW273429   1.874   8.320   5.851 -1.0460 -0.9894  0.8847
23726SOL     OW73430   9.439   0.671   9.287  0.4871  0.3448  0.4705
23726SOL    HW173431   9.427   0.633   9.200  2.7494  0.3612  0.0823
23726SOL    HW273432   9.451   0.596   9.344  2.5204  0.3442  0.1169
23727SOL     OW73433   3.178   9.888   7.301 -0.6280  0.6257  0.4933
23727SOL    HW173434   3.122   9.966   7.306 -0.5274  0.6475  1.4089
23727SOL    HW273435   3.184   9.856   7.391 -2.2470 -1.5961 -0.1051
23728SOL     OW73436   4.445   0.228   7.307  0.6660 -0.5247 -0.4119
23728SOL    HW173437   4.480   0.317   7.320 -0.5339 -0.1093  0.0985
23728SOL    HW273438   4.520   0.171   7.325  0.5044  0.1919  3.5621
23729SOL     OW73439   0.625   9.776   7.949 -0.6325  0.3808 -0.3649
23729SOL    HW173440   0.683   9.700   7.954 -0.5322  0.5053  0.6412
23729SOL    HW273441   0.608   9.799   8.041 -1.8001  0.7000 -0.6454
23730SOL     OW73442   7.916   4.021   5.523  0.1051 -0.5087  0.0905
23730SOL    HW173443   8.002   4.017   5.481  0.3265  1.2614  0.2885
23730SOL    HW273444   7.936   4.034   5.616 -0.3905 -0.8546  0.2516
23731SOL     OW73445   0.474   4.908   6.675  0.0059  0.2720 -0.9987
23731SOL    HW173446   0.380   4.899   6.685  0.0197  0.4088 -0.7585
23731SOL    HW273447   0.510   4.893   6.762  0.2401 -0.2206 -1.1729
23732SOL     OW73448   1.369   6.765   2.622 -0.2784  0.0898 -0.4493
23732SOL    HW173449   1.402   6.753   2.533 -1.6030  0.2259 -0.9941
23732SOL    HW273450   1.295   6.825   2.611 -0.7451 -0.2577  0.6856
23733SOL     OW73451   5.603  10.297   2.308  0.1949  0.1019  0.9792
23733SOL    HW173452   5.519  10.254   2.321  0.2563 -0.6248 -0.7734
23733SOL    HW273453   5.599  10.332   2.219  2.4229 -1.6513  0.0728
23734SOL     OW73454   7.221   2.429   2.636 -0.0708  0.2275 -0.1771
23734SOL    HW173455   7.147   2.377   2.668 -0.7655  1.2599 -0.0771
23734SOL    HW273456   7.193   2.520   2.645  1.2074  0.6444 -0.1503
23735SOL     OW73457   9.401   9.534   4.423 -0.0062 -0.3339 -0.4505
23735SOL    HW173458   9.345   9.502   4.353 -2.8637  0.9119  1.0867
23735SOL    HW273459   9.451   9.458   4.451 -2.5777 -2.1533 -0.4792
23736SOL     OW73460   2.039   4.131  10.382  0.1206 -0.4350 -0.0657
23736SOL    HW173461   2.133   4.150  10.386  0.0136  0.5038 -1.3168
23736SOL    HW273462   1.997   4.208  10.419 -0.1638 -1.3592  1.6414
23737SOL     OW73463   5.774   5.443   6.839  0.1960 -0.0647 -0.3691
23737SOL    HW173464   5.831   5.392   6.781  1.0924 -0.4716  0.8317
23737SOL    HW273465   5.702   5.384   6.860  1.0194 -0.7400  0.6842
23738SOL     OW73466   2.186   4.554   1.310  0.0808 -0.2634  0.3839
23738SOL    HW173467   2.282   4.551   1.313  0.0713 -0.8110  0.2384
23738SOL    HW273468   2.158   4.469   1.345 -0.3071 -0.8278 -1.2031
23739SOL     OW73469   1.781   3.632   1.026 -0.0066  0.2504 -0.1154
23739SOL    HW173470   1.869   3.627   1.063 -0.4230  0.2191  0.9214
23739SOL    HW273471   1.766   3.546   0.988 -0.1241 -0.2451  1.0080
23740SOL     OW73472   8.998   3.339   4.613 -0.2706 -0.3400 -0.1228
23740SOL    HW173473   8.945   3.386   4.678 -0.0443  0.1361 -0.2772
23740SOL    HW273474   8.977   3.247   4.628  0.5989 -0.3321  1.3543
23741SOL     OW73475   2.230   5.121   3.146  0.2054 -0.4969  0.3804
23741SOL    HW173476   2.174   5.048   3.172 -2.7125  1.2632 -0.5439
23741SOL    HW273477   2.274   5.147   3.226 -0.8079 -1.5537  1.3186
23742SOL     OW73478   0.983   5.473   3.099 -0.1401 -0.8275 -0.7019
23742SOL    HW173479   0.985   5.413   3.173 -1.0412 -0.8916 -0.7069
23742SOL    HW273480   0.972   5.416   3.023  1.2408 -0.7916 -0.9411
23743SOL     OW73481   3.248   0.977   2.584 -0.3240 -0.2154  0.3457
23743SOL    HW173482   3.238   1.039   2.512 -1.9932  0.5077  1.1720
23743SOL    HW273483   3.335   0.997   2.620  0.1111  0.0795 -0.8039
23744SOL     OW73484   9.206  10.540   4.803  0.2710 -0.3153  0.0859
23744SOL    HW173485   9.286  10.542   4.857 -0.1145 -1.0780  0.7204
23744SOL    HW273486   9.222  10.469   4.741  0.7612  0.6375 -0.9073
23745SOL     OW73487   0.378   3.352   3.329 -0.7601 -0.5007 -0.4379
23745SOL    HW173488   0.398   3.351   3.235 -2.3742  1.4550 -0.8741
23745SOL    HW273489   0.308   3.287   3.339 -0.2877 -1.0282 -0.4821
23746SOL     OW73490   0.481   8.139   7.731 -0.6441  0.1358 -0.0485
23746SOL    HW173491   0.551   8.123   7.795 -0.1962 -2.1204 -1.0100
23746SOL    HW273492   0.508   8.219   7.686 -1.6177  2.5846  3.3381
23747SOL     OW73493   1.724   9.263   8.346 -0.0490  0.1131  0.0478
23747SOL    HW173494   1.687   9.242   8.432 -0.0760 -1.7253 -0.3559
23747SOL    HW273495   1.819   9.253   8.358 -0.0903 -0.7351 -0.2537
23748SOL     OW73496  10.151   5.146   1.199 -0.3870  0.1929  0.2935
23748SOL    HW173497  10.155   5.127   1.105  0.6254  0.3118  0.3031
23748SOL    HW273498  10.152   5.060   1.241  2.3166  0.1167  0.2733
23749SOL     OW73499   7.125   5.254   0.394 -0.6545 -0.2626  0.1012
23749SOL    HW173500   7.057   5.208   0.343 -0.8441 -1.0079  1.0085
23749SOL    HW273501   7.207   5.222   0.359 -0.7397  0.6027 -0.9688
23750SOL     OW73502   3.970   2.256  10.545 -0.1808 -0.3661  0.4538
23750SOL    HW173503   3.940   2.285  10.459 -0.3577  0.6662  0.8376
23750SOL    HW273504   4.064   2.237  10.533  0.1258  1.0980  0.3198
23751SOL     OW73505   1.033   8.226   7.751 -0.1745 -0.0440 -0.5303
23751SOL    HW173506   1.044   8.163   7.822  1.6184  0.2796 -0.4547
23751SOL    HW273507   1.030   8.171   7.672 -1.4507 -0.3590 -0.2854
23752SOL     OW73508   5.873   0.122   9.825 -0.4294  0.3500 -0.0121
23752SOL    HW173509   5.969   0.123   9.826 -0.4079  1.4422 -0.6056
23752SOL    HW273510   5.851   0.124   9.732 -1.0775 -2.1953  0.0191
23753SOL     OW73511  10.606   5.298   4.710 -0.3474  0.1612 -0.2869
23753SOL    HW173512  10.516   5.268   4.699 -0.8166  1.2778  0.3530
23753SOL    HW273513  10.607   5.385   4.671  0.4212  0.2230 -0.1420
23754SOL     OW73514   3.935   3.426   7.662 -0.2152  0.0047 -0.0787
23754SOL    HW173515   3.933   3.354   7.598 -0.8579  1.5101 -1.8552
23754SOL    HW273516   3.848   3.424   7.702 -0.3738  0.0210 -0.4112
23755SOL     OW73517   6.482   8.978   1.831  0.1835 -0.1854 -0.0522
23755SOL    HW173518   6.557   8.949   1.779  0.4199  0.4812 -0.0909
23755SOL    HW273519   6.427   9.026   1.769  0.9278  1.4327  0.4848
23756SOL     OW73520   7.334   1.821   8.870  0.4291  0.3989 -0.0391
23756SOL    HW173521   7.240   1.828   8.852  0.3238  0.6321  0.5605
23756SOL    HW273522   7.370   1.904   8.838 -0.1214  1.8981  2.8791
23757SOL     OW73523   9.126   6.883   0.090 -0.8726 -0.2351  0.3010
23757SOL    HW173524   9.051   6.927   0.128  1.1718  2.5485  1.4491
23757SOL    HW273525   9.183   6.863   0.165 -0.4580 -2.4176 -0.5040
23758SOL     OW73526   8.334   9.932   3.404 -0.2761 -0.2457  0.0471
23758SOL    HW173527   8.280   9.999   3.447  0.8485 -0.1785  1.4379
23758SOL    HW273528   8.285   9.851   3.414 -0.3227 -0.1156  0.9446
23759SOL     OW73529   1.640   9.929   3.680  0.7807  0.0686  0.1021
23759SOL    HW173530   1.659   9.989   3.753  0.0927  0.1663  0.2101
23759SOL    HW273531   1.573   9.870   3.715 -0.2780  0.7241 -0.7512
23760SOL     OW73532   2.639  10.224   3.437  0.4266 -0.5728  0.1828
23760SOL    HW173533   2.699  10.284   3.392 -0.8409  0.8610  0.3276
23760SOL    HW273534   2.620  10.156   3.372  0.8303 -0.0734 -0.4693
23761SOL     OW73535   7.873   2.419   5.585 -0.6334 -0.4887 -0.0267
23761SOL    HW173536   7.963   2.403   5.556 -1.2156 -0.7438 -1.8409
23761SOL    HW273537   7.882   2.451   5.675  1.2713 -0.3371 -0.2280
23762SOL     OW73538   5.344   6.532   4.539 -0.0017  0.2021 -0.1044
23762SOL    HW173539   5.405   6.571   4.602  1.0954 -2.6248  0.7240
23762SOL    HW273540   5.400   6.489   4.474 -0.9331 -2.9797  0.9949
23763SOL     OW73541  10.269   4.644   6.769 -0.0621 -0.4056 -0.0370
23763SOL    HW173542  10.315   4.726   6.751 -0.3653 -0.2385 -0.0535
23763SOL    HW273543  10.271   4.597   6.686 -0.5269 -0.0968 -0.2273
23764SOL     OW73544   1.350   7.304  10.026 -0.5421  0.2927 -0.3154
23764SOL    HW173545   1.417   7.296  10.093 -1.0997 -0.3411  0.1742
23764SOL    HW273546   1.327   7.397  10.026  1.2022  0.7655 -1.3578
23765SOL     OW73547   2.885   2.596   0.642 -0.0553  0.4008 -0.1386
23765SOL    HW173548   2.919   2.592   0.553  1.3680  0.0204  0.4006
23765SOL    HW273549   2.855   2.686   0.652 -3.0182 -0.2539 -1.9436
23766SOL     OW73550   9.472   1.899   2.073 -0.4823  0.5175 -0.1090
23766SOL    HW173551   9.541   1.945   2.025 -0.2480 -2.4773 -2.9891
23766SOL    HW273552   9.394   1.953   2.060  0.1791  1.1785 -1.5809
23767SOL     OW73553   5.307   9.714   8.025 -0.0154  0.1371  0.6235
23767SOL    HW173554   5.273   9.673   7.946  1.5351  0.9831 -0.5394
23767SOL    HW273555   5.229   9.746   8.071 -0.9291  0.1038 -0.8285
23768SOL     OW73556   7.956  10.013   1.432 -0.2433  0.3988  0.1236
23768SOL    HW173557   8.051  10.020   1.431 -0.1122 -0.8358  1.1268
23768SOL    HW273558   7.935   9.986   1.522 -1.5355  0.6059 -0.0970
23769SOL     OW73559   6.128   1.025   7.391 -0.5514 -0.2260 -0.2244
23769SOL    HW173560   6.056   1.026   7.327 -0.1044  1.6631 -0.7711
23769SOL    HW273561   6.165   1.113   7.386  1.1781 -0.8519  0.7755
23770SOL     OW73562   4.524   9.696   6.498  0.3712  0.4637  0.0581
23770SOL    HW173563   4.486   9.783   6.485 -0.2213  0.1292 -0.5258
23770SOL    HW273564   4.487   9.665   6.580  1.4087  1.1794  0.8182
23771SOL     OW73565   2.398   7.193   3.972 -0.1526 -0.5523 -0.1955
23771SOL    HW173566   2.405   7.115   4.027  1.0254  1.0797  2.1397
23771SOL    HW273567   2.314   7.233   3.995 -1.2773 -1.5914 -2.1813
23772SOL     OW73568   9.599   0.659   2.585  0.3052 -0.7324  0.2033
23772SOL    HW173569   9.625   0.748   2.606 -0.8060 -0.4301  0.3225
23772SOL    HW273570   9.670   0.605   2.621 -0.5928 -0.1358  3.1306
23773SOL     OW73571   9.005   4.952   4.311 -0.2214  0.3575  0.1600
23773SOL    HW173572   8.914   4.970   4.286 -0.1811  0.6570  0.2219
23773SOL    HW273573   9.052   5.032   4.288  0.0095  0.2397  0.2190
23774SOL     OW73574   9.010   5.661  10.191 -0.5180 -0.1176  0.0766
23774SOL    HW173575   9.104   5.648  10.207 -0.0989  0.4753 -1.7008
23774SOL    HW273576   8.975   5.572  10.186 -0.2678 -0.3461  1.7270
23775SOL     OW73577   7.318   8.994   4.451  0.4886  0.0515  0.7262
23775SOL    HW173578   7.362   8.935   4.513 -1.1367  0.3271  2.2299
23775SOL    HW273579   7.308   9.076   4.500 -0.1735  0.5146 -0.1712
23776SOL     OW73580   6.833   8.035   6.078 -0.6464 -0.1492  0.1334
23776SOL    HW173581   6.792   8.102   6.024 -0.4687  0.1522  0.3699
23776SOL    HW273582   6.765   7.970   6.092 -1.6380  1.2292  2.0751
23777SOL     OW73583   4.775   1.668   2.293 -0.1177 -0.5391  0.2093
23777SOL    HW173584   4.812   1.752   2.268  0.2160 -1.0761 -1.1862
23777SOL    HW273585   4.727   1.638   2.216  2.0411 -2.8761 -0.3902
23778SOL     OW73586   1.964   0.386   5.559 -0.2146 -0.5227 -0.4888
23778SOL    HW173587   1.895   0.412   5.498 -0.3194 -0.3387 -0.2969
23778SOL    HW273588   2.018   0.325   5.510 -0.4385 -0.5664 -0.6858
23779SOL     OW73589   3.767  10.443   4.784  0.2544 -0.1560  0.5484
23779SOL    HW173590   3.741  10.479   4.699 -1.0130 -1.5721  0.2983
23779SOL    HW273591   3.863  10.441   4.781  0.2517 -2.3933 -1.8579
23780SOL     OW73592   1.695   7.077   2.890 -0.1408  0.3293  0.2535
23780SOL    HW173593   1.626   7.104   2.829 -0.3395  1.9216  1.1183
23780SOL    HW273594   1.660   7.099   2.976  0.7375 -0.5086  0.8404
23781SOL     OW73595   5.400   9.761   0.786 -0.3720  0.6006 -0.0090
23781SOL    HW173596   5.454   9.760   0.865 -1.4005  0.3493  0.7108
23781SOL    HW273597   5.453   9.809   0.722  2.0846 -2.2519 -0.3519
23782SOL     OW73598   1.789   0.630   2.166 -0.2675 -0.2528 -0.5139
23782SOL    HW173599   1.752   0.611   2.252  2.6352 -1.7602  0.5156
23782SOL    HW273600   1.865   0.572   2.158  1.7327  2.3423 -2.5322
23783SOL     OW73601   3.303   0.218   4.663 -0.4525  0.3838 -0.1812
23783SOL    HW173602   3.326   0.197   4.753  2.0896  2.0970 -0.3303
23783SOL    HW273603   3.387   0.222   4.617 -1.6128  0.3830 -2.4562
23784SOL     OW73604   3.464   8.748   6.836 -0.2425  0.1475  0.2891
23784SOL    HW173605   3.467   8.767   6.742  1.4559  0.8552  0.4411
23784SOL    HW273606   3.475   8.834   6.878 -1.3807 -0.1100  1.1589
23785SOL     OW73607   5.962   1.181   6.690 -0.2021 -0.4034  0.1828
23785SOL    HW173608   5.892   1.239   6.719 -1.3905 -0.3830 -2.5012
23785SOL    HW273609   5.923   1.095   6.687 -0.1922 -0.3753 -1.4562
23786SOL     OW73610  10.594   4.401   9.975 -0.1805 -0.1548  0.6595
23786SOL    HW173611  10.647   4.364  10.046 -0.1671 -1.2124  0.1203
23786SOL    HW273612  10.543   4.327   9.942  0.3317  0.1495 -0.8851
23787SOL     OW73613   3.196   9.055   9.962 -0.1038  0.0528 -0.0356
23787SOL    HW173614   3.281   9.012   9.972 -0.5954 -0.7717  0.8697
23787SOL    HW273615   3.156   9.012   9.887  0.4366  0.7574 -0.7509
23788SOL     OW73616   8.054   5.492   3.661 -0.0267 -0.0035 -0.0313
23788SOL    HW173617   8.015   5.484   3.574 -0.6345 -0.0212  0.2430
23788SOL    HW273618   8.001   5.558   3.705  2.0838  2.3198 -0.6911
23789SOL     OW73619   9.924   5.623   3.738 -0.2568  0.9847  0.3871
23789SOL    HW173620   9.933   5.548   3.679 -1.2959 -0.7042  2.2817
23789SOL    HW273621   9.831   5.641   3.739  0.0508  2.9944 -0.7530
23790SOL     OW73622   8.902   7.419   5.781 -0.4259  0.7229  0.1584
23790SOL    HW173623   8.866   7.436   5.868 -2.9864 -1.3611 -0.3785
23790SOL    HW273624   8.897   7.504   5.736  2.2230  2.2052  2.3140
23791SOL     OW73625   4.628   4.537   4.628 -0.6423 -0.0507 -0.3079
23791SOL    HW173626   4.611   4.471   4.696  0.2481 -0.5916 -0.5902
23791SOL    HW273627   4.722   4.553   4.634 -0.7610  0.7856 -0.6226
23792SOL     OW73628   0.160   5.354   6.180  0.1364  0.4286  0.5320
23792SOL    HW173629   0.252   5.376   6.164 -0.0318  0.3899 -0.5395
23792SOL    HW273630   0.115   5.378   6.099 -0.7810  0.3114  0.9939
23793SOL     OW73631   2.547   8.947   7.988 -0.7721 -0.0618  0.0838
23793SOL    HW173632   2.581   8.929   8.076 -2.3713  1.9097  1.1942
23793SOL    HW273633   2.472   9.005   8.003 -2.8675 -1.9132 -2.4100
23794SOL     OW73634   8.613   3.757   1.794 -0.2774  0.1172  0.6469
23794SOL    HW173635   8.556   3.728   1.722 -0.1066 -0.3675  0.7026
23794SOL    HW273636   8.678   3.813   1.752 -0.8146  0.7141  0.5889
23795SOL     OW73637   9.025   6.445   3.879 -0.8430 -0.2115 -0.3883
23795SOL    HW173638   8.962   6.390   3.927  0.7644 -0.1340  1.9729
23795SOL    HW273639   9.045   6.516   3.940  0.9169  0.2048 -1.4063
23796SOL     OW73640  10.540   3.247   3.360  0.0236  0.5306  0.4471
23796SOL    HW173641  10.549   3.156   3.390  0.8332  0.4498 -0.0009
23796SOL    HW273642  10.553   3.299   3.439  1.9355  0.3171  0.3349
23797SOL     OW73643   7.143   7.704   8.820 -0.2548  0.1092  0.4342
23797SOL    HW173644   7.233   7.689   8.791  0.0049  0.5091  1.0197
23797SOL    HW273645   7.133   7.650   8.898 -1.4365 -2.1564 -1.1624
23798SOL     OW73646   0.915   8.638   3.658 -0.2572  0.0583  0.3647
23798SOL    HW173647   0.946   8.717   3.702 -1.5387  0.2167  1.0252
23798SOL    HW273648   0.963   8.636   3.575 -0.2332  1.5489  0.3163
23799SOL     OW73649   6.472   2.310   9.675 -0.2604 -0.3733 -0.1298
23799SOL    HW173650   6.508   2.261   9.749 -0.7409 -0.9772 -0.2825
23799SOL    HW273651   6.546   2.361   9.641 -0.1981  0.4377  1.1712
23800SOL     OW73652   1.478   1.078   2.219 -0.5450 -0.2553 -0.0063
23800SOL    HW173653   1.517   1.021   2.152 -0.6993  0.5273 -0.7715
23800SOL    HW273654   1.413   1.023   2.262  1.3079 -1.5808  1.2552
23801SOL     OW73655   8.374   7.666   1.981 -0.5020  0.2115  0.0350
23801SOL    HW173656   8.296   7.718   1.963 -2.4718 -2.0714  1.4186
23801SOL    HW273657   8.388   7.614   1.901 -1.0958 -0.1741  0.1764
23802SOL     OW73658   4.065   7.672   5.620 -0.5043  0.2128 -0.5095
23802SOL    HW173659   4.043   7.579   5.612  0.4831 -0.0238 -0.6437
23802SOL    HW273660   4.003   7.716   5.563 -0.6003 -0.4263 -0.9104
23803SOL     OW73661   5.758   5.039   1.736  0.6464  0.1742  0.5447
23803SOL    HW173662   5.740   5.125   1.772 -0.8797 -0.1163  0.5614
23803SOL    HW273663   5.682   4.986   1.762  1.7520 -1.2909  0.9131
23804SOL     OW73664   8.640   6.695   5.749 -0.5252 -0.4061 -0.5425
23804SOL    HW173665   8.717   6.749   5.762 -0.9466  0.4457 -1.4617
23804SOL    HW273666   8.615   6.710   5.658 -2.4744  0.3066  0.0461
23805SOL     OW73667   0.488   9.576   1.132  0.4572  0.2397  0.4433
23805SOL    HW173668   0.419   9.598   1.194 -0.3441 -2.4536  0.6612
23805SOL    HW273669   0.446   9.519   1.068  2.1508 -0.3773 -0.1900
23806SOL     OW73670   6.471   0.727   9.575  0.4017  0.1651  0.3098
23806SOL    HW173671   6.462   0.795   9.508  2.3805  0.1819  0.0114
23806SOL    HW273672   6.502   0.650   9.527 -0.8447 -0.6878  0.8089
23807SOL     OW73673   2.120   9.871   8.280 -0.0439  0.2346 -0.5541
23807SOL    HW173674   2.062   9.947   8.286 -1.0124 -0.4805 -0.6966
23807SOL    HW273675   2.184   9.884   8.350 -0.0899  1.2569 -0.6796
23808SOL     OW73676   0.593   0.881   9.951 -0.1792 -0.1854  0.3309
23808SOL    HW173677   0.574   0.960  10.002  1.7047 -0.1179  1.0305
23808SOL    HW273678   0.679   0.852   9.983 -0.0349 -1.5302 -1.1354
23809SOL     OW73679  10.212   1.876   3.714  0.2627  0.1778 -0.1839
23809SOL    HW173680  10.217   1.870   3.810  3.5426 -2.4196 -0.3221
23809SOL    HW273681  10.150   1.807   3.689 -0.2722  0.5753  0.0316
23810SOL     OW73682   7.348   5.220   2.855 -0.5376  0.0168 -0.2716
23810SOL    HW173683   7.397   5.301   2.847 -2.8495  1.5173 -0.1964
23810SOL    HW273684   7.355   5.196   2.947  0.7424 -0.2744 -0.4378
23811SOL     OW73685   9.624   1.884   0.827 -0.0630 -0.4808 -0.1678
23811SOL    HW173686   9.536   1.919   0.839  0.1870  0.4202 -0.8328
23811SOL    HW273687   9.654   1.863   0.915 -1.1752 -1.4015  0.0063
23812SOL     OW73688   0.390   8.959   4.881  0.1601 -0.4036 -0.3594
23812SOL    HW173689   0.379   8.865   4.890  2.1997 -0.4863  3.6261
23812SOL    HW273690   0.483   8.971   4.862  0.2934  0.7830  0.8567
23813SOL     OW73691   0.667   1.983   4.242  0.0874 -0.0364  0.2160
23813SOL    HW173692   0.732   1.923   4.279 -0.9019 -0.8980  0.6129
23813SOL    HW273693   0.673   2.061   4.297  1.9159  0.5601 -0.7738
23814SOL     OW73694   9.216   7.529   1.889  0.3981  0.1143 -0.1112
23814SOL    HW173695   9.294   7.507   1.839  0.2961  2.3745 -1.3736
23814SOL    HW273696   9.198   7.621   1.868 -2.6335 -0.3219  0.1005
23815SOL     OW73697   2.946   4.769  10.382 -0.4062 -0.5323  0.8555
23815SOL    HW173698   2.922   4.706  10.449  0.3490 -1.6487  0.1050
23815SOL    HW273699   2.914   4.731  10.300  0.2176 -0.0275  0.3677
23816SOL     OW73700   0.503   6.003   4.434 -0.7054 -0.0982 -0.0616
23816SOL    HW173701   0.434   5.977   4.372 -1.1165 -0.1707  0.4182
23816SOL    HW273702   0.488   6.096   4.449  0.2106  0.2410 -1.0772
23817SOL     OW73703   2.798   4.267   1.692 -0.0152 -0.3304  0.6916
23817SOL    HW173704   2.860   4.199   1.667 -0.0726  0.1738 -0.9466
23817SOL    HW273705   2.794   4.326   1.617 -0.8812  0.8314  1.5862
23818SOL     OW73706   1.753   8.056   6.508 -0.2458  0.3182  0.1747
23818SOL    HW173707   1.823   8.096   6.559 -0.3514  2.0690 -0.9717
23818SOL    HW273708   1.772   7.962   6.509  2.3000  0.7711 -0.3496
23819SOL     OW73709   5.782   2.157   2.378 -0.2249 -0.0704  0.5863
23819SOL    HW173710   5.782   2.246   2.412 -0.9327  0.0581  0.2700
23819SOL    HW273711   5.719   2.110   2.433 -1.8224  0.2840 -0.8708
23820SOL     OW73712   4.634   3.678   9.144 -0.0859 -0.5679 -0.4022
23820SOL    HW173713   4.700   3.724   9.091  1.6123 -1.9094  0.4320
23820SOL    HW273714   4.634   3.724   9.228 -0.7721 -0.1325 -0.6300
23821SOL     OW73715   1.286  10.039   6.191 -0.5870  0.4061  0.1712
23821SOL    HW173716   1.243  10.034   6.276 -0.3834 -2.4407  0.2070
23821SOL    HW273717   1.378  10.056   6.212 -0.4786 -0.6103  0.5821
23822SOL     OW73718   6.113   5.262   0.081  0.5762  0.2207 -0.2918
23822SOL    HW173719   6.183   5.199   0.062  0.2274 -0.5739  0.9745
23822SOL    HW273720   6.146   5.345   0.045  0.6249 -0.8286 -2.9057
23823SOL     OW73721   0.778   2.371  10.548  0.0764 -0.5131  0.3104
23823SOL    HW173722   0.865   2.403  10.571 -0.3049  0.3727  0.5740
23823SOL    HW273723   0.774   2.283  10.586  1.0637 -0.8125 -0.2328
23824SOL     OW73724   8.965   0.490   0.433  0.1317  0.8882  0.2967
23824SOL    HW173725   8.878   0.503   0.393  1.1096 -0.0504 -2.3921
23824SOL    HW273726   9.026   0.522   0.367  1.8823  0.8103  1.8142
23825SOL     OW73727   1.065   0.900   7.416 -0.3498  0.1042 -0.4698
23825SOL    HW173728   1.063   0.805   7.428  1.7820 -0.3009 -2.6620
23825SOL    HW273729   0.976   0.928   7.436 -1.3614 -2.5028 -0.8794
23826SOL     OW73730   0.755   1.863  10.635  0.1312 -0.9859  0.3473
23826SOL    HW173731   0.763   1.807  10.558 -0.3903  0.0828 -0.5026
23826SOL    HW273732   0.695   1.933  10.609 -0.3198 -0.7669  1.8227
23827SOL     OW73733   1.446   6.806   2.349 -0.0020 -0.1940  0.3009
23827SOL    HW173734   1.537   6.779   2.353  0.5613  1.5547  0.0438
23827SOL    HW273735   1.407   6.750   2.282  0.7571 -1.2403  0.7113
23828SOL     OW73736   6.573   2.087   3.732  0.3238  0.1192 -0.1542
23828SOL    HW173737   6.620   2.034   3.797 -0.7750  0.4161  0.9106
23828SOL    HW273738   6.516   2.025   3.687 -0.2071  0.2110  0.3853
23829SOL     OW73739   3.914   4.009   9.844  0.1448 -0.2888  0.2827
23829SOL    HW173740   4.008   3.996   9.834  0.3188  1.7132 -1.5154
23829SOL    HW273741   3.905   4.096   9.884 -0.9635 -0.9030  1.4681
23830SOL     OW73742  10.084   4.212   4.470 -0.1522  0.3220 -0.4274
23830SOL    HW173743  10.078   4.268   4.547  1.9544 -1.7391  1.3589
23830SOL    HW273744  10.171   4.228   4.435 -0.1969 -0.5364 -0.9609
23831SOL     OW73745   4.131   7.255   9.154 -0.4060  0.0093 -0.5654
23831SOL    HW173746   4.082   7.173   9.142 -2.1569  0.5302  2.1815
23831SOL    HW273747   4.065   7.319   9.181  1.2557  1.7920 -0.5321
23832SOL     OW73748   8.247   4.456   7.288 -0.4351  0.4267  0.0392
23832SOL    HW173749   8.190   4.409   7.349 -1.2116 -1.4573 -1.9924
23832SOL    HW273750   8.311   4.391   7.259 -0.0854  1.2579 -1.1462
23833SOL     OW73751   4.255   2.938   0.511 -0.0472  0.1293 -0.9667
23833SOL    HW173752   4.272   2.998   0.438 -0.6026 -0.0374 -1.2325
23833SOL    HW273753   4.166   2.959   0.539 -0.2789 -0.6334 -1.1185
23834SOL     OW73754   4.557   3.045   5.745 -0.4175  0.0279 -0.6329
23834SOL    HW173755   4.575   3.137   5.764  0.4986 -0.1526 -0.5809
23834SOL    HW273756   4.619   2.996   5.800  1.1579 -0.5429 -2.7396
23835SOL     OW73757   9.611   2.857   9.710  0.2422  0.4921  0.1505
23835SOL    HW173758   9.677   2.892   9.650  0.8350  2.2496  1.7341
23835SOL    HW273759   9.660   2.799   9.769 -0.2202 -0.7025 -0.6005
23836SOL     OW73760   4.440   8.908   7.279  0.5533 -0.2998  0.1495
23836SOL    HW173761   4.459   8.830   7.227  2.0504  0.5817 -0.6846
23836SOL    HW273762   4.388   8.964   7.221  0.3431 -0.2402  0.3930
23837SOL     OW73763   6.167   0.908   8.476  0.2135 -0.2656 -0.1331
23837SOL    HW173764   6.075   0.934   8.466  1.0851  3.2837 -0.1252
23837SOL    HW273765   6.184   0.917   8.570  1.0783  1.2369 -0.4119
23838SOL     OW73766   0.482   6.234   3.124 -0.6373  0.3484 -0.1299
23838SOL    HW173767   0.505   6.307   3.181  0.2845  0.0778 -0.1467
23838SOL    HW273768   0.433   6.174   3.180 -1.0976  0.8103 -0.0304
23839SOL     OW73769   1.955   9.486   6.751 -0.2258  0.5619  0.0928
23839SOL    HW173770   1.971   9.550   6.820  2.1996  0.2333 -0.0985
23839SOL    HW273771   1.934   9.538   6.674  0.1649  1.0612  0.3234
23840SOL     OW73772   1.258  10.508   3.176 -0.8098  0.5104  0.0405
23840SOL    HW173773   1.172  10.471   3.194 -0.2762 -0.4117  0.7568
23840SOL    HW273774   1.305  10.439   3.129  0.3912  0.0137  1.8914
23841SOL     OW73775  10.472   8.623   4.632  0.4963  0.2642 -0.0067
23841SOL    HW173776  10.490   8.674   4.553 -1.2157 -1.0433 -1.3050
23841SOL    HW273777  10.542   8.649   4.693  2.4438  0.6192 -2.2495
23842SOL     OW73778   5.607   2.224  10.556  0.1676 -0.4815 -0.6859
23842SOL    HW173779   5.649   2.190  10.635 -0.4475 -0.9949 -0.5716
23842SOL    HW273780   5.590   2.316  10.576  0.6410 -0.4317 -0.4893
23843SOL     OW73781   5.532   2.386   2.944  0.1109 -0.5919 -0.4107
23843SOL    HW173782   5.486   2.422   2.868 -0.7568 -0.7517  0.0359
23843SOL    HW273783   5.534   2.292   2.929 -0.1826 -0.6376 -0.1745
23844SOL     OW73784   5.617   2.072   7.652  0.1955  0.5616 -0.4621
23844SOL    HW173785   5.558   2.068   7.577  2.5022 -1.4034 -2.3424
23844SOL    HW273786   5.677   1.998   7.639  2.7131  2.0794  1.6000
23845SOL     OW73787   2.383   6.670   1.729  0.2919  0.0516 -0.4123
23845SOL    HW173788   2.417   6.583   1.707  0.2316 -0.0061 -0.2776
23845SOL    HW273789   2.456   6.714   1.772  0.7495  0.5324 -1.6395
23846SOL     OW73790   1.567   0.585   8.333 -0.7235  0.1956  0.0702
23846SOL    HW173791   1.486   0.572   8.282 -0.6615  1.2390 -0.3265
23846SOL    HW273792   1.601   0.669   8.302  0.7579 -0.4311 -0.0866
23847SOL     OW73793   5.103  10.636   3.373 -0.4859 -0.4268 -0.2744
23847SOL    HW173794   5.173  10.592   3.324 -1.1113 -2.1520  0.3005
23847SOL    HW273795   5.149  10.701   3.427  0.7749 -1.8768  0.4910
23848SOL     OW73796   8.645  10.617   0.084 -0.3024  0.0286  0.4602
23848SOL    HW173797   8.627  10.655  -0.002 -0.1925  1.0066  0.8474
23848SOL    HW273798   8.559  10.588   0.116 -0.8753  2.3129  1.2086
23849SOL     OW73799   8.360   8.144   6.749 -0.0887 -0.2081 -0.0398
23849SOL    HW173800   8.327   8.130   6.660 -2.0696  0.7727  0.4847
23849SOL    HW273801   8.416   8.221   6.743 -0.6838  0.2054 -0.3446
23850SOL     OW73802   8.041   2.621   2.253 -0.3647 -0.3523 -0.1569
23850SOL    HW173803   7.990   2.560   2.306 -2.4696  1.2094 -0.2759
23850SOL    HW273804   8.004   2.612   2.165  0.8757 -0.5509 -0.6741
23851SOL     OW73805   7.406   1.601   7.220  0.4148 -0.0535 -0.2607
23851SOL    HW173806   7.480   1.659   7.237 -0.1196  0.9718 -1.2859
23851SOL    HW273807   7.421   1.568   7.132 -0.0261 -0.3596 -0.2253
23852SOL     OW73808   2.820   5.878   9.043  0.0770  0.1024 -0.3428
23852SOL    HW173809   2.881   5.811   9.072 -0.7083 -0.4030  0.1723
23852SOL    HW273810   2.842   5.892   8.951  1.7274  0.7719  0.1140
23853SOL     OW73811   5.409   9.970   2.149  0.1040  0.4815 -0.4069
23853SOL    HW173812   5.457   9.904   2.199 -0.5516 -0.7627 -1.3205
23853SOL    HW273813   5.317   9.951   2.168 -0.0848  1.2968 -0.4986
23854SOL     OW73814   3.842   2.417   1.342 -0.3959  0.1346  0.2496
23854SOL    HW173815   3.823   2.356   1.413  0.4452 -0.2659  0.1373
23854SOL    HW273816   3.808   2.501   1.374 -1.1207 -0.2816  0.6059
23855SOL     OW73817   1.601   8.704   1.084  0.0058  0.4856 -0.4625
23855SOL    HW173818   1.675   8.731   1.029 -1.4960  2.5230 -1.6373
23855SOL    HW273819   1.575   8.618   1.049 -0.8128  1.6597 -2.9942
23856SOL     OW73820  10.408   5.431   0.774  0.5986 -0.3812  0.2456
23856SOL    HW173821  10.460   5.404   0.850  0.6581 -0.3760  0.2077
23856SOL    HW273822  10.345   5.360   0.761  2.1051 -1.5747 -1.1360
23857SOL     OW73823   9.601   7.800   5.240  0.3375 -0.0280 -0.6470
23857SOL    HW173824   9.647   7.775   5.320 -0.5128  0.4517  0.0119
23857SOL    HW273825   9.587   7.894   5.250  0.8202  0.1591 -1.6804
23858SOL     OW73826   5.750   3.180   0.202 -0.4554 -0.0780  0.0206
23858SOL    HW173827   5.776   3.087   0.204  2.1452  0.5389 -0.6511
23858SOL    HW273828   5.722   3.195   0.112 -1.4671 -0.3282  0.2843
23859SOL     OW73829   3.611   6.685   8.172 -0.2978 -0.1144 -0.2173
23859SOL    HW173830   3.694   6.715   8.135 -0.5097 -0.8618 -1.3658
23859SOL    HW273831   3.625   6.592   8.191 -0.5005  0.0355  0.7238
23860SOL     OW73832   8.038   8.279   4.939  0.1812  0.1970  0.0854
23860SOL    HW173833   7.985   8.330   4.879 -1.3008 -1.6149 -0.2378
23860SOL    HW273834   7.996   8.291   5.024 -1.1013 -1.6107 -0.2512
23861SOL     OW73835   6.560   4.400   2.193  0.0014  0.0402 -0.3833
23861SOL    HW173836   6.552   4.306   2.179  2.8889 -0.2085 -0.9510
23861SOL    HW273837   6.627   4.409   2.261  0.2756  1.6645 -0.8116
23862SOL     OW73838   6.390   8.924   6.597  0.1989  0.0557 -0.6656
23862SOL    HW173839   6.374   8.960   6.510  1.3960  0.9899 -0.5361
23862SOL    HW273840   6.442   8.992   6.641  1.2409 -1.2125  0.1281
23863SOL     OW73841   7.696   5.201   7.391 -0.5559  0.3955  0.4933
23863SOL    HW173842   7.679   5.117   7.433  0.9270 -0.2377 -0.1058
23863SOL    HW273843   7.680   5.185   7.298  1.2223  0.2986  0.1648
23864SOL     OW73844   7.438   9.599   6.199 -0.1932  0.0284 -0.2595
23864SOL    HW173845   7.415   9.585   6.291  0.4195  1.1717  0.0852
23864SOL    HW273846   7.481   9.684   6.198  0.0178 -0.0773 -1.5783
23865SOL     OW73847   4.567   6.809   5.951  0.5520  0.1880 -0.1752
23865SOL    HW173848   4.500   6.760   5.903  0.5406  0.2974 -0.2714
23865SOL    HW273849   4.644   6.751   5.950  0.4710  0.0773 -0.0942
23866SOL     OW73850   3.372   8.321   0.382 -0.1985 -0.6294 -0.1121
23866SOL    HW173851   3.392   8.229   0.398  1.0637 -0.1818  1.0210
23866SOL    HW273852   3.421   8.344   0.303  1.6259 -0.2861  1.0616
23867SOL     OW73853   8.978   2.264   9.196 -0.1390 -0.4006  0.1589
23867SOL    HW173854   8.953   2.324   9.127  2.0668  0.4611  0.0287
23867SOL    HW273855   8.978   2.178   9.154 -1.0399 -0.2041 -0.2690
23868SOL     OW73856  10.030   5.273  10.468  0.3680 -0.0058 -0.1438
23868SOL    HW173857  10.054   5.199  10.413  1.0186 -0.2462  0.4577
23868SOL    HW273858  10.109   5.294  10.517  0.3920  1.5005 -0.7582
23869SOL     OW73859   6.132   5.083   0.444  0.4357 -0.1526 -0.1334
23869SOL    HW173860   6.061   5.022   0.427  0.9000 -0.7113 -0.1017
23869SOL    HW273861   6.093   5.170   0.432  0.4185 -0.4615 -2.7839
23870SOL     OW73862   9.430   2.953   1.417 -0.5648  0.3423  0.1963
23870SOL    HW173863   9.452   2.863   1.439 -1.5450 -0.0060 -0.1728
23870SOL    HW273864   9.429   2.954   1.321  0.1770  0.9436  0.1829
23871SOL     OW73865   7.827   5.762   3.166 -0.2933  0.6705 -0.0330
23871SOL    HW173866   7.807   5.669   3.165 -1.3495  0.8906 -0.0558
23871SOL    HW273867   7.910   5.769   3.119  0.8910 -0.4904  1.7463
23872SOL     OW73868  10.182   4.237   1.996 -0.3426  0.2504  0.4255
23872SOL    HW173869  10.219   4.212   2.080 -0.5914 -2.1178 -0.1044
23872SOL    HW273870  10.242   4.200   1.931 -0.6782  1.1817 -0.4601
23873SOL     OW73871   2.390   7.810   5.406 -0.2920 -0.0926 -0.3815
23873SOL    HW173872   2.476   7.827   5.368 -0.4646 -2.0228 -1.8257
23873SOL    HW273873   2.334   7.881   5.373  0.6007  0.8460  0.0945
23874SOL     OW73874   0.122   8.486  10.365 -0.9538  0.1447  0.6921
23874SOL    HW173875   0.215   8.505  10.349 -1.0738  0.1787 -0.0104
23874SOL    HW273876   0.122   8.434  10.446 -0.3580  0.4721  0.9125
23875SOL     OW73877   3.708   5.029   4.057  0.5753  0.3632  0.2192
23875SOL    HW173878   3.772   4.999   3.992 -2.4598 -1.8788 -2.0117
23875SOL    HW273879   3.693   4.953   4.113 -1.4310  0.1512 -0.5143
23876SOL     OW73880   2.651   4.330   9.611 -0.3011  0.4549 -0.1104
23876SOL    HW173881   2.601   4.301   9.535  1.8265  0.1611 -1.4795
23876SOL    HW273882   2.718   4.262   9.623 -0.5149  0.5375  1.9987
23877SOL     OW73883   0.496   5.182   7.869  0.3662  0.1202  0.0992
23877SOL    HW173884   0.579   5.217   7.835  1.3239 -1.0995  1.0654
23877SOL    HW273885   0.430   5.246   7.842  1.3089  0.1761 -2.3786
23878SOL     OW73886   0.378   1.487   0.588 -0.1502 -0.0356 -0.0470
23878SOL    HW173887   0.289   1.461   0.612  0.6797 -0.8019  2.5283
23878SOL    HW273888   0.380   1.582   0.602 -0.3879 -0.1085  0.4876
23879SOL     OW73889   9.842   1.371   4.733 -0.0851 -0.3596 -0.2732
23879SOL    HW173890   9.888   1.345   4.812 -0.6214 -1.4939 -0.3149
23879SOL    HW273891   9.864   1.304   4.669 -1.3368 -0.6252 -0.4571
23880SOL     OW73892   3.941   7.126   9.962 -1.0136  0.4269  0.3024
23880SOL    HW173893   4.005   7.163  10.024  0.7867 -0.8381 -0.7107
23880SOL    HW273894   3.868   7.099  10.017  0.1128  0.2458  1.7804
23881SOL     OW73895   9.149   7.322   6.623 -0.5887 -0.2604 -0.6086
23881SOL    HW173896   9.168   7.365   6.706 -1.0871 -0.6215 -0.2991
23881SOL    HW273897   9.054   7.311   6.623 -0.5996 -0.2235 -1.2490
23882SOL     OW73898  10.354   6.047   1.290  0.5395  0.1297 -0.4694
23882SOL    HW173899  10.351   5.992   1.211 -0.0720  1.2711 -1.2818
23882SOL    HW273900  10.374   6.134   1.256  0.9062  0.5133  0.7242
23883SOL     OW73901   0.448   0.058   9.501  0.1802  0.0194 -0.2927
23883SOL    HW173902   0.410   0.084   9.585 -0.3945  0.6687 -0.7441
23883SOL    HW273903   0.432   0.132   9.443  1.0724 -0.1919 -0.8313
23884SOL     OW73904   4.400   3.692   1.071  0.0233  0.3902  0.2188
23884SOL    HW173905   4.439   3.625   1.016 -0.0325  0.1319  0.4910
23884SOL    HW273906   4.340   3.739   1.013  0.0354  0.1809  0.0354
23885SOL     OW73907   7.351   6.171   7.323  0.6748 -0.5480 -0.4263
23885SOL    HW173908   7.403   6.090   7.333  0.9443 -0.1995  1.3206
23885SOL    HW273909   7.266   6.141   7.292  0.7657 -1.5173  0.2245
23886SOL     OW73910   4.504   2.516   7.540 -0.0413  0.2478 -0.1964
23886SOL    HW173911   4.448   2.535   7.615  0.3460  0.9929 -0.0792
23886SOL    HW273912   4.525   2.423   7.547  0.3025  0.3900  0.8379
23887SOL     OW73913   6.292   3.214   5.853 -0.0103 -0.2665  0.2781
23887SOL    HW173914   6.227   3.144   5.853 -0.9866  0.6242 -0.1543
23887SOL    HW273915   6.241   3.295   5.852  1.0941  0.4734  1.3621
23888SOL     OW73916   1.871   0.435   9.165  0.4274 -0.0465  0.7219
23888SOL    HW173917   1.869   0.384   9.084  0.8971 -0.0010  0.6775
23888SOL    HW273918   1.962   0.429   9.195  1.4431  3.5911 -1.0967
23889SOL     OW73919   9.101   4.362   8.664  0.1059 -0.5638  0.3943
23889SOL    HW173920   9.110   4.417   8.741 -1.1085 -0.1899  0.2954
23889SOL    HW273921   9.092   4.273   8.699  1.2424 -0.6171  0.5885
23890SOL     OW73922   0.516   2.956   8.993 -0.5044 -0.3409  0.7446
23890SOL    HW173923   0.472   2.880   8.957 -0.5119 -0.3751  0.8249
23890SOL    HW273924   0.513   2.942   9.088 -3.0541  1.1416  0.9775
23891SOL     OW73925   4.814   1.369   0.370  0.2426  0.0970  0.2516
23891SOL    HW173926   4.727   1.351   0.334 -0.1239 -0.8149  1.5269
23891SOL    HW273927   4.840   1.287   0.412  1.2717  0.6826  0.7916
23892SOL     OW73928   5.900   0.662   2.349 -0.4479  0.5449 -0.1393
23892SOL    HW173929   5.817   0.667   2.302 -1.1411 -1.0287  0.8246
23892SOL    HW273930   5.936   0.577   2.324  1.0355  1.3300 -0.7654
23893SOL     OW73931   4.619   0.622   2.125 -0.1374  0.2792  0.4885
23893SOL    HW173932   4.704   0.662   2.106  0.9680 -2.1395 -0.0458
23893SOL    HW273933   4.630   0.580   2.210 -1.4341  1.4133  1.2720
23894SOL     OW73934   1.943   4.682   2.260  0.2155  0.1993 -0.0120
23894SOL    HW173935   1.898   4.709   2.180 -0.7653  0.7646  0.6903
23894SOL    HW273936   1.951   4.587   2.253 -2.3294 -0.1272  0.3834
23895SOL     OW73937   4.158   9.488   4.319  0.1433  0.0058  0.4523
23895SOL    HW173938   4.238   9.436   4.308  0.6498  0.7931  0.3993
23895SOL    HW273939   4.110   9.443   4.389 -0.3460 -1.6650 -0.8818
23896SOL     OW73940   7.759   2.320   3.739 -0.0790 -0.2955  0.5535
23896SOL    HW173941   7.720   2.293   3.655 -2.5559  0.5067  1.3519
23896SOL    HW273942   7.701   2.283   3.805  0.8214  0.5657  1.8699
23897SOL     OW73943   1.278   5.815   4.394  0.0184 -0.4054  0.0625
23897SOL    HW173944   1.248   5.738   4.441  0.6473 -0.9654 -0.4339
23897SOL    HW273945   1.374   5.807   4.392  0.2168  1.1405  1.2708
23898SOL     OW73946  10.597  10.331   1.469 -0.1932  0.1794 -0.6630
23898SOL    HW173947  10.581  10.316   1.376  2.0206 -4.1607 -0.5978
23898SOL    HW273948  10.688  10.358   1.474  0.1843 -1.1890  0.2765
23899SOL     OW73949   8.381   5.112   9.796  0.2388 -0.2994 -0.0164
23899SOL    HW173950   8.322   5.055   9.845  0.4620 -0.2937  0.2660
23899SOL    HW273951   8.452   5.131   9.858  0.7372 -0.6220 -0.4744
23900SOL     OW73952   2.255   0.856   7.430  0.0329 -0.0694 -0.5594
23900SOL    HW173953   2.331   0.914   7.437  0.0781 -0.1915  0.0292
23900SOL    HW273954   2.288   0.771   7.459 -0.1168 -0.3222 -1.1088
23901SOL     OW73955   7.112   0.844   8.488  0.0042  0.5955 -0.4570
23901SOL    HW173956   7.176   0.876   8.424 -0.8011 -0.7136 -1.9999
23901SOL    HW273957   7.079   0.923   8.531  2.6817  1.2991  0.4787
23902SOL     OW73958   1.239  10.422   3.946 -0.5362 -0.2225 -0.3929
23902SOL    HW173959   1.214  10.508   3.912  0.3420 -0.0110 -0.5240
23902SOL    HW273960   1.314  10.439   4.003 -0.1228 -0.9422 -0.7030
23903SOL     OW73961   3.733   8.599   9.130 -0.7697 -0.0352  0.1427
23903SOL    HW173962   3.810   8.607   9.074  0.8500 -2.5916  1.7692
23903SOL    HW273963   3.659   8.597   9.070  0.8235 -2.2513 -1.9602
23904SOL     OW73964   3.692   8.573   8.353 -0.8682  0.4993  0.2970
23904SOL    HW173965   3.686   8.651   8.408  0.5276  1.1893 -0.4882
23904SOL    HW273966   3.761   8.521   8.393 -0.7477  0.3894 -0.0514
23905SOL     OW73967   6.684   5.545   4.245 -0.0185  0.1519  0.3982
23905SOL    HW173968   6.694   5.637   4.220 -1.6444  0.3054  0.2243
23905SOL    HW273969   6.659   5.548   4.337 -0.8880 -0.0544  0.1815
23906SOL     OW73970   4.115   5.667   7.916 -0.1742 -0.0001  0.0476
23906SOL    HW173971   4.025   5.660   7.885 -0.2660 -0.2098  0.3527
23906SOL    HW273972   4.141   5.576   7.934  0.2322  0.0241 -0.4203
23907SOL     OW73973   9.652   6.930   8.237  0.3317 -0.0959  0.3507
23907SOL    HW173974   9.705   6.993   8.286 -1.1396  1.4555  0.0531
23907SOL    HW273975   9.614   6.874   8.305  0.1209  0.5867  0.8131
23908SOL     OW73976   2.256   7.190   0.902 -0.3647 -0.0521  0.5342
23908SOL    HW173977   2.194   7.192   0.829 -0.7560 -0.1372  0.8589
23908SOL    HW273978   2.308   7.111   0.887 -1.2142 -0.7034  0.9707
23909SOL     OW73979   8.189   7.610   2.654  0.3321 -0.5330  0.9792
23909SOL    HW173980   8.137   7.646   2.581  2.2392 -0.7805 -0.5858
23909SOL    HW273981   8.125   7.566   2.709 -1.3257  0.4723 -0.0405
23910SOL     OW73982   3.090   5.024   3.694 -0.2673  0.1267  0.1049
23910SOL    HW173983   3.109   4.985   3.609 -0.8678  0.4228 -0.1720
23910SOL    HW273984   3.127   5.112   3.688  0.3775 -0.1181  0.4363
23911SOL     OW73985   4.051   1.757   4.923  0.2873  0.2507 -0.5320
23911SOL    HW173986   4.086   1.712   4.846  0.1081  1.7651 -1.5157
23911SOL    HW273987   4.075   1.848   4.911 -1.0915  0.7701  0.4435
23912SOL     OW73988   3.535   5.955   5.898 -0.0583  0.6908  0.2571
23912SOL    HW173989   3.477   5.925   5.968  0.1693 -0.0074  0.1533
23912SOL    HW273990   3.609   5.895   5.901  0.9961  1.9780  0.8229
23913SOL     OW73991   5.508   1.684   6.321  1.0104 -0.3064 -0.2514
23913SOL    HW173992   5.416   1.711   6.326  0.9157 -0.0820 -2.3650
23913SOL    HW273993   5.507   1.592   6.349  0.6562  0.4889  2.6447
23914SOL     OW73994   4.419   9.925   8.744  0.0791  0.0373 -0.0740
23914SOL    HW173995   4.488   9.891   8.802  1.8302  1.3434 -1.3001
23914SOL    HW273996   4.447   9.901   8.656 -2.4153 -1.6826 -0.4986
23915SOL     OW73997   0.196   8.901   2.927  0.3560  0.3815  0.0457
23915SOL    HW173998   0.154   8.932   2.846 -0.4101  1.2854  0.7656
23915SOL    HW273999   0.192   8.976   2.986  0.1540 -0.5191  1.2096
23916SOL     OW74000   4.340   1.608   3.333 -0.8896 -0.4140  0.3458
23916SOL    HW174001   4.269   1.576   3.276 -0.5936 -0.3197 -0.0792
23916SOL    HW274002   4.356   1.697   3.303  0.7479 -1.0779 -0.8840
23917SOL     OW74003   8.920   5.223   1.589 -0.1302  0.0173  0.2654
23917SOL    HW174004   8.869   5.290   1.543  0.1603  0.7849  1.0449
23917SOL    HW274005   8.950   5.165   1.519  0.2669  1.1366 -0.5393
23918SOL     OW74006   2.260   2.660   3.145  0.2420 -0.6330  0.3848
23918SOL    HW174007   2.208   2.602   3.201 -1.6658 -0.3224 -0.9558
23918SOL    HW274008   2.232   2.639   3.056 -0.5060  2.2487 -0.1717
23919SOL     OW74009   1.736  10.192   7.418 -0.2520 -0.1710  0.3629
23919SOL    HW174010   1.785  10.274   7.425 -1.6105  1.2257 -3.4964
23919SOL    HW274011   1.785  10.140   7.354  0.0480 -2.0284  2.0140
23920SOL     OW74012   9.337   8.399   9.128  0.0611 -0.0907  0.3901
23920SOL    HW174013   9.298   8.327   9.177  2.7364 -0.6059  1.9309
23920SOL    HW274014   9.347   8.364   9.039  0.8642 -1.4644  0.9884
23921SOL     OW74015   7.920   9.802   1.116 -0.4044 -0.4415  0.2019
23921SOL    HW174016   7.978   9.782   1.189 -0.3255 -0.4513  0.1362
23921SOL    HW274017   7.977   9.842   1.050  0.1103 -3.0543 -1.0572
23922SOL     OW74018   9.397   2.255  10.054  0.1772 -0.2102  0.1228
23922SOL    HW174019   9.410   2.206  10.136  1.8189  1.0327  0.6688
23922SOL    HW274020   9.306   2.240  10.031 -0.1520 -1.1117  1.8406
23923SOL     OW74021   8.550   9.167   7.941 -0.2812 -0.6489 -0.5652
23923SOL    HW174022   8.583   9.169   7.852 -2.1024  0.2939 -1.2674
23923SOL    HW274023   8.609   9.224   7.990  0.2020 -0.4512 -1.3702
23924SOL     OW74024   5.863   7.872   5.218 -0.6263 -0.5544  0.2050
23924SOL    HW174025   5.827   7.922   5.145  0.0693  0.1777  0.3539
23924SOL    HW274026   5.875   7.784   5.183  0.0992 -0.1103 -0.7135
23925SOL     OW74027   2.282   3.840   0.969 -0.4155 -0.2910 -0.2188
23925SOL    HW174028   2.343   3.768   0.950  1.0942  0.7248  0.5604
23925SOL    HW274029   2.219   3.837   0.897  1.4425 -0.4490 -1.9332
23926SOL     OW74030   1.929   1.888   1.643  0.1260 -1.2137 -0.8981
23926SOL    HW174031   1.900   1.864   1.556 -1.6136  0.1650 -0.7538
23926SOL    HW274032   1.949   1.805   1.686 -1.2255 -2.0663 -1.8682
23927SOL     OW74033   3.591   0.750   7.595 -0.1609  0.2178 -0.6203
23927SOL    HW174034   3.573   0.695   7.519 -0.2657 -0.7431  0.0801
23927SOL    HW274035   3.686   0.764   7.592 -0.0273 -0.6282 -0.3898
23928SOL     OW74036   1.841   6.062   2.964  0.3726 -0.2171  0.2018
23928SOL    HW174037   1.759   6.033   2.924  0.0177  0.9986 -0.0000
23928SOL    HW274038   1.910   6.024   2.909 -0.0590 -0.8363  0.0787
23929SOL     OW74039   9.952   2.959   5.968  0.2256 -0.1647  0.0611
23929SOL    HW174040   9.884   3.008   6.016  0.5153  0.0850  0.2211
23929SOL    HW274041   9.934   2.977   5.876 -3.3424 -4.4285 -0.4114
23930SOL     OW74042   5.438   3.899  10.514 -0.4016  0.5300 -0.3027
23930SOL    HW174043   5.429   3.992  10.491  0.7101  0.7656  0.1129
23930SOL    HW274044   5.354   3.875  10.552 -0.3415  1.6779  0.5988
23931SOL     OW74045   7.452   1.679   3.861 -0.0149 -0.0198  0.2562
23931SOL    HW174046   7.422   1.636   3.781  0.4984  0.9265 -0.4658
23931SOL    HW274047   7.519   1.621   3.896  0.4437  0.0206 -0.5309
23932SOL     OW74048  10.424   4.666   5.865  0.0780  0.3471  0.0539
23932SOL    HW174049  10.510   4.708   5.870  0.5868 -0.7397  0.6380
23932SOL    HW274050  10.420   4.610   5.942 -1.6756  1.3200  0.7418
23933SOL     OW74051   1.393   7.670   2.077  0.5965  0.3362 -0.0435
23933SOL    HW174052   1.314   7.675   2.023 -0.0955  0.1110  0.9167
23933SOL    HW274053   1.462   7.644   2.016 -0.0994  0.3909 -0.8725
23934SOL     OW74054   1.817   9.228   7.771  0.4558  0.3724  0.0690
23934SOL    HW174055   1.858   9.147   7.802  1.2017  1.7334  3.0833
23934SOL    HW274056   1.889   9.290   7.764 -0.3514  1.3061 -0.1555
23935SOL     OW74057   4.887   8.483   2.057 -0.1285  0.0597 -0.5113
23935SOL    HW174058   4.863   8.472   2.149  1.4461  0.0481 -0.0803
23935SOL    HW274059   4.821   8.432   2.010  0.6043 -2.2711  0.7906
23936SOL     OW74060   6.862   9.336   8.835 -0.2495 -0.0201 -0.0152
23936SOL    HW174061   6.801   9.409   8.828  1.4095  1.3252 -1.4191
23936SOL    HW274062   6.901   9.345   8.922 -0.5579  0.3620  0.0857
23937SOL     OW74063   5.786   8.016   5.012 -0.3795 -0.2970  0.4300
23937SOL    HW174064   5.837   8.094   5.033 -1.0158  0.8835 -2.0635
23937SOL    HW274065   5.697   8.038   5.038 -0.0494 -1.5806  2.8967
23938SOL     OW74066   8.330   5.044   0.371 -0.0803  0.0038 -0.2424
23938SOL    HW174067   8.383   5.039   0.292 -1.1837 -1.3648 -0.9319
23938SOL    HW274068   8.280   4.962   0.373  0.0425 -0.0933  1.9676
23939SOL     OW74069   8.730   1.261   1.421  0.2011  0.0897  0.0690
23939SOL    HW174070   8.708   1.177   1.382  2.9377 -0.8504  0.3768
23939SOL    HW274071   8.763   1.240   1.508 -0.0248  1.6064  0.5584
23940SOL     OW74072   9.387   9.054  10.456  0.2773  0.3790 -0.4434
23940SOL    HW174073   9.434   9.027  10.534 -0.2079 -0.9761 -0.5903
23940SOL    HW274074   9.454   9.093  10.399  1.2421 -1.4145 -0.6107
23941SOL     OW74075   1.045   0.616   6.806  0.1314  0.1125  0.4614
23941SOL    HW174076   1.057   0.711   6.809  1.0762  0.0625 -0.8604
23941SOL    HW274077   1.077   0.585   6.890  2.8665  0.7102 -0.2542
23942SOL     OW74078   5.515   4.892   4.183  0.0219 -0.0718  0.4425
23942SOL    HW174079   5.451   4.953   4.147  0.3776  0.4043  0.5945
23942SOL    HW274080   5.575   4.874   4.110  0.9704  1.1999  0.8648
23943SOL     OW74081   6.054   3.306   0.483  0.4098  0.2074  0.0612
23943SOL    HW174082   6.146   3.314   0.508  0.3438 -0.6292  0.5909
23943SOL    HW274083   6.006   3.331   0.562  0.1752  0.4436 -0.1528
23944SOL     OW74084   8.500   2.771  10.429  0.4597  0.1612 -0.1707
23944SOL    HW174085   8.452   2.709  10.373 -0.1602  1.2913 -0.9226
23944SOL    HW274086   8.592   2.746  10.419  0.4327  0.6830 -2.1688
23945SOL     OW74087   4.530   3.908   7.880  0.1120  0.0509 -0.1064
23945SOL    HW174088   4.531   3.813   7.873 -0.2595 -0.0085  0.5956
23945SOL    HW274089   4.486   3.926   7.963 -0.4447  0.8492 -0.5532
23946SOL     OW74090   5.982   9.510   8.994  0.0465 -0.1993  0.0347
23946SOL    HW174091   6.062   9.469   8.962 -0.5319 -0.1554 -1.5149
23946SOL    HW274092   5.922   9.436   9.008 -0.2936 -0.0791 -0.7341
23947SOL     OW74093   4.254   5.706   1.673  0.2239  0.3975  0.2750
23947SOL    HW174094   4.292   5.754   1.600 -1.4033  1.5098  0.1224
23947SOL    HW274095   4.191   5.646   1.633 -0.3865  0.7295  0.7193
23948SOL     OW74096  10.655   6.056   8.991 -0.4754  0.1466 -0.8447
23948SOL    HW174097  10.586   6.112   9.028 -0.8393 -0.1219 -1.1016
23948SOL    HW274098  10.679   5.997   9.062 -0.0675  0.6477 -0.5621
23949SOL     OW74099  10.630   7.414   6.767  0.8197  0.1050  0.2227
23949SOL    HW174100  10.680   7.493   6.790  1.0780 -0.0975  0.3615
23949SOL    HW274101  10.642   7.404   6.673 -0.0180  0.7848  0.0239
23950SOL     OW74102   2.674   1.692   1.334  0.0131  0.5020  0.2638
23950SOL    HW174103   2.583   1.676   1.309 -0.1122  1.0162  0.3880
23950SOL    HW274104   2.679   1.666   1.426  0.0336  0.3135  0.2096
23951SOL     OW74105   4.964   3.509   8.059  0.3600 -0.1041 -0.3524
23951SOL    HW174106   4.909   3.504   8.138 -1.2855  0.7670 -1.3733
23951SOL    HW274107   4.963   3.421   8.023  1.0023 -0.4732  0.5202
23952SOL     OW74108   4.439   3.373   0.485  0.6064 -0.2285  0.3793
23952SOL    HW174109   4.415   3.416   0.567 -1.7355 -0.3885 -0.1559
23952SOL    HW274110   4.460   3.283   0.511  1.7568  0.2160  1.0243
23953SOL     OW74111   3.961   7.555   3.860  0.0884  0.0911  0.1221
23953SOL    HW174112   3.963   7.549   3.956 -0.1982 -0.8782  0.0730
23953SOL    HW274113   4.024   7.625   3.840  1.3754 -0.7945  0.9192
23954SOL     OW74114  10.633   7.442   7.467  0.2646  0.3912  0.2153
23954SOL    HW174115  10.557   7.420   7.414  0.0027  1.1459  0.2667
23954SOL    HW274116  10.663   7.358   7.503 -1.2650  0.2316  1.1745
23955SOL     OW74117   9.860   1.295   1.902 -0.3292 -0.3690  0.4613
23955SOL    HW174118   9.881   1.383   1.936 -0.1730 -1.1213  2.4923
23955SOL    HW274119   9.808   1.311   1.824  1.6075  1.5443 -0.5642
23956SOL     OW74120   2.764   4.006   0.097  0.8842 -0.4856 -0.3616
23956SOL    HW174121   2.716   3.924   0.107  0.8425 -0.3355  0.9096
23956SOL    HW274122   2.778   4.015   0.003 -2.2450 -0.1328 -0.8891
23957SOL     OW74123   2.511   4.676   7.949 -0.0349 -0.2384  0.4378
23957SOL    HW174124   2.578   4.616   7.918  0.2738  0.5506 -0.4623
23957SOL    HW274125   2.428   4.633   7.929  0.1667 -1.1584  1.4334
23958SOL     OW74126   3.229   9.984   6.343 -0.5258  0.2917 -0.1984
23958SOL    HW174127   3.187  10.057   6.389 -1.5276 -0.4631  0.1187
23958SOL    HW274128   3.181   9.906   6.372  1.3640 -0.6656  0.4808
23959SOL     OW74129   4.384   0.564   8.638 -0.7076 -0.2010 -0.3873
23959SOL    HW174130   4.371   0.541   8.546 -1.4304  1.3932 -0.7045
23959SOL    HW274131   4.359   0.485   8.686  0.8544 -1.4940 -1.5675
23960SOL     OW74132   7.569   4.815   5.683 -0.8205 -0.4451  0.1022
23960SOL    HW174133   7.601   4.725   5.690 -0.0352 -0.1184  0.8146
23960SOL    HW274134   7.474   4.806   5.678 -0.8920 -1.2385  2.0349
23961SOL     OW74135   5.092   1.095   9.690  0.1076  0.3727 -0.0302
23961SOL    HW174136   5.149   1.054   9.626  1.7247 -0.6361  1.9198
23961SOL    HW274137   5.032   1.026   9.718  0.8256  0.1483  1.0408
23962SOL     OW74138   5.554   4.432   8.387  0.2694 -0.3101  0.7641
23962SOL    HW174139   5.596   4.349   8.367  1.7304 -0.0881  2.6338
23962SOL    HW274140   5.547   4.476   8.302 -0.3502 -2.2098 -0.2274
23963SOL     OW74141   9.544   1.055   7.623 -0.2887 -0.7735  0.8683
23963SOL    HW174142   9.621   1.068   7.679  0.4009 -0.1938 -0.1691
23963SOL    HW274143   9.540   1.135   7.570 -1.9218 -0.5685  1.2604
23964SOL     OW74144   2.625   8.737   4.386  0.1019  0.7094 -0.1442
23964SOL    HW174145   2.542   8.699   4.412  1.1247 -0.8132  1.0610
23964SOL    HW274146   2.638   8.707   4.296 -0.0010 -0.2378  0.1481
23965SOL     OW74147   7.100  10.102   7.518 -1.1073  0.1307  0.6287
23965SOL    HW174148   7.039  10.153   7.465  2.8499  2.7100 -1.9692
23965SOL    HW274149   7.133  10.164   7.583 -1.5075 -1.3457  2.3085
23966SOL     OW74150   3.963   1.881   5.424  0.2112 -0.2258  0.4529
23966SOL    HW174151   4.003   1.817   5.365  0.3892 -0.4012  0.7595
23966SOL    HW274152   3.877   1.898   5.387  0.9643  1.0183 -0.8832
23967SOL     OW74153   8.945   8.803   6.768  0.0596 -0.6385 -0.0753
23967SOL    HW174154   8.889   8.877   6.746  0.7204 -0.0027  0.3467
23967SOL    HW274155   8.895   8.752   6.831  1.2643  1.8103  3.1021
23968SOL     OW74156   2.776   5.273   3.896  0.3346  0.3934 -0.2176
23968SOL    HW174157   2.749   5.361   3.868 -1.6655 -0.1268 -0.1045
23968SOL    HW274158   2.782   5.223   3.815 -0.4407  0.1755 -0.1542
23969SOL     OW74159   6.772   1.905   1.522 -0.2930 -0.3066 -0.2745
23969SOL    HW174160   6.703   1.842   1.501  1.0305 -1.1010 -2.6140
23969SOL    HW274161   6.790   1.948   1.438  1.8313  0.0844  0.3413
23970SOL     OW74162   8.716   4.986   7.928 -0.1410  0.3546  0.0312
23970SOL    HW174163   8.738   4.969   7.836 -0.5352  0.1343 -0.0254
23970SOL    HW274164   8.678   4.904   7.959  1.0973  0.0147  0.7480
23971SOL     OW74165   2.440   3.425   5.688 -0.4251 -0.1283 -0.1008
23971SOL    HW174166   2.358   3.470   5.709  0.1309  1.3499 -1.0112
23971SOL    HW274167   2.504   3.464   5.747 -0.2905 -1.1168  0.4396
23972SOL     OW74168   3.414   5.530   6.230 -0.0630  0.0550  0.3035
23972SOL    HW174169   3.493   5.546   6.283  0.7042 -3.1642  0.3279
23972SOL    HW274170   3.393   5.616   6.193  3.7776  1.0047 -0.1229
23973SOL     OW74171   1.814  10.406   8.707  0.0513 -0.3834 -0.0201
23973SOL    HW174172   1.720  10.410   8.724  0.1875 -3.0654  1.9760
23973SOL    HW274173   1.855  10.435   8.788  1.0179  1.3710 -1.0807
23974SOL     OW74174  10.575   3.963   5.239  0.2665  0.1788  0.2793
23974SOL    HW174175  10.570   4.058   5.245 -0.0470  0.2389 -0.7359
23974SOL    HW274176  10.646   3.947   5.177  0.9969 -0.2829  1.2051
23975SOL     OW74177   8.780   7.774   8.151 -0.0874 -0.0608 -0.0702
23975SOL    HW174178   8.688   7.800   8.152  0.5797  2.5891  1.0294
23975SOL    HW274179   8.801   7.757   8.243  0.3639 -1.4876 -0.4025
23976SOL     OW74180   2.009   5.499   4.724  0.4390 -0.4301 -0.1545
23976SOL    HW174181   2.030   5.549   4.646  0.1292  0.1818  0.1459
23976SOL    HW274182   1.989   5.565   4.790  0.9645 -0.9341  0.5219
23977SOL     OW74183   1.719   1.787   7.881  0.1772 -0.1171 -0.5235
23977SOL    HW174184   1.793   1.836   7.918 -1.0074  0.9470  0.5222
23977SOL    HW274185   1.759   1.728   7.817  1.8146  1.3287 -0.9234
23978SOL     OW74186   9.726   1.624   5.007 -0.0712 -0.2508  0.1229
23978SOL    HW174187   9.686   1.538   4.996  2.7960 -1.6983  0.1840
23978SOL    HW274188   9.726   1.639   5.101 -1.0464  0.1135  0.0816
23979SOL     OW74189   7.890   0.511   4.091 -0.2923  0.1388  0.4376
23979SOL    HW174190   7.894   0.599   4.054  0.6229  0.0615  0.3478
23979SOL    HW274191   7.807   0.510   4.139  0.2954  1.5043  1.5619
23980SOL     OW74192   2.372   1.700   3.058  0.3594 -0.0821 -0.2950
23980SOL    HW174193   2.342   1.751   3.132 -1.1412 -1.2623 -0.0452
23980SOL    HW274194   2.303   1.635   3.043  1.3523 -0.8811 -1.7248
23981SOL     OW74195   5.926   2.495   1.954  0.1865 -0.7961  0.0529
23981SOL    HW174196   6.016   2.481   1.924  0.1360 -0.4131 -0.2933
23981SOL    HW274197   5.885   2.409   1.948  0.5168 -0.9589  0.1537
23982SOL     OW74198   6.191   7.436   7.539 -0.3081 -0.3662  0.3314
23982SOL    HW174199   6.220   7.499   7.606 -1.0807 -0.5918  0.8915
23982SOL    HW274200   6.097   7.427   7.554 -0.4740 -0.4981 -0.7315
23983SOL     OW74201  10.485   9.084   1.974 -0.2952  0.0130 -0.1065
23983SOL    HW174202  10.562   9.108   1.922 -0.4508  0.6287 -0.0604
23983SOL    HW274203  10.519   9.072   2.063  0.3757 -3.1709 -0.6659
23984SOL     OW74204   4.249   4.888   9.705 -0.4559  0.4640 -0.0559
23984SOL    HW174205   4.211   4.847   9.783 -0.4491  0.9957  0.2342
23984SOL    HW274206   4.343   4.872   9.712 -0.4472  0.5724  0.0871
23985SOL     OW74207   2.802   3.617   5.410  0.5939  0.1613 -0.1526
23985SOL    HW174208   2.881   3.671   5.406  0.0342  1.0041 -0.0767
23985SOL    HW274209   2.767   3.619   5.322  0.1668  0.5612  0.0185
23986SOL     OW74210   0.775   1.183   1.203 -0.7817  0.2856  0.3913
23986SOL    HW174211   0.769   1.114   1.137  2.3631 -0.6691  0.9611
23986SOL    HW274212   0.817   1.142   1.278 -0.4695  2.3633  1.4508
23987SOL     OW74213   9.533   1.411   0.914  0.2553  0.6576 -0.3589
23987SOL    HW174214   9.537   1.415   1.009 -1.8904 -0.1756 -0.1691
23987SOL    HW274215   9.456   1.463   0.891  0.7915  0.9266 -1.6583
23988SOL     OW74216   4.386   8.317   5.170 -0.1139 -0.6696 -0.2972
23988SOL    HW174217   4.353   8.355   5.088  0.6787 -0.1844 -0.3910
23988SOL    HW274218   4.307   8.300   5.221 -0.5272  0.3605 -0.5753
23989SOL     OW74219   3.997   3.075   9.868 -0.1190 -0.1088 -0.4981
23989SOL    HW174220   4.058   3.144   9.893 -0.1518 -0.5414  0.8734
23989SOL    HW274221   3.920   3.122   9.835  0.1887  0.4857 -0.3871
23990SOL     OW74222   6.685   8.263   8.732  0.0429  0.0035 -0.3961
23990SOL    HW174223   6.776   8.233   8.742  0.0398  0.5650  1.7798
23990SOL    HW274224   6.632   8.188   8.757 -0.1155 -0.2538 -1.4577
23991SOL     OW74225  10.120   6.271   5.815  0.1761 -0.3209 -0.5251
23991SOL    HW174226  10.168   6.354   5.804  2.2575 -1.1532  1.5033
23991SOL    HW274227  10.164   6.210   5.757 -1.4204 -0.0793 -2.0912
23992SOL     OW74228   7.910   7.360   7.339 -0.2754  0.1330  0.6465
23992SOL    HW174229   7.822   7.367   7.376 -0.6905 -0.8881 -0.0648
23992SOL    HW274230   7.896   7.318   7.254  0.9426 -0.4317  0.7015
23993SOL     OW74231   4.226   2.475   2.236 -0.1318 -0.1460  0.6478
23993SOL    HW174232   4.297   2.428   2.281 -0.5929  1.4372  3.2981
23993SOL    HW274233   4.149   2.460   2.292 -1.1629  0.6111 -0.5228
23994SOL     OW74234   9.844   7.055   8.942 -0.1542  0.1396 -0.0247
23994SOL    HW174235   9.893   7.066   8.860  0.9339  0.9428  0.6923
23994SOL    HW274236   9.900   6.999   8.996 -2.0988 -2.7244 -0.7516
23995SOL     OW74237   7.209   3.387   2.921  0.1297  0.1824  0.0661
23995SOL    HW174238   7.200   3.295   2.948  0.3264  0.1219 -0.0674
23995SOL    HW274239   7.151   3.396   2.846  1.5447 -0.3463 -1.1251
23996SOL     OW74240   1.002   0.157   0.327  0.1029 -0.5068  0.5645
23996SOL    HW174241   1.081   0.182   0.375 -1.3679  1.3609  2.1484
23996SOL    HW274242   0.933   0.155   0.392 -0.8932 -4.2145 -0.3680
23997SOL     OW74243   8.113   3.332   9.641 -0.3472  0.1064 -0.9843
23997SOL    HW174244   8.193   3.362   9.683  0.3362 -2.0336 -0.5950
23997SOL    HW274245   8.144   3.271   9.573 -1.6261 -0.4119 -1.1241
23998SOL     OW74246   8.963   0.482   0.872  0.0835  0.6562  0.3183
23998SOL    HW174247   8.987   0.456   0.782 -2.1656 -0.3549 -0.0649
23998SOL    HW274248   8.989   0.407   0.925 -0.3164  0.4350  0.2086
23999SOL     OW74249   8.092   3.786   2.335 -0.3721  0.9449 -0.1560
23999SOL    HW174250   8.108   3.880   2.322  1.7087  0.6222 -0.2610
23999SOL    HW274251   8.179   3.746   2.327 -1.4295 -1.2047 -1.9358
24000SOL     OW74252  10.217   0.019   5.634 -0.2588  0.2074 -0.1505
24000SOL    HW174253  10.173  -0.063   5.656 -1.5145  0.5048 -1.4209
24000SOL    HW274254  10.231   0.015   5.540  1.7693  0.4846  0.0861
24001SOL     OW74255   1.048  10.157   5.677 -0.2818 -0.3237  0.1546
24001SOL    HW174256   1.088  10.092   5.734 -0.8460 -2.9307 -2.1832
24001SOL    HW274257   0.954  10.149   5.694 -0.3181  0.3670  0.3084
24002SOL     OW74258   9.434   3.290   5.060  0.4250  0.2446  0.1731
24002SOL    HW174259   9.464   3.287   4.969 -1.5586 -1.2176 -0.5058
24002SOL    HW274260   9.473   3.213   5.101 -0.3118 -0.2514 -0.0316
24003SOL     OW74261   7.642   5.729   5.263 -0.2547  0.0381  0.1808
24003SOL    HW174262   7.604   5.810   5.229 -2.6588 -1.0642  0.0381
24003SOL    HW274263   7.713   5.758   5.320 -1.0893  2.2623  0.2005
24004SOL     OW74264   7.251   1.389   7.297 -0.2109 -0.1158 -0.8380
24004SOL    HW174265   7.287   1.478   7.293 -0.7303  0.0982 -0.7426
24004SOL    HW274266   7.322   1.333   7.264  0.6747  0.1712  0.4881
24005SOL     OW74267   3.779   8.479   5.674 -0.3425 -0.9019  0.1281
24005SOL    HW174268   3.718   8.479   5.600  1.2379 -0.3249 -1.2358
24005SOL    HW274269   3.766   8.563   5.717  0.7551  0.0585 -1.3109
24006SOL     OW74270   7.882   1.105   8.997 -0.1393 -0.6004  0.1199
24006SOL    HW174271   7.805   1.155   9.022 -0.0160  0.6662 -1.8285
24006SOL    HW274272   7.956   1.164   9.013  0.3516 -1.4116  0.9711
24007SOL     OW74273   3.125   9.016   0.523 -0.4935  0.1763 -0.3696
24007SOL    HW174274   3.055   9.000   0.586  0.0452  0.5553  0.3417
24007SOL    HW274275   3.206   8.994   0.570 -0.0181  1.3520 -0.6026
24008SOL     OW74276   8.251  10.195   3.905  0.0972 -0.4207  0.0189
24008SOL    HW174277   8.337  10.156   3.886  0.7597  1.1382 -0.3681
24008SOL    HW274278   8.265  10.246   3.985 -0.2778  0.3889 -0.4186
24009SOL     OW74279  10.322   2.331   4.265  1.0268 -0.1340 -0.3486
24009SOL    HW174280  10.387   2.261   4.275 -0.9423 -1.7777  2.2398
24009SOL    HW274281  10.355   2.403   4.319  0.8480 -0.8641  0.7546
24010SOL     OW74282   3.114   8.768   9.592  0.2345  0.4123  0.0740
24010SOL    HW174283   3.129   8.675   9.573  1.0539  0.1419  1.8423
24010SOL    HW274284   3.146   8.813   9.514 -0.3245 -0.7857 -0.8825
24011SOL     OW74285  10.146   9.791   5.035 -0.0446  0.2621 -0.0448
24011SOL    HW174286  10.061   9.755   5.060  0.3592 -1.4433 -1.0008
24011SOL    HW274287  10.201   9.779   5.113  0.1245 -1.4146 -0.3832
24012SOL     OW74288   2.871   4.455   5.733  0.0670  0.2243  0.1851
24012SOL    HW174289   2.914   4.379   5.773  0.4183  0.8255  0.9800
24012SOL    HW274290   2.857   4.515   5.806 -2.8391 -0.2489  0.1328
24013SOL     OW74291   9.481   6.854   1.400 -0.0965 -0.1882  0.2203
24013SOL    HW174292   9.408   6.864   1.338  1.1976 -1.3623 -1.6043
24013SOL    HW274293   9.541   6.925   1.378  0.2793 -0.4947  0.2502
24014SOL     OW74294   6.911   6.087   0.626  0.1508 -0.1771 -0.3142
24014SOL    HW174295   6.982   6.125   0.575  1.5987 -2.6348 -0.2900
24014SOL    HW274296   6.949   6.071   0.713 -1.2799  0.8843  0.5611
24015SOL     OW74297   4.988   7.934   3.676  0.0143 -0.4377 -0.0194
24015SOL    HW174298   5.023   7.914   3.590 -1.0594 -2.9051  0.0253
24015SOL    HW274299   4.931   8.010   3.663  2.1848  1.1270 -0.8243
24016SOL     OW74300   0.271   6.421   3.785  0.1147  0.2121  0.3134
24016SOL    HW174301   0.181   6.432   3.815 -1.3159 -0.6245 -3.1909
24016SOL    HW274302   0.296   6.508   3.753  0.7004  0.5069  1.5205
24017SOL     OW74303   4.667   6.395   3.645  0.1786 -0.0438 -0.2129
24017SOL    HW174304   4.596   6.458   3.636  0.7200  0.7158  0.6940
24017SOL    HW274305   4.626   6.310   3.626 -0.8008  0.4511 -0.3743
24018SOL     OW74306   4.901   9.087   7.243  0.4118 -0.4148  0.3926
24018SOL    HW174307   4.832   9.058   7.303 -1.3480  0.6958 -1.0150
24018SOL    HW274308   4.950   9.007   7.223 -2.2556 -1.8916 -0.7917
24019SOL     OW74309   8.130   0.697  10.208 -0.6183  0.1117 -0.0902
24019SOL    HW174310   8.076   0.681  10.286  0.8818  1.5754  1.3292
24019SOL    HW274311   8.095   0.778  10.171  0.6908  1.2225  0.9972
24020SOL     OW74312   4.894   8.193   9.975 -0.1848 -0.3752 -0.1210
24020SOL    HW174313   4.951   8.136  10.027  0.2080  0.1643  0.0548
24020SOL    HW274314   4.855   8.253  10.038  0.3315  0.3166 -0.4401
24021SOL     OW74315   9.656   8.473   1.733  0.1648 -0.0770 -0.2121
24021SOL    HW174316   9.749   8.488   1.722  0.1534  0.1093 -0.0601
24021SOL    HW274317   9.615   8.556   1.710  0.0506 -0.0955 -0.0808
24022SOL     OW74318   5.176   5.586   6.615 -0.2090  0.1691  0.1455
24022SOL    HW174319   5.193   5.620   6.703 -1.2330 -0.5347  0.6420
24022SOL    HW274320   5.256   5.538   6.592  0.5650  1.4286  0.1460
24023SOL     OW74321   3.541   3.970   9.232  0.5098 -0.2305  0.2311
24023SOL    HW174322   3.519   4.004   9.146 -0.8146  0.9305  0.9816
24023SOL    HW274323   3.511   3.879   9.231  0.4949 -0.2203 -0.5218
24024SOL     OW74324   6.003   9.999   9.371  0.1580  0.8818  0.1347
24024SOL    HW174325   5.928  10.039   9.414 -0.5893 -0.0893 -0.2329
24024SOL    HW274326   6.048   9.950   9.440 -0.3663  0.2997  0.0716
24025SOL     OW74327   9.542  10.550   3.143 -0.0861 -0.0157  0.4012
24025SOL    HW174328   9.505  10.527   3.228 -0.0137 -0.7612  0.2393
24025SOL    HW274329   9.576  10.468   3.109  0.2377  0.3525 -0.1798
24026SOL     OW74330   7.071   8.092   6.789 -0.2691  0.0454 -0.3889
24026SOL    HW174331   7.059   8.012   6.840 -1.4033  0.2092 -0.3743
24026SOL    HW274332   7.148   8.134   6.828 -0.3707 -0.4560  0.3642
24027SOL     OW74333   5.974   4.491   5.312  0.5235  0.1304 -0.6394
24027SOL    HW174334   5.994   4.561   5.375 -0.4872 -0.1658  0.0455
24027SOL    HW274335   6.058   4.452   5.291  0.9271  0.5183  0.2174
24028SOL     OW74336   4.413   8.189   0.119 -0.5840 -0.8587  0.3183
24028SOL    HW174337   4.356   8.116   0.144 -0.4417 -1.3012 -0.6034
24028SOL    HW274338   4.501   8.151   0.117 -0.5749 -0.8167 -0.7159
24029SOL     OW74339   6.779   2.771   6.320 -0.0250 -0.1174  0.3958
24029SOL    HW174340   6.704   2.827   6.340  0.4121  0.9379 -0.7956
24029SOL    HW274341   6.741   2.696   6.273 -0.5059 -0.3980  1.2128
24030SOL     OW74342   5.869   7.815   8.743 -0.1896 -0.0265 -0.4026
24030SOL    HW174343   5.820   7.766   8.678 -1.5225  0.6218  0.0665
24030SOL    HW274344   5.894   7.750   8.809 -0.4711 -0.3574 -0.6202
24031SOL     OW74345   3.914   0.982   0.279 -0.3950 -0.1925  0.4550
24031SOL    HW174346   3.892   1.036   0.354  2.2587  1.4729  0.1920
24031SOL    HW274347   3.953   0.903   0.316 -1.5785 -0.6254  0.8128
24032SOL     OW74348   6.147   1.225   5.674  0.5995 -0.6544  0.7175
24032SOL    HW174349   6.151   1.215   5.769  1.3521  2.8793  1.1939
24032SOL    HW274350   6.233   1.261   5.650 -0.1369  0.0661 -1.0316
24033SOL     OW74351   1.017   7.102   2.961  0.1403  0.4261  0.5134
24033SOL    HW174352   1.029   7.047   2.884 -0.4006 -0.0006  0.7290
24033SOL    HW274353   1.106   7.129   2.985  0.3610  0.1009  0.0862
24034SOL     OW74354   7.393   7.356   2.168 -0.0389 -0.1485 -0.6175
24034SOL    HW174355   7.371   7.440   2.209 -1.3061  0.0880 -1.7088
24034SOL    HW274356   7.356   7.290   2.228  0.2244  0.0924 -0.1857
24035SOL     OW74357   6.023   1.271   8.507 -0.0992 -0.7414 -0.1337
24035SOL    HW174358   6.008   1.210   8.579  0.2135  2.3747  2.8610
24035SOL    HW274359   6.105   1.241   8.467  0.7837 -1.5705  2.1023
24036SOL     OW74360   8.566   9.406   0.580  0.3202  0.0416  0.6547
24036SOL    HW174361   8.640   9.457   0.546  0.5897 -0.6776  0.1173
24036SOL    HW274362   8.491   9.437   0.530  0.7018 -0.9665 -0.6290
24037SOL     OW74363   5.759   7.967   4.128 -0.0907  0.5486  0.0706
24037SOL    HW174364   5.797   7.974   4.040 -2.8663 -0.5097 -1.3457
24037SOL    HW274365   5.739   8.057   4.153 -0.9776  0.7537 -1.2703
24038SOL     OW74366   2.721   9.006   6.992 -0.3509  0.0237 -0.5730
24038SOL    HW174367   2.711   8.937   7.058  1.0772  1.1726  0.9220
24038SOL    HW274368   2.783   8.970   6.929 -0.0372 -0.2654 -0.1052
24039SOL     OW74369   5.358   0.278   8.981 -0.0542  0.7341  0.6920
24039SOL    HW174370   5.399   0.192   8.985 -1.3609  0.0698  0.3948
24039SOL    HW274371   5.404   0.323   8.910  0.1100 -0.0135  0.3102
24040SOL     OW74372   6.798   3.241   1.270  0.4440  0.4355 -0.5482
24040SOL    HW174373   6.751   3.273   1.193 -0.3088  0.6303 -0.0161
24040SOL    HW274374   6.827   3.320   1.315 -1.8023  0.4577  1.0048
24041SOL     OW74375   4.767   1.360   6.582 -0.1718 -0.3430  0.0357
24041SOL    HW174376   4.821   1.316   6.647 -2.0207 -0.7296  1.3868
24041SOL    HW274377   4.789   1.452   6.590  1.1014 -0.6058 -0.2644
24042SOL     OW74378   3.976   3.633   0.132  0.2664  0.1876 -0.1613
24042SOL    HW174379   4.014   3.624   0.220 -1.7151 -1.3014  0.6111
24042SOL    HW274380   4.049   3.618   0.073  1.3397 -0.3068  1.2335
24043SOL     OW74381   6.370   9.749   6.643 -0.5487  0.2039  0.1434
24043SOL    HW174382   6.357   9.731   6.550  2.2596 -0.3955 -0.2263
24043SOL    HW274383   6.369   9.844   6.650 -1.4768  0.2408 -0.3664
24044SOL     OW74384   1.188   5.259   9.068  0.1119  0.1864 -0.2324
24044SOL    HW174385   1.183   5.307   8.986 -0.4731 -0.3520 -0.5214
24044SOL    HW274386   1.226   5.174   9.045  1.2779  0.5428  0.2990
24045SOL     OW74387   2.809   4.283   2.080 -0.5101  0.0428 -0.2124
24045SOL    HW174388   2.818   4.368   2.037 -0.5779 -0.8020 -1.9648
24045SOL    HW274389   2.770   4.304   2.165 -0.6486  1.7467 -0.6510
24046SOL     OW74390   5.208   8.461   6.050  0.9783  0.1900 -0.1610
24046SOL    HW174391   5.187   8.540   6.101  0.0930  0.7290 -1.2950
24046SOL    HW274392   5.174   8.389   6.103  1.8174  0.5497  0.9052
24047SOL     OW74393   5.261   2.106   3.284 -0.1977  0.1740  0.1045
24047SOL    HW174394   5.200   2.078   3.217 -0.3732  1.1428 -0.1586
24047SOL    HW274395   5.286   2.026   3.330 -0.8208 -0.3650 -0.4894
24048SOL     OW74396   0.699   3.766   8.083  0.1463 -0.4033 -0.3649
24048SOL    HW174397   0.608   3.753   8.111  0.9704 -0.0076  2.8746
24048SOL    HW274398   0.706   3.859   8.066 -0.0079 -0.4025 -0.4273
24049SOL     OW74399   4.260   1.088  10.374  0.4443 -0.2522  0.1648
24049SOL    HW174400   4.203   1.060  10.446 -2.1749  1.8917 -0.9164
24049SOL    HW274401   4.256   1.016  10.311  1.3379 -1.3706  1.3319
24050SOL     OW74402   1.541   1.171   7.881 -0.3226  0.0294  0.0787
24050SOL    HW174403   1.449   1.193   7.892 -0.1128  0.4357  1.2293
24050SOL    HW274404   1.559   1.109   7.952  0.0851 -0.7140 -0.6618
24051SOL     OW74405   3.878   4.836   3.060 -1.0699 -0.3174  0.7176
24051SOL    HW174406   3.950   4.795   3.108 -1.1018  0.0706  1.1048
24051SOL    HW274407   3.803   4.828   3.119 -1.2703 -0.4353  0.4484
24052SOL     OW74408   0.921   2.267   9.342 -0.3841  0.0632  0.0612
24052SOL    HW174409   0.993   2.271   9.279  0.3983 -0.4390  0.8969
24052SOL    HW274410   0.866   2.194   9.312  0.1744 -0.4014  0.1592
24053SOL     OW74411   9.569   7.188   6.116 -0.0254 -0.4432  0.1689
24053SOL    HW174412   9.649   7.138   6.098  1.3914  0.5765  2.9546
24053SOL    HW274413   9.594   7.279   6.099  0.4424  0.2137  3.6819
24054SOL     OW74414   5.211   3.620   6.827  0.4501  0.0447  0.1937
24054SOL    HW174415   5.174   3.663   6.904 -0.4707 -0.9164  0.3020
24054SOL    HW274416   5.142   3.624   6.761  1.2823  0.9801 -0.6548
24055SOL     OW74417   3.594   2.620   5.435  0.0392  0.2201  0.6888
24055SOL    HW174418   3.625   2.541   5.480 -0.0760  0.8189  1.8837
24055SOL    HW274419   3.674   2.660   5.400  0.0336 -0.6974 -0.4225
24056SOL     OW74420   4.343   9.934   9.705  0.2558  0.0742  0.5090
24056SOL    HW174421   4.414   9.917   9.768  1.1947  1.2835 -0.1917
24056SOL    HW274422   4.315  10.023   9.723 -0.3512 -0.0175  0.0530
24057SOL     OW74423   5.212  10.010   7.749 -0.1195 -0.0187  0.1222
24057SOL    HW174424   5.268   9.990   7.824  0.1621  0.7229  0.1198
24057SOL    HW274425   5.264   9.983   7.672 -0.6637 -1.3775  0.1990
24058SOL     OW74426   8.433   0.937   9.770 -0.1008  0.0304 -0.4328
24058SOL    HW174427   8.350   0.984   9.772  0.6187  1.4472 -1.4512
24058SOL    HW274428   8.497   1.003   9.744  1.2040 -1.2351 -0.5906
24059SOL     OW74429   1.695   8.714   1.560  0.3408  0.1502 -0.0589
24059SOL    HW174430   1.726   8.793   1.604  2.4287  0.3974 -1.8435
24059SOL    HW274431   1.743   8.712   1.478 -0.8237 -2.1808 -0.7520
24060SOL     OW74432   9.022   9.022   9.421  0.2364 -0.0382  0.4966
24060SOL    HW174433   9.028   9.050   9.512  1.5916  1.3503  0.0155
24060SOL    HW274434   9.100   8.968   9.407 -1.3341 -2.6114  0.8507
24061SOL     OW74435   5.474   3.230   9.112 -0.4581 -0.1659  0.1480
24061SOL    HW174436   5.555   3.274   9.138 -0.1810 -1.3484  1.4295
24061SOL    HW274437   5.410   3.257   9.178 -0.2563 -1.6635  1.0210
24062SOL     OW74438   9.490   0.603   4.762  0.5487 -0.0346 -0.2595
24062SOL    HW174439   9.402   0.565   4.757 -0.2622  1.7927 -1.3320
24062SOL    HW274440   9.548   0.535   4.731 -0.5738 -1.0766 -0.1461
24063SOL     OW74441   0.744   0.287   4.829 -0.6946  0.0743  0.2597
24063SOL    HW174442   0.742   0.248   4.917 -2.9214  2.0021  1.1776
24063SOL    HW274443   0.781   0.375   4.843 -0.3998  0.1474 -0.8882
24064SOL     OW74444   7.290   4.500   0.439  0.1687  0.1996 -0.0587
24064SOL    HW174445   7.381   4.521   0.459  0.2772 -0.1073 -0.2299
24064SOL    HW274446   7.294   4.444   0.362 -0.1805  0.3946 -0.2253
24065SOL     OW74447   8.952   7.731  10.102  0.1888 -0.0442 -0.2156
24065SOL    HW174448   8.874   7.774  10.136 -0.7232 -1.6561 -0.1528
24065SOL    HW274449   9.018   7.743  10.170 -1.7501 -3.7547  2.6776
24066SOL     OW74450   4.141   6.087   3.999  0.0608  0.4678 -0.3612
24066SOL    HW174451   4.096   6.077   4.083  0.9270  0.3258  0.0957
24066SOL    HW274452   4.116   6.174   3.969 -0.1942  0.5508  0.0774
24067SOL     OW74453   5.042   1.264   4.210 -0.4815 -0.1576  0.0608
24067SOL    HW174454   5.033   1.233   4.120 -1.2990 -0.9372  0.4045
24067SOL    HW274455   5.120   1.219   4.244  0.2530  0.6803 -0.4634
24068SOL     OW74456   2.812   5.299   7.208 -0.3543 -0.2120  0.3873
24068SOL    HW174457   2.834   5.265   7.121 -1.5315 -1.6866  0.6199
24068SOL    HW274458   2.896   5.327   7.244  0.4278 -1.2296 -0.5427
24069SOL     OW74459   0.487   8.686   2.041 -1.0157  0.0929 -0.2370
24069SOL    HW174460   0.427   8.623   2.001 -1.1413 -1.4340  2.1852
24069SOL    HW274461   0.528   8.730   1.966 -2.0417 -1.7888 -2.0159
24070SOL     OW74462   6.665   1.955   9.906 -0.3885  0.1781 -0.1302
24070SOL    HW174463   6.578   1.942   9.942 -0.6185 -1.0199 -1.0615
24070SOL    HW274464   6.662   2.041   9.865 -0.7042  0.7181  0.9888
24071SOL     OW74465   0.832   4.592   6.905  0.6571  0.0528 -0.2529
24071SOL    HW174466   0.846   4.548   6.989 -1.0881 -1.5729 -0.7387
24071SOL    HW274467   0.827   4.685   6.927 -1.0806 -0.4208  1.6777
24072SOL     OW74468   9.651   2.699   2.933 -0.4030  0.7115 -0.3649
24072SOL    HW174469   9.711   2.773   2.935 -0.4451  0.7408 -0.1674
24072SOL    HW274470   9.586   2.723   2.867 -0.1290  0.6234 -0.6756
24073SOL     OW74471  10.444   5.050   2.724  0.3225  0.7173 -0.3870
24073SOL    HW174472  10.354   5.035   2.753  0.3313  1.7680  0.2208
24073SOL    HW274473  10.459   4.984   2.657 -1.6055  1.7583 -1.9470
24074SOL     OW74474   1.941   0.180   3.766  0.0025 -0.4027  0.0890
24074SOL    HW174475   1.902   0.244   3.706  1.7003 -1.3481 -2.1550
24074SOL    HW274476   1.995   0.232   3.826 -0.0804  0.4165 -0.5387
24075SOL     OW74477   9.639   0.968   3.300 -0.8130 -0.6423  0.3700
24075SOL    HW174478   9.547   0.941   3.294 -1.4969  1.6970 -0.4819
24075SOL    HW274479   9.686   0.906   3.244 -2.3335 -0.0565 -1.6384
24076SOL     OW74480   0.960   8.347  10.124  0.0394 -0.0978 -0.6706
24076SOL    HW174481   1.003   8.267  10.093 -1.2962 -0.3339 -2.0422
24076SOL    HW274482   0.935   8.393  10.044 -1.3017  0.5401  0.0821
24077SOL     OW74483   4.443   1.783   0.389 -0.1603 -0.1321  0.2758
24077SOL    HW174484   4.510   1.729   0.349  0.3513  0.6868 -0.0018
24077SOL    HW274485   4.373   1.722   0.413  0.5228 -0.9400  0.2384
24078SOL     OW74486   2.668   0.102   1.355 -0.2680 -0.3331  0.2352
24078SOL    HW174487   2.738   0.165   1.336 -0.6337 -0.1694 -0.6073
24078SOL    HW274488   2.699   0.055   1.432  0.5135  0.1255  0.2148
24079SOL     OW74489   8.234   1.100   5.238 -0.0295 -0.4884  0.1168
24079SOL    HW174490   8.236   1.196   5.236 -0.7007 -0.4415 -2.1519
24079SOL    HW274491   8.324   1.075   5.257  0.3343  0.6164 -0.0418
24080SOL     OW74492   7.936   9.462   5.265 -0.8929  0.3905 -0.3096
24080SOL    HW174493   7.905   9.374   5.287  1.1342 -0.3871 -0.3392
24080SOL    HW274494   7.963   9.500   5.349 -0.1947  0.3366 -0.5097
24081SOL     OW74495   7.629   7.691   8.647  0.9210 -0.2087  0.5691
24081SOL    HW174496   7.646   7.712   8.739  1.6792  0.3661  0.3067
24081SOL    HW274497   7.597   7.601   8.649  1.6837 -0.4830  1.3300
24082SOL     OW74498   2.813   9.821   4.131  0.5139  0.0815 -0.1245
24082SOL    HW174499   2.867   9.870   4.193 -0.3648  1.4242 -0.3573
24082SOL    HW274500   2.781   9.888   4.070 -1.7927 -0.5346  0.3069
24083SOL     OW74501   1.205   9.747   2.821 -0.2441 -0.0719  0.3904
24083SOL    HW174502   1.148   9.679   2.786  0.5000 -0.7673  0.4883
24083SOL    HW274503   1.239   9.709   2.902  0.0052  0.5117  0.5608
24084SOL     OW74504   8.243   1.573   6.015  0.0849  0.7342  0.6323
24084SOL    HW174505   8.222   1.630   6.089  0.3836  2.2608 -0.4162
24084SOL    HW274506   8.323   1.610   5.978 -0.6012  0.6238 -1.0484
24085SOL     OW74507   3.486  10.581   2.831  0.3081  0.2493  0.7174
24085SOL    HW174508   3.523  10.540   2.909  0.9149  0.5782  0.6078
24085SOL    HW274509   3.453  10.508   2.779  0.8409 -0.0540  0.7990
24086SOL     OW74510  10.363   1.366   8.244 -0.4558  0.4503  0.3388
24086SOL    HW174511  10.405   1.309   8.308  0.4107 -1.1738 -1.5880
24086SOL    HW274512  10.283   1.319   8.219 -1.4693  1.6829  1.0874
24087SOL     OW74513   7.377   1.090   6.825  0.2390 -0.3232 -0.2399
24087SOL    HW174514   7.360   1.001   6.792 -0.7620  0.2819 -1.4410
24087SOL    HW274515   7.316   1.145   6.777  0.2429  0.9193  1.1236
24088SOL     OW74516   2.038   8.233   5.231  0.2781 -0.6153  0.1306
24088SOL    HW174517   2.006   8.323   5.229  1.2478 -0.2486  0.6070
24088SOL    HW274518   1.977   8.185   5.175  0.3487  0.5279 -0.9631
24089SOL     OW74519   3.249   0.061   3.177  0.1715  0.1385 -0.2457
24089SOL    HW174520   3.195  -0.018   3.188  0.8950 -0.4021 -0.4612
24089SOL    HW274521   3.334   0.036   3.211  0.3875  0.8692 -0.2386
24090SOL     OW74522   8.033   6.339   6.566  0.0216  1.1077 -0.5779
24090SOL    HW174523   8.068   6.272   6.507  0.2249  0.0872  0.6511
24090SOL    HW274524   8.090   6.336   6.643 -1.4852  0.8817  0.5765
24091SOL     OW74525   4.322   2.345   7.971  0.0543 -0.5557 -0.2263
24091SOL    HW174526   4.342   2.437   7.952 -1.0139 -0.0152  1.1303
24091SOL    HW274527   4.270   2.317   7.896 -1.8807  0.7713  0.5358
24092SOL     OW74528   2.167   6.913   6.664 -0.5066  0.3123  0.3292
24092SOL    HW174529   2.149   6.827   6.625  0.6960 -0.1663  0.7596
24092SOL    HW274530   2.095   6.927   6.725 -1.5755  0.3590 -0.9100
24093SOL     OW74531   8.219   4.619   3.755  0.1392 -0.1369 -0.0322
24093SOL    HW174532   8.306   4.579   3.766  0.4162  0.8418  1.9141
24093SOL    HW274533   8.159   4.545   3.747  0.9220 -0.9066  0.8721
24094SOL     OW74534   5.660   1.410   8.354 -0.5046  0.1565  0.2916
24094SOL    HW174535   5.656   1.489   8.407  1.2594  0.7816 -0.4561
24094SOL    HW274536   5.627   1.437   8.268  0.7368  0.2821 -0.1619
24095SOL     OW74537   9.207   3.940   3.771  0.8344 -0.1418 -0.6515
24095SOL    HW174538   9.223   4.009   3.707  3.7556  0.6616  0.7874
24095SOL    HW274539   9.274   3.875   3.754  0.9729 -0.4317  0.8499
24096SOL     OW74540   7.225   0.780   4.435 -0.5253 -0.8971  0.4381
24096SOL    HW174541   7.199   0.741   4.518 -1.0247 -3.2666 -0.7505
24096SOL    HW274542   7.310   0.742   4.415  0.4878  1.1104  0.7194
24097SOL     OW74543   9.164   9.218   2.588 -0.2754 -0.1878 -0.2783
24097SOL    HW174544   9.130   9.133   2.615  0.8686 -0.8707 -0.9462
24097SOL    HW274545   9.210   9.201   2.506 -0.3509  1.1477 -0.6204
24098SOL     OW74546   2.269   1.195   7.614 -0.2019 -0.0800 -0.1794
24098SOL    HW174547   2.260   1.291   7.613  1.5765  0.1316  0.6148
24098SOL    HW274548   2.179   1.163   7.620 -0.7574  1.5980  1.6362
24099SOL     OW74549   1.620   1.538   9.160  0.2859 -0.6273 -0.1507
24099SOL    HW174550   1.561   1.605   9.125  1.0638 -0.5225 -1.3171
24099SOL    HW274551   1.578   1.510   9.241 -0.7174  0.3455 -0.2997
24100SOL     OW74552   7.071   8.023   3.930  0.3509  0.3895  0.9601
24100SOL    HW174553   7.055   8.051   4.020 -0.9209  3.9645 -0.2259
24100SOL    HW274554   7.165   8.035   3.918  0.3823  0.7681  1.5228
24101SOL     OW74555   8.987   1.311   3.983 -0.0985  0.0651  0.0970
24101SOL    HW174556   8.914   1.283   3.927 -1.9194  1.4624  1.6076
24101SOL    HW274557   9.043   1.234   3.990 -2.1203 -1.5062 -0.1397
24102SOL     OW74558   3.239   0.041   7.721  0.2938  0.3156  0.4412
24102SOL    HW174559   3.269   0.128   7.692 -1.2483  0.8761  0.4675
24102SOL    HW274560   3.319  -0.001   7.755  1.2506  1.3575 -0.4270
24103SOL     OW74561   9.087   8.813   1.471  0.2658 -0.2397 -0.0838
24103SOL    HW174562   9.176   8.814   1.436 -0.0169 -2.7036 -1.1191
24103SOL    HW274563   9.037   8.871   1.414  0.6491 -1.1089 -1.3336
24104SOL     OW74564   8.890   4.146   6.412 -0.0918 -0.0244  0.4639
24104SOL    HW174565   8.826   4.158   6.342  0.9530 -0.9177 -0.6956
24104SOL    HW274566   8.902   4.233   6.450 -0.9783  0.3997 -0.2049
24105SOL     OW74567   9.789   2.063   3.752 -0.2278  0.0929  0.2590
24105SOL    HW174568   9.835   2.020   3.680 -0.4533  1.6757 -0.9090
24105SOL    HW274569   9.856   2.117   3.795 -0.2199 -0.3998  0.8690
24106SOL     OW74570   3.862   6.456   2.958 -0.2337 -0.6534 -0.1059
24106SOL    HW174571   3.854   6.537   3.009  0.5341 -1.0069  0.5823
24106SOL    HW274572   3.952   6.427   2.972 -0.7358 -2.0949  0.3581
24107SOL     OW74573   3.774   2.322  10.138 -0.0721  0.3700  0.3239
24107SOL    HW174574   3.738   2.374  10.066  0.5586  1.4466  0.7631
24107SOL    HW274575   3.712   2.333  10.210  0.5830  1.4365  0.7645
24108SOL     OW74576   5.408   0.347   6.916 -0.3343 -0.3037 -0.0925
24108SOL    HW174577   5.471   0.420   6.910 -0.8822  0.2138  0.3377
24108SOL    HW274578   5.459   0.273   6.948  0.1841 -0.0459 -0.3136
24109SOL     OW74579   3.712   4.629   4.887  0.2467  0.3034 -0.4015
24109SOL    HW174580   3.694   4.723   4.892  0.2592  0.3429 -1.0702
24109SOL    HW274581   3.650   4.596   4.822  0.7008 -0.0344 -0.6685
24110SOL     OW74582   5.211   2.200   5.733 -0.2716  0.6639  1.0061
24110SOL    HW174583   5.151   2.249   5.789 -0.3867 -0.0590  1.5389
24110SOL    HW274584   5.267   2.152   5.794  1.1208  1.6150  0.5234
24111SOL     OW74585   3.256   6.164   6.702  0.5911  0.0632 -0.0501
24111SOL    HW174586   3.176   6.215   6.708 -0.5682 -1.4732 -1.5593
24111SOL    HW274587   3.247   6.096   6.770  0.5529 -0.1997 -0.3178
24112SOL     OW74588   0.214   4.698   8.528 -0.2427 -0.6634 -0.7371
24112SOL    HW174589   0.228   4.781   8.481  0.2019  0.8296  1.8364
24112SOL    HW274590   0.120   4.695   8.544 -0.0565  0.2503  0.6441
24113SOL     OW74591   4.655   2.228   4.363 -0.0559 -0.7574  0.7405
24113SOL    HW174592   4.714   2.260   4.431  0.2633  1.3693 -0.4410
24113SOL    HW274593   4.600   2.303   4.342 -0.3629 -1.4392 -1.1127
24114SOL     OW74594   1.785   2.414   3.328  0.0057  0.4754  0.6356
24114SOL    HW174595   1.809   2.390   3.239 -0.9460  0.4130  0.3797
24114SOL    HW274596   1.749   2.503   3.321  0.1507  0.5677  0.9979
24115SOL     OW74597   5.022   8.860   7.195  0.4605  0.0012  0.0881
24115SOL    HW174598   4.999   8.891   7.107  2.2188  3.8632  0.7761
24115SOL    HW274599   5.102   8.808   7.182 -0.2188 -0.8907 -0.6988
24116SOL     OW74600   4.824   9.093   1.476  0.1427 -0.0717 -0.1485
24116SOL    HW174601   4.906   9.135   1.501 -0.5162  0.9789  0.3031
24116SOL    HW274602   4.827   9.007   1.517  0.5111  0.3940  0.8163
24117SOL     OW74603   5.727   1.342  10.531  0.1101  0.4107  0.0178
24117SOL    HW174604   5.759   1.387  10.609 -0.1664  0.3373  0.1739
24117SOL    HW274605   5.652   1.393  10.502  0.8796  1.0917 -0.8636
24118SOL     OW74606   5.600   1.364   2.434  0.2763 -0.1622 -0.1402
24118SOL    HW174607   5.596   1.269   2.448 -0.3287 -0.2018 -0.5641
24118SOL    HW274608   5.519   1.385   2.389  0.7518  0.4457 -0.7311
24119SOL     OW74609   1.639   6.938   5.039  0.4227  0.3534  0.1184
24119SOL    HW174610   1.555   6.942   4.994  0.5968  0.9962 -0.1538
24119SOL    HW274611   1.703   6.926   4.969  0.6527  0.9331  0.2237
24120SOL     OW74612   4.954   6.086   7.021  0.1792 -0.2128 -0.0476
24120SOL    HW174613   4.957   6.181   7.010 -0.3973 -0.3262 -1.4179
24120SOL    HW274614   5.013   6.068   7.094  0.4936  1.1733  0.0615
24121SOL     OW74615   2.374   4.965   4.727  0.2561 -0.2801  0.2293
24121SOL    HW174616   2.437   5.035   4.746 -0.2767  0.0660  0.7490
24121SOL    HW274617   2.292   4.995   4.766  0.1599 -1.4738  1.0012
24122SOL     OW74618   3.654   5.715   2.855  0.4178 -0.5901 -0.7201
24122SOL    HW174619   3.568   5.699   2.894  0.1541 -0.7823 -1.3759
24122SOL    HW274620   3.703   5.633   2.870  0.5746 -0.3922 -0.1284
24123SOL     OW74621   4.778   8.037   5.346 -0.5421  0.2865  0.5002
24123SOL    HW174622   4.692   7.994   5.353 -0.2009 -0.5826 -0.3198
24123SOL    HW274623   4.840   7.964   5.342  0.1088  0.8686 -0.3077
24124SOL     OW74624   1.791   2.294   1.915  0.0321  0.3162 -0.4408
24124SOL    HW174625   1.856   2.252   1.859 -0.4938  1.1131 -1.6757
24124SOL    HW274626   1.722   2.228   1.926  1.4915 -0.9647  1.8155
24125SOL     OW74627   8.067   9.200   6.057  0.2438 -0.5229  0.7124
24125SOL    HW174628   8.062   9.173   5.965 -0.9487  0.3681  0.4880
24125SOL    HW274629   8.005   9.273   6.063 -1.1768 -1.7992  2.6353
24126SOL     OW74630   0.790   6.649   4.394 -0.3890 -0.0457 -0.4005
24126SOL    HW174631   0.700   6.671   4.419  0.2734 -0.6156  2.9372
24126SOL    HW274632   0.810   6.570   4.443  1.3786 -1.0578 -2.5442
24127SOL     OW74633   4.659   8.390   8.028 -0.5455 -0.4349  0.5317
24127SOL    HW174634   4.694   8.325   7.966 -1.2579 -0.8609  0.5602
24127SOL    HW274635   4.703   8.371   8.111 -0.5320 -0.7018  0.4646
24128SOL     OW74636   5.567   1.734   9.920  0.5185  0.3026  0.1042
24128SOL    HW174637   5.511   1.659   9.942  1.8288 -1.1885 -1.4308
24128SOL    HW274638   5.510   1.792   9.870 -0.2821 -0.0558  0.5687
24129SOL     OW74639   7.893   5.884   4.809  0.0570  0.5015 -0.1358
24129SOL    HW174640   7.927   5.911   4.894 -0.0673  0.6033 -0.1167
24129SOL    HW274641   7.857   5.797   4.825  0.0353  0.5194 -0.0846
24130SOL     OW74642   6.917   5.045   2.245 -0.0338  0.0432 -0.3081
24130SOL    HW174643   6.822   5.041   2.257 -0.2892  1.1655 -1.6828
24130SOL    HW274644   6.945   5.116   2.304 -0.0380 -0.2741  0.0825
24131SOL     OW74645   1.729   9.475   1.606  0.7776  0.1515  0.4080
24131SOL    HW174646   1.637   9.452   1.622  1.0692 -1.4976 -0.1357
24131SOL    HW274647   1.727   9.528   1.527  0.5833 -3.3209 -2.1301
24132SOL     OW74648   1.650   8.102   0.746 -0.5075 -0.2312  0.2750
24132SOL    HW174649   1.695   8.183   0.768 -2.3166  1.0202 -0.3786
24132SOL    HW274650   1.715   8.033   0.761  0.8575  1.2540  1.5376
24133SOL     OW74651   0.353   8.600   8.761 -0.0617  0.1481 -0.1202
24133SOL    HW174652   0.288   8.629   8.697 -1.7643  0.3365  1.6143
24133SOL    HW274653   0.410   8.677   8.773 -0.6334  0.6136 -0.3115
24134SOL     OW74654   1.247   2.774   1.599  0.5060 -0.0923  0.0010
24134SOL    HW174655   1.248   2.836   1.672  4.7268 -3.0379  2.9097
24134SOL    HW274656   1.199   2.699   1.632  0.7171 -0.7212 -1.0596
24135SOL     OW74657   4.664   3.083   9.996  0.6817 -0.0009 -0.4844
24135SOL    HW174658   4.703   3.110  10.079  0.7466  3.2349 -1.4125
24135SOL    HW274659   4.570   3.081  10.013  0.6559  1.1734 -0.4245
24136SOL     OW74660   1.802   5.478   5.811  0.2503  0.2025 -0.5214
24136SOL    HW174661   1.891   5.513   5.815  0.5198 -0.2500 -2.0705
24136SOL    HW274662   1.801   5.410   5.879  1.6392 -0.9626 -1.6089
24137SOL     OW74663   5.531   8.577   8.026  0.2544  0.0510 -0.2285
24137SOL    HW174664   5.537   8.586   7.931 -1.4739  0.2526 -0.3617
24137SOL    HW274665   5.464   8.509   8.040  0.4599  0.0433  0.8349
24138SOL     OW74666   7.232   2.257   3.004 -0.3025 -0.2837 -0.1161
24138SOL    HW174667   7.198   2.311   3.076 -0.0678 -0.1180 -0.1298
24138SOL    HW274668   7.317   2.295   2.984 -0.2117 -0.5547 -0.2424
24139SOL     OW74669   2.647   0.092   8.841  0.2454  0.5156  0.2102
24139SOL    HW174670   2.584   0.091   8.913  0.1925  0.3308  0.1604
24139SOL    HW274671   2.647   0.184   8.812  0.9608  0.7922  1.0449
24140SOL     OW74672   0.884   6.310   6.167 -0.0529 -0.0215  0.0762
24140SOL    HW174673   0.860   6.402   6.163  0.3438  0.0512 -1.0472
24140SOL    HW274674   0.979   6.310   6.155 -0.0387 -0.5703  0.1505
24141SOL     OW74675   6.737   2.152   0.619 -0.0712  0.8044  0.2601
24141SOL    HW174676   6.787   2.106   0.687 -1.0449 -1.1594 -0.2956
24141SOL    HW274677   6.693   2.223   0.666 -0.3862 -0.2500  1.6275
24142SOL     OW74678   1.783   3.353   7.554 -0.1581  0.3345  0.7892
24142SOL    HW174679   1.859   3.319   7.601 -0.9704 -0.9824  1.2003
24142SOL    HW274680   1.803   3.339   7.461  0.7720  1.4928  0.7955
24143SOL     OW74681   4.701   2.837   0.857  0.2462  0.1470  0.2083
24143SOL    HW174682   4.683   2.849   0.764 -0.2765 -0.8114  0.1727
24143SOL    HW274683   4.622   2.870   0.901  0.2078 -0.0188  0.2675
24144SOL     OW74684   4.506  10.021   0.892 -0.0257 -0.0998  0.2655
24144SOL    HW174685   4.543   9.941   0.929 -0.2059 -0.7275 -0.8686
24144SOL    HW274686   4.419   9.995   0.862 -0.4227  0.7430  0.6543
24145SOL     OW74687   8.666   8.586   9.578 -0.4884  0.3786 -0.2940
24145SOL    HW174688   8.614   8.505   9.573 -0.6180  0.5036 -1.1323
24145SOL    HW274689   8.603   8.652   9.607 -0.1319 -0.0140  1.5334
24146SOL     OW74690   7.186   0.780   1.090 -0.1116  0.0042 -0.5770
24146SOL    HW174691   7.139   0.834   1.153 -0.8516 -0.1326 -0.9882
24146SOL    HW274692   7.264   0.830   1.067  0.4844 -0.2097  0.8839
24147SOL     OW74693   4.614   5.081   7.375 -0.5661  0.4577  0.5936
24147SOL    HW174694   4.695   5.090   7.425  1.3672  1.2254 -2.4112
24147SOL    HW274695   4.611   4.988   7.353  2.2171  1.0033 -3.1059
24148SOL     OW74696   7.822   8.427   7.462  0.5567 -0.2976  0.1916
24148SOL    HW174697   7.772   8.487   7.518 -0.0387 -0.7296  0.1331
24148SOL    HW274698   7.914   8.451   7.477  0.3179  1.1409 -0.3988
24149SOL     OW74699   4.386   3.874   3.194 -0.4141  0.5279  0.5169
24149SOL    HW174700   4.370   3.839   3.106  1.2752  0.5751  0.1568
24149SOL    HW274701   4.299   3.888   3.230 -1.2548  2.4903 -1.9291
24150SOL     OW74702   1.940   1.409   3.468  0.1904 -0.0730  0.0851
24150SOL    HW174703   1.901   1.442   3.549  0.2236  0.7792 -0.2346
24150SOL    HW274704   1.950   1.315   3.483 -0.8631 -0.1146  0.6330
24151SOL     OW74705   2.528   3.142   1.244  0.5956 -0.2377  0.0770
24151SOL    HW174706   2.584   3.133   1.321 -0.1870  0.9932  0.8320
24151SOL    HW274707   2.459   3.077   1.256 -0.1747  0.7143  1.0525
24152SOL     OW74708   2.521  10.619   2.381  0.0785  0.8550 -0.0820
24152SOL    HW174709   2.529  10.524   2.385  0.6974  0.8699 -0.6731
24152SOL    HW274710   2.460  10.642   2.451 -0.3011 -0.0013 -0.1242
24153SOL     OW74711   5.104   1.004  10.649  0.0615 -0.0877  0.2445
24153SOL    HW174712   5.133   0.912  10.647  1.2474  0.2737 -0.7378
24153SOL    HW274713   5.153   1.043  10.721  0.8178  0.1393 -0.3774
24154SOL     OW74714   9.763   1.060   7.752 -0.4606  0.3297 -0.1977
24154SOL    HW174715   9.829   1.005   7.794 -1.1685  1.2869  2.3016
24154SOL    HW274716   9.813   1.133   7.715  0.3291 -1.2391 -2.4371
24155SOL     OW74717  10.446   2.933   3.010  0.1104 -0.4782  0.3041
24155SOL    HW174718  10.371   2.992   3.009 -0.2428 -0.9167  0.2090
24155SOL    HW274719  10.415   2.858   3.061  0.0298 -1.2345 -0.8221
24156SOL     OW74720   4.941   8.971   4.997 -0.4755 -0.3030  0.3607
24156SOL    HW174721   4.919   9.048   4.945 -1.5095  0.3466  1.7052
24156SOL    HW274722   4.934   8.898   4.935 -0.0781  0.6015 -0.7891
24157SOL     OW74723   7.653   2.519   5.852  0.2977  0.6864 -0.8911
24157SOL    HW174724   7.586   2.549   5.914 -0.2333 -0.0284 -1.1019
24157SOL    HW274725   7.672   2.595   5.798 -0.1740  0.9620 -0.6748
24158SOL     OW74726   5.024   8.423   9.266 -0.0520 -0.0193  0.2779
24158SOL    HW174727   5.030   8.462   9.353 -2.8856  1.1429  0.0798
24158SOL    HW274728   5.004   8.497   9.208 -1.5742 -1.1755 -0.7665
24159SOL     OW74729   7.338   0.376   1.020  0.3634 -0.3336 -0.1389
24159SOL    HW174730   7.326   0.408   0.931  1.4855 -1.7662 -0.8438
24159SOL    HW274731   7.250   0.378   1.059 -0.6203 -1.9743 -2.0953
24160SOL     OW74732   0.586   9.076   2.740 -0.3859  0.0347  0.2275
24160SOL    HW174733   0.658   9.017   2.717  0.3509 -0.3144  3.0341
24160SOL    HW274734   0.508   9.036   2.703  0.1249 -2.6417  1.8126
24161SOL     OW74735   9.889   1.320   8.059  0.6551 -0.3828 -0.0383
24161SOL    HW174736   9.964   1.275   8.020  1.0894 -0.1893  0.5662
24161SOL    HW274737   9.899   1.411   8.032 -0.7590 -0.7481 -2.1019
24162SOL     OW74738   7.900   9.273  10.139 -0.5817 -0.3630  0.1555
24162SOL    HW174739   7.991   9.272  10.109 -1.0214 -1.5895 -1.2126
24162SOL    HW274740   7.855   9.210  10.083 -2.3255  0.3460  0.6968
24163SOL     OW74741   6.246   6.078   7.968  0.1866  0.0245 -0.4767
24163SOL    HW174742   6.261   6.158   8.019  2.0148  0.5277 -1.7236
24163SOL    HW274743   6.266   6.007   8.029 -0.0419  0.5366  0.2114
24164SOL     OW74744   5.080   9.101   1.260 -0.9294 -0.3201 -0.0828
24164SOL    HW174745   5.016   9.078   1.192 -0.4432 -0.6779 -0.4306
24164SOL    HW274746   5.087   9.196   1.254 -0.3122 -0.4090 -1.0863
24165SOL     OW74747   9.361   8.490   9.671 -0.4652 -0.2436 -1.0500
24165SOL    HW174748   9.279   8.451   9.701  1.0042 -3.0627 -0.2280
24165SOL    HW274749   9.343   8.583   9.665 -3.1349 -0.4834  1.0762
24166SOL     OW74750   5.329   4.695   7.921 -0.1001 -0.1579 -0.3504
24166SOL    HW174751   5.346   4.786   7.945 -0.9344  0.1437 -0.8354
24166SOL    HW274752   5.293   4.701   7.832  0.8002 -1.0500 -0.7902
24167SOL     OW74753   6.829   2.824   7.854 -0.6233  0.4051  0.6145
24167SOL    HW174754   6.754   2.776   7.889 -1.3095  1.1532  0.2040
24167SOL    HW274755   6.801   2.915   7.855 -0.2843  0.5477 -0.8986
24168SOL     OW74756   4.318   2.594   3.135  0.4699 -0.2468 -0.2901
24168SOL    HW174757   4.303   2.619   3.227 -0.3323 -0.2725 -0.4061
24168SOL    HW274758   4.321   2.678   3.089 -2.0069 -0.2793 -0.6468
24169SOL     OW74759   0.589   8.121   5.295 -0.1318  0.0638  0.3130
24169SOL    HW174760   0.619   8.145   5.383 -0.2643 -0.9921  0.6673
24169SOL    HW274761   0.620   8.031   5.283  1.1919  0.6907 -1.3360
24170SOL     OW74762   6.912   8.653   7.422 -0.0179  0.9269 -0.1004
24170SOL    HW174763   6.825   8.620   7.445  0.5198  0.4380  1.3203
24170SOL    HW274764   6.965   8.573   7.409  0.4738  1.2247  0.0485
24171SOL     OW74765   9.748   4.298   1.413  0.4760  0.2655 -0.2447
24171SOL    HW174766   9.665   4.307   1.459  0.8959 -1.1926  0.8731
24171SOL    HW274767   9.737   4.219   1.359  1.8577 -1.3560  1.6860
24172SOL     OW74768   3.039   1.444   8.974 -0.3789 -0.7318 -0.1680
24172SOL    HW174769   3.128   1.479   8.977 -0.0203 -1.5507 -0.8479
24172SOL    HW274770   3.019   1.438   8.881 -0.8484 -1.2911 -0.0341
24173SOL     OW74771   1.518   5.725   7.032 -0.2749  0.5532  0.4856
24173SOL    HW174772   1.538   5.683   7.115 -0.7994 -0.6188  0.0362
24173SOL    HW274773   1.599   5.770   7.008  0.6598 -1.0508  0.5018
24174SOL     OW74774   4.444   3.267   4.130 -0.2480 -0.5300  1.1053
24174SOL    HW174775   4.372   3.328   4.147  0.5883  0.2903  1.8432
24174SOL    HW274776   4.495   3.310   4.061 -2.1782 -2.6168 -1.8318
24175SOL     OW74777   3.778   1.158   9.331  0.1395  0.4332  0.0120
24175SOL    HW174778   3.757   1.242   9.292 -2.4588  0.2743  0.8740
24175SOL    HW274779   3.693   1.120   9.353  1.3014 -0.3956  3.8347
24176SOL     OW74780   1.288   1.234   5.172 -0.4422  0.1461  0.6517
24176SOL    HW174781   1.228   1.160   5.159 -1.0253  0.2415  2.5367
24176SOL    HW274782   1.375   1.196   5.161 -0.7552  0.0296 -2.2613
24177SOL     OW74783  10.035   8.732   1.605  0.4021 -0.1147  0.0099
24177SOL    HW174784  10.035   8.827   1.614 -0.2506 -0.0824 -0.3089
24177SOL    HW274785  10.074   8.715   1.519  0.3097 -0.1199 -0.0316
24178SOL     OW74786   1.580   6.196   9.385  0.2726 -0.3496  0.4520
24178SOL    HW174787   1.555   6.204   9.477  0.8261 -0.3365  0.6044
24178SOL    HW274788   1.530   6.263   9.340 -0.2439 -0.5683  0.6948
24179SOL     OW74789   0.081   4.476   1.058 -0.0504 -0.0533  0.0020
24179SOL    HW174790   0.079   4.408   0.991 -0.9831  0.5705 -0.6265
24179SOL    HW274791   0.174   4.486   1.079  0.0744 -1.7566  0.3859
24180SOL     OW74792   9.795   0.591   1.023  0.0836 -0.2094 -0.1953
24180SOL    HW174793   9.870   0.648   1.040  0.2576 -0.3679 -0.4285
24180SOL    HW274794   9.738   0.643   0.966 -0.4310  0.2636  0.7320
24181SOL     OW74795   0.960   4.445   5.239  0.4043  0.1257  0.1096
24181SOL    HW174796   0.872   4.406   5.240  0.0428  0.6755 -2.5435
24181SOL    HW274797   0.943   4.539   5.241  0.9687  0.2213  0.2993
24182SOL     OW74798  10.471   4.913   3.022 -0.2844  0.1288  0.8416
24182SOL    HW174799  10.380   4.931   2.998 -0.1061 -0.5735 -0.4652
24182SOL    HW274800  10.508   4.999   3.043 -1.0061  0.5356  0.4736
24183SOL     OW74801   5.716   9.973   1.571  0.4060 -0.0414  0.3806
24183SOL    HW174802   5.642   9.913   1.562 -0.2106  0.7583 -0.0667
24183SOL    HW274803   5.770   9.935   1.640  0.4902 -1.5675 -0.4711
24184SOL     OW74804   4.799  10.439   5.410  0.2482 -0.0427  0.0498
24184SOL    HW174805   4.878  10.492   5.423  0.2416  0.0508 -0.2982
24184SOL    HW274806   4.788  10.434   5.315  0.0603 -0.3904  0.0888
24185SOL     OW74807   9.258   7.693  10.578  0.6526 -0.1938 -0.0817
24185SOL    HW174808   9.244   7.636  10.653 -1.4012  0.1334 -0.1728
24185SOL    HW274809   9.256   7.634  10.502  1.1540 -0.3211  0.0004
24186SOL     OW74810   4.237   4.657   4.138 -0.0516 -0.0591 -0.1540
24186SOL    HW174811   4.239   4.571   4.096  0.9098  0.6709 -1.6758
24186SOL    HW274812   4.147   4.664   4.172 -1.6992  0.1649 -4.0259
24187SOL     OW74813  10.197   4.399   9.349  0.7081 -0.3583  0.4393
24187SOL    HW174814  10.219   4.350   9.270 -0.5019 -2.1491  1.1344
24187SOL    HW274815  10.253   4.476   9.346  1.0648 -0.6332 -1.8790
24188SOL     OW74816   6.411   1.120   4.640 -0.6375 -0.2810 -0.9874
24188SOL    HW174817   6.371   1.181   4.702  0.0849 -1.0111  0.2287
24188SOL    HW274818   6.340   1.060   4.616  0.0314 -3.0472  2.9577
24189SOL     OW74819   8.963   9.800   3.302  0.1461 -0.3513  0.1114
24189SOL    HW174820   8.996   9.881   3.341 -2.4591  1.0015 -0.2707
24189SOL    HW274821   8.934   9.826   3.214 -0.8487 -1.6698  0.0253
24190SOL     OW74822   2.731   6.294   3.995  0.6474  0.4129  0.0761
24190SOL    HW174823   2.783   6.216   4.013  0.4946 -0.1491 -1.6650
24190SOL    HW274824   2.643   6.261   3.977  0.8380  0.7971 -1.8611
24191SOL     OW74825   9.849   2.690   1.819 -0.3815 -0.2359  0.2124
24191SOL    HW174826   9.784   2.623   1.799  0.0294 -0.5870  0.0425
24191SOL    HW274827   9.919   2.676   1.755 -0.8603  1.1666 -0.6440
24192SOL     OW74828   1.462   7.173   2.693 -0.0736 -0.1403  0.0442
24192SOL    HW174829   1.419   7.152   2.610  0.7005 -2.8698  0.2311
24192SOL    HW274830   1.511   7.253   2.676 -0.5253 -0.2482 -1.9056
24193SOL     OW74831   7.587   9.159   5.798  0.8752 -0.5972  0.5257
24193SOL    HW174832   7.557   9.073   5.768 -0.2352  0.0207 -0.2273
24193SOL    HW274833   7.641   9.191   5.726  0.3390 -0.1969  0.2923
24194SOL     OW74834   3.329  10.038   8.661 -0.4505 -0.6619 -0.1758
24194SOL    HW174835   3.274  10.023   8.737 -2.9579  0.4406 -1.6260
24194SOL    HW274836   3.359  10.129   8.671  0.0901 -0.8618  0.0177
24195SOL     OW74837  10.303   9.186   4.175 -0.0109 -0.1995 -0.3170
24195SOL    HW174838  10.383   9.234   4.194 -0.8944  1.7310 -1.2193
24195SOL    HW274839  10.275   9.149   4.259  0.4928  1.2135  0.4951
24196SOL     OW74840   6.286   0.619   3.269  0.4687 -0.2112  0.1246
24196SOL    HW174841   6.207   0.570   3.247  0.2284 -0.1374  0.7973
24196SOL    HW274842   6.355   0.578   3.215 -0.0169 -0.2767 -0.4585
24197SOL     OW74843   5.693   8.388  10.340 -0.0126  0.3028  0.2948
24197SOL    HW174844   5.770   8.421  10.386 -1.4869 -0.0955  3.3222
24197SOL    HW274845   5.640   8.466  10.323 -0.5688  0.2648  1.6454
24198SOL     OW74846   8.592   4.594   8.268 -0.0829  0.1209 -0.2379
24198SOL    HW174847   8.599   4.610   8.362  1.5479 -1.3021 -0.0473
24198SOL    HW274848   8.674   4.548   8.246 -1.1809 -1.1043 -2.0107
24199SOL     OW74849   3.617   2.320  10.406 -0.4088 -0.2947 -0.1857
24199SOL    HW174850   3.526   2.347  10.389 -0.5889  0.5346  1.8680
24199SOL    HW274851   3.613   2.224  10.411 -1.1658 -0.2645 -0.1105
24200SOL     OW74852   2.110   4.732   9.203 -0.0805  0.4279  0.2651
24200SOL    HW174853   2.046   4.687   9.258  1.8712  0.1984  2.5789
24200SOL    HW274854   2.124   4.816   9.247  0.3343  0.9711 -0.8641
24201SOL     OW74855   8.280   4.991   5.876  0.3617  0.5505 -0.2168
24201SOL    HW174856   8.306   5.082   5.891  1.1586  0.3558 -0.3420
24201SOL    HW274857   8.188   4.995   5.851 -1.2900  0.8911  4.9329
24202SOL     OW74858   4.030   4.891   2.443  0.0301  0.1778  0.1853
24202SOL    HW174859   3.975   4.965   2.416  0.8374  0.2784 -1.2659
24202SOL    HW274860   4.030   4.895   2.539  0.3096  2.2590  0.1440
24203SOL     OW74861   4.644   9.945   6.992  0.3031 -0.0304 -0.5818
24203SOL    HW174862   4.623   9.976   6.904  0.4880 -1.9105 -1.3379
24203SOL    HW274863   4.666   9.852   6.981 -0.5655 -0.5723  1.5664
24204SOL     OW74864   9.112   0.269   6.933 -0.5240 -0.5063 -1.1406
24204SOL    HW174865   9.181   0.220   6.978 -0.6488  0.5866  0.3166
24204SOL    HW274866   9.130   0.256   6.840  2.1112  0.3709 -0.8335
24205SOL     OW74867   9.958   9.877   9.842  0.0041 -0.2889 -0.0963
24205SOL    HW174868   9.991   9.847   9.758 -0.8571  1.3129 -1.0687
24205SOL    HW274869  10.013   9.952   9.865 -0.2995 -0.1851  0.3227
24206SOL     OW74870   4.473   0.071   2.206 -0.3963  0.0762  0.0042
24206SOL    HW174871   4.474   0.157   2.246 -0.8701 -0.2080  0.6395
24206SOL    HW274872   4.540   0.076   2.137 -0.3231  0.8972  0.1252
24207SOL     OW74873   8.980   2.989   3.536  0.1602 -0.1841 -0.1371
24207SOL    HW174874   8.927   2.912   3.560 -0.9964  0.9275  1.0205
24207SOL    HW274875   8.931   3.029   3.463 -0.3358  0.5435  0.5783
24208SOL     OW74876   8.388   4.945  10.287  0.4457 -0.2111 -0.1392
24208SOL    HW174877   8.407   4.859  10.325  0.3357 -0.5039 -0.7375
24208SOL    HW274878   8.460   4.959  10.225  1.1258  0.6672  0.8107
24209SOL     OW74879   8.871   3.071   4.519 -0.5924 -0.2713  0.0313
24209SOL    HW174880   8.781   3.040   4.525  0.1830 -2.6743 -0.0576
24209SOL    HW274881   8.906   3.030   4.440  0.5692  0.7368 -0.0151
24210SOL     OW74882   2.367   4.519   5.696  0.2278  0.2555 -0.6125
24210SOL    HW174883   2.332   4.430   5.697  0.9665 -0.0447 -0.6216
24210SOL    HW274884   2.459   4.508   5.672  0.0643  1.1247 -1.7173
24211SOL     OW74885   2.128   3.650  10.339  0.1803 -0.4677 -0.0319
24211SOL    HW174886   2.129   3.746  10.347 -0.6321 -0.5177  0.7186
24211SOL    HW274887   2.070   3.620  10.409  0.1244 -1.4913 -0.4985
24212SOL     OW74888   6.575   2.480   1.556 -0.1469 -0.0428  0.2931
24212SOL    HW174889   6.665   2.484   1.522 -0.1951 -0.2336  0.1463
24212SOL    HW274890   6.521   2.459   1.479 -0.2937 -0.1447  0.4240
24213SOL     OW74891   8.337   7.670   9.178  0.5725 -0.5104 -0.4140
24213SOL    HW174892   8.395   7.663   9.103  0.0294  0.2773 -0.9294
24213SOL    HW274893   8.311   7.580   9.198  1.4004 -0.8035 -0.6115
24214SOL     OW74894   7.359   8.814   7.818 -0.2031 -0.1953  0.0035
24214SOL    HW174895   7.374   8.825   7.724 -0.2966 -0.0700  0.0021
24214SOL    HW274896   7.270   8.847   7.832 -0.8737 -1.8794 -0.1529
24215SOL     OW74897  10.002   9.270   8.835  0.1615 -0.3188  0.2448
24215SOL    HW174898   9.921   9.303   8.797  0.1756  1.1577  1.3937
24215SOL    HW274899  10.052   9.349   8.858  0.6143 -1.1110  2.2488
24216SOL     OW74900   0.776   1.435   1.334 -0.3010 -0.2159 -0.5609
24216SOL    HW174901   0.774   1.348   1.294 -1.2641 -0.5483  0.1831
24216SOL    HW274902   0.746   1.494   1.264 -1.4138 -0.7185 -0.5295
24217SOL     OW74903   4.541   1.052  10.612  0.2862  0.1325 -0.2212
24217SOL    HW174904   4.556   0.989  10.541 -0.6408 -1.0551  0.5952
24217SOL    HW274905   4.629   1.082  10.636  0.5714  1.4698 -2.6171
24218SOL     OW74906   7.705   9.272   4.159  0.5100 -0.0347 -0.2333
24218SOL    HW174907   7.619   9.294   4.195  0.3188 -0.1633 -0.6080
24218SOL    HW274908   7.687   9.204   4.093  0.9183 -0.1939 -0.1827
24219SOL     OW74909  10.648   6.485   9.602  0.2846 -0.2243  0.1518
24219SOL    HW174910  10.680   6.399   9.574 -1.8119 -1.3145  0.8509
24219SOL    HW274911  10.694   6.502   9.685  1.3157 -0.2651 -0.4000
24220SOL     OW74912   0.373   7.816   8.415 -0.1424 -0.0712  0.1377
24220SOL    HW174913   0.438   7.770   8.468 -0.5052 -1.7185 -0.7753
24220SOL    HW274914   0.296   7.821   8.470  0.4054  0.9815  0.8519
24221SOL     OW74915   1.961  10.138   8.941 -0.1245 -0.0336  0.7706
24221SOL    HW174916   1.973  10.068   8.876  0.6596  0.1250  0.7281
24221SOL    HW274917   1.879  10.116   8.986 -1.2188  0.3998 -0.9357
24222SOL     OW74918   0.952   3.923   2.049 -0.2659  0.2081  0.5424
24222SOL    HW174919   0.939   3.830   2.032 -2.2140  0.4866  0.1901
24222SOL    HW274920   0.875   3.965   2.009  2.5341  2.4439 -3.1989
24223SOL     OW74921   8.678   6.023   3.259 -0.1555  0.0340 -0.5195
24223SOL    HW174922   8.632   6.051   3.338  0.9256 -2.1082  0.9514
24223SOL    HW274923   8.697   5.931   3.274  0.0261 -0.4686 -3.3449
24224SOL     OW74924   3.018   8.436   5.067  0.6327  0.6443  0.3484
24224SOL    HW174925   3.025   8.398   5.155  0.8225  2.1780  1.0346
24224SOL    HW274926   3.078   8.384   5.013 -0.3106 -1.0280  0.8484
24225SOL     OW74927   2.744   9.037   7.322  0.1838  0.2313 -0.2870
24225SOL    HW174928   2.821   9.093   7.319  1.0027 -0.7885  0.8338
24225SOL    HW274929   2.778   8.949   7.336 -1.0921 -0.5276 -1.5587
24226SOL     OW74930   2.522   6.236   7.903  0.5102  0.1921 -0.0468
24226SOL    HW174931   2.515   6.196   7.816  0.5070 -0.4038  0.2215
24226SOL    HW274932   2.521   6.162   7.964  1.7801  0.5105  0.3945
24227SOL     OW74933   8.806   5.546   7.821 -0.0749 -0.2690 -0.2780
24227SOL    HW174934   8.779   5.555   7.729  1.6645 -1.0820 -0.8918
24227SOL    HW274935   8.805   5.452   7.838  2.9941 -0.4395 -0.5803
24228SOL     OW74936   4.945  10.590   4.031 -0.3712 -0.5773 -0.2898
24228SOL    HW174937   4.973  10.575   3.941 -0.3253  0.2968 -0.4305
24228SOL    HW274938   4.855  10.620   4.023 -0.6509 -1.3146  0.0204
24229SOL     OW74939   0.036   5.586   4.806  0.3334 -0.0936  0.4828
24229SOL    HW174940   0.017   5.667   4.853  1.3218  0.5908 -0.2445
24229SOL    HW274941   0.124   5.561   4.834  0.4312 -0.3641 -0.0452
24230SOL     OW74942  10.391   2.991   6.263 -0.0744  0.3891 -0.1102
24230SOL    HW174943  10.430   3.046   6.332  0.3137  1.0669 -0.8519
24230SOL    HW274944  10.297   2.990   6.284 -0.4360  2.9921 -1.1175
24231SOL     OW74945   2.247   2.122   9.641  0.1447 -0.2599  0.2067
24231SOL    HW174946   2.181   2.062   9.675  1.1311 -1.6069 -0.1898
24231SOL    HW274947   2.223   2.207   9.678 -1.2216 -0.9005  0.8671
24232SOL     OW74948   4.679   7.559   1.253  0.0024 -0.0644  0.0929
24232SOL    HW174949   4.661   7.502   1.328 -2.6690 -1.0443 -1.1531
24232SOL    HW274950   4.652   7.507   1.177 -1.9372  2.5649 -1.1608
24233SOL     OW74951   0.677   9.558  10.318 -0.2494 -0.0896 -0.1522
24233SOL    HW174952   0.718   9.484  10.362  0.6133 -1.1337 -2.4989
24233SOL    HW274953   0.644   9.614  10.388  1.4171 -1.3791  1.7469
24234SOL     OW74954   9.900   2.961   7.380  0.7730 -0.6717 -0.2152
24234SOL    HW174955   9.854   2.921   7.454 -0.6975  0.4177 -0.5062
24234SOL    HW274956   9.844   2.943   7.304  0.3876  1.3357 -0.4588
24235SOL     OW74957  10.403   0.310   7.731  0.4533  0.1677  0.0681
24235SOL    HW174958  10.443   0.275   7.651  0.5047 -0.2113  0.2582
24235SOL    HW274959  10.315   0.335   7.703  0.1703 -0.7616  0.0792
24236SOL     OW74960   3.287   7.816   4.087 -0.2380  0.5865 -0.3006
24236SOL    HW174961   3.267   7.815   4.181 -0.5441 -0.0688 -0.3750
24236SOL    HW274962   3.290   7.910   4.065  0.7858  0.7835  0.5597
24237SOL     OW74963   9.053   0.004   4.601  0.0543  0.2178 -0.1596
24237SOL    HW174964   9.093  -0.071   4.554 -0.1930 -1.0374  1.5448
24237SOL    HW274965   9.032   0.066   4.531  2.6152 -0.1621 -1.4081
24238SOL     OW74966   6.817   2.609   1.764 -0.1389 -0.0955 -0.5783
24238SOL    HW174967   6.794   2.523   1.800  0.9722 -0.9488 -1.8121
24238SOL    HW274968   6.903   2.597   1.725  0.3678  1.8003 -0.1336
24239SOL     OW74969   7.361  10.353   3.443 -0.7908  0.4012  0.6226
24239SOL    HW174970   7.372  10.324   3.352  0.3075 -1.1169  1.1968
24239SOL    HW274971   7.442  10.398   3.464 -0.9233  0.4898  0.9390
24240SOL     OW74972   3.496  10.228   7.883 -0.3691  0.1279  0.1374
24240SOL    HW174973   3.480  10.273   7.800  0.1336  0.6732  0.3252
24240SOL    HW274974   3.513  10.299   7.945 -0.6316 -0.2799  0.6859
24241SOL     OW74975   2.372   5.854   2.939 -0.2946 -0.2165 -0.2004
24241SOL    HW174976   2.359   5.902   2.858  1.0524  3.0324  1.3536
24241SOL    HW274977   2.464   5.867   2.961 -0.8196 -0.2002  2.2996
24242SOL     OW74978   4.431   3.957   5.371  0.2786 -0.4249  0.6249
24242SOL    HW174979   4.490   3.885   5.395 -0.9667 -1.5416  0.5210
24242SOL    HW274980   4.353   3.942   5.425 -1.3994 -1.2434 -1.8270
24243SOL     OW74981   0.843   8.674   0.862 -0.2199  0.2274  0.6037
24243SOL    HW174982   0.778   8.708   0.801  1.0392 -0.1889 -1.0591
24243SOL    HW274983   0.895   8.751   0.887  1.7982 -0.0981 -2.1209
24244SOL     OW74984   9.037   9.970   0.361 -0.2893  0.4280  0.1332
24244SOL    HW174985   8.985   9.998   0.286  0.4826 -1.7792 -1.3294
24244SOL    HW274986   9.105   9.913   0.324  0.9553  0.3194  2.3637
24245SOL     OW74987   3.178   0.291   5.268  0.3103 -0.1744  0.4302
24245SOL    HW174988   3.161   0.359   5.203 -1.2453  1.6452  2.5804
24245SOL    HW274989   3.143   0.211   5.230 -1.1980  0.9703 -0.6845
24246SOL     OW74990   7.110   5.919   6.777 -0.0501  0.2754  0.7117
24246SOL    HW174991   7.140   5.885   6.693  0.6906 -1.4393  1.6040
24246SOL    HW274992   7.042   5.858   6.805 -0.1238  0.6799  1.4518
24247SOL     OW74993   1.932  10.612   4.017  0.0770 -0.0861 -0.3789
24247SOL    HW174994   1.847  10.571   4.033 -0.1670 -0.2828 -1.9881
24247SOL    HW274995   1.911  10.692   3.968  0.7741  0.2483 -0.1459
24248SOL     OW74996   8.787   8.778   8.425 -0.1228 -0.2176  0.1904
24248SOL    HW174997   8.831   8.837   8.486  0.7607  0.8807 -1.4378
24248SOL    HW274998   8.721   8.734   8.477 -2.7266  4.1580  1.0118
24249SOL     OW74999   7.171   0.466  10.251 -0.2716 -1.0643 -0.0900
24249SOL    HW175000   7.210   0.548  10.283  0.6425 -0.1765 -3.1458
24249SOL    HW275001   7.244   0.419  10.210 -1.4233 -1.8426 -1.3123
24250SOL     OW75002   6.501   5.461   0.091  0.4129  0.1469 -0.2011
24250SOL    HW175003   6.502   5.406   0.012  2.7097  0.4603 -0.4821
24250SOL    HW275004   6.559   5.535   0.069 -1.3373  1.8869  0.7286
24251SOL     OW75005   9.270   9.187   0.585  0.0303 -0.3229 -0.2439
24251SOL    HW175006   9.346   9.230   0.622 -0.2177 -0.1821  0.1062
24251SOL    HW275007   9.240   9.126   0.653  0.3652 -1.0469 -0.7221
24252SOL     OW75008   7.278   0.667   5.111 -0.1562  1.0614  0.2245
24252SOL    HW175009   7.241   0.580   5.127  0.2027  0.7777 -0.4732
24252SOL    HW275010   7.371   0.651   5.097  0.1151  1.6907  1.2050
24253SOL     OW75011  10.284   4.293   1.512 -0.5428  0.1174 -0.0292
24253SOL    HW175012  10.208   4.339   1.550  0.1106  0.7518  0.5479
24253SOL    HW275013  10.300   4.221   1.573 -0.2084  0.4560  0.2986
24254SOL     OW75014   8.049   5.019   1.741  0.1467  0.2845 -0.0443
24254SOL    HW175015   8.143   5.023   1.761 -0.3802 -0.7638  3.1965
24254SOL    HW275016   8.018   4.941   1.787 -2.5013  1.1724 -0.1730
24255SOL     OW75017   2.329   1.095   1.525 -0.0153 -0.3162 -0.1255
24255SOL    HW175018   2.337   1.001   1.510  0.2201 -0.3830  0.4361
24255SOL    HW275019   2.367   1.135   1.446 -1.2634 -0.6892 -0.9560
24256SOL     OW75020   0.857   1.073   5.553 -0.0076 -0.6185 -0.4724
24256SOL    HW175021   0.930   1.126   5.520 -1.8381  1.8149 -0.9648
24256SOL    HW275022   0.806   1.053   5.475 -0.0264 -2.0702 -0.1018
24257SOL     OW75023   8.073   5.838   6.380 -0.2459 -0.1517  0.3778
24257SOL    HW175024   8.094   5.859   6.288 -0.1433  0.7196  0.5913
24257SOL    HW275025   8.144   5.780   6.407  1.0185  1.4033  0.5727
24258SOL     OW75026   2.884   9.769   6.217 -0.1199 -0.0290 -0.2623
24258SOL    HW175027   2.911   9.783   6.308 -0.6394  1.5419 -0.3178
24258SOL    HW275028   2.823   9.840   6.199 -0.9265 -0.9960 -1.4907
24259SOL     OW75029   0.413   3.214   7.024  0.1243 -0.4399 -0.0052
24259SOL    HW175030   0.434   3.241   6.934 -0.6672  0.9052  0.1818
24259SOL    HW275031   0.319   3.194   7.021 -0.3930  1.6106  0.9341
24260SOL     OW75032   8.873   1.086   6.274  0.2258 -0.0987 -0.2419
24260SOL    HW175033   8.803   1.027   6.248 -0.1243  0.5272 -0.7234
24260SOL    HW275034   8.903   1.051   6.358 -1.1643  0.0624  0.3460
24261SOL     OW75035   3.405   1.448   2.123 -0.2618 -0.1876 -0.2013
24261SOL    HW175036   3.426   1.520   2.182  1.2225 -1.5485  1.0030
24261SOL    HW275037   3.413   1.486   2.035 -0.3787  1.3049  0.4071
24262SOL     OW75038   0.278   7.470   3.623 -0.0793  0.0030 -0.5849
24262SOL    HW175039   0.246   7.559   3.614  0.6412  0.3739  0.2736
24262SOL    HW275040   0.358   7.479   3.676 -0.6771 -1.2629  0.6022
24263SOL     OW75041   6.434   9.255   0.534 -0.2296 -0.4210  0.3586
24263SOL    HW175042   6.443   9.350   0.529 -1.5499 -0.2942 -3.2184
24263SOL    HW275043   6.519   9.221   0.508  0.0702 -0.2003  1.0506
24264SOL     OW75044   7.685   3.033   8.650 -0.5404  0.0586 -0.4857
24264SOL    HW175045   7.654   3.016   8.561 -0.7149  0.3937 -0.4918
24264SOL    HW275046   7.668   3.126   8.663 -0.2226  0.0794 -0.2156
24265SOL     OW75047   1.619   9.402  10.425  0.0066  0.1508  0.7530
24265SOL    HW175048   1.545   9.371  10.478  1.4540 -4.0612  0.5968
24265SOL    HW275049   1.688   9.418  10.489  0.2308 -0.0226  0.5531
24266SOL     OW75050   5.263   9.604   5.575  0.1983  0.2602  0.1967
24266SOL    HW175051   5.254   9.699   5.572  0.5604  0.2991  0.3148
24266SOL    HW275052   5.341   9.589   5.627 -0.3683 -0.1322  0.9522
24267SOL     OW75053   2.195   0.725   4.434  0.3566  0.0289 -0.3366
24267SOL    HW175054   2.211   0.723   4.528 -1.1325 -0.1385 -0.0748
24267SOL    HW275055   2.242   0.648   4.400 -0.8434 -1.1423  0.5694
24268SOL     OW75056   3.349   8.867   4.062  0.3854 -0.1214  0.5641
24268SOL    HW175057   3.428   8.836   4.018 -0.3564  0.7154 -1.4802
24268SOL    HW275058   3.334   8.954   4.024 -2.5348 -1.0042 -0.5192
24269SOL     OW75059   7.921   6.579   6.607 -0.3266 -0.0246  0.5723
24269SOL    HW175060   7.951   6.488   6.604  2.0081  0.6688  0.9690
24269SOL    HW275061   7.953   6.617   6.525 -1.4652  0.4167  0.3109
24270SOL     OW75062   0.101   2.807   7.214 -0.0434  0.0949 -0.4846
24270SOL    HW175063   0.027   2.757   7.248  0.8879 -2.0366 -1.4287
24270SOL    HW275064   0.141   2.848   7.291 -0.5509 -1.0282  0.3965
24271SOL     OW75065   0.774   9.940   5.682  0.1929  0.6409  0.3845
24271SOL    HW175066   0.750  10.000   5.753 -1.0401 -0.5135  0.9987
24271SOL    HW275067   0.690   9.915   5.643  0.6534 -0.8219  0.2785
24272SOL     OW75068   1.588   6.333   5.999  0.5698  0.2151  0.0893
24272SOL    HW175069   1.666   6.388   5.997  1.4394 -0.9290  0.8926
24272SOL    HW275070   1.601   6.270   5.929  0.0628  0.4024 -0.1774
24273SOL     OW75071   5.324   8.937   8.089 -0.0906 -0.9145 -0.3245
24273SOL    HW175072   5.382   9.012   8.098 -0.6089 -0.1925 -2.4923
24273SOL    HW275073   5.236   8.974   8.095 -0.3650 -1.6616  0.5718
24274SOL     OW75074   2.729   3.980  10.465 -0.0685 -0.0284  0.1149
24274SOL    HW175075   2.775   3.896  10.471 -0.2876 -0.0707  1.5490
24274SOL    HW275076   2.793   4.040  10.427  0.8072 -0.3548  1.0340
24275SOL     OW75077   3.019   6.597   8.525 -0.0110  0.2740 -0.8912
24275SOL    HW175078   2.961   6.645   8.584 -0.8365 -0.7486 -0.8277
24275SOL    HW275079   3.015   6.506   8.557  1.1700  0.0792 -1.2532
24276SOL     OW75080   8.350   1.193   8.983 -0.6581 -0.1677  0.1345
24276SOL    HW175081   8.265   1.237   8.985 -0.5536 -0.0025  2.0795
24276SOL    HW275082   8.332   1.108   8.943 -1.3947  0.4804 -0.9803
24277SOL     OW75083   2.273  10.444   6.977  0.3446 -0.3535 -0.5944
24277SOL    HW175084   2.259  10.403   6.891  2.6426 -0.2587 -1.0851
24277SOL    HW275085   2.214  10.519   6.977  0.5371 -0.1580 -2.2539
24278SOL     OW75086   1.034   8.587   0.553 -0.3383  0.1743 -0.6810
24278SOL    HW175087   1.003   8.510   0.601 -1.7752  0.0645 -1.7154
24278SOL    HW275088   1.089   8.634   0.616  0.9144 -1.8928 -0.1551
24279SOL     OW75089   7.029   2.052  10.525 -0.0054  0.0975 -0.6659
24279SOL    HW175090   7.028   2.088  10.613 -0.0139  0.6066 -0.8659
24279SOL    HW275091   6.993   2.123  10.470  0.4210 -0.0436 -1.1348
24280SOL     OW75092   3.502   8.213   7.997  0.2857  0.0974  0.3308
24280SOL    HW175093   3.422   8.265   7.998 -0.0870 -0.4072 -1.0706
24280SOL    HW275094   3.516   8.188   8.089  1.1662  3.6163  1.3213
24281SOL     OW75095   5.196   2.466   9.470 -0.1338 -0.0054  0.0463
24281SOL    HW175096   5.240   2.548   9.493  0.5296 -0.6300  1.1353
24281SOL    HW275097   5.265   2.400   9.475 -1.0060 -0.8935  0.9872
24282SOL     OW75098  10.520   0.121   9.574  0.1442  0.3421  0.1412
24282SOL    HW175099  10.594   0.108   9.516  0.1134  0.5076  0.0636
24282SOL    HW275100  10.444   0.127   9.516  0.0272 -0.1372  0.2389
24283SOL     OW75101   8.839   2.162   8.536 -0.2243 -0.9316 -0.0669
24283SOL    HW175102   8.840   2.155   8.631 -0.5920 -0.7415 -0.0469
24283SOL    HW275103   8.758   2.209   8.516  0.8952  1.0254 -0.3154
24284SOL     OW75104   3.201   4.481   6.272 -0.0173 -0.0257  0.2358
24284SOL    HW175105   3.277   4.531   6.303 -0.6044  0.5347  0.7980
24284SOL    HW275106   3.149   4.464   6.351 -0.5665 -0.2477 -0.1680
24285SOL     OW75107   8.942   3.740   4.013  0.3915 -0.8718 -0.2544
24285SOL    HW175108   9.010   3.786   4.062  0.9132 -1.5376 -0.3240
24285SOL    HW275109   8.951   3.772   3.923 -1.1934  1.0585  0.2337
24286SOL     OW75110   3.344   7.565   2.899 -0.0035 -0.3661  0.0776
24286SOL    HW175111   3.364   7.492   2.841  0.9792  0.4416 -0.6405
24286SOL    HW275112   3.304   7.631   2.842 -1.9241 -0.7444  0.9237
24287SOL     OW75113  10.272   4.087   9.394  0.3091 -0.2233  0.6469
24287SOL    HW175114  10.285   4.182   9.386  1.5868 -0.3797  0.6654
24287SOL    HW275115  10.287   4.069   9.487 -1.5901 -0.2418  1.0050
24288SOL     OW75116   3.555   7.922  10.419  0.0419  0.2314 -0.2492
24288SOL    HW175117   3.599   8.003  10.394  0.5462 -0.0981 -0.4639
24288SOL    HW275118   3.466   7.948  10.441  1.2711  1.5927  4.0370
24289SOL     OW75119   4.440   9.634   0.895  0.2208 -0.8569  0.0886
24289SOL    HW175120   4.457   9.663   0.985  0.8485  0.7366 -0.4964
24289SOL    HW275121   4.527   9.625   0.856 -0.0509  1.0517 -1.0883
24290SOL     OW75122   9.552   0.187   1.721  0.6263 -0.3035 -0.1607
24290SOL    HW175123   9.528   0.221   1.807 -1.9911  0.3759 -1.0790
24290SOL    HW275124   9.544   0.261   1.661  2.3257 -0.7785 -1.0629
24291SOL     OW75125   3.105   6.785   9.233  0.3659  0.1738 -0.2241
24291SOL    HW175126   3.151   6.868   9.223  1.1626 -0.2953 -0.5511
24291SOL    HW275127   3.170   6.719   9.210  0.5919 -0.7240  2.6904
24292SOL     OW75128   7.564   0.937   1.229  0.4152  0.2182 -0.5854
24292SOL    HW175129   7.554   1.029   1.207  0.1813  0.3980  0.2665
24292SOL    HW275130   7.500   0.892   1.173  0.2519  0.6080 -0.7117
24293SOL     OW75131   7.085   9.125   1.691 -0.2603  0.2504  0.1822
24293SOL    HW175132   7.005   9.173   1.670 -1.8015 -2.2377 -0.0171
24293SOL    HW275133   7.137   9.187   1.742 -1.7731  2.3437 -0.6636
24294SOL     OW75134   5.758   1.922   9.233  0.7956  0.0457 -0.3245
24294SOL    HW175135   5.752   1.985   9.161 -1.3256  0.8545  0.4882
24294SOL    HW275136   5.793   1.972   9.306 -1.0660  0.4265  0.3761
24295SOL     OW75137   3.729   5.623   0.903 -0.4003 -0.5304 -0.2280
24295SOL    HW175138   3.755   5.669   0.983 -0.5248 -0.8837  0.0215
24295SOL    HW275139   3.657   5.674   0.868 -0.6274 -0.6026  0.1204
24296SOL     OW75140   4.066   8.540  10.596 -0.4572 -0.0046 -0.5419
24296SOL    HW175141   4.153   8.504  10.616 -0.2417 -0.7128 -2.4702
24296SOL    HW275142   4.050   8.512  10.506 -3.3866 -1.2628  0.2484
24297SOL     OW75143   2.818  10.043   4.518 -0.0095  0.1009 -0.7057
24297SOL    HW175144   2.733  10.015   4.552  0.2946  0.1107  0.0827
24297SOL    HW275145   2.797  10.116   4.459 -0.4495  1.0748  0.6009
24298SOL     OW75146  10.567   4.523   5.589  0.4180 -0.0681  0.0209
24298SOL    HW175147  10.481   4.564   5.575 -0.7171 -2.3341  0.0082
24298SOL    HW275148  10.608   4.523   5.502 -0.4373 -0.8084 -0.3962
24299SOL     OW75149   1.505   3.539  10.370  0.0770  0.2179 -0.0729
24299SOL    HW175150   1.434   3.581  10.322 -0.0389  0.9230  0.7005
24299SOL    HW275151   1.577   3.602  10.368 -0.2439  0.6756  1.4706
24300SOL     OW75152   9.470   1.867   3.615 -0.0920  0.6753 -0.4888
24300SOL    HW175153   9.378   1.840   3.613  0.2367 -0.6248  0.3143
24300SOL    HW275154   9.508   1.816   3.686  1.1886  1.4204 -0.6122
24301SOL     OW75155   4.992   8.198   7.991  0.1787 -0.8547  0.1162
24301SOL    HW175156   4.929   8.217   7.922  0.2178  1.1346  0.5796
24301SOL    HW275157   4.952   8.127   8.041 -0.2288 -1.7510 -1.4201
24302SOL     OW75158   6.087   8.419   1.927 -0.6180  0.1537  0.1470
24302SOL    HW175159   6.022   8.467   1.876 -0.3375  2.1819  1.5270
24302SOL    HW275160   6.119   8.484   1.991  0.4699 -1.6660  1.5586
24303SOL     OW75161   4.763   2.096   0.718 -0.6426 -0.1989  0.5777
24303SOL    HW175162   4.740   2.035   0.648 -1.1673 -0.9510  1.3969
24303SOL    HW275163   4.734   2.054   0.798  0.6846  0.2807  1.3461
24304SOL     OW75164   3.796   8.655   3.859 -0.0180  0.4009  0.6807
24304SOL    HW175165   3.808   8.590   3.789 -1.6980  1.8023 -1.0440
24304SOL    HW275166   3.882   8.663   3.900  0.4217 -2.3254  0.4909
24305SOL     OW75167   3.056   5.706   9.021 -0.0599  0.0621 -0.3065
24305SOL    HW175168   3.114   5.713   9.096 -0.8796 -0.8034  0.4442
24305SOL    HW275169   3.079   5.622   8.981  0.8105  0.8058 -1.4322
24306SOL     OW75170   8.986   8.183   8.812  0.3735 -0.9109  0.3355
24306SOL    HW175171   9.019   8.241   8.881  3.1464  0.2412 -1.7611
24306SOL    HW275172   8.897   8.162   8.839  0.2192  2.0511  2.6493
24307SOL     OW75173   0.514   3.004   3.404 -0.3433 -0.1417  0.0157
24307SOL    HW175174   0.603   3.019   3.434 -0.9435  1.2496  1.2314
24307SOL    HW275175   0.520   3.002   3.309  0.7915  1.3180  0.0263
24308SOL     OW75176   3.212   0.592   6.216  0.4685  0.0084  0.3682
24308SOL    HW175177   3.268   0.655   6.170  0.1631  0.0408  0.0377
24308SOL    HW275178   3.227   0.509   6.172 -0.4535  0.2063 -0.3434
24309SOL     OW75179   9.406  10.094   0.950 -0.2589  0.3107 -0.0550
24309SOL    HW175180   9.355  10.019   0.920  0.3574 -0.4559  0.7419
24309SOL    HW275181   9.415  10.150   0.873 -0.0078 -0.8423 -0.8914
24310SOL     OW75182  10.414   2.295   0.449  0.1041  0.0595  0.1221
24310SOL    HW175183  10.422   2.221   0.388  0.3757  0.0496  0.1715
24310SOL    HW275184  10.397   2.254   0.534 -0.7911  0.0888 -0.0330
24311SOL     OW75185   0.189   2.932   6.169  0.1635 -0.5470  0.0752
24311SOL    HW175186   0.182   2.841   6.199  0.2716 -0.3716  0.6422
24311SOL    HW275187   0.114   2.976   6.209 -0.4174 -0.5787 -0.9405
24312SOL     OW75188   4.595  10.319   6.716 -0.8266 -0.2238 -0.3009
24312SOL    HW175189   4.625  10.306   6.626 -0.3779 -2.1178  0.0689
24312SOL    HW275190   4.505  10.351   6.707 -0.7555 -0.2943 -1.4249
24313SOL     OW75191   2.971   5.021   0.604  0.6210  0.0017 -0.7824
24313SOL    HW175192   2.894   5.006   0.658  2.4844  1.3746  2.5643
24313SOL    HW275193   2.964   5.112   0.575  0.7763  0.0149 -0.7827
24314SOL     OW75194   2.654   0.737   8.759  0.1451 -0.2514  0.0478
24314SOL    HW175195   2.689   0.826   8.757 -0.6607  0.1825  2.0176
24314SOL    HW275196   2.626   0.725   8.850 -2.3210 -1.5191 -0.8011
24315SOL     OW75197   3.441   5.935   9.082  0.2311  0.3513 -0.4961
24315SOL    HW175198   3.371   5.983   9.037 -0.4171  0.7410  0.8956
24315SOL    HW275199   3.437   5.847   9.044 -1.0533  0.3535 -0.3873
24316SOL     OW75200   1.172   8.837  10.206 -0.7806  0.5880 -0.7288
24316SOL    HW175201   1.212   8.759  10.245  0.3015  0.9720 -1.0248
24316SOL    HW275202   1.173   8.901  10.277  1.8515  1.5185 -1.4743
24317SOL     OW75203   8.798  10.636   4.724  0.3927 -0.2406 -0.4563
24317SOL    HW175204   8.765  10.639   4.634  0.0488 -0.9014 -0.3580
24317SOL    HW275205   8.720  10.641   4.778  0.5964  0.0867 -0.1898
24318SOL     OW75206   5.178   6.040   2.115 -0.3680  0.0458  0.1667
24318SOL    HW175207   5.092   6.039   2.157 -0.6191  1.7129 -0.2432
24318SOL    HW275208   5.240   6.030   2.187 -0.8600  0.6879  0.6922
24319SOL     OW75209   9.812   6.481  10.432  0.1984 -0.1403 -0.2036
24319SOL    HW175210   9.834   6.489  10.339  1.4788 -3.2429 -0.2829
24319SOL    HW275211   9.883   6.428  10.469 -1.4377 -0.9067  2.0638
24320SOL     OW75212   4.342   3.416   3.769 -0.3351 -0.4263  0.0941
24320SOL    HW175213   4.352   3.322   3.780  0.7423 -0.2927  0.3365
24320SOL    HW275214   4.430   3.447   3.746 -0.4913  0.6264  0.8527
24321SOL     OW75215   9.668   4.821   7.597  0.3237  0.1383  0.4708
24321SOL    HW175216   9.690   4.732   7.569  2.1463  0.8598 -0.5525
24321SOL    HW275217   9.607   4.853   7.531  1.0495  0.2416 -0.1642
24322SOL     OW75218  10.582   3.190   3.089 -0.2442  0.1250 -0.2186
24322SOL    HW175219  10.551   3.218   3.175 -1.4739 -0.4318 -0.4572
24322SOL    HW275220  10.531   3.110   3.070 -0.3228  0.4863 -1.6484
24323SOL     OW75221   1.354   2.492   7.635 -0.2639  0.4522  0.0400
24323SOL    HW175222   1.385   2.510   7.546 -1.5863 -0.4486 -0.6312
24323SOL    HW275223   1.400   2.557   7.690  1.8929 -0.0868 -1.0142
24324SOL     OW75224   6.567   8.834   6.068 -0.0539  0.1858 -0.1180
24324SOL    HW175225   6.650   8.806   6.108 -1.2129 -0.9580  1.5969
24324SOL    HW275226   6.518   8.874   6.140 -1.4195 -0.1028 -0.8594
24325SOL     OW75227   2.416   4.502   0.177 -0.5371 -0.1612  0.3286
24325SOL    HW175228   2.452   4.590   0.175  2.0719 -1.1518 -1.2969
24325SOL    HW275229   2.334   4.507   0.129 -1.2687  1.6289  1.6532
24326SOL     OW75230   9.911   1.104   0.381  0.4768  0.1661 -0.5314
24326SOL    HW175231   9.895   1.016   0.416  0.2036  0.8617  1.2084
24326SOL    HW275232   9.991   1.096   0.330  0.9250 -0.9131  0.3134
24327SOL     OW75233   7.427   3.311   5.452 -0.2138  0.0951 -0.1875
24327SOL    HW175234   7.368   3.306   5.377 -1.5079 -2.7033  0.8689
24327SOL    HW275235   7.382   3.369   5.513 -0.8588 -0.3176 -0.2530
24328SOL     OW75236   0.666   3.452   3.678 -0.1304 -0.4673 -0.1388
24328SOL    HW175237   0.586   3.456   3.731 -0.1633  1.2822 -0.2809
24328SOL    HW275238   0.653   3.377   3.620 -2.4921  0.8606 -1.4369
24329SOL     OW75239   8.321   9.602   6.151 -0.4866 -0.4967 -0.0888
24329SOL    HW175240   8.252   9.663   6.124 -0.4302  0.4001  1.6595
24329SOL    HW275241   8.386   9.658   6.194 -0.1280 -1.7115  1.0000
24330SOL     OW75242   6.778   4.729   9.050 -0.7208 -1.0863 -0.2487
24330SOL    HW175243   6.866   4.751   9.081 -1.5076  2.8797 -0.3124
24330SOL    HW275244   6.730   4.705   9.129  0.0976 -2.2722 -0.0791
24331SOL     OW75245   3.873   0.896  10.647 -0.1004 -0.2559 -0.7507
24331SOL    HW175246   3.919   0.816  10.672 -1.0539 -0.3653  0.7248
24331SOL    HW275247   3.905   0.963  10.707 -1.3378 -0.1779 -0.1541
24332SOL     OW75248   4.702   3.070   8.984  0.5159  0.9849  0.2027
24332SOL    HW175249   4.788   3.076   8.942 -0.0782  1.1181 -1.0424
24332SOL    HW275250   4.710   2.996   9.044  0.6110 -1.0143 -2.1276
24333SOL     OW75251   2.832   1.631   3.547  0.2887  0.1208  0.1684
24333SOL    HW175252   2.815   1.726   3.545  3.1428  0.7398  0.3933
24333SOL    HW275253   2.847   1.612   3.640  0.1570 -0.4643  0.0727
24334SOL     OW75254   1.292   0.311   1.356  0.2786 -0.1569 -0.1192
24334SOL    HW175255   1.368   0.368   1.351  0.1164  0.1166  0.3762
24334SOL    HW275256   1.262   0.302   1.266  1.1641 -0.6400 -0.3701
24335SOL     OW75257  10.368   0.101   4.669  0.0547  0.0206 -0.0285
24335SOL    HW175258  10.338   0.139   4.587 -0.6940 -0.4546  0.0194
24335SOL    HW275259  10.412   0.019   4.644 -1.3103 -0.7833  0.1338
24336SOL     OW75260   3.679   2.659   8.248 -0.1863  0.2498  0.4357
24336SOL    HW175261   3.736   2.585   8.227  0.1167  0.8194 -0.7959
24336SOL    HW275262   3.624   2.627   8.320 -0.0360 -1.1511 -0.0507
24337SOL     OW75263   3.033   8.785   0.952  0.2236  0.7055  0.3763
24337SOL    HW175264   3.092   8.718   0.918  1.3931  1.4533  0.8591
24337SOL    HW275265   2.997   8.828   0.875 -0.3896 -0.3470  0.0697
24338SOL     OW75266   9.746   8.025   8.868  0.6177  0.1380 -0.0564
24338SOL    HW175267   9.822   8.029   8.926  1.7253  1.1247 -1.4941
24338SOL    HW275268   9.694   7.951   8.900  1.2795  0.5256  2.0325
24339SOL     OW75269   1.977   3.946   5.925 -0.1262  0.0900 -0.6382
24339SOL    HW175270   2.007   3.855   5.933 -0.7098 -0.2455 -2.0619
24339SOL    HW275271   2.052   3.993   5.887  0.6837  0.5397  1.3829
24340SOL     OW75272   5.350   5.991   4.453  0.4333  0.1802  0.2776
24340SOL    HW175273   5.259   5.979   4.483  0.0165  1.2754 -0.4984
24340SOL    HW275274   5.351   6.078   4.413  1.8309  0.1730  0.2529
24341SOL     OW75275   1.741   0.197   8.849  0.4005 -0.1538  0.8257
24341SOL    HW175276   1.717   0.287   8.825 -0.8886 -0.8592 -0.6837
24341SOL    HW275277   1.792   0.207   8.930 -0.9227  1.8226  1.4910
24342SOL     OW75278   1.773   2.808   6.155  0.4261  0.2444  0.6748
24342SOL    HW175279   1.803   2.722   6.127 -0.7419 -0.3380  1.1444
24342SOL    HW275280   1.811   2.869   6.091  0.0271 -0.7678 -0.5712
24343SOL     OW75281   0.878   1.492   3.109 -0.3135  0.1863  0.0164
24343SOL    HW175282   0.948   1.518   3.049 -0.8850 -1.5435 -1.4785
24343SOL    HW275283   0.885   1.397   3.116 -2.5085 -0.0599 -0.2148
24344SOL     OW75284   8.900   9.839   9.237  0.1078  0.1255 -0.5599
24344SOL    HW175285   8.865   9.913   9.287 -1.2925 -1.1312  0.4349
24344SOL    HW275286   8.990   9.830   9.268  0.3738  1.5318 -0.8666
24345SOL     OW75287   3.242   9.769  10.112 -0.1544 -0.2576  0.4893
24345SOL    HW175288   3.195   9.685  10.106 -0.0268 -0.2390 -1.9819
24345SOL    HW275289   3.173   9.835  10.112 -0.2202 -0.3239  1.0369
24346SOL     OW75290   0.811  10.619   5.758 -0.1621  0.0839 -0.1886
24346SOL    HW175291   0.765  10.551   5.710  1.1159 -0.1336 -1.1754
24346SOL    HW275292   0.815  10.588   5.848 -0.1889 -0.8299 -0.4964
24347SOL     OW75293   5.729   4.992   5.280 -0.1102 -0.1542  0.2410
24347SOL    HW175294   5.677   5.069   5.303  0.0777  0.0217  0.0778
24347SOL    HW275295   5.745   4.949   5.364 -1.7584 -1.0178  0.1617
24348SOL     OW75296   3.379   8.046   3.136  0.0878 -0.1992  0.1483
24348SOL    HW175297   3.400   7.980   3.070 -2.3300 -1.5109  0.5633
24348SOL    HW275298   3.449   8.039   3.201  0.7571 -1.1634 -0.6492
24349SOL     OW75299   3.666   7.038   6.565 -0.0057  0.1948 -0.6328
24349SOL    HW175300   3.717   7.109   6.604 -2.0502  0.4706  1.7637
24349SOL    HW275301   3.580   7.077   6.549 -0.2228 -0.9020 -2.3184
24350SOL     OW75302   8.067   5.363   9.760  0.0013  0.0517 -0.2485
24350SOL    HW175303   8.031   5.373   9.672 -1.4599  0.0061  0.3170
24350SOL    HW275304   8.107   5.448   9.779  1.7184 -0.4091 -1.5077
24351SOL     OW75305   1.540   9.845   5.371  0.6151 -0.1673  0.0953
24351SOL    HW175306   1.502   9.871   5.287  1.8608  2.7506  0.3039
24351SOL    HW275307   1.493   9.898   5.435  0.9338 -1.0143  1.0461
24352SOL     OW75308  10.218   3.562   1.207 -0.3486 -0.4244 -0.4747
24352SOL    HW175309  10.189   3.526   1.291 -0.6005  0.3335 -0.2328
24352SOL    HW275310  10.155   3.528   1.144  0.4772 -1.9158 -0.5573
24353SOL     OW75311   5.138  10.248   2.126 -0.0558  0.0181  0.0467
24353SOL    HW175312   5.135  10.318   2.191  2.5244 -0.1320  0.4247
24353SOL    HW275313   5.189  10.284   2.053 -1.5144 -0.3816 -1.2418
24354SOL     OW75314   1.882  10.272   6.134  0.3283 -0.2092 -0.0639
24354SOL    HW175315   1.914  10.241   6.049  0.7176 -1.2229  0.4314
24354SOL    HW275316   1.919  10.211   6.197  0.8077  1.0756  0.9398
24355SOL     OW75317   1.753   3.385   5.357 -0.1776  0.1155 -0.0370
24355SOL    HW175318   1.846   3.365   5.354 -0.0064  0.9149 -0.1269
24355SOL    HW275319   1.748   3.480   5.350 -0.9086  0.2279  1.5595
24356SOL     OW75320   8.983   2.434   8.658 -0.6244  0.2810 -0.1446
24356SOL    HW175321   8.896   2.467   8.679 -0.6340 -0.3432  0.8840
24356SOL    HW275322   8.967   2.352   8.612 -0.6129 -0.7082  1.5260
24357SOL     OW75323   3.316   7.168   1.054 -0.5680  0.0160 -0.1190
24357SOL    HW175324   3.236   7.145   1.101 -0.8410  0.5633 -0.3086
24357SOL    HW275325   3.382   7.182   1.123 -0.4142 -1.2405  0.0023
24358SOL     OW75326   5.004   0.385   4.973  0.0970  0.1150  0.1110
24358SOL    HW175327   4.958   0.302   4.981  1.0993 -0.3930  0.8641
24358SOL    HW275328   5.060   0.376   4.896 -1.0751  0.7567 -0.8433
24359SOL     OW75329   5.716   4.400   5.326  0.1536  0.7412 -0.3903
24359SOL    HW175330   5.806   4.430   5.317  0.0505  1.2499  0.2089
24359SOL    HW275331   5.721   4.328   5.389  0.4865 -0.9648 -2.2802
24360SOL     OW75332   0.132   4.562   8.275 -0.0690 -0.6279  0.1202
24360SOL    HW175333   0.156   4.648   8.240 -1.5592  0.4631  1.6212
24360SOL    HW275334   0.166   4.562   8.365 -2.1321 -0.6108  0.9474
24361SOL     OW75335   3.400   9.708   3.246 -0.2514  0.1276  0.3511
24361SOL    HW175336   3.485   9.684   3.209  0.1007  1.8881 -0.0609
24361SOL    HW275337   3.381   9.639   3.309  1.0852 -0.7378 -0.1463
24362SOL     OW75338   9.577   3.698   8.057  0.0618 -0.0695  0.6188
24362SOL    HW175339   9.613   3.624   8.007  0.7729 -1.1803  2.6266
24362SOL    HW275340   9.647   3.763   8.056  0.3560 -0.3797  0.7598
24363SOL     OW75341   8.522  10.255   3.528  0.5076 -0.0276 -0.0767
24363SOL    HW175342   8.509  10.290   3.441  0.1346  2.1724  0.8140
24363SOL    HW275343   8.439  10.214   3.551  0.8756 -1.3832 -1.0357
24364SOL     OW75344   2.257   9.033   8.788 -0.6805  0.8256 -0.1041
24364SOL    HW175345   2.269   9.002   8.878 -0.5726 -2.8940 -1.2602
24364SOL    HW275346   2.178   8.989   8.757  0.1559  0.7707 -2.3220
24365SOL     OW75347   1.088   8.903   1.230 -0.3816  0.1415 -0.1326
24365SOL    HW175348   1.133   8.826   1.265 -2.4443 -0.5373  1.2369
24365SOL    HW275349   1.058   8.877   1.143  0.4314  0.0525 -0.3962
24366SOL     OW75350   2.723   1.564   2.305  0.0755 -0.4417 -0.2187
24366SOL    HW175351   2.710   1.659   2.317 -0.9154 -0.2405 -2.4527
24366SOL    HW275352   2.782   1.539   2.377  0.7217  1.9392  0.1769
24367SOL     OW75353   7.807   1.177   4.171 -0.3791 -0.3697 -0.3422
24367SOL    HW175354   7.878   1.116   4.150 -2.0803 -1.7867 -2.3427
24367SOL    HW275355   7.734   1.121   4.197 -1.0647  1.0101  0.8180
24368SOL     OW75356   6.441   7.431   3.164 -0.0957  0.0497 -0.1140
24368SOL    HW175357   6.535   7.435   3.181 -0.0005  0.7340 -0.7426
24368SOL    HW275358   6.405   7.504   3.215 -0.3569 -0.5260  0.5353
24369SOL     OW75359   4.015   1.012   5.892 -0.7684 -0.0907 -0.3078
24369SOL    HW175360   4.057   1.057   5.966  0.4820  0.9959 -1.6085
24369SOL    HW275361   4.078   0.945   5.865 -1.6402 -1.1372  0.1869
24370SOL     OW75362   5.288   3.511   8.960 -0.1237  0.0961  0.1692
24370SOL    HW175363   5.245   3.426   8.967 -1.7695  0.7063 -1.6600
24370SOL    HW275364   5.300   3.540   9.051 -2.6199 -0.6175  0.7815
24371SOL     OW75365   2.617   1.566   8.199  0.6085  0.5809 -0.8070
24371SOL    HW175366   2.583   1.477   8.200 -1.5173  1.3393 -0.9061
24371SOL    HW275367   2.623   1.590   8.292  2.6668 -0.1533 -0.7111
24372SOL     OW75368   2.238   5.237   7.614  0.4479  0.2284  0.0161
24372SOL    HW175369   2.240   5.162   7.555  2.3392  0.2674 -0.0087
24372SOL    HW275370   2.179   5.210   7.685 -3.6453  0.9442 -2.7214
24373SOL     OW75371  10.628   2.721   2.403 -0.5238 -0.1168  0.3689
24373SOL    HW175372  10.671   2.643   2.369  1.0747  1.1766 -0.7383
24373SOL    HW275373  10.608   2.773   2.324 -0.0917  1.2991  1.1629
24374SOL     OW75374   2.726   3.927   9.094  0.3560 -0.0927 -0.2762
24374SOL    HW175375   2.710   3.840   9.130  2.1864 -0.3506  0.0129
24374SOL    HW275376   2.669   3.933   9.018 -1.0782 -0.8539  0.7092
24375SOL     OW75377   9.525   0.621   2.005 -0.2901 -0.1754 -0.2122
24375SOL    HW175378   9.582   0.674   2.061 -2.1870 -0.1907  1.9052
24375SOL    HW275379   9.482   0.684   1.948 -0.0887  0.1533 -0.0045
24376SOL     OW75380   4.092   0.672   8.166  0.4683  0.0649  0.1184
24376SOL    HW175381   4.057   0.639   8.249 -0.4243 -1.3214 -0.7904
24376SOL    HW275382   4.112   0.594   8.115 -0.2417  0.9047 -1.5015
24377SOL     OW75383   3.556   0.004   6.226 -0.0735  0.0874 -0.0595
24377SOL    HW175384   3.603   0.003   6.143 -0.7107  0.9898 -0.4478
24377SOL    HW275385   3.520  -0.084   6.234  0.8067 -0.3085 -0.2492
24378SOL     OW75386   1.590   6.601   3.222 -0.1767  0.1960  0.5458
24378SOL    HW175387   1.513   6.597   3.279  1.0050 -1.7391  2.0839
24378SOL    HW275388   1.569   6.541   3.150  0.6175 -1.8694  1.9696
24379SOL     OW75389   3.087   2.971   1.703 -0.5668 -0.3742  0.3497
24379SOL    HW175390   3.122   2.997   1.788  0.0063  0.2460 -0.0688
24379SOL    HW275391   2.992   2.971   1.715 -0.4669 -2.1024  1.5017
24380SOL     OW75392   6.724   1.635   5.535 -0.0401 -0.0145 -0.3912
24380SOL    HW175393   6.811   1.605   5.510  0.8087  1.3177  0.8403
24380SOL    HW275394   6.666   1.562   5.512  1.1889 -0.4185 -2.4323
24381SOL     OW75395   3.420   7.853   5.933  0.0232  0.6716  0.0472
24381SOL    HW175396   3.336   7.863   5.978  0.7093 -0.2085  1.6209
24381SOL    HW275397   3.432   7.758   5.926  0.8807  0.7900 -0.1625
24382SOL     OW75398   8.985   0.435   2.909  0.1383  0.0275 -0.3254
24382SOL    HW175399   9.071   0.432   2.867  0.9228 -1.7141  1.2717
24382SOL    HW275400   8.934   0.367   2.865 -0.2821  0.7150 -0.9248
24383SOL     OW75401   2.455   2.054   5.494 -0.2507 -0.1077  0.0498
24383SOL    HW175402   2.443   2.085   5.404  0.4800 -0.2191 -0.0887
24383SOL    HW275403   2.464   2.134   5.545 -2.5451  0.0397  0.3273
24384SOL     OW75404   0.072   7.122  10.022 -0.6753 -0.1788  0.0978
24384SOL    HW175405   0.041   7.146  10.109  0.9292  1.2813  0.3229
24384SOL    HW275406   0.053   7.029  10.015 -3.4275  0.2430  0.8533
24385SOL     OW75407   1.117   1.280   0.039  0.4953  0.3610  0.3397
24385SOL    HW175408   1.148   1.243  -0.044  0.4546  0.2997  0.3511
24385SOL    HW275409   1.197   1.300   0.088  0.5128 -0.2403  0.5622
24386SOL     OW75410   8.966   6.174   9.312 -0.2779 -0.2786  0.0979
24386SOL    HW175411   9.028   6.131   9.372  1.4725  1.2336 -0.5168
24386SOL    HW275412   8.900   6.107   9.293  2.1352 -2.6517 -0.6058
24387SOL     OW75413   4.054   7.238   7.622 -0.0600 -0.1470 -0.4331
24387SOL    HW175414   3.991   7.238   7.694 -1.4897  3.0443 -1.4996
24387SOL    HW275415   4.008   7.280   7.550  2.3036 -0.5535 -2.3109
24388SOL     OW75416   1.350   4.473   7.765 -0.2626 -0.0561  0.0133
24388SOL    HW175417   1.381   4.383   7.758  0.3057 -0.2458  3.4684
24388SOL    HW275418   1.413   4.516   7.822 -2.3360  1.5703  1.2209
24389SOL     OW75419   2.096   7.320   5.518 -0.3214  0.3857  0.1943
24389SOL    HW175420   2.163   7.323   5.450 -0.5677  1.1887 -0.0189
24389SOL    HW275421   2.019   7.284   5.476  0.0232 -0.7153  0.4876
24390SOL     OW75422   2.259   9.480   6.327 -0.1319  0.1637 -0.2851
24390SOL    HW175423   2.351   9.495   6.351  0.1068  2.1923 -2.0943
24390SOL    HW275424   2.246   9.386   6.339  1.9368 -0.0633  0.7650
24391SOL     OW75425   3.129   3.655   5.624 -0.3266  0.0829  0.2095
24391SOL    HW175426   3.166   3.608   5.699 -1.6436  0.5542  1.1840
24391SOL    HW275427   3.203   3.704   5.588  1.0684 -2.4905 -0.7222
24392SOL     OW75428   5.204   3.440   6.303 -0.2944  0.3245  0.5785
24392SOL    HW175429   5.161   3.523   6.282 -1.1410 -0.2032  0.1933
24392SOL    HW275430   5.133   3.382   6.329  0.1617 -0.5847 -0.1542
24393SOL     OW75431   1.724  10.592   7.689  0.5874 -0.1683 -0.4342
24393SOL    HW175432   1.794  10.530   7.670  1.4282  0.7094 -0.2408
24393SOL    HW275433   1.656  10.572   7.623  0.1446 -2.3114  0.5776
24394SOL     OW75434  10.357   6.568   0.586  0.0653 -0.2386 -0.4853
24394SOL    HW175435  10.270   6.555   0.624  0.3117 -0.8826 -0.1288
24394SOL    HW275436  10.417   6.563   0.661  0.4624 -0.4686 -0.8154
24395SOL     OW75437   7.387   6.120   2.037 -0.2174 -0.3051  0.3264
24395SOL    HW175438   7.471   6.079   2.014 -0.0487  0.0165  0.3516
24395SOL    HW275439   7.412   6.197   2.088 -0.6039 -1.1657  1.8587
24396SOL     OW75440   7.297  10.117  10.033 -0.0157 -0.2606  0.1936
24396SOL    HW175441   7.307  10.136  10.127  2.7026 -0.0193 -0.0666
24396SOL    HW275442   7.311  10.201   9.990 -1.7126 -0.2787 -0.4559
24397SOL     OW75443   0.286   1.963   7.309  0.2088 -0.5861 -0.0633
24397SOL    HW175444   0.304   2.055   7.327 -0.9360 -0.4323  0.3789
24397SOL    HW275445   0.197   1.949   7.340 -0.5734 -1.2327 -2.4072
24398SOL     OW75446   4.048   1.170   0.568  0.5362 -0.4011  0.1451
24398SOL    HW175447   4.143   1.171   0.556  0.3758 -1.0195 -1.4483
24398SOL    HW275448   4.014   1.222   0.495 -0.2970  1.5862  1.8496
24399SOL     OW75449   8.676   7.010   2.270  0.3631  0.4251 -0.3837
24399SOL    HW175450   8.622   7.082   2.303 -0.1150  0.7459 -1.7813
24399SOL    HW275451   8.621   6.932   2.281  0.6501  0.3484  0.5837
24400SOL     OW75452   9.747   6.346   4.091  0.6013  0.0853  0.6186
24400SOL    HW175453   9.758   6.434   4.127  3.5416  0.2645 -0.4276
24400SOL    HW275454   9.789   6.288   4.156 -1.1301 -0.5843  1.2012
24401SOL     OW75455   4.017   9.248   9.816  0.5018  0.1927  0.4085
24401SOL    HW175456   3.948   9.313   9.830  0.1797 -0.1645  0.4866
24401SOL    HW275457   3.978   9.165   9.842  0.0658 -0.4309 -1.9517
24402SOL     OW75458   3.755   2.730   0.830 -0.3377  0.7734 -0.4722
24402SOL    HW175459   3.684   2.707   0.771  0.3941  1.5761 -1.6983
24402SOL    HW275460   3.729   2.815   0.867 -1.3787 -0.2872  1.3573
24403SOL     OW75461   4.753   5.931   5.562 -0.6873 -1.0041 -0.1852
24403SOL    HW175462   4.781   5.902   5.476 -0.8587  0.0798 -0.6169
24403SOL    HW275463   4.783   5.862   5.621  0.3585 -1.2586 -0.9756
24404SOL     OW75464   0.921   2.786   5.763  0.6004  0.0927 -0.5394
24404SOL    HW175465   0.991   2.778   5.828  0.6556  1.0606 -0.4645
24404SOL    HW275466   0.951   2.855   5.704 -0.1075  0.2433 -0.7366
24405SOL     OW75467   7.690   8.164   0.626 -0.1175 -0.2052 -0.6919
24405SOL    HW175468   7.779   8.175   0.661 -0.5687 -1.0498  0.8338
24405SOL    HW275469   7.700   8.100   0.556  0.4186 -0.6899 -0.1871
24406SOL     OW75470   7.730   6.210   0.504 -0.8547  1.0188  0.1266
24406SOL    HW175471   7.707   6.118   0.516 -0.0413  0.7404 -0.3656
24406SOL    HW275472   7.673   6.240   0.434 -1.0542  0.8585  0.2192
24407SOL     OW75473   0.120  10.290   8.532 -0.0225 -0.2201  0.2881
24407SOL    HW175474   0.181  10.298   8.605  0.1109  1.0380  0.0490
24407SOL    HW275475   0.064  10.216   8.556  1.6298 -1.4767  0.4656
24408SOL     OW75476   2.910   6.151   7.080 -0.2984 -0.4648  0.2450
24408SOL    HW175477   2.956   6.219   7.031  0.0762 -2.3422 -2.2360
24408SOL    HW275478   2.969   6.129   7.152  1.1480 -0.4632 -0.8874
24409SOL     OW75479   1.293   9.778   8.304 -0.3221  0.7825 -0.2091
24409SOL    HW175480   1.278   9.694   8.260 -1.7375  1.0779 -0.3586
24409SOL    HW275481   1.282   9.759   8.397 -0.0436  0.6795 -0.1987
24410SOL     OW75482   8.993   2.887   9.025  0.2382 -0.1450 -0.0454
24410SOL    HW175483   8.921   2.862   8.967  0.0586 -0.5720  0.3590
24410SOL    HW275484   9.005   2.981   9.008 -1.9464  0.4874  1.5286
24411SOL     OW75485   8.696   0.581   6.696  0.3441 -0.4243  0.3016
24411SOL    HW175486   8.679   0.674   6.709  0.8675 -0.4294  1.0904
24411SOL    HW275487   8.663   0.563   6.608 -2.0898 -0.0687  1.0515
24412SOL     OW75488   9.456   2.883   8.093 -0.3283 -0.1159  0.1210
24412SOL    HW175489   9.385   2.833   8.052  0.4544 -3.1863  2.1856
24412SOL    HW275490   9.535   2.855   8.046 -0.1153  1.2336 -0.3807
24413SOL     OW75491   8.716   3.137   9.999 -0.3602 -0.2723 -0.3095
24413SOL    HW175492   8.777   3.128  10.073 -1.1827 -3.8850  0.0894
24413SOL    HW275493   8.636   3.173  10.038 -0.9225 -2.5091  0.7484
24414SOL     OW75494   5.964   8.732   8.457 -0.0767  0.2786 -0.2709
24414SOL    HW175495   5.902   8.659   8.452  0.6044 -0.2223 -2.2356
24414SOL    HW275496   6.035   8.700   8.512  0.9519 -1.1726 -2.3414
24415SOL     OW75497   2.085   1.911   9.698  0.2927 -0.2333  0.1182
24415SOL    HW175498   2.035   1.870   9.627  0.1098  0.7381 -0.3300
24415SOL    HW275499   2.127   1.838   9.742  0.0254 -0.9023 -0.6972
24416SOL     OW75500   7.653   4.343   4.499  0.1051  0.3912  0.0139
24416SOL    HW175501   7.618   4.371   4.584  0.1840  2.1942 -0.5147
24416SOL    HW275502   7.620   4.407   4.437  0.3803 -0.6770 -1.2798
24417SOL     OW75503   8.242  10.212   8.764 -0.3611 -0.1687  0.5870
24417SOL    HW175504   8.166  10.156   8.774 -0.9102  0.4416 -0.0738
24417SOL    HW275505   8.237  10.244   8.674  0.1084  0.6947  0.8586
24418SOL     OW75506   9.412   3.298   8.907 -0.0920 -0.2877  0.2868
24418SOL    HW175507   9.331   3.349   8.915 -0.7000 -1.2678  0.5995
24418SOL    HW275508   9.448   3.323   8.822  1.6390  3.4688  1.9164
24419SOL     OW75509   2.653   3.591   5.168 -0.8112 -0.4511  0.0773
24419SOL    HW175510   2.669   3.528   5.099 -0.9980 -0.1630 -0.2342
24419SOL    HW275511   2.590   3.548   5.226 -0.3473 -0.8485  0.2909
24420SOL     OW75512   7.364   6.282   5.693  0.5321  0.4607  0.4323
24420SOL    HW175513   7.335   6.198   5.728  1.3277 -0.0315 -0.0385
24420SOL    HW275514   7.301   6.346   5.726 -1.5870 -0.6405 -1.2483
24421SOL     OW75515  10.550  10.563   0.498 -0.2525 -0.2304  0.7828
24421SOL    HW175516  10.484  10.587   0.432  0.4079  0.8769  0.5025
24421SOL    HW275517  10.609  10.503   0.452  0.0953  0.3847  0.4076
24422SOL     OW75518   6.644   3.313   2.478  0.1204  0.1211 -0.0870
24422SOL    HW175519   6.635   3.291   2.570 -0.4932  0.4334 -0.0681
24422SOL    HW275520   6.572   3.267   2.434  0.6584 -0.3684 -0.4721
24423SOL     OW75521   4.337   9.516   3.292  0.5750 -0.0460 -0.0320
24423SOL    HW175522   4.335   9.611   3.298  1.2299  0.0644 -1.2046
24423SOL    HW275523   4.248   9.488   3.311  0.6655  0.6939  1.6117
24424SOL     OW75524   1.632   9.221   5.824 -0.4495  0.4420  0.3250
24424SOL    HW175525   1.704   9.171   5.787 -1.1284 -1.1103  0.9913
24424SOL    HW275526   1.656   9.232   5.917 -1.3101 -0.5914  0.6841
24425SOL     OW75527  10.294   1.866  10.628 -0.1355  0.0702 -0.4465
24425SOL    HW175528  10.329   1.925  10.561  1.2914 -0.8781 -0.5724
24425SOL    HW275529  10.200   1.883  10.627  0.2144  2.4025 -0.4029
24426SOL     OW75530   6.902   4.789   0.054  0.4516  0.3621 -0.0071
24426SOL    HW175531   6.921   4.877   0.022  0.6154  0.9658  1.6493
24426SOL    HW275532   6.818   4.798   0.098 -0.2461 -0.6642 -1.0926
24427SOL     OW75533   4.882   3.160   3.632  0.2567  0.1645  0.0562
24427SOL    HW175534   4.919   3.111   3.704  0.7870  0.3506 -0.0886
24427SOL    HW275535   4.823   3.099   3.589 -0.3344  0.1593  0.8506
24428SOL     OW75536   7.163   3.456   8.980  0.0432  0.3076 -0.2175
24428SOL    HW175537   7.242   3.404   8.969 -0.9364 -1.1579 -0.5824
24428SOL    HW275538   7.122   3.421   9.059  0.7909  2.5063  1.2457
24429SOL     OW75539   9.455   6.024   0.804  0.0525 -0.0752 -0.0031
24429SOL    HW175540   9.384   6.051   0.863 -0.4327 -0.5247 -0.3762
24429SOL    HW275541   9.533   6.070   0.838 -0.7333  1.8416 -0.6505
24430SOL     OW75542   6.348   9.356   1.832  0.7020  0.2031 -0.8244
24430SOL    HW175543   6.347   9.275   1.781  0.1413 -0.4413  0.1910
24430SOL    HW275544   6.414   9.342   1.899  0.2309  0.3838 -0.3192
24431SOL     OW75545   8.559  10.140   0.353  0.2495  0.3905 -0.0136
24431SOL    HW175546   8.541  10.049   0.374  1.8748  0.3580  1.3681
24431SOL    HW275547   8.472  10.178   0.338 -0.4508 -1.3904 -0.8140
24432SOL     OW75548   4.006   3.552   5.951  0.1167  1.1003 -0.0379
24432SOL    HW175549   4.047   3.634   5.923  0.7674  0.3605 -1.3270
24432SOL    HW275550   4.053   3.530   6.032  1.5072  0.8697 -0.8708
24433SOL     OW75551   7.953   4.536   4.590 -0.4399 -0.6403  0.3247
24433SOL    HW175552   7.882   4.568   4.534  0.3241  1.3068  0.4249
24433SOL    HW275553   8.028   4.528   4.532 -0.7250 -2.9873  0.1558
24434SOL     OW75554   1.792   7.804   6.592  0.3302  0.3699 -0.1535
24434SOL    HW175555   1.870   7.748   6.591  0.5470  0.6713 -0.9618
24434SOL    HW275556   1.771   7.814   6.684  0.8994 -0.2032  0.0467
24435SOL     OW75557   2.733   4.527   4.726 -0.3520  0.0828  0.2522
24435SOL    HW175558   2.685   4.609   4.741  0.6389  0.4014  1.9766
24435SOL    HW275559   2.704   4.469   4.796  0.3675 -0.3802  0.1728
24436SOL     OW75560   2.503   4.916   1.309  0.2659  0.4391  0.4359
24436SOL    HW175561   2.408   4.908   1.316  0.2248  0.6323  0.0876
24436SOL    HW275562   2.533   4.826   1.296  0.4361 -0.1686  3.8607
24437SOL     OW75563  10.512  10.210   8.347 -0.6237  1.0781 -0.1899
24437SOL    HW175564  10.564  10.133   8.369 -1.3338  0.7278  0.3259
24437SOL    HW275565  10.558  10.251   8.274 -0.1646  0.2400 -0.3796
24438SOL     OW75566   2.893   9.004   5.079  0.3514 -0.0112  0.0916
24438SOL    HW175567   2.803   9.006   5.113  0.6138 -0.3070  0.8208
24438SOL    HW275568   2.920   8.913   5.089  0.4671 -0.0793 -0.8428
24439SOL     OW75569   8.996   3.981   8.242 -0.6415 -0.3901 -0.3827
24439SOL    HW175570   9.044   3.927   8.179  1.0563  0.9939 -0.3463
24439SOL    HW275571   8.977   4.062   8.195 -1.9946 -0.4698 -0.0215
24440SOL     OW75572   6.737   8.980   0.891  1.0408 -0.0103 -0.0306
24440SOL    HW175573   6.695   9.000   0.975 -0.1112 -3.0255  0.2157
24440SOL    HW275574   6.676   9.013   0.826  1.7246  1.9331  0.2382
24441SOL     OW75575   4.336   4.441   3.077  0.0426  0.4828 -0.8314
24441SOL    HW175576   4.361   4.371   3.137 -0.0009  0.6770 -0.5854
24441SOL    HW275577   4.349   4.403   2.989 -0.6136 -0.0528 -0.7028
24442SOL     OW75578   6.341   7.668   0.433  0.0935 -0.0138 -0.2693
24442SOL    HW175579   6.386   7.752   0.419 -1.8767  1.1803  0.0807
24442SOL    HW275580   6.325   7.635   0.345  0.9885 -0.1064 -0.4092
24443SOL     OW75581   5.062   7.144   7.629 -0.1400 -0.1901  0.4165
24443SOL    HW175582   4.993   7.179   7.686 -0.0719 -0.8886  0.9451
24443SOL    HW275583   5.052   7.049   7.634 -0.2370 -0.2660 -0.8846
24444SOL     OW75584   1.470   1.581  10.329 -0.7312  0.0775 -0.1462
24444SOL    HW175585   1.519   1.567  10.248 -0.7169 -0.6822 -0.0148
24444SOL    HW275586   1.429   1.667  10.318  0.1346  0.4579 -0.5107
24445SOL     OW75587   4.988   0.785   9.238  0.2377 -0.2955  0.5922
24445SOL    HW175588   4.962   0.693   9.235  1.4303 -0.6309 -0.0998
24445SOL    HW275589   4.960   0.815   9.324  0.2873 -1.4500  1.0283
24446SOL     OW75590   9.770   5.348   9.885  0.6635 -0.4811 -0.5569
24446SOL    HW175591   9.692   5.331   9.937 -0.0130 -1.4623 -1.8180
24446SOL    HW275592   9.783   5.267   9.835  1.5131  0.2679 -1.5877
24447SOL     OW75593   3.469   2.180   3.251  0.3060 -0.7889 -0.4112
24447SOL    HW175594   3.468   2.275   3.253  1.1859 -0.7830  2.0175
24447SOL    HW275595   3.385   2.154   3.290 -1.0456 -1.1091 -3.2458
24448SOL     OW75596  10.010   7.272   2.128  0.1721  0.0613  0.0267
24448SOL    HW175597   9.955   7.227   2.064 -0.4376  0.2107  0.4392
24448SOL    HW275598  10.071   7.323   2.075 -0.8626  0.8344 -0.4543
24449SOL     OW75599   2.382   3.962   1.448  0.0066  0.6451  0.3864
24449SOL    HW175600   2.321   4.013   1.395  0.4425  1.2468  0.4554
24449SOL    HW275601   2.332   3.938   1.526 -1.2031 -1.7257 -1.0171
24450SOL     OW75602   5.282   5.318   1.848 -0.0083  0.2163  0.3992
24450SOL    HW175603   5.306   5.227   1.831  3.5628  0.9721  0.6557
24450SOL    HW275604   5.254   5.352   1.763 -0.9699 -0.9681  0.2178
24451SOL     OW75605  10.581   4.979   5.925 -0.0942 -0.1094 -0.6339
24451SOL    HW175606  10.590   4.982   5.830  2.6904 -3.0700 -0.6349
24451SOL    HW275607  10.558   5.069   5.950 -2.1581  0.5196 -4.1137
24452SOL     OW75608   6.949   8.792   5.893 -0.1643  0.1072  0.6088
24452SOL    HW175609   6.936   8.719   5.954 -1.6407 -1.3728 -1.3234
24452SOL    HW275610   7.042   8.812   5.899  0.1099 -1.3131  1.8755
24453SOL     OW75611   4.134   2.963  10.420 -0.3025  0.3938 -0.5034
24453SOL    HW175612   4.086   2.880  10.423 -1.0448  0.7933 -1.1125
24453SOL    HW275613   4.166   2.968  10.329 -0.3440  0.8184 -0.4949
24454SOL     OW75614   8.301  10.489   3.274 -0.8449  0.2512 -0.2720
24454SOL    HW175615   8.236  10.434   3.230 -1.4969 -0.2687  1.2883
24454SOL    HW275616   8.268  10.578   3.265 -2.5722 -0.1252  1.7111
24455SOL     OW75617   4.511   9.748   9.446  0.1109 -0.2748 -0.1680
24455SOL    HW175618   4.555   9.680   9.497 -0.4405 -0.1129  0.5444
24455SOL    HW275619   4.442   9.780   9.504  0.0904  0.5958 -0.6626
24456SOL     OW75620  10.291   6.332   3.356  0.1818 -0.1955 -0.0149
24456SOL    HW175621  10.197   6.343   3.365  0.6100  2.3837  2.4993
24456SOL    HW275622  10.322   6.415   3.320  1.4570 -1.4225 -1.9543
24457SOL     OW75623   4.087   0.942   3.448 -0.2104 -0.1082 -0.6418
24457SOL    HW175624   4.093   0.861   3.399  0.2505 -0.0797 -0.6367
24457SOL    HW275625   4.118   0.920   3.536  1.4470  0.4091 -1.0479
24458SOL     OW75626   9.060  10.387   9.172  0.5364  0.4300 -0.2980
24458SOL    HW175627   9.112  10.377   9.251  0.7147  2.0365 -0.1608
24458SOL    HW275628   9.049  10.482   9.163 -1.1397  0.2076 -1.1179
24459SOL     OW75629  10.022   0.617   7.189  0.4060 -0.1827 -0.4597
24459SOL    HW175630   9.991   0.686   7.247  0.5018 -1.3693  1.0773
24459SOL    HW275631   9.944   0.566   7.168  0.5091 -0.2592 -0.6578
24460SOL     OW75632   6.638  10.319   7.018  0.0193  0.1231 -0.1855
24460SOL    HW175633   6.676  10.260   6.954 -0.4011 -0.8925  0.4689
24460SOL    HW275634   6.713  10.353   7.068  0.3675  1.1154 -1.3480
24461SOL     OW75635   2.171   0.958   1.758 -0.0989  0.4223 -0.2554
24461SOL    HW175636   2.096   0.975   1.700 -0.6246 -2.8000 -0.6975
24461SOL    HW275637   2.246   0.957   1.699  0.3429  3.2291  0.1280
24462SOL     OW75638   8.052   5.804   5.338 -0.6105 -0.2795 -0.6053
24462SOL    HW175639   8.116   5.741   5.307  0.5034  0.9018 -0.8112
24462SOL    HW275640   8.007   5.760   5.410 -1.6477 -2.2211 -2.3335
24463SOL     OW75641   3.767   3.689   1.490  0.4232 -0.5759  0.2504
24463SOL    HW175642   3.737   3.710   1.401  1.6237  1.7578  0.3437
24463SOL    HW275643   3.686   3.688   1.542 -0.0909  0.0235 -0.5077
24464SOL     OW75644   5.148  10.034   6.429 -0.1523  0.1546 -0.2333
24464SOL    HW175645   5.198  10.078   6.498  0.3460 -2.3054  1.0636
24464SOL    HW275646   5.056  10.054   6.450  0.0798  1.2708 -0.2126
24465SOL     OW75647   4.026   0.154   8.190 -0.3651 -0.2217  0.7429
24465SOL    HW175648   4.100   0.215   8.192 -0.2331 -0.3774  2.0132
24465SOL    HW275649   3.948   0.210   8.191 -0.2596  0.0039  2.8970
24466SOL     OW75650   2.321   9.780  10.336 -0.2273 -0.0400  0.3158
24466SOL    HW175651   2.282   9.693  10.336 -0.7436  0.1747 -0.1956
24466SOL    HW275652   2.387   9.778  10.404 -0.7955 -0.5839  0.8647
24467SOL     OW75653   2.731   1.958   3.283 -0.5980 -0.0384  0.3084
24467SOL    HW175654   2.666   1.921   3.344 -0.9518  0.3374  0.1627
24467SOL    HW275655   2.697   1.936   3.196 -0.3867 -0.0797  0.2359
24468SOL     OW75656   1.815  10.076   1.955 -0.4768 -0.0808  0.0966
24468SOL    HW175657   1.870  10.091   2.032 -0.9354  0.8841  0.2447
24468SOL    HW275658   1.862  10.009   1.905 -0.7397 -1.6074  1.7788
24469SOL     OW75659   7.160   0.386   9.210 -0.3152 -0.8906  0.5294
24469SOL    HW175660   7.243   0.421   9.241 -0.3048 -0.1821 -0.2448
24469SOL    HW275661   7.176   0.293   9.197  0.7156 -0.5655 -0.7070
24470SOL     OW75662   5.188   3.773  10.592  0.5770 -0.1964 -0.0108
24470SOL    HW175663   5.189   3.801  10.683 -0.0842 -1.8976  0.5559
24470SOL    HW275664   5.169   3.680  10.595  1.0991 -0.4155 -1.8759
24471SOL     OW75665   2.833   0.914   3.920 -0.2988  0.6158  0.1473
24471SOL    HW175666   2.768   0.983   3.930  1.0205  1.8120  0.8574
24471SOL    HW275667   2.896   0.949   3.856  0.7281  0.3483  0.9830
24472SOL     OW75668  10.357   7.275   6.427 -0.1379  0.0785  0.6248
24472SOL    HW175669  10.355   7.325   6.509  1.7292  1.4119 -0.0623
24472SOL    HW275670  10.319   7.335   6.362 -1.9282 -1.0925  0.5090
24473SOL     OW75671   4.254   8.936  10.074 -0.4101  0.3623  0.2769
24473SOL    HW175672   4.239   9.021  10.033  0.9855 -0.4965 -2.2925
24473SOL    HW275673   4.170   8.890  10.068 -0.3230  0.3785 -1.4699
24474SOL     OW75674   9.510   8.557   9.347  0.1413  0.2270  0.2456
24474SOL    HW175675   9.448   8.625   9.376  0.0969  0.6371 -0.7812
24474SOL    HW275676   9.460   8.503   9.286  0.4657 -0.1375  0.2976
24475SOL     OW75677   5.182   4.433   4.848  0.4319  0.2311 -0.8134
24475SOL    HW175678   5.098   4.463   4.881  0.4839 -0.1166 -0.3511
24475SOL    HW275679   5.231   4.513   4.828  0.2124  0.4397 -0.5153
24476SOL     OW75680   7.042   3.350   9.191 -0.2494 -0.2299 -0.0716
24476SOL    HW175681   7.008   3.266   9.220 -1.6737  0.4505  0.3411
24476SOL    HW275682   7.066   3.396   9.272  2.2539 -0.8733 -0.3595
24477SOL     OW75683   5.417   0.200   6.663  0.1179  0.0996 -0.2965
24477SOL    HW175684   5.455   0.176   6.748 -0.3423 -0.3612 -0.2139
24477SOL    HW275685   5.492   0.205   6.604  0.3098 -0.8424 -0.1483
24478SOL     OW75686   3.618   4.490   3.298  0.6168 -0.5599 -0.2047
24478SOL    HW175687   3.535   4.504   3.343  0.9858  2.6290 -0.2979
24478SOL    HW275688   3.674   4.449   3.363 -0.0126  0.4566  1.0224
24479SOL     OW75689   3.399   7.365   1.937 -0.0386  0.4694  0.3738
24479SOL    HW175690   3.353   7.336   1.858 -1.1481  0.8317  0.8630
24479SOL    HW275691   3.391   7.461   1.935  2.1210  0.6906 -0.3573
24480SOL     OW75692   1.014   1.027   5.995 -0.1645 -0.2199  0.6984
24480SOL    HW175693   1.056   1.063   5.917 -0.6202 -2.2977 -0.5844
24480SOL    HW275694   0.953   1.095   6.023 -0.5884  0.2858 -1.2732
24481SOL     OW75695   7.792   2.100   4.671 -0.0296 -0.2573 -0.1417
24481SOL    HW175696   7.761   2.012   4.652 -2.4193  0.2106  1.1373
24481SOL    HW275697   7.883   2.089   4.699 -0.0086 -2.1710 -0.8460
24482SOL     OW75698   7.630   0.243  10.347  0.1320 -0.0323  0.2742
24482SOL    HW175699   7.580   0.203  10.276 -3.0305 -0.8947  2.7394
24482SOL    HW275700   7.685   0.172  10.380  0.6851  0.0365 -0.4587
24483SOL     OW75701   5.085   6.519   3.594 -0.0659 -0.0084 -0.0674
24483SOL    HW175702   5.146   6.563   3.535  0.6976 -0.1223  0.6150
24483SOL    HW275703   5.089   6.571   3.675  0.1378 -0.7916  0.4325
24484SOL     OW75704   8.514   5.393   8.463  0.5275 -0.0856 -0.4057
24484SOL    HW175705   8.433   5.444   8.464 -0.1630 -1.1426  0.1343
24484SOL    HW275706   8.508   5.341   8.382  1.4740  1.0420 -1.2268
24485SOL     OW75707   7.136   4.271   2.143  0.4353  0.0839  0.1979
24485SOL    HW175708   7.105   4.330   2.212  0.6850 -0.0273  0.4047
24485SOL    HW275709   7.145   4.328   2.066  1.9228  0.6179  0.7171
24486SOL     OW75710   4.578   7.073   8.025  0.2535  0.1600  0.0439
24486SOL    HW175711   4.611   7.049   7.938 -1.0519 -0.5143 -0.2921
24486SOL    HW275712   4.656   7.074   8.080  1.4177  2.4443 -1.4808
24487SOL     OW75713   4.619   6.882   0.260  0.3703 -0.0952 -0.2279
24487SOL    HW175714   4.593   6.846   0.176  1.6013 -0.0565 -0.6545
24487SOL    HW275715   4.605   6.810   0.322  0.9434 -0.6685 -0.7409
24488SOL     OW75716   7.331   0.624   2.743 -0.0563 -0.6874 -0.3684
24488SOL    HW175717   7.294   0.540   2.716  1.3068 -1.5140  0.2641
24488SOL    HW275718   7.394   0.602   2.811 -0.6778  1.0014  0.8051
24489SOL     OW75719   3.620   1.378  10.541  0.1858 -0.6640  0.1545
24489SOL    HW175720   3.685   1.351  10.606 -0.1823  0.0351  0.8356
24489SOL    HW275721   3.567   1.444  10.587 -1.3424 -1.5941 -0.1919
24490SOL     OW75722   1.618   9.592   9.104  0.5032 -0.1271  0.4593
24490SOL    HW175723   1.649   9.639   9.027 -0.3463  0.0667  0.2352
24490SOL    HW275724   1.640   9.649   9.178 -0.8321  0.7893  0.1609
24491SOL     OW75725   8.088   2.135   5.749 -0.2579 -0.7435  0.3031
24491SOL    HW175726   8.118   2.044   5.747  1.4641 -0.3116  2.3287
24491SOL    HW275727   8.002   2.133   5.709 -0.5379 -3.3906  0.8465
24492SOL     OW75728   8.262   5.326   9.479 -0.4829 -0.0245 -0.5820
24492SOL    HW175729   8.303   5.366   9.556 -2.2110 -2.0927  1.5633
24492SOL    HW275730   8.172   5.358   9.480 -0.2831  0.7154 -2.4250
24493SOL     OW75731   4.479   4.931   4.739 -0.5068 -0.4238 -0.0463
24493SOL    HW175732   4.404   4.988   4.761 -0.2347  0.4830 -1.3098
24493SOL    HW275733   4.439   4.854   4.700 -0.8113  0.6892 -2.1049
24494SOL     OW75734   8.988   8.100   0.269  0.4264  0.3317 -0.0531
24494SOL    HW175735   8.936   8.180   0.279  0.5803  0.5496 -0.9438
24494SOL    HW275736   8.999   8.068   0.359 -1.2106  0.2846  0.1542
24495SOL     OW75737   5.254   4.225   5.910  0.0765 -0.3496 -0.1599
24495SOL    HW175738   5.275   4.141   5.870  0.3233 -1.0626  1.3918
24495SOL    HW275739   5.160   4.236   5.894  0.6571  0.7607 -3.3226
24496SOL     OW75740   3.469   1.765   8.012 -0.4126 -0.4791 -0.2197
24496SOL    HW175741   3.559   1.785   7.984  0.1920 -2.0914  0.4983
24496SOL    HW275742   3.471   1.775   8.107 -0.9955 -0.5943 -0.1928
24497SOL     OW75743  10.145   3.394   8.028 -0.2172 -0.1836  0.1631
24497SOL    HW175744  10.075   3.458   8.021 -0.5083 -0.3942  1.0508
24497SOL    HW275745  10.102   3.313   8.054  0.1286 -0.7997 -1.0970
24498SOL     OW75746   2.193   8.629   4.086 -0.3259  0.1829 -0.6039
24498SOL    HW175747   2.239   8.701   4.043  0.9974 -0.9853 -1.1834
24498SOL    HW275748   2.241   8.616   4.168 -2.5891  2.1349  1.1704
24499SOL     OW75749   6.947   9.276   0.558  0.0466 -0.5969  0.0406
24499SOL    HW175750   6.925   9.369   0.559  2.9729  0.2637 -2.3232
24499SOL    HW275751   6.992   9.262   0.475  0.6350 -3.9275  0.7550
24500SOL     OW75752   4.906   8.169   4.327  0.2847  0.6836 -0.1903
24500SOL    HW175753   4.853   8.232   4.375 -1.5939 -1.1689  0.3053
24500SOL    HW275754   4.979   8.149   4.386 -1.1535 -0.3835  1.3070
24501SOL     OW75755   5.164   7.095   2.564 -0.1301  0.1860  0.3684
24501SOL    HW175756   5.246   7.123   2.606 -0.5052 -1.6475  2.5337
24501SOL    HW275757   5.097   7.111   2.630 -1.4334  0.9718 -1.1113
24502SOL     OW75758   2.591   6.987   5.540  0.5730  0.3924  0.2730
24502SOL    HW175759   2.684   6.993   5.519  0.7353  0.5586  1.0245
24502SOL    HW275760   2.588   6.963   5.632 -0.0971  2.9778  1.0298
24503SOL     OW75761   1.573   5.201   7.702  0.2942  0.2039  0.1945
24503SOL    HW175762   1.496   5.195   7.758 -0.7349 -0.4055 -1.2287
24503SOL    HW275763   1.645   5.171   7.758 -0.8512 -1.3639  0.9273
24504SOL     OW75764   7.520   2.479   9.093 -0.4135  0.0333 -0.4331
24504SOL    HW175765   7.564   2.535   9.029 -0.9987  0.6531 -0.3124
24504SOL    HW275766   7.472   2.541   9.148 -1.4407 -0.6158 -0.5780
24505SOL     OW75767   2.386   8.137   4.913 -0.5288 -0.4191 -0.2288
24505SOL    HW175768   2.423   8.208   4.966 -1.2908  0.4020 -0.7541
24505SOL    HW275769   2.305   8.175   4.877 -1.4087 -1.8535  0.1869
24506SOL     OW75770   0.433   8.261   0.755  0.1561 -0.2458  0.4164
24506SOL    HW175771   0.418   8.341   0.805 -1.5132 -0.9125  1.0280
24506SOL    HW275772   0.377   8.270   0.678  0.3677 -0.6079  0.2180
24507SOL     OW75773   7.150   7.097   5.094 -0.3317 -0.2087 -0.2321
24507SOL    HW175774   7.234   7.136   5.069 -1.0960  1.0394 -0.9337
24507SOL    HW275775   7.102   7.090   5.011 -1.2479 -0.1159  0.2894
24508SOL     OW75776   3.177   0.247   0.898 -0.0821 -0.1363  0.3758
24508SOL    HW175777   3.107   0.278   0.955 -0.1280  1.3989 -0.4535
24508SOL    HW275778   3.131   0.197   0.830 -0.3651  0.6100  0.0025
24509SOL     OW75779   8.933   3.192   0.841 -0.2248 -0.5529 -0.1230
24509SOL    HW175780   8.875   3.157   0.774 -1.3679 -1.4763  1.3018
24509SOL    HW275781   8.876   3.244   0.898  0.8165  0.6385 -0.1186
24510SOL     OW75782   5.246   4.419   4.420  0.1250 -0.3254  0.3071
24510SOL    HW175783   5.340   4.405   4.411 -0.0457 -0.7988 -0.8261
24510SOL    HW275784   5.239   4.491   4.483  1.2691  0.1059 -0.0277
24511SOL     OW75785   2.515   9.188   9.965 -0.6146  0.8898  0.0855
24511SOL    HW175786   2.540   9.107   9.920 -0.1592  0.1615  1.5923
24511SOL    HW275787   2.598   9.234   9.981 -0.8621  1.6251 -0.6787
24512SOL     OW75788   6.128   6.831   6.491 -1.0914  0.0669 -0.1809
24512SOL    HW175789   6.099   6.754   6.541  1.2226  0.0840  1.3564
24512SOL    HW275790   6.069   6.901   6.519 -2.8890 -0.9577 -1.1985
24513SOL     OW75791   1.630  10.106   3.992 -0.2074 -0.3757  0.0755
24513SOL    HW175792   1.541  10.079   3.969  0.1214 -1.7140  0.2871
24513SOL    HW275793   1.634  10.100   4.087 -0.0256  0.1272  0.1032
24514SOL     OW75794   8.433   4.273   5.584 -0.2027  0.2530 -0.0347
24514SOL    HW175795   8.441   4.309   5.496 -0.0946  0.6935  0.1521
24514SOL    HW275796   8.517   4.291   5.625 -0.6204  1.0041  0.5052
24515SOL     OW75797   7.184  10.476   1.132  1.0573 -0.3732 -0.3697
24515SOL    HW175798   7.109  10.472   1.073 -1.0560  2.7789  1.7460
24515SOL    HW275799   7.224  10.561   1.114  2.2574 -0.7021  0.6192
24516SOL     OW75800   3.769   7.105   2.420  0.1877 -0.2856 -0.2046
24516SOL    HW175801   3.798   7.040   2.484  2.7621  0.0921 -0.8589
24516SOL    HW275802   3.837   7.104   2.352 -0.9665  1.3511 -1.4702
24517SOL     OW75803   1.800   1.685   0.927  0.0898 -0.0143 -0.3364
24517SOL    HW175804   1.824   1.680   0.834  0.4040  2.2117 -0.4317
24517SOL    HW275805   1.858   1.621   0.969  2.9095  1.7429 -1.2158
24518SOL     OW75806   6.892   6.748   6.517  0.2296  0.4673 -0.4795
24518SOL    HW175807   6.933   6.835   6.520 -2.4158  1.8254  2.7776
24518SOL    HW275808   6.955   6.691   6.562  0.8546  1.3124 -0.2505
24519SOL     OW75809   2.746   3.451   8.190  0.0126  0.7821 -0.2995
24519SOL    HW175810   2.828   3.409   8.165  1.1600  1.8963  1.4072
24519SOL    HW275811   2.722   3.410   8.273 -1.7083 -0.1977 -1.2289
24520SOL     OW75812   4.719   4.197   6.044 -0.3580  0.0373 -0.7762
24520SOL    HW175813   4.636   4.161   6.013  1.3248 -2.7623 -2.4896
24520SOL    HW275814   4.755   4.129   6.101  0.4035  1.5911  0.6845
24521SOL     OW75815   8.750   4.160   4.738 -0.0083 -0.3955 -0.3551
24521SOL    HW175816   8.696   4.205   4.673  1.1837 -1.8627 -2.5230
24521SOL    HW275817   8.741   4.067   4.716  2.1171 -0.7888  0.1636
24522SOL     OW75818  10.003  10.361   7.691  0.5668  0.4616  0.1790
24522SOL    HW175819   9.971  10.315   7.613 -1.5480  0.6104  0.8973
24522SOL    HW275820  10.096  10.375   7.674  0.6447 -1.4774 -1.3306
24523SOL     OW75821   4.773   4.609   1.909 -0.1741 -0.3206  0.0997
24523SOL    HW175822   4.717   4.532   1.921 -0.8636  0.3535  1.5157
24523SOL    HW275823   4.713   4.678   1.880  0.2110  0.0055  0.0690
24524SOL     OW75824   5.425   6.761   7.584  0.4776  0.3316  0.1127
24524SOL    HW175825   5.463   6.674   7.595  1.4666  0.3797 -2.2704
24524SOL    HW275826   5.459   6.812   7.657  0.4635 -1.0792  1.1471
24525SOL     OW75827   9.418   4.208   6.701 -0.2947 -0.2824 -0.5675
24525SOL    HW175828   9.403   4.289   6.751  2.6972 -0.6750  1.2001
24525SOL    HW275829   9.458   4.237   6.619  0.2643  0.0937 -0.1721
24526SOL     OW75830   9.560   8.578   1.310  0.0376 -0.1785  0.8634
24526SOL    HW175831   9.596   8.549   1.226  0.0216  0.4140  0.6496
24526SOL    HW275832   9.571   8.503   1.368  2.4735  0.2574  1.0695
24527SOL     OW75833   7.433   8.737   7.104  0.6242  0.0314  0.2338
24527SOL    HW175834   7.363   8.802   7.101  2.7125  2.4098  0.3738
24527SOL    HW275835   7.447   8.712   7.013  1.0007  1.1540 -0.0249
24528SOL     OW75836   3.854   3.372   0.117  0.1231 -0.1538 -0.6523
24528SOL    HW175837   3.872   3.466   0.113  0.8684 -0.2338  0.4202
24528SOL    HW275838   3.883   3.346   0.205 -3.5632 -0.6714  0.5806
24529SOL     OW75839  10.459   6.397   6.723 -0.3448  0.1868  0.4045
24529SOL    HW175840  10.453   6.348   6.805 -0.1333 -1.0925 -0.3142
24529SOL    HW275841  10.397   6.354   6.665 -0.3520  0.9580 -0.1732
24530SOL     OW75842   3.362   9.514   6.380  0.7026 -0.3090 -0.0277
24530SOL    HW175843   3.277   9.472   6.367  0.2053  0.0947  1.6358
24530SOL    HW275844   3.421   9.469   6.320 -0.2843 -1.9168  0.1551
24531SOL     OW75845   9.012   0.446   6.366 -0.3309  0.1980 -0.8168
24531SOL    HW175846   9.076   0.488   6.423 -1.1537 -0.4377  0.6283
24531SOL    HW275847   8.953   0.517   6.341 -0.0232  0.4636 -0.8051
24532SOL     OW75848   6.351   2.655   8.777  0.3070 -0.1289  0.2076
24532SOL    HW175849   6.301   2.718   8.829  1.1032  0.3796  0.3762
24532SOL    HW275850   6.294   2.578   8.770  0.1846 -0.2083  1.8306
24533SOL     OW75851   6.600   3.632   2.054  0.5829  0.2457 -0.9729
24533SOL    HW175852   6.646   3.636   2.138 -0.8359  2.6660 -0.2357
24533SOL    HW275853   6.668   3.649   1.989  1.2420  0.9892 -0.1137
24534SOL     OW75854   2.935   8.819   8.614  0.0533 -0.0876 -0.2969
24534SOL    HW175855   2.887   8.746   8.653 -0.3477  0.2015 -0.2389
24534SOL    HW275856   2.987   8.855   8.686  0.0239 -0.1298 -0.2549
24535SOL     OW75857   8.133   1.848   9.442 -0.8150 -0.2493  0.0709
24535SOL    HW175858   8.099   1.774   9.494 -1.1018  0.8997  1.5745
24535SOL    HW275859   8.213   1.874   9.487  0.2664 -0.7361 -1.4850
24536SOL     OW75860   9.552   9.305   4.547 -0.1293 -0.6200 -0.4567
24536SOL    HW175861   9.471   9.282   4.594 -1.0106 -0.4774 -1.8582
24536SOL    HW275862   9.570   9.230   4.491 -0.8689  0.4113 -2.1808
24537SOL     OW75863   0.336   7.123   0.359  0.5227  0.1107  0.1760
24537SOL    HW175864   0.357   7.212   0.332  0.1867  0.0793 -0.1970
24537SOL    HW275865   0.248   7.107   0.326  1.0349 -0.7818 -0.8524
24538SOL     OW75866   8.741   8.488   3.029  0.4611 -0.0506 -0.6504
24538SOL    HW175867   8.669   8.435   2.996  0.8738 -0.6597 -0.5991
24538SOL    HW275868   8.716   8.578   3.010 -0.4505 -0.2325 -0.3428
24539SOL     OW75869   9.790   1.815   4.557 -0.3363  0.2016  0.5989
24539SOL    HW175870   9.759   1.757   4.627 -0.3775  1.9957  2.1287
24539SOL    HW275871   9.730   1.889   4.559 -0.8651 -0.0835 -1.9770
24540SOL     OW75872   6.927   0.986   4.486  0.1387 -0.3746 -0.5809
24540SOL    HW175873   6.940   1.064   4.540 -1.2529  0.1193 -0.9201
24540SOL    HW275874   6.995   0.991   4.419  2.0810 -1.1375  1.2209
24541SOL     OW75875   1.854   9.234   1.071  0.6482 -0.5904  0.0058
24541SOL    HW175876   1.926   9.232   1.008 -1.1059 -2.1670 -2.1234
24541SOL    HW275877   1.818   9.145   1.069 -1.4732  0.1836  0.8201
24542SOL     OW75878   6.370   5.506   3.823 -0.3630 -0.1553  0.5998
24542SOL    HW175879   6.390   5.430   3.879  3.0063  0.8632  0.9846
24542SOL    HW275880   6.408   5.484   3.738  0.7595  1.0949  0.7511
24543SOL     OW75881   9.267   1.788   8.098  0.3639  0.3665  0.3151
24543SOL    HW175882   9.214   1.716   8.132  1.0050 -0.8388 -1.1576
24543SOL    HW275883   9.340   1.795   8.161  0.0333  0.0814  0.7374
24544SOL     OW75884   3.313   8.896   8.565 -0.2740  0.0790  0.4992
24544SOL    HW175885   3.345   8.924   8.480  0.5342 -0.1431  0.7198
24544SOL    HW275886   3.266   8.972   8.600  0.1810  0.4785  0.2484
24545SOL     OW75887   3.787   9.610   4.063  0.4745  0.2804  0.1374
24545SOL    HW175888   3.881   9.612   4.079  0.9856 -2.4180 -1.7915
24545SOL    HW275889   3.763   9.518   4.073 -1.6784  0.6742 -0.8133
24546SOL     OW75890   6.529   1.500   4.735  0.2850 -0.0457 -0.6762
24546SOL    HW175891   6.614   1.459   4.719  0.4908  0.1240 -0.0258
24546SOL    HW275892   6.536   1.586   4.694  0.6704  0.2315 -0.0369
24547SOL     OW75893  10.542   4.811   6.910 -0.5984 -0.1461 -0.2128
24547SOL    HW175894  10.613   4.872   6.889 -1.2782  1.0589  0.9204
24547SOL    HW275895  10.520   4.772   6.825  0.3031  0.6706 -0.8559
24548SOL     OW75896   8.854   8.761   4.951  0.2308  0.3399 -0.2939
24548SOL    HW175897   8.804   8.723   5.023 -1.1121 -1.3658 -2.0124
24548SOL    HW275898   8.896   8.839   4.989 -3.4333  1.7289  1.3904
24549SOL     OW75899   5.323   2.248   7.567 -0.0809 -0.4998  0.5277
24549SOL    HW175900   5.378   2.177   7.535  0.4787 -0.0954  0.5785
24549SOL    HW275901   5.245   2.204   7.602 -1.0090 -0.9654 -1.8626
24550SOL     OW75902   5.634   7.516   1.954 -0.2161 -0.1009  0.6691
24550SOL    HW175903   5.562   7.505   2.016 -1.3248  2.1845 -0.1328
24550SOL    HW275904   5.602   7.480   1.872 -0.7958  1.5900  0.1151
24551SOL     OW75905   7.275   5.632  10.094  0.2440  0.0011  0.5362
24551SOL    HW175906   7.279   5.728  10.097  1.1776  0.0130 -0.3764
24551SOL    HW275907   7.305   5.604  10.180  1.7978  0.5188  0.1909
24552SOL     OW75908   3.980   0.437   7.177 -0.6735 -0.3740 -0.3789
24552SOL    HW175909   3.890   0.419   7.147 -1.0497  2.1871 -1.0552
24552SOL    HW275910   4.035   0.404   7.106 -1.3919  2.2501 -2.3125
24553SOL     OW75911   6.478   8.393   2.447  0.2579  0.5948  0.5291
24553SOL    HW175912   6.386   8.416   2.456 -0.1517 -1.0203  0.6312
24553SOL    HW275913   6.496   8.402   2.354 -0.2124  0.1938  0.3954
24554SOL     OW75914   3.477   6.381   6.891  0.7126  0.1667 -0.2501
24554SOL    HW175915   3.497   6.434   6.968  1.2027 -0.0421 -0.2325
24554SOL    HW275916   3.426   6.439   6.834 -0.6357 -0.0192  0.7125
24555SOL     OW75917   5.900   5.972   5.723 -0.3884 -0.1899  0.1119
24555SOL    HW175918   5.858   5.973   5.809 -0.7846 -1.1396 -0.0534
24555SOL    HW275919   5.994   5.968   5.742 -0.2736  2.7306  0.4877
24556SOL     OW75920   5.990   4.622   4.289 -0.3882 -0.0390 -0.0903
24556SOL    HW175921   6.012   4.634   4.196  0.6121  0.5056  0.1962
24556SOL    HW275922   5.898   4.597   4.289 -0.3430 -0.2705 -1.2467
24557SOL     OW75923   5.263   4.223   5.038  0.1126 -0.4315  0.1874
24557SOL    HW175924   5.316   4.247   5.114  1.0797  1.0077 -0.8792
24557SOL    HW275925   5.234   4.307   5.002 -0.0332 -1.0613 -1.2392
24558SOL     OW75926   4.755   3.591   3.257 -0.3075  0.2060 -0.3526
24558SOL    HW175927   4.739   3.681   3.287  2.4924  0.2655  1.2624
24558SOL    HW275928   4.693   3.538   3.305 -0.6828  1.0844  0.1522
24559SOL     OW75929   3.149   7.818   9.020  0.0724 -0.0564 -0.4262
24559SOL    HW175930   3.225   7.872   8.999  0.6864 -0.2592  1.1286
24559SOL    HW275931   3.076   7.858   8.971  0.8021  1.2699 -0.4594
24560SOL     OW75932   6.437   3.099   1.539  0.5711  0.3944 -0.1085
24560SOL    HW175933   6.396   3.149   1.609  0.6445  0.1309  0.1260
24560SOL    HW275934   6.404   3.010   1.551  1.0006  0.2348 -0.0748
24561SOL     OW75935   4.221   3.127   9.467  0.3612  0.1594  0.5198
24561SOL    HW175936   4.283   3.118   9.394 -1.5251  3.8457 -1.8719
24561SOL    HW275937   4.269   3.175   9.534  1.3040 -0.8112  0.5682
24562SOL     OW75938   9.032   1.866   6.860 -0.7999  0.4195 -0.5481
24562SOL    HW175939   9.021   1.904   6.773  0.4351  1.1872 -0.3943
24562SOL    HW275940   8.952   1.815   6.874 -0.5819 -0.5747 -2.5443
24563SOL     OW75941   9.638   9.921   7.705  0.0878 -0.2720 -0.0787
24563SOL    HW175942   9.606  10.002   7.745 -1.0946  0.0030 -1.4844
24563SOL    HW275943   9.716   9.899   7.755  0.0158  1.3283  0.8176
24564SOL     OW75944   3.535   0.047   5.554  0.3042  0.2524 -0.7473
24564SOL    HW175945   3.612   0.051   5.610  0.7339 -3.1042 -0.8542
24564SOL    HW275946   3.461   0.049   5.615  0.7232 -1.8401 -0.0975
24565SOL     OW75947   7.424   8.746   2.099  0.2060 -0.1577 -0.5171
24565SOL    HW175948   7.491   8.807   2.069  0.2036  0.1116  0.0073
24565SOL    HW275949   7.420   8.679   2.031  1.0733 -0.2238 -0.5157
24566SOL     OW75950   4.049   2.767   1.582 -0.0991  0.6659 -0.2827
24566SOL    HW175951   4.040   2.853   1.623 -2.2242  0.3280  0.0463
24566SOL    HW275952   3.960   2.742   1.559  0.3833 -1.7740  0.2711
24567SOL     OW75953   7.583   2.843   4.079 -0.1555  0.6630  0.1079
24567SOL    HW175954   7.541   2.758   4.071  1.1165  0.1759 -2.3774
24567SOL    HW275955   7.523   2.904   4.034 -0.2252  0.7563  0.3262
24568SOL     OW75956   0.033   0.147   0.585  0.0158 -0.1151 -0.1671
24568SOL    HW175957  -0.035   0.185   0.641  0.0235  0.9341 -0.8575
24568SOL    HW275958  -0.009   0.069   0.548  0.0691 -0.9372  1.4029
24569SOL     OW75959   6.928   7.426   0.623 -0.1688  0.6343 -0.4885
24569SOL    HW175960   6.931   7.456   0.714 -0.0836  1.0505 -0.6279
24569SOL    HW275961   6.982   7.489   0.575 -0.5686  0.6734 -0.8954
24570SOL     OW75962   5.311   3.445  10.548 -0.5131 -0.4041 -0.2562
24570SOL    HW175963   5.380   3.413  10.489 -0.7190 -1.4811  0.0781
24570SOL    HW275964   5.250   3.490  10.490 -0.6413 -1.3340 -0.8694
24571SOL     OW75965   0.331   6.389   1.482 -0.6918  0.0168  1.0114
24571SOL    HW175966   0.297   6.300   1.491 -2.7849  0.4820 -1.1182
24571SOL    HW275967   0.264   6.435   1.430  0.5922  2.6790  1.5390
24572SOL     OW75968   0.285   8.612  10.063 -0.1942 -0.1285  0.4668
24572SOL    HW175969   0.273   8.610  10.158 -0.4936  1.5197  0.4872
24572SOL    HW275970   0.196   8.615  10.028 -0.0872 -0.8824  0.1150
24573SOL     OW75971   9.125   0.231   8.105 -0.0201  0.1144 -0.0116
24573SOL    HW175972   9.196   0.293   8.122 -1.7729  2.1111  0.4001
24573SOL    HW275973   9.108   0.189   8.189 -0.3994  0.8337  0.2751
24574SOL     OW75974   8.320   0.911   8.310  0.0934  0.2121  0.8566
24574SOL    HW175975   8.248   0.917   8.373 -0.8194  2.3029 -0.2624
24574SOL    HW275976   8.304   0.831   8.261 -2.2727  1.2246 -0.1871
24575SOL     OW75977   4.055   7.658   2.551 -0.4832  0.4540 -0.7900
24575SOL    HW175978   4.021   7.672   2.639  2.3326  0.4512  0.4110
24575SOL    HW275979   4.109   7.579   2.558 -1.5000 -0.5327 -2.9791
24576SOL     OW75980   2.372   9.253   0.463 -0.0230 -0.1547  0.3019
24576SOL    HW175981   2.350   9.186   0.528 -1.0093 -0.7278 -0.5866
24576SOL    HW275982   2.463   9.234   0.439 -0.5228 -1.6939 -0.5057
24577SOL     OW75983   9.177   1.355   1.244 -0.1155 -0.1934  0.1142
24577SOL    HW175984   9.256   1.406   1.262 -1.2723  0.8369  2.8918
24577SOL    HW275985   9.120   1.414   1.196 -1.3287  1.2419  3.0563
24578SOL     OW75986   0.776   0.869   7.469 -0.1528  0.2103 -0.1036
24578SOL    HW175987   0.785   0.954   7.513 -0.7510  0.9178 -1.2852
24578SOL    HW275988   0.713   0.885   7.399  0.7842 -0.8613 -1.2300
24579SOL     OW75989   8.924   2.803   6.563 -0.7513 -0.3791  0.0395
24579SOL    HW175990   8.857   2.793   6.495  0.1245 -0.9943 -0.7596
24579SOL    HW275991   8.879   2.848   6.634 -1.5374  0.8146 -1.1682
24580SOL     OW75992   8.214  10.544   3.924 -0.2461 -0.1374  0.0520
24580SOL    HW175993   8.125  10.509   3.918  0.1033 -0.8491 -1.5503
24580SOL    HW275994   8.240  10.529   4.015 -1.6342 -0.2114  0.4606
24581SOL     OW75995   4.863   7.029   7.292 -0.1277  0.1419  0.0411
24581SOL    HW175996   4.913   7.087   7.235  1.7556 -1.4398 -0.0337
24581SOL    HW275997   4.912   7.029   7.375 -1.6577  0.7861  0.9786
24582SOL     OW75998   6.547   2.734   3.320 -0.5382  0.2364  0.0132
24582SOL    HW175999   6.544   2.809   3.380  1.0216 -0.9971  1.7391
24582SOL    HW276000   6.484   2.671   3.356 -0.2241 -0.1631 -0.1320
24583SOL     OW76001   3.874   5.298   9.234  0.1643  0.0375  0.1673
24583SOL    HW176002   3.906   5.336   9.316 -0.4830  0.0960  0.3984
24583SOL    HW276003   3.856   5.206   9.256  1.2563 -0.3005 -0.2621
24584SOL     OW76004   8.177  10.128   4.624  0.0848 -0.2678 -0.0375
24584SOL    HW176005   8.103  10.136   4.684 -1.1909 -1.2572 -1.4162
24584SOL    HW276006   8.251  10.166   4.672 -0.7365 -1.5688  2.3863
24585SOL     OW76007   5.936   3.354   5.618 -0.4217 -0.3530  0.2428
24585SOL    HW176008   5.898   3.333   5.533  0.5309 -1.3755  0.0434
24585SOL    HW276009   5.920   3.276   5.671 -1.9588  0.6652  1.3847
24586SOL     OW76010   5.726   9.692   6.507 -0.1321 -0.3388 -0.1120
24586SOL    HW176011   5.749   9.772   6.460  0.0774  0.0358  0.6230
24586SOL    HW276012   5.772   9.623   6.460  0.8270  0.1468  0.1004
24587SOL     OW76013   2.848   9.016   4.190  0.1855 -0.3208  0.5080
24587SOL    HW176014   2.937   9.048   4.173 -0.8713  1.9863 -1.2023
24587SOL    HW276015   2.828   9.046   4.278  0.8110 -0.1446  0.5930
24588SOL     OW76016   7.465   2.874   6.091 -0.4146 -0.3906  0.0298
24588SOL    HW176017   7.414   2.911   6.019 -0.8406 -3.2213 -1.2384
24588SOL    HW276018   7.554   2.869   6.057  0.1059  1.4117  1.0128
24589SOL     OW76019   8.103   7.787   9.202  0.0294  0.0922  0.2477
24589SOL    HW176020   8.195   7.779   9.179  0.2103  1.7156  0.2350
24589SOL    HW276021   8.095   7.876   9.237 -1.4094 -0.2318  0.8378
24590SOL     OW76022   0.514   9.564   7.007 -0.1457  0.3986  0.0880
24590SOL    HW176023   0.426   9.530   7.025  0.5267 -0.7798  1.3709
24590SOL    HW276024   0.530   9.542   6.916 -1.8535  2.2624 -0.7348
24591SOL     OW76025   3.029   7.858   8.701  0.3774  0.0612 -0.4375
24591SOL    HW176026   3.070   7.943   8.689 -0.3637  0.2179 -2.2423
24591SOL    HW276027   2.937   7.872   8.679  0.1796 -1.1243 -0.4570
24592SOL     OW76028   8.493   0.760   3.750  0.4064  0.0373 -0.0491
24592SOL    HW176029   8.501   0.710   3.831 -0.8724 -1.1839 -0.6201
24592SOL    HW276030   8.567   0.731   3.696  1.7804  1.5149  0.9672
24593SOL     OW76031   9.494   2.757   8.860  0.3686 -0.6304  0.3876
24593SOL    HW176032   9.544   2.816   8.803 -2.7963 -1.1957 -3.4285
24593SOL    HW276033   9.431   2.813   8.904 -0.3248 -0.6643 -0.5175
24594SOL     OW76034   4.863   9.955   5.742 -0.1019 -0.3877  0.1544
24594SOL    HW176035   4.794   9.961   5.677 -0.4363 -0.2484  0.5193
24594SOL    HW276036   4.853  10.033   5.796  0.1743 -0.4969  0.3670
24595SOL     OW76037   3.623   1.506   3.707 -0.3431  0.2281 -0.5150
24595SOL    HW176038   3.564   1.566   3.754 -0.0554 -0.2304  0.4462
24595SOL    HW276039   3.678   1.467   3.775 -1.6825 -2.4841 -0.8528
24596SOL     OW76040   7.892   7.860   5.938 -0.0137 -1.1334  0.2284
24596SOL    HW176041   7.845   7.907   5.869 -2.8791 -1.6519  1.6590
24596SOL    HW276042   7.939   7.929   5.986  0.0550 -0.4588 -0.7769
24597SOL     OW76043   7.542   6.216   7.611 -0.5668  0.3834 -0.1658
24597SOL    HW176044   7.448   6.212   7.626 -0.5214  0.0243  0.0147
24597SOL    HW276045   7.552   6.205   7.516 -0.6528 -0.4481 -0.0831
24598SOL     OW76046   4.383  10.611   7.323 -0.1427 -0.4602 -0.0534
24598SOL    HW176047   4.377  10.707   7.328 -1.7680 -0.5630  0.7967
24598SOL    HW276048   4.411  10.593   7.233  1.0491  0.8201  0.0266
24599SOL     OW76049   1.962   6.862   7.938  0.4091 -0.1781 -0.0142
24599SOL    HW176050   1.996   6.804   7.870  1.1161 -1.1256  1.1199
24599SOL    HW276051   1.907   6.806   7.993  1.1646  0.1774  1.1450
24600SOL     OW76052   7.102   8.972   1.236 -0.2960 -0.4414 -0.3169
24600SOL    HW176053   7.072   8.883   1.254  0.8948 -0.9317 -0.6794
24600SOL    HW276054   7.135   9.005   1.320 -0.9665 -0.2436 -0.1275
24601SOL     OW76055   0.255   5.608   1.298 -0.0362 -0.0134 -0.1325
24601SOL    HW176056   0.263   5.542   1.229 -1.6178 -2.1266  1.5549
24601SOL    HW276057   0.224   5.687   1.253  2.0187 -0.2863 -2.2451
24602SOL     OW76058   6.274   9.688   2.348 -0.0877 -0.0847 -0.3261
24602SOL    HW176059   6.181   9.677   2.369 -0.3217 -0.3162 -1.4497
24602SOL    HW276060   6.280   9.674   2.254  0.9230  1.0380 -0.4561
24603SOL     OW76061   6.723  10.330   0.200 -0.2677 -0.4662  0.3149
24603SOL    HW176062   6.698  10.329   0.108 -0.6898  0.8111  0.3944
24603SOL    HW276063   6.775  10.410   0.210 -1.0043 -0.0967  1.3728
24604SOL     OW76064   5.100   1.030   4.868 -0.7957  0.2787  0.0193
24604SOL    HW176065   5.112   1.092   4.940  2.1594 -1.1567  0.9241
24604SOL    HW276066   5.142   1.071   4.793 -0.4029  0.1129  0.1491
24605SOL     OW76067   5.766   8.746   1.613 -0.2901 -0.3931  0.3565
24605SOL    HW176068   5.737   8.836   1.599 -0.1032 -0.4434 -0.4128
24605SOL    HW276069   5.686   8.695   1.618 -0.3833 -0.2967 -0.0804
24606SOL     OW76070   2.964   5.764   0.151  0.1154  0.3787 -0.1963
24606SOL    HW176071   3.012   5.842   0.123 -0.1607  0.9917  0.9828
24606SOL    HW276072   2.943   5.780   0.243 -1.3727 -0.3656 -0.3741
24607SOL     OW76073   5.447   2.862   2.907  0.7987 -0.4128 -0.0942
24607SOL    HW176074   5.409   2.776   2.887  1.5759 -0.4458 -1.5915
24607SOL    HW276075   5.523   2.843   2.961  0.0528 -0.5201  0.9492
24608SOL     OW76076   9.769  10.126   6.911  0.2583  0.2613  0.4087
24608SOL    HW176077   9.854  10.147   6.950  0.3197 -0.3937  0.6323
24608SOL    HW276078   9.718  10.088   6.983 -0.5004  1.3672  0.4752
24609SOL     OW76079   8.789   2.128   5.064  0.1203 -0.5495 -0.1238
24609SOL    HW176080   8.813   2.196   5.001  0.2617 -1.8880 -1.5526
24609SOL    HW276081   8.864   2.069   5.067 -1.1135 -2.2392 -1.1386
24610SOL     OW76082   6.368   4.414   9.912  0.1567 -0.2283 -0.1088
24610SOL    HW176083   6.358   4.422  10.007  0.9662 -0.1523 -0.0213
24610SOL    HW276084   6.296   4.464   9.876 -0.6976 -1.0062  0.4697
24611SOL     OW76085   6.050   0.109   1.442  0.0468 -0.3479 -0.1123
24611SOL    HW176086   6.064   0.118   1.537  2.5727  2.4509 -0.6155
24611SOL    HW276087   5.971   0.161   1.425  0.7859  0.9217  0.2289
24612SOL     OW76088   4.523   2.965   3.074 -0.1376 -0.4268  0.2778
24612SOL    HW176089   4.508   3.058   3.090 -1.0864 -0.3117 -1.1520
24612SOL    HW276090   4.437   2.930   3.051  0.7595 -0.9079 -2.7517
24613SOL     OW76091   7.153   5.176   9.307  0.3993  0.5582 -0.4216
24613SOL    HW176092   7.150   5.233   9.230 -0.2731  0.0452 -0.7947
24613SOL    HW276093   7.122   5.091   9.274 -2.1278  0.8729  0.8762
24614SOL     OW76094   4.408   0.091   2.820 -0.3035 -0.4928  0.0168
24614SOL    HW176095   4.389   0.180   2.789  0.5679 -0.3182 -0.0269
24614SOL    HW276096   4.335   0.039   2.786  0.2519 -0.1792 -1.7909
24615SOL     OW76097   6.336   2.844   1.640  0.1259  0.0503  0.0081
24615SOL    HW176098   6.251   2.805   1.665  0.8003 -0.4435  1.6885
24615SOL    HW276099   6.385   2.847   1.722  0.6434  3.2024 -0.3119
24616SOL     OW76100   1.558   5.918   9.378  0.6716  0.2488 -0.1336
24616SOL    HW176101   1.577   5.897   9.469  0.8538 -0.4627 -0.3234
24616SOL    HW276102   1.586   6.009   9.368  2.0790 -0.1174  0.1446
24617SOL     OW76103   7.911   0.052   4.628  0.6451 -0.1155  0.5925
24617SOL    HW176104   7.980   0.084   4.570  0.3228 -0.8073 -0.1873
24617SOL    HW276105   7.925  -0.043   4.632 -0.5647 -0.3325 -0.0037
24618SOL     OW76106   5.420  10.227   3.983 -0.1256  0.6017  0.0410
24618SOL    HW176107   5.390  10.216   3.893  0.3723  1.3930 -0.2268
24618SOL    HW276108   5.511  10.256   3.975  0.2034 -0.1635  0.8179
24619SOL     OW76109   1.460   1.608   1.273  0.6865 -0.1330 -0.4729
24619SOL    HW176110   1.509   1.665   1.213 -0.1350 -1.2659 -2.3049
24619SOL    HW276111   1.507   1.525   1.273 -0.4481 -0.8078 -1.2046
24620SOL     OW76112   2.322   5.462   1.555 -0.3011 -0.5021 -0.3859
24620SOL    HW176113   2.376   5.516   1.497  1.0777  0.6847  1.8428
24620SOL    HW276114   2.236   5.502   1.552  0.2308  0.7023 -0.2191
24621SOL     OW76115   5.737   5.502   1.555  0.6415  0.2073  0.3808
24621SOL    HW176116   5.799   5.568   1.589  1.3286 -0.6248  0.8011
24621SOL    HW276117   5.792   5.427   1.534 -0.0117  0.0921 -1.0071
24622SOL     OW76118   3.028   0.810  10.391 -0.1470 -0.4800 -0.2373
24622SOL    HW176119   3.077   0.838  10.313  0.2822  1.9447  0.8292
24622SOL    HW276120   2.956   0.872  10.397  0.2285 -0.1740  1.6543
24623SOL     OW76121   5.530   8.923   8.495 -0.4499  0.4651  0.0354
24623SOL    HW176122   5.526   8.894   8.404 -1.8354  1.3037 -0.2073
24623SOL    HW276123   5.623   8.933   8.513 -0.1164 -0.5370 -1.0142
24624SOL     OW76124   9.932   0.512   5.328  0.0623 -0.1123  0.0689
24624SOL    HW176125   9.901   0.424   5.352  0.4070 -0.5686 -1.0571
24624SOL    HW276126  10.025   0.500   5.310 -0.0243  0.3296 -0.7389
24625SOL     OW76127   5.652   2.290   8.600  0.1004 -0.0207 -0.5938
24625SOL    HW176128   5.662   2.212   8.545  0.8249  0.6084 -1.3850
24625SOL    HW276129   5.573   2.333   8.566 -0.1853 -0.2980 -0.2878
24626SOL     OW76130   1.110   1.622   6.001 -0.5541 -0.0457  0.3315
24626SOL    HW176131   1.028   1.591   5.962  0.0979 -1.2090 -0.1636
24626SOL    HW276132   1.158   1.542   6.022 -0.2624  0.5629  2.2363
24627SOL     OW76133   9.311   9.744   3.827  0.3073  0.5604  0.1399
24627SOL    HW176134   9.240   9.803   3.851 -0.5186  0.0670 -1.0050
24627SOL    HW276135   9.336   9.771   3.739 -1.2410 -1.7985 -1.1119
24628SOL     OW76136   2.521   9.458  10.491  0.3831 -0.5257 -0.4214
24628SOL    HW176137   2.523   9.488  10.582  0.3793  1.9374 -1.1681
24628SOL    HW276138   2.470   9.377  10.494 -0.3529 -0.0545  1.6300
24629SOL     OW76139   5.646  10.336   5.031  0.5686 -0.1383 -0.0498
24629SOL    HW176140   5.640  10.360   4.938 -0.6138 -0.3692 -0.0428
24629SOL    HW276141   5.728  10.376   5.060  0.6629  0.4367 -1.0483
24630SOL     OW76142   8.159   7.836   2.046  0.5856 -0.4827 -0.1977
24630SOL    HW176143   8.091   7.769   2.047 -1.0521  1.0928 -0.5270
24630SOL    HW276144   8.162   7.869   2.135  0.6412 -0.2952 -0.2678
24631SOL     OW76145   5.547   8.598   1.560  0.8747 -0.5585  0.5052
24631SOL    HW176146   5.457   8.602   1.528 -0.2175 -0.9941  3.2471
24631SOL    HW276147   5.552   8.517   1.610  2.0312  0.6012  2.4146
24632SOL     OW76148  10.541   9.737   0.567  0.1192 -0.0076  0.0535
24632SOL    HW176149  10.550   9.656   0.616  0.9618  0.7656  1.2436
24632SOL    HW276150  10.506   9.711   0.482  1.6593 -1.7707 -0.0955
24633SOL     OW76151   1.467   1.684   7.792 -0.2107 -0.3658 -0.2541
24633SOL    HW176152   1.467   1.611   7.853  1.5346 -1.0571 -1.0067
24633SOL    HW276153   1.545   1.735   7.814 -0.7093  0.5577 -0.5583
24634SOL     OW76154   8.606   8.095   0.566  0.0658 -0.3872 -0.0827
24634SOL    HW176155   8.541   8.066   0.630 -0.1958 -0.2490 -0.2844
24634SOL    HW276156   8.594   8.190   0.560 -2.0077 -0.6853 -2.5631
24635SOL     OW76157   8.593   6.216   4.151 -0.1114  0.3110 -0.4715
24635SOL    HW176158   8.498   6.208   4.139 -0.1219  0.4698 -0.4891
24635SOL    HW276159   8.631   6.155   4.087 -0.1958  0.3741 -0.5815
24636SOL     OW76160   9.294   0.080   7.083  0.3164 -0.8817 -0.2311
24636SOL    HW176161   9.320   0.036   7.002  2.3387  3.5941 -2.3787
24636SOL    HW276162   9.375   0.118   7.117 -0.9410 -0.3455  2.4088
24637SOL     OW76163   7.155   8.642   0.673  0.7408  0.3065  0.1117
24637SOL    HW176164   7.222   8.676   0.733  0.9518 -0.8127  0.5470
24637SOL    HW276165   7.204   8.589   0.610  0.4711  1.1331 -0.8185
24638SOL     OW76166   8.946   4.285   2.798 -0.0851  0.0854  0.2320
24638SOL    HW176167   8.893   4.206   2.785  0.0827  0.1819 -1.0883
24638SOL    HW276168   8.942   4.331   2.715  0.0882  1.3249  0.8838
24639SOL     OW76169   0.543   2.606   6.786  0.1345 -0.0265 -0.1575
24639SOL    HW176170   0.613   2.551   6.749 -0.1216 -1.0109  0.7941
24639SOL    HW276171   0.569   2.695   6.762  0.9188 -0.4883 -1.1369
24640SOL     OW76172   3.263   3.298   3.300  0.0592  0.2938 -0.2175
24640SOL    HW176173   3.261   3.207   3.271  1.7454  0.5280 -1.2312
24640SOL    HW276174   3.326   3.340   3.241  2.3320  1.2127  2.6166
24641SOL     OW76175   9.845   7.117   3.992  0.2039  0.1536  0.0151
24641SOL    HW176176   9.866   7.040   4.046  0.1999  0.2423  0.1438
24641SOL    HW276177   9.753   7.106   3.969  0.4812 -0.4210 -0.8515
24642SOL     OW76178   9.917   0.380   2.411  0.0461 -0.1586 -0.0113
24642SOL    HW176179   9.834   0.371   2.458  0.0989  1.9173  0.6022
24642SOL    HW276180   9.977   0.417   2.476  0.6637  0.9625 -1.1738
24643SOL     OW76181   6.376   6.740   4.302 -0.4965  0.1746 -0.1487
24643SOL    HW176182   6.427   6.663   4.278 -1.9013 -0.5573 -0.9512
24643SOL    HW276183   6.433   6.790   4.360  0.0182 -2.0758  1.4273
24644SOL     OW76184   9.378   8.799   6.228 -0.1956  0.3592 -0.0655
24644SOL    HW176185   9.385   8.767   6.138 -0.5338  1.7414 -0.6121
24644SOL    HW276186   9.389   8.894   6.221  1.7727  0.3401  1.5869
24645SOL     OW76187  10.540   4.368   9.539  0.3193  0.3941 -0.0181
24645SOL    HW176188  10.503   4.370   9.451 -1.1151 -1.9115  0.4593
24645SOL    HW276189  10.546   4.460   9.564  1.0854  1.1413 -2.6103
24646SOL     OW76190   1.918   5.731   9.572  0.1321  0.2455  0.0561
24646SOL    HW176191   1.842   5.766   9.620  0.7182  0.9455  0.4963
24646SOL    HW276192   1.989   5.792   9.593  0.2165  1.1011 -2.4182
24647SOL     OW76193   4.154   6.038   1.815 -0.1160  0.1724 -0.0915
24647SOL    HW176194   4.122   5.962   1.865  0.9564 -0.2640 -0.0352
24647SOL    HW276195   4.096   6.110   1.841 -0.6819 -0.4485  0.4277
24648SOL     OW76196  10.403  10.246   4.871  0.3359 -0.2418  0.3021
24648SOL    HW176197  10.369  10.167   4.912 -0.0872 -0.5788 -0.6627
24648SOL    HW276198  10.332  10.310   4.880 -0.0986 -0.5775 -0.6425
24649SOL     OW76199   1.787   9.086   0.095  0.0790  0.5418  0.0966
24649SOL    HW176200   1.812   9.003   0.136 -1.3100  0.1446  0.2030
24649SOL    HW276201   1.870   9.128   0.072  0.8859  0.2237  2.2129
24650SOL     OW76202   7.744   4.368   2.953 -0.5110 -0.1224 -0.5570
24650SOL    HW176203   7.731   4.274   2.956  0.1016 -0.1922  0.1675
24650SOL    HW276204   7.803   4.387   3.026 -0.6027  0.8166 -0.7086
24651SOL     OW76205   9.306   4.591   8.177 -0.4287  0.1396 -0.6714
24651SOL    HW176206   9.318   4.629   8.090  1.8728 -1.4697 -1.1571
24651SOL    HW276207   9.228   4.535   8.168 -1.1264  1.1755 -1.2259
24652SOL     OW76208   0.679   3.794   4.913 -0.5310  0.1340  0.1107
24652SOL    HW176209   0.715   3.759   4.831 -2.4557  1.9667 -1.6251
24652SOL    HW276210   0.737   3.866   4.936  0.3396 -0.7338  0.7331
24653SOL     OW76211   2.176   7.210   1.324  0.0147 -0.1647 -0.1706
24653SOL    HW176212   2.179   7.122   1.286 -0.7207 -0.4301  0.3699
24653SOL    HW276213   2.237   7.261   1.270  0.6993 -1.0757 -0.2909
24654SOL     OW76214   8.977   4.758   2.149 -0.5078  0.1256  0.5081
24654SOL    HW176215   9.049   4.821   2.155 -0.0986 -0.1940 -0.6826
24654SOL    HW276216   8.987   4.719   2.062 -0.6606 -1.7030  1.2609
24655SOL     OW76217   1.754   7.931   1.006  0.4408 -0.6422  0.1720
24655SOL    HW176218   1.729   7.863   0.944  1.3459 -1.3416  0.5517
24655SOL    HW276219   1.689   7.926   1.076  0.8314 -1.5177  0.4811
24656SOL     OW76220   2.823   5.041   7.276  0.0952  0.1051 -0.1986
24656SOL    HW176221   2.814   5.107   7.207 -0.8571  1.1044  0.8475
24656SOL    HW276222   2.901   5.068   7.325  0.8386 -0.6686 -0.9014
24657SOL     OW76223   4.864   4.264   8.313  0.2508 -0.4077 -0.2029
24657SOL    HW176224   4.939   4.212   8.287 -1.1285 -1.1339 -3.0745
24657SOL    HW276225   4.797   4.200   8.338 -0.2573  0.1243 -0.1694
24658SOL     OW76226   8.956   6.269   3.433  0.0743 -0.0953 -0.6785
24658SOL    HW176227   8.906   6.335   3.385 -0.3559 -0.0740 -0.2066
24658SOL    HW276228   8.908   6.257   3.514  1.3947  0.7142  0.2694
24659SOL     OW76229   2.292   7.408   1.998  0.1757 -0.1209  0.1776
24659SOL    HW176230   2.375   7.382   1.959  2.1019  0.8870  3.2165
24659SOL    HW276231   2.264   7.333   2.051 -0.3961 -0.1276 -0.1190
24660SOL     OW76232   7.389   1.381   5.878 -0.8282  0.2047  0.0652
24660SOL    HW176233   7.471   1.348   5.841 -0.9921  1.8803 -1.9879
24660SOL    HW276234   7.393   1.475   5.865 -1.2592  0.9239  3.8438
24661SOL     OW76235   5.371   3.695   7.748 -0.0354 -0.1855 -0.7536
24661SOL    HW176236   5.281   3.674   7.774  0.1881 -1.1419 -0.7079
24661SOL    HW276237   5.394   3.771   7.801 -0.5267 -0.4531 -0.1387
24662SOL     OW76238   7.984   4.273   4.748 -0.2850 -0.0079  0.5873
24662SOL    HW176239   8.019   4.332   4.815  1.2049 -0.7577  0.5126
24662SOL    HW276240   7.986   4.326   4.668  2.9351 -0.6618  0.1034
24663SOL     OW76241   2.778   6.502   3.830 -0.0817 -0.0744  0.1154
24663SOL    HW176242   2.765   6.440   3.902  0.7252 -1.8426 -1.1839
24663SOL    HW276243   2.765   6.450   3.751 -0.4321  1.6914 -1.0417
24664SOL     OW76244   9.648   1.404   8.514 -0.1098  0.4190  0.0552
24664SOL    HW176245   9.583   1.351   8.560  0.8670 -3.1135 -2.2771
24664SOL    HW276246   9.732   1.363   8.535  0.9485  2.2376 -0.4114
24665SOL     OW76247   4.137   1.437   6.190 -0.4910  0.9734 -0.3936
24665SOL    HW176248   4.127   1.372   6.259  0.2724  0.2637 -0.9431
24665SOL    HW276249   4.061   1.495   6.202 -0.0249  1.2819  1.4491
24666SOL     OW76250   6.007   0.294   8.550  0.1474 -0.3488 -0.2721
24666SOL    HW176251   6.071   0.234   8.511 -0.2853 -0.3180 -1.0517
24666SOL    HW276252   5.930   0.239   8.568  0.3086 -0.3402  0.4450
24667SOL     OW76253   0.814   8.163   5.106 -0.1244  0.2908  0.4366
24667SOL    HW176254   0.739   8.206   5.147  0.1410 -0.0370  1.2887
24667SOL    HW276255   0.866   8.130   5.180 -0.0554 -1.0282 -0.1844
24668SOL     OW76256   1.892   3.846   8.490  0.0754 -0.0396  0.2013
24668SOL    HW176257   1.967   3.845   8.550 -0.7009 -0.3342  1.1798
24668SOL    HW276258   1.902   3.764   8.440  1.0633  0.5021 -0.5386
24669SOL     OW76259   0.602   4.281   9.454  0.0192  0.0924  0.1156
24669SOL    HW176260   0.564   4.333   9.525 -1.1799 -1.5209  0.7117
24669SOL    HW276261   0.531   4.224   9.425  1.6283 -2.3223  0.5605
24670SOL     OW76262   3.024   9.235  10.110 -0.3177  0.2420 -0.4506
24670SOL    HW176263   2.948   9.183  10.137  0.0773 -0.2264 -0.2362
24670SOL    HW276264   3.082   9.173  10.068 -0.6710  0.8558 -1.9340
24671SOL     OW76265   4.423   2.637   3.891 -0.4284  0.7104  0.3571
24671SOL    HW176266   4.479   2.573   3.935  1.0404  1.7664  0.1194
24671SOL    HW276267   4.409   2.601   3.804 -0.9831 -0.0484  0.7528
24672SOL     OW76268   0.471   6.326   2.878 -0.2803 -0.4150  0.1348
24672SOL    HW176269   0.449   6.418   2.864  0.3751 -0.0709  1.2501
24672SOL    HW276270   0.469   6.314   2.973  2.5690 -0.7587  0.2403
24673SOL     OW76271   9.728  10.351   3.097  0.2689  0.2313  0.3032
24673SOL    HW176272   9.777  10.431   3.076  0.4085  0.4848  1.5362
24673SOL    HW276273   9.758  10.287   3.033 -0.0806  1.2377 -0.9229
24674SOL     OW76274   5.854   2.297   1.171 -0.4464 -0.5163  0.5868
24674SOL    HW176275   5.842   2.208   1.137  0.1202 -0.2188 -0.4119
24674SOL    HW276276   5.947   2.301   1.196 -0.2078  0.1158 -0.3525
24675SOL     OW76277   3.113   7.955   9.579 -0.3921 -0.2035 -0.4815
24675SOL    HW176278   3.067   7.920   9.655  1.1087 -0.9946  0.1290
24675SOL    HW276279   3.072   8.039   9.561 -0.9590 -0.1335  1.0321
24676SOL     OW76280   2.299   7.032   9.269 -0.0644 -0.2993  0.2049
24676SOL    HW176281   2.383   7.076   9.258 -1.0945  1.6685 -0.3627
24676SOL    HW276282   2.310   6.947   9.228  1.5992 -0.0071 -0.0044
24677SOL     OW76283   0.274   8.095   3.204 -0.3864  0.5916 -0.0885
24677SOL    HW176284   0.286   8.000   3.206 -0.0601  0.5548 -1.9261
24677SOL    HW276285   0.359   8.130   3.177 -0.9240  1.2825 -0.9602
24678SOL     OW76286   0.231   0.224   5.681 -0.2248  0.3417 -0.3810
24678SOL    HW176287   0.311   0.245   5.730  1.9062 -0.3091 -3.2434
24678SOL    HW276288   0.221   0.130   5.690  1.8946 -0.2971 -3.2522
24679SOL     OW76289   2.489   3.407   6.316 -0.1092  0.3041 -0.1744
24679SOL    HW176290   2.552   3.411   6.388  0.5042  0.2310 -0.7038
24679SOL    HW276291   2.533   3.450   6.243  0.3238 -1.8776 -1.2856
24680SOL     OW76292   5.966   1.665   2.948  0.3892 -0.0832  0.7720
24680SOL    HW176293   6.015   1.744   2.969 -0.6654  0.8796 -0.2750
24680SOL    HW276294   5.885   1.672   2.998 -0.0582 -0.0873  0.0673
24681SOL     OW76295   0.780   7.161   0.238 -0.1771  0.1238 -0.6291
24681SOL    HW176296   0.791   7.095   0.307  0.5616  0.9130  0.0340
24681SOL    HW276297   0.741   7.113   0.165 -0.4521 -0.8567  0.1365
24682SOL     OW76298   2.454   8.618   6.762 -0.6641  0.0964 -0.4845
24682SOL    HW176299   2.493   8.558   6.825 -1.5036  0.4914  0.4421
24682SOL    HW276300   2.449   8.702   6.808 -1.3338  0.3864 -1.0641
24683SOL     OW76301   7.351   6.644   6.244 -0.0570  0.6153  0.0952
24683SOL    HW176302   7.438   6.620   6.277 -0.7865 -1.6178  0.5977
24683SOL    HW276303   7.327   6.722   6.295  0.8705  0.1340  1.3283
24684SOL     OW76304   7.729   8.143   5.638  0.5797  0.1046 -0.0461
24684SOL    HW176305   7.732   8.123   5.545  0.0014  0.0704 -0.0636
24684SOL    HW276306   7.640   8.118   5.665  0.5194  0.7390  0.3648
24685SOL     OW76307  10.560   8.375   2.056  0.9170  0.6147 -0.1972
24685SOL    HW176308  10.588   8.340   1.971 -0.9305  4.1932 -2.5508
24685SOL    HW276309  10.513   8.303   2.097  3.6128 -1.8992 -1.1433
24686SOL     OW76310   6.004   8.118   5.509  0.1841  0.0363 -0.0438
24686SOL    HW176311   6.006   8.023   5.517  0.7877  0.0267 -0.2022
24686SOL    HW276312   6.030   8.150   5.595 -1.7476  0.1004  0.5441
24687SOL     OW76313   5.107   9.724   6.593 -0.5960  0.7818  0.0219
24687SOL    HW176314   5.159   9.756   6.519 -1.0461  0.4393 -0.4458
24687SOL    HW276315   5.017   9.745   6.570 -0.6375  1.8167  1.0587
24688SOL     OW76316   6.843   6.195   1.629 -0.3510 -0.1783 -0.7031
24688SOL    HW176317   6.919   6.155   1.672 -1.4694 -0.9889  0.5820
24688SOL    HW276318   6.853   6.171   1.537  0.8791 -0.3742 -0.5415
24689SOL     OW76319   4.686   3.567  10.371  0.7151  0.7055 -0.0333
24689SOL    HW176320   4.634   3.643  10.397  0.7304  0.9030 -0.5513
24689SOL    HW276321   4.626   3.516  10.315  1.4427  1.5641 -1.6575
24690SOL     OW76322   9.807   7.570   8.997  0.3529  0.0103 -0.0833
24690SOL    HW176323   9.750   7.560   8.921 -0.6202  0.4819  0.5599
24690SOL    HW276324   9.769   7.512   9.064  0.4564  0.5346  0.4420
24691SOL     OW76325   2.218   4.564   9.598 -0.0058 -0.1930 -0.5137
24691SOL    HW176326   2.135   4.543   9.641 -0.4130 -0.4064 -1.3647
24691SOL    HW276327   2.284   4.516   9.647 -0.4242 -0.2250  0.0207
24692SOL     OW76328   3.011   3.131   7.157  0.9501  0.4045 -0.1652
24692SOL    HW176329   3.076   3.184   7.111  1.1517  1.5738  1.3569
24692SOL    HW276330   3.059   3.093   7.230  0.5839 -1.1919 -0.7231
24693SOL     OW76331   5.826   8.464   5.525  0.5862  0.1214 -0.3864
24693SOL    HW176332   5.741   8.426   5.547  1.6705 -1.9953  0.4017
24693SOL    HW276333   5.860   8.496   5.609  0.3150  1.6324 -0.8122
24694SOL     OW76334   1.417   5.551   2.116  0.4935 -0.9154 -0.4739
24694SOL    HW176335   1.485   5.611   2.085 -0.9512  1.5453  0.7758
24694SOL    HW276336   1.355   5.544   2.043 -0.1137  0.4369 -0.1185
24695SOL     OW76337   7.843   5.158   5.817 -0.0043  0.0779  0.0673
24695SOL    HW176338   7.910   5.091   5.803 -0.6993 -0.5037 -0.5521
24695SOL    HW276339   7.778   5.142   5.748 -2.0523 -0.9672  2.1343
24696SOL     OW76340   9.718   3.109   6.436 -0.4015  0.5786 -0.2653
24696SOL    HW176341   9.668   3.030   6.459 -0.1439  1.1432  2.5406
24696SOL    HW276342   9.809   3.082   6.442 -0.3219  0.9095 -0.0033
24697SOL     OW76343   8.051   4.294   6.305 -0.3233  0.8609 -0.1334
24697SOL    HW176344   8.015   4.274   6.392  0.0423  1.1444  0.0885
24697SOL    HW276345   8.072   4.387   6.309 -2.7224  1.5505 -1.4076
24698SOL     OW76346   1.002   2.120   2.222  0.2007 -0.3412 -0.0811
24698SOL    HW176347   1.031   2.079   2.140 -0.2647 -0.2654 -0.2831
24698SOL    HW276348   0.931   2.064   2.252  0.1329 -0.1614  0.0896
24699SOL     OW76349   1.052   8.778   9.119 -0.0201 -0.4059 -0.1855
24699SOL    HW176350   1.041   8.866   9.156  1.7164 -0.0872 -0.3558
24699SOL    HW276351   1.143   8.756   9.135  0.0555 -1.4223 -1.7528
24700SOL     OW76352   2.507   2.801   0.760 -0.0504 -0.0282 -0.6543
24700SOL    HW176353   2.490   2.771   0.849 -0.4518  1.0070 -0.3717
24700SOL    HW276354   2.428   2.780   0.711 -0.1883  0.2281 -0.5438
24701SOL     OW76355   9.503   6.864   8.706 -0.3773 -0.0890  0.2800
24701SOL    HW176356   9.459   6.785   8.738  0.2046 -0.8983 -0.8137
24701SOL    HW276357   9.433   6.918   8.671 -0.6343 -0.9471 -0.6001
24702SOL     OW76358   6.574   8.466   8.553  0.1566  0.0554  0.3420
24702SOL    HW176359   6.579   8.409   8.630  0.7665 -0.3597  0.0039
24702SOL    HW276360   6.568   8.405   8.479  2.6106  0.3433 -0.1626
24703SOL     OW76361   9.016  10.167   5.289  0.2305 -0.3053 -0.0644
24703SOL    HW176362   8.973  10.132   5.367 -0.8677  0.0861 -0.4839
24703SOL    HW276363   9.088  10.221   5.324  1.3418 -2.1164  0.6152
24704SOL     OW76364   4.367   4.898   0.541  0.7861  0.2104 -0.6538
24704SOL    HW176365   4.357   4.912   0.635  1.8734  0.5139 -0.5724
24704SOL    HW276366   4.397   4.807   0.534  0.4860  0.1167 -0.7232
24705SOL     OW76367  10.655   2.746   4.336  0.0152  0.2807 -0.1430
24705SOL    HW176368  10.623   2.725   4.424 -0.5561  0.7463 -0.2295
24705SOL    HW276369  10.707   2.670   4.310 -2.8405 -1.5979 -0.8808
24706SOL     OW76370   4.431   9.636   3.779  0.6180 -0.1893  0.4459
24706SOL    HW176371   4.371   9.593   3.840 -1.9269  1.9126 -0.3675
24706SOL    HW276372   4.390   9.721   3.762  1.5037 -0.3821 -3.7054
24707SOL     OW76373   8.474   9.624  10.092  0.2620 -0.6882 -0.7836
24707SOL    HW176374   8.440   9.536  10.108 -2.0098  0.3526  0.7180
24707SOL    HW276375   8.418   9.658  10.022  1.1887 -0.4478 -1.4258
24708SOL     OW76376   9.614   0.048   4.432 -0.4017  0.2483 -0.1632
24708SOL    HW176377   9.661  -0.033   4.410  1.3844  1.5801 -1.5783
24708SOL    HW276378   9.575   0.077   4.350 -2.2849  0.1219  0.6320
24709SOL     OW76379   3.084   7.972   2.667 -0.2663  0.8455  0.6128
24709SOL    HW176380   3.094   8.034   2.739  1.5702 -0.7007  1.7870
24709SOL    HW276381   3.098   8.025   2.588  1.1487  1.9799  1.5655
24710SOL     OW76382   9.157   2.548   3.636 -0.3801 -0.1288 -0.8020
24710SOL    HW176383   9.173   2.618   3.700  1.4670 -1.0743 -0.1512
24710SOL    HW276384   9.234   2.548   3.580 -0.0819 -1.9399 -0.4655
24711SOL     OW76385   2.391   7.558   0.480  0.1669 -0.0820 -0.3400
24711SOL    HW176386   2.351   7.637   0.517  1.4116  0.0981  0.6943
24711SOL    HW276387   2.332   7.487   0.505 -0.5210  0.3965 -0.5557
24712SOL     OW76388   0.620   2.685   4.860 -0.1246 -0.1327  0.2084
24712SOL    HW176389   0.707   2.661   4.831 -0.2917 -0.7956  0.2284
24712SOL    HW276390   0.625   2.779   4.879  0.7619 -0.3053  0.8709
24713SOL     OW76391   2.772   4.884   5.136  0.0798 -0.4406  0.1661
24713SOL    HW176392   2.691   4.841   5.162  0.3929 -1.4532 -0.4888
24713SOL    HW276393   2.832   4.812   5.115  1.1231  0.2866  0.5416
24714SOL     OW76394   0.247   5.929   6.218 -0.4817  0.0295  0.2609
24714SOL    HW176395   0.206   5.956   6.301  0.8454  1.1934  0.5649
24714SOL    HW276396   0.337   5.960   6.224  1.2714 -4.3722  0.5864
24715SOL     OW76397  10.464   4.537   7.045 -0.6267 -0.2352  0.0485
24715SOL    HW176398  10.449   4.477   6.973  1.0620 -0.5936 -0.0316
24715SOL    HW276399  10.452   4.624   7.007  0.1504 -0.4242 -0.6520
24716SOL     OW76400   8.718   4.840   6.776  0.1571 -0.0943  0.0788
24716SOL    HW176401   8.675   4.771   6.726  0.5713  0.8824 -1.7433
24716SOL    HW276402   8.808   4.808   6.789  0.2257 -0.0987 -0.3801
24717SOL     OW76403   7.472   0.420   2.327  0.0045  0.1371  0.0611
24717SOL    HW176404   7.405   0.439   2.261  0.7178  0.6900 -0.5256
24717SOL    HW276405   7.548   0.472   2.299  0.9243 -1.0498  0.2851
24718SOL     OW76406   3.464   9.830  10.529 -0.1729  0.2793  0.1534
24718SOL    HW176407   3.523   9.755  10.523 -0.1981  0.1758  1.1026
24718SOL    HW276408   3.516   9.899  10.569 -0.8899 -0.0426  1.7046
24719SOL     OW76409   5.720   7.108   6.522 -1.1529  0.1827 -0.2181
24719SOL    HW176410   5.631   7.087   6.495 -1.3209  0.2282  0.3048
24719SOL    HW276411   5.760   7.147   6.444 -1.6588  0.3735 -0.3810
24720SOL     OW76412   2.954   4.676   2.716 -0.1067  0.2646 -0.3877
24720SOL    HW176413   2.903   4.757   2.712  1.2949  1.1880 -0.1709
24720SOL    HW276414   2.915   4.628   2.790 -0.3853  1.1349  0.0497
24721SOL     OW76415   1.209   6.272   9.685 -0.4713 -0.1797 -0.4182
24721SOL    HW176416   1.226   6.364   9.666 -2.7868  0.6886  1.1215
24721SOL    HW276417   1.291   6.239   9.721 -0.1665  1.9084  0.9721
24722SOL     OW76418   4.342   3.302   6.665  0.2609 -0.3764 -0.4454
24722SOL    HW176419   4.366   3.369   6.602  0.4716 -0.0120  0.0160
24722SOL    HW276420   4.285   3.347   6.728 -0.4631 -0.8819 -0.7174
24723SOL     OW76421   1.572   0.966   4.264 -0.6226  0.4273  0.2078
24723SOL    HW176422   1.624   0.887   4.245 -0.7908 -0.1972  2.1188
24723SOL    HW276423   1.539   0.994   4.178  0.4538 -0.8517 -0.6759
24724SOL     OW76424   0.077   2.466   2.665 -0.5239  0.2587 -0.1617
24724SOL    HW176425   0.039   2.447   2.751 -0.9648  0.9883 -0.1917
24724SOL    HW276426   0.080   2.381   2.621 -2.1341  0.1658 -0.1563
24725SOL     OW76427   0.884   9.659   9.356  0.4262  0.0484  0.4149
24725SOL    HW176428   0.895   9.633   9.264 -0.3696  0.3960  0.2133
24725SOL    HW276429   0.898   9.578   9.406 -0.3907 -0.4241 -0.0963
24726SOL     OW76430   8.653   7.050   4.787 -0.0529 -0.2874 -0.2658
24726SOL    HW176431   8.721   7.113   4.812  0.2043  0.3000 -2.2066
24726SOL    HW276432   8.649   6.988   4.859  1.8121  0.2736  0.3752
24727SOL     OW76433   8.502   9.146   3.661 -0.1022  0.3609  0.3048
24727SOL    HW176434   8.501   9.050   3.660  0.2658  0.3219  1.5228
24727SOL    HW276435   8.505   9.169   3.754  2.5025  1.5037  0.0443
24728SOL     OW76436   2.807   6.235   9.761  0.4926  0.5582  0.1043
24728SOL    HW176437   2.851   6.152   9.741  0.2048  0.2255  0.7977
24728SOL    HW276438   2.772   6.222   9.850 -1.4608  0.5988 -0.6101
24729SOL     OW76439   5.635   2.415   0.702  0.1358 -0.3125  0.3954
24729SOL    HW176440   5.701   2.345   0.698  0.6599  0.2104 -0.4295
24729SOL    HW276441   5.655   2.462   0.783  0.4649 -0.4641  0.4027
24730SOL     OW76442   0.704   9.397   7.420  0.0629 -0.2449  0.0116
24730SOL    HW176443   0.668   9.313   7.392  2.6712 -1.2463 -0.6242
24730SOL    HW276444   0.693   9.454   7.345  0.8759 -0.8893 -0.6061
24731SOL     OW76445   6.539   6.177   7.054  0.7224 -0.1850 -0.0508
24731SOL    HW176446   6.539   6.131   7.138  1.4407 -0.2229 -0.0684
24731SOL    HW276447   6.542   6.270   7.077 -1.0643 -0.0952 -0.0073
24732SOL     OW76448   7.109   1.269   6.321 -0.1022  0.1067  0.4957
24732SOL    HW176449   7.026   1.265   6.274  0.0398  0.3835  0.2161
24732SOL    HW276450   7.110   1.190   6.374  0.0741 -0.6070 -0.5425
24733SOL     OW76451   7.183   3.134   3.780 -0.7645 -0.2173  0.2031
24733SOL    HW176452   7.203   3.164   3.691 -0.1905 -0.8674  0.1004
24733SOL    HW276453   7.122   3.199   3.814 -2.5538 -0.9520 -1.3604
24734SOL     OW76454   1.124   7.778   4.661 -0.7965  0.0386 -0.3485
24734SOL    HW176455   1.077   7.795   4.742 -1.3237 -0.1269 -0.6147
24734SOL    HW276456   1.094   7.845   4.600 -0.7167 -0.0933 -0.5354
24735SOL     OW76457   8.603   0.028   7.594 -0.4116 -0.6657 -0.2427
24735SOL    HW176458   8.682   0.005   7.644 -0.8062 -0.8128  0.3219
24735SOL    HW276459   8.632   0.030   7.503  0.2153 -0.8526 -0.0528
24736SOL     OW76460   3.185   2.184   8.645  0.2048  0.7279 -0.2353
24736SOL    HW176461   3.147   2.222   8.566 -1.6564  0.9181  0.6830
24736SOL    HW276462   3.109   2.160   8.699  1.4036  0.3713  1.3833
24737SOL     OW76463   0.842   5.593   1.419 -0.5561 -0.2035  0.2808
24737SOL    HW176464   0.775   5.540   1.376  0.4939 -1.6759  0.3478
24737SOL    HW276465   0.856   5.667   1.361 -2.7325  0.5484  0.6311
24738SOL     OW76466   5.040   6.707   8.243  0.4464  0.2606  0.0609
24738SOL    HW176467   4.996   6.758   8.176  1.0882  0.1263 -0.4707
24738SOL    HW276468   5.134   6.720   8.226  0.7202  2.3134  2.4607
24739SOL     OW76469   9.816   2.849   8.061 -0.0151 -0.0669 -0.7705
24739SOL    HW176470   9.797   2.817   8.149  0.7207 -1.6442 -1.1470
24739SOL    HW276471   9.757   2.800   8.004 -0.6832  1.1479 -1.1369
24740SOL     OW76472   5.796   0.234   5.320  0.3128  0.2763 -0.1014
24740SOL    HW176473   5.873   0.205   5.370  0.0632  0.5233  0.4371
24740SOL    HW276474   5.833   0.272   5.241  0.6765 -0.8372 -0.4845
24741SOL     OW76475   9.565   2.775   4.280 -0.3128  0.4565  0.1424
24741SOL    HW176476   9.658   2.753   4.282 -0.8306 -2.0294 -0.1598
24741SOL    HW276477   9.544   2.781   4.187 -1.0916 -2.3530  0.0571
24742SOL     OW76478   3.884   3.123   2.359 -0.0840 -0.1496  0.2073
24742SOL    HW176479   3.916   3.128   2.268 -0.4995 -0.0463  0.0656
24742SOL    HW276480   3.851   3.034   2.367 -1.1508  0.2048 -0.1179
24743SOL     OW76481   4.646   7.038   1.335 -0.3702 -0.4033 -0.0756
24743SOL    HW176482   4.678   6.958   1.293 -0.0681 -0.7930  0.8753
24743SOL    HW276483   4.593   7.081   1.267  1.1240 -0.3721 -1.2769
24744SOL     OW76484   9.973   2.313   6.017  0.0790 -0.1619  0.3391
24744SOL    HW176485  10.011   2.401   6.021 -0.6968  0.1883  0.2019
24744SOL    HW276486  10.037   2.257   6.061  1.5648  0.1077 -1.3635
24745SOL     OW76487  10.288   6.459  10.234 -0.0783 -0.2635  0.0512
24745SOL    HW176488  10.362   6.506  10.197 -0.2525  1.7464  2.0456
24745SOL    HW276489  10.240   6.425  10.159  0.8777  1.5090 -1.4213
24746SOL     OW76490   9.952   1.807   4.277 -0.2174  0.7865  0.1611
24746SOL    HW176491   9.992   1.890   4.252  0.0388  0.4529 -0.5552
24746SOL    HW276492  10.008   1.775   4.349 -0.7875  1.6032  0.9880
24747SOL     OW76493   8.892   6.908   3.820 -0.2182  0.0549  0.1442
24747SOL    HW176494   8.847   6.842   3.873  1.0065  0.6957  2.0652
24747SOL    HW276495   8.976   6.869   3.799 -0.0322  0.4738  0.1017
24748SOL     OW76496   5.346   0.209   2.728  0.1984  0.1639 -0.1674
24748SOL    HW176497   5.423   0.236   2.678 -0.8823  0.9320 -1.4714
24748SOL    HW276498   5.377   0.204   2.819  1.5947  1.1992 -0.5622
24749SOL     OW76499   5.535   5.719   7.537  0.9278 -1.0973  0.3957
24749SOL    HW176500   5.494   5.678   7.461 -0.0470  1.3902 -0.5432
24749SOL    HW276501   5.580   5.796   7.501 -0.6717  0.9382  2.3946
24750SOL     OW76502   5.099  10.288   8.921 -0.9011  0.2162 -0.0825
24750SOL    HW176503   5.075  10.208   8.874  1.5371 -0.3761 -0.4810
24750SOL    HW276504   5.075  10.272   9.012 -1.6539 -0.4229 -0.3919
24751SOL     OW76505   9.254  10.002   1.689 -0.1571 -0.2993 -0.1675
24751SOL    HW176506   9.315  10.070   1.717 -1.1228  0.9451 -1.0231
24751SOL    HW276507   9.297   9.962   1.612  0.0964 -0.2032 -0.0770
24752SOL     OW76508   0.967   3.631   6.426 -0.2628 -0.0413  0.4269
24752SOL    HW176509   0.949   3.634   6.519 -0.3617 -0.1352  0.4117
24752SOL    HW276510   1.050   3.678   6.415 -0.4762  0.3462  0.5022
24753SOL     OW76511   6.643   9.446   6.955  0.2485 -0.9338  0.7216
24753SOL    HW176512   6.686   9.532   6.964  1.2365 -1.0810 -1.8322
24753SOL    HW276513   6.560   9.457   7.001  0.5868  1.2090  0.9682
24754SOL     OW76514   3.057   1.629   5.789  0.7554 -0.0763  0.5124
24754SOL    HW176515   3.011   1.698   5.836  0.4365 -0.3231  0.5622
24754SOL    HW276516   2.989   1.581   5.742  0.9039 -0.7262  0.9499
24755SOL     OW76517   5.731   8.301   9.087 -0.2031  0.1105 -0.1521
24755SOL    HW176518   5.798   8.358   9.124  0.2505 -0.3004 -0.3196
24755SOL    HW276519   5.651   8.322   9.135 -0.4205  1.9501 -1.1917
24756SOL     OW76520   5.110   5.469   1.474 -0.4392  0.1086 -0.0859
24756SOL    HW176521   5.171   5.512   1.414  1.5835 -3.6945 -1.0568
24756SOL    HW276522   5.030   5.456   1.422 -0.4227  0.9874 -0.3492
24757SOL     OW76523   4.802   5.661   6.252  0.3854  0.3468  0.0869
24757SOL    HW176524   4.811   5.731   6.187  0.8441  0.6666  0.4933
24757SOL    HW276525   4.880   5.607   6.239  0.5114  0.4477  0.4080
24758SOL     OW76526   1.216   8.279   9.267 -0.7650  0.1232  0.3011
24758SOL    HW176527   1.286   8.219   9.245 -1.2823 -1.1300  1.8994
24758SOL    HW276528   1.199   8.328   9.186  0.9534 -0.5368 -0.4905
24759SOL     OW76529   4.082   2.619   8.673  0.5154 -0.1645  0.1436
24759SOL    HW176530   4.066   2.645   8.763 -0.6775 -0.4581  0.0353
24759SOL    HW276531   4.162   2.566   8.677  0.2442 -0.5201  1.0920
24760SOL     OW76532   9.729   1.765   5.801  0.3841  0.2031  0.3561
24760SOL    HW176533   9.735   1.853   5.840  1.0408 -0.2828  1.4115
24760SOL    HW276534   9.672   1.717   5.860  0.5582 -0.2629  0.1450
24761SOL     OW76535   2.732   9.976   3.053 -0.1291 -0.3799 -0.4993
24761SOL    HW176536   2.796   9.948   2.987 -0.4010 -1.0935 -0.4694
24761SOL    HW276537   2.746   9.916   3.127 -1.2096 -0.9079 -0.7081
24762SOL     OW76538   1.665   0.496  10.237 -0.6253  0.9555  0.6247
24762SOL    HW176539   1.698   0.556  10.303  0.1956  0.3181  0.8109
24762SOL    HW276540   1.691   0.536  10.154 -0.4600  1.0751  0.7330
24763SOL     OW76541   2.660   4.389  10.542 -0.0821  0.7265 -0.1977
24763SOL    HW176542   2.604   4.313  10.556  0.1637  0.1716 -1.9578
24763SOL    HW276543   2.605   4.450  10.492 -0.1820  1.6079  0.9447
24764SOL     OW76544   8.707   8.131   7.276 -0.1645  0.6538  0.3907
24764SOL    HW176545   8.782   8.181   7.245  0.6566 -0.1350  1.0346
24764SOL    HW276546   8.677   8.082   7.199  2.3603 -1.9373  0.8442
24765SOL     OW76547   8.298   5.283   6.434 -0.7096 -0.1344  0.2715
24765SOL    HW176548   8.368   5.328   6.481 -0.4287 -0.5058  0.2112
24765SOL    HW276549   8.221   5.338   6.448 -0.3171  0.5020 -0.0119
24766SOL     OW76550   2.775   7.615   0.103 -0.1913 -0.7534 -0.5505
24766SOL    HW176551   2.830   7.537   0.102 -1.3153 -1.6031  0.3523
24766SOL    HW276552   2.694   7.587   0.145 -0.6595  0.8906 -0.2524
24767SOL     OW76553  10.235   5.606   3.160 -0.2081  0.3261  0.2337
24767SOL    HW176554  10.152   5.634   3.123 -0.6874  0.3000  1.2553
24767SOL    HW276555  10.239   5.647   3.246  0.7994  0.2563  0.2413
24768SOL     OW76556   3.504   1.766   8.283 -0.3003  0.1738  0.4653
24768SOL    HW176557   3.473   1.690   8.332  1.2509 -0.7520  0.0744
24768SOL    HW276558   3.542   1.824   8.349 -0.2643 -0.0241  0.6193
24769SOL     OW76559  10.178   0.400   7.611  0.3863  0.3214  0.0685
24769SOL    HW176560  10.160   0.366   7.523 -0.7591 -1.7674  1.0343
24769SOL    HW276561  10.138   0.487   7.611 -0.3036  0.0421 -1.2425
24770SOL     OW76562   9.249   0.384   7.468  0.1712 -0.7611 -0.5707
24770SOL    HW176563   9.173   0.329   7.447  0.4725 -0.3971 -2.8191
24770SOL    HW276564   9.233   0.466   7.422  1.3009 -0.1737  0.0404
24771SOL     OW76565   4.024   4.851   2.168 -0.3703  0.6218  0.4246
24771SOL    HW176566   4.018   4.755   2.160 -1.1369  0.7273 -0.4406
24771SOL    HW276567   4.051   4.865   2.259 -0.4220 -0.4108  0.6197
24772SOL     OW76568   6.383   8.094   5.593  0.1089 -0.2135 -0.5452
24772SOL    HW176569   6.463   8.106   5.542  1.4559 -0.4677  1.4195
24772SOL    HW276570   6.333   8.029   5.544  0.9155  0.1993 -1.9908
24773SOL     OW76571   5.614   1.196   0.269 -0.1148 -0.2939  0.7104
24773SOL    HW176572   5.538   1.142   0.248 -0.3400 -0.0590  0.9147
24773SOL    HW276573   5.652   1.156   0.347 -0.7425  0.2973  1.3318
24774SOL     OW76574   7.761   2.109   6.848  0.3268 -0.4062  0.4713
24774SOL    HW176575   7.748   2.042   6.781  2.8892  1.3905 -2.0965
24774SOL    HW276576   7.686   2.167   6.839 -0.8740 -1.7752  1.3243
24775SOL     OW76577   1.135   4.521   1.848  0.3049 -1.1128  0.5588
24775SOL    HW176578   1.067   4.454   1.851 -0.6757 -0.3104 -1.9155
24775SOL    HW276579   1.132   4.562   1.935 -0.1644 -3.1394  1.5645
24776SOL     OW76580   6.726   2.585   2.781  0.3211 -0.3534  0.2981
24776SOL    HW176581   6.630   2.581   2.781  0.3257 -0.4766 -0.2687
24776SOL    HW276582   6.750   2.585   2.689  0.8658 -0.1956  0.4388
24777SOL     OW76583   0.329   9.822   0.801  0.3213 -0.0916  0.3390
24777SOL    HW176584   0.297   9.896   0.750 -2.6296 -0.0237  2.0802
24777SOL    HW276585   0.397   9.859   0.858  0.5619  0.7151 -0.4489
24778SOL     OW76586  10.404   0.344   0.465  0.5957 -0.4778  0.6348
24778SOL    HW176587  10.476   0.328   0.405  0.6540  1.4379  0.1236
24778SOL    HW276588  10.445   0.385   0.541  0.1621 -0.1830  0.7153
24779SOL     OW76589   8.302   6.095   9.468  0.3930 -0.3700  0.2094
24779SOL    HW176590   8.380   6.112   9.522 -0.0826  0.1168  0.7594
24779SOL    HW276591   8.270   6.182   9.446  0.1811 -0.5722 -0.2877
24780SOL     OW76592   4.210   2.899   8.708 -0.0411 -0.6110  0.2807
24780SOL    HW176593   4.118   2.922   8.695  0.2029 -0.0476 -0.5392
24780SOL    HW276594   4.214   2.805   8.691 -0.4680 -0.6362  0.3249
24781SOL     OW76595   4.390   4.806   0.832 -0.6185  0.2136  0.1689
24781SOL    HW176596   4.389   4.711   0.841  1.9363  0.2381  1.9731
24781SOL    HW276597   4.318   4.836   0.888 -2.2812 -0.6331 -1.4232
24782SOL     OW76598   7.423   3.729   8.291  0.2882  0.2431  0.4026
24782SOL    HW176599   7.340   3.692   8.263  0.7977  0.1815 -1.1275
24782SOL    HW276600   7.471   3.655   8.328  0.1906 -0.0281 -0.0047
24783SOL     OW76601   9.331   7.100   6.232 -0.3409 -0.3365 -0.1005
24783SOL    HW176602   9.411   7.151   6.243 -1.5832  1.3646  1.5599
24783SOL    HW276603   9.287   7.140   6.157 -2.4897  2.9102  2.6110
24784SOL     OW76604   6.015   5.250   1.999  0.2915 -0.0048  0.2689
24784SOL    HW176605   6.005   5.180   2.063  1.1775  0.4615  0.9333
24784SOL    HW276606   6.054   5.322   2.049 -0.8064  1.0457 -0.3372
24785SOL     OW76607   7.160   4.800   7.496  0.6388  0.3829 -0.2309
24785SOL    HW176608   7.174   4.710   7.466  0.0257  0.6316 -1.3197
24785SOL    HW276609   7.075   4.825   7.459 -0.0802  0.8000  1.5711
24786SOL     OW76610   0.102   0.804   3.297 -0.5145 -0.1003  0.1943
24786SOL    HW176611   0.188   0.766   3.319 -0.6085  0.3134  1.3392
24786SOL    HW276612   0.123   0.884   3.249 -0.3123 -1.3936 -1.9890
24787SOL     OW76613   3.896   4.253   4.634 -0.3200 -0.6197 -0.7036
24787SOL    HW176614   3.890   4.302   4.715 -0.5279 -0.1896 -0.9734
24787SOL    HW276615   3.987   4.223   4.630 -0.4759 -1.1996  0.0030
24788SOL     OW76616   4.984   0.439   3.774 -0.0066  0.0541 -0.1930
24788SOL    HW176617   4.926   0.362   3.780  1.4294 -1.3158 -2.2653
24788SOL    HW276618   5.064   0.412   3.818  0.0425  0.9223  0.2727
24789SOL     OW76619   3.570   8.975   9.153  0.4614  0.6473  0.6095
24789SOL    HW176620   3.577   8.961   9.059 -1.1686 -0.0937  0.5597
24789SOL    HW276621   3.605   9.062   9.167  0.6850  0.7867 -0.6952
24790SOL     OW76622   6.896   6.530   3.067  0.4284  0.2346  0.1623
24790SOL    HW176623   6.844   6.519   2.988  0.5095  2.0910 -0.1712
24790SOL    HW276624   6.987   6.525   3.037  0.4598  0.5619  0.2066
24791SOL     OW76625   4.264   9.089  10.355  0.0211 -0.1913  0.2140
24791SOL    HW176626   4.228   9.005  10.384  1.0991 -0.5991  0.4289
24791SOL    HW276627   4.257   9.086  10.259  0.3634 -0.6746  0.2024
24792SOL     OW76628   1.892   2.102   6.607  0.0227  0.0052 -0.0192
24792SOL    HW176629   1.882   2.031   6.670  0.8044  0.5392  0.7362
24792SOL    HW276630   1.859   2.066   6.525 -0.3472 -0.9488  0.5254
24793SOL     OW76631   8.507   6.694   9.632 -0.5737  0.3471 -0.4511
24793SOL    HW176632   8.585   6.692   9.576 -0.4483  0.0990 -0.2707
24793SOL    HW276633   8.459   6.771   9.603 -0.0245  0.7766 -0.2528
24794SOL     OW76634   0.814   2.463   5.154 -0.4363 -0.6531  0.2738
24794SOL    HW176635   0.883   2.431   5.095  0.9040 -1.5556  2.2302
24794SOL    HW276636   0.841   2.553   5.175 -0.1853 -0.7816  0.5181
24795SOL     OW76637   4.007   6.983   3.452 -0.4433 -0.9549 -0.2762
24795SOL    HW176638   4.089   6.990   3.501  0.0186  0.5025 -1.1986
24795SOL    HW276639   4.031   7.002   3.361 -1.7815 -0.5588 -0.5782
24796SOL     OW76640   2.004   1.021   8.979  0.5676 -0.3099 -0.2854
24796SOL    HW176641   1.912   1.000   8.959 -1.0330  1.6127  3.9288
24796SOL    HW276642   2.024   0.968   9.057  1.4708  2.3730  1.4419
24797SOL     OW76643   7.328   7.949   8.706  0.4572 -0.2798  0.0496
24797SOL    HW176644   7.411   7.912   8.676  0.7437 -1.1019  1.7481
24797SOL    HW276645   7.266   7.928   8.636  1.2470 -1.4689 -0.3285
24798SOL     OW76646   6.522   3.724   9.342 -0.0702  0.6609 -0.0837
24798SOL    HW176647   6.462   3.796   9.362  0.4271  0.8437  0.7732
24798SOL    HW276648   6.472   3.645   9.362 -0.0710  0.8092  0.5250
24799SOL     OW76649   9.228   8.147   5.765 -0.1951 -0.0649  0.1133
24799SOL    HW176650   9.286   8.202   5.818  0.9931 -0.3850 -0.8173
24799SOL    HW276651   9.155   8.126   5.824  1.4062 -0.9810  1.8657
24800SOL     OW76652   8.929   5.080   7.442  0.5660 -0.5404  0.0578
24800SOL    HW176653   8.968   5.007   7.393  0.9657  0.6195 -1.4310
24800SOL    HW276654   8.876   5.126   7.377  3.1284  2.5675 -0.0878
24801SOL     OW76655   4.882   7.064   9.199  0.0545 -0.1720 -0.3461
24801SOL    HW176656   4.870   6.988   9.143  0.6923 -1.0965  0.7226
24801SOL    HW276657   4.808   7.062   9.259  0.0161  0.1170 -0.3810
24802SOL     OW76658  10.262  10.654   6.389 -0.3378 -0.2767  0.1052
24802SOL    HW176659  10.303  10.735   6.420  0.4266 -0.2188 -0.9912
24802SOL    HW276660  10.276  10.655   6.294  0.5533 -2.1522  0.1743
24803SOL     OW76661   3.941   6.954   5.488  0.2263  0.3649  0.6934
24803SOL    HW176662   3.956   6.963   5.394 -0.4155 -3.8830  0.0053
24803SOL    HW276663   4.027   6.966   5.528  0.9492 -0.1182 -0.6817
24804SOL     OW76664   0.966   6.447   0.523 -0.2572  0.3946  0.5495
24804SOL    HW176665   0.909   6.396   0.465 -0.1764  2.6204 -1.6304
24804SOL    HW276666   0.906   6.493   0.581 -0.4498 -0.2120  0.8405
24805SOL     OW76667   4.201   5.101   7.498  0.1870 -0.4564 -0.2104
24805SOL    HW176668   4.144   5.079   7.424  0.5824  0.4925 -0.8210
24805SOL    HW276669   4.141   5.112   7.572 -0.2153 -1.3950 -0.3883
24806SOL     OW76670   6.656   0.691   6.656  0.5798  0.3429 -0.1701
24806SOL    HW176671   6.689   0.776   6.626  1.7844 -0.2159 -0.4709
24806SOL    HW276672   6.692   0.681   6.744  0.0539  0.3418  0.0508
24807SOL     OW76673   1.424   4.213   4.444 -0.0898  0.2291 -0.1113
24807SOL    HW176674   1.514   4.199   4.414 -0.3823 -1.0151 -0.4730
24807SOL    HW276675   1.402   4.132   4.490 -0.5337  1.1001  1.2760
24808SOL     OW76676  10.087   1.175   7.945  0.0620  0.2912 -0.1240
24808SOL    HW176677  10.070   1.096   7.894 -0.0701  0.5268 -0.4474
24808SOL    HW276678  10.151   1.223   7.893  0.0592  0.4489  0.0200
24809SOL     OW76679   0.091   4.634  10.040 -0.0416 -0.7036  0.4743
24809SOL    HW176680   0.006   4.596  10.016  0.7099 -0.2015 -3.7757
24809SOL    HW276681   0.073   4.727  10.053 -0.3699 -0.8621  1.1886
24810SOL     OW76682   7.882   5.517   1.633 -0.1659  0.6824 -0.0090
24810SOL    HW176683   7.787   5.519   1.646 -0.2919  1.6621 -0.9292
24810SOL    HW276684   7.893   5.502   1.539  0.6146 -0.0301  0.1838
24811SOL     OW76685   5.838   7.521   4.683 -0.1307 -0.1099  0.2556
24811SOL    HW176686   5.932   7.524   4.662 -0.3600  0.4986 -0.7967
24811SOL    HW276687   5.823   7.600   4.735  0.2346 -1.0659  1.8768
24812SOL     OW76688   8.667   3.544   2.411  0.0174  0.4702 -0.7780
24812SOL    HW176689   8.673   3.640   2.405  3.0943  0.4813  0.7023
24812SOL    HW276690   8.612   3.528   2.488 -0.3249  1.0271 -0.8977
24813SOL     OW76691   4.719   9.676   6.299  0.1140  0.4778 -0.4955
24813SOL    HW176692   4.658   9.627   6.354  0.0551  1.0054 -0.0849
24813SOL    HW276693   4.771   9.726   6.360 -0.5043  1.7213 -0.9570
24814SOL     OW76694   3.485   3.968   2.166  0.1071  0.2685  0.0041
24814SOL    HW176695   3.400   3.994   2.131  0.0425 -1.3322 -1.1214
24814SOL    HW276696   3.474   3.875   2.188  1.5550  0.0463 -0.1367
24815SOL     OW76697   4.173   5.746   8.944 -0.6213 -0.2324  0.1124
24815SOL    HW176698   4.099   5.731   9.002  0.6206 -0.6714  1.6884
24815SOL    HW276699   4.162   5.835   8.912 -0.8736  0.3793  1.8190
24816SOL     OW76700   2.734   5.842   0.925 -0.0640 -0.0530 -0.2501
24816SOL    HW176701   2.753   5.935   0.909 -2.5668  0.5845  0.0329
24816SOL    HW276702   2.743   5.832   1.020 -2.7708  0.7493  0.1668
24817SOL     OW76703   3.613   6.876  10.502  0.1294 -0.0226  0.1244
24817SOL    HW176704   3.562   6.858  10.582  0.2270 -3.2548 -0.4445
24817SOL    HW276705   3.704   6.878  10.532  0.1821 -1.4292  0.0862
24818SOL     OW76706   0.355   9.882  10.533 -0.0666  0.1855  0.6321
24818SOL    HW176707   0.362   9.974  10.508  1.4518 -0.3692 -1.2694
24818SOL    HW276708   0.272   9.876  10.579  0.1811  2.6484  1.5706
24819SOL     OW76709   3.203   2.898   8.617 -0.1594  0.6778  0.3352
24819SOL    HW176710   3.255   2.968   8.577  1.5097 -0.7749 -0.1354
24819SOL    HW276711   3.248   2.879   8.700 -0.0672 -0.4438  0.0383
24820SOL     OW76712   9.479   1.168   5.669  0.2546 -0.1604 -0.3635
24820SOL    HW176713   9.561   1.129   5.640 -0.5718 -1.8656 -0.5529
24820SOL    HW276714   9.502   1.258   5.693  2.3585 -0.8702  0.5327
24821SOL     OW76715   0.167   0.107   1.431  0.3933  0.2117  0.1554
24821SOL    HW176716   0.187   0.143   1.517  0.5110  1.7628 -0.4893
24821SOL    HW276717   0.081   0.143   1.409 -1.0617 -2.5561  0.8497
24822SOL     OW76718   9.597   8.113   7.251  0.2369 -0.3946 -0.0512
24822SOL    HW176719   9.614   8.204   7.274  0.1694 -0.4369  0.1747
24822SOL    HW276720   9.503   8.109   7.233  0.3616 -0.2798 -0.7321
24823SOL     OW76721  10.041   5.525   7.767  0.2627  0.2374  0.0966
24823SOL    HW176722  10.062   5.449   7.712  0.6754  0.3629  0.0754
24823SOL    HW276723   9.985   5.579   7.712  0.3676  0.1813 -0.0678
24824SOL     OW76724   5.892   6.693   7.245  0.5101  0.8512  0.7525
24824SOL    HW176725   5.804   6.730   7.234 -0.6005 -1.6287  0.6412
24824SOL    HW276726   5.915   6.659   7.159  0.1150 -1.4296  1.4954
24825SOL     OW76727   0.135   6.867   8.274 -0.3908  0.2878  0.0809
24825SOL    HW176728   0.216   6.867   8.325  0.0903 -1.7356 -0.5934
24825SOL    HW276729   0.164   6.870   8.183 -1.0739 -0.3314 -0.1640
24826SOL     OW76730   7.835   4.707   9.649 -0.4246 -0.1333 -0.1688
24826SOL    HW176731   7.777   4.653   9.594 -2.7439  1.4376  0.6070
24826SOL    HW276732   7.852   4.785   9.596 -2.2549  1.1577  1.0134
24827SOL     OW76733   1.869   7.107   5.682 -0.5805  0.2594  0.7889
24827SOL    HW176734   1.844   7.129   5.592  0.9770  1.3060  0.5687
24827SOL    HW276735   1.845   7.015   5.691 -0.7981  0.1410 -0.6962
24828SOL     OW76736   9.386   4.538   9.142  0.1527 -0.1074 -0.5673
24828SOL    HW176737   9.465   4.591   9.156 -0.6201  0.3786  2.8478
24828SOL    HW276738   9.419   4.451   9.122  1.5093  0.4514 -0.8857
24829SOL     OW76739   1.902   1.979   7.324  0.6302  0.3989 -0.2638
24829SOL    HW176740   1.913   2.073   7.335  0.3311  0.3145  0.9937
24829SOL    HW276741   1.839   1.970   7.253  0.5049  1.1578 -0.2599
24830SOL     OW76742   7.842   4.146   0.647  0.2719 -0.2588  0.0188
24830SOL    HW176743   7.863   4.052   0.643  3.0734  0.3114 -0.2895
24830SOL    HW276744   7.850   4.176   0.557  0.8996  0.5530  0.3368
24831SOL     OW76745   0.425   6.877   1.622  0.2413  0.5754 -0.1506
24831SOL    HW176746   0.438   6.957   1.673  1.5885  0.1390  0.2314
24831SOL    HW276747   0.510   6.859   1.582 -0.3048 -0.1169 -1.0601
24832SOL     OW76748   2.328  10.362   5.540 -0.3397  0.3246 -0.0800
24832SOL    HW176749   2.422  10.358   5.558 -0.5501  3.8662  2.8269
24832SOL    HW276750   2.322  10.412   5.458  0.2354 -0.6277 -0.7350
24833SOL     OW76751   1.452   2.515   1.292 -0.3508  0.0960 -0.5434
24833SOL    HW176752   1.495   2.579   1.349 -0.7278  1.4255 -1.7076
24833SOL    HW276753   1.368   2.499   1.334  0.1959 -0.5332  0.3570
24834SOL     OW76754   8.083   1.178   6.125  0.0927  0.6143  0.0896
24834SOL    HW176755   8.065   1.129   6.205 -2.5887  0.4047 -0.5528
24834SOL    HW276756   8.043   1.263   6.138 -2.7553 -0.2563 -1.8576
24835SOL     OW76757   6.733   1.844   4.525  0.5187  0.3698  0.1546
24835SOL    HW176758   6.733   1.838   4.429 -0.8263  0.1992  0.1383
24835SOL    HW276759   6.772   1.761   4.553  0.4423  0.1875 -0.2559
24836SOL     OW76760   1.930   8.385   1.393 -0.1989 -0.2455  0.4482
24836SOL    HW176761   2.015   8.429   1.398 -1.6534  2.7123  1.7896
24836SOL    HW276762   1.896   8.409   1.307 -0.7614  0.9054  0.9675
24837SOL     OW76763   1.976   7.129   8.785  0.2778 -0.1314  0.0983
24837SOL    HW176764   2.054   7.134   8.840 -0.1819 -0.1911  0.7764
24837SOL    HW276765   2.001   7.173   8.704  0.1930  2.3969  1.3175
24838SOL     OW76766   1.086   3.123   3.787  0.2902 -0.7781  0.0279
24838SOL    HW176767   1.141   3.202   3.791 -0.6095 -0.1597  0.7057
24838SOL    HW276768   1.148   3.051   3.785  1.1420 -0.0506 -0.8305
24839SOL     OW76769   8.452   1.405  10.485 -0.0599 -0.1257 -0.2620
24839SOL    HW176770   8.372   1.431  10.530  1.5379 -0.3613  2.9898
24839SOL    HW276771   8.421   1.363  10.404 -3.0980  1.1476  0.0958
24840SOL     OW76772   3.373   7.957   9.287  0.3613 -0.3215 -0.6086
24840SOL    HW176773   3.363   7.973   9.381  2.8024 -1.3398 -0.1024
24840SOL    HW276774   3.350   7.865   9.276 -0.5270 -0.0493 -1.1573
24841SOL     OW76775   2.839  10.396   1.903  0.1700  0.2788  0.1475
24841SOL    HW176776   2.874  10.310   1.880 -2.2446 -1.0076  0.9046
24841SOL    HW276777   2.828  10.394   1.998 -1.5364  0.6960  0.0067
24842SOL     OW76778   7.174   2.713   9.093  0.0298 -0.5265  0.1447
24842SOL    HW176779   7.090   2.692   9.051 -0.1065  0.1300  0.0626
24842SOL    HW276780   7.219   2.768   9.028 -0.6051  1.3538  1.2059
24843SOL     OW76781  10.573   9.181   8.293 -0.3773  0.2286 -0.5357
24843SOL    HW176782  10.514   9.122   8.339 -0.0354 -0.8779 -1.4712
24843SOL    HW276783  10.556   9.267   8.332 -0.5001 -0.5539  1.2369
24844SOL     OW76784   8.968   6.043   6.769 -0.2275  0.3538 -0.1245
24844SOL    HW176785   8.997   5.996   6.847  3.9447  1.4899 -0.7547
24844SOL    HW276786   8.921   6.119   6.803 -1.3589 -0.8441  1.0937
24845SOL     OW76787   9.743   3.238   8.259  0.2961  0.2115 -0.3140
24845SOL    HW176788   9.792   3.320   8.259  0.6242  0.0354 -1.6638
24845SOL    HW276789   9.774   3.191   8.181  1.2717 -1.8854  1.2225
24846SOL     OW76790   6.956   5.836   9.994  0.0747  0.5738 -0.1385
24846SOL    HW176791   6.911   5.904  10.043  2.1938  1.8236  0.1724
24846SOL    HW276792   6.923   5.846   9.904 -3.0448 -1.0643  0.6978
24847SOL     OW76793   6.580   6.540   7.823 -0.6102 -0.2824 -0.7023
24847SOL    HW176794   6.655   6.595   7.844  0.1183 -1.8451  1.1354
24847SOL    HW276795   6.504   6.589   7.854  0.0019 -0.1739  0.7178
24848SOL     OW76796   8.384   2.659  10.213 -0.1125  0.2089  0.4552
24848SOL    HW176797   8.454   2.698  10.160  0.1257 -0.6457  0.1283
24848SOL    HW276798   8.304   2.703  10.185  0.2453  0.9760  0.6097
24849SOL     OW76799  10.346   4.040   1.836  0.1744 -0.5794 -0.2561
24849SOL    HW176800  10.390   3.955   1.841  0.5031 -0.4794 -1.3024
24849SOL    HW276801  10.417   4.104   1.825 -0.1680 -0.3354 -1.1470
24850SOL     OW76802   6.826   3.665   6.344 -0.0249 -0.0155  0.0259
24850SOL    HW176803   6.868   3.622   6.419  0.3332 -1.0939 -0.7756
24850SOL    HW276804   6.893   3.723   6.309 -0.7167  1.7680  1.5071
24851SOL     OW76805   0.556   1.160  10.044 -0.3765  0.1476  0.1673
24851SOL    HW176806   0.477   1.185  10.092  0.5973  1.6670  1.0368
24851SOL    HW276807   0.545   1.199   9.957 -0.0739  1.3531  0.6609
24852SOL     OW76808   5.095   9.600   9.337  0.1979 -0.1127  0.2827
24852SOL    HW176809   5.087   9.540   9.264 -1.9406  0.7129 -0.2635
24852SOL    HW276810   5.183   9.638   9.329  0.2184 -0.4657 -1.5199
24853SOL     OW76811   3.374   5.707   5.365  0.4462 -0.0974 -0.5511
24853SOL    HW176812   3.436   5.770   5.328  0.2121  0.2163 -0.4111
24853SOL    HW276813   3.288   5.739   5.339  0.3525 -0.7548 -1.0865
24854SOL     OW76814   2.533   6.951   1.446 -0.4785 -0.1998  0.3527
24854SOL    HW176815   2.476   6.936   1.371 -0.1583  1.2244 -0.1962
24854SOL    HW276816   2.473   6.967   1.519 -0.7794 -0.2920  0.1266
24855SOL     OW76817   7.945   1.791  10.304  0.4543  0.3927  0.2279
24855SOL    HW176818   7.952   1.882  10.277  3.0913  0.2863  0.3013
24855SOL    HW276819   7.957   1.793  10.399 -2.7781  0.2024  0.7389
24856SOL     OW76820   1.173   9.915   4.881 -0.6874 -0.1469 -0.1928
24856SOL    HW176821   1.202   9.829   4.852 -0.1231  0.3781 -1.2804
24856SOL    HW276822   1.091   9.930   4.833 -0.5370  0.1000 -0.3819
24857SOL     OW76823   5.278   3.345   9.853 -0.2895  0.4464 -0.0262
24857SOL    HW176824   5.243   3.279   9.912 -0.0853  0.1252 -0.2648
24857SOL    HW276825   5.312   3.414   9.912  1.5334 -0.6665  0.3182
24858SOL     OW76826   3.898   6.208   8.124  0.2813 -0.0534 -0.0886
24858SOL    HW176827   3.859   6.295   8.130 -1.2097 -0.7176  0.2419
24858SOL    HW276828   3.825   6.150   8.107  1.2136 -1.2944 -0.0063
24859SOL     OW76829   0.605   5.643   0.932 -0.1476  0.1824 -0.1325
24859SOL    HW176830   0.688   5.680   0.961 -0.6282  0.5685  0.7725
24859SOL    HW276831   0.538   5.695   0.977 -0.9572  1.2365 -2.3960
24860SOL     OW76832   8.391   1.181   8.484  0.2421 -0.4377  0.5623
24860SOL    HW176833   8.456   1.215   8.546  1.2317 -0.6395 -0.3274
24860SOL    HW276834   8.309   1.181   8.533  0.2372  2.7565  0.7924
24861SOL     OW76835   0.064   4.306   6.876 -0.2100 -0.2389  0.6082
24861SOL    HW176836   0.131   4.252   6.917  0.5655  0.5119  0.3644
24861SOL    HW276837   0.036   4.366   6.946  0.3427  0.3293  0.3562
24862SOL     OW76838   8.009   8.178   7.960 -0.2318  0.4151  0.2155
24862SOL    HW176839   8.010   8.119   7.885 -1.4103  1.0591 -0.3294
24862SOL    HW276840   8.093   8.225   7.954  0.0483 -0.1302 -0.2033
24863SOL     OW76841   6.034   8.362   3.561  0.1639  0.3885  0.0879
24863SOL    HW176842   6.123   8.366   3.597  0.1964  0.0463  0.0447
24863SOL    HW276843   6.004   8.273   3.580  0.0928  0.2764 -0.5138
24864SOL     OW76844   6.186   0.068   6.598 -0.1673 -0.2796 -1.0892
24864SOL    HW176845   6.210   0.150   6.641 -2.1610 -0.8596  1.3839
24864SOL    HW276846   6.269   0.020   6.589  0.9621  1.7772 -2.2074
24865SOL     OW76847   7.604   4.075   2.654  0.4894 -0.1444  0.7399
24865SOL    HW176848   7.531   4.120   2.697 -0.7080  0.0099 -1.3305
24865SOL    HW276849   7.679   4.133   2.666 -0.4932  1.3035  0.1416
24866SOL     OW76850   7.643   5.862   4.955  0.7716 -0.1170  0.3480
24866SOL    HW176851   7.732   5.869   4.920  0.4314 -0.1117 -0.5448
24866SOL    HW276852   7.610   5.778   4.921 -0.2657  0.8051 -1.0292
24867SOL     OW76853   3.039   7.394   2.997 -0.6299 -0.0918 -0.4021
24867SOL    HW176854   2.983   7.317   2.991  0.1197 -0.6417 -0.5053
24867SOL    HW276855   3.085   7.397   2.913  1.3284 -1.1065  0.5606
24868SOL     OW76856   8.774   1.632   4.334 -0.4450  0.1220 -0.1424
24868SOL    HW176857   8.866   1.655   4.325 -0.7555  1.0656 -1.0580
24868SOL    HW276858   8.733   1.711   4.370 -1.0210 -0.0330 -0.4574
24869SOL     OW76859   2.566   9.838   8.174  0.2835 -0.1590  0.6080
24869SOL    HW176860   2.516   9.807   8.249  1.2681 -2.7014  0.2874
24869SOL    HW276861   2.656   9.845   8.205  0.5622 -0.4619 -0.0977
24870SOL     OW76862   3.120   6.929   0.417  0.5383  0.1025 -0.5579
24870SOL    HW176863   3.067   6.894   0.488  2.9809 -1.2456  0.7330
24870SOL    HW276864   3.127   6.856   0.355  1.3825  0.0442 -0.3996
24871SOL     OW76865   8.823   8.165  10.284  0.1007  0.2250  0.8202
24871SOL    HW176866   8.818   8.260  10.281  2.6809  0.4645  1.5913
24871SOL    HW276867   8.856   8.139  10.198 -0.8818 -0.0337  0.5056
24872SOL     OW76868   3.084   7.436   9.134 -0.5965  0.0080 -0.3522
24872SOL    HW176869   3.002   7.464   9.175 -0.4278  0.3965 -0.2746
24872SOL    HW276870   3.106   7.354   9.178 -1.3160 -0.4790 -0.8701
24873SOL     OW76871   5.190   9.923   6.092 -0.4535  0.3642  0.5342
24873SOL    HW176872   5.235   9.920   6.007 -1.3556 -0.3954  0.0631
24873SOL    HW276873   5.260   9.921   6.156  0.3427  2.5188 -0.1710
24874SOL     OW76874   5.149   6.369   5.311 -0.7337  0.0478  0.0896
24874SOL    HW176875   5.237   6.387   5.279 -1.0008  0.8235 -0.2180
24874SOL    HW276876   5.094   6.369   5.232 -1.1024  0.1654  0.3437
24875SOL     OW76877   2.461   3.137   0.941  0.7206 -0.5679  0.4705
24875SOL    HW176878   2.509   3.086   0.876  1.3076  2.9224 -2.1487
24875SOL    HW276879   2.370   3.132   0.913  0.7450 -0.3825  0.3571
24876SOL     OW76880   6.779   2.521   5.137 -0.1416  0.3528  0.6859
24876SOL    HW176881   6.761   2.494   5.047 -0.4277 -0.3018  0.9270
24876SOL    HW276882   6.697   2.505   5.184 -0.8070  3.0729  0.5593
24877SOL     OW76883   6.983  10.214   4.869  0.5525 -0.0164  0.1016
24877SOL    HW176884   6.891  10.240   4.878 -0.0542 -0.8200 -2.8261
24877SOL    HW276885   6.989  10.179   4.780  3.8544  0.5591  0.0058
24878SOL     OW76886   3.996   7.352   1.873  0.3886  0.4307  0.2168
24878SOL    HW176887   4.081   7.376   1.837  0.0417  1.0114 -0.2451
24878SOL    HW276888   3.969   7.276   1.822  0.5194  0.4050  0.1857
24879SOL     OW76889   4.313   2.746   9.473 -0.3131  0.1467 -0.0436
24879SOL    HW176890   4.403   2.723   9.496 -0.0731 -1.1422 -2.0845
24879SOL    HW276891   4.320   2.787   9.387 -1.7756 -1.1498 -0.8301
24880SOL     OW76892   8.234   9.168   1.941 -0.5429  0.3400 -0.4193
24880SOL    HW176893   8.168   9.116   1.987 -0.0370  0.8905  0.9943
24880SOL    HW276894   8.189   9.202   1.864 -0.9818 -1.8789 -1.2062
24881SOL     OW76895   1.252   5.808   6.010 -0.4698 -0.3205  0.2388
24881SOL    HW176896   1.251   5.713   6.022 -2.2843 -0.1897  1.5106
24881SOL    HW276897   1.270   5.844   6.096  0.5515  0.5008 -0.3002
24882SOL     OW76898   1.651   9.011   4.022  0.2774  0.1879 -0.2988
24882SOL    HW176899   1.658   9.085   3.961 -2.6481  1.2655  0.5205
24882SOL    HW276900   1.605   8.943   3.973 -1.6176  0.8663  0.4727
24883SOL     OW76901   2.855   4.163   6.892  0.1276  0.2474  0.0253
24883SOL    HW176902   2.878   4.250   6.858 -0.2815 -0.6251 -2.7137
24883SOL    HW276903   2.889   4.103   6.826  0.0082 -1.6750  1.6496
24884SOL     OW76904   2.707   5.461   2.912  0.1447  0.6218 -0.0874
24884SOL    HW176905   2.764   5.523   2.866  1.3181 -0.4319 -0.0902
24884SOL    HW276906   2.703   5.496   3.002  0.5554  0.8659 -0.1587
24885SOL     OW76907   0.659   1.444   4.633 -0.0357 -0.1010 -0.0665
24885SOL    HW176908   0.681   1.393   4.711 -1.6446 -2.4516 -1.0234
24885SOL    HW276909   0.578   1.490   4.657  0.4657  0.6579  0.2155
24886SOL     OW76910   1.100   3.095   1.600 -0.2386 -0.1897 -0.5442
24886SOL    HW176911   1.044   3.035   1.550 -0.5437  0.3159 -0.8126
24886SOL    HW276912   1.175   3.111   1.544 -0.8296  0.7949 -1.0810
24887SOL     OW76913   5.733   3.922  10.549 -0.5966  0.0827 -0.1679
24887SOL    HW176914   5.647   3.893  10.518  0.2519 -0.5067 -2.0924
24887SOL    HW276915   5.792   3.851  10.525  0.2857 -0.1341  2.3079
24888SOL     OW76916  10.399   6.715   1.076  0.1522  0.2865 -1.1257
24888SOL    HW176917  10.366   6.656   1.008  0.7301 -1.7682  0.2931
24888SOL    HW276918  10.440   6.786   1.026 -0.5561 -0.4802 -2.9149
24889SOL     OW76919   1.341   8.010   6.977  0.3239 -0.2404  0.0391
24889SOL    HW176920   1.345   8.059   6.895  1.1934  1.0816  0.8149
24889SOL    HW276921   1.253   8.025   7.010  0.0854 -0.4866 -0.4802
24890SOL     OW76922   3.896   3.609   0.449 -0.3523  0.2090 -0.1867
24890SOL    HW176923   3.947   3.596   0.528 -1.1810  0.1368  0.3436
24890SOL    HW276924   3.904   3.526   0.401  0.4542  0.3825 -0.3786
24891SOL     OW76925   5.800   0.210   6.736  0.2249 -0.2817 -0.0811
24891SOL    HW176926   5.861   0.148   6.696 -0.5391 -0.4293 -1.0512
24891SOL    HW276927   5.738   0.232   6.666 -0.1720  0.7280  0.5628
24892SOL     OW76928   5.008   3.264  10.302  0.2787 -0.3690  0.4506
24892SOL    HW176929   4.992   3.336  10.362 -0.5150 -0.1373 -0.0291
24892SOL    HW276930   5.021   3.305  10.217 -1.5574 -0.8331 -0.0967
24893SOL     OW76931   3.504   2.134   9.372  0.1827  0.4117  0.2674
24893SOL    HW176932   3.533   2.222   9.396  0.8329 -0.0211  1.1139
24893SOL    HW276933   3.412   2.131   9.400  0.3395  0.6148  0.8208
24894SOL     OW76934   3.886   1.964   2.669 -0.0751 -0.1780  0.2935
24894SOL    HW176935   3.917   1.902   2.604  0.1544  0.9842 -0.7364
24894SOL    HW276936   3.791   1.964   2.658 -0.0222  0.1757 -0.2063
24895SOL     OW76937   9.652   8.364   2.780  0.5282 -0.0479  1.0038
24895SOL    HW176938   9.609   8.414   2.850  0.3204  1.9490 -0.4590
24895SOL    HW276939   9.745   8.386   2.789  0.4564  0.5020  0.4514
24896SOL     OW76940   6.473   8.723  10.579  0.4459  0.6078 -0.7386
24896SOL    HW176941   6.552   8.718  10.525 -0.1702  1.6531 -1.7858
24896SOL    HW276942   6.439   8.811  10.563  0.9885  1.5172  2.4880
24897SOL     OW76943   5.738   4.402   7.369 -0.2597  0.4374 -0.3377
24897SOL    HW176944   5.816   4.346   7.369  0.7330  1.7742 -0.1775
24897SOL    HW276945   5.733   4.437   7.280 -1.5042 -0.7113 -0.7509
24898SOL     OW76946   9.539   1.349   1.196  0.2089 -1.1892 -0.5028
24898SOL    HW176947   9.482   1.411   1.241  3.4435  0.8779  1.1972
24898SOL    HW276948   9.543   1.273   1.254  1.1798 -0.2092  0.7988
24899SOL     OW76949   3.547  10.443   8.035  0.1076  0.6178 -0.3356
24899SOL    HW176950   3.519  10.424   8.124 -1.6736  2.5401 -0.4240
24899SOL    HW276951   3.622  10.501   8.044 -0.4487  1.2991 -0.0828
24900SOL     OW76952   4.992   4.331   5.225 -0.1287  0.3102 -0.1411
24900SOL    HW176953   4.946   4.411   5.251  0.4222  0.5102  0.2419
24900SOL    HW276954   4.929   4.283   5.173 -0.7031  0.6694  0.2132
24901SOL     OW76955   7.649   0.555   0.871 -0.2578  0.3601 -0.3836
24901SOL    HW176956   7.573   0.521   0.824  1.0837 -1.4779 -1.3904
24901SOL    HW276957   7.708   0.479   0.879  1.1854  1.5432  0.9391
24902SOL     OW76958   3.254   6.798   1.706 -0.6279 -0.1740 -0.3231
24902SOL    HW176959   3.262   6.820   1.613  1.7349  1.0544  0.0923
24902SOL    HW276960   3.327   6.738   1.722 -1.8595 -1.5125  0.4655
24903SOL     OW76961   0.248   8.650   6.693 -0.7088 -0.0241  0.0194
24903SOL    HW176962   0.233   8.579   6.756 -0.4122 -0.0349  0.0779
24903SOL    HW276963   0.169   8.651   6.639 -0.5999 -0.5847 -0.1594
24904SOL     OW76964   3.582   3.782   6.540  0.0622 -0.0144  0.0524
24904SOL    HW176965   3.564   3.692   6.514  0.2500 -0.1670  0.4402
24904SOL    HW276966   3.677   3.787   6.544  0.0671 -0.6525  2.8583
24905SOL     OW76967   6.117   7.854   9.390  0.4029 -0.3216 -0.0319
24905SOL    HW176968   6.035   7.901   9.375  0.2239 -0.6788 -0.1761
24905SOL    HW276969   6.168   7.913   9.447 -0.0064 -0.1576  0.1722
24906SOL     OW76970   5.666   7.437   9.440  0.1091 -0.1442  0.7547
24906SOL    HW176971   5.644   7.371   9.374 -0.8620  0.6905  0.2240
24906SOL    HW276972   5.672   7.387   9.521  0.1915 -1.0158  0.2305
24907SOL     OW76973   7.754   5.835   0.830 -0.2267 -0.1321  0.5447
24907SOL    HW176974   7.845   5.863   0.815 -0.2924 -0.3020 -0.1774
24907SOL    HW276975   7.763   5.758   0.888  0.1306 -0.5078  0.0065
24908SOL     OW76976   2.360  10.228   0.943  0.5522 -0.3725 -0.3114
24908SOL    HW176977   2.335  10.304   0.890  1.9999 -0.6404 -1.4769
24908SOL    HW276978   2.455  10.237   0.954  0.3114 -0.2965  2.3853
24909SOL     OW76979   4.042   3.369   0.322 -0.1472 -0.1140 -0.0431
24909SOL    HW176980   4.045   3.281   0.358 -3.3521 -1.6688 -3.0207
24909SOL    HW276981   4.134   3.394   0.314  0.9324 -3.4472  0.3035
24910SOL     OW76982   6.172   2.707   0.355 -0.2006 -0.1742  0.3355
24910SOL    HW176983   6.103   2.751   0.405 -0.7210 -1.6007  0.9467
24910SOL    HW276984   6.134   2.694   0.268 -0.0185  0.6164  0.1330
24911SOL     OW76985   1.166  10.477   1.213  0.4537  0.6753  0.8555
24911SOL    HW176986   1.248  10.526   1.218 -0.0050  1.4866  0.6635
24911SOL    HW276987   1.114  10.525   1.149 -0.2894  0.3541  1.2116
24912SOL     OW76988  10.601   4.664   0.898 -0.1824  0.2281 -0.1595
24912SOL    HW176989  10.565   4.603   0.834 -1.3952 -1.5369  2.0466
24912SOL    HW276990  10.666   4.613   0.947  1.9255  2.0039 -0.9634
24913SOL     OW76991   8.564   1.003   7.799 -0.0710  0.1189 -0.4103
24913SOL    HW176992   8.620   1.072   7.766 -0.7944  0.0394 -1.9049
24913SOL    HW276993   8.477   1.023   7.763 -0.6115 -0.7316  0.3681
24914SOL     OW76994   3.497   6.501   9.222  0.1540  0.0367 -0.4313
24914SOL    HW176995   3.407   6.473   9.235  0.0584 -0.1718 -1.4559
24914SOL    HW276996   3.549   6.436   9.270 -0.2606  0.7188  1.0061
24915SOL     OW76997   5.223   8.465   4.784  0.0867 -0.0473  0.1125
24915SOL    HW176998   5.137   8.425   4.796  0.8220 -1.2664  1.6216
24915SOL    HW276999   5.226   8.538   4.847 -0.2108  0.6766 -0.6869
24916SOL     OW77000   1.743   8.514   5.064 -0.0116  0.1854 -0.2725
24916SOL    HW177001   1.730   8.609   5.059 -1.4087  0.0912  0.6984
24916SOL    HW277002   1.767   8.499   5.156 -3.3489 -0.6714  0.6224
24917SOL     OW77003   5.121   0.065   9.797 -0.0601 -0.2106 -0.0880
24917SOL    HW177004   5.164   0.129   9.740  0.4937 -0.5164 -0.0203
24917SOL    HW277005   5.175  -0.014   9.789 -0.4246 -0.4944  0.2564
24918SOL     OW77006   1.805   9.793  10.257  0.0545  0.3943  0.3207
24918SOL    HW177007   1.886   9.832  10.227  1.1734 -0.7727  1.6406
24918SOL    HW277008   1.824   9.763  10.346 -2.5103  2.0690  1.5632
24919SOL     OW77009   5.432   4.745  10.116 -0.1253  0.2362  0.5521
24919SOL    HW177010   5.462   4.801  10.045 -1.1432  0.6688  0.4535
24919SOL    HW277011   5.443   4.656  10.083  0.1954  0.4105  0.1867
24920SOL     OW77012  10.302   0.474   2.200  0.2110 -0.0832  0.2420
24920SOL    HW177013  10.393   0.470   2.170 -0.6464 -0.9630 -2.5784
24920SOL    HW277014  10.285   0.567   2.214  1.4503  0.1227  0.5096
24921SOL     OW77015  10.350   8.805   6.383  0.0105  0.5238 -0.3517
24921SOL    HW177016  10.425   8.754   6.354  1.1452  0.6842  2.0294
24921SOL    HW277017  10.274   8.749   6.369  1.0670 -1.3286  0.9155
24922SOL     OW77018   2.795   6.908   5.313 -0.1262 -0.6509  0.0147
24922SOL    HW177019   2.755   6.949   5.236 -2.4840 -2.1952  0.3170
24922SOL    HW277020   2.861   6.970   5.341 -1.8778  1.8235 -0.9514
24923SOL     OW77021   9.343   0.341   3.305  0.2227 -0.0515  0.7482
24923SOL    HW177022   9.379   0.426   3.279 -0.1526  0.6712  2.4908
24923SOL    HW277023   9.379   0.325   3.392 -0.0379 -1.4968  0.6056
24924SOL     OW77024  10.477  10.184   4.160  0.2822 -0.3283 -0.0523
24924SOL    HW177025  10.499  10.243   4.088 -0.2510  0.1234  0.1433
24924SOL    HW277026  10.414  10.234   4.213 -0.1597 -1.0632  0.1298
24925SOL     OW77027   8.528   0.619   4.312 -0.3770 -0.3391 -0.1472
24925SOL    HW177028   8.489   0.542   4.354  1.1619 -1.2020 -0.2420
24925SOL    HW277029   8.488   0.694   4.358 -2.8356 -1.1130 -0.8949
24926SOL     OW77030   0.085   1.532   7.994 -0.0363 -0.1124 -0.2559
24926SOL    HW177031   0.084   1.604   7.930  1.5332  1.7784  1.6755
24926SOL    HW277032   0.061   1.574   8.077 -2.2414 -2.5228  0.4443
24927SOL     OW77033   3.247   7.536   1.217 -0.4998  0.0088  0.3755
24927SOL    HW177034   3.304   7.524   1.293 -0.2252 -2.9860 -0.1771
24927SOL    HW277035   3.298   7.591   1.158  1.3063 -1.4690  0.4663
24928SOL     OW77036   3.592   0.977   6.312 -0.2594 -0.1636 -0.3806
24928SOL    HW177037   3.681   0.953   6.340 -0.0862  0.2735 -0.5472
24928SOL    HW277038   3.560   1.035   6.381  0.2424  1.0740 -1.1516
24929SOL     OW77039   0.935   8.156   3.835  0.2722  0.2085  0.2046
24929SOL    HW177040   1.013   8.200   3.868 -0.4865  1.2347  0.6943
24929SOL    HW277041   0.915   8.090   3.901 -0.0214  0.8452  0.7757
24930SOL     OW77042   8.083   8.412   9.172 -0.1045 -0.4474 -0.1591
24930SOL    HW177043   8.020   8.396   9.102  2.2578  0.9780 -2.8386
24930SOL    HW277044   8.121   8.498   9.152 -0.3620  0.8353  3.8677
24931SOL     OW77045  10.502   4.526   2.661 -0.1878  0.3471 -0.6369
24931SOL    HW177046  10.513   4.566   2.747 -0.5336  0.8354 -0.8162
24931SOL    HW277047  10.583   4.476   2.647  0.8953  2.1124 -0.9940
24932SOL     OW77048   1.607   9.608   6.672 -0.2706 -0.8072  0.0871
24932SOL    HW177049   1.515   9.599   6.647 -0.5757 -2.6639  1.6049
24932SOL    HW277050   1.656   9.558   6.606 -0.3501  0.0001 -0.5968
24933SOL     OW77051   1.537   2.337   5.212  0.3533 -0.3722  0.0537
24933SOL    HW177052   1.577   2.335   5.126  1.9622 -1.2985  0.7827
24933SOL    HW277053   1.535   2.245   5.240  0.4468 -0.0340  1.2456
24934SOL     OW77054   0.253   1.353   9.664  0.0914 -0.6914 -0.0666
24934SOL    HW177055   0.202   1.365   9.744 -0.2428 -0.9908 -0.2346
24934SOL    HW277056   0.189   1.328   9.597  0.0677  1.3210 -0.8940
24935SOL     OW77057   2.288   6.782   9.726 -0.1932  0.2126  0.4515
24935SOL    HW177058   2.352   6.826   9.783 -1.6818  1.7965  0.9519
24935SOL    HW277059   2.267   6.845   9.658  0.4708 -1.1483 -1.0993
24936SOL     OW77060   2.109   8.049   8.365 -0.2719 -0.0158 -0.0810
24936SOL    HW177061   2.117   7.956   8.343 -0.7607 -0.2936  0.8805
24936SOL    HW277062   2.187   8.068   8.417  0.1111  0.2634 -0.7398
24937SOL     OW77063   0.280   6.569   4.299 -0.0997 -0.0609  0.2231
24937SOL    HW177064   0.259   6.582   4.392 -0.8574 -0.4440  0.1154
24937SOL    HW277065   0.300   6.656   4.266 -2.7263  0.5569  0.0619
24938SOL     OW77066   2.038   8.375   4.005 -0.0160  0.5416  0.0890
24938SOL    HW177067   2.076   8.461   3.990 -1.9387  1.3687 -0.2557
24938SOL    HW277068   2.067   8.323   3.929  1.8072  0.5984  0.6960
24939SOL     OW77069   0.220   9.646   9.958  0.2705  0.6025  0.1887
24939SOL    HW177070   0.261   9.594   9.889 -1.1325  1.6853 -1.5310
24939SOL    HW277071   0.250   9.735   9.942  1.4065  0.6302  2.1651
24940SOL     OW77072   3.792   1.576   2.397  0.5447 -0.1154  0.1321
24940SOL    HW177073   3.706   1.616   2.393  1.4595  1.8918 -1.7062
24940SOL    HW277074   3.782   1.491   2.355 -0.4876  0.1888 -0.2525
24941SOL     OW77075   8.454   3.969   1.889 -0.0347 -0.4720  0.2283
24941SOL    HW177076   8.482   3.914   1.816  0.6745  1.8620 -1.3605
24941SOL    HW277077   8.359   3.970   1.884 -0.1251 -2.2525  0.8854
24942SOL     OW77078   8.561   8.668   0.301 -0.1585 -0.3692 -0.1664
24942SOL    HW177079   8.621   8.702   0.235  0.4720 -3.1860 -1.1828
24942SOL    HW277080   8.615   8.659   0.380 -0.0796  0.0495 -0.1715
24943SOL     OW77081   9.392   6.743   5.165  0.2465  0.2035 -0.3230
24943SOL    HW177082   9.419   6.808   5.229 -0.0552  0.7426 -0.7385
24943SOL    HW277083   9.365   6.668   5.218  1.6285 -0.0074  0.1320
24944SOL     OW77084  10.159   2.496   3.761 -0.1646  0.3765  0.2816
24944SOL    HW177085  10.101   2.512   3.686 -0.1937 -2.4678 -0.3892
24944SOL    HW277086  10.100   2.490   3.836 -0.6185 -1.0791 -0.1736
24945SOL     OW77087   6.591   6.514   0.611  0.1214  0.6821  0.0868
24945SOL    HW177088   6.580   6.609   0.608 -1.3137  0.5187 -0.5547
24945SOL    HW277089   6.589   6.487   0.519 -1.0868 -0.1147  0.3187
24946SOL     OW77090   2.764   0.187   8.141 -0.3360  0.0691 -0.0529
24946SOL    HW177091   2.669   0.180   8.140 -0.2804 -0.7572 -0.2093
24946SOL    HW277092   2.795   0.100   8.166  0.4181 -0.1071 -1.4806
24947SOL     OW77093   8.314   8.833   6.902  0.5841  0.0510  0.0131
24947SOL    HW177094   8.343   8.794   6.819 -0.3180 -1.9561  0.5737
24947SOL    HW277095   8.273   8.760   6.949 -0.5559  1.5693  1.4646
24948SOL     OW77096   6.532   0.295   6.758  0.4323  0.4322 -0.0402
24948SOL    HW177097   6.498   0.362   6.818 -0.9303 -0.1824 -0.0953
24948SOL    HW277098   6.586   0.239   6.813 -0.4338  0.1411  0.5360
24949SOL     OW77099   4.341   4.168   3.937 -0.0591  0.7738  1.2046
24949SOL    HW177100   4.262   4.140   3.982  0.5073  0.6359  2.1443
24949SOL    HW277101   4.409   4.107   3.967  0.8494  2.1378  2.0247
24950SOL     OW77102   0.389   2.488   1.875 -0.7158 -0.2571 -0.2949
24950SOL    HW177103   0.319   2.552   1.890  0.7639  0.8913  2.4259
24950SOL    HW277104   0.424   2.512   1.789 -2.0060  0.7643 -0.5813
24951SOL     OW77105   9.674   9.696   0.398 -0.3496 -0.8423 -0.0612
24951SOL    HW177106   9.631   9.623   0.353  3.1156 -2.5314 -1.0110
24951SOL    HW277107   9.747   9.656   0.444  0.3536  1.8018  1.3108
24952SOL     OW77108   9.107   2.599   2.237  0.5286 -0.0153  0.4134
24952SOL    HW177109   9.076   2.547   2.163  1.0084  0.9849 -0.5369
24952SOL    HW277110   9.031   2.651   2.263  0.0621 -1.1361  1.3341
24953SOL     OW77111   5.741   5.784   5.252  0.1628 -0.5341 -0.0315
24953SOL    HW177112   5.803   5.857   5.255  0.3509 -0.7071  2.4608
24953SOL    HW277113   5.794   5.709   5.223  1.0188 -0.5169  1.3592
24954SOL     OW77114   7.745   0.496   4.439  0.4092  0.4537 -0.0848
24954SOL    HW177115   7.721   0.413   4.480  1.8078  0.1437  0.1479
24954SOL    HW277116   7.726   0.482   4.346 -1.1429  0.5539  0.2000
24955SOL     OW77117   3.460   2.452   3.953  0.2687  0.5132 -0.3066
24955SOL    HW177118   3.474   2.360   3.933 -0.8928  0.1712  0.3683
24955SOL    HW277119   3.453   2.455   4.049  0.2351  1.2968 -0.3269
24956SOL     OW77120   2.708   4.616   1.012  0.6781  0.3902 -0.3061
24956SOL    HW177121   2.661   4.567   0.944  0.7741  1.2267 -0.9956
24956SOL    HW277122   2.676   4.706   1.004  0.0806  0.3602  1.3171
24957SOL     OW77123   6.701   9.163   8.525 -0.2652 -0.1679  0.0700
24957SOL    HW177124   6.773   9.112   8.562  0.3097 -0.9788 -2.0084
24957SOL    HW277125   6.697   9.242   8.580  3.0700  0.5364 -0.4265
24958SOL     OW77126  10.075   6.472   9.594 -0.0062  0.5351  0.4506
24958SOL    HW177127  10.128   6.487   9.673  0.3770 -1.6948  0.6865
24958SOL    HW277128   9.988   6.505   9.618  0.6507  2.0647  0.9106
24959SOL     OW77129   2.067   3.495   1.507 -0.6928  0.2897  0.1589
24959SOL    HW177130   2.045   3.581   1.472 -0.7901  0.0405 -0.4014
24959SOL    HW277131   2.111   3.513   1.590 -0.1461  0.9010 -0.2532
24960SOL     OW77132   8.326  10.199   6.776 -0.3811  0.4755 -0.1308
24960SOL    HW177133   8.243  10.243   6.758 -0.0463  0.8097 -0.8859
24960SOL    HW277134   8.361  10.244   6.853 -0.3361  1.1383 -0.5270
24961SOL     OW77135   4.081   6.896   5.764 -0.2235  0.0604  0.5775
24961SOL    HW177136   4.114   6.857   5.845  0.3860 -1.8629 -0.5359
24961SOL    HW277137   4.008   6.839   5.738  0.5583 -0.2758 -0.9941
24962SOL     OW77138   1.369   3.990   1.904 -0.0371 -0.2752  0.0693
24962SOL    HW177139   1.385   4.077   1.941  1.1856 -0.0347 -0.9569
24962SOL    HW277140   1.449   3.941   1.924 -1.0322 -1.4691  1.3780
24963SOL     OW77141   3.505   2.877   5.490  0.0997  0.1935 -0.3056
24963SOL    HW177142   3.511   2.787   5.457 -0.3372  0.6098 -1.6155
24963SOL    HW277143   3.595   2.899   5.515  0.0767 -0.8543  0.7896
24964SOL     OW77144   1.075   8.103  10.209  0.4844 -0.0960 -0.4482
24964SOL    HW177145   1.170   8.094  10.214  0.3745 -0.8894  0.6148
24964SOL    HW277146   1.045   8.089  10.299 -0.8063 -2.2799 -1.1296
24965SOL     OW77147   7.818   6.699   9.540  0.2571  0.1163 -0.1048
24965SOL    HW177148   7.859   6.734   9.620  0.0821 -0.3006  0.1699
24965SOL    HW277149   7.889   6.653   9.495 -0.0997 -1.4121  0.8325
24966SOL     OW77150   8.863   3.804   2.739  0.5111 -0.3949 -0.4896
24966SOL    HW177151   8.872   3.862   2.815  1.1575 -0.2151 -0.6971
24966SOL    HW277152   8.790   3.747   2.761 -0.4422  0.7872 -0.4597
24967SOL     OW77153   0.385   0.821   3.274  0.2048  0.3916  0.3808
24967SOL    HW177154   0.396   0.766   3.351 -1.2520 -0.8951 -0.2550
24967SOL    HW277155   0.449   0.788   3.211 -0.9654 -0.9697 -0.1597
24968SOL     OW77156   5.085   2.889   6.727 -0.0858 -0.7139 -0.3602
24968SOL    HW177157   5.175   2.917   6.741 -0.1149 -0.6575 -0.2874
24968SOL    HW277158   5.092   2.816   6.665 -0.0518 -0.2056 -0.9714
24969SOL     OW77159   9.816   3.981   5.010  0.4552  0.2446 -0.0213
24969SOL    HW177160   9.840   3.889   5.003 -0.5536 -0.1751  1.4779
24969SOL    HW277161   9.864   4.024   4.939  1.2439 -1.3604 -0.5112
24970SOL     OW77162   7.246   5.880   6.385  0.3543  0.6118 -0.0612
24970SOL    HW177163   7.288   5.965   6.375 -0.7729  1.1902 -0.0696
24970SOL    HW277164   7.259   5.836   6.301  0.6517  0.9120 -0.1734
24971SOL     OW77165   0.221   0.387   2.126 -0.7423  0.3067 -0.3795
24971SOL    HW177166   0.134   0.368   2.160 -1.1416  0.2169 -1.4132
24971SOL    HW277167   0.247   0.469   2.168 -1.6837  0.7805 -0.7064
24972SOL     OW77168   4.336   9.967   9.119  0.0969  0.0716 -0.0814
24972SOL    HW177169   4.353  10.060   9.107  1.5390 -0.3008 -1.3013
24972SOL    HW277170   4.373   9.926   9.041  0.1166 -1.5875  0.7511
24973SOL     OW77171   4.980   2.726   7.884  0.6421 -0.0279 -0.4001
24973SOL    HW177172   4.901   2.672   7.883 -0.7557  1.4646  4.4779
24973SOL    HW277173   5.047   2.670   7.924 -0.2119  0.9228  2.6024
24974SOL     OW77174   9.137   4.243   4.075 -0.1408  0.0887 -0.4714
24974SOL    HW177175   9.192   4.171   4.044  0.5294  0.6704 -0.6662
24974SOL    HW277176   9.198   4.303   4.118 -0.4006  1.3524 -1.7878
24975SOL     OW77177   7.477   2.886   5.678 -0.0626  0.3201  0.0746
24975SOL    HW177178   7.546   2.895   5.743 -0.8587  0.8820  0.8716
24975SOL    HW277179   7.513   2.924   5.598  1.5054 -1.7403 -0.2915
24976SOL     OW77180   8.222   6.203   2.794 -0.2809 -0.3138  0.3700
24976SOL    HW177181   8.202   6.207   2.701 -0.4191 -0.5712  0.3871
24976SOL    HW277182   8.259   6.116   2.808  0.1824 -0.1085  0.4732
24977SOL     OW77183   6.987   0.973   2.148 -1.0693 -0.0898  0.8638
24977SOL    HW177184   7.040   0.985   2.226 -1.7136 -0.9305  1.4399
24977SOL    HW277185   7.028   0.901   2.101 -0.2147  0.9239 -0.0017
24978SOL     OW77186   7.520   5.660   8.238  0.8172 -0.2366  0.3409
24978SOL    HW177187   7.468   5.637   8.161 -0.2202  1.7566  0.3839
24978SOL    HW277188   7.504   5.589   8.300  0.3944 -1.0592 -0.6818
24979SOL     OW77189   5.806   3.886   1.820 -0.0940  0.8924 -0.9619
24979SOL    HW177190   5.810   3.920   1.910 -0.2824 -0.3172 -0.4790
24979SOL    HW277191   5.744   3.943   1.776 -0.7281  0.9383 -0.0515
24980SOL     OW77192   3.490   6.957   2.185  0.0896 -0.2277 -0.0852
24980SOL    HW177193   3.448   6.898   2.249 -2.1657 -0.2013 -1.4285
24980SOL    HW277194   3.538   6.899   2.126 -0.5884 -0.5715 -0.3082
24981SOL     OW77195   0.561   9.744   1.654 -0.3006 -0.2880 -0.2996
24981SOL    HW177196   0.522   9.791   1.727  0.1270 -1.4172  0.7028
24981SOL    HW277197   0.489   9.730   1.592 -1.0325 -0.6060  0.6008
24982SOL     OW77198   1.560   5.933   2.058  0.1592  0.1206  0.3171
24982SOL    HW177199   1.580   6.022   2.087  0.2978 -0.4111  1.9129
24982SOL    HW277200   1.584   5.877   2.132 -0.7761 -1.1734 -0.3186
24983SOL     OW77201   1.381   5.783   6.745  0.3145  0.3371 -0.0173
24983SOL    HW177202   1.315   5.717   6.764  0.2204  0.7077  0.9727
24983SOL    HW277203   1.385   5.837   6.824  2.0871  0.0829  0.0992
24984SOL     OW77204   4.525   1.279   5.382  0.3858 -0.3351 -0.4506
24984SOL    HW177205   4.594   1.223   5.346  1.3745 -0.4555  1.4636
24984SOL    HW277206   4.554   1.296   5.472 -1.5377  0.5575  0.0401
24985SOL     OW77207   8.959   1.398   8.279  0.2653  0.1164  0.1857
24985SOL    HW177208   9.028   1.333   8.264  0.1008  0.2528 -1.3037
24985SOL    HW277209   8.925   1.377   8.366  2.3065  0.1770  1.0625
24986SOL     OW77210  10.530   8.111   8.476  0.0249  0.1002  0.1317
24986SOL    HW177211  10.583   8.175   8.429  0.0190  1.3477  1.7384
24986SOL    HW277212  10.452   8.160   8.504 -0.0075 -0.5983  1.3592
24987SOL     OW77213   8.840   3.163   0.357  0.5800 -0.0373 -0.3478
24987SOL    HW177214   8.905   3.122   0.301  0.0012 -1.6563  0.1045
24987SOL    HW277215   8.761   3.170   0.303  0.6609  0.4526 -0.4081
24988SOL     OW77216   4.044   8.672   4.853 -0.0514  0.4358 -0.6354
24988SOL    HW177217   4.079   8.733   4.917 -1.9587  1.0911 -0.1452
24988SOL    HW277218   4.028   8.592   4.902  2.9254 -0.7479 -1.3840
24989SOL     OW77219   3.078   4.354   0.539  0.2090 -0.0286  0.6819
24989SOL    HW177220   3.036   4.419   0.483  1.0276 -0.0818 -0.0126
24989SOL    HW277221   3.130   4.406   0.601  0.4424 -0.0044  0.4669
24990SOL     OW77222   4.870  10.072   7.952  0.1107 -0.0604 -0.1465
24990SOL    HW177223   4.860  10.105   7.863 -0.3006 -0.3216 -0.1974
24990SOL    HW277224   4.793  10.103   7.999 -0.2183 -0.8315 -0.1613
24991SOL     OW77225   7.259   4.461   6.396 -0.0804  0.0082  0.2535
24991SOL    HW177226   7.216   4.444   6.480  0.9347 -0.0396  0.7848
24991SOL    HW277227   7.188   4.476   6.334 -0.8287  2.2034  1.5641
24992SOL     OW77228   1.626   7.789   0.819 -0.0026  0.4884 -0.3083
24992SOL    HW177229   1.574   7.789   0.739 -0.2137 -0.6585 -0.1974
24992SOL    HW277230   1.690   7.719   0.805 -1.5440 -1.4041  1.4081
24993SOL     OW77231   2.913  10.415   7.733 -0.1355  0.5772 -0.3143
24993SOL    HW177232   2.857  10.446   7.803 -2.6648 -0.3125 -1.8169
24993SOL    HW277233   2.981  10.482   7.725  0.2499  0.7127  2.8650
24994SOL     OW77234   2.014   8.396   9.371 -0.8785  0.1748 -0.1369
24994SOL    HW177235   2.050   8.450   9.441 -0.4381 -0.0548 -0.1819
24994SOL    HW277236   1.930   8.436   9.350 -0.1265  1.4305 -0.8521
24995SOL     OW77237   2.844  10.009   1.376  0.3703  0.3315  0.3299
24995SOL    HW177238   2.819  10.101   1.364 -0.6244  0.2580  1.6072
24995SOL    HW277239   2.859   9.976   1.287 -1.6275  1.0868 -0.3295
24996SOL     OW77240   2.713   0.034   6.884 -0.1856  0.0956 -0.2835
24996SOL    HW177241   2.802   0.060   6.908  0.7106 -1.8876 -1.2385
24996SOL    HW277242   2.664   0.037   6.966  0.6449  1.5581  0.1973
24997SOL     OW77243   0.720   4.502   0.595  0.4011 -0.1780  0.1153
24997SOL    HW177244   0.773   4.425   0.616  1.5960  0.4623 -0.4361
24997SOL    HW277245   0.681   4.481   0.510 -0.4082 -0.7255  0.6062
24998SOL     OW77246   6.655   7.594   6.495 -0.1653 -0.1321  0.3519
24998SOL    HW177247   6.698   7.520   6.537 -0.7718  0.0981  1.4085
24998SOL    HW277248   6.656   7.573   6.402  0.6206 -0.9589  0.5354
24999SOL     OW77249   2.417   3.125   6.596 -0.1342 -0.2583 -0.1115
24999SOL    HW177250   2.462   3.079   6.524  0.4432  0.7591 -0.4186
24999SOL    HW277251   2.487   3.150   6.656 -0.4308  0.3012  0.0058
25000SOL     OW77252   5.218   6.471   3.987 -0.1888  0.0374 -0.1122
25000SOL    HW177253   5.226   6.381   4.018  0.4899  0.5582  1.3156
25000SOL    HW277254   5.297   6.515   4.019 -0.1908  1.0088 -1.3286
25001SOL     OW77255   8.622   6.078  10.081 -0.5046  0.1019 -0.3808
25001SOL    HW177256   8.620   6.076  10.176  0.2772 -1.9363 -0.3585
25001SOL    HW277257   8.540   6.036  10.054 -0.4674  0.1614 -0.5952
25002SOL     OW77258   1.256   4.997   7.362  0.5189  0.4119 -0.0987
25002SOL    HW177259   1.313   4.960   7.429 -1.3963 -0.3989  1.1689
25002SOL    HW277260   1.228   5.081   7.398 -0.6326 -0.0894  0.2075
25003SOL     OW77261   2.061   2.053  10.479 -0.0555  0.4263  0.2286
25003SOL    HW177262   2.095   1.982  10.534  0.9391  0.6167 -0.1204
25003SOL    HW277263   2.135   2.112  10.467  0.0507 -0.0570 -2.0395
25004SOL     OW77264   1.923   8.811  10.540 -0.1595  0.1550 -0.2279
25004SOL    HW177265   1.830   8.790  10.546 -0.0102 -0.8018 -1.1038
25004SOL    HW277266   1.925   8.903  10.514 -0.8587  0.2102 -0.1108
25005SOL     OW77267   2.998   5.475  10.175 -0.4416  0.0833  0.2582
25005SOL    HW177268   3.060   5.405  10.154 -1.0377 -0.0804 -1.0778
25005SOL    HW277269   2.925   5.431  10.219  0.1537  0.2068  1.3986
25006SOL     OW77270   2.051   2.339   6.194 -0.2296 -0.4827 -0.2848
25006SOL    HW177271   2.042   2.368   6.285  1.5827 -0.8361  0.0409
25006SOL    HW277272   2.111   2.265   6.198  0.1287 -0.3055 -1.7946
25007SOL     OW77273   5.737   0.518   9.164  0.0131  0.1249 -0.5051
25007SOL    HW177274   5.747   0.611   9.146 -0.0309  0.1002 -0.6608
25007SOL    HW277275   5.734   0.477   9.078  0.8703 -0.1096 -0.4265
25008SOL     OW77276   0.185   9.000   5.877 -0.3150 -0.5372  0.1632
25008SOL    HW177277   0.249   9.009   5.947  1.2731 -2.2204 -0.9958
25008SOL    HW277278   0.100   9.010   5.921  0.6313 -1.1461  2.2454
25009SOL     OW77279   4.260   1.148   7.622  0.3911  0.3317 -0.2667
25009SOL    HW177280   4.335   1.201   7.651  1.0401 -0.0500 -1.1810
25009SOL    HW277281   4.236   1.096   7.699  1.4646  0.0285 -0.1118
25010SOL     OW77282   1.171   8.477  10.209  0.0561  0.2890  0.1152
25010SOL    HW177283   1.108   8.405  10.200 -0.2936  0.4834  0.9136
25010SOL    HW277284   1.200   8.495  10.119 -0.7595 -0.0483 -0.2286
25011SOL     OW77285   0.593  10.022   9.489 -0.0276 -0.0072 -0.4771
25011SOL    HW177286   0.646   9.990   9.562 -0.5979  0.5309  0.2025
25011SOL    HW277287   0.569   9.943   9.440 -0.1251 -0.4517  0.2651
25012SOL     OW77288   4.176   7.938   6.525  0.4392 -0.1549  0.5153
25012SOL    HW177289   4.188   8.014   6.468 -0.0343  0.1773  0.8528
25012SOL    HW277290   4.264   7.918   6.556  0.7682 -0.6285 -0.6885
25013SOL     OW77291   4.626   2.548   2.176 -0.6369 -0.3861  0.5796
25013SOL    HW177292   4.673   2.484   2.123 -0.5673 -0.3874  0.6432
25013SOL    HW277293   4.645   2.523   2.267 -1.7859 -1.1715  0.6237
25014SOL     OW77294   9.211  10.216   4.455  0.2931 -0.3843  0.5879
25014SOL    HW177295   9.151  10.160   4.505 -0.7713  0.3881  0.2083
25014SOL    HW277296   9.292  10.164   4.448  0.3990 -0.6026  2.8667
25015SOL     OW77297   7.332   6.852   9.934 -0.1661  0.1931  0.2828
25015SOL    HW177298   7.300   6.881   9.848  0.1788  1.2708  0.5044
25015SOL    HW277299   7.425   6.838   9.921 -0.0157  0.8618  0.5989
25016SOL     OW77300   6.172   1.386  10.308  0.1945  0.1639 -0.1355
25016SOL    HW177301   6.260   1.349  10.309 -0.2395 -0.9570 -1.3019
25016SOL    HW277302   6.121   1.326  10.254 -1.1047  1.2155 -0.1241
25017SOL     OW77303   1.619   1.392   0.335  0.7664  0.4521  0.0234
25017SOL    HW177304   1.660   1.472   0.366  0.1793  1.4673 -1.7125
25017SOL    HW277305   1.679   1.357   0.269 -0.2894  1.0246 -1.2844
25018SOL     OW77306   9.251   0.314   1.627  0.8303  0.0506 -0.5157
25018SOL    HW177307   9.337   0.350   1.605  1.4743  0.2636  2.0049
25018SOL    HW277308   9.220   0.273   1.546  3.0572  0.4190 -1.6207
25019SOL     OW77309   3.846   9.549   7.696  0.1163  0.8483 -1.1706
25019SOL    HW177310   3.827   9.641   7.677 -1.4311  0.2579 -2.8150
25019SOL    HW277311   3.761   9.509   7.710  0.8519 -0.0859  1.0916
25020SOL     OW77312   1.968   0.929   6.897 -0.1070 -0.8301  0.0973
25020SOL    HW177313   1.952   0.996   6.831  0.5767 -0.1246  0.6369
25020SOL    HW277314   1.972   0.847   6.847 -0.6088 -0.4375 -0.6020
25021SOL     OW77315   5.224   4.304   0.851  0.0473  0.0984 -0.1302
25021SOL    HW177316   5.168   4.326   0.777 -1.0602 -1.0565  0.3292
25021SOL    HW277317   5.311   4.333   0.824 -0.6159  1.2682 -1.1637
25022SOL     OW77318   3.424  10.602   3.501  0.1850 -0.0377 -0.0377
25022SOL    HW177319   3.470  10.617   3.584 -0.6147 -0.9519  0.5860
25022SOL    HW277320   3.363  10.675   3.495  0.0584 -0.1099  0.3181
25023SOL     OW77321   0.466   0.542   2.765 -0.1509 -0.5925  0.2087
25023SOL    HW177322   0.516   0.571   2.841  0.0958 -1.0337  0.2182
25023SOL    HW277323   0.378   0.576   2.780  0.5712  1.9582 -0.7867
25024SOL     OW77324   5.783   4.611   1.131 -0.5053  0.1625 -0.0282
25024SOL    HW177325   5.776   4.688   1.187  0.0879  0.2789 -0.1088
25024SOL    HW277326   5.838   4.550   1.179 -0.6493 -0.0564 -0.1367
25025SOL     OW77327   8.068   3.004   9.717 -0.1812 -0.8889  0.5804
25025SOL    HW177328   7.982   2.991   9.677  0.2017  0.0382 -0.6091
25025SOL    HW277329   8.127   3.016   9.643  0.6777  0.1745  1.4060
25026SOL     OW77330   7.929   9.585   1.490 -0.0529 -0.2393  0.0155
25026SOL    HW177331   7.954   9.498   1.521 -0.2846 -0.3435 -0.0810
25026SOL    HW277332   7.853   9.569   1.434  0.4357 -0.0650 -0.7044
25027SOL     OW77333   6.601   5.257   7.416 -0.6761 -0.7430  0.1576
25027SOL    HW177334   6.557   5.250   7.331 -1.7382  1.2867  0.4696
25027SOL    HW277335   6.530   5.251   7.480 -0.0531 -0.8766  0.8545
25028SOL     OW77336   9.182   7.907   3.808  0.0947 -0.1224  0.0733
25028SOL    HW177337   9.153   7.835   3.751  3.4375 -1.5605 -0.0227
25028SOL    HW277338   9.144   7.985   3.768 -1.3938 -1.5203 -1.4461
25029SOL     OW77339  10.008   1.254   1.521 -0.3742  0.6399  0.0408
25029SOL    HW177340  10.075   1.186   1.531 -0.4046  0.6197  0.1062
25029SOL    HW277341  10.040   1.328   1.573 -1.4898 -0.1594  1.9533
25030SOL     OW77342   1.903   7.488   6.092  0.3835 -0.1642 -0.2146
25030SOL    HW177343   1.906   7.573   6.135  0.2733 -0.3584  0.1770
25030SOL    HW277344   1.959   7.498   6.014  0.2348  0.3139 -0.2607
25031SOL     OW77345  10.252   3.586   0.513  0.3330  0.1713  0.3801
25031SOL    HW177346  10.341   3.560   0.533  0.8481 -0.3073 -2.1237
25031SOL    HW277347  10.261   3.669   0.465 -0.3797 -0.5851 -1.1585
25032SOL     OW77348   9.013   9.179   0.480 -0.1142 -0.0566  0.3777
25032SOL    HW177349   8.994   9.087   0.497 -0.2822 -0.5361 -2.0715
25032SOL    HW277350   9.109   9.185   0.481 -0.0712 -0.4796 -0.3573
25033SOL     OW77351   9.549   0.003   7.554 -0.3711  0.2295 -0.0817
25033SOL    HW177352   9.549  -0.093   7.547  0.6067 -0.0817  2.8982
25033SOL    HW277353   9.461   0.029   7.525 -0.7034 -1.5538 -0.8076
25034SOL     OW77354   2.889  10.296   2.791  0.3534 -0.2396 -0.4223
25034SOL    HW177355   2.838  10.269   2.715  1.4685 -0.2535 -1.1925
25034SOL    HW277356   2.964  10.344   2.754 -0.3021  1.8457  0.7754
25035SOL     OW77357   3.191   6.936   3.399 -0.5286  0.4396  0.0810
25035SOL    HW177358   3.191   7.026   3.364  1.9895  0.4482 -0.0975
25035SOL    HW277359   3.244   6.886   3.336 -1.6100 -1.1215  0.3594
25036SOL     OW77360   9.700   0.774   6.998  0.1464  0.2658 -0.3729
25036SOL    HW177361   9.610   0.747   7.015  0.4671  0.3659  1.7336
25036SOL    HW277362   9.706   0.863   7.033  1.2972 -0.1039  0.4353
25037SOL     OW77363   2.753   1.385   4.535  0.3676  0.5078  0.0171
25037SOL    HW177364   2.729   1.405   4.626 -1.0778 -1.5457  0.1628
25037SOL    HW277365   2.796   1.464   4.504  1.8272  0.9505  2.7812
25038SOL     OW77366   1.815   4.762   5.870 -0.0489  0.0878 -0.0171
25038SOL    HW177367   1.734   4.802   5.837 -0.5851 -1.0681 -0.1647
25038SOL    HW277368   1.869   4.749   5.791 -0.6599 -1.1792 -0.2564
25039SOL     OW77369   9.470   1.362   6.277  0.5239 -0.3891 -0.2709
25039SOL    HW177370   9.495   1.279   6.319  0.0881 -0.1588  0.4655
25039SOL    HW277371   9.508   1.429   6.333 -1.6663 -0.0250  0.9005
25040SOL     OW77372  10.229   9.916   2.339  0.5757  0.3612 -0.4112
25040SOL    HW177373  10.192   9.840   2.295  1.6153 -0.7817  0.5923
25040SOL    HW277374  10.311   9.932   2.292  0.9069  0.1379  0.0821
25041SOL     OW77375   7.794   7.022   2.615 -0.4985 -0.4316 -0.0884
25041SOL    HW177376   7.815   7.020   2.521  0.8732  0.8015  0.1567
25041SOL    HW277377   7.833   7.103   2.646 -0.5454 -1.0479  1.6621
25042SOL     OW77378   6.484   1.764   5.666  0.1043  0.4852 -0.3117
25042SOL    HW177379   6.557   1.767   5.604  1.2573  1.3513  1.0061
25042SOL    HW277380   6.468   1.671   5.680  0.7725  0.2856 -0.8357
25043SOL     OW77381   9.742   3.690   6.183 -0.2895  0.5542  0.6124
25043SOL    HW177382   9.821   3.644   6.154  1.1757  2.9074  0.5909
25043SOL    HW277383   9.728   3.758   6.117 -3.4182 -0.7989 -0.3264
25044SOL     OW77384   2.050   4.027   7.544 -0.0745  0.0677 -0.3316
25044SOL    HW177385   1.993   4.103   7.554 -0.1164 -0.0112  0.0482
25044SOL    HW277386   2.138   4.064   7.535 -0.1840  0.1911 -0.9526
25045SOL     OW77387   4.337   5.933   4.126 -0.1197 -0.4161  0.3500
25045SOL    HW177388   4.264   5.970   4.076  0.9435  1.4984  0.1034
25045SOL    HW277389   4.319   5.959   4.216  1.3026  2.0763  0.0101
25046SOL     OW77390   3.163   7.324   2.760 -0.0312 -0.2280  0.1409
25046SOL    HW177391   3.114   7.346   2.681  0.5811 -0.1858 -0.2384
25046SOL    HW277392   3.254   7.348   2.739  0.2061 -0.6092  0.7021
25047SOL     OW77393   0.285   7.323   4.876 -0.1454  0.6006 -0.3688
25047SOL    HW177394   0.375   7.304   4.903 -0.0555  0.4886 -0.7404
25047SOL    HW277395   0.242   7.356   4.956 -0.4889 -1.7310  0.4953
25048SOL     OW77396   1.933   1.030   9.399  0.4826  0.2086 -0.6742
25048SOL    HW177397   1.844   1.008   9.426  0.3262  0.9416 -0.5758
25048SOL    HW277398   1.955   0.963   9.334  0.4383 -0.8860  0.4109
25049SOL     OW77399   4.117   1.583   0.659 -0.0854  0.4044 -0.1229
25049SOL    HW177400   4.108   1.562   0.566 -2.6103 -2.0617  0.5186
25049SOL    HW277401   4.211   1.589   0.674  0.4518 -0.9655 -2.5001
25050SOL     OW77402   6.858   3.958   4.445  0.0393 -0.3274 -0.4804
25050SOL    HW177403   6.801   3.982   4.517  0.5646  0.6974 -0.3839
25050SOL    HW277404   6.812   3.989   4.367  0.1702 -0.0576 -0.4527
25051SOL     OW77405   2.172   7.071   1.853  0.1572 -0.0166 -0.2623
25051SOL    HW177406   2.236   7.098   1.918  1.6467  0.0527 -1.6910
25051SOL    HW277407   2.128   6.995   1.893  0.2294  0.6919  1.2411
25052SOL     OW77408   6.569   8.505   9.155  0.2929 -0.1005 -0.4818
25052SOL    HW177409   6.608   8.572   9.100  1.2047 -0.8995 -0.8461
25052SOL    HW277410   6.486   8.543   9.185 -0.5552  0.1188 -2.9053
25053SOL     OW77411   1.082  10.036   6.454 -0.4446 -0.8067 -0.3941
25053SOL    HW177412   1.049  10.003   6.538  0.7035 -1.8570 -0.3328
25053SOL    HW277413   1.171  10.065   6.473  0.3070 -2.2560 -1.4875
25054SOL     OW77414   0.906   2.163   5.291 -0.3214 -0.0029 -0.4747
25054SOL    HW177415   0.849   2.229   5.331 -0.7065 -0.3880 -0.3862
25054SOL    HW277416   0.995   2.189   5.317 -0.5263  0.0513  0.1840
25055SOL     OW77417   9.511   6.449   0.326  0.0698 -0.2601 -0.0435
25055SOL    HW177418   9.482   6.388   0.394 -0.9043 -1.0430 -1.1401
25055SOL    HW277419   9.588   6.408   0.289 -0.0281 -0.3616 -0.1350
25056SOL     OW77420   1.356  10.085   6.496 -0.0784  0.4322 -0.2815
25056SOL    HW177421   1.450  10.073   6.482 -0.1872 -0.7185 -0.1139
25056SOL    HW277422   1.351  10.138   6.576  0.4172 -1.3315  0.9620
25057SOL     OW77423   0.204   9.167   5.639 -0.4500 -0.3633 -0.3581
25057SOL    HW177424   0.177   9.256   5.661  3.9263  1.1695 -0.1984
25057SOL    HW277425   0.187   9.117   5.719 -2.4233  0.4178 -0.2431
25058SOL     OW77426   7.146   2.672   2.582 -0.1541 -0.1349  0.6901
25058SOL    HW177427   7.178   2.701   2.496 -0.5367  0.5917  0.7858
25058SOL    HW277428   7.119   2.752   2.626 -1.7476 -0.6828  0.7629
25059SOL     OW77429   0.133   2.498   4.333  0.5491  0.2957 -0.1525
25059SOL    HW177430   0.070   2.439   4.376  0.3544  1.3538  1.0778
25059SOL    HW277431   0.209   2.499   4.391  1.3646 -0.2605 -1.1756
25060SOL     OW77432   3.654   4.890   2.388 -0.2767  0.3659  0.4353
25060SOL    HW177433   3.645   4.796   2.402 -0.6320  0.5904  1.8565
25060SOL    HW277434   3.569   4.918   2.354 -0.6796  0.4075  1.4615
25061SOL     OW77435   7.215   3.386   6.520  0.5611 -0.1689  0.4488
25061SOL    HW177436   7.290   3.442   6.497  0.4263  0.2377  0.9719
25061SOL    HW277437   7.212   3.388   6.616  0.4164 -0.9014  0.4660
25062SOL     OW77438   0.145   9.612   2.529 -0.1737  0.5378 -0.2068
25062SOL    HW177439   0.095   9.531   2.513  1.6000 -0.2402 -2.2955
25062SOL    HW277440   0.082   9.682   2.511 -1.3269 -0.3455  0.1874
25063SOL     OW77441   2.561   5.081   5.784 -0.1944 -0.0046  0.0624
25063SOL    HW177442   2.653   5.108   5.774 -0.7773  2.2951  0.2186
25063SOL    HW277443   2.525   5.086   5.696 -0.6758  1.3635  0.3029
25064SOL     OW77444   5.455   1.959   4.015  0.1319 -0.2672  0.2653
25064SOL    HW177445   5.494   1.896   3.954 -1.7457 -2.4263  1.1516
25064SOL    HW277446   5.361   1.958   3.995 -0.2163  0.7128  1.6755
25065SOL     OW77447   7.361  10.643   2.305 -0.1086 -0.4579  0.0471
25065SOL    HW177448   7.443  10.644   2.255 -1.3288  1.2170 -2.1385
25065SOL    HW277449   7.314  10.721   2.274 -1.3533  0.2313  3.3243
25066SOL     OW77450   3.053   8.803   9.875  0.3030 -1.0477 -0.0449
25066SOL    HW177451   2.986   8.868   9.850 -0.8328 -2.1819 -0.0687
25066SOL    HW277452   3.092   8.777   9.792  1.4645  0.3109  0.0525
25067SOL     OW77453   8.886  10.533   6.664  0.2168  0.0527  0.0443
25067SOL    HW177454   8.808  10.588   6.655  0.3523  0.6873  2.1950
25067SOL    HW277455   8.881  10.497   6.752  1.7155 -0.9159 -0.2237
25068SOL     OW77456   0.763   2.873   7.347 -0.5247 -0.2362 -0.3144
25068SOL    HW177457   0.683   2.846   7.302 -1.5617  0.7693  0.8503
25068SOL    HW277458   0.762   2.968   7.343 -0.1621 -0.1588  0.9734
25069SOL     OW77459   6.445   0.596   7.742 -0.2754  0.1082  0.4800
25069SOL    HW177460   6.417   0.558   7.825 -0.4691 -1.4502 -0.2666
25069SOL    HW277461   6.510   0.534   7.707 -0.2348  0.7023 -0.5613
25070SOL     OW77462  10.100   8.808   8.645  0.5934 -0.5486  0.0270
25070SOL    HW177463  10.137   8.845   8.565  0.6582  0.4023  0.4827
25070SOL    HW277464  10.062   8.883   8.691  0.3652 -1.1153  0.7862
25071SOL     OW77465   1.897   3.627   3.471 -0.2134 -1.0264 -0.1055
25071SOL    HW177466   1.898   3.534   3.493  0.1493 -0.7928  0.9136
25071SOL    HW277467   1.959   3.667   3.532 -1.9437  0.2007  0.9294
25072SOL     OW77468   4.709   6.962   7.819 -0.4690 -0.2558 -0.1601
25072SOL    HW177469   4.764   7.025   7.772  0.6805  1.2608  2.9126
25072SOL    HW277470   4.623   6.969   7.777  0.8803 -0.5547 -3.2397
25073SOL     OW77471   7.255   0.410   2.977 -0.2385  0.6362 -0.2652
25073SOL    HW177472   7.323   0.361   2.930 -0.8666 -1.5555  0.9685
25073SOL    HW277473   7.296   0.434   3.060  0.0713  2.3115 -0.8721
25074SOL     OW77474   1.739   7.646   2.377  0.1264  0.4896 -0.3069
25074SOL    HW177475   1.822   7.693   2.366  1.4530 -1.6455 -0.1263
25074SOL    HW277476   1.725   7.603   2.293  0.8202 -1.4910  0.5110
25075SOL     OW77477   6.286   2.985   0.076 -0.3951 -0.4226 -0.1786
25075SOL    HW177478   6.348   2.985   0.149 -2.1801 -1.6984  1.4443
25075SOL    HW277479   6.217   2.925   0.104 -2.3735  0.9280 -1.8826
25076SOL     OW77480   7.631   1.647   3.528  0.0112 -0.2420 -1.0352
25076SOL    HW177481   7.672   1.719   3.576  0.4398 -1.1444 -0.0099
25076SOL    HW277482   7.620   1.681   3.439 -1.4026  1.7153 -0.1908
25077SOL     OW77483   3.353   7.037   5.212  1.0019 -0.0544  0.4922
25077SOL    HW177484   3.436   7.066   5.173 -0.7311  1.7826 -2.1862
25077SOL    HW277485   3.311   7.117   5.243  0.0753 -0.9153  1.5545
25078SOL     OW77486   6.337   7.942   6.543 -0.4266 -0.0694  0.3431
25078SOL    HW177487   6.316   8.018   6.596  1.8721  2.0744 -1.5554
25078SOL    HW277488   6.255   7.918   6.501 -0.8954  2.6281 -0.4543
25079SOL     OW77489   1.254   7.209   3.045 -0.2281 -0.4637 -0.4653
25079SOL    HW177490   1.249   7.154   3.123 -0.7549 -0.9507 -0.8372
25079SOL    HW277491   1.345   7.206   3.018 -0.1708 -0.7934 -0.2300
25080SOL     OW77492   9.448   4.912   2.786 -0.2971  0.4215  0.0466
25080SOL    HW177493   9.374   4.853   2.801 -0.0717  0.6005  2.1229
25080SOL    HW277494   9.465   4.905   2.692 -3.0233  0.4973 -0.5315
25081SOL     OW77495   9.672   2.009   5.873  0.0492 -0.1032  0.3598
25081SOL    HW177496   9.589   2.030   5.830 -0.4797 -1.4972  0.6369
25081SOL    HW277497   9.720   2.092   5.873 -1.0500  0.5762 -0.4289
25082SOL     OW77498   9.221   7.779   0.922  0.6774  0.4959  0.1213
25082SOL    HW177499   9.132   7.815   0.922  0.9460  1.1927 -0.5396
25082SOL    HW277500   9.221   7.715   0.851  0.9234  1.0874 -0.4205
25083SOL     OW77501   9.923   6.742   4.748 -0.0888 -0.1883 -0.0090
25083SOL    HW177502   9.931   6.747   4.653  1.0259 -2.6995 -0.1316
25083SOL    HW277503   9.855   6.677   4.763  1.5049 -1.7722  0.8050
25084SOL     OW77504   3.559   7.686   9.471  0.5152  0.1070 -0.3568
25084SOL    HW177505   3.466   7.705   9.487  0.4578 -0.1729 -0.3517
25084SOL    HW277506   3.604   7.728   9.544  0.5509  1.7100 -1.2567
25085SOL     OW77507   4.000   9.525   6.782 -0.5411 -0.4614 -0.3465
25085SOL    HW177508   3.967   9.435   6.785 -1.3444 -0.1776 -0.4173
25085SOL    HW277509   3.931   9.577   6.823  0.7742 -0.1186  1.5874
25086SOL     OW77510   7.933   6.562  10.306  0.1031 -0.2477  0.2707
25086SOL    HW177511   8.010   6.544  10.359  0.0979 -1.1888 -0.0058
25086SOL    HW277512   7.860   6.528  10.358  0.0873 -1.0718 -0.2623
25087SOL     OW77513   7.677   4.808   8.900 -0.0228 -0.3244  0.0045
25087SOL    HW177514   7.720   4.849   8.825 -0.2414 -1.8281 -0.9907
25087SOL    HW277515   7.730   4.731   8.919 -0.8271 -0.7948  0.4022
25088SOL     OW77516   7.551   3.283   4.891  0.3388  0.1170  0.3058
25088SOL    HW177517   7.554   3.269   4.986  2.8337  0.8338  0.4155
25088SOL    HW277518   7.579   3.200   4.854 -1.6431 -0.5083  0.0789
25089SOL     OW77519   1.100   2.517   4.222  0.2811 -0.1351  0.0485
25089SOL    HW177520   1.064   2.591   4.271  2.0795  0.2809  0.8302
25089SOL    HW277521   1.056   2.521   4.137  0.8792  2.3553 -0.2391
25090SOL     OW77522   0.494   0.564   2.475  0.0959 -0.4350  0.1576
25090SOL    HW177523   0.517   0.531   2.562 -0.0139  0.1179  0.3978
25090SOL    HW277524   0.433   0.636   2.491  2.1002  1.4450 -0.2329
25091SOL     OW77525   6.628   9.940   8.566  0.9522  0.0481 -0.5068
25091SOL    HW177526   6.671   9.858   8.587 -0.2694 -0.6254 -0.5406
25091SOL    HW277527   6.582   9.924   8.484  0.9611  0.8633 -0.6830
25092SOL     OW77528   1.377   3.938   6.030 -0.6202  0.0601  0.6177
25092SOL    HW177529   1.291   3.980   6.039 -1.0062 -1.0658  2.8011
25092SOL    HW277530   1.422   3.958   6.111  0.9558  0.0496 -0.2216
25093SOL     OW77531   9.348   2.404  10.623  0.7864 -0.4171 -0.5928
25093SOL    HW177532   9.290   2.338  10.586  0.6919 -0.8426  0.2930
25093SOL    HW277533   9.290   2.480  10.638  0.0845 -1.3284  1.6542
25094SOL     OW77534   7.259   2.015   2.194 -0.6108  0.0252 -1.1667
25094SOL    HW177535   7.327   1.980   2.137 -1.0501 -1.6931 -0.6940
25094SOL    HW277536   7.233   1.941   2.249 -0.6601  1.4176  0.8314
25095SOL     OW77537   0.880   0.546   7.774 -0.5360 -0.2132  0.2123
25095SOL    HW177538   0.905   0.542   7.866 -1.5097  0.5909  0.5268
25095SOL    HW277539   0.887   0.455   7.743  3.2824 -0.0300  0.0775
25096SOL     OW77540   8.878  10.026   5.089  0.2107  0.6052  0.1701
25096SOL    HW177541   8.857  10.097   5.028  0.6243 -0.4207 -1.2111
25096SOL    HW277542   8.925  10.069   5.161 -0.0703  1.8064 -0.3397
25097SOL     OW77543   9.286   2.737   4.680 -0.0475 -0.3318  0.0881
25097SOL    HW177544   9.299   2.658   4.628  1.4374 -1.3944  1.9325
25097SOL    HW277545   9.218   2.712   4.744  0.4801 -0.1779  0.7227
25098SOL     OW77546   3.633   9.628   5.185 -0.0907 -0.4669 -0.7201
25098SOL    HW177547   3.588   9.709   5.159  1.5228 -0.0499 -2.4486
25098SOL    HW277548   3.712   9.658   5.229 -0.5453 -1.1773  0.6365
25099SOL     OW77549   6.454   9.558  10.395  0.0648 -0.6894  0.1714
25099SOL    HW177550   6.401   9.637  10.404  0.8843 -0.2017  0.9015
25099SOL    HW277551   6.450   9.517  10.482 -0.5418 -1.5849 -0.2608
25100SOL     OW77552   5.507   8.410   9.176 -0.2158  0.6887  0.3944
25100SOL    HW177553   5.494   8.505   9.165 -1.3054  0.3984 -1.3043
25100SOL    HW277554   5.425   8.372   9.144  0.7253 -0.8756 -0.2452
25101SOL     OW77555   9.197   4.986   3.243  0.2891  0.0968 -0.5060
25101SOL    HW177556   9.285   4.981   3.281  0.0734 -0.2719 -0.0477
25101SOL    HW277557   9.138   4.987   3.318 -0.1796 -1.5059 -0.8071
25102SOL     OW77558   2.987   6.708   8.287  0.5755 -0.1605 -0.1298
25102SOL    HW177559   3.013   6.652   8.360 -1.1321 -0.0071  0.6384
25102SOL    HW277560   2.922   6.656   8.239  1.2774 -0.0455 -1.2409
25103SOL     OW77561   7.689   4.394   2.019  0.2984  0.0588 -0.0585
25103SOL    HW177562   7.604   4.399   2.064 -0.2165 -1.9848 -0.6905
25103SOL    HW277563   7.667   4.395   1.926  1.2081  2.1620 -0.2966
25104SOL     OW77564   6.858   7.531   3.869 -0.7307  0.6316 -0.1818
25104SOL    HW177565   6.766   7.535   3.842 -0.5225 -0.0476 -1.0606
25104SOL    HW277566   6.872   7.611   3.919 -1.4484  1.3854 -1.1509
25105SOL     OW77567  10.121   9.237   1.961 -0.0650 -0.7851 -0.1713
25105SOL    HW177568  10.068   9.165   1.994 -0.5775 -1.6920 -2.7358
25105SOL    HW277569  10.210   9.203   1.959 -0.1183 -0.9243 -0.2200
25106SOL     OW77570  10.233   7.697   1.283 -1.1449 -0.3916  0.2251
25106SOL    HW177571  10.321   7.714   1.317 -1.2790  0.7988  0.0239
25106SOL    HW277572  10.240   7.715   1.189 -1.4501 -0.9634  0.0867
25107SOL     OW77573   2.435  10.322   7.378  0.2603 -0.1695  0.1070
25107SOL    HW177574   2.376  10.271   7.322 -0.2206 -2.3240  2.4154
25107SOL    HW277575   2.377  10.377   7.431  0.3986 -0.9781  1.1295
25108SOL     OW77576   5.098   6.558   4.444 -0.4130 -0.6359 -0.0140
25108SOL    HW177577   5.094   6.622   4.373  1.3547  0.7425  1.0616
25108SOL    HW277578   5.191   6.552   4.466 -0.5978 -3.1109  0.3823
25109SOL     OW77579   9.990   4.650   5.246  0.5697 -0.1621 -0.3953
25109SOL    HW177580   9.971   4.584   5.179  0.7931 -0.0333 -0.5875
25109SOL    HW277581   9.984   4.603   5.329  4.4924 -1.4361 -0.6442
25110SOL     OW77582   3.545   1.736  10.622 -0.0656  0.7713  0.0056
25110SOL    HW177583   3.541   1.735  10.718  0.6765  2.7010  0.1137
25110SOL    HW277584   3.633   1.702  10.602 -0.6024 -0.6360 -0.0811
25111SOL     OW77585   5.296   1.703   0.276 -0.5417  0.4408 -0.0581
25111SOL    HW177586   5.200   1.712   0.280 -0.6627 -0.7749  0.0392
25111SOL    HW277587   5.314   1.622   0.322  0.2896 -0.7980 -2.4377
25112SOL     OW77588   4.035   2.337   0.522  0.4682  0.7018 -0.3787
25112SOL    HW177589   4.026   2.247   0.554  0.0559  1.0400  0.4891
25112SOL    HW277590   4.107   2.373   0.573  1.0509  0.6879 -1.1667
25113SOL     OW77591   7.489   7.946   7.454 -0.0305  0.1586  0.0505
25113SOL    HW177592   7.451   8.034   7.454  0.4206  0.3768  1.2200
25113SOL    HW277593   7.450   7.903   7.530 -0.3896 -0.7317 -0.6162
25114SOL     OW77594   5.139   0.190   1.829  0.3036  0.8726  0.3200
25114SOL    HW177595   5.169   0.233   1.909 -0.4260 -0.2610  1.2334
25114SOL    HW277596   5.204   0.122   1.813  0.3377  0.9657  0.0634
25115SOL     OW77597   4.844   0.402   1.997 -0.1695  0.4490  0.9226
25115SOL    HW177598   4.879   0.491   1.998  0.4033  0.3029 -1.1577
25115SOL    HW277599   4.909   0.351   2.047  0.6028  0.8467  0.3483
25116SOL     OW77600   6.170   2.122   6.014 -0.1192  0.3256  0.3739
25116SOL    HW177601   6.135   2.199   6.058 -0.8184  0.4296 -0.3508
25116SOL    HW277602   6.254   2.106   6.058 -0.1487  1.2558  0.7991
25117SOL     OW77603   6.904   4.069   8.177  0.4572 -0.6621  0.0594
25117SOL    HW177604   6.842   4.142   8.186 -3.0683 -3.3304 -0.2280
25117SOL    HW277605   6.941   4.058   8.264  0.7857  1.1678  0.1969
25118SOL     OW77606   6.865   6.278   4.258  0.6579  0.2682  0.0215
25118SOL    HW177607   6.807   6.321   4.321  0.4540  0.1289 -0.0713
25118SOL    HW277608   6.935   6.342   4.243  1.3015 -0.1148  1.2049
25119SOL     OW77609   1.728   2.683   3.270  0.5903 -0.2410 -0.0265
25119SOL    HW177610   1.738   2.716   3.181  0.3619 -0.0352  0.0233
25119SOL    HW277611   1.755   2.755   3.327  0.9037 -0.4319  0.0692
25120SOL     OW77612   5.402   8.701   2.183  0.4474  0.7215 -0.2687
25120SOL    HW177613   5.464   8.748   2.127 -1.2662  2.6717 -0.6517
25120SOL    HW277614   5.422   8.734   2.271 -0.0935  1.4534 -0.4087
25121SOL     OW77615  10.525   0.657   3.583 -0.2221 -0.4052 -0.9645
25121SOL    HW177616  10.603   0.601   3.579  1.4122  1.7455 -0.7865
25121SOL    HW277617  10.483   0.633   3.666  1.1056 -0.5340 -0.3131
25122SOL     OW77618   4.980   4.866   6.321  0.1874  0.6070 -0.7002
25122SOL    HW177619   4.948   4.925   6.253 -0.9274  0.1110 -0.6327
25122SOL    HW277620   4.999   4.924   6.396  2.6073  1.3244 -1.7591
25123SOL     OW77621   8.668   8.247   1.448 -0.1131  0.0932 -0.3364
25123SOL    HW177622   8.619   8.319   1.488  3.0806  1.4293  1.5129
25123SOL    HW277623   8.742   8.289   1.405  1.2908 -2.0037 -0.0951
25124SOL     OW77624   2.610   9.667   2.388  0.2720  0.3584 -0.6830
25124SOL    HW177625   2.564   9.683   2.306 -0.6326 -2.7571 -0.9098
25124SOL    HW277626   2.541   9.660   2.453  0.8177  0.6814 -0.0577
25125SOL     OW77627   5.482   3.987   2.336  0.4704 -0.2879 -0.0664
25125SOL    HW177628   5.393   4.016   2.313 -0.1190 -0.5303  1.7629
25125SOL    HW277629   5.533   4.068   2.341 -0.4664  0.2213  2.1248
25126SOL     OW77630   9.915   9.193   7.207  0.0306  0.0451  0.6101
25126SOL    HW177631   9.839   9.229   7.253 -0.3194 -0.1342  0.1817
25126SOL    HW277632   9.981   9.179   7.276  0.0586  1.1819  0.8397
25127SOL     OW77633   0.572   5.390   4.397 -0.2924 -0.5288 -0.1876
25127SOL    HW177634   0.584   5.479   4.365  0.9212  0.1301  1.8536
25127SOL    HW277635   0.653   5.345   4.373 -0.4157 -0.7317 -0.2193
25128SOL     OW77636   6.927   2.889   6.958  0.0074  0.3184  0.1883
25128SOL    HW177637   6.984   2.870   6.885 -0.0075 -1.4462  0.5996
25128SOL    HW277638   6.858   2.945   6.922  0.6090  0.3825 -0.8699
25129SOL     OW77639   5.691   1.964   3.562  0.0371  0.2780  0.4525
25129SOL    HW177640   5.721   1.879   3.595 -1.2962  0.7386  3.0988
25129SOL    HW277641   5.772   2.008   3.533  0.6254 -2.4271 -2.7624
25130SOL     OW77642   2.385   3.005   8.859 -0.2664 -0.1389  0.2637
25130SOL    HW177643   2.308   2.998   8.803 -1.4091  0.1109  1.7436
25130SOL    HW277644   2.399   2.917   8.892 -0.9199  0.0994  1.2351
25131SOL     OW77645   4.529  10.009   2.923  0.2039  0.1875  0.2320
25131SOL    HW177646   4.594  10.015   2.853  0.0569  0.0958  0.0877
25131SOL    HW277647   4.513  10.101   2.947  0.8636  0.1877  0.7159
25132SOL     OW77648  10.180   6.267   2.184  0.4400  0.2488 -0.1656
25132SOL    HW177649  10.143   6.356   2.187 -0.5076 -0.1286 -0.4304
25132SOL    HW277650  10.103   6.210   2.183  1.0118 -0.6563  2.0938
25133SOL     OW77651   5.972   3.528   7.318 -0.0956 -0.5987  0.2591
25133SOL    HW177652   5.910   3.457   7.338 -1.9527  0.6466 -0.7507
25133SOL    HW277653   6.036   3.488   7.259  1.1072 -2.3432  2.5945
25134SOL     OW77654   2.241   3.033   5.462  0.5651  0.5680  0.0299
25134SOL    HW177655   2.284   2.962   5.509  0.7467  1.2387  0.9093
25134SOL    HW277656   2.214   2.994   5.379  1.4881 -0.2813  0.1075
25135SOL     OW77657   7.164   3.211   0.908  0.1904  0.3482 -0.0016
25135SOL    HW177658   7.246   3.239   0.948  0.2899 -0.4489  0.3653
25135SOL    HW277659   7.185   3.202   0.815  0.5911 -0.1026  0.1284
25136SOL     OW77660   0.814   7.471   2.604  0.0271  0.2520  0.6862
25136SOL    HW177661   0.859   7.399   2.647  2.4792  0.8977 -0.6009
25136SOL    HW277662   0.727   7.437   2.585 -0.0655 -1.1343  3.1430
25137SOL     OW77663   2.729   3.808   9.849  0.4588  0.1830 -0.0027
25137SOL    HW177664   2.771   3.723   9.862 -0.0636  0.0391  0.8148
25137SOL    HW277665   2.709   3.838   9.938  2.2518  1.9907 -0.1259
25138SOL     OW77666   2.792   5.726   9.680 -0.1238  0.4044  0.1909
25138SOL    HW177667   2.874   5.679   9.698  0.4450  0.5226 -1.8739
25138SOL    HW277668   2.723   5.668   9.712  0.6846 -0.5832  0.1781
25139SOL     OW77669   4.193   3.955   8.077 -0.0421 -0.2006 -0.0676
25139SOL    HW177670   4.108   3.997   8.095 -0.3761 -1.1213  0.5378
25139SOL    HW277671   4.258   4.017   8.111 -0.5221 -0.0734  0.6407
25140SOL     OW77672  10.543   0.289   2.493  0.6598  0.0820 -0.0816
25140SOL    HW177673  10.547   0.242   2.576 -0.7495  1.7974  1.0397
25140SOL    HW277674  10.457   0.333   2.494  1.4342  1.7646 -1.5265
25141SOL     OW77675   0.080  10.508   6.441  1.0638 -0.2192 -0.3239
25141SOL    HW177676   0.026  10.569   6.392  0.7403 -0.9021 -0.8332
25141SOL    HW277677   0.018  10.447   6.481  1.3350  0.2402  0.8246
25142SOL     OW77678   8.102   8.908  10.034 -0.0425 -0.1480  0.1577
25142SOL    HW177679   8.028   8.865  10.076 -1.6315  0.7219 -1.6380
25142SOL    HW277680   8.117   8.859   9.953  1.3891 -0.3274  0.4984
25143SOL     OW77681   7.708   5.249   8.880  0.0713  0.4259  0.0303
25143SOL    HW177682   7.632   5.215   8.927  0.0822  0.2164 -0.1007
25143SOL    HW277683   7.779   5.190   8.903  0.0748  0.3157 -0.2535
25144SOL     OW77684   9.610   4.076   8.801  0.8578 -0.0687 -0.1815
25144SOL    HW177685   9.608   3.985   8.770 -0.6760 -0.1628  0.1238
25144SOL    HW277686   9.556   4.075   8.880  1.2623  1.0133  0.1129
25145SOL     OW77687  10.286   8.255   4.470 -0.2852 -0.5446  0.6306
25145SOL    HW177688  10.309   8.187   4.535 -1.0097 -0.3257  1.1267
25145SOL    HW277689  10.350   8.324   4.485  0.3329 -1.0241  0.2624
25146SOL     OW77690   8.220   1.339   9.392  0.0955  0.0210  0.1495
25146SOL    HW177691   8.143   1.378   9.433  0.5859  1.8188 -0.5321
25146SOL    HW277692   8.290   1.350   9.456 -0.0919 -1.2119  0.5884
25147SOL     OW77693   9.465   6.086   1.984  0.1590  0.2235  0.2744
25147SOL    HW177694   9.434   6.164   1.940 -0.1684 -1.5346 -2.9197
25147SOL    HW277695   9.392   6.024   1.979  1.1328 -1.0168  0.7430
25148SOL     OW77696   9.217   0.694   8.210 -0.0238  0.3467 -0.3261
25148SOL    HW177697   9.225   0.649   8.126 -0.4805  1.7087 -1.1336
25148SOL    HW277698   9.306   0.696   8.245 -0.1493 -2.2276  0.3510
25149SOL     OW77699  10.332   3.322   9.030 -0.0568 -0.3292 -0.7212
25149SOL    HW177700  10.361   3.394   8.973  0.4004 -2.2300 -3.0473
25149SOL    HW277701  10.411   3.272   9.048 -0.6972 -1.4519 -0.9535
25150SOL     OW77702   9.969   1.935   0.961 -0.0419 -0.4851  0.6182
25150SOL    HW177703   9.998   1.898   0.877 -0.3478  0.5949  0.0251
25150SOL    HW277704  10.042   1.918   1.021  0.7203 -0.1470 -0.1916
25151SOL     OW77705   8.504   1.052   1.112 -0.6822 -0.0019 -0.2685
25151SOL    HW177706   8.435   1.025   1.172 -0.6630  1.1477  0.2885
25151SOL    HW277707   8.463   1.119   1.057  0.3403  1.7391  0.9999
25152SOL     OW77708   0.255   4.762   2.853 -0.3176 -0.5991  0.3434
25152SOL    HW177709   0.239   4.670   2.876 -1.0705  0.0831  2.8508
25152SOL    HW277710   0.167   4.797   2.836  0.0840 -0.6503 -2.2266
25153SOL     OW77711   8.175   2.716   1.309  0.0712  0.2807 -0.5689
25153SOL    HW177712   8.249   2.769   1.278  0.7693 -0.3257  0.0487
25153SOL    HW277713   8.098   2.763   1.277  0.6950  1.3103 -0.6158
25154SOL     OW77714   6.376   2.155   5.795 -0.0705 -0.1730  0.1979
25154SOL    HW177715   6.292   2.110   5.803  0.0831 -0.9507 -1.9299
25154SOL    HW277716   6.401   2.143   5.704  0.3848  3.5798 -0.3266
25155SOL     OW77717  10.048   4.486   1.958 -0.2848 -0.6945  0.6033
25155SOL    HW177718  10.103   4.408   1.959 -2.1476 -2.1255 -1.0660
25155SOL    HW277719   9.971   4.461   1.908 -0.6508  2.4356 -0.6883
25156SOL     OW77720  10.553   3.457   9.888 -0.5373 -0.3580  0.4348
25156SOL    HW177721  10.516   3.518   9.952  1.2122  1.8671 -0.5318
25156SOL    HW277722  10.477   3.418   9.845 -1.7760  1.4234  0.8783
25157SOL     OW77723   7.918   8.959   9.518 -0.1870  0.5322 -0.2778
25157SOL    HW177724   7.889   8.887   9.462 -1.2865 -0.1567  1.1081
25157SOL    HW277725   7.891   9.038   9.471 -0.0963  0.0143 -1.2214
25158SOL     OW77726   9.865   5.539   2.850 -0.5244  0.4929  0.4075
25158SOL    HW177727   9.896   5.575   2.933  0.7027  1.0720 -0.2781
25158SOL    HW277728   9.814   5.462   2.875  0.6080  0.1038  1.6409
25159SOL     OW77729   1.409   5.043  10.069  0.3064  0.1198  0.0898
25159SOL    HW177730   1.377   5.069  10.155  0.3494 -0.5160  0.3081
25159SOL    HW277731   1.499   5.014  10.084  0.0674 -0.7208 -0.0232
25160SOL     OW77732   2.231   6.610   4.156 -0.6635  0.0627 -0.1808
25160SOL    HW177733   2.206   6.573   4.071 -1.7130 -2.1557  1.0240
25160SOL    HW277734   2.326   6.622   4.149 -0.7575  0.1180 -1.7206
25161SOL     OW77735   6.314   6.128   6.738 -0.2613  0.4087 -0.2546
25161SOL    HW177736   6.401   6.087   6.735  0.2891  1.5214 -0.0581
25161SOL    HW277737   6.253   6.054   6.747  0.8587 -0.2878  3.3702
25162SOL     OW77738   6.241   8.203   4.453 -0.4907  0.1753  0.1290
25162SOL    HW177739   6.321   8.212   4.401  0.5792 -0.5457  1.5834
25162SOL    HW277740   6.205   8.119   4.425  1.0854 -1.1381  1.7706
25163SOL     OW77741   4.127   0.226   6.913  0.7962 -0.1463 -0.1839
25163SOL    HW177742   4.097   0.168   6.983  1.0881  0.4786  0.4850
25163SOL    HW277743   4.184   0.289   6.958  1.6303 -0.2082 -1.1255
25164SOL     OW77744   6.673   2.842   1.593  0.2012 -0.0017 -0.0739
25164SOL    HW177745   6.679   2.862   1.499 -1.7786  0.9689 -0.0472
25164SOL    HW277746   6.685   2.747   1.598  1.8441  0.0996 -1.1100
25165SOL     OW77747   5.711   9.312   8.208  0.2488 -0.2134  0.1379
25165SOL    HW177748   5.739   9.397   8.241  0.4357 -0.5509  0.8825
25165SOL    HW277749   5.791   9.274   8.170  1.4879 -1.9436  3.8710
25166SOL     OW77750   9.884   5.608   5.139 -0.1518  0.2886 -0.0486
25166SOL    HW177751   9.958   5.644   5.090  1.5633 -3.4323 -0.5702
25166SOL    HW277752   9.895   5.640   5.228  1.1578  1.0877 -0.4721
25167SOL     OW77753   4.606   9.911   8.459  0.3355  0.6431 -0.1703
25167SOL    HW177754   4.662   9.851   8.508 -1.5207 -0.0975  1.1853
25167SOL    HW277755   4.550   9.854   8.406  2.0190  1.4136 -3.0074
25168SOL     OW77756   8.481   0.146   0.448  0.4460  0.6354  0.1471
25168SOL    HW177757   8.413   0.147   0.515  1.4970  0.5092  1.2436
25168SOL    HW277758   8.434   0.158   0.365 -1.0637 -0.8366  0.7337
25169SOL     OW77759   8.973   2.950   8.312 -0.1149  0.7125 -0.2236
25169SOL    HW177760   8.963   3.011   8.385  1.6379  1.0946 -0.2571
25169SOL    HW277761   9.022   3.000   8.246 -0.4836 -0.0713 -1.1097
25170SOL     OW77762  10.498  10.543   7.824 -0.6378 -0.4542  0.2489
25170SOL    HW177763  10.407  10.556   7.798 -0.8067  0.6193  1.2948
25170SOL    HW277764  10.524  10.626   7.863  0.6039 -0.9508  0.5251
25171SOL     OW77765   3.231   3.746   1.456  0.6164 -0.1998 -0.0350
25171SOL    HW177766   3.284   3.728   1.378  1.7966  0.5427  0.5630
25171SOL    HW277767   3.145   3.712   1.434  1.5060 -2.1687 -0.7658
25172SOL     OW77768   0.792   5.625   6.172  0.0553 -0.0219  0.3165
25172SOL    HW177769   0.773   5.613   6.079  1.6361 -1.8060  0.1500
25172SOL    HW277770   0.843   5.706   6.176  0.9018 -0.4745 -0.5677
25173SOL     OW77771   7.321   8.056   7.867  0.3491 -0.2213 -0.3990
25173SOL    HW177772   7.299   8.108   7.789  0.4511 -2.0173 -1.6791
25173SOL    HW277773   7.239   8.049   7.915  0.1927  0.5753 -0.5373
25174SOL     OW77774   0.005   2.082   9.065  0.0991 -0.3277 -0.2187
25174SOL    HW177775  -0.023   2.111   9.151 -0.0580  0.6393 -0.5909
25174SOL    HW277776   0.086   2.033   9.082 -1.0221 -1.9454  0.6987
25175SOL     OW77777  10.251   3.343   6.873  0.1107 -0.6454  0.2829
25175SOL    HW177778  10.201   3.418   6.840  0.1317 -0.8088 -0.1298
25175SOL    HW277779  10.192   3.300   6.935 -0.4060 -1.0409 -0.4677
25176SOL     OW77780   4.494   6.309   4.470 -0.1025 -0.0436 -0.6996
25176SOL    HW177781   4.537   6.309   4.556 -0.9771  0.8124 -0.2392
25176SOL    HW277782   4.531   6.234   4.425  0.7652 -0.2025  0.2339
25177SOL     OW77783   5.878   5.165   4.096 -0.2580  0.0663  0.1804
25177SOL    HW177784   5.875   5.235   4.031 -1.0369  0.3863  0.5474
25177SOL    HW277785   5.850   5.207   4.177 -0.9879 -0.7218  0.3556
25178SOL     OW77786   4.189   3.863   0.224  0.3606  0.1010  0.8609
25178SOL    HW177787   4.252   3.882   0.294 -0.1756  0.0573  1.3569
25178SOL    HW277788   4.240   3.814   0.159  0.4099 -1.5873  2.1037
25179SOL     OW77789   4.530   1.131   6.289 -0.2628 -0.5525 -0.7530
25179SOL    HW177790   4.474   1.054   6.298  1.0062 -1.4119  0.1155
25179SOL    HW277791   4.568   1.124   6.202 -0.5517 -0.6225 -0.8751
25180SOL     OW77792   9.399  10.448   3.357 -0.0699  0.3258 -0.0122
25180SOL    HW177793   9.305  10.451   3.342  0.1315  0.8790 -1.3109
25180SOL    HW277794   9.410  10.471   3.449 -1.3721 -2.5537  0.9566
25181SOL     OW77795   2.906   4.970   3.027  0.5407  0.1846  0.0440
25181SOL    HW177796   2.868   5.027   2.961  0.2868 -1.2780 -1.1222
25181SOL    HW277797   2.991   5.009   3.046  0.4845  0.8028 -0.8987
25182SOL     OW77798   7.344   2.449   3.709  0.0075 -0.8002  0.1387
25182SOL    HW177799   7.349   2.439   3.804  2.0725  0.4537  0.2137
25182SOL    HW277800   7.422   2.499   3.686 -0.9995 -0.1531 -2.1068
25183SOL     OW77801   2.472   2.902   2.706 -0.0253 -0.3033 -0.0808
25183SOL    HW177802   2.523   2.853   2.771  0.5395  0.4517  0.0626
25183SOL    HW277803   2.505   2.992   2.713  0.5793 -0.3472 -1.9444
25184SOL     OW77804   8.634   6.851   1.223 -0.3951 -0.2073  0.4389
25184SOL    HW177805   8.672   6.765   1.240 -0.1772  0.1847  2.0692
25184SOL    HW277806   8.629   6.893   1.309  0.4644  1.8177 -0.4244
25185SOL     OW77807   5.944   4.482   1.264 -0.4878  0.4768  0.2025
25185SOL    HW177808   6.039   4.493   1.269 -0.3399  0.0869 -1.1822
25185SOL    HW277809   5.930   4.388   1.276 -0.7450  0.6052  0.9138
25186SOL     OW77810   8.076   0.494   7.897 -0.5511 -0.0066  0.0389
25186SOL    HW177811   8.100   0.452   7.815  0.9412 -1.8135  1.3213
25186SOL    HW277812   8.119   0.579   7.894  1.3323 -0.9196 -0.1721
25187SOL     OW77813   3.122   3.870   6.482 -0.0659 -0.0140  0.1866
25187SOL    HW177814   3.054   3.870   6.548 -0.4223 -0.7217 -0.1738
25187SOL    HW277815   3.075   3.873   6.399  0.2894 -1.3866 -0.0917
25188SOL     OW77816   8.692   0.111   6.580  0.0163  0.2377 -0.0454
25188SOL    HW177817   8.638   0.085   6.506  1.4306  0.0279 -1.0492
25188SOL    HW277818   8.756   0.172   6.543  2.0600 -1.4476  0.5243
25189SOL     OW77819   9.153   7.375   9.242 -0.6529 -0.6621 -0.0546
25189SOL    HW177820   9.149   7.470   9.239 -1.1229 -0.6471  0.7676
25189SOL    HW277821   9.245   7.355   9.259 -0.9394 -0.2593  2.1797
25190SOL     OW77822   6.269   2.379   8.270  0.0824  0.4251  0.2948
25190SOL    HW177823   6.301   2.463   8.236  2.7040 -0.6946 -0.2183
25190SOL    HW277824   6.248   2.328   8.192 -1.9859  0.7207  0.6156
25191SOL     OW77825   7.345   0.146   4.621  0.2998  0.3170 -0.1130
25191SOL    HW177826   7.281   0.086   4.582  0.5923  0.4804 -0.8805
25191SOL    HW277827   7.374   0.200   4.547  0.9249  0.5980  0.3290
25192SOL     OW77828   3.226   4.952   6.816  0.3923  0.4427 -0.1881
25192SOL    HW177829   3.150   4.920   6.768  1.4556 -2.8704  0.1123
25192SOL    HW277830   3.211   4.926   6.906  0.8477  1.8736  0.3318
25193SOL     OW77831   9.019   8.798   3.486  0.4117  0.3448 -0.1102
25193SOL    HW177832   9.022   8.803   3.390  1.4578  1.3634 -0.0400
25193SOL    HW277833   8.960   8.869   3.511  0.2507  0.1672  0.0191
25194SOL     OW77834   2.600   7.968   4.840  0.9114 -0.1477  0.1712
25194SOL    HW177835   2.529   8.030   4.857 -0.0917 -1.0802 -0.5064
25194SOL    HW277836   2.618   7.929   4.926  1.3241  0.8173  0.5391
25195SOL     OW77837   2.880   8.837   8.344  0.0934  0.1599 -0.5708
25195SOL    HW177838   2.887   8.824   8.438 -0.0309  1.0845 -0.4216
25195SOL    HW277839   2.932   8.767   8.306  0.8640  0.2887  0.2150
25196SOL     OW77840   5.153   5.596   5.894 -0.2492  0.8825  0.3411
25196SOL    HW177841   5.244   5.582   5.922 -0.7221  0.4492  1.7509
25196SOL    HW277842   5.146   5.691   5.885  0.3308  0.9229  0.2715
25197SOL     OW77843   8.270   6.823   0.194  0.4765 -0.6585  0.2389
25197SOL    HW177844   8.322   6.757   0.148  1.0210 -0.0774 -0.0035
25197SOL    HW277845   8.333   6.892   0.215  0.2080 -0.8520  1.7596
25198SOL     OW77846   7.303   2.625   0.982 -0.1927 -0.3380 -0.3501
25198SOL    HW177847   7.331   2.547   0.934  4.5646  0.1260  1.1593
25198SOL    HW277848   7.279   2.688   0.914 -0.9212 -2.0212 -1.7119
25199SOL     OW77849   2.145   4.358   3.609 -0.4856  0.0573  0.0511
25199SOL    HW177850   2.052   4.378   3.618 -0.2004  1.7586 -0.4152
25199SOL    HW277851   2.178   4.424   3.548  0.8304 -1.1547 -0.6160
25200SOL     OW77852   8.926   1.865   0.672 -0.7707  0.1052 -0.2357
25200SOL    HW177853   8.845   1.894   0.714 -1.1576  1.2692 -1.7115
25200SOL    HW277854   8.916   1.770   0.662 -1.5540  0.1179  0.3913
25201SOL     OW77855   0.979   5.908   8.728  0.4721  0.2454  0.4251
25201SOL    HW177856   1.055   5.872   8.683  0.0058 -0.9044  0.5088
25201SOL    HW277857   0.918   5.931   8.657 -1.2215 -3.6913  0.3286
25202SOL     OW77858   2.471   6.105   7.644 -0.3525 -0.1351 -0.0562
25202SOL    HW177859   2.559   6.138   7.624 -1.1013  1.9373 -0.1863
25202SOL    HW277860   2.421   6.123   7.565 -1.1550 -0.3104  0.4090
25203SOL     OW77861   7.399   0.256   0.418 -0.2872 -0.0571 -0.4154
25203SOL    HW177862   7.335   0.218   0.358 -0.5361  2.4273 -1.8647
25203SOL    HW277863   7.364   0.343   0.439  0.4976 -0.2747  2.2798
25204SOL     OW77864   6.802   7.313   7.479 -0.2067  0.4497  0.5178
25204SOL    HW177865   6.812   7.406   7.498  0.7088  0.6205 -0.7060
25204SOL    HW277866   6.867   7.270   7.535 -0.8300  0.4974  1.3016
25205SOL     OW77867   1.914   5.960   1.550  0.6052 -0.0659 -0.4582
25205SOL    HW177868   1.955   6.021   1.610 -0.7037 -0.9317  1.4424
25205SOL    HW277869   1.970   5.883   1.551 -0.7603 -1.1435  1.9228
25206SOL     OW77870   5.659   8.679   3.505 -0.2560 -0.0043  0.1778
25206SOL    HW177871   5.727   8.703   3.569 -2.7441  0.9204  2.6993
25206SOL    HW277872   5.688   8.595   3.470  2.4427  0.6191  0.6874
25207SOL     OW77873   8.352   7.492  10.025 -0.1176 -0.1788  0.2912
25207SOL    HW177874   8.302   7.449  10.094  1.3867 -0.5056  1.2321
25207SOL    HW277875   8.442   7.459  10.036  0.2601  0.0762 -1.5617
25208SOL     OW77876   6.048   4.586   5.772 -0.2293 -0.0510 -0.0028
25208SOL    HW177877   6.060   4.652   5.841 -0.8334  0.1403 -0.0697
25208SOL    HW277878   6.026   4.638   5.694 -0.1482 -0.3018 -0.1932
25209SOL     OW77879   4.958   0.438   5.924 -0.0823  0.1058 -0.4293
25209SOL    HW177880   4.980   0.466   5.835 -0.0877  0.3378 -0.3576
25209SOL    HW277881   5.003   0.500   5.981  0.6359 -0.5686 -0.2531
25210SOL     OW77882   4.628   0.340   3.405  0.6967 -0.2078 -0.0670
25210SOL    HW177883   4.706   0.395   3.399  0.9795 -0.1686  2.6517
25210SOL    HW277884   4.555   0.400   3.390  1.0086  1.0293  2.7127
25211SOL     OW77885   0.413   7.208   5.803 -0.1351  0.1383  0.4913
25211SOL    HW177886   0.376   7.190   5.890  2.0483 -0.8547  1.2717
25211SOL    HW277887   0.506   7.224   5.819  0.2821  0.1251 -1.6610
25212SOL     OW77888   0.413   1.894  10.226 -0.7030  0.0387  0.6359
25212SOL    HW177889   0.358   1.819  10.248  0.2031 -1.1048 -0.8702
25212SOL    HW277890   0.356   1.951  10.174 -0.2058 -1.7368 -2.0123
25213SOL     OW77891   5.929   2.884   3.226 -0.0848  0.7702 -0.3013
25213SOL    HW177892   5.885   2.854   3.147 -0.0808 -0.4587  0.1495
25213SOL    HW277893   6.022   2.875   3.206 -0.0802  0.7016 -0.2490
25214SOL     OW77894   7.253   4.160   5.464 -0.5775  0.3750  0.2238
25214SOL    HW177895   7.170   4.175   5.420 -0.4103 -0.7882 -0.5297
25214SOL    HW277896   7.315   4.142   5.394 -0.0577 -0.3890  0.8546
25215SOL     OW77897   1.976   1.425   4.217  0.2997 -0.2026 -0.1363
25215SOL    HW177898   1.894   1.465   4.187 -0.3207 -1.0785  0.3501
25215SOL    HW277899   1.997   1.361   4.149 -0.0607 -0.8158  0.3296
25216SOL     OW77900   6.210   3.495   6.424  0.2827  0.0654 -0.1522
25216SOL    HW177901   6.227   3.561   6.492 -2.4856  1.1523 -0.3953
25216SOL    HW277902   6.261   3.419   6.452  0.4046  0.9541  2.3361
25217SOL     OW77903   2.550   6.735   9.063  0.1238  0.0705  0.5936
25217SOL    HW177904   2.485   6.716   9.131 -0.6733 -1.3517 -0.5052
25217SOL    HW277905   2.503   6.721   8.981  1.2553  1.0910 -0.2669
25218SOL     OW77906   9.936   0.652   9.616  0.0054 -0.2151  0.0696
25218SOL    HW177907  10.017   0.609   9.591  1.0278  2.2635 -1.1769
25218SOL    HW277908   9.960   0.711   9.687 -0.5330  0.9713 -0.6964
25219SOL     OW77909   2.453   4.575   9.182  0.4459  0.0656  0.4419
25219SOL    HW177910   2.436   4.645   9.245  2.5077 -1.2645  2.6682
25219SOL    HW277911   2.366   4.549   9.151 -0.6457  1.1620  2.3765
25220SOL     OW77912   9.455   2.685   4.026  0.5106 -0.2993  0.8318
25220SOL    HW177913   9.530   2.630   4.005  0.4769 -0.1166  0.2217
25220SOL    HW277914   9.379   2.627   4.016  0.4189  0.0055 -0.4579
25221SOL     OW77915   0.326   8.488   1.943 -0.3335  0.1898  0.4907
25221SOL    HW177916   0.300   8.431   2.015  1.1535  0.0460  0.9529
25221SOL    HW277917   0.382   8.433   1.888 -0.1318  0.7598  0.1101
25222SOL     OW77918   6.676   1.660   2.110 -0.5485 -0.5797  0.4437
25222SOL    HW177919   6.608   1.625   2.168  0.0381 -1.2888  0.7351
25222SOL    HW277920   6.749   1.679   2.169 -0.0918 -0.9173  0.0010
25223SOL     OW77921   9.860   5.751   9.452 -0.1084  0.2403 -0.3352
25223SOL    HW177922   9.849   5.808   9.376  0.1096  0.2239 -0.3782
25223SOL    HW277923   9.774   5.750   9.494 -0.2697  0.1252 -0.6703
25224SOL     OW77924   2.530   1.304   8.165  0.3082  0.2111 -0.1438
25224SOL    HW177925   2.503   1.315   8.074  0.5906  1.8561 -0.0430
25224SOL    HW277926   2.479   1.228   8.196  0.4021 -0.5292 -1.7237
25225SOL     OW77927   9.210   9.900   2.893  0.1362  0.5033  0.1013
25225SOL    HW177928   9.275   9.954   2.938 -0.9314  0.9576  1.1594
25225SOL    HW277929   9.219   9.924   2.801 -0.4972  2.7530  0.5580
25226SOL     OW77930   6.249   2.386   7.512 -0.1916  0.0722  0.1812
25226SOL    HW177931   6.219   2.469   7.475 -0.0575  0.1461  0.2381
25226SOL    HW277932   6.312   2.353   7.448  1.5095  1.1372  1.2429
25227SOL     OW77933   9.873   6.374   5.751  0.0642  0.3872 -0.0210
25227SOL    HW177934   9.959   6.368   5.793 -0.2563  2.7265  1.1085
25227SOL    HW277935   9.892   6.394   5.659  0.7203 -0.1840 -0.0195
25228SOL     OW77936   2.756   0.184   7.332  0.1784 -0.5063 -0.3859
25228SOL    HW177937   2.692   0.121   7.367 -0.1248 -1.9678 -3.2780
25228SOL    HW277938   2.718   0.270   7.352 -0.0440 -1.1608  2.4997
25229SOL     OW77939   0.420   2.258   3.423 -0.3045 -0.1017 -0.6570
25229SOL    HW177940   0.512   2.281   3.412 -0.2705  0.7038  0.9376
25229SOL    HW277941   0.392   2.306   3.501 -2.6379  1.2949 -2.2157
25230SOL     OW77942   4.397   4.722   8.726  0.0631 -0.2660  0.2156
25230SOL    HW177943   4.431   4.784   8.661  1.2225 -1.7944 -0.7104
25230SOL    HW277944   4.443   4.640   8.708  0.4529 -0.7725  3.0102
25231SOL     OW77945   6.384   3.356   0.774  0.1366  0.0403  0.5169
25231SOL    HW177946   6.301   3.388   0.809 -0.6668  1.5353 -2.3971
25231SOL    HW277947   6.449   3.419   0.806 -0.4253  0.8488  0.1058
25232SOL     OW77948   0.261   0.620   1.554  0.8388  0.0495  0.2087
25232SOL    HW177949   0.327   0.597   1.619  2.0031  1.9422 -0.2383
25232SOL    HW277950   0.276   0.559   1.482  1.6558  0.0429  0.3812
25233SOL     OW77951   6.555   4.406   5.803 -0.5102 -0.3089 -0.3303
25233SOL    HW177952   6.527   4.401   5.895  1.8560  0.5787  0.5144
25233SOL    HW277953   6.477   4.434   5.756 -1.4148  0.6878  1.6290
25234SOL     OW77954   1.930   8.871   0.247  0.0671  0.0108 -0.0556
25234SOL    HW177955   1.868   8.891   0.317 -0.6059  3.0875 -1.3580
25234SOL    HW277956   2.015   8.869   0.290 -0.4580  0.5065  1.0421
25235SOL     OW77957   8.893  10.231   7.862  0.1118 -0.4186 -0.1254
25235SOL    HW177958   8.840  10.270   7.932 -2.5074 -0.3265 -1.9950
25235SOL    HW277959   8.968  10.289   7.854 -1.0866  1.3315  0.5770
25236SOL     OW77960  10.176  10.109   3.937 -0.0732  0.2424 -0.0171
25236SOL    HW177961  10.122  10.030   3.945 -0.2625  0.3206 -0.4383
25236SOL    HW277962  10.143  10.151   3.857  1.8874 -0.6874 -1.3824
25237SOL     OW77963   3.087   7.841   0.696  0.2926  0.0520  0.5838
25237SOL    HW177964   3.123   7.927   0.716 -0.4902  0.2510  1.1677
25237SOL    HW277965   3.096   7.791   0.777  1.3464 -0.6427  0.0596
25238SOL     OW77966   6.182   5.270   6.031 -0.2216 -0.2768 -0.3313
25238SOL    HW177967   6.258   5.318   6.064 -2.4732  2.3571  1.4591
25238SOL    HW277968   6.126   5.260   6.107 -3.0164  0.6206 -2.1285
25239SOL     OW77969   6.950   9.574   4.254 -0.4369 -0.0940 -0.3665
25239SOL    HW177970   6.991   9.642   4.307 -0.4933 -0.2447 -0.1330
25239SOL    HW277971   6.966   9.602   4.164 -1.5392  0.8993 -0.2818
25240SOL     OW77972   9.363   7.840   2.715 -0.0404 -0.1784 -0.2149
25240SOL    HW177973   9.434   7.784   2.746 -0.5125  0.0276  1.3301
25240SOL    HW277974   9.394   7.874   2.631  1.8469  0.2414  0.6105
25241SOL     OW77975   0.387   1.539   4.662 -0.1382  0.0287  0.1817
25241SOL    HW177976   0.413   1.462   4.713 -1.4698  0.6231  1.8577
25241SOL    HW277977   0.325   1.505   4.598 -0.2271 -0.3993  0.4879
25242SOL     OW77978   8.494   7.453   4.507  0.2266  0.0895  0.6036
25242SOL    HW177979   8.418   7.493   4.549  0.4498  0.8230  0.3283
25242SOL    HW277980   8.554   7.432   4.578  0.9489  2.0551  0.6222
25243SOL     OW77981   2.478   9.950   3.658 -0.6521  0.4049 -0.8997
25243SOL    HW177982   2.496  10.042   3.640  0.9619  0.2142 -0.4741
25243SOL    HW277983   2.395   9.950   3.706  0.8767  1.9992  2.0297
25244SOL     OW77984   1.752   0.793   4.713 -0.4573  0.0794  0.1473
25244SOL    HW177985   1.698   0.869   4.691  0.1835  0.0000 -1.8967
25244SOL    HW277986   1.842   0.825   4.703 -0.1682 -0.6215  0.4953
25245SOL     OW77987   3.919   0.953   7.465 -0.0747 -0.0563  0.3376
25245SOL    HW177988   3.965   0.887   7.517 -0.5887 -0.4190  0.3435
25245SOL    HW277989   3.911   0.913   7.379 -0.1492  0.1085  0.2691
25246SOL     OW77990   2.855   2.260   4.614 -0.0169  0.0246  0.2995
25246SOL    HW177991   2.805   2.341   4.601  0.5144  0.1711 -1.0045
25246SOL    HW277992   2.802   2.193   4.571  0.9647  0.2170 -1.2843
25247SOL     OW77993   3.967   0.371  10.260 -0.6830 -0.0049  0.0861
25247SOL    HW177994   3.922   0.422  10.193 -0.2771  0.9313  0.5019
25247SOL    HW277995   4.046   0.338  10.216  0.5593  2.1522  0.5370
25248SOL     OW77996   6.163   8.721   4.931 -0.2977  0.0039 -0.0724
25248SOL    HW177997   6.197   8.807   4.906 -2.0504  0.2109 -2.0758
25248SOL    HW277998   6.109   8.738   5.008 -0.4922  0.6893 -0.3519
25249SOL     OW77999   3.359   9.122   6.229  0.5244 -0.0236 -0.0377
25249SOL    HW178000   3.268   9.135   6.202 -0.0525 -0.0972  1.7219
25249SOL    HW278001   3.355   9.052   6.294  1.8090  0.1292  0.2361
25250SOL     OW78002  10.249   2.915   2.160 -0.5469  0.2420  0.2478
25250SOL    HW178003  10.274   3.006   2.175  0.5139 -0.0345  0.2298
25250SOL    HW278004  10.208   2.887   2.242  0.3783  0.3306  0.7516
25251SOL     OW78005   2.657   3.363   2.505  0.0048 -0.6964 -0.3207
25251SOL    HW178006   2.585   3.376   2.443 -0.8185 -1.9604  0.3120
25251SOL    HW278007   2.679   3.270   2.496  2.6077 -0.0332 -1.5606
25252SOL     OW78008   4.131   9.826   2.391  0.6795  0.0671  0.6007
25252SOL    HW178009   4.197   9.861   2.450  0.5226  0.3118  0.6325
25252SOL    HW278010   4.093   9.903   2.349  1.2122 -0.1393 -0.2744
25253SOL     OW78011   9.722   8.447   5.599 -0.3759  0.3952  0.0450
25253SOL    HW178012   9.708   8.385   5.528 -0.5714  0.3189  0.1472
25253SOL    HW278013   9.758   8.394   5.670 -0.1267  0.4816 -0.0164
25254SOL     OW78014   2.729  10.463   7.912  0.0848 -0.2302 -0.6070
25254SOL    HW178015   2.705  10.393   7.973  1.0364 -0.9111 -0.9649
25254SOL    HW278016   2.728  10.543   7.964 -2.7063 -0.1984 -0.5746
25255SOL     OW78017   3.845   2.855   9.009  0.2779 -0.1879 -0.8167
25255SOL    HW178018   3.927   2.810   8.988  0.1524 -0.7444 -0.1536
25255SOL    HW278019   3.839   2.851   9.104 -0.5758 -0.2563 -0.8651
25256SOL     OW78020   1.481   8.447   4.365  0.3764 -0.0476  0.2207
25256SOL    HW178021   1.525   8.421   4.445 -0.6029  0.5142  0.9683
25256SOL    HW278022   1.440   8.531   4.386 -0.0665  0.0141 -0.7979
25257SOL     OW78023   9.919   0.454   1.303 -0.2611  0.4021  0.1832
25257SOL    HW178024  10.001   0.406   1.294 -0.1493  0.7002 -0.4388
25257SOL    HW278025   9.941   0.528   1.359  0.5395  1.8914 -1.9798
25258SOL     OW78026   5.162   0.745   8.836 -0.1257  0.0195 -0.3437
25258SOL    HW178027   5.211   0.783   8.910 -2.1346 -0.0367  1.1024
25258SOL    HW278028   5.220   0.678   8.800  1.9343  1.7735 -0.4820
25259SOL     OW78029   3.147   4.574   0.130 -0.0812  0.5668  0.0812
25259SOL    HW178030   3.200   4.495   0.132 -0.2803  0.3985 -0.8479
25259SOL    HW278031   3.199   4.638   0.081  1.3114  1.9708  3.1245
25260SOL     OW78032   8.932   6.353   4.801  0.0859  0.1341 -0.0007
25260SOL    HW178033   8.979   6.427   4.763  3.1263 -1.0895  1.1146
25260SOL    HW278034   8.951   6.279   4.743 -0.9428 -0.3054  0.1847
25261SOL     OW78035   3.796   1.352   9.677 -0.2192 -0.6939 -0.0111
25261SOL    HW178036   3.802   1.424   9.739  1.9403 -0.0365 -0.8820
25261SOL    HW278037   3.712   1.364   9.633 -0.1569  0.9300  0.2785
25262SOL     OW78038   7.767   7.063   1.896  0.2744  0.4140  0.2825
25262SOL    HW178039   7.695   7.067   1.959 -0.9600 -0.2305 -1.0197
25262SOL    HW278040   7.725   7.039   1.813  1.7569  1.8001 -0.9340
25263SOL     OW78041   4.833   4.979   5.103 -0.0350 -0.1456 -0.1198
25263SOL    HW178042   4.774   4.932   5.044  0.8013 -1.0751 -0.2499
25263SOL    HW278043   4.905   4.917   5.119 -0.4331 -0.1142  2.2373
25264SOL     OW78044   9.051   9.284   7.524 -0.3397 -0.1153 -0.0192
25264SOL    HW178045   9.058   9.345   7.450 -1.0796 -1.7444 -1.5157
25264SOL    HW278046   8.957   9.270   7.534 -0.1805 -0.9515  0.3425
25265SOL     OW78047   6.132   4.524   2.583  0.2371  0.1938 -0.5511
25265SOL    HW178048   6.191   4.563   2.649 -0.0887  0.1417 -0.2264
25265SOL    HW278049   6.087   4.599   2.545 -1.0606  0.1022  0.7110
25266SOL     OW78050  10.170   7.765   8.719  0.2777 -0.1618  0.6918
25266SOL    HW178051  10.256   7.768   8.761  0.8234  0.2752 -0.4115
25266SOL    HW278052  10.142   7.857   8.715  1.1466  0.0462 -1.6719
25267SOL     OW78053  10.478  10.259  10.304 -0.4861  0.7780  0.6115
25267SOL    HW178054  10.522  10.184  10.343  0.4527  0.3747 -1.1161
25267SOL    HW278055  10.532  10.282  10.228 -2.1877  1.5200 -0.4405
25268SOL     OW78056   3.557   2.662   9.456 -0.4560 -0.2127 -0.3233
25268SOL    HW178057   3.537   2.700   9.371 -1.2284  0.0462 -0.0341
25268SOL    HW278058   3.474   2.664   9.504 -0.3850 -1.7022 -0.0780
25269SOL     OW78059   0.903   6.985   8.217 -0.8035  0.0583  1.0348
25269SOL    HW178060   0.817   6.986   8.261 -0.9317  2.8018  0.8723
25269SOL    HW278061   0.964   7.015   8.284 -0.4625  1.0388  0.2955
25270SOL     OW78062   8.347   3.407   9.745 -0.2658 -0.0918  0.1561
25270SOL    HW178063   8.390   3.419   9.660  0.9523  0.7598  0.8601
25270SOL    HW278064   8.315   3.495   9.768 -2.3443 -0.6634 -0.2740
25271SOL     OW78065   8.799   7.288  10.179  0.0829  0.3906  0.2532
25271SOL    HW178066   8.886   7.319  10.156 -0.3928  0.7070 -1.2000
25271SOL    HW278067   8.739   7.347  10.133 -0.8661 -1.3959 -0.8950
25272SOL     OW78068   3.437   3.060   5.080  0.2099 -0.6708 -0.3179
25272SOL    HW178069   3.355   3.011   5.083  0.1462 -0.6641 -1.4220
25272SOL    HW278070   3.428   3.126   5.149 -1.1408 -0.0329 -1.0637
25273SOL     OW78071   8.429   5.311  10.310 -0.3813 -0.6233  0.4134
25273SOL    HW178072   8.488   5.265  10.369  0.2365 -1.3263 -0.7278
25273SOL    HW278073   8.464   5.294  10.223 -1.8193 -0.4053 -0.2317
25274SOL     OW78074   1.743   5.843   9.793 -0.1850  0.3448  0.5270
25274SOL    HW178075   1.785   5.924   9.821 -0.7432  1.2498 -1.0715
25274SOL    HW278076   1.712   5.802   9.874  0.5250  1.4881  1.4016
25275SOL     OW78077   5.403   7.341   7.034 -0.2276 -0.4638 -1.0277
25275SOL    HW178078   5.325   7.323   7.086  0.4720 -0.8558 -0.0842
25275SOL    HW278079   5.475   7.307   7.087  0.5101 -0.8793 -2.2729
25276SOL     OW78080   8.128   4.071   5.352  0.3796  0.2036 -0.2063
25276SOL    HW178081   8.137   4.162   5.378 -0.0077  0.0660  0.4106
25276SOL    HW278082   8.066   4.072   5.279 -2.2001  0.1172  1.8492
25277SOL     OW78083   9.542   5.800   1.540  0.4956  0.3613  0.1640
25277SOL    HW178084   9.526   5.714   1.503  0.2489  0.4528  0.0496
25277SOL    HW278085   9.636   5.804   1.554  0.3364 -0.5401  1.6703
25278SOL     OW78086   5.313   6.942   4.331  0.2177  0.0239  0.6308
25278SOL    HW178087   5.265   7.014   4.289  0.6248  0.4436  0.8771
25278SOL    HW278088   5.280   6.940   4.421 -0.2916 -0.5517  0.4399
25279SOL     OW78089  10.016   6.897   9.123 -0.3527  0.2286  0.0534
25279SOL    HW178090  10.074   6.970   9.107  1.4637 -0.7624  1.6957
25279SOL    HW278091  10.062   6.821   9.087 -0.4802 -0.6091  1.5661
25280SOL     OW78092  10.631   7.896   7.092 -0.0380 -0.2863 -0.0745
25280SOL    HW178093  10.581   7.820   7.063  1.1130 -0.9723 -0.3168
25280SOL    HW278094  10.658   7.874   7.181  0.6002 -0.3301 -0.2736
25281SOL     OW78095   8.911   0.803   6.976  0.4417 -0.1281 -0.1364
25281SOL    HW178096   8.815   0.800   6.980  0.3048  1.8617 -0.6916
25281SOL    HW278097   8.936   0.716   6.944 -1.1971 -0.5776 -0.3264
25282SOL     OW78098   8.943   3.612   5.750  0.4635 -0.7554  0.1619
25282SOL    HW178099   8.931   3.576   5.838 -0.3471 -1.1331 -0.0971
25282SOL    HW278100   9.008   3.555   5.709  0.3958 -0.9380  0.3094
25283SOL     OW78101   4.811   0.463   8.100 -0.3537  0.1015 -0.1005
25283SOL    HW178102   4.864   0.447   8.178 -0.2469 -1.8563 -0.5287
25283SOL    HW278103   4.757   0.385   8.090 -0.3500  0.2826 -1.9961
25284SOL     OW78104   8.933   6.617   0.755  0.4170 -0.3652  0.1678
25284SOL    HW178105   9.001   6.684   0.750 -0.1034  0.2086  0.5938
25284SOL    HW278106   8.863   6.650   0.698 -0.4898  0.2410  1.5945
25285SOL     OW78107   8.335   3.094   1.897 -0.1616 -0.3755  0.1746
25285SOL    HW178108   8.389   3.087   1.818 -0.0150 -0.0936  0.2459
25285SOL    HW278109   8.389   3.144   1.958 -0.3709 -0.3828  0.3670
25286SOL     OW78110   6.736   1.048   2.129 -0.3130 -0.0947  0.0506
25286SOL    HW178111   6.830   1.032   2.130 -0.4685 -1.1936 -0.7688
25286SOL    HW278112   6.696   0.962   2.142 -1.2268  0.4723  1.2936
25287SOL     OW78113   2.990   8.955   4.625 -0.3415 -0.1182  0.4204
25287SOL    HW178114   2.906   8.985   4.589 -0.0973  0.9451  0.6971
25287SOL    HW278115   2.996   8.864   4.597 -0.9564  0.1784 -0.7906
25288SOL     OW78116   4.372   6.994   9.464  0.3367 -0.1891  0.0581
25288SOL    HW178117   4.287   6.950   9.469  0.1122  0.3075  0.7000
25288SOL    HW278118   4.379   7.022   9.373 -1.2721  1.8781  0.5005
25289SOL     OW78119   2.490   1.742   5.166  0.7480 -0.0171 -0.3604
25289SOL    HW178120   2.433   1.676   5.126 -1.1241  0.8928  0.6966
25289SOL    HW278121   2.518   1.797   5.092 -0.2064 -0.1691 -0.8541
25290SOL     OW78122   3.259   4.852   5.544 -0.2155  0.1098  0.2303
25290SOL    HW178123   3.299   4.891   5.622 -0.8281 -0.8594  1.0445
25290SOL    HW278124   3.166   4.872   5.551 -0.3756 -0.5700  0.0972
25291SOL     OW78125   2.294   1.474  10.103 -0.3791  0.3840 -0.3282
25291SOL    HW178126   2.228   1.486  10.172 -0.4797  0.8368 -0.5025
25291SOL    HW278127   2.325   1.562  10.084 -1.6515  0.4801 -2.1451
25292SOL     OW78128   5.903   9.566   4.569 -0.0786 -0.2307 -0.0802
25292SOL    HW178129   5.993   9.535   4.562 -0.5231 -1.3587 -1.5180
25292SOL    HW278130   5.882   9.560   4.662  1.5003  0.6420  0.3651
25293SOL     OW78131   3.962   6.757  10.346  0.1065 -0.1154  0.4735
25293SOL    HW178132   3.922   6.743  10.432  0.4493  0.0441  0.6618
25293SOL    HW278133   4.050   6.721  10.355 -0.5621 -2.1245 -0.4836
25294SOL     OW78134   1.200   1.290   1.809  0.4809 -0.0261  0.0208
25294SOL    HW178135   1.218   1.200   1.837 -0.9339 -0.5569 -0.6935
25294SOL    HW278136   1.120   1.313   1.855  1.0330  1.0400  0.4926
25295SOL     OW78137   8.856   4.483   5.413 -0.1626 -0.1918  0.5440
25295SOL    HW178138   8.777   4.447   5.453  0.5558  0.4441  2.6682
25295SOL    HW278139   8.927   4.458   5.472  0.8892  1.3106 -0.0091
25296SOL     OW78140   0.782   5.371   5.723  0.3204 -0.2918 -0.2950
25296SOL    HW178141   0.722   5.327   5.662 -0.7124  0.2975  0.2718
25296SOL    HW278142   0.801   5.305   5.789  0.1456 -0.4167 -0.3687
25297SOL     OW78143   8.694   9.800   3.634 -0.0298 -0.5183  0.2167
25297SOL    HW178144   8.685   9.895   3.646  0.1352 -0.3708 -0.7633
25297SOL    HW278145   8.628   9.777   3.569  0.0915 -1.0373  0.2727
25298SOL     OW78146   4.586   9.055  10.011 -0.6689 -0.7856  0.3753
25298SOL    HW178147   4.542   9.026   9.932 -0.6386 -1.7178  0.6913
25298SOL    HW278148   4.543   9.138  10.033 -0.4883 -0.3720 -0.7535
25299SOL     OW78149   6.470   2.988   8.780  0.4910  0.2542 -0.9414
25299SOL    HW178150   6.463   2.929   8.705 -1.2357  0.6428 -1.1438
25299SOL    HW278151   6.380   3.020   8.793  1.1316  1.7786  0.0053
25300SOL     OW78152   4.694   3.360   3.603 -0.4700  0.5197  0.3631
25300SOL    HW178153   4.767   3.309   3.568  1.3190  3.1140  0.0035
25300SOL    HW278154   4.616   3.314   3.574  0.8897 -3.2201  1.9946
25301SOL     OW78155   5.929   0.739   3.643  0.0279 -0.4084  0.1379
25301SOL    HW178156   5.915   0.669   3.579  0.6143 -0.4943  0.1019
25301SOL    HW278157   5.961   0.813   3.591 -1.2414  0.1193  0.0760
25302SOL     OW78158   8.349   3.722  10.447 -0.1364 -0.4907 -0.0611
25302SOL    HW178159   8.296   3.801  10.444 -0.1268 -0.4926 -2.5810
25302SOL    HW278160   8.388   3.722  10.534 -2.5127  0.6572  1.0940
25303SOL     OW78161   2.037   2.245   3.718 -0.1289 -0.0519  0.1944
25303SOL    HW178162   1.999   2.316   3.668  0.0811 -0.2545 -0.2544
25303SOL    HW278163   1.984   2.240   3.798 -0.5085  0.2156 -0.0431
25304SOL     OW78164   6.052   9.981   2.993  0.7669 -0.0964 -0.3597
25304SOL    HW178165   6.117  10.021   3.051  0.4789  0.0464 -0.1366
25304SOL    HW278166   6.104   9.927   2.933  0.8844 -2.6433  1.8590
25305SOL     OW78167   1.702   0.595   2.816  0.0185 -0.4613  0.1378
25305SOL    HW178168   1.632   0.659   2.799 -0.9406 -1.7880 -1.1799
25305SOL    HW278169   1.658   0.522   2.858  0.5058 -1.4790 -1.0551
25306SOL     OW78170   5.313   4.487   6.480 -0.5772  0.3335  0.1772
25306SOL    HW178171   5.265   4.557   6.436  0.0893  1.0222  0.5213
25306SOL    HW278172   5.300   4.410   6.424 -1.4276  0.6952 -0.1345
25307SOL     OW78173   8.436   9.637   2.512 -0.2091 -0.6714 -0.2507
25307SOL    HW178174   8.438   9.611   2.604 -0.3367 -0.2978 -0.1416
25307SOL    HW278175   8.481   9.721   2.509 -0.6611 -0.4326 -0.4492
25308SOL     OW78176   0.477   7.255   7.757 -0.1807  0.3198  0.5632
25308SOL    HW178177   0.475   7.281   7.665 -0.4263  2.5686  1.1518
25308SOL    HW278178   0.559   7.206   7.766 -0.9856 -1.4901 -1.1944
25309SOL     OW78179   5.205   3.157  10.540  0.3771 -0.1740 -0.2179
25309SOL    HW178180   5.227   3.249  10.526  0.5219  0.2343  2.2048
25309SOL    HW278181   5.246   3.111  10.467  0.6519  1.6273 -1.2667
25310SOL     OW78182   2.298   3.816   7.263  0.9936  0.5013 -0.2796
25310SOL    HW178183   2.307   3.732   7.217 -2.5558  0.6756 -1.6029
25310SOL    HW278184   2.269   3.792   7.351 -0.6790  0.2923 -0.8588
25311SOL     OW78185   3.081   8.864   3.249 -0.6014 -0.6561  0.1330
25311SOL    HW178186   3.119   8.781   3.276 -1.1043 -1.2289 -0.8174
25311SOL    HW278187   3.134   8.892   3.174 -0.1847  0.0948  0.6980
25312SOL     OW78188   1.282   9.661   1.826 -0.5468 -0.0240 -0.1956
25312SOL    HW178189   1.253   9.750   1.805  1.8000  0.9555  0.3762
25312SOL    HW278190   1.246   9.607   1.755 -0.9429  1.5844 -1.2803
25313SOL     OW78191   9.324   5.713   5.840 -0.1690  0.0804  0.4207
25313SOL    HW178192   9.307   5.750   5.754  1.2860  0.1830  0.1574
25313SOL    HW278193   9.238   5.711   5.883 -1.2202 -1.4453 -1.5856
25314SOL     OW78194   1.661   9.136   6.542  0.5456  0.0739 -0.4142
25314SOL    HW178195   1.728   9.146   6.609 -0.5511 -0.6762  0.8408
25314SOL    HW278196   1.678   9.049   6.505 -0.1434 -0.4169  0.3972
25315SOL     OW78197   0.065   7.715   4.600 -0.4701  0.3679  0.0090
25315SOL    HW178198  -0.009   7.696   4.542 -0.9439  0.1035  0.6860
25315SOL    HW278199   0.093   7.629   4.630  1.4436  0.2588 -1.8074
25316SOL     OW78200   0.876   8.903   6.925  0.6148  0.1723 -0.0776
25316SOL    HW178201   0.839   8.982   6.883  0.2863  0.0616  0.0023
25316SOL    HW278202   0.909   8.851   6.852 -1.0628 -0.5963 -0.3386
25317SOL     OW78203   9.159   8.188   7.374  0.0751 -0.4075 -0.1690
25317SOL    HW178204   9.226   8.161   7.312  0.1030  2.1096 -1.3417
25317SOL    HW278205   9.207   8.202   7.456  0.2988 -2.2473  0.0481
25318SOL     OW78206   6.327   9.071   6.370  0.1175  0.0722 -0.0517
25318SOL    HW178207   6.306   9.024   6.289 -0.8670  1.7103 -0.8069
25318SOL    HW278208   6.383   9.143   6.342  1.2905 -0.3858  1.0262
25319SOL     OW78209   3.756   9.116   6.216 -0.3243  0.3616  0.2999
25319SOL    HW178210   3.833   9.163   6.249 -0.0585  1.2262 -1.4394
25319SOL    HW278211   3.693   9.185   6.195 -1.4989 -0.3254  1.4449
25320SOL     OW78212   7.962   3.306   2.682 -0.1765 -0.0022  0.3554
25320SOL    HW178213   7.922   3.375   2.629  0.0727  0.0790  0.2713
25320SOL    HW278214   8.033   3.272   2.627 -0.5128 -0.5557  0.2605
25321SOL     OW78215   0.032  10.463  10.633 -0.1425  0.2320  0.0320
25321SOL    HW178216   0.018  10.372  10.660 -2.0824  1.0042  1.8487
25321SOL    HW278217   0.110  10.459  10.577  0.1568 -2.4536  0.4975
25322SOL     OW78218   8.781   0.786   1.179  0.0558 -0.5643 -0.0098
25322SOL    HW178219   8.780   0.713   1.117  0.3845 -0.6018  0.0314
25322SOL    HW278220   8.806   0.862   1.126  2.4580 -0.9463  0.4587
25323SOL     OW78221   2.798   9.375   6.618 -0.2681 -0.0670  0.3634
25323SOL    HW178222   2.840   9.289   6.625  0.1161  0.1362  0.6168
25323SOL    HW278223   2.825   9.408   6.533  0.0625  0.0454  0.5084
25324SOL     OW78224   3.204   9.282   5.025 -0.0363  0.0806  0.3894
25324SOL    HW178225   3.285   9.233   5.019  0.0500  0.2088  0.5136
25324SOL    HW278226   3.145   9.239   4.963  0.8778  1.4479 -1.5311
25325SOL     OW78227   5.757   1.234   7.675 -0.2706 -0.3290 -0.8360
25325SOL    HW178228   5.709   1.291   7.734  1.0388 -0.3819  0.3311
25325SOL    HW278229   5.788   1.162   7.730 -0.2287 -1.1391 -1.8764
25326SOL     OW78230   3.145   4.613   6.722  0.5188 -0.5064 -0.1238
25326SOL    HW178231   3.103   4.588   6.639 -0.0416  1.2021 -0.4158
25326SOL    HW278232   3.200   4.688   6.698  0.8067 -0.3684  0.9536
25327SOL     OW78233   8.419   3.182   3.565  0.2492 -0.4065 -0.4791
25327SOL    HW178234   8.422   3.247   3.495 -2.6512 -0.5167 -0.7955
25327SOL    HW278235   8.337   3.135   3.552 -0.5437 -0.3173  3.0669
25328SOL     OW78236   9.401   6.898   3.822 -0.0994 -0.4103 -0.2111
25328SOL    HW178237   9.370   6.855   3.743  0.1635 -2.0714  0.5543
25328SOL    HW278238   9.339   6.871   3.890 -0.4197  1.1237  0.1460
25329SOL     OW78239   6.036   8.091  10.377 -0.6976  0.0097 -0.4207
25329SOL    HW178240   6.024   8.103  10.282  0.9214 -1.7785 -0.9048
25329SOL    HW278241   5.970   8.027  10.402 -0.5182 -0.2209 -0.5347
25330SOL     OW78242   8.707   5.327   5.593  0.2746 -0.0596 -0.1278
25330SOL    HW178243   8.702   5.322   5.688  0.2275 -1.0084 -0.1723
25330SOL    HW278244   8.775   5.264   5.569  3.6178  3.2867 -0.4447
25331SOL     OW78245   4.198   8.911   5.002  0.5867  0.2012 -0.0144
25331SOL    HW178246   4.292   8.915   4.987  0.7186 -2.2703 -0.1749
25331SOL    HW278247   4.188   8.900   5.096  0.4214  0.9064  0.0562
25332SOL     OW78248   1.993   2.610   7.330 -0.3497  0.1881 -0.4748
25332SOL    HW178249   1.901   2.634   7.338 -0.0169  1.5249 -0.5133
25332SOL    HW278250   1.997   2.553   7.253 -1.0548  0.5844 -0.8024
25333SOL     OW78251   3.017   0.167   7.407 -0.0092  0.1179  0.1313
25333SOL    HW178252   2.927   0.171   7.375 -0.6288  0.0849  1.7605
25333SOL    HW278253   3.042   0.258   7.419  0.3576  0.1439 -0.7443
25334SOL     OW78254   5.398  10.140   1.732 -0.1207 -0.6615 -0.2382
25334SOL    HW178255   5.334  10.210   1.722  0.9068  0.0911 -1.7815
25334SOL    HW278256   5.348  10.060   1.716 -1.0195 -0.2160  0.2403
25335SOL     OW78257   8.701   1.319  10.488  0.1356 -0.2731  0.1837
25335SOL    HW178258   8.749   1.370  10.424  1.8617 -1.6942  0.2724
25335SOL    HW278259   8.615   1.361  10.493  0.5927  0.9864 -1.6580
25336SOL     OW78260   9.299   7.363   4.999  0.8347 -0.0624  0.3922
25336SOL    HW178261   9.242   7.292   5.029 -0.2849  0.0410 -1.3071
25336SOL    HW278262   9.240   7.436   4.983  1.4660  0.1840 -1.0163
25337SOL     OW78263   3.219   2.008   6.880  0.0949  0.3546 -0.6911
25337SOL    HW178264   3.254   1.968   6.959 -0.6792  0.5011 -0.2617
25337SOL    HW278265   3.134   2.043   6.906 -0.1039  0.5471 -1.5463
25338SOL     OW78266  10.555   5.166   2.938  0.5251 -0.0939 -0.1915
25338SOL    HW178267  10.521   5.255   2.944  0.7383 -0.0453  0.3198
25338SOL    HW278268  10.508   5.128   2.863  1.1211  0.7311 -1.0009
25339SOL     OW78269   4.494   8.203   5.605 -0.0826 -0.6743 -0.4646
25339SOL    HW178270   4.491   8.204   5.510  0.5461 -0.7020 -0.4889
25339SOL    HW278271   4.581   8.169   5.626  1.1270  2.4215  0.1031
25340SOL     OW78272   1.388   3.216  10.437 -0.0554 -0.1486 -0.0692
25340SOL    HW178273   1.302   3.177  10.450 -0.8287  2.1081  2.7239
25340SOL    HW278274   1.376   3.278  10.365  0.2891 -2.3391 -2.1348
25341SOL     OW78275   7.703   8.249   9.234  0.1654 -0.6602 -0.9443
25341SOL    HW178276   7.775   8.312   9.224 -0.2248 -0.4530 -3.0411
25341SOL    HW278277   7.646   8.288   9.301 -0.0456  1.2781 -2.1505
25342SOL     OW78278   6.191   4.678   1.475  0.5504 -0.0921 -0.0117
25342SOL    HW178279   6.096   4.681   1.483  0.4678 -2.7420  1.1356
25342SOL    HW278280   6.207   4.661   1.383  0.1956  4.1694 -1.0441
25343SOL     OW78281   9.052   5.483   6.769 -0.3524  0.2297  0.0005
25343SOL    HW178282   9.132   5.431   6.780  0.3913  1.5710  1.3679
25343SOL    HW278283   8.988   5.422   6.734  0.5372 -1.5746  1.3737
25344SOL     OW78284   5.373   4.953   1.539 -0.1035 -0.0064  0.5826
25344SOL    HW178285   5.305   5.004   1.496 -1.5064 -2.0752  0.2249
25344SOL    HW278286   5.379   4.990   1.627 -0.9886  0.8221  0.3093
25345SOL     OW78287   2.935   9.039   1.524  0.4352  0.1733 -0.0977
25345SOL    HW178288   2.848   9.023   1.488 -0.5050  0.7834  1.7579
25345SOL    HW278289   2.947   8.969   1.589  0.5415  1.0941  0.9114
25346SOL     OW78290   4.811   2.910   9.226 -0.2940  0.6610  0.9376
25346SOL    HW178291   4.798   2.933   9.318  0.6074  0.5733  1.0948
25346SOL    HW278292   4.904   2.890   9.219 -0.1652  1.5546 -0.1956
25347SOL     OW78293   1.268   1.838   0.278 -0.0256  0.0051 -0.4644
25347SOL    HW178294   1.181   1.807   0.249  0.5585 -1.2050 -0.9958
25347SOL    HW278295   1.318   1.847   0.197  0.5190  0.1713 -0.1119
25348SOL     OW78296   6.385   3.757   1.007  0.5300 -0.7132  0.2573
25348SOL    HW178297   6.415   3.776   1.096 -0.5404 -1.1331  0.7330
25348SOL    HW278298   6.300   3.715   1.019 -0.9595  1.6612 -1.0264
25349SOL     OW78299   4.303   3.424   0.268  0.0191  0.6988 -0.2602
25349SOL    HW178300   4.345   3.411   0.353 -1.7090  2.5933  0.9973
25349SOL    HW278301   4.354   3.493   0.226  0.1364  0.6533 -0.1919
25350SOL     OW78302   1.809   7.963   5.775 -0.1508 -0.9946  0.1083
25350SOL    HW178303   1.875   7.954   5.843 -1.5681 -2.0505  1.4120
25350SOL    HW278304   1.725   7.960   5.821 -1.1683  1.8067 -1.3118
25351SOL     OW78305   6.391   2.401   5.900  0.4713 -0.1365 -0.7666
25351SOL    HW178306   6.367   2.313   5.872  0.2447 -0.1582 -0.5121
25351SOL    HW278307   6.485   2.397   5.914  0.3110 -0.6275  0.2422
25352SOL     OW78308   4.013   9.215   5.915  0.3078 -0.1096  0.0484
25352SOL    HW178309   4.074   9.283   5.888 -1.1209  1.5092  0.7029
25352SOL    HW278310   3.932   9.235   5.868 -0.0933 -1.4568  0.1317
25353SOL     OW78311   0.141   0.848   1.320  0.3768  0.1998  0.1459
25353SOL    HW178312   0.221   0.796   1.316  1.3650  1.6303  0.6951
25353SOL    HW278313   0.072   0.785   1.342  1.5121 -0.8875  0.6590
25354SOL     OW78314   0.405   4.475   6.245 -0.2610  0.3857  0.1467
25354SOL    HW178315   0.444   4.540   6.188 -2.8649  0.3990 -1.8438
25354SOL    HW278316   0.442   4.392   6.215 -0.9822  0.4772 -1.0971
25355SOL     OW78317   0.516   0.615   2.111  0.2862 -0.4057  0.2309
25355SOL    HW178318   0.431   0.625   2.068  0.8968  1.1676 -0.7056
25355SOL    HW278319   0.514   0.679   2.183  1.2228  0.7796 -0.7587
25356SOL     OW78320   1.793   7.153   9.114  0.1485  0.1534 -0.8036
25356SOL    HW178321   1.873   7.142   9.165  0.6233 -0.2465 -1.6073
25356SOL    HW278322   1.723   7.120   9.170  0.6960 -0.5364 -0.5155
25357SOL     OW78323   0.980   8.949   3.735  0.4501  0.2559 -0.0234
25357SOL    HW178324   0.972   8.973   3.643 -0.0602 -0.3876 -0.1585
25357SOL    HW278325   0.903   8.988   3.777  1.2253  1.4390  0.3428
25358SOL     OW78326   6.284   3.099   7.686 -0.1551 -0.1185  0.2790
25358SOL    HW178327   6.378   3.089   7.695 -0.3379 -0.5884  2.0060
25358SOL    HW278328   6.273   3.167   7.620  1.4010  0.5350  0.6585
25359SOL     OW78329   4.248   3.835   6.215 -0.4618 -0.3667  0.2720
25359SOL    HW178330   4.203   3.918   6.230  0.4525 -0.1820  2.2935
25359SOL    HW278331   4.337   3.849   6.249 -0.3841 -2.2411  0.9641
25360SOL     OW78332   5.766   7.336   4.457 -0.3886 -0.3158  0.5845
25360SOL    HW178333   5.721   7.365   4.378  0.9975  0.2330 -0.0257
25360SOL    HW278334   5.770   7.414   4.513  0.9672  0.0004  0.0710
25361SOL     OW78335   9.354   7.078   8.615 -0.3571 -0.4266 -0.1459
25361SOL    HW178336   9.336   7.143   8.682  0.6173  1.0626 -1.2779
25361SOL    HW278337   9.295   7.100   8.544  0.3588 -0.4129 -0.7526
25362SOL     OW78338   0.396   6.385   5.135 -0.3682 -0.6536 -0.5857
25362SOL    HW178339   0.339   6.413   5.207  0.1817  2.1864 -1.1272
25362SOL    HW278340   0.483   6.414   5.162 -0.1004  0.1432 -2.1997
25363SOL     OW78341   9.620   9.387   0.258  0.1169 -0.1877 -0.0480
25363SOL    HW178342   9.636   9.364   0.167  2.7713  0.9060  0.0632
25363SOL    HW278343   9.629   9.304   0.305  1.2421 -0.3710 -0.5464
25364SOL     OW78344   4.591   9.570   1.744 -0.2341 -0.3418  0.3233
25364SOL    HW178345   4.634   9.593   1.661  0.1418 -0.4875  0.4735
25364SOL    HW278346   4.647   9.502   1.781 -0.2698 -0.1059  0.8128
25365SOL     OW78347   2.562   6.196   1.055 -0.5316  0.2294  0.0500
25365SOL    HW178348   2.610   6.170   0.976  3.0470 -2.7290  2.8278
25365SOL    HW278349   2.591   6.286   1.072 -0.5997  0.5572 -1.4473
25366SOL     OW78350   3.885   0.966   4.384  0.1917  0.1881 -0.5880
25366SOL    HW178351   3.907   1.029   4.452  1.4452  0.0645 -0.8563
25366SOL    HW278352   3.850   1.018   4.312  2.1792  0.7340 -1.2169
25367SOL     OW78353   8.628   6.864   6.427  0.6117  0.0026  0.0733
25367SOL    HW178354   8.567   6.798   6.394  0.5423  0.8117 -1.4868
25367SOL    HW278355   8.642   6.839   6.518  1.8202 -3.0987 -0.8429
25368SOL     OW78356   5.590   6.029   5.210 -0.3242  0.2507 -0.3540
25368SOL    HW178357   5.588   6.022   5.114 -2.9078  0.3833 -0.3885
25368SOL    HW278358   5.626   5.945   5.239 -1.1591 -0.5292 -1.4494
25369SOL     OW78359  10.559   4.776   8.212 -0.0054  0.0146 -0.5769
25369SOL    HW178360  10.649   4.807   8.213  0.8712 -2.3506  1.0003
25369SOL    HW278361  10.564   4.688   8.173 -1.7604  0.1103 -1.1299
25370SOL     OW78362   9.594   3.119  10.398 -0.2741  0.4590 -0.2022
25370SOL    HW178363   9.641   3.038  10.420 -0.0908  0.0548 -1.9857
25370SOL    HW278364   9.663   3.185  10.390 -0.4503  0.9227  1.5860
25371SOL     OW78365   6.343   5.146   0.010  0.6804 -0.0085  0.7682
25371SOL    HW178366   6.295   5.069  -0.021 -1.0765  1.0090  0.7798
25371SOL    HW278367   6.381   5.184  -0.069  0.5560 -0.2595  0.5854
25372SOL     OW78368   3.603   6.061   7.469  0.1670  0.1653 -0.1471
25372SOL    HW178369   3.678   6.108   7.505  1.3369 -2.2280  0.7554
25372SOL    HW278370   3.627   6.044   7.378 -0.4035  1.5137 -0.5725
25373SOL     OW78371  10.073   5.094   5.957  0.4750 -0.0457 -0.2985
25373SOL    HW178372  10.104   5.183   5.977  1.3204 -0.4257  0.1267
25373SOL    HW278373  10.144   5.037   5.985  0.1330 -0.8396 -0.9967
25374SOL     OW78374   5.159   6.061   7.618  0.7928 -0.0192 -0.2516
25374SOL    HW178375   5.145   6.142   7.569  0.8422 -0.4699 -1.0203
25374SOL    HW278376   5.224   6.084   7.684  1.0865  0.4719 -0.7015
25375SOL     OW78377   4.577   6.779   2.675  0.6486  0.7071  0.3321
25375SOL    HW178378   4.564   6.830   2.755  2.5023  3.4776 -0.9660
25375SOL    HW278379   4.649   6.719   2.696  0.7878  1.0646  0.8944
25376SOL     OW78380   3.918   1.370   5.330 -0.0381  0.5750 -0.2470
25376SOL    HW178381   3.848   1.407   5.384  2.0406  0.8502  2.4292
25376SOL    HW278382   3.968   1.315   5.390  1.4056 -0.5326 -2.3482
25377SOL     OW78383   1.350   7.047   9.090 -0.3314 -0.1135  0.1715
25377SOL    HW178384   1.393   7.024   9.172  0.2915  1.0892  0.2131
25377SOL    HW278385   1.384   6.985   9.026  0.1757 -0.2364  0.5589
25378SOL     OW78386   9.985   4.787   4.042 -0.0449  0.1496  0.0267
25378SOL    HW178387   9.972   4.747   3.956 -0.9348 -0.5473  0.4612
25378SOL    HW278388   9.971   4.880   4.028 -2.1244 -0.1437 -0.2656
25379SOL     OW78389   4.268   0.887   5.811  0.4254 -0.1392  0.1518
25379SOL    HW178390   4.336   0.850   5.754 -0.5480 -0.7289 -0.6783
25379SOL    HW278391   4.264   0.827   5.885  1.5477  0.5054  0.7544
25380SOL     OW78392   8.284   2.682   0.731 -0.3940  0.5606 -0.1455
25380SOL    HW178393   8.303   2.735   0.809 -1.8032  1.9112 -0.6661
25380SOL    HW278394   8.246   2.602   0.766 -0.8206  1.0667  0.5851
25381SOL     OW78395   4.043   7.146   5.711  0.4061 -0.2741  0.1018
25381SOL    HW178396   4.134   7.171   5.699  0.2277 -0.0652 -0.8878
25381SOL    HW278397   4.046   7.053   5.734  0.8889 -0.1421  0.5993
25382SOL     OW78398  10.488   1.221   9.710  0.0615  0.4306 -0.1836
25382SOL    HW178399  10.418   1.188   9.767  0.1998  1.2812  0.4940
25382SOL    HW278400  10.448   1.224   9.623 -0.1492 -0.8905 -0.1638
25383SOL     OW78401   7.699   5.031   8.481 -0.2909  0.5958  0.3392
25383SOL    HW178402   7.724   5.120   8.457 -1.2823  0.7901  0.0050
25383SOL    HW278403   7.750   5.013   8.561 -1.3297  2.0934  1.3952
25384SOL     OW78404   2.001   8.719   6.942 -0.4774  0.1195  0.4479
25384SOL    HW178405   1.996   8.658   6.868 -0.2572  0.9031 -0.2206
25384SOL    HW278406   1.921   8.771   6.934  0.2777  1.2145 -0.1397
25385SOL     OW78407   1.512   9.921  10.067  0.1705  0.4513  0.0690
25385SOL    HW178408   1.604   9.902  10.047  0.0697 -0.2275  0.2376
25385SOL    HW278409   1.462   9.864  10.009 -0.1486  0.7732  0.0222
25386SOL     OW78410   6.464   9.718   7.361 -0.3465 -0.5047  0.3283
25386SOL    HW178411   6.434   9.735   7.271  2.2420 -1.8433 -0.9256
25386SOL    HW278412   6.389   9.679   7.405 -1.6615  0.0568 -1.2985
25387SOL     OW78413   9.523   6.566   7.651  0.5591  0.3507  0.4641
25387SOL    HW178414   9.476   6.643   7.683  0.6788 -0.3387  2.4409
25387SOL    HW278415   9.612   6.576   7.684  0.5850 -0.5918  0.7279
25388SOL     OW78416   6.994   5.511   3.878  0.5895  0.3886  0.0999
25388SOL    HW178417   7.080   5.486   3.910  0.6100  0.1365 -0.1570
25388SOL    HW278418   6.989   5.606   3.894  0.5456  0.2442  0.9874
25389SOL     OW78419   4.810   3.671   5.612 -0.3917 -0.0181 -0.1291
25389SOL    HW178420   4.894   3.673   5.658 -0.8063 -2.0156  0.7983
25389SOL    HW278421   4.834   3.660   5.520  0.3784  0.3940  0.0122
25390SOL     OW78422   6.436   7.910   0.372  0.1778  0.1394 -0.3903
25390SOL    HW178423   6.433   8.005   0.368  0.8758  0.3657  2.6472
25390SOL    HW278424   6.529   7.888   0.365  0.1950 -0.1662  0.6178
25391SOL     OW78425   7.918   7.738   3.091 -0.0986 -0.1647  0.8707
25391SOL    HW178426   7.973   7.800   3.139  0.6925 -0.6497  0.6267
25391SOL    HW278427   7.897   7.670   3.155  1.0236 -0.8528  0.5431
25392SOL     OW78428   0.313  10.123   5.052  0.2960  0.5200 -0.0023
25392SOL    HW178429   0.295  10.210   5.017 -0.0056  0.6822  0.5461
25392SOL    HW278430   0.399  10.131   5.094 -0.2681  0.8768  1.1008
25393SOL     OW78431   1.333   3.059   2.962 -0.9996  0.1002  0.0194
25393SOL    HW178432   1.269   3.029   3.027 -1.3730  1.9029  0.5409
25393SOL    HW278433   1.415   3.017   2.989 -1.3610  0.0459  1.0909
25394SOL     OW78434   0.562   7.705   3.372 -0.5379  0.0662 -0.1705
25394SOL    HW178435   0.594   7.616   3.385  3.3284  1.3885  0.9309
25394SOL    HW278436   0.615   7.738   3.298 -0.8186  1.8519  0.3886
25395SOL     OW78437   1.410   4.312   1.391 -0.5160  0.2752 -0.2495
25395SOL    HW178438   1.409   4.229   1.440  1.4018 -0.2479 -0.9966
25395SOL    HW278439   1.341   4.364   1.431 -2.5057 -2.0347 -0.3923
25396SOL     OW78440   9.704   0.251   9.833  0.0008 -0.3327 -0.5450
25396SOL    HW178441   9.679   0.197   9.907  0.4385 -1.7311 -1.3815
25396SOL    HW278442   9.755   0.193   9.776 -1.1654  0.3922 -2.4327
25397SOL     OW78443   6.987   2.680   1.028  0.4332  0.1251  0.1373
25397SOL    HW178444   6.919   2.720   1.083  1.6585  2.2909  0.2135
25397SOL    HW278445   7.044   2.635   1.090  0.2914  0.2188  0.3385
25398SOL     OW78446  10.622   4.071   5.821 -0.1361  0.0887  0.1713
25398SOL    HW178447  10.701   4.082   5.767 -0.4282 -1.1832 -0.5536
25398SOL    HW278448  10.627   3.981   5.852 -1.7082 -0.2745 -0.5410
25399SOL     OW78449   5.282  10.392   4.241  1.1904 -0.3098 -0.3761
25399SOL    HW178450   5.200  10.353   4.212 -1.4036  2.3732  2.4740
25399SOL    HW278451   5.322  10.326   4.298  0.6288 -1.3554 -1.1726
25400SOL     OW78452   9.913   0.576   8.741  0.1751  0.0506 -0.1829
25400SOL    HW178453   9.899   0.598   8.833  1.1183  0.4947 -0.1265
25400SOL    HW278454   9.932   0.482   8.741 -3.4106 -0.8275 -0.3678
25401SOL     OW78455   2.147   2.810   4.728 -0.0142 -0.3647  0.6780
25401SOL    HW178456   2.193   2.758   4.663 -1.5713 -1.1974  0.2186
25401SOL    HW278457   2.208   2.815   4.802  0.3833 -2.3777  0.5213
25402SOL     OW78458   9.206   7.525   2.693  0.2338  0.1977  0.2510
25402SOL    HW178459   9.179   7.551   2.781 -0.7779 -0.8728  0.2857
25402SOL    HW278460   9.260   7.597   2.662 -0.8886  1.4393  1.0512
25403SOL     OW78461   1.789   8.116   0.133  0.3392 -0.1241  0.4089
25403SOL    HW178462   1.766   8.095   0.224 -1.0244 -0.4721  0.0040
25403SOL    HW278463   1.753   8.203   0.119  1.3974  0.3407  0.4785
25404SOL     OW78464   2.605   1.180   1.602 -0.1875  0.6556  0.5348
25404SOL    HW178465   2.537   1.146   1.661 -0.0359  0.9954  0.9114
25404SOL    HW278466   2.664   1.229   1.659  1.3314 -1.0237  0.4943
25405SOL     OW78467   3.734  10.610   5.699  0.0352 -0.3319 -0.1089
25405SOL    HW178468   3.696  10.523   5.713  0.9097 -0.3555  2.6651
25405SOL    HW278469   3.826  10.592   5.678  0.5618 -0.1224  1.8166
25406SOL     OW78470   5.491   8.531   2.581 -0.0699  0.4721  0.2176
25406SOL    HW178471   5.570   8.542   2.633  0.4618 -0.7391 -0.2932
25406SOL    HW278472   5.477   8.436   2.577 -2.9341  0.6710  2.2797
25407SOL     OW78473  10.345   5.083   8.872  0.5761 -0.3985  0.3785
25407SOL    HW178474  10.348   5.130   8.789  1.1415 -1.2887 -0.1229
25407SOL    HW278475  10.401   5.134   8.931  0.4202  0.0671  0.1217
25408SOL     OW78476   3.684   0.320   6.808  0.6277 -0.0104  0.0126
25408SOL    HW178477   3.712   0.235   6.776 -0.1065  0.3489 -1.7454
25408SOL    HW278478   3.738   0.383   6.759 -0.2304  0.5659 -0.2134
25409SOL     OW78479   1.044   1.179   4.903  0.2718  0.3022  0.4336
25409SOL    HW178480   1.006   1.192   4.990 -0.7574  1.1890 -0.1244
25409SOL    HW278481   1.046   1.084   4.892  0.1404  0.1861  1.2941
25410SOL     OW78482   7.290   3.931  10.078  0.2521 -0.3391  0.0878
25410SOL    HW178483   7.353   3.867  10.112 -1.0796 -2.0185 -0.4548
25410SOL    HW278484   7.212   3.879  10.056 -1.3104  1.6337  0.6346
25411SOL     OW78485   4.367   3.029   0.807  0.0823 -0.4512  0.1726
25411SOL    HW178486   4.328   2.951   0.769 -1.6104 -0.3575  1.5969
25411SOL    HW278487   4.396   3.080   0.732 -1.4020 -1.1391 -0.9129
25412SOL     OW78488   7.670   8.417   6.784 -0.2984  0.3938  0.3507
25412SOL    HW178489   7.587   8.400   6.740 -0.0114  1.5040 -0.6737
25412SOL    HW278490   7.736   8.409   6.715  0.8014 -2.7807  1.5433
25413SOL     OW78491   3.237   0.053  10.621  0.6325 -0.1632 -0.4274
25413SOL    HW178492   3.158   0.047  10.673 -0.4856  1.0513 -1.8818
25413SOL    HW278493   3.275   0.138  10.645  1.7084 -0.8809  0.5068
25414SOL     OW78494  10.150   2.040   2.503 -0.6253  0.5042  0.0512
25414SOL    HW178495  10.089   1.970   2.523 -0.0607  0.4415  1.6923
25414SOL    HW278496  10.236   1.997   2.502 -0.4806  0.7871 -1.1441
25415SOL     OW78497   1.863   4.098   8.816  0.4455  0.1973  0.2817
25415SOL    HW178498   1.905   4.034   8.874  1.4291  1.1172  0.6192
25415SOL    HW278499   1.926   4.170   8.811 -0.8252  1.3384  0.2492
25416SOL     OW78500   2.012   8.096   3.524 -0.2298 -0.4247  0.6526
25416SOL    HW178501   1.956   8.156   3.573 -0.3876 -0.5120  0.5806
25416SOL    HW278502   2.028   8.141   3.441 -2.1881 -1.4139 -0.3319
25417SOL     OW78503   8.769   4.813   1.558  0.8552 -0.0948  0.4384
25417SOL    HW178504   8.848   4.791   1.509  0.7928 -0.4853  0.5079
25417SOL    HW278505   8.712   4.854   1.492  1.2909  0.6153  0.4973
25418SOL     OW78506   0.286   6.950  10.151  0.1936 -0.0233 -0.0993
25418SOL    HW178507   0.365   6.967  10.100  0.5278 -0.8703  0.1224
25418SOL    HW278508   0.274   7.030  10.202  1.1496 -0.0411  0.1816
25419SOL     OW78509   8.860   6.836   4.860  0.1717  0.1512  0.3799
25419SOL    HW178510   8.941   6.814   4.906  0.0455  2.0869  1.6447
25419SOL    HW278511   8.860   6.931   4.855 -2.3393  0.2578  1.0566
25420SOL     OW78512  10.020   0.695  10.209  0.1696 -0.0188  0.2090
25420SOL    HW178513   9.958   0.630  10.241  0.7515 -0.1938  1.0409
25420SOL    HW278514   9.971   0.777  10.209  0.0187 -0.0900  1.1863
25421SOL     OW78515   2.957   8.747   4.143 -0.4871  0.1084  0.2301
25421SOL    HW178516   2.924   8.828   4.180  0.0337  0.2835  0.3179
25421SOL    HW278517   2.931   8.750   4.051 -0.2799  0.4780  0.1815
25422SOL     OW78518   7.249   4.139   4.967  0.3721  0.1612 -0.3304
25422SOL    HW178519   7.215   4.211   5.020 -2.3834  2.0671 -4.2145
25422SOL    HW278520   7.330   4.174   4.928  1.9753 -0.9655  1.7541
25423SOL     OW78521   1.108   3.675   9.955  0.1313  0.3128  0.1595
25423SOL    HW178522   1.189   3.713   9.989  0.4826  0.5562 -0.8938
25423SOL    HW278523   1.045   3.684  10.026  1.3782 -1.1486  1.4991
25424SOL     OW78524  10.523   0.877   3.394  0.4122  0.3611  0.2426
25424SOL    HW178525  10.512   0.782   3.388  0.8524  0.2807  0.7420
25424SOL    HW278526  10.613   0.893   3.367  0.3212  0.6486  0.1021
25425SOL     OW78527   2.299   6.272   4.020 -0.2823 -0.1514  0.0825
25425SOL    HW178528   2.331   6.221   3.946 -1.1229 -0.6333  0.0315
25425SOL    HW278529   2.269   6.354   3.982  2.2427  0.9532  0.3252
25426SOL     OW78530   8.338   8.100   8.096  0.7232  0.1208  0.3043
25426SOL    HW178531   8.318   8.018   8.051 -2.2894  0.9138 -0.0651
25426SOL    HW278532   8.343   8.077   8.188  1.6227 -0.7013  0.0680
25427SOL     OW78533   2.202   1.934   9.246 -0.3450 -0.1699 -0.4643
25427SOL    HW178534   2.211   1.923   9.340 -0.7460  1.6680 -0.1746
25427SOL    HW278535   2.110   1.959   9.233 -0.3811 -0.7096 -1.3846
25428SOL     OW78536   4.330  10.397   6.658  0.0693 -0.5902 -0.1061
25428SOL    HW178537   4.302  10.358   6.741 -0.4444 -0.3143 -0.1447
25428SOL    HW278538   4.262  10.371   6.596  1.1562 -1.9960 -0.7835
25429SOL     OW78539   5.105   2.922   6.321  0.1680  0.0930  0.3157
25429SOL    HW178540   5.029   2.922   6.379  0.3332 -0.9068  0.5523
25429SOL    HW278541   5.122   3.015   6.304 -1.3125  0.3213 -0.0463
25430SOL     OW78542   2.356   5.472  10.339  0.0568 -0.2919  0.6712
25430SOL    HW178543   2.436   5.421  10.329 -0.1236 -0.5290  0.4088
25430SOL    HW278544   2.356   5.531  10.264  0.4005  0.2880  1.1198
25431SOL     OW78545   0.347  10.505   0.369 -0.3744 -0.2869  0.7389
25431SOL    HW178546   0.264  10.467   0.342 -1.4858  1.4339  1.5867
25431SOL    HW278547   0.346  10.500   0.464  0.8318 -0.8643  0.7460
25432SOL     OW78548   4.134   2.494   3.365  0.2053 -0.5203 -0.1225
25432SOL    HW178549   4.209   2.435   3.367 -0.9362 -2.0269  0.4854
25432SOL    HW278550   4.063   2.441   3.329 -0.8932  0.4443  0.5631
25433SOL     OW78551  10.070   9.451   1.249 -0.1568 -0.1187 -0.5093
25433SOL    HW178552  10.086   9.542   1.276  0.8567 -0.5601  0.4422
25433SOL    HW278553  10.045   9.407   1.330 -4.0448 -0.0309 -1.4478
25434SOL     OW78554   6.427   4.375   1.845 -0.6421 -0.8272 -0.0883
25434SOL    HW178555   6.345   4.371   1.794 -1.3811  1.3237  0.7884
25434SOL    HW278556   6.407   4.328   1.925 -0.5909 -1.3808 -0.3964
25435SOL     OW78557   5.221   2.237  10.367 -0.4285 -0.7869  0.3223
25435SOL    HW178558   5.217   2.298  10.441  1.0913 -0.5137  0.2133
25435SOL    HW278559   5.130   2.226  10.340 -0.7988  0.9153  0.7738
25436SOL     OW78560   7.848   6.762   7.818  0.2095 -0.2453 -0.2956
25436SOL    HW178561   7.874   6.750   7.910 -1.3683 -1.1213  0.0812
25436SOL    HW278562   7.822   6.854   7.813 -0.9279 -0.4915  0.5127
25437SOL     OW78563   4.416   9.729   6.765  0.0558 -0.2795 -0.5289
25437SOL    HW178564   4.435   9.821   6.746 -0.9668 -0.1575 -1.0354
25437SOL    HW278565   4.361   9.732   6.843  0.0898 -0.4565 -0.4986
25438SOL     OW78566   7.016   4.931   4.717 -0.2815 -0.1576  0.2025
25438SOL    HW178567   7.104   4.932   4.678 -0.6998  0.3604 -0.7721
25438SOL    HW278568   6.967   4.995   4.666 -1.9463 -2.2325 -0.9682
25439SOL     OW78569   3.453   0.975   7.729  0.6669  0.3190 -0.2118
25439SOL    HW178570   3.422   0.956   7.817 -1.0375  0.3638 -0.7784
25439SOL    HW278571   3.498   0.895   7.701  0.9281  0.1891  0.5525
25440SOL     OW78572   5.785   3.498  10.138  0.0676 -0.6947 -0.0856
25440SOL    HW178573   5.774   3.414  10.184 -0.5409 -0.4130  0.3026
25440SOL    HW278574   5.823   3.474  10.054 -5.0104 -2.1330 -2.3818
25441SOL     OW78575   1.041   6.337   2.680 -0.7198 -0.3698  0.3940
25441SOL    HW178576   0.966   6.391   2.658  0.1694 -0.2616 -2.8240
25441SOL    HW278577   1.117   6.391   2.658  0.3384 -0.8912  2.4848
25442SOL     OW78578   3.223   4.954   9.178  0.1557 -0.0994  0.4782
25442SOL    HW178579   3.287   4.972   9.247 -0.6347 -2.9315  2.0923
25442SOL    HW278580   3.139   4.948   9.223 -0.5580 -1.0270 -0.8994
25443SOL     OW78581  10.038   6.477   6.391 -0.0964 -0.6233 -0.7317
25443SOL    HW178582  10.029   6.382   6.403  0.5116 -0.6766 -0.6622
25443SOL    HW278583  10.006   6.515   6.472 -0.7424 -0.7455 -0.9226
25444SOL     OW78584   6.225   7.256   1.955 -0.0829 -0.4655 -0.3406
25444SOL    HW178585   6.202   7.286   1.867  0.3251 -1.8405 -0.9518
25444SOL    HW278586   6.320   7.266   1.959 -0.2946  1.7008  0.8064
25445SOL     OW78587   6.688   0.615   0.847  0.2860  0.1978 -0.3516
25445SOL    HW178588   6.688   0.657   0.934  1.2090  0.0221 -0.2568
25445SOL    HW278589   6.652   0.528   0.863  1.6689 -0.3187  0.1209
25446SOL     OW78590   5.646   0.629   7.324 -0.1512 -0.3411  0.4525
25446SOL    HW178591   5.606   0.621   7.237  0.9936  0.8209 -0.2241
25446SOL    HW278592   5.739   0.608   7.310  0.2279  0.7293  1.1862
25447SOL     OW78593   4.543   5.937   6.033  0.3669  0.7752 -0.3186
25447SOL    HW178594   4.627   5.894   6.018 -0.0736 -0.1431 -0.2258
25447SOL    HW278595   4.561   6.000   6.104  1.0802  0.9363 -0.6293
25448SOL     OW78596   5.125   2.426   9.731  0.0867  0.2848  0.0155
25448SOL    HW178597   5.124   2.427   9.635 -0.1265 -0.3504  0.0089
25448SOL    HW278598   5.117   2.518   9.756  0.6353  0.5070 -0.5805
25449SOL     OW78599   9.272   4.180   8.311 -0.2715  0.4081  0.1226
25449SOL    HW178600   9.317   4.195   8.228 -0.5512  1.6011  0.1703
25449SOL    HW278601   9.324   4.112   8.354  1.9507  2.1969  0.4685
25450SOL     OW78602   5.249   1.741   6.287 -0.3172  0.5597 -0.0405
25450SOL    HW178603   5.177   1.798   6.261  0.3002  0.1975 -2.8132
25450SOL    HW278604   5.205   1.665   6.326 -1.3296  1.1440  0.0053
25451SOL     OW78605   7.477   9.060   5.368  0.2898 -0.1142 -0.1625
25451SOL    HW178606   7.486   9.059   5.272  2.1212  2.2247 -0.1074
25451SOL    HW278607   7.469   9.153   5.390  0.9510 -0.5361  2.0409
25452SOL     OW78608   3.980   3.133   5.160  0.7004  0.3316  0.0820
25452SOL    HW178609   4.012   3.055   5.205 -1.1492  0.4027  1.6698
25452SOL    HW278610   4.032   3.205   5.195  0.8816  0.0868  0.3160
25453SOL     OW78611   1.099  10.512   5.228 -0.0571 -0.2294  0.0809
25453SOL    HW178612   1.154  10.562   5.288 -1.4020  1.9379 -0.3315
25453SOL    HW278613   1.017  10.499   5.277  0.3945 -2.4453  0.3076
25454SOL     OW78614   1.941   4.712   7.240 -0.5497  0.3593 -0.5297
25454SOL    HW178615   1.869   4.687   7.298  0.2911 -0.4520  0.2161
25454SOL    HW278616   1.939   4.808   7.239 -0.7883  0.3795  0.5986
25455SOL     OW78617   1.648  10.254   5.917  0.8309  0.2821 -0.5107
25455SOL    HW178618   1.715  10.296   5.863  0.6776  0.7528 -0.3359
25455SOL    HW278619   1.645  10.306   5.997  0.2976  0.2264 -0.4938
25456SOL     OW78620   2.591   4.846   7.192  0.1799 -0.1818 -0.5679
25456SOL    HW178621   2.686   4.848   7.185  0.1979  2.7996 -0.7796
25456SOL    HW278622   2.562   4.920   7.139 -2.0877  0.5335  1.4841
25457SOL     OW78623   6.777   4.898  10.388 -0.0204  0.1766  0.0467
25457SOL    HW178624   6.826   4.980  10.388 -1.9674  1.4182  0.7838
25457SOL    HW278625   6.711   4.910  10.457 -1.2021 -1.4737 -0.7366
25458SOL     OW78626   2.779   1.911   2.468 -0.3610 -0.8343  0.1860
25458SOL    HW178627   2.853   1.972   2.474 -0.1023 -0.8326 -1.9857
25458SOL    HW278628   2.802   1.840   2.527  2.0290 -1.3993 -1.2464
25459SOL     OW78629   7.324   6.348   8.091 -0.2043 -0.0349 -0.1746
25459SOL    HW178630   7.407   6.390   8.069  0.0637 -1.0882 -1.2959
25459SOL    HW278631   7.270   6.418   8.127  1.2567  0.6205  0.8423
25460SOL     OW78632   6.697  10.306   9.281 -0.8071  0.3300 -0.4462
25460SOL    HW178633   6.665  10.377   9.336  0.6828 -0.0984  1.0436
25460SOL    HW278634   6.744  10.350   9.209  1.5914  0.9341  1.3688
25461SOL     OW78635   6.727   9.491   1.957 -0.0950  0.5377  0.4949
25461SOL    HW178636   6.636   9.519   1.959 -0.2480  0.2934 -1.5508
25461SOL    HW278637   6.731   9.417   2.018 -0.7944  1.7436  2.0740
25462SOL     OW78638   7.711   7.103   9.949 -0.2728 -0.1954  0.7034
25462SOL    HW178639   7.657   7.145   9.883 -0.0405 -1.8411 -0.6324
25462SOL    HW278640   7.681   7.138  10.032 -3.3607 -0.9761  0.0334
25463SOL     OW78641   1.712   5.515   8.888  0.0555 -0.1351  0.4791
25463SOL    HW178642   1.655   5.558   8.953  0.0205  1.0002 -0.2781
25463SOL    HW278643   1.653   5.456   8.840 -0.3521  0.5012  0.1742
25464SOL     OW78644   8.645   4.090   2.819  0.0490 -0.0065  0.2926
25464SOL    HW178645   8.725   4.103   2.769  0.4960 -0.8179  0.7830
25464SOL    HW278646   8.575   4.092   2.753  0.7371 -2.4969 -0.6242
25465SOL     OW78647   0.953   2.590   0.063 -0.1521 -0.2725  0.4191
25465SOL    HW178648   0.974   2.609   0.154 -0.3612 -2.4120  0.9864
25465SOL    HW278649   1.009   2.515   0.041 -1.3827 -0.9448 -0.5963
25466SOL     OW78650  10.090   5.309   1.662 -0.1268  0.3085  0.3652
25466SOL    HW178651  10.003   5.340   1.687 -0.4629 -0.5971  0.3525
25466SOL    HW278652  10.114   5.247   1.731  1.4753  2.1601  1.5812
25467SOL     OW78653  10.098   8.029   8.766  0.0907 -0.7672 -0.0323
25467SOL    HW178654  10.120   8.116   8.734 -0.9266 -1.1020 -1.8212
25467SOL    HW278655  10.071   8.042   8.857 -0.7354  0.9022 -0.4805
25468SOL     OW78656   5.906  10.559  10.032  0.2684 -0.3114  0.3047
25468SOL    HW178657   5.837  10.604  10.082  0.5007  0.6989 -0.2519
25468SOL    HW278658   5.944  10.628   9.978  1.8991 -0.8048  0.7843
25469SOL     OW78659   9.583   1.475   2.165 -0.2636 -0.3281 -0.4950
25469SOL    HW178660   9.571   1.538   2.094  0.5249  0.0212 -0.3322
25469SOL    HW278661   9.527   1.401   2.141 -1.3509  0.5054 -0.5869
25470SOL     OW78662   8.558   2.184   0.403 -0.3248  0.4062 -0.2964
25470SOL    HW178663   8.504   2.122   0.353  0.1033 -0.5141  0.3455
25470SOL    HW278664   8.612   2.128   0.460  1.1531  1.2975 -0.7650
25471SOL     OW78665   6.779   2.605   5.949  0.3999  0.4674 -0.4123
25471SOL    HW178666   6.731   2.679   5.986 -0.2051  0.0077 -0.2529
25471SOL    HW278667   6.864   2.607   5.992  0.1398  0.6578  0.0944
25472SOL     OW78668   7.144   0.451   1.820 -0.1161  0.1302 -0.7349
25472SOL    HW178669   7.222   0.395   1.825 -0.2230  0.0263 -0.2203
25472SOL    HW278670   7.164   0.514   1.751  0.3224 -0.0549 -0.7784
25473SOL     OW78671   7.545   7.069   3.290  0.3213 -0.3746 -0.4298
25473SOL    HW178672   7.591   7.035   3.367  0.8363 -0.4295 -0.7514
25473SOL    HW278673   7.453   7.052   3.307  0.3603  0.2470  0.4949
25474SOL     OW78674   5.715   0.866   5.271 -0.7807  0.2702 -0.8146
25474SOL    HW178675   5.657   0.887   5.344 -0.5599 -3.4440  0.6494
25474SOL    HW278676   5.663   0.809   5.215  0.8606 -1.9414 -0.2246
25475SOL     OW78677   9.009   7.821   6.608 -0.2331 -0.1654  0.2706
25475SOL    HW178678   8.923   7.859   6.619  0.4378  1.4907  0.1083
25475SOL    HW278679   9.069   7.886   6.645  0.9014 -1.6442  1.1308
25476SOL     OW78680   7.506   1.338   3.865 -0.3346  0.0730 -0.3445
25476SOL    HW178681   7.562   1.388   3.925 -0.2862  0.1447 -0.4510
25476SOL    HW278682   7.469   1.403   3.806  0.2125 -0.0975 -0.8724
25477SOL     OW78683   4.974   1.547   7.732 -0.1518  0.0354 -0.0309
25477SOL    HW178684   5.006   1.482   7.794 -1.4179  0.7523  1.4163
25477SOL    HW278685   5.052   1.598   7.709  1.0648 -2.4339 -1.8833
25478SOL     OW78686   5.961   6.874   8.726 -0.3642 -0.2017 -0.4485
25478SOL    HW178687   5.960   6.922   8.643 -0.9239 -0.1453 -0.4133
25478SOL    HW278688   6.020   6.924   8.782 -0.3041 -0.0102 -0.6799
25479SOL     OW78689   8.662   7.412   9.416  0.5321 -0.6387 -0.2800
25479SOL    HW178690   8.577   7.447   9.442  1.0579 -0.7067  1.7110
25479SOL    HW278691   8.701   7.481   9.362  0.6381  1.0212  1.7546
25480SOL     OW78692   4.344   9.083   9.500  0.3075 -0.9685  0.4427
25480SOL    HW178693   4.269   9.141   9.514  0.8684  0.0813 -0.7176
25480SOL    HW278694   4.307   9.006   9.457 -0.1339 -0.5126 -0.0043
25481SOL     OW78695   2.005   8.837   4.891  0.4976 -1.3357 -0.4039
25481SOL    HW178696   2.095   8.870   4.887  0.2606 -0.1896  1.8944
25481SOL    HW278697   1.951   8.911   4.862  0.2323 -1.5016 -0.3398
25482SOL     OW78698   4.114   4.979   4.383 -0.7775 -0.7901 -0.2737
25482SOL    HW178699   4.118   5.031   4.302 -2.9993 -1.8398 -1.1205
25482SOL    HW278700   4.184   4.915   4.373 -0.3597 -0.2553 -0.8894
25483SOL     OW78701   8.672   9.843   2.769  0.2378  0.5913  0.1507
25483SOL    HW178702   8.740   9.810   2.710 -0.9890 -0.1169 -0.9525
25483SOL    HW278703   8.658   9.771   2.831 -0.7675 -0.0832 -0.7910
25484SOL     OW78704   9.595   2.525   7.253 -0.0053  0.6093  0.5317
25484SOL    HW178705   9.675   2.472   7.246 -0.8036 -0.7819  1.5591
25484SOL    HW278706   9.524   2.464   7.234 -0.8716  1.7571 -0.0591
25485SOL     OW78707   7.738   9.265   9.743  0.4881 -0.1046  0.0092
25485SOL    HW178708   7.804   9.288   9.808 -0.4044 -0.8615  1.2347
25485SOL    HW278709   7.738   9.169   9.742  0.1087 -0.1041 -0.7279
25486SOL     OW78710   3.913   1.967   3.452  0.5065 -0.0542  0.0682
25486SOL    HW178711   3.921   1.872   3.453 -1.5359 -0.2713  0.0052
25486SOL    HW278712   3.825   1.983   3.421  0.5928  1.8584  0.6823
25487SOL     OW78713   4.255   5.458   5.805 -0.2310  0.9939  0.1060
25487SOL    HW178714   4.319   5.492   5.742  0.3871 -0.0136  0.1734
25487SOL    HW278715   4.308   5.411   5.870 -1.0190  0.3368  0.2875
25488SOL     OW78716   9.244   5.467   6.496 -0.1663  0.4272  0.0449
25488SOL    HW178717   9.168   5.509   6.453 -0.7269  1.2365  1.7383
25488SOL    HW278718   9.306   5.539   6.508 -1.0911  0.8489  2.8921
25489SOL     OW78719   4.487  10.547   3.004  0.3501 -0.3704  0.2752
25489SOL    HW178720   4.509  10.576   3.092 -0.1773 -2.9368  1.3228
25489SOL    HW278721   4.476  10.628   2.954 -0.0897  1.1725  2.7342
25490SOL     OW78722   8.728   8.471   8.672 -0.0139  0.5798  0.7231
25490SOL    HW178723   8.723   8.459   8.767  2.0327 -1.4152  0.6713
25490SOL    HW278724   8.704   8.386   8.636  1.4897  0.5927 -0.4200
25491SOL     OW78725   5.779   6.753   6.801 -0.6898  0.5583 -0.9636
25491SOL    HW178726   5.851   6.803   6.839 -0.4586 -0.6549  0.2810
25491SOL    HW278727   5.705   6.814   6.801 -0.1210  1.2662 -0.5804
25492SOL     OW78728   5.361   2.907   1.911 -0.6591 -0.7346  1.1081
25492SOL    HW178729   5.312   2.872   1.986 -0.0018 -1.0121  1.4269
25492SOL    HW278730   5.333   2.998   1.904  0.3396 -0.2615  2.6440
25493SOL     OW78731   2.407   0.679   9.028 -0.4558  0.1445  0.0011
25493SOL    HW178732   2.425   0.650   9.117 -0.7244  1.0986  0.3894
25493SOL    HW278733   2.321   0.644   9.008  0.3574 -1.6145 -0.5973
25494SOL     OW78734   5.176   9.850   8.841  0.6510 -0.0572  0.4083
25494SOL    HW178735   5.201   9.861   8.933  0.2597 -0.4965  0.5692
25494SOL    HW278736   5.249   9.802   8.802  1.3155  1.0549  0.2318
25495SOL     OW78737   3.208   6.135  10.430  0.6433 -0.0562  0.3794
25495SOL    HW178738   3.219   6.221  10.390 -1.8921  0.1976  0.0311
25495SOL    HW278739   3.188   6.076  10.357  1.7827 -0.8455  0.6793
25496SOL     OW78740   4.888   1.918   2.286  0.0675  0.3500 -0.1626
25496SOL    HW178741   4.984   1.924   2.281  0.1145 -0.9737 -1.7688
25496SOL    HW278742   4.857   1.998   2.242  0.4209  0.7803  0.3547
25497SOL     OW78743   2.871   1.846   5.142 -0.2473 -0.5796  0.2467
25497SOL    HW178744   2.898   1.782   5.076 -1.3448 -1.3258  0.4813
25497SOL    HW278745   2.906   1.929   5.111 -0.8631 -0.8906 -1.3696
25498SOL     OW78746   1.304   9.890   8.061 -0.4512  0.4648 -0.4516
25498SOL    HW178747   1.345   9.820   8.111 -0.5603 -0.3237 -1.4392
25498SOL    HW278748   1.228   9.915   8.113 -0.4444 -0.1860 -0.1188
25499SOL     OW78749   3.413   2.318   8.490 -0.2910 -0.2358 -0.0099
25499SOL    HW178750   3.366   2.386   8.539 -1.0700 -0.3999 -0.5105
25499SOL    HW278751   3.486   2.294   8.546 -1.8497 -1.3166  1.6899
25500SOL     OW78752   1.661   6.050   6.267 -0.5416 -1.1580  0.3625
25500SOL    HW178753   1.718   6.034   6.341  1.7078  2.0264 -0.4887
25500SOL    HW278754   1.642   6.143   6.271 -0.3764 -0.8645 -2.9746
25501SOL     OW78755   3.242   3.940   7.346  0.1997 -0.0399 -0.8411
25501SOL    HW178756   3.184   3.865   7.330 -1.0023  0.6621  0.0208
25501SOL    HW278757   3.187   4.016   7.327  0.9526  0.6462 -0.3022
25502SOL     OW78758   5.436   3.715   5.337  0.5928  0.4520 -0.2805
25502SOL    HW178759   5.487   3.726   5.257 -0.0904 -2.4848 -1.2479
25502SOL    HW278760   5.486   3.651   5.388 -1.4171 -1.6503 -0.7638
25503SOL     OW78761   2.018  10.444  10.136  0.0900  0.4958 -0.0718
25503SOL    HW178762   1.929  10.421  10.162  0.5366 -0.5603  0.6002
25503SOL    HW278763   2.046  10.509  10.201  0.8761 -1.4704  1.6845
25504SOL     OW78764   0.056   1.749   0.308  0.6151 -0.9498 -0.1755
25504SOL    HW178765   0.128   1.782   0.255  0.9270 -2.7335 -0.9105
25504SOL    HW278766  -0.019   1.747   0.248  0.5863 -1.5231 -0.1191
25505SOL     OW78767   5.299   6.722   5.400 -0.6396 -0.2159 -0.0968
25505SOL    HW178768   5.391   6.742   5.418 -0.3676 -0.9807 -0.6039
25505SOL    HW278769   5.271   6.791   5.340 -0.0934 -0.5669 -0.7677
25506SOL     OW78770   0.873   5.052   8.707  0.7382  0.3742  0.5848
25506SOL    HW178771   0.858   5.111   8.781 -0.7239  0.6622  0.0915
25506SOL    HW278772   0.788   5.011   8.691  0.8686  0.7302 -1.2634
25507SOL     OW78773  10.590   1.485   1.862 -0.1648  0.3304  0.0163
25507SOL    HW178774  10.607   1.410   1.806  0.6117 -1.2187  2.1824
25507SOL    HW278775  10.563   1.447   1.946 -0.7804  2.5024  0.8805
25508SOL     OW78776   7.514   2.684   5.472  0.0909  0.3053  0.3507
25508SOL    HW178777   7.475   2.597   5.458 -0.6113  0.7201 -0.3396
25508SOL    HW278778   7.477   2.713   5.555 -0.1338  0.1923  0.2914
25509SOL     OW78779   9.950   5.233   5.139 -0.4457  0.0393  0.5115
25509SOL    HW178780   9.867   5.282   5.146  0.4118  1.6004  0.1307
25509SOL    HW278781   9.957   5.188   5.224 -1.7742 -0.2980  0.4736
25510SOL     OW78782   8.035   4.450   3.860  0.0313 -0.1178 -0.4890
25510SOL    HW178783   7.983   4.528   3.879 -0.1119 -0.0700 -1.0785
25510SOL    HW278784   7.999   4.417   3.778  0.7177 -0.2748 -0.7249
25511SOL     OW78785   7.929   5.030   5.326 -0.2502  0.0833 -0.1610
25511SOL    HW178786   7.913   5.071   5.411 -1.8876 -0.1853 -0.2931
25511SOL    HW278787   8.023   5.035   5.314  0.0248  0.1075  1.6823
25512SOL     OW78788   4.038   4.428   6.312  0.3113 -0.0376 -0.5637
25512SOL    HW178789   4.129   4.399   6.309  0.5234  0.5829 -0.2139
25512SOL    HW278790   4.008   4.406   6.400 -0.2944 -1.4363 -1.0830
25513SOL     OW78791   9.088   5.253   6.352  0.5531 -0.5412  0.1683
25513SOL    HW178792   9.113   5.307   6.276  2.8762 -0.3550  0.9719
25513SOL    HW278793   9.011   5.296   6.388 -0.1266 -0.1849 -1.6251
25514SOL     OW78794   1.712   3.815   6.039  0.0957 -0.1866 -0.2845
25514SOL    HW178795   1.791   3.792   5.990  1.4187  0.6229  1.3644
25514SOL    HW278796   1.735   3.896   6.084 -0.1824 -1.9307  3.3659
25515SOL     OW78797   9.389   4.875   1.839  0.2246  0.2973 -0.2820
25515SOL    HW178798   9.392   4.821   1.760  1.0334  0.8872 -0.6549
25515SOL    HW278799   9.304   4.853   1.879 -0.7242  0.8743 -1.9163
25516SOL     OW78800   5.167   3.571   0.526 -0.0653 -0.2153 -0.0635
25516SOL    HW178801   5.248   3.535   0.492 -0.7795 -0.9675 -1.0072
25516SOL    HW278802   5.155   3.528   0.611 -1.2157 -2.7595 -1.4182
25517SOL     OW78803  10.364   6.704   5.632  0.1673 -0.4864  0.1158
25517SOL    HW178804  10.306   6.747   5.695  0.6603  0.5149 -0.0941
25517SOL    HW278805  10.452   6.725   5.663  0.4126 -0.7441 -0.3991
25518SOL     OW78806   1.375   7.494   5.360 -0.0730  0.4154 -0.1548
25518SOL    HW178807   1.312   7.551   5.316  0.3044  1.7241  0.9402
25518SOL    HW278808   1.364   7.513   5.453  1.1071 -0.2127  0.1382
25519SOL     OW78809   7.697   9.881   2.663 -0.0079  0.1925 -0.1292
25519SOL    HW178810   7.608   9.883   2.700 -0.3723  2.0980 -0.9969
25519SOL    HW278811   7.737   9.962   2.693  1.6397 -0.8298  0.5900
25520SOL     OW78812   8.710   5.479   2.604 -0.1937 -0.1124  0.2161
25520SOL    HW178813   8.786   5.447   2.555 -0.8179 -1.6265  0.1784
25520SOL    HW278814   8.720   5.443   2.692 -0.1627  0.8470  0.6191
25521SOL     OW78815   9.587   8.067   3.411  0.1974  0.0548  0.2334
25521SOL    HW178816   9.543   8.072   3.496  0.3797  0.1339  0.3238
25521SOL    HW278817   9.542   7.997   3.365 -0.9741  1.0744 -0.2187
25522SOL     OW78818   9.953   5.051  10.226  0.2090 -0.0918  0.6361
25522SOL    HW178819   9.950   5.047  10.131 -0.3984 -1.1541  0.6775
25522SOL    HW278820   9.872   5.009  10.254 -0.0508  1.0113  1.6165
25523SOL     OW78821   2.337   2.906   3.290 -0.4493 -0.5766 -0.8783
25523SOL    HW178822   2.275   2.849   3.244 -0.2658 -1.9838  0.5695
25523SOL    HW278823   2.338   2.986   3.237 -0.4155 -2.0110 -3.1887
25524SOL     OW78824   3.186   9.422   8.857  0.4990  0.2251 -0.4212
25524SOL    HW178825   3.275   9.399   8.884  0.3029  0.2093  0.2275
25524SOL    HW278826   3.183   9.399   8.765  1.4782  1.1465 -0.7032
25525SOL     OW78827   2.569   3.026   5.571 -0.4001  0.0330  0.2810
25525SOL    HW178828   2.576   2.931   5.565 -1.0766 -0.0435  0.5650
25525SOL    HW278829   2.586   3.057   5.483 -1.8448 -0.4726 -0.2105
25526SOL     OW78830   3.974   0.645   3.545  0.5046 -0.4060  1.5240
25526SOL    HW178831   3.995   0.647   3.451 -1.1947 -1.1097  1.0866
25526SOL    HW278832   4.020   0.720   3.581 -0.2417  0.9686 -0.2200
25527SOL     OW78833   9.273   9.483   8.909 -0.0481 -0.1467 -0.2605
25527SOL    HW178834   9.204   9.451   8.968 -0.5921  1.7341  0.2042
25527SOL    HW278835   9.337   9.412   8.907 -1.2215 -1.2977  0.5807
25528SOL     OW78836   6.819   8.565   1.473  0.0388 -0.0590  0.6301
25528SOL    HW178837   6.805   8.498   1.405  0.6965  0.0696  0.3638
25528SOL    HW278838   6.761   8.538   1.545 -0.8639 -0.0519 -0.0799
25529SOL     OW78839  10.183   5.206   4.123  0.5203 -0.7828 -0.3127
25529SOL    HW178840  10.253   5.156   4.082  1.1786 -0.1824  0.0728
25529SOL    HW278841  10.195   5.295   4.092  1.7721 -0.0462  2.0618
25530SOL     OW78842   0.970   6.576   5.133  0.0822 -0.2086  0.1845
25530SOL    HW178843   0.959   6.481   5.130  1.4115 -0.3749  0.2727
25530SOL    HW278844   0.993   6.601   5.043  0.5893 -0.0803  0.3495
25531SOL     OW78845   2.347   2.791   5.524 -0.0486 -0.2452  0.2036
25531SOL    HW178846   2.374   2.777   5.615  2.1004  2.2865  0.0652
25531SOL    HW278847   2.428   2.795   5.475 -1.1650 -1.5504 -1.9015
25532SOL     OW78848   1.483   8.264   1.868 -0.3326 -0.1077 -0.0135
25532SOL    HW178849   1.479   8.317   1.948 -0.1929  0.8529 -0.6211
25532SOL    HW278850   1.577   8.255   1.850 -0.3632  0.9461 -0.8533
25533SOL     OW78851   8.911   4.453   2.567  0.5099 -0.5789  0.1380
25533SOL    HW178852   8.830   4.491   2.533 -0.2583 -1.0283  1.4214
25533SOL    HW278853   8.962   4.432   2.489 -0.3071  0.3429 -0.6708
25534SOL     OW78854   9.855   7.590   0.000  0.3825  0.0689  0.6471
25534SOL    HW178855   9.929   7.564  -0.053  1.5826  1.3675  1.5949
25534SOL    HW278856   9.841   7.517   0.061  0.0707 -0.7004 -0.3283
25535SOL     OW78857   1.394   0.276   5.566  0.0787 -0.2825  0.2882
25535SOL    HW178858   1.458   0.308   5.630 -0.1828  0.2018  0.3078
25535SOL    HW278859   1.440   0.205   5.520  0.9644  0.6710 -0.3288
25536SOL     OW78860   3.818   2.230   5.451  0.7476  0.3640 -0.1067
25536SOL    HW178861   3.855   2.162   5.507  1.2846  1.1780  0.5502
25536SOL    HW278862   3.727   2.239   5.481  0.6199 -0.2005 -0.3294
25537SOL     OW78863   1.248   5.280   6.021 -0.2531  0.2578 -0.5989
25537SOL    HW178864   1.269   5.370   6.046  0.0160  0.2110 -0.6504
25537SOL    HW278865   1.155   5.282   5.998 -0.1139  0.6464 -1.1409
25538SOL     OW78866   3.014   1.030   6.433  0.7674 -0.1503  0.0445
25538SOL    HW178867   3.098   1.054   6.472  0.3074 -1.0558  1.6768
25538SOL    HW278868   3.012   0.934   6.438 -1.2050 -0.0735  1.9761
25539SOL     OW78869   7.006   3.303   5.592  0.2722  0.0458  0.1855
25539SOL    HW178870   6.965   3.369   5.648 -0.5632  0.3435 -0.7640
25539SOL    HW278871   7.100   3.316   5.606  0.0970  0.6751  0.8754
25540SOL     OW78872   6.522   0.237   7.934 -0.2390 -0.5067  0.2860
25540SOL    HW178873   6.493   0.326   7.917  0.3144 -0.0567  1.5639
25540SOL    HW278874   6.596   0.247   7.994  1.0600 -1.7268 -1.0299
25541SOL     OW78875   4.157   9.577   0.262 -0.1179  0.2162  0.0485
25541SOL    HW178876   4.148   9.669   0.237  0.5698  0.6807  1.4525
25541SOL    HW278877   4.149   9.576   0.357  1.9609 -0.9074  0.2671
25542SOL     OW78878   4.967   2.521   6.765 -0.4647  0.4410 -0.1098
25542SOL    HW178879   4.989   2.531   6.672  0.4524  0.1332  0.0694
25542SOL    HW278880   4.899   2.453   6.766 -1.2448  1.1844 -0.6360
25543SOL     OW78881  10.498   6.134   8.731 -0.1919  0.0590 -0.0870
25543SOL    HW178882  10.576   6.093   8.693 -0.0361 -0.5454  0.8561
25543SOL    HW278883  10.531   6.211   8.777  0.2300 -1.4564  2.3147
25544SOL     OW78884   7.412   8.873   2.648  0.4746 -0.3445 -0.1273
25544SOL    HW178885   7.323   8.902   2.625  0.4483 -0.1253  0.2305
25544SOL    HW278886   7.419   8.893   2.741  0.7553 -0.7467 -0.0643
25545SOL     OW78887   9.569   7.320   2.296 -0.3228 -0.0976  0.3786
25545SOL    HW178888   9.536   7.355   2.379 -1.6492 -1.1855  0.3425
25545SOL    HW278889   9.664   7.331   2.301 -0.5715  2.8209  0.6593
25546SOL     OW78890   7.088   6.306   2.567 -0.2543 -0.0543  0.2138
25546SOL    HW178891   7.125   6.369   2.630 -0.2491  0.7872 -0.6052
25546SOL    HW278892   7.159   6.289   2.505 -0.9867  1.0754 -0.9939
25547SOL     OW78893   6.435   0.962   4.248  0.6603 -0.1604 -0.1459
25547SOL    HW178894   6.461   1.054   4.258  1.2915 -0.2431 -0.9382
25547SOL    HW278895   6.517   0.913   4.254  0.1758 -0.8434  1.8667
25548SOL     OW78896   2.567   5.456   5.259 -0.4566  0.1180  0.0214
25548SOL    HW178897   2.538   5.511   5.332 -0.7275 -1.0123  0.7954
25548SOL    HW278898   2.523   5.372   5.273 -2.0918  0.4268 -2.5358
25549SOL     OW78899   1.794   5.452  10.214 -0.0161  0.3145 -0.1621
25549SOL    HW178900   1.731   5.498  10.270  0.7159 -1.3526  2.1681
25549SOL    HW278901   1.771   5.360  10.222  1.0297 -0.0933 -1.5023
25550SOL     OW78902  10.107   8.474   9.701  0.1001  0.1302 -0.5192
25550SOL    HW178903  10.115   8.473   9.797  0.7052 -2.4663 -0.5210
25550SOL    HW278904  10.197   8.480   9.670 -0.1342  1.6403 -0.9728
25551SOL     OW78905   7.164   0.447   0.182 -0.5336 -0.2937 -0.1617
25551SOL    HW178906   7.241   0.417   0.132  1.0196 -1.7696  2.8761
25551SOL    HW278907   7.131   0.369   0.226 -1.3826  1.0065  1.6597
25552SOL     OW78908   1.449   9.929   3.341  0.7946  0.2717  0.5977
25552SOL    HW178909   1.445   9.900   3.249 -1.3644  0.7157  0.4954
25552SOL    HW278910   1.404   9.860   3.389  0.1270  1.0099  1.0389
25553SOL     OW78911   9.286   0.808   0.618 -0.3266 -0.3381 -0.0128
25553SOL    HW178912   9.252   0.884   0.571 -1.6119 -1.5140 -1.0744
25553SOL    HW278913   9.243   0.812   0.703  0.6513  0.8306  0.4528
25554SOL     OW78914   4.192   9.792   5.557 -0.4429  0.4776  0.2513
25554SOL    HW178915   4.130   9.821   5.491  2.5961  2.1987 -2.1438
25554SOL    HW278916   4.158   9.708   5.588 -3.0521  0.5774 -2.0224
25555SOL     OW78917   5.128   1.589  10.419  0.6900  0.0398  0.6858
25555SOL    HW178918   5.113   1.494  10.412  0.1611  0.1743 -0.1946
25555SOL    HW278919   5.223   1.598  10.416  0.7207 -0.3014 -2.1745
25556SOL     OW78920   2.318   8.305   0.896  0.8216  0.3654  0.3149
25556SOL    HW178921   2.407   8.297   0.931  0.8241 -0.3931  0.1645
25556SOL    HW278922   2.266   8.246   0.951  0.8729 -1.0561 -1.0876
25557SOL     OW78923   2.084   9.863   5.410  0.2850 -0.4982  0.6612
25557SOL    HW178924   2.023   9.912   5.466 -1.7117 -0.6921 -1.2264
25557SOL    HW278925   2.056   9.772   5.417  0.0313 -0.5331 -0.5701
25558SOL     OW78926   9.724   8.936   1.266 -0.1882 -0.2125  0.4610
25558SOL    HW178927   9.734   8.900   1.354  0.8548 -1.1109  0.0071
25558SOL    HW278928   9.787   9.008   1.263  0.7719 -1.0313  0.0532
25559SOL     OW78929   0.869   8.329   9.606  0.3113 -0.4518  0.1276
25559SOL    HW178930   0.956   8.349   9.641 -0.8694  2.2062  1.8939
25559SOL    HW278931   0.850   8.241   9.640  2.3722 -1.2097 -0.5380
25560SOL     OW78932   7.288   5.624   3.904 -0.3111  0.0102 -0.1727
25560SOL    HW178933   7.373   5.608   3.944 -1.5536 -1.1483  2.1649
25560SOL    HW278934   7.272   5.717   3.920 -0.1427 -0.1094  0.7139
25561SOL     OW78935  10.412   4.794   3.949  0.0092  0.4533  0.6408
25561SOL    HW178936  10.402   4.781   4.044  0.8174 -1.0459  0.5410
25561SOL    HW278937  10.368   4.718   3.910  2.5012 -0.7008 -0.0771
25562SOL     OW78938   3.829   4.428   9.692 -0.2986 -0.0217  0.4121
25562SOL    HW178939   3.890   4.494   9.659 -0.5471  0.4261  0.8232
25562SOL    HW278940   3.843   4.352   9.636 -1.3503  0.9897 -1.3382
25563SOL     OW78941   1.779   3.382   2.533  0.4084  0.0125  0.0733
25563SOL    HW178942   1.840   3.311   2.551  0.5878  0.5942  1.9956
25563SOL    HW278943   1.729   3.353   2.457 -0.0516 -2.5042  1.2434
25564SOL     OW78944   1.707   0.739   4.172  0.5081  0.6434  0.2331
25564SOL    HW178945   1.775   0.736   4.240  2.8254 -1.3911 -1.9884
25564SOL    HW278946   1.753   0.718   4.091 -2.8051 -0.7286 -1.4636
25565SOL     OW78947   6.233   6.568   8.242 -1.0678 -0.6707 -0.4495
25565SOL    HW178948   6.222   6.615   8.325 -1.4580 -0.2187 -0.7543
25565SOL    HW278949   6.206   6.478   8.262 -1.2196 -0.5493 -0.1032
25566SOL     OW78950   6.925   7.340   4.899 -0.8579  0.1184 -0.2129
25566SOL    HW178951   7.007   7.370   4.859  0.1306 -0.1177  1.5179
25566SOL    HW278952   6.924   7.381   4.986 -2.7293  0.3320 -0.3010
25567SOL     OW78953   2.851   1.469   5.105 -0.4728  0.8263 -0.2053
25567SOL    HW178954   2.890   1.551   5.076 -1.9477  0.9048 -2.1727
25567SOL    HW278955   2.781   1.452   5.042  0.0040 -2.1354 -0.0792
25568SOL     OW78956   8.823  10.479   0.567  0.4534  0.4458 -0.4514
25568SOL    HW178957   8.730  10.457   0.557  0.2208  0.5798  1.1788
25568SOL    HW278958   8.869  10.405   0.528 -0.3435 -1.2032  1.5159
25569SOL     OW78959   4.025   2.718   0.914  0.2797  0.2569  0.2087
25569SOL    HW178960   3.937   2.702   0.878  0.5065  0.2074 -0.3288
25569SOL    HW278961   4.013   2.795   0.970 -0.4409 -0.6873  1.4144
25570SOL     OW78962   0.404   4.656   3.782  0.6281 -0.2725  0.3508
25570SOL    HW178963   0.429   4.670   3.690 -2.3915  0.5624 -0.4351
25570SOL    HW278964   0.373   4.566   3.785 -2.5405  0.6651 -0.4090
25571SOL     OW78965   9.816   2.201   4.676  0.1218 -0.1058  0.0443
25571SOL    HW178966   9.778   2.288   4.685 -0.2172 -0.2701  0.2029
25571SOL    HW278967   9.772   2.148   4.743  0.4076 -0.3712  0.0246
25572SOL     OW78968   3.619   2.924   1.613  0.1988 -0.1865  0.0436
25572SOL    HW178969   3.652   2.938   1.524 -1.9525 -2.5608 -1.2754
25572SOL    HW278970   3.697   2.922   1.668  1.5548  1.8580 -1.6722
25573SOL     OW78971   6.164   7.332   5.300 -0.1712  0.3589 -0.1597
25573SOL    HW178972   6.118   7.273   5.241  0.1627  0.6008 -0.6761
25573SOL    HW278973   6.102   7.403   5.316 -0.7272 -0.3260  0.7952
25574SOL     OW78974   8.815   5.136   2.087  0.5121  0.3585 -0.4486
25574SOL    HW178975   8.767   5.174   2.014 -0.2835  1.4686  0.5942
25574SOL    HW278976   8.774   5.051   2.102  0.6373  0.1539 -1.2282
25575SOL     OW78977   3.742   7.823   4.029 -0.0282 -0.4836  0.0983
25575SOL    HW178978   3.704   7.839   4.115  2.5224  1.8693  0.9290
25575SOL    HW278979   3.831   7.857   4.035 -0.0050  0.6637 -3.7255
25576SOL     OW78980   2.959   2.895   0.646  0.5659  0.1008  0.7803
25576SOL    HW178981   2.946   2.949   0.723  1.0831  0.1455  0.8424
25576SOL    HW278982   3.045   2.854   0.660  0.7854  0.3188  0.1102
25577SOL     OW78983   3.001   5.737   3.893  0.0136 -0.2871 -0.1001
25577SOL    HW178984   2.983   5.759   3.984 -1.1509  1.0090 -0.5877
25577SOL    HW278985   3.087   5.775   3.875 -0.4170  0.8318  0.0741
25578SOL     OW78986   0.158   7.672  10.058  0.0340 -0.4879  0.1697
25578SOL    HW178987   0.206   7.589  10.064  0.0097 -0.5235 -0.1256
25578SOL    HW278988   0.203   7.721   9.989  1.1336  0.4611  1.5029
25579SOL     OW78989   0.749   1.470  10.095 -0.5472  0.9715  0.5374
25579SOL    HW178990   0.749   1.388  10.144 -1.4604  0.0408 -0.9271
25579SOL    HW278991   0.805   1.452  10.020  1.3323  2.5741  1.4794
25580SOL     OW78992   0.173   3.382   5.965 -0.2540  0.9206  0.2863
25580SOL    HW178993   0.085   3.352   5.943  0.9376 -2.7434 -0.1923
25580SOL    HW278994   0.190   3.344   6.051  0.9162  1.3809  0.2701
25581SOL     OW78995   2.776   1.854   3.980  0.0610  0.0893  0.4491
25581SOL    HW178996   2.684   1.879   3.976  0.2953  0.9771  0.4888
25581SOL    HW278997   2.779   1.786   4.048 -0.8586 -1.3798 -0.9069
25582SOL     OW78998   9.594   7.458   2.810 -0.3119 -0.0194 -0.2084
25582SOL    HW178999   9.640   7.473   2.892 -0.6228 -0.9830  0.1531
25582SOL    HW279000   9.586   7.546   2.771 -2.3919  0.8692  1.9739
25583SOL     OW79001   2.522   5.246  10.302 -0.5911  0.2535  0.3083
25583SOL    HW179002   2.487   5.183  10.364  0.7734 -0.4914  0.3366
25583SOL    HW279003   2.498   5.211  10.216 -0.4968  0.0952  0.3474
25584SOL     OW79004  10.340   3.997   5.766 -0.5626  0.7171  0.2176
25584SOL    HW179005  10.430   4.029   5.751  0.1249 -1.4338 -0.5751
25584SOL    HW279006  10.293   4.074   5.799  0.9301  2.5813 -1.6794
25585SOL     OW79007   7.057   8.922   5.335 -0.5579 -0.6903 -0.5956
25585SOL    HW179008   7.044   9.014   5.357  0.7875 -0.6326  0.0671
25585SOL    HW279009   7.066   8.921   5.240  1.1568  0.1269 -0.4672
25586SOL     OW79010   2.730   2.169   7.422 -0.0309 -0.5244 -0.2954
25586SOL    HW179011   2.651   2.115   7.424  0.1325 -0.7575 -0.1741
25586SOL    HW279012   2.802   2.107   7.427  0.1463 -0.2147  1.6659
25587SOL     OW79013   2.207   8.559   0.220  0.3002  0.1905 -0.4632
25587SOL    HW179014   2.270   8.490   0.198 -2.5822 -2.7229 -0.4247
25587SOL    HW279015   2.180   8.594   0.136  1.8628  1.4672 -0.4807
25588SOL     OW79016   4.979   3.168   4.608  0.2107  0.0881  0.0391
25588SOL    HW179017   5.043   3.176   4.537  0.2878  1.1497  0.2215
25588SOL    HW279018   4.895   3.183   4.565  0.0052 -1.7432 -0.2871
25589SOL     OW79019   3.488   9.998   3.666  0.0721 -0.5419 -0.2408
25589SOL    HW179020   3.558   9.957   3.615  0.4673 -0.4712  0.2354
25589SOL    HW279021   3.463  10.076   3.616  0.2198 -0.6561 -0.4925
25590SOL     OW79022   1.990   5.260   4.934 -0.6946 -0.2105  0.4528
25590SOL    HW179023   1.937   5.331   4.897  0.0059  1.3816  2.2834
25590SOL    HW279024   2.074   5.302   4.954 -0.2730 -1.5500  1.6305
25591SOL     OW79025   6.429   8.839   0.749 -0.1570  0.5125 -0.1846
25591SOL    HW179026   6.378   8.822   0.827 -0.0556 -2.5764 -0.6648
25591SOL    HW279027   6.445   8.933   0.750 -1.5677  0.8019  2.5872
25592SOL     OW79028   2.200   7.331   4.179  0.2774 -0.5221  0.1601
25592SOL    HW179029   2.107   7.306   4.172  0.3230 -0.8166  0.5731
25592SOL    HW279030   2.229   7.292   4.262  0.5828  0.1713  0.3876
25593SOL     OW79031  10.533   5.022   1.634  0.3615 -0.2524 -0.0410
25593SOL    HW179032  10.520   5.108   1.675  1.8650  0.0396 -0.1278
25593SOL    HW279033  10.461   4.969   1.667 -2.6313  1.8943 -2.5495
25594SOL     OW79034   2.950   8.677   8.979  0.3367 -0.1945 -0.4314
25594SOL    HW179035   2.923   8.620   8.906  0.7012 -1.6066  0.4871
25594SOL    HW279036   2.895   8.649   9.052  1.1801 -0.0102  0.2900
25595SOL     OW79037   2.927   0.560   2.084 -0.2821  0.0718 -0.1566
25595SOL    HW179038   3.001   0.523   2.132 -0.7241  1.5860  1.8279
25595SOL    HW279039   2.851   0.510   2.115 -0.3251 -0.3569 -0.9241
25596SOL     OW79040   5.905   6.615   4.670  0.8614 -0.1647  0.1919
25596SOL    HW179041   5.969   6.546   4.689  0.7427  0.2161  2.2760
25596SOL    HW279042   5.953   6.679   4.617  0.9711 -1.7878 -1.7617
25597SOL     OW79043   0.405   1.318   0.171  0.0952  0.4585 -0.2721
25597SOL    HW179044   0.318   1.360   0.173 -0.0437  0.4892 -3.2764
25597SOL    HW279045   0.466   1.390   0.187 -0.3404  0.7959 -0.0776
25598SOL     OW79046   8.770   8.466   6.331  0.5451  0.2464 -0.4332
25598SOL    HW179047   8.848   8.414   6.310  0.3043 -0.0070 -0.7170
25598SOL    HW279048   8.789   8.503   6.417  0.2988 -1.1752  0.2744
25599SOL     OW79049   9.788   5.639   5.421  0.0707 -0.0518 -0.0120
25599SOL    HW179050   9.724   5.601   5.480  1.0426 -0.1676  1.0012
25599SOL    HW279051   9.796   5.731   5.447  0.2288 -0.0085 -0.2017
25600SOL     OW79052   2.537   0.564   2.870  0.1189 -0.0085 -0.3579
25600SOL    HW179053   2.603   0.522   2.815  1.3863  0.8469  0.4579
25600SOL    HW279054   2.585   0.590   2.949 -0.7807  2.2182 -0.4947
25601SOL     OW79055   0.718  10.241   1.219  0.1956 -0.4877 -0.6345
25601SOL    HW179056   0.797  10.191   1.239 -0.4321 -2.3717 -2.4677
25601SOL    HW279057   0.662  10.230   1.296  1.0088 -0.6582 -0.0649
25602SOL     OW79058   8.838   2.485   8.221  0.0954 -0.3789 -0.2995
25602SOL    HW179059   8.885   2.403   8.236 -1.5698 -1.3571 -0.2346
25602SOL    HW279060   8.870   2.544   8.290  0.5915 -1.2784  0.2620
25603SOL     OW79061   3.808  10.241   1.816  0.4903  0.1060  0.5741
25603SOL    HW179062   3.797  10.147   1.830  3.0367 -0.2347  0.7483
25603SOL    HW279063   3.783  10.254   1.725 -1.9937 -0.2838  1.1171
25604SOL     OW79064  10.464   8.721   7.445  0.5429 -0.4828 -0.4876
25604SOL    HW179065  10.484   8.710   7.353  3.8063 -0.0081  0.0654
25604SOL    HW279066  10.499   8.807   7.468  0.7691 -1.0178  1.4038
25605SOL     OW79067   0.995   5.117   5.171  0.2199 -0.0827  1.0514
25605SOL    HW179068   0.963   5.123   5.261  0.6679 -0.8035  1.2588
25605SOL    HW279069   1.089   5.129   5.177 -0.0126  3.1510  0.3291
25606SOL     OW79070   3.669   8.689   3.528  0.7792  0.4902  0.4696
25606SOL    HW179071   3.593   8.674   3.472  1.3891  0.6139 -0.4003
25606SOL    HW279072   3.705   8.601   3.542  0.4056  0.4151  1.0010
25607SOL     OW79073   2.462   5.263   1.921 -0.0514  0.0030  0.7069
25607SOL    HW179074   2.410   5.219   1.855  0.2049  0.3139  0.2919
25607SOL    HW279075   2.551   5.265   1.884 -0.3109  2.0794  0.0826
25608SOL     OW79076   3.406   6.172   7.599  0.2066  0.0556  0.0726
25608SOL    HW179077   3.455   6.108   7.549  0.0751  0.4772 -0.6055
25608SOL    HW279078   3.382   6.127   7.680 -0.2603 -0.8898 -0.5796
25609SOL     OW79079   6.314   0.418   3.711  0.6419 -0.2983  0.7034
25609SOL    HW179080   6.269   0.336   3.689  1.5861 -0.6131 -0.1083
25609SOL    HW279081   6.306   0.424   3.806 -1.4139 -0.1541  0.5632
25610SOL     OW79082   7.994  10.584   1.133 -0.3373 -0.3061  0.1161
25610SOL    HW179083   7.931  10.608   1.066  1.5490  0.5106 -1.4801
25610SOL    HW279084   7.948  10.520   1.188 -2.2501 -0.3325 -1.4094
25611SOL     OW79085   0.175   5.466   2.069  0.3263 -0.8364  0.4425
25611SOL    HW179086   0.243   5.523   2.104  0.2461 -0.4547 -0.0066
25611SOL    HW279087   0.153   5.505   1.984 -1.6771  0.0851  1.3160
25612SOL     OW79088   6.930   0.212   6.497  0.0936 -0.0107  0.1689
25612SOL    HW179089   6.841   0.179   6.506 -0.6664  1.9682  0.5159
25612SOL    HW279090   6.924   0.304   6.524  1.5343  1.1316 -2.9792
25613SOL     OW79091   3.128   1.388  10.315  0.3952  1.1470 -0.0942
25613SOL    HW179092   3.113   1.349  10.229  2.1641 -0.1996  0.1417
25613SOL    HW279093   3.073   1.337  10.375 -0.4315  1.7391 -0.3362
25614SOL     OW79094   0.078   1.699   5.886 -0.0060  0.1188  0.1206
25614SOL    HW179095   0.011   1.728   5.823 -0.7134  0.6692  1.0988
25614SOL    HW279096   0.078   1.767   5.954 -0.6923 -1.4350  1.7554
25615SOL     OW79097  10.228   8.733   6.777 -0.1768 -0.2515 -0.1297
25615SOL    HW179098  10.202   8.707   6.866  1.4136  0.2417  0.5203
25615SOL    HW279099  10.228   8.828   6.779  2.8564 -0.1682  0.3521
25616SOL     OW79100   4.296   3.817   4.470  0.4095 -0.6483  0.0440
25616SOL    HW179101   4.379   3.840   4.511  2.1203 -2.8941 -1.8751
25616SOL    HW279102   4.253   3.758   4.532  0.4903  0.0641  0.7928
25617SOL     OW79103   1.268   1.035   1.881  0.1456  0.4743 -0.3633
25617SOL    HW179104   1.291   0.999   1.967  1.0883  1.1964 -0.2974
25617SOL    HW279105   1.326   0.989   1.820  0.4002  0.9111 -0.4479
25618SOL     OW79106  10.204   4.408   0.925  0.9038  0.7398  0.4240
25618SOL    HW179107  10.235   4.485   0.973  1.0865  1.4546 -0.7940
25618SOL    HW279108  10.109   4.419   0.920  0.5932 -0.4520  2.4520
25619SOL     OW79109   9.350   1.417   4.673  0.7795  0.1779  0.1987
25619SOL    HW179110   9.264   1.377   4.683 -0.6795  2.5468 -1.8445
25619SOL    HW279111   9.338   1.485   4.607  3.7878  1.9330  1.2451
25620SOL     OW79112   0.907   1.553   8.637  0.3569 -0.4547 -0.1072
25620SOL    HW179113   0.921   1.632   8.689  0.6559  0.2196 -1.1717
25620SOL    HW279114   0.823   1.518   8.667  1.4962 -1.3342  2.3433
25621SOL     OW79115   6.161   7.013   3.149 -0.0119 -0.2059  0.4860
25621SOL    HW179116   6.118   6.970   3.075  2.7119 -0.6732 -0.9512
25621SOL    HW279117   6.123   6.970   3.226 -1.6581 -0.9437 -0.6633
25622SOL     OW79118   6.958   5.357   2.987 -0.3286  0.0299  0.1721
25622SOL    HW179119   7.016   5.428   3.012  0.9079 -0.8380 -0.1413
25622SOL    HW279120   6.870   5.387   3.011  0.3647  0.9082  1.6791
25623SOL     OW79121   8.738   0.280   0.771  0.0598  0.1380  0.0312
25623SOL    HW179122   8.820   0.268   0.818  0.5836 -0.8566 -1.0954
25623SOL    HW279123   8.676   0.309   0.839  0.4500 -2.4856  1.6623
25624SOL     OW79124   1.071   9.195   2.045 -0.7083 -0.4943 -0.2947
25624SOL    HW179125   1.148   9.151   2.007 -0.9890 -2.2207  1.0175
25624SOL    HW279126   1.001   9.176   1.983 -0.3909 -0.0885 -0.7933
25625SOL     OW79127   7.689   9.549   9.613  0.0053  0.0355 -0.1182
25625SOL    HW179128   7.629   9.623   9.601  0.4789  0.3811 -0.3689
25625SOL    HW279129   7.666   9.513   9.699 -1.0139 -0.2537 -0.5043
25626SOL     OW79130   0.386   7.944   0.533  0.5540  0.3465 -0.2424
25626SOL    HW179131   0.334   7.886   0.478  0.9757  0.0924 -0.3815
25626SOL    HW279132   0.322   7.987   0.590  0.1665  0.2582 -0.6059
25627SOL     OW79133   1.735   0.754   0.249  0.0859 -0.0424  0.3561
25627SOL    HW179134   1.658   0.728   0.200  1.5807 -3.2888 -0.5440
25627SOL    HW279135   1.766   0.834   0.207 -2.8152  1.4986  0.9215
25628SOL     OW79136   2.908   1.418   1.500  0.8597  0.0134 -0.0847
25628SOL    HW179137   2.960   1.339   1.518  0.7297 -0.4208 -1.4905
25628SOL    HW279138   2.974   1.485   1.481  0.9475  0.0688  0.3844
25629SOL     OW79139   7.904   3.494   9.125  0.5136 -0.9091  0.2055
25629SOL    HW179140   7.945   3.574   9.092 -0.0021 -0.6779  0.1092
25629SOL    HW279141   7.897   3.507   9.219  2.1257 -1.6329  0.4668
25630SOL     OW79142   6.685   5.696   6.627 -0.6995 -0.1042 -0.1446
25630SOL    HW179143   6.679   5.732   6.716  0.9896  0.1633 -0.1018
25630SOL    HW279144   6.688   5.601   6.640 -2.6145 -0.1974 -0.0929
25631SOL     OW79145   1.027   4.034   8.969 -0.3464 -0.0882 -0.1596
25631SOL    HW179146   1.090   3.965   8.945 -0.0575  0.0470  0.1977
25631SOL    HW279147   1.009   4.079   8.886  1.7054  1.2629  0.0408
25632SOL     OW79148   4.248   6.507   2.262 -0.2325 -0.3077 -0.3136
25632SOL    HW179149   4.313   6.572   2.236 -1.2323  0.9387  0.2159
25632SOL    HW279150   4.247   6.511   2.357 -1.9752  0.6472 -0.3306
25633SOL     OW79151   0.848   2.526   4.014 -0.2523 -0.7334 -0.2032
25633SOL    HW179152   0.916   2.483   3.962 -1.9832 -1.3634 -2.0744
25633SOL    HW279153   0.855   2.619   3.991  2.2573 -0.1298  2.4135
25634SOL     OW79154   0.528   1.846   2.718 -0.3838 -0.2167  0.1702
25634SOL    HW179155   0.573   1.775   2.765  0.3006 -1.0672 -1.6674
25634SOL    HW279156   0.441   1.810   2.698  0.3661 -1.0908 -1.8094
25635SOL     OW79157   9.638   7.161   8.582  0.0974 -0.5387 -0.4432
25635SOL    HW179158   9.566   7.106   8.614 -0.7876  1.2157  0.7306
25635SOL    HW279159   9.711   7.139   8.639 -0.3157 -0.3327  0.1763
25636SOL     OW79160   7.853   2.992   1.773 -0.0360  0.0788 -0.1606
25636SOL    HW179161   7.778   2.953   1.819  0.1835 -0.5937 -0.3626
25636SOL    HW279162   7.824   3.080   1.750  0.1246  0.7355  1.9495
25637SOL     OW79163   8.102   7.974   9.433  0.2773  0.0250  0.1105
25637SOL    HW179164   8.073   8.035   9.502 -0.5581 -1.8902  1.5631
25637SOL    HW279165   8.166   7.917   9.477  0.7219 -0.4216 -1.0725
25638SOL     OW79166   7.897   5.587   2.045  0.0819 -0.2209 -0.9382
25638SOL    HW179167   7.875   5.516   1.985 -3.3936 -0.4820  0.3935
25638SOL    HW279168   7.946   5.545   2.115  0.8211 -0.6494 -1.6977
25639SOL     OW79169   3.840   4.786   5.286 -0.2828 -0.4781 -0.0414
25639SOL    HW179170   3.910   4.814   5.346 -0.5478  1.5876 -0.6267
25639SOL    HW279171   3.837   4.854   5.219  0.4774 -3.0357 -2.8835
25640SOL     OW79172   2.715   7.283   2.144  0.1030  0.1385 -0.1946
25640SOL    HW179173   2.742   7.365   2.185  0.9437 -0.6036  0.7881
25640SOL    HW279174   2.792   7.254   2.095 -1.3365  1.7940 -3.7729
25641SOL     OW79175   9.594   7.385  10.465 -0.5926  0.1537 -0.1349
25641SOL    HW179176   9.639   7.326  10.404 -0.1469 -0.4427  0.7341
25641SOL    HW279177   9.611   7.473  10.432  2.1988  0.0371  0.7376
25642SOL     OW79178   7.318   5.114   6.659 -0.1275 -0.3453  0.5058
25642SOL    HW179179   7.403   5.158   6.662 -0.6254  0.6359  0.6649
25642SOL    HW279180   7.300   5.104   6.565  0.6060 -1.4587  0.4725
25643SOL     OW79181   8.054  10.090   7.361  0.0145 -0.1170 -0.2316
25643SOL    HW179182   8.008  10.145   7.424 -0.2060  0.2852 -0.7321
25643SOL    HW279183   8.069  10.148   7.285  2.1767  0.0485  0.2617
25644SOL     OW79184   8.805   5.282   5.206  0.1459 -0.5915  0.1042
25644SOL    HW179185   8.740   5.246   5.145 -0.3275 -0.3045  0.4240
25644SOL    HW279186   8.768   5.367   5.231  0.6042 -0.4703  0.3681
25645SOL     OW79187   3.799   7.906   5.504 -0.0576  0.2418 -0.2717
25645SOL    HW179188   3.855   7.967   5.457 -0.3603  1.4831  0.9149
25645SOL    HW279189   3.711   7.923   5.470  0.2448 -1.8867 -2.3239
25646SOL     OW79190   1.716   4.779   8.050 -0.1759  0.2284  0.3110
25646SOL    HW179191   1.751   4.796   7.962 -2.5254  0.7215 -0.6113
25646SOL    HW279192   1.711   4.866   8.091  0.0649  0.1117  0.5902
25647SOL     OW79193   4.714  10.326   0.922 -0.6547 -0.4620 -0.1510
25647SOL    HW179194   4.648  10.395   0.920 -0.2285 -0.0513 -0.0869
25647SOL    HW279195   4.664  10.245   0.936 -0.9875  0.0798  2.2469
25648SOL     OW79196   6.305   9.769   8.659 -0.1951  0.4645 -0.3439
25648SOL    HW179197   6.214   9.753   8.635 -0.5321 -0.4482  1.4109
25648SOL    HW279198   6.300   9.833   8.730  0.5836  0.8426 -0.6132
25649SOL     OW79199   6.058   2.005  10.038  0.0790 -0.4428 -0.0840
25649SOL    HW179200   6.090   2.095  10.039  1.1788 -0.8094 -0.3078
25649SOL    HW279201   6.037   1.986  10.130  0.6440 -0.2212  0.0965
25650SOL     OW79202   7.325   7.197   7.343  0.2516  0.0509 -0.0499
25650SOL    HW179203   7.365   7.269   7.294 -0.8263 -0.1295 -1.2615
25650SOL    HW279204   7.400   7.147   7.377  1.0096  1.6754  0.7554
25651SOL     OW79205   6.969   8.429   7.799 -0.2160  0.1631  0.2386
25651SOL    HW179206   6.883   8.394   7.821  0.1268  0.6773  2.5716
25651SOL    HW279207   7.024   8.409   7.875  1.0240  2.2057 -0.0501
25652SOL     OW79208   4.134   8.366   0.474 -0.3607  0.0973 -0.5495
25652SOL    HW179209   4.139   8.270   0.470 -0.1763  0.0587  0.2839
25652SOL    HW279210   4.085   8.391   0.396  0.8576 -0.5677 -1.5614
25653SOL     OW79211  10.442   9.435   8.385  0.1995  0.0660 -0.4329
25653SOL    HW179212  10.372   9.389   8.338  0.3193 -2.2220  1.4809
25653SOL    HW279213  10.398   9.478   8.458  0.7386 -1.7144  1.0163
25654SOL     OW79214   9.668   2.128   3.157  0.4771 -0.3613  0.4003
25654SOL    HW179215   9.706   2.060   3.103  0.7151  0.8221 -0.9692
25654SOL    HW279216   9.727   2.135   3.232  0.9470 -1.0304  0.0968
25655SOL     OW79217   2.743   0.519   5.643 -0.4333  0.4468  0.2363
25655SOL    HW179218   2.675   0.513   5.710 -1.3529 -0.5688 -0.7425
25655SOL    HW279219   2.775   0.609   5.649 -2.1089  1.0614  0.4854
25656SOL     OW79220   2.923   6.148   6.299  0.0672 -0.5827  0.5006
25656SOL    HW179221   3.006   6.101   6.294 -0.4682 -1.3985 -2.8569
25656SOL    HW279222   2.944   6.236   6.269 -0.1837 -0.6405  0.1553
25657SOL     OW79223   7.020   7.228   2.926  0.0130  0.4866 -0.5526
25657SOL    HW179224   7.096   7.170   2.936  0.5497  1.0923 -0.9961
25657SOL    HW279225   6.945   7.171   2.936  0.5314 -0.2312 -0.6395
25658SOL     OW79226   9.792   5.256   0.268  0.0802  0.0318  0.7158
25658SOL    HW179227   9.753   5.245   0.181 -1.8066  4.2933  0.7841
25658SOL    HW279228   9.885   5.270   0.250 -0.0671 -0.3144 -0.4596
25659SOL     OW79229   2.962   3.032  10.243 -0.3224 -0.1004  0.0795
25659SOL    HW179230   2.928   3.061  10.328  0.7455  1.3752  0.0408
25659SOL    HW279231   3.020   3.103  10.215 -0.2294 -0.8100 -1.6384
25660SOL     OW79232   3.497   0.967   3.654  0.0933  0.0868  0.3398
25660SOL    HW179233   3.482   1.034   3.721  2.1306  0.9863 -0.0380
25660SOL    HW279234   3.412   0.955   3.613 -0.5697  1.6335  1.1732
25661SOL     OW79235   3.871   7.762   1.797  1.0238 -0.0336  0.2701
25661SOL    HW179236   3.824   7.722   1.724  1.1827 -0.8077  0.5902
25661SOL    HW279237   3.874   7.855   1.774 -1.1971  0.1550  0.5476
25662SOL     OW79238   2.370   8.715   6.019  0.9759  0.1188  0.3465
25662SOL    HW179239   2.464   8.706   6.009  0.8444 -0.1689 -0.7872
25662SOL    HW279240   2.357   8.800   6.060  1.6873  0.5741 -0.3605
25663SOL     OW79241   0.101   1.089   0.253 -0.1301  0.1830  0.8589
25663SOL    HW179242   0.182   1.141   0.245 -0.4692  0.5960 -0.1240
25663SOL    HW279243   0.125   1.003   0.219 -0.0173  0.2128  0.8621
25664SOL     OW79244   3.517   4.846   6.948 -1.0469 -0.3473  0.1905
25664SOL    HW179245   3.432   4.806   6.967 -0.8974 -1.1117 -0.6555
25664SOL    HW279246   3.549   4.877   7.032 -2.3942  0.4188  0.4398
25665SOL     OW79247   2.510   5.038   9.091 -0.0117  0.1026  0.0250
25665SOL    HW179248   2.545   5.048   9.003 -1.7921 -0.5563 -0.8054
25665SOL    HW279249   2.422   5.002   9.078 -0.7976  1.1566  2.0128
25666SOL     OW79250   1.776   0.591   5.157  0.5026 -0.1503 -0.1866
25666SOL    HW179251   1.745   0.507   5.191  2.6465 -1.0300 -0.2151
25666SOL    HW279252   1.797   0.573   5.065 -3.4895  1.7206 -1.6755
25667SOL     OW79253   2.063   4.834   6.210  0.6878  0.2102  0.7942
25667SOL    HW179254   1.991   4.770   6.211  1.9964 -1.3069  1.8948
25667SOL    HW279255   2.086   4.842   6.117  0.2062 -0.5675  0.5966
25668SOL     OW79256   3.647   4.479   4.223 -0.4201  0.0609  0.4701
25668SOL    HW179257   3.575   4.418   4.209  0.0424 -0.3770 -0.0448
25668SOL    HW279258   3.694   4.443   4.298 -0.1183 -0.2530  0.1356
25669SOL     OW79259   7.596   2.774   7.648  0.0797 -0.5237 -0.2128
25669SOL    HW179260   7.508   2.763   7.685 -1.5809  4.9093 -1.6672
25669SOL    HW279261   7.593   2.726   7.565 -1.0590 -1.4039  0.3023
25670SOL     OW79262   5.998   4.319   0.386 -0.1536  0.4056  0.1520
25670SOL    HW179263   5.955   4.380   0.446 -0.1014 -1.3715  2.1032
25670SOL    HW279264   5.930   4.257   0.361 -0.1346  1.0139 -1.5961
25671SOL     OW79265   8.397   3.156   3.872 -0.0042  0.3363 -0.6432
25671SOL    HW179266   8.472   3.102   3.844  0.4766  0.6927 -0.0722
25671SOL    HW279267   8.320   3.108   3.842  0.4319 -0.4485 -0.5389
25672SOL     OW79268   4.834   8.746   3.051 -0.1465 -0.3577  0.0308
25672SOL    HW179269   4.743   8.749   3.020 -0.3644  1.1724  0.7291
25672SOL    HW279270   4.882   8.801   2.990  0.5708 -2.0447 -0.9975
25673SOL     OW79271  10.327   1.190   5.216  0.1506  0.8027 -0.8065
25673SOL    HW179272  10.308   1.249   5.143 -0.1416  0.0064 -1.3943
25673SOL    HW279273  10.375   1.117   5.176  0.9016  0.8493 -0.0174
25674SOL     OW79274   9.941   5.526   4.725 -0.0551 -0.5206  0.1320
25674SOL    HW179275   9.864   5.580   4.708  0.1788  0.1437  1.0815
25674SOL    HW279276   9.928   5.447   4.672 -0.5590  0.3250 -1.0438
25675SOL     OW79277   1.754   5.664   1.101 -0.2881 -0.2176  0.0582
25675SOL    HW179278   1.843   5.696   1.083  0.3482 -0.2456  2.8065
25675SOL    HW279279   1.728   5.620   1.019  0.5971  3.1444 -2.2289
25676SOL     OW79280   3.199   9.173   8.613  0.1241 -0.4776  0.2139
25676SOL    HW179281   3.217   9.264   8.592  0.4665 -0.5525  0.1752
25676SOL    HW279282   3.137   9.145   8.546 -0.4449 -0.1053  0.5826
25677SOL     OW79283   9.956  10.634  10.312 -0.2503  1.1638  0.0944
25677SOL    HW179284   9.960  10.589  10.227 -2.5828  0.9372  0.0399
25677SOL    HW279285  10.003  10.576  10.372  0.0796  0.5589 -0.7291
25678SOL     OW79286   0.864   1.376   6.049 -0.6030 -0.3523 -0.3790
25678SOL    HW179287   0.872   1.456   5.997  1.7189 -0.5516 -0.4539
25678SOL    HW279288   0.910   1.396   6.131  1.1916 -1.9635 -0.9145
25679SOL     OW79289  10.243   2.274   7.502 -0.3488  0.1628  0.1998
25679SOL    HW179290  10.187   2.212   7.456  1.5024 -2.0438  0.7065
25679SOL    HW279291  10.250   2.240   7.591  2.6649 -0.4039 -0.1399
25680SOL     OW79292   9.013   0.938   2.436 -0.7111  0.0198 -0.2780
25680SOL    HW179293   9.108   0.947   2.425 -0.7718 -0.1386 -0.9883
25680SOL    HW279294   8.994   0.850   2.406 -1.0204 -0.1398  0.3685
25681SOL     OW79295   6.243   9.776  10.402  0.6491 -0.0778 -0.0267
25681SOL    HW179296   6.194   9.725  10.337  0.8844 -0.6978  0.2736
25681SOL    HW279297   6.243   9.720  10.480  0.9583  0.3663  0.2912
25682SOL     OW79298   0.256   3.665   2.931 -0.1575  0.2271  0.3107
25682SOL    HW179299   0.194   3.712   2.875  0.1583 -0.6565 -0.8172
25682SOL    HW279300   0.258   3.576   2.896  2.4532  0.4504 -0.3151
25683SOL     OW79301  10.078   8.088   0.112 -0.2312  0.2710  0.1248
25683SOL    HW179302  10.124   8.005   0.104 -0.7661 -0.2660  2.0546
25683SOL    HW279303   9.987   8.064   0.132 -1.0304  1.3309 -1.9171
25684SOL     OW79304   1.180   5.303  10.619 -0.1043 -0.2393  0.0883
25684SOL    HW179305   1.100   5.293  10.567  0.0846 -1.5251  0.0249
25684SOL    HW279306   1.149   5.317  10.708 -0.3944 -0.8646  0.0837
25685SOL     OW79307   2.974   1.060   0.293 -0.0825 -0.0728 -0.8451
25685SOL    HW179308   3.046   1.098   0.344 -0.1607 -0.9996 -0.0067
25685SOL    HW279309   2.968   1.115   0.215  2.2534 -0.5919 -1.4645
25686SOL     OW79310   1.600   9.087   7.598 -1.3389  0.2078 -0.0095
25686SOL    HW179311   1.638   9.028   7.533 -0.6996  1.1661 -0.5342
25686SOL    HW279312   1.671   9.148   7.620 -1.3646 -0.3920  1.9911
25687SOL     OW79313   0.390   4.411   0.715  0.2579  0.2540 -0.8806
25687SOL    HW179314   0.315   4.462   0.684  0.3964  1.1103  0.1302
25687SOL    HW279315   0.422   4.367   0.637 -1.6608 -0.6265 -1.2410
25688SOL     OW79316   0.933   1.060   3.508 -0.7526 -0.1536 -0.3284
25688SOL    HW179317   0.968   1.078   3.595 -1.0613 -0.5767 -0.1103
25688SOL    HW279318   0.932   1.145   3.464 -0.1909 -0.0074 -0.0726
25689SOL     OW79319   7.964   7.088   4.437 -0.0437  0.1084 -0.0174
25689SOL    HW179320   7.894   7.045   4.387  0.1941  1.0280 -1.2018
25689SOL    HW279321   8.042   7.076   4.384  0.6186 -0.4838  1.0648
25690SOL     OW79322   8.487   3.454   8.532 -0.0240  0.3157  0.3402
25690SOL    HW179323   8.438   3.477   8.453 -1.0234 -0.9845  0.5407
25690SOL    HW279324   8.424   3.406   8.586  0.9938  0.1119  1.3877
25691SOL     OW79325   2.123   3.562   8.252  0.5755  0.4010 -0.0645
25691SOL    HW179326   2.136   3.596   8.341 -0.1751 -1.3264  0.7431
25691SOL    HW279327   2.078   3.479   8.264  1.2763 -0.3188 -2.0330
25692SOL     OW79328   4.030   5.147   7.161 -0.1281  0.0338 -0.0908
25692SOL    HW179329   4.040   5.089   7.237 -0.1352 -0.9609 -0.8365
25692SOL    HW279330   4.095   5.215   7.175  0.5620 -0.6873  0.3176
25693SOL     OW79331   4.256   8.721   9.588  0.2521 -0.0228 -0.4205
25693SOL    HW179332   4.213   8.639   9.563  1.3123 -0.5769 -0.4981
25693SOL    HW279333   4.272   8.712   9.682 -2.2205  1.3472  0.1994
25694SOL     OW79334   4.343   3.066   0.301 -0.1560  0.5047 -0.7303
25694SOL    HW179335   4.410   3.059   0.233 -1.5200  0.7726 -2.1591
25694SOL    HW279336   4.267   3.102   0.256 -2.0766 -2.0245  0.2265
25695SOL     OW79337   2.510   5.094   1.121  0.0533  0.1242  0.5144
25695SOL    HW179338   2.521   5.041   1.200  0.3274  0.4905  0.7224
25695SOL    HW279339   2.595   5.136   1.108  0.1496 -0.2846 -0.2332
25696SOL     OW79340  10.203   4.916   0.380  1.2828 -1.0393  0.2948
25696SOL    HW179341  10.119   4.878   0.402  0.8187 -0.0506  0.3039
25696SOL    HW279342  10.200   4.929   0.285  0.1393  1.8280  0.6314
25697SOL     OW79343   7.829   0.065   1.743 -0.1263 -0.0768 -0.1064
25697SOL    HW179344   7.922   0.040   1.745  0.5371  1.9564 -1.5459
25697SOL    HW279345   7.806   0.064   1.650 -0.5009  2.6544 -0.1479
25698SOL     OW79346  10.119   4.197   2.664 -0.6113  0.0670 -0.3403
25698SOL    HW179347  10.201   4.216   2.616 -1.1784  0.2843 -1.2531
25698SOL    HW279348  10.116   4.102   2.668  1.0034  0.0412  2.0582
25699SOL     OW79349   8.539   7.027   0.771  0.0264 -0.1540 -0.2107
25699SOL    HW179350   8.544   6.981   0.854  0.9406 -0.6610 -0.5230
25699SOL    HW279351   8.566   7.117   0.791 -0.3331 -0.1234  0.1416
25700SOL     OW79352   6.405   7.424   6.710  0.0849  0.4274 -0.2730
25700SOL    HW179353   6.398   7.460   6.798  0.4373  1.3445 -0.6116
25700SOL    HW279354   6.316   7.397   6.688 -0.2997  1.5981 -0.2164
25701SOL     OW79355   2.241   8.352   7.755 -0.1040 -0.1403 -0.0866
25701SOL    HW179356   2.280   8.420   7.810 -0.6586  0.1019  0.0137
25701SOL    HW279357   2.313   8.323   7.698  0.3229  0.0202  0.3606
25702SOL     OW79358   8.863   6.974   8.044  0.3476 -0.3421 -0.3464
25702SOL    HW179359   8.839   7.064   8.022  1.7758 -0.4687 -2.7631
25702SOL    HW279360   8.781   6.935   8.074 -0.2348  1.8086  1.1416
25703SOL     OW79361   2.260   1.368   6.792 -0.3828  0.2606 -0.3076
25703SOL    HW179362   2.266   1.342   6.884  0.7075  2.5051  0.3129
25703SOL    HW279363   2.340   1.417   6.776 -0.2684 -0.5847 -2.6672
25704SOL     OW79364   8.590   4.844   0.684 -0.4449 -0.3016 -0.2149
25704SOL    HW179365   8.600   4.753   0.714  0.5086  0.1561  0.9223
25704SOL    HW279366   8.504   4.870   0.717 -0.1144 -0.3454  0.7159
25705SOL     OW79367   1.005   5.202   0.842  0.2784  0.3386  0.2130
25705SOL    HW179368   0.972   5.222   0.930  0.5835 -0.4707  0.5199
25705SOL    HW279369   1.026   5.109   0.845  1.9314  0.6727 -0.1874
25706SOL     OW79370   1.496   4.779   3.254 -0.0667  0.3206  0.1199
25706SOL    HW179371   1.548   4.851   3.289  0.2885  0.5324 -0.7987
25706SOL    HW279372   1.461   4.814   3.171  0.0351 -0.5267 -0.2854
25707SOL     OW79373   9.023   1.731   4.271 -0.0773 -0.0280  0.1581
25707SOL    HW179374   9.062   1.644   4.261 -1.3033 -0.5233 -0.4898
25707SOL    HW279375   8.992   1.754   4.184  3.8998  2.9583 -0.7592
25708SOL     OW79376   5.253   6.365   8.427  0.0052  0.4721 -0.3665
25708SOL    HW179377   5.298   6.444   8.457  1.2207 -0.7153  1.1384
25708SOL    HW279378   5.315   6.294   8.446 -1.2679 -0.9014 -1.1516
25709SOL     OW79379   3.846   2.444   8.529 -0.1810  0.5707  0.4591
25709SOL    HW179380   3.871   2.356   8.556 -0.0046  0.6853  0.6680
25709SOL    HW279381   3.859   2.444   8.434  1.9109  1.0273  0.6868
25710SOL     OW79382   8.761   9.375   8.936  0.0349 -0.3335  0.0060
25710SOL    HW179383   8.682   9.362   8.883 -1.6760  0.0990  2.2609
25710SOL    HW279384   8.733   9.351   9.025  1.5983  2.5480  1.4049
25711SOL     OW79385   7.043   0.883  10.457  0.1930 -0.1131  0.2714
25711SOL    HW179386   7.033   0.974  10.484  0.7573 -0.0661  0.3373
25711SOL    HW279387   7.054   0.834  10.538  1.3154 -0.0466  0.1758
25712SOL     OW79388   7.242   4.892   0.694  0.0496 -0.4562  0.5703
25712SOL    HW179389   7.169   4.953   0.684 -0.3177 -0.6650  1.7177
25712SOL    HW279390   7.202   4.805   0.685  0.6767 -0.5604 -1.7008
25713SOL     OW79391   2.399   1.679  10.408  0.1156 -0.6570  0.0939
25713SOL    HW179392   2.439   1.628  10.337 -1.4665 -2.2345  0.2654
25713SOL    HW279393   2.441   1.764  10.402  1.3139 -1.3002 -1.6103
25714SOL     OW79394   7.283  10.347   8.219  0.1207 -0.5048  0.3986
25714SOL    HW179395   7.325  10.374   8.301 -0.0900 -0.2939  0.4396
25714SOL    HW279396   7.227  10.422   8.196  0.3658 -0.4647 -0.0682
25715SOL     OW79397   0.448   7.655  10.396 -0.4379 -0.0788  0.7845
25715SOL    HW179398   0.471   7.598  10.470  0.3579  1.3357  1.6699
25715SOL    HW279399   0.388   7.719  10.433 -2.2135 -0.9346 -0.4599
25716SOL     OW79400   6.439   8.297   9.025 -0.1887  0.4066 -0.4391
25716SOL    HW179401   6.402   8.340   8.947  1.7344  1.0669 -1.0521
25716SOL    HW279402   6.491   8.365   9.067  0.5489 -0.5422  0.2184
25717SOL     OW79403   8.168   5.526   2.605 -0.5022  0.0319  0.7290
25717SOL    HW179404   8.254   5.528   2.649  0.9887 -1.0738 -1.9192
25717SOL    HW279405   8.157   5.616   2.573  0.5630 -0.2105 -0.4131
25718SOL     OW79406   3.197   0.641   1.790 -0.2364 -0.7002 -0.2984
25718SOL    HW179407   3.130   0.682   1.734 -0.5331 -0.7571  0.0146
25718SOL    HW279408   3.201   0.550   1.760 -1.4246 -1.1135  0.7096
25719SOL     OW79409   7.999   4.525   4.856 -0.3431 -0.1541  0.1792
25719SOL    HW179410   7.917   4.553   4.896 -0.4751 -0.5880  0.2163
25719SOL    HW279411   7.986   4.539   4.762  0.2291  1.5499  0.3101
25720SOL     OW79412   9.652   8.865   6.885  0.6209 -0.5974 -0.1193
25720SOL    HW179413   9.680   8.797   6.946 -0.0247 -0.0396  0.8187
25720SOL    HW279414   9.600   8.819   6.819  3.5798 -1.6779 -1.9045
25721SOL     OW79415   1.107   7.162   9.061  0.1971 -0.4106  0.2909
25721SOL    HW179416   1.091   7.175   9.155  2.3410  0.1984  0.6162
25721SOL    HW279417   1.185   7.107   9.057  0.2741 -0.2268 -1.1424
25722SOL     OW79418   8.768   7.811   3.044 -0.1238 -0.1477 -0.6632
25722SOL    HW179419   8.694   7.862   3.011 -1.7211 -0.6331  1.9487
25722SOL    HW279420   8.741   7.720   3.035  0.5168 -0.3697 -0.4245
25723SOL     OW79421   5.722   2.605   9.619 -0.4321  0.0865 -0.1565
25723SOL    HW179422   5.807   2.573   9.588 -1.2963 -1.9191 -0.6120
25723SOL    HW279423   5.676   2.632   9.539 -1.2507 -1.5320 -0.2742
25724SOL     OW79424   3.526   8.381   9.437  0.0824 -0.2450  0.1252
25724SOL    HW179425   3.619   8.400   9.423  0.6322 -0.9441  2.4292
25724SOL    HW279426   3.521   8.285   9.430 -0.2935 -0.2808  0.9007
25725SOL     OW79427   8.592   4.156   3.070  0.2661  0.2541 -0.3168
25725SOL    HW179428   8.594   4.151   2.974 -1.2631  0.2690 -0.3769
25725SOL    HW279429   8.564   4.068   3.097  0.2987  0.3676  0.0848
25726SOL     OW79430   9.291   0.090   4.494  0.7890  0.9002  0.1592
25726SOL    HW179431   9.267   0.007   4.452  1.7620  1.3114 -1.2758
25726SOL    HW279432   9.218   0.108   4.554  0.4176 -0.8280  0.2824
25727SOL     OW79433   7.730   5.194   1.918 -0.2949  0.2617  0.3757
25727SOL    HW179434   7.642   5.229   1.934 -0.7158 -1.0336  1.0074
25727SOL    HW279435   7.733   5.114   1.969  0.9171 -0.2231 -0.4335
25728SOL     OW79436   9.245   0.594   6.467 -0.3578  0.4362 -0.3722
25728SOL    HW179437   9.251   0.525   6.534 -1.1239 -1.2628 -1.9446
25728SOL    HW279438   9.263   0.675   6.514  3.5486 -1.0357  1.0592
25729SOL     OW79439   4.508   9.068   5.678 -0.3790 -0.7177  0.0193
25729SOL    HW179440   4.469   9.044   5.762 -1.5227  0.7838 -0.0378
25729SOL    HW279441   4.586   9.119   5.700 -1.5383  1.0455  0.2454
25730SOL     OW79442   2.064   6.073   4.429  0.2346 -0.6774 -0.0904
25730SOL    HW179443   2.087   5.984   4.455 -3.6627 -2.3133 -1.5888
25730SOL    HW279444   2.036   6.065   4.338 -3.9593  1.2076  0.8322
25731SOL     OW79445   1.275   7.757   6.784 -0.3336  0.1192  0.3862
25731SOL    HW179446   1.188   7.783   6.816 -0.5274 -0.7020  0.5425
25731SOL    HW279447   1.283   7.665   6.810 -1.1962 -1.1896 -3.3410
25732SOL     OW79448   9.842   3.140   0.337 -0.5233  0.0246  0.0949
25732SOL    HW179449   9.781   3.096   0.278 -0.1645 -0.8600  0.3833
25732SOL    HW279450   9.892   3.070   0.378  1.3295  0.7501 -0.8158
25733SOL     OW79451   2.800   7.104   1.050 -0.2317 -0.3059 -0.3767
25733SOL    HW179452   2.733   7.037   1.035  2.0059 -3.6852  2.8947
25733SOL    HW279453   2.752   7.179   1.085 -2.5151 -1.8500  0.0017
25734SOL     OW79454   2.459   4.230   9.436  0.3975  0.0752  0.0307
25734SOL    HW179455   2.475   4.139   9.413 -0.4286 -0.0068 -0.2402
25734SOL    HW279456   2.453   4.275   9.351 -0.4017  0.1656  0.1301
25735SOL     OW79457   2.099   5.353   6.763  0.3144  0.6478  0.2423
25735SOL    HW179458   2.018   5.391   6.797  0.5068  0.3573  1.0371
25735SOL    HW279459   2.168   5.409   6.799  0.4107  2.1481 -2.0512
25736SOL     OW79460   1.298   1.513   6.284 -0.2362 -0.1541  0.2340
25736SOL    HW179461   1.204   1.501   6.270 -0.2694  0.8181 -0.5746
25736SOL    HW279462   1.331   1.426   6.306 -1.0950 -0.7951 -0.8922
25737SOL     OW79463   7.736   0.353   9.934  0.3091 -0.0271  0.0196
25737SOL    HW179464   7.775   0.302   9.863  0.8731 -0.2539  0.4862
25737SOL    HW279465   7.665   0.296   9.966 -1.6088  1.0791 -1.9319
25738SOL     OW79466   0.437   0.146   7.504 -0.3791 -0.3885 -0.3584
25738SOL    HW179467   0.401   0.135   7.592  1.4987 -0.7274  0.4132
25738SOL    HW279468   0.478   0.233   7.505  0.6287 -0.8406 -0.4950
25739SOL     OW79469   5.598   3.678  10.141 -0.1253  0.2665 -0.3483
25739SOL    HW179470   5.667   3.611  10.135 -0.4845 -0.2057  0.5660
25739SOL    HW279471   5.587   3.692  10.235 -0.6563  0.9922 -0.5120
25740SOL     OW79472   4.555   3.341   8.326 -0.3499  0.1335 -0.2973
25740SOL    HW179473   4.525   3.385   8.405  1.4205  0.9786 -0.0614
25740SOL    HW279474   4.477   3.297   8.292 -1.3027  0.3548  1.5058
25741SOL     OW79475   8.446   1.935   4.592  0.3700  0.1615 -0.3544
25741SOL    HW179476   8.424   2.022   4.624 -1.3052 -0.3045 -0.1547
25741SOL    HW279477   8.383   1.877   4.634  2.8041 -1.5060  1.2770
25742SOL     OW79478   7.184   6.476   5.838  0.5859  0.2205 -0.0162
25742SOL    HW179479   7.118   6.459   5.906 -0.4453 -0.8245 -1.2108
25742SOL    HW279480   7.233   6.551   5.870 -0.6926  0.5432  1.2944
25743SOL     OW79481   9.310   1.769   4.095  0.0155  0.3047 -0.0891
25743SOL    HW179482   9.218   1.767   4.066  0.4844 -0.3944 -1.6888
25743SOL    HW279483   9.333   1.676   4.105  0.4409  0.4903  0.7108
25744SOL     OW79484   3.717   0.011   3.726  0.4789  0.2892  0.8563
25744SOL    HW179485   3.729   0.064   3.647 -0.6068 -0.5172  0.1206
25744SOL    HW279486   3.627   0.028   3.753 -0.0363 -1.4356  0.3707
25745SOL     OW79487   5.074   7.900   3.429  0.3295  0.5707 -0.1524
25745SOL    HW179488   5.139   7.873   3.364  1.6486  1.1296  0.8852
25745SOL    HW279489   5.005   7.943   3.378  0.6996 -0.1411 -1.2926
25746SOL     OW79490   4.146   8.868   6.322 -0.1007  0.0026 -0.1084
25746SOL    HW179491   4.119   8.900   6.408 -5.1283 -2.8685 -0.2256
25746SOL    HW279492   4.169   8.946   6.273 -3.0177  2.4775  2.1122
25747SOL     OW79493   3.626   2.671   6.815 -0.0758 -0.0603  0.2202
25747SOL    HW179494   3.692   2.686   6.747 -1.2724  0.7797 -0.7912
25747SOL    HW279495   3.676   2.636   6.889  1.3498 -0.4316 -0.8655
25748SOL     OW79496   9.148   8.637   8.158 -0.3498 -0.1890 -0.2222
25748SOL    HW179497   9.055   8.631   8.180 -0.3527 -1.2946 -0.4822
25748SOL    HW279498   9.155   8.593   8.073  0.1618  1.2548 -0.9547
25749SOL     OW79499   2.140  10.634   2.791 -0.1097  0.1088  0.0574
25749SOL    HW179500   2.066  10.580   2.763 -0.8499  1.7128 -1.2436
25749SOL    HW279501   2.132  10.639   2.886 -0.5003 -1.3536  0.1266
25750SOL     OW79502  10.523   6.754   0.107 -0.1811  0.4183  0.2015
25750SOL    HW179503  10.510   6.693   0.180  1.6628 -1.5403 -1.0095
25750SOL    HW279504  10.594   6.811   0.136 -0.4216  0.5933  0.4625
25751SOL     OW79505   7.921   1.347   8.635 -0.2922  0.1182  0.4268
25751SOL    HW179506   7.913   1.439   8.610  0.5976  0.2987  0.7835
25751SOL    HW279507   7.831   1.320   8.655 -0.5535  0.9246  0.3880
25752SOL     OW79508   4.210   6.413   5.230 -0.3359  0.6845  0.0817
25752SOL    HW179509   4.288   6.367   5.202  0.0339  0.9710  0.6226
25752SOL    HW279510   4.237   6.463   5.307  0.2231  4.5006 -2.3417
25753SOL     OW79511   0.818   1.648   4.175  0.4697 -0.7734  0.0989
25753SOL    HW179512   0.851   1.714   4.237 -1.3036 -0.8057  1.1334
25753SOL    HW279513   0.732   1.625   4.208 -0.1293 -1.5335 -1.8611
25754SOL     OW79514   0.587   9.107   8.469  0.4191 -0.9498 -0.0838
25754SOL    HW179515   0.617   9.120   8.558  0.1218 -0.9726  0.0217
25754SOL    HW279516   0.494   9.131   8.471  0.6421 -0.0162 -0.6037
25755SOL     OW79517   4.095   7.800   0.609  0.0386  0.7572 -0.2834
25755SOL    HW179518   4.061   7.867   0.668 -2.3281 -1.3367  0.9568
25755SOL    HW279519   4.155   7.748   0.662 -0.5693  0.0537 -0.2631
25756SOL     OW79520   7.126   1.592  10.313  0.0472  0.0873  0.4140
25756SOL    HW179521   7.201   1.618  10.366  0.4178  2.2995 -1.0713
25756SOL    HW279522   7.079   1.673  10.296 -2.4017 -1.1504  0.7919
25757SOL     OW79523  10.569   4.784  10.644 -0.2085  0.1483 -0.1847
25757SOL    HW179524  10.598   4.802  10.733 -1.1221  0.8346 -0.0013
25757SOL    HW279525  10.483   4.826  10.638 -1.4269 -2.1926 -0.5187
25758SOL     OW79526   3.017   9.988   0.610 -0.1194 -0.1225  0.4565
25758SOL    HW179527   3.004  10.016   0.520 -0.3235 -0.5492  0.3520
25758SOL    HW279528   3.063   9.905   0.603  2.3113  1.0814  0.8005
25759SOL     OW79529   4.277   8.744   2.222 -0.3958 -0.5041 -0.4902
25759SOL    HW179530   4.240   8.760   2.135  0.1779  3.7437 -0.1320
25759SOL    HW279531   4.372   8.742   2.208 -0.3603 -2.3366 -0.2150
25760SOL     OW79532   7.488   7.432   8.491  0.9307  0.3654  0.4586
25760SOL    HW179533   7.554   7.373   8.527  2.0253  0.7212 -0.8878
25760SOL    HW279534   7.451   7.477   8.567  0.0340 -2.0358  1.5367
25761SOL     OW79535   9.846   2.652   7.811  0.9316 -0.1420  0.3142
25761SOL    HW179536   9.773   2.714   7.812  1.5191  0.5737  1.6362
25761SOL    HW279537   9.819   2.582   7.869  0.8318 -0.4511 -0.1014
25762SOL     OW79538   5.563   7.606   6.481  0.1148 -0.0094 -0.1099
25762SOL    HW179539   5.597   7.536   6.538 -1.1076  0.6264  1.4895
25762SOL    HW279540   5.587   7.578   6.393 -0.0830 -2.3383  0.4828
25763SOL     OW79541  10.361   3.127   7.654  0.4800 -0.0408 -0.2203
25763SOL    HW179542  10.316   3.162   7.731  0.1014 -0.9110 -0.0408
25763SOL    HW279543  10.444   3.095   7.687  0.9616  0.9300 -0.4375
25764SOL     OW79544   8.045   6.875   3.966  0.0839 -0.1232 -0.3535
25764SOL    HW179545   7.984   6.808   3.999  0.7269 -0.6822 -0.2801
25764SOL    HW279546   7.989   6.949   3.943 -0.6136 -0.5839 -0.1693
25765SOL     OW79547   0.926   2.438   2.475 -0.1511  0.0329  0.0529
25765SOL    HW179548   0.929   2.432   2.380  1.9622 -3.5115  0.1304
25765SOL    HW279549   0.850   2.386   2.500  0.5922 -0.9780  0.2834
25766SOL     OW79550   6.049   8.854   0.777  0.4840  0.3103 -0.4636
25766SOL    HW179551   6.099   8.772   0.780 -1.5612 -1.0039 -0.4351
25766SOL    HW279552   5.973   8.838   0.832 -0.8963  1.5682 -1.9094
25767SOL     OW79553   8.210   5.471   3.023 -0.1327  0.0786  0.3284
25767SOL    HW179554   8.229   5.537   3.090 -0.1419 -0.1077  0.5129
25767SOL    HW279555   8.152   5.516   2.961  2.1934  1.2297 -1.1796
25768SOL     OW79556   7.110   9.977   3.121 -0.5751  0.2032 -0.4876
25768SOL    HW179557   7.109   9.957   3.027 -2.5028 -0.7264 -0.3121
25768SOL    HW279558   7.095   9.892   3.163  1.4632  0.3896  0.7502
25769SOL     OW79559   5.208   9.777   3.906  0.3561 -0.3649 -0.2194
25769SOL    HW179560   5.248   9.711   3.962 -0.9691 -0.9902  0.0309
25769SOL    HW279561   5.206   9.856   3.961  0.4943 -0.5438  0.0466
25770SOL     OW79562   5.244   8.666   5.635 -0.1588  0.0008  0.2751
25770SOL    HW179563   5.262   8.617   5.715  0.6131  0.6110  0.4915
25770SOL    HW279564   5.247   8.758   5.662 -3.8763  0.2437  0.3754
25771SOL     OW79565   0.900   2.450   7.816  0.0730 -0.3203  0.1603
25771SOL    HW179566   0.993   2.430   7.805 -0.5288 -3.4672 -0.1165
25771SOL    HW279567   0.880   2.511   7.745  1.1468 -2.6161 -2.2806
25772SOL     OW79568   1.268   8.063   6.702 -0.6459 -0.0558 -0.3402
25772SOL    HW179569   1.283   7.971   6.722  0.0902  0.0260 -0.5037
25772SOL    HW279570   1.322   8.080   6.625  0.2020  0.8314  0.4278
25773SOL     OW79571  10.481   6.931   3.752 -0.2645  0.3766  0.2066
25773SOL    HW179572  10.543   7.004   3.753  0.5211 -0.2643 -0.4090
25773SOL    HW279573  10.524   6.863   3.700 -1.6470  0.0562 -0.5870
25774SOL     OW79574   2.498   4.962   6.786 -0.0461 -0.2918 -0.5182
25774SOL    HW179575   2.418   4.952   6.734 -0.2882 -1.2948  0.0242
25774SOL    HW279576   2.468   5.000   6.868  0.3682  1.5257 -1.1616
25775SOL     OW79577   6.766   5.248   4.405  0.2680 -0.0470  0.7693
25775SOL    HW179578   6.684   5.238   4.358  0.0912 -0.0204  1.0690
25775SOL    HW279579   6.822   5.299   4.347  0.5902 -1.2905 -0.0715
25776SOL     OW79580   5.606   4.538   9.226 -0.2261 -0.1795  0.1133
25776SOL    HW179581   5.596   4.615   9.283  0.5126  0.3951 -0.5056
25776SOL    HW279582   5.527   4.538   9.172 -1.0751 -0.9044  1.3316
25777SOL     OW79583   9.175   7.062   1.628  0.0069 -0.2550  0.7272
25777SOL    HW179584   9.181   7.117   1.706 -0.4358  1.4648 -0.3983
25777SOL    HW279585   9.209   7.117   1.557 -0.3438 -1.4913 -0.4414
25778SOL     OW79586   3.670   4.853   7.716 -0.0387 -0.4449 -0.0933
25778SOL    HW179587   3.578   4.865   7.740 -0.4285  1.3592 -2.1663
25778SOL    HW279588   3.710   4.811   7.792 -2.1923  0.3645  1.5781
25779SOL     OW79589   6.717   2.497   2.161 -0.0465  0.0643  0.1509
25779SOL    HW179590   6.734   2.406   2.185  1.2697 -0.0871 -1.1458
25779SOL    HW279591   6.625   2.512   2.182 -0.6601 -1.9887 -0.8267
25780SOL     OW79592   0.378   2.750   8.901 -0.6725 -0.2196 -0.3663
25780SOL    HW179593   0.388   2.668   8.854 -0.0595  0.1347 -0.8810
25780SOL    HW279594   0.346   2.725   8.987 -0.7732 -0.9702 -0.6140
25781SOL     OW79595   0.901   2.340   2.959  0.0445 -0.0569  0.2328
25781SOL    HW179596   0.834   2.380   3.014  0.5032  1.2799 -0.1455
25781SOL    HW279597   0.977   2.330   3.017  0.9706  2.5591 -0.3908
25782SOL     OW79598   3.305   7.226   9.649 -0.0770 -0.8245  0.2136
25782SOL    HW179599   3.351   7.266   9.723  1.0268 -1.5447 -0.0481
25782SOL    HW279600   3.314   7.289   9.578  1.5072 -1.4091 -0.1491
25783SOL     OW79601   7.809   1.394   4.817  0.4938  0.4115 -0.0454
25783SOL    HW179602   7.779   1.427   4.902 -0.6440  0.6014 -0.5075
25783SOL    HW279603   7.818   1.300   4.830  0.5084  0.4658  0.3449
25784SOL     OW79604   1.773   2.301   3.905 -0.1035 -0.2458  0.1924
25784SOL    HW179605   1.750   2.338   3.990  1.6774 -1.4018  1.2365
25784SOL    HW279606   1.814   2.374   3.858 -0.3040  0.1765  0.6574
25785SOL     OW79607   0.082   0.529   8.841 -0.5469  0.0335 -0.5614
25785SOL    HW179608   0.014   0.465   8.820  0.8855 -1.2375 -1.4833
25785SOL    HW279609   0.069   0.548   8.934 -0.0871 -2.7865  0.1779
25786SOL     OW79610   8.040   7.239   0.156  0.7330 -0.1116  0.3811
25786SOL    HW179611   7.992   7.274   0.081 -0.0438 -0.6400  0.6195
25786SOL    HW279612   8.090   7.165   0.120  0.3866 -0.3439  0.3729
25787SOL     OW79613  10.650   6.065   7.199 -0.3718  0.1459 -0.1404
25787SOL    HW179614  10.744   6.081   7.198 -0.4197  0.4525  0.2852
25787SOL    HW279615  10.614   6.132   7.257 -0.8705  0.1178 -0.4078
25788SOL     OW79616   9.376  10.478   8.156  0.1832 -0.0829 -0.0834
25788SOL    HW179617   9.292  10.522   8.144 -0.9597 -2.1397 -0.0016
25788SOL    HW279618   9.395  10.438   8.072  0.1213 -1.2167  0.4327
25789SOL     OW79619   0.115   4.736   1.801  0.2224  0.3841 -0.3185
25789SOL    HW179620   0.089   4.707   1.714 -0.3729  0.2484 -0.0977
25789SOL    HW279621   0.068   4.817   1.816  1.8273  1.4797 -0.8970
25790SOL     OW79622   6.468   4.948   9.380 -0.1326 -0.0772 -0.0603
25790SOL    HW179623   6.491   4.869   9.331  0.7687  0.6145 -0.7983
25790SOL    HW279624   6.449   5.013   9.312  1.8928  1.1221  0.4674
25791SOL     OW79625   1.348   0.213   7.054  0.2615  0.2120 -0.4409
25791SOL    HW179626   1.269   0.250   7.015  1.9785  1.7635 -2.6952
25791SOL    HW279627   1.412   0.284   7.052  2.3398 -1.5380 -0.6064
25792SOL     OW79628   1.487   3.484   4.499  0.3080 -0.2283 -0.0657
25792SOL    HW179629   1.550   3.431   4.451  2.0117  1.1364  0.5397
25792SOL    HW279630   1.471   3.435   4.580  0.8277 -0.4704 -0.1043
25793SOL     OW79631   3.249   0.408   5.806  0.6406  0.5882 -0.2512
25793SOL    HW179632   3.174   0.467   5.818  0.6832  0.4149  1.0593
25793SOL    HW279633   3.233   0.365   5.722 -0.5332  0.8344 -0.1696
25794SOL     OW79634   7.875   2.978   0.503 -0.3746  0.6740 -0.0698
25794SOL    HW179635   7.892   3.017   0.588 -2.5775  0.4720  0.5270
25794SOL    HW279636   7.790   2.936   0.513  1.3732 -3.5481 -0.9282
25795SOL     OW79637   7.219   8.664   4.662  0.7875  0.1693 -0.3478
25795SOL    HW179638   7.258   8.678   4.576  0.6993  1.0958 -0.2471
25795SOL    HW279639   7.128   8.641   4.644  0.5029  1.3709 -0.4749
25796SOL     OW79640   3.359   6.627   2.721  0.1330 -0.1629  0.1288
25796SOL    HW179641   3.449   6.652   2.702  0.8189 -1.4484  1.5167
25796SOL    HW279642   3.352   6.537   2.690 -0.5216 -0.2509  0.5124
25797SOL     OW79643   0.007   2.930   5.539  0.5002  0.2138  0.8119
25797SOL    HW179644  -0.085   2.955   5.541  0.6413  0.8223  0.3034
25797SOL    HW279645   0.051   2.996   5.592  0.7626  0.5099  0.2365
25798SOL     OW79646   0.504   4.722  10.102 -0.5706 -0.2128 -0.3602
25798SOL    HW179647   0.452   4.787  10.054  0.0980 -0.5570 -1.5853
25798SOL    HW279648   0.440   4.675  10.156 -1.4336 -0.2069 -1.3588
25799SOL     OW79649   0.394   4.340   0.054  0.2074  0.5039  0.5433
25799SOL    HW179650   0.479   4.368   0.020  0.4864  0.1753  0.9571
25799SOL    HW279651   0.354   4.420   0.088  0.1267  0.7500 -0.1129
25800SOL     OW79652   8.156   3.568   0.924  0.8241 -0.0621 -0.7613
25800SOL    HW179653   8.146   3.663   0.926 -0.5992 -0.1270 -2.5068
25800SOL    HW279654   8.245   3.554   0.891  0.5379  0.7095 -1.9430
25801SOL     OW79655   8.001   6.793  10.425 -0.0803 -0.1777 -0.1149
25801SOL    HW179656   7.954   6.715  10.396 -0.1162 -0.0629 -0.3650
25801SOL    HW279657   7.979   6.801  10.518  1.0169 -1.2443  0.2580
25802SOL     OW79658   5.755   7.782   5.867 -0.2013 -0.2887  0.0086
25802SOL    HW179659   5.835   7.801   5.916  0.2075  1.3966 -1.2638
25802SOL    HW279660   5.772   7.696   5.827  0.5249 -0.4403  0.6048
25803SOL     OW79661   5.064   3.783   2.676 -0.3029 -0.3589 -0.1975
25803SOL    HW179662   5.068   3.783   2.771 -0.0574 -0.6539 -0.2042
25803SOL    HW279663   4.972   3.767   2.656 -0.5817  0.9380 -0.0174
25804SOL     OW79664   7.852   9.514   2.363  0.1765  0.1748 -0.1561
25804SOL    HW179665   7.773   9.467   2.390  1.0003 -0.0141  2.1230
25804SOL    HW279666   7.874   9.569   2.437  2.8678 -0.6791 -0.2061
25805SOL     OW79667   4.319   3.046   6.176 -0.6549  0.0469 -0.4925
25805SOL    HW179668   4.287   2.957   6.162 -4.1902  1.4868 -2.5617
25805SOL    HW279669   4.290   3.067   6.265  1.7872 -1.3146  0.7536
25806SOL     OW79670   9.290   2.959   4.367 -0.2181 -0.2160 -0.1395
25806SOL    HW179671   9.280   3.052   4.386 -0.1012 -0.5609  1.8890
25806SOL    HW279672   9.379   2.950   4.334 -1.0072  0.6760 -2.6616
25807SOL     OW79673   4.092   1.438   7.652 -0.0420  0.2443  0.2831
25807SOL    HW179674   4.070   1.345   7.645  2.6374 -0.5932  1.6593
25807SOL    HW279675   4.033   1.471   7.720  1.1806 -1.3209  2.2117
25808SOL     OW79676   6.776   8.513   2.877  0.0194  0.3697  1.1005
25808SOL    HW179677   6.784   8.426   2.915 -0.0503 -0.6856 -1.1950
25808SOL    HW279678   6.691   8.512   2.832  0.6833  1.0929 -0.2107
25809SOL     OW79679   9.817   1.481   8.799 -0.2729  0.0538  0.1711
25809SOL    HW179680   9.759   1.407   8.813 -0.5901  0.4371  0.9445
25809SOL    HW279681   9.892   1.445   8.752 -0.2800 -0.8213  0.8086
25810SOL     OW79682  10.116   6.352   4.016 -0.8146  0.0075  0.2084
25810SOL    HW179683  10.101   6.264   4.051  1.2035 -0.6679 -0.4741
25810SOL    HW279684  10.038   6.371   3.964 -0.5253 -2.1595 -1.1127
25811SOL     OW79685  10.505   7.436   4.338 -0.2377  0.1746 -0.5164
25811SOL    HW179686  10.414   7.409   4.326 -0.5785  0.4149  1.2896
25811SOL    HW279687  10.539   7.379   4.407  0.4713  1.1860  0.0080
25812SOL     OW79688   8.961   8.879   3.203  0.5695 -0.0223 -0.0588
25812SOL    HW179689   8.997   8.822   3.136 -0.3864  0.9385 -1.4421
25812SOL    HW279690   8.867   8.859   3.205  0.3574  0.9150 -0.0048
25813SOL     OW79691   5.446   8.653   4.295 -0.5053  0.3313  0.0062
25813SOL    HW179692   5.443   8.652   4.391 -0.8358 -2.1053  0.0524
25813SOL    HW279693   5.357   8.675   4.268 -0.7678 -0.3578  0.2951
25814SOL     OW79694   1.916   6.559   3.771  0.0151  0.5452  0.5594
25814SOL    HW179695   1.840   6.618   3.771 -0.1809  0.3121 -0.3592
25814SOL    HW279696   1.879   6.472   3.753  0.4722  0.3852  0.3766
25815SOL     OW79697   4.096   2.598   2.488  0.1791  0.2263 -0.2488
25815SOL    HW179698   4.138   2.534   2.545  0.0010 -0.7529 -1.1953
25815SOL    HW279699   4.026   2.551   2.445 -1.8497  1.7854  1.1485
25816SOL     OW79700   5.246   8.151   8.307  0.2086 -0.1073  0.0157
25816SOL    HW179701   5.298   8.089   8.257  2.2185  0.6509  1.0500
25816SOL    HW279702   5.226   8.222   8.245  1.1597 -0.0045 -0.1776
25817SOL     OW79703   9.032   6.629   8.515 -0.0904  0.0150 -0.5450
25817SOL    HW179704   9.032   6.536   8.537  2.8456 -0.2325 -1.1542
25817SOL    HW279705   9.105   6.665   8.564 -1.2869  2.0989 -0.1687
25818SOL     OW79706   5.486   5.474   5.236  0.4778  0.0932 -0.0113
25818SOL    HW179707   5.448   5.471   5.148 -0.1053  0.4741  0.2224
25818SOL    HW279708   5.419   5.515   5.290  0.7248 -0.3842  0.6744
25819SOL     OW79709   2.809  10.230   2.169  0.3172 -0.5282  0.5691
25819SOL    HW179710   2.744  10.178   2.216  0.4381  0.3913  1.7950
25819SOL    HW279711   2.830  10.178   2.091  0.0465 -2.0457  1.4832
25820SOL     OW79712   0.180   8.698   8.551  0.0273 -0.4578 -0.5246
25820SOL    HW179713   0.238   8.771   8.530 -1.1017  0.1070 -1.8121
25820SOL    HW279714   0.092   8.730   8.531 -0.5424 -1.9729 -0.5802
25821SOL     OW79715   4.539   4.603   6.672  0.4092  0.2471 -0.6649
25821SOL    HW179716   4.617   4.657   6.679 -0.7234  1.9151 -0.1924
25821SOL    HW279717   4.532   4.559   6.757  0.7061  0.2638 -0.6307
25822SOL     OW79718   2.767   5.699   1.175  0.0816  0.2311  0.1910
25822SOL    HW179719   2.704   5.627   1.171  1.8379 -1.4101  0.7292
25822SOL    HW279720   2.742   5.748   1.254 -0.6320 -0.2863  0.2969
25823SOL     OW79721   8.412   5.914  10.006 -0.2893 -0.0363  0.0372
25823SOL    HW179722   8.465   5.836   9.994  0.5500  0.7108 -1.5175
25823SOL    HW279723   8.362   5.921   9.924 -1.9316 -0.0812  1.0062
25824SOL     OW79724   4.185   9.338   8.355 -0.1649 -0.0761 -0.0657
25824SOL    HW179725   4.240   9.377   8.287 -0.9190 -1.0700 -1.2615
25824SOL    HW279726   4.227   9.254   8.375 -1.6883 -1.2687 -1.6418
25825SOL     OW79727   6.300   3.778   4.723 -0.4501 -0.0370 -0.4179
25825SOL    HW179728   6.236   3.707   4.733  0.1477 -0.5587 -0.1990
25825SOL    HW279729   6.324   3.801   4.813  0.6364 -0.7507 -0.5038
25826SOL     OW79730   3.989   2.707   2.027 -0.1169  0.3429  0.1281
25826SOL    HW179731   3.992   2.788   1.975  1.0338  0.6474  0.6349
25826SOL    HW279732   4.080   2.684   2.040 -0.4217 -0.5233  0.8014
25827SOL     OW79733   1.658   8.876   6.420 -0.4152  0.2588 -0.2859
25827SOL    HW179734   1.685   8.796   6.464 -2.5157 -1.0211 -1.1760
25827SOL    HW279735   1.718   8.885   6.346  1.7548  1.2478  1.4764
25828SOL     OW79736   2.612   4.975   4.938 -0.3619  0.3036 -1.3482
25828SOL    HW179737   2.687   4.982   4.997 -0.8962 -0.5027 -0.5322
25828SOL    HW279738   2.606   5.060   4.896 -0.2032  1.0694  0.0984
25829SOL     OW79739   8.624   1.443   3.099 -0.1394  0.0937 -0.2045
25829SOL    HW179740   8.590   1.408   3.182  1.6078  0.0332  0.5177
25829SOL    HW279741   8.643   1.535   3.117  0.9289 -0.0956 -0.3009
25830SOL     OW79742   0.685   0.435   9.454 -0.1247 -0.4922 -0.3655
25830SOL    HW179743   0.668   0.465   9.365 -0.0267 -0.4251 -0.3637
25830SOL    HW279744   0.689   0.340   9.448 -2.1648 -0.6247 -0.0693
25831SOL     OW79745   2.827   6.043   5.443  0.0546 -0.4926 -0.4257
25831SOL    HW179746   2.844   5.972   5.382 -0.1410 -1.1860  0.3066
25831SOL    HW279747   2.742   6.022   5.482 -1.0228  1.2411 -1.7002
25832SOL     OW79748   4.802   9.175   3.582  0.2761 -0.8106  0.7350
25832SOL    HW179749   4.717   9.136   3.561  0.0010 -0.2822  0.8565
25832SOL    HW279750   4.795   9.200   3.675 -0.1863  1.0972  0.2343
25833SOL     OW79751   6.333   8.254   0.110  0.3020 -0.5355 -0.6348
25833SOL    HW179752   6.321   8.348   0.100 -2.2064 -0.8323 -1.0315
25833SOL    HW279753   6.308   8.218   0.025  1.8568 -1.5516 -0.7020
25834SOL     OW79754   2.647   7.086   8.912 -0.3721  0.2172  0.1780
25834SOL    HW179755   2.564   7.092   8.865 -1.3288 -1.8033  1.4564
25834SOL    HW279756   2.652   7.167   8.963 -2.6193 -0.4636  1.6261
25835SOL     OW79757  10.287   6.518   0.901 -0.1921 -0.7427 -0.1261
25835SOL    HW179758  10.248   6.433   0.919 -0.4405 -0.4781  0.6339
25835SOL    HW279759  10.238   6.551   0.826 -0.7775 -0.8438  0.1986
25836SOL     OW79760   0.212   3.145   3.401  0.2284  0.1273 -0.2958
25836SOL    HW179761   0.238   3.057   3.373 -1.0814 -0.7277  1.0348
25836SOL    HW279762   0.118   3.149   3.383 -0.3476  0.1236  2.3069
25837SOL     OW79763   0.315   9.740   4.119  0.0133  0.2560 -0.3419
25837SOL    HW179764   0.397   9.749   4.168 -0.0592  0.6072 -0.2820
25837SOL    HW279765   0.254   9.700   4.181 -0.5844  2.2599  0.4454
25838SOL     OW79766   7.845   6.094   9.851  0.0800 -0.2737  0.2421
25838SOL    HW179767   7.879   6.183   9.849 -1.5738  0.3753 -0.1537
25838SOL    HW279768   7.902   6.048   9.913  0.8543  1.0886  0.5761
25839SOL     OW79769   2.579   2.732   0.237  0.3198  0.8607  0.2910
25839SOL    HW179770   2.605   2.815   0.277 -1.9058  0.7187  2.2237
25839SOL    HW279771   2.545   2.756   0.151  1.2456  1.7118  0.1429
25840SOL     OW79772   5.322   9.173   3.117 -0.8374 -0.0110  0.2509
25840SOL    HW179773   5.249   9.233   3.100 -1.0907 -0.1213  0.9226
25840SOL    HW279774   5.331   9.123   3.036 -0.5482  1.0040 -0.3604
25841SOL     OW79775   6.173   5.293   7.221  0.0128 -0.5650 -0.0648
25841SOL    HW179776   6.109   5.282   7.292  1.4208 -2.6640  0.9703
25841SOL    HW279777   6.134   5.246   7.147 -0.0701 -1.0290  0.2683
25842SOL     OW79778   7.620   4.420   1.731  0.6694  0.1556 -0.1367
25842SOL    HW179779   7.672   4.432   1.652 -0.4544  1.7681 -0.6742
25842SOL    HW279780   7.543   4.372   1.702 -0.1486  1.4792 -0.2220
25843SOL     OW79781   7.360   0.152   3.968  0.5122 -0.3758  0.5121
25843SOL    HW179782   7.332   0.205   3.893 -1.7412 -2.6087 -0.3822
25843SOL    HW279783   7.290   0.166   4.033  1.4986  0.0926  1.5014
25844SOL     OW79784   3.271   0.429   7.915  0.3247  0.3418 -0.4618
25844SOL    HW179785   3.271   0.517   7.952 -1.7471 -0.6517  2.2155
25844SOL    HW279786   3.343   0.384   7.960 -0.4923 -0.1189  0.4168
25845SOL     OW79787   9.875   0.827   6.327 -0.0826  0.4673  0.6589
25845SOL    HW179788   9.828   0.748   6.356  1.0636 -0.1929  0.7895
25845SOL    HW279789   9.828   0.855   6.248 -0.9090  0.0443  0.9873
25846SOL     OW79790   8.858   1.368   2.963  0.1661 -0.4911  0.8246
25846SOL    HW179791   8.845   1.327   2.877  0.0164  1.1478  0.0115
25846SOL    HW279792   8.770   1.377   2.999 -0.0900  1.1897 -0.0713
25847SOL     OW79793   6.696   7.452   3.004  0.0653  0.0919  0.5403
25847SOL    HW179794   6.755   7.457   2.929 -0.0274 -0.0867  0.4544
25847SOL    HW279795   6.741   7.499   3.074 -0.2132  0.9701  0.1355
25848SOL     OW79796   3.145   8.345   2.392  0.1167  0.2041  0.5135
25848SOL    HW179797   3.176   8.369   2.479  0.8599 -0.4029  0.4235
25848SOL    HW279798   3.206   8.387   2.332  0.8122 -1.0112  0.3355
25849SOL     OW79799   6.416   3.342  10.121 -0.4790  0.3479  0.2474
25849SOL    HW179800   6.415   3.247  10.107  0.7875  0.2755  0.5005
25849SOL    HW279801   6.458   3.353  10.206 -0.5056  1.1408  0.1657
25850SOL     OW79802   4.305   0.631   1.480  0.0068  0.4092 -0.2928
25850SOL    HW179803   4.375   0.627   1.545  1.5475  1.0340 -1.8412
25850SOL    HW279804   4.337   0.578   1.407 -1.0775  0.8099 -1.0811
25851SOL     OW79805   1.213   1.405   7.272 -0.2498 -0.3270 -0.5570
25851SOL    HW179806   1.143   1.366   7.323 -0.6371  0.9091 -0.1001
25851SOL    HW279807   1.177   1.488   7.241  1.7603  1.5250  1.7028
25852SOL     OW79808   1.849  10.599   4.360 -0.4937  0.0005 -0.5080
25852SOL    HW179809   1.853  10.693   4.379 -0.0239 -0.4191  1.7802
25852SOL    HW279810   1.788  10.592   4.287 -2.7031  1.8843  1.0097
25853SOL     OW79811   3.194   2.476   1.829 -0.2267 -0.3129  0.3318
25853SOL    HW179812   3.179   2.536   1.756  0.8054  0.3062  0.6121
25853SOL    HW279813   3.267   2.420   1.799  0.2392 -0.0191  0.8992
25854SOL     OW79814   4.461   6.950   8.596  0.4402 -0.3546  0.0536
25854SOL    HW179815   4.456   6.918   8.506 -0.6971 -1.2044  0.3851
25854SOL    HW279816   4.418   7.036   8.594  0.2742 -0.4428 -0.1920
25855SOL     OW79817   7.511   6.993   5.802 -0.0940  0.0064 -0.2509
25855SOL    HW179818   7.591   7.045   5.806  0.1931 -0.1954 -2.1846
25855SOL    HW279819   7.530   6.916   5.854  0.5243  0.5181  0.3043
25856SOL     OW79820   5.302   2.918   3.576  0.0811  0.2791 -0.0281
25856SOL    HW179821   5.352   2.999   3.584  0.9930 -0.1745 -0.8833
25856SOL    HW279822   5.318   2.888   3.486 -0.5342 -0.6581  0.1524
25857SOL     OW79823   5.525   7.994   3.223 -0.1986 -0.6711  0.4864
25857SOL    HW179824   5.526   7.975   3.130  0.1155  0.8618  0.1531
25857SOL    HW279825   5.578   8.073   3.233  0.2202 -1.0963  2.0370
25858SOL     OW79826   7.192   5.514   0.838 -0.0260 -0.4903 -0.5741
25858SOL    HW179827   7.183   5.485   0.748  1.1749 -0.9358 -0.5684
25858SOL    HW279828   7.245   5.447   0.880 -0.2512 -0.0953  0.3662
25859SOL     OW79829   7.094   8.908   0.537  0.5190 -0.3823  0.1407
25859SOL    HW179830   7.160   8.975   0.519  0.6718 -0.3866  0.6649
25859SOL    HW279831   7.144   8.826   0.541  0.5153 -0.3661  0.6963
25860SOL     OW79832   8.838   6.652   1.964 -0.4279  0.0553 -0.1770
25860SOL    HW179833   8.842   6.563   1.928 -0.1814  0.6201 -1.6387
25860SOL    HW279834   8.848   6.640   2.058 -0.6365 -1.4831 -0.3150
25861SOL     OW79835   8.247   4.895   1.536 -0.1361 -0.1019  0.5653
25861SOL    HW179836   8.316   4.844   1.577  0.0388  0.1987  0.6494
25861SOL    HW279837   8.167   4.871   1.583  0.1578  0.6967  1.4937
25862SOL     OW79838   6.411   1.781   7.372 -0.1708 -0.5113  0.0190
25862SOL    HW179839   6.501   1.764   7.344  0.4892 -0.5029  1.9718
25862SOL    HW279840   6.397   1.873   7.352 -0.1202 -0.7481 -1.1996
25863SOL     OW79841   0.002   2.881   5.229 -0.0135  0.1166 -0.1846
25863SOL    HW179842  -0.008   2.799   5.279 -1.7391  0.5110  0.2098
25863SOL    HW279843  -0.035   2.948   5.286 -1.8080  0.6292 -1.8205
25864SOL     OW79844   6.575   0.340   8.414 -0.2017  0.0951  0.2797
25864SOL    HW179845   6.497   0.386   8.447 -0.5478 -0.6605  0.5384
25864SOL    HW279846   6.573   0.255   8.458 -0.1099 -0.5565 -0.9374
25865SOL     OW79847   8.460   6.670   6.338 -0.0115  0.6004  0.3963
25865SOL    HW179848   8.422   6.695   6.253  0.6597  0.2692 -0.0008
25865SOL    HW279849   8.394   6.613   6.377 -0.6078  1.2547  0.3833
25866SOL     OW79850   3.200   0.497   0.718 -0.1774  0.3866  0.2805
25866SOL    HW179851   3.172   0.460   0.635  3.1501 -1.3036 -0.2542
25866SOL    HW279852   3.223   0.422   0.772  0.5651  1.5273  1.6331
25867SOL     OW79853   2.460   0.605   6.119 -0.1569  0.4099 -0.4168
25867SOL    HW179854   2.393   0.547   6.084  0.2299 -0.0486 -0.4044
25867SOL    HW279855   2.468   0.580   6.211  0.3069  0.2007 -0.5131
25868SOL     OW79856   2.993   8.917   8.853  0.0539  0.5364  1.0221
25868SOL    HW179857   2.984   8.845   8.915  0.5711  0.2297  0.7399
25868SOL    HW279858   3.020   8.992   8.906  0.8491  0.1848  1.1132
25869SOL     OW79859   6.786   9.280   2.124  0.0750 -0.3585 -0.6121
25869SOL    HW179860   6.826   9.333   2.193 -2.3792  0.9446 -0.0711
25869SOL    HW279861   6.797   9.190   2.154  2.3158 -0.0927 -0.4173
25870SOL     OW79862   2.306   7.564   4.115  0.1671 -0.5626  0.5613
25870SOL    HW179863   2.377   7.531   4.059 -1.9776 -1.3001 -1.8923
25870SOL    HW279864   2.275   7.486   4.161  1.4546 -0.0766  2.3930
25871SOL     OW79865   2.894   9.052   3.351  0.0158  0.4187 -0.6125
25871SOL    HW179866   2.950   8.974   3.343  1.7315  1.4487  0.5647
25871SOL    HW279867   2.886   9.066   3.445 -0.6261  1.4109 -0.8028
25872SOL     OW79868   0.769   4.337   5.722 -0.0400 -0.3405 -0.2614
25872SOL    HW179869   0.865   4.337   5.712 -0.1634 -0.2125 -1.6257
25872SOL    HW279870   0.750   4.257   5.772  0.7913 -0.2506  0.2171
25873SOL     OW79871   5.720   1.869  10.117  0.5504  0.3436  0.1129
25873SOL    HW179872   5.747   1.920  10.193  1.0276 -0.3528  0.4251
25873SOL    HW279873   5.628   1.848  10.133 -0.0881  2.3085 -0.7188
25874SOL     OW79874   6.518   4.520   8.125 -0.4633 -0.4285  0.1993
25874SOL    HW179875   6.452   4.456   8.095 -0.3443 -0.1237 -0.7642
25874SOL    HW279876   6.467   4.594   8.156 -0.5926 -0.3665 -0.1473
25875SOL     OW79877   0.912  10.526   4.473  0.0041 -0.3892 -0.2867
25875SOL    HW179878   0.990  10.480   4.504  0.1674  0.1005  0.0474
25875SOL    HW279879   0.864  10.461   4.423  0.4373 -0.8049 -0.1697
25876SOL     OW79880   2.281   6.158   1.383  0.0841  0.1929  0.2013
25876SOL    HW179881   2.370   6.148   1.349 -0.0352  0.2905 -0.1501
25876SOL    HW279882   2.269   6.084   1.443  0.8879  0.9503  1.3276
25877SOL     OW79883   6.710   3.296   6.980  0.0949 -0.0978 -0.0969
25877SOL    HW179884   6.707   3.239   7.056 -0.6107  0.8498  0.6025
25877SOL    HW279885   6.723   3.384   7.016  0.8653  0.2374 -1.1367
25878SOL     OW79886   2.008   1.435   2.810  0.5400 -0.3211 -0.0564
25878SOL    HW179887   2.103   1.436   2.806  0.5200 -0.9802 -2.7349
25878SOL    HW279888   1.981   1.373   2.742 -1.7997 -0.8322  1.2182
25879SOL     OW79889   1.110   7.127   1.808  0.3064 -0.1669  0.0832
25879SOL    HW179890   1.165   7.125   1.729  2.2834  0.4205  1.3828
25879SOL    HW279891   1.157   7.075   1.872 -1.7582 -1.4476  0.6487
25880SOL     OW79892   3.676   5.109   8.438 -0.7598  0.0177  0.3605
25880SOL    HW179893   3.751   5.049   8.440 -1.6529 -1.3003 -1.6512
25880SOL    HW279894   3.609   5.066   8.490 -0.6853  0.3587  0.7417
25881SOL     OW79895   6.340   3.667   2.111  0.4128  0.5637 -0.4487
25881SOL    HW179896   6.301   3.647   2.026  1.2862  0.0215 -0.7410
25881SOL    HW279897   6.434   3.648   2.100  0.3127 -1.2606  1.1288
25882SOL     OW79898   5.601   1.348   3.529 -0.6197  0.0427  0.0990
25882SOL    HW179899   5.641   1.331   3.614 -0.1911 -0.9890 -0.2899
25882SOL    HW279900   5.506   1.343   3.545 -0.5282 -0.9554  0.3662
25883SOL     OW79901   7.370   6.045   0.828  0.0904  0.1237  0.1564
25883SOL    HW179902   7.371   5.950   0.837 -1.1552  0.0804 -0.0024
25883SOL    HW279903   7.456   6.073   0.859  1.4793 -1.2590 -2.1237
25884SOL     OW79904   8.947   5.989   7.482 -0.1852 -0.7438 -0.3143
25884SOL    HW179905   8.871   5.956   7.434  0.4996 -0.2063 -1.8149
25884SOL    HW279906   8.920   6.077   7.511 -0.9265 -1.4124  1.1174
25885SOL     OW79907   7.552   7.563   7.671 -0.3834 -0.2692  0.1973
25885SOL    HW179908   7.627   7.619   7.693 -0.5304  0.2222 -0.5469
25885SOL    HW279909   7.478   7.623   7.663 -0.7676 -0.7000  0.4636
25886SOL     OW79910   4.422   9.220   0.880 -0.4262  0.0952 -0.3885
25886SOL    HW179911   4.380   9.274   0.947  1.5902 -0.5216  1.4962
25886SOL    HW279912   4.447   9.281   0.811  0.9201  1.4761  1.2409
25887SOL     OW79913   5.201   9.085   9.603 -0.2722 -0.3259  0.0429
25887SOL    HW179914   5.178   8.999   9.569 -0.7059 -0.7256  1.3225
25887SOL    HW279915   5.211   9.073   9.697  0.5839  0.8317  0.1230
25888SOL     OW79916   0.007   9.399   7.433 -0.2035 -0.0791 -0.7710
25888SOL    HW179917   0.092   9.354   7.427 -0.5070 -0.5574 -1.8687
25888SOL    HW279918   0.028   9.492   7.424  0.3066 -0.0913  0.1600
25889SOL     OW79919   6.588   6.799   0.428 -0.3278  0.5742 -0.7009
25889SOL    HW179920   6.497   6.787   0.399 -1.3333  1.6564  1.6740
25889SOL    HW279921   6.607   6.891   0.409  0.0298  0.5291 -0.5631
25890SOL     OW79922   8.499   1.450   8.851  0.8789  0.0415  0.0485
25890SOL    HW179923   8.426   1.388   8.852 -0.6208  1.7251  0.1968
25890SOL    HW279924   8.512   1.471   8.759  2.2366 -1.3805 -0.1266
25891SOL     OW79925   4.148   7.498   2.828  0.2373  0.0612  0.1521
25891SOL    HW179926   4.167   7.434   2.760 -0.9378 -0.6626  0.4703
25891SOL    HW279927   4.227   7.550   2.835  1.4685 -1.7425  0.2930
25892SOL     OW79928   9.211  10.491   0.985  0.3665  0.2610  0.3950
25892SOL    HW179929   9.174  10.453   1.065  1.4693 -0.3731  0.6247
25892SOL    HW279930   9.252  10.417   0.940  1.6451  0.9780  0.3243
25893SOL     OW79931   3.231   2.597   4.964  0.3487  0.3221  0.8411
25893SOL    HW179932   3.148   2.549   4.962  0.4655  0.1405  0.1799
25893SOL    HW279933   3.292   2.538   5.007 -0.0041  0.6960  1.8918
25894SOL     OW79934   9.253   7.777   0.252 -0.3511 -0.0318  0.3220
25894SOL    HW179935   9.219   7.784   0.341  1.3084 -0.0659  0.9967
25894SOL    HW279936   9.315   7.850   0.244  0.8364 -1.0602 -0.1734
25895SOL     OW79937   1.104   0.461   5.856  0.2760 -0.2963 -0.0036
25895SOL    HW179938   1.100   0.406   5.778  1.0891 -0.5943  0.1485
25895SOL    HW279939   1.185   0.434   5.900 -0.6835 -0.8434  1.4860
25896SOL     OW79940   9.175   2.777   6.474 -0.4414  0.2222 -0.6989
25896SOL    HW179941   9.212   2.860   6.444  0.4262  0.7082  1.4959
25896SOL    HW279942   9.081   2.791   6.476 -0.3784  0.7727 -1.3654
25897SOL     OW79943  10.643   9.094   9.636  0.0454 -0.3903  0.2134
25897SOL    HW179944  10.591   9.166   9.672 -0.2770  0.5007 -1.8604
25897SOL    HW279945  10.587   9.056   9.568  1.3556 -0.6815 -0.7415
25898SOL     OW79946   5.713   8.773   4.330 -0.3881  0.0691 -0.6831
25898SOL    HW179947   5.634   8.720   4.322 -0.3039 -0.0958 -0.4528
25898SOL    HW279948   5.782   8.717   4.294 -0.5690  0.7093 -2.1102
25899SOL     OW79949   2.427   6.652  10.469  0.0093  0.5781 -0.7817
25899SOL    HW179950   2.380   6.723  10.427 -2.1907 -0.4920 -0.2619
25899SOL    HW279951   2.396   6.654  10.560  0.3052 -0.7049 -0.6392
25900SOL     OW79952   6.036   8.731   8.889  0.1717  0.4273 -0.9508
25900SOL    HW179953   6.058   8.669   8.820  1.9821  1.2870 -1.2077
25900SOL    HW279954   6.098   8.710   8.960  1.0559  2.1242 -1.1805
25901SOL     OW79955   7.260   0.914   0.413 -0.4099 -0.2122 -0.3795
25901SOL    HW179956   7.233   0.995   0.369  2.7184  0.8467 -0.6439
25901SOL    HW279957   7.278   0.853   0.342  1.6459  0.4789 -0.5403
25902SOL     OW79958   5.247   9.204   3.502  0.2327  0.0049 -0.2072
25902SOL    HW179959   5.213   9.124   3.541  0.6198 -0.4422 -0.7536
25902SOL    HW279960   5.170   9.258   3.485 -0.1503 -0.7122 -0.8245
25903SOL     OW79961   0.850   4.968  10.020  0.2779 -0.0655 -0.2723
25903SOL    HW179962   0.890   5.047  10.056 -1.4355 -0.1809  2.0915
25903SOL    HW279963   0.813   4.922  10.095 -1.5621 -1.5089 -1.9174
25904SOL     OW79964   9.482  10.320   2.811  0.6119  0.5148  0.4525
25904SOL    HW179965   9.527  10.236   2.817  0.3581  0.3737  0.3834
25904SOL    HW279966   9.464  10.331   2.718 -1.8197 -0.6629  0.7239
25905SOL     OW79967   4.678  10.066   9.338 -0.1389 -0.4664 -0.1662
25905SOL    HW179968   4.609  10.098   9.395 -0.2937 -0.9292 -0.0898
25905SOL    HW279969   4.639   9.992   9.292  0.5470 -1.2357  0.4574
25906SOL     OW79970   2.271   6.956   4.774  0.0909 -0.1835 -0.1006
25906SOL    HW179971   2.251   6.901   4.698  0.8811 -0.6999  0.0521
25906SOL    HW279972   2.282   7.044   4.738  2.6078 -0.7582 -0.9674
25907SOL     OW79973   3.235   3.748   7.844 -0.9236  0.0855  0.3040
25907SOL    HW179974   3.294   3.688   7.889 -1.0569 -1.0485 -0.9435
25907SOL    HW279975   3.182   3.787   7.913 -0.0256 -0.3299  1.2579
25908SOL     OW79976  10.359   2.567   2.093  0.4675 -0.3977 -0.2741
25908SOL    HW179977  10.380   2.474   2.090 -0.4126 -0.6926  1.5888
25908SOL    HW279978  10.263   2.570   2.087  0.5137  0.4202 -0.7301
25909SOL     OW79979   1.264   8.714   7.437  0.1774 -0.5530  0.2867
25909SOL    HW179980   1.292   8.647   7.498 -0.0806  0.0054  1.0298
25909SOL    HW279981   1.287   8.797   7.479 -0.1141 -0.1527 -0.3130
25910SOL     OW79982  10.425   2.271   5.557 -0.4849  0.1028  0.5985
25910SOL    HW179983  10.496   2.335   5.554 -0.7645  0.3650 -1.5467
25910SOL    HW279984  10.345   2.323   5.555 -0.7201 -0.2766 -0.2483
25911SOL     OW79985   4.329   1.172   0.541  0.4291 -0.3964  0.3816
25911SOL    HW179986   4.402   1.179   0.479 -0.0686  1.1688 -0.0682
25911SOL    HW279987   4.369   1.186   0.627  0.6391  0.5860  0.1289
25912SOL     OW79988   9.949   8.340   7.158  0.6956  0.2150 -0.4058
25912SOL    HW179989   9.923   8.300   7.076  0.6569  0.0032 -0.2918
25912SOL    HW279990  10.022   8.288   7.189 -0.9010 -1.3487  0.9804
25913SOL     OW79991   9.212   5.137  10.557 -0.4895 -0.2022  0.1120
25913SOL    HW179992   9.223   5.141  10.652  0.6665  0.2189 -0.0154
25913SOL    HW279993   9.156   5.062  10.543 -1.2540  0.1420  1.1669
25914SOL     OW79994   9.968   7.700   3.231 -0.2992  0.8076 -0.4351
25914SOL    HW179995   9.893   7.687   3.289  1.2450 -0.9555  1.3013
25914SOL    HW279996  10.007   7.613   3.221  1.1153  1.5400 -1.8644
25915SOL     OW79997   8.200   9.845   0.586 -0.0002  0.1551 -0.2701
25915SOL    HW179998   8.148   9.896   0.648  0.5383 -0.3483  0.6152
25915SOL    HW279999   8.169   9.873   0.500 -0.5545  1.0816  0.2178
25916SOL     OW80000   5.585   2.438   2.295  0.1130  0.1758  0.0065
25916SOL    HW180001   5.626   2.495   2.360  1.9527  0.4881 -1.3574
25916SOL    HW280002   5.530   2.497   2.242  2.4827  0.9206 -1.7874
25917SOL     OW80003   4.691   3.738   0.307 -0.2865 -0.2926 -0.0544
25917SOL    HW180004   4.779   3.700   0.305  1.3812  3.2228 -1.0417
25917SOL    HW280005   4.665   3.734   0.399  1.0143 -1.1528  0.3075
25918SOL     OW80006   8.736   9.594  10.446  0.3185  0.2760  0.5526
25918SOL    HW180007   8.773   9.508  10.426 -0.5558  0.3068 -1.3341
25918SOL    HW280008   8.774   9.652  10.381 -1.2197  0.7662  0.0642
25919SOL     OW80009   0.538   1.863   5.274 -0.1201 -0.8780 -0.2358
25919SOL    HW180010   0.533   1.894   5.184 -0.1241  0.8069  0.3187
25919SOL    HW280011   0.565   1.939   5.325 -0.1080 -1.7942  1.1958
25920SOL     OW80012   8.467   3.353   2.042  0.3562  0.5004 -0.2805
25920SOL    HW180013   8.544   3.400   2.010  0.4907 -0.2896 -1.1741
25920SOL    HW280014   8.490   3.328   2.132  0.8734  0.8636 -0.3101
25921SOL     OW80015   3.895   9.796   8.516  0.1649  0.3211  0.2315
25921SOL    HW180016   3.966   9.739   8.547  0.1612  0.5597  0.6966
25921SOL    HW280017   3.879   9.855   8.590 -0.2618  0.5122 -0.0133
25922SOL     OW80018   3.609   6.091   5.394 -0.0024  0.0299 -0.2239
25922SOL    HW180019   3.665   6.156   5.351 -1.0412  1.0784 -0.0576
25922SOL    HW280020   3.567   6.139   5.465  1.6884 -1.6655  2.0544
25923SOL     OW80021   2.137   9.031   9.980  0.1854 -0.7062  0.0218
25923SOL    HW180022   2.062   8.989   9.937 -0.1783 -2.4954  2.2608
25923SOL    HW280023   2.207   8.967   9.974  0.5245 -0.4314  0.8914
25924SOL     OW80024   8.329   0.655   6.530  0.4227  0.3095 -0.3341
25924SOL    HW180025   8.327   0.671   6.625 -2.6964 -0.7301 -0.0813
25924SOL    HW280026   8.367   0.567   6.522 -1.4243 -0.6211  0.2862
25925SOL     OW80027   3.310   1.677   1.949  0.0931  0.0973  0.0887
25925SOL    HW180028   3.263   1.618   1.890  0.9782  1.0348 -1.6296
25925SOL    HW280029   3.247   1.746   1.968  0.1142  0.3034 -0.5702
25926SOL     OW80030   6.424   8.475   6.913  0.6153 -0.2438 -0.2419
25926SOL    HW180031   6.343   8.459   6.865  0.1329 -0.7755  0.7165
25926SOL    HW280032   6.466   8.547   6.866 -1.0509  0.9421 -0.0030
25927SOL     OW80033   4.853   9.497   6.674 -0.2116  0.5845 -0.0840
25927SOL    HW180034   4.934   9.495   6.723  0.6815 -2.1343 -1.4462
25927SOL    HW280035   4.794   9.439   6.722  0.8912 -2.6557 -2.2845
25928SOL     OW80036   8.481   1.110   4.568  0.2179  0.1039 -0.4311
25928SOL    HW180037   8.494   1.040   4.632 -1.5806 -0.1952 -0.3169
25928SOL    HW280038   8.531   1.184   4.602 -0.8924  0.0390  1.5075
25929SOL     OW80039   4.191   6.769   1.962 -0.5220  0.1529  0.1356
25929SOL    HW180040   4.284   6.774   1.985 -1.1828  0.8027  3.1094
25929SOL    HW280041   4.187   6.793   1.869  1.9269  3.9968  0.8201
25930SOL     OW80042   7.273   2.429  10.519 -0.6484 -0.5760  0.0235
25930SOL    HW180043   7.317   2.499  10.471  0.5299 -1.5852 -0.4380
25930SOL    HW280044   7.198   2.471  10.559 -0.7284  0.6645 -1.3366
25931SOL     OW80045   4.621   6.518   7.163 -0.5652  0.4798  0.2432
25931SOL    HW180046   4.548   6.478   7.114  0.7405 -1.0934 -0.5214
25931SOL    HW280047   4.687   6.537   7.096  0.4357  0.2007  1.1279
25932SOL     OW80048   6.500   7.934   4.788 -0.1338 -0.4546  0.3106
25932SOL    HW180049   6.428   7.889   4.744  1.3890 -0.6052 -2.2036
25932SOL    HW280050   6.470   8.025   4.794  0.0389 -0.1771 -2.2018
25933SOL     OW80051  10.288   9.584   1.842  0.2006 -0.2454 -0.1082
25933SOL    HW180052  10.341   9.529   1.900  0.2670 -1.1029 -0.9533
25933SOL    HW280053  10.318   9.673   1.859  0.9067 -0.5799  0.4581
25934SOL     OW80054   6.379   1.733   0.501 -0.2296  0.3058  0.0816
25934SOL    HW180055   6.448   1.777   0.549 -0.2796 -1.0629  1.4909
25934SOL    HW280056   6.301   1.788   0.515 -0.1194  0.2216  1.1333
25935SOL     OW80057  10.395   9.060   9.440 -0.1215 -0.0780 -0.4560
25935SOL    HW180058  10.412   9.055   9.346  0.8402 -0.0387 -0.3020
25935SOL    HW280059  10.366   9.150   9.455  0.7466  0.2406 -0.5835
25936SOL     OW80060   3.221   2.971   8.064 -0.2135 -0.6275  0.0504
25936SOL    HW180061   3.208   3.040   8.129  0.7995 -0.7425  0.3855
25936SOL    HW280062   3.227   2.891   8.115  3.4123 -0.4396  0.1646
25937SOL     OW80063  10.649   0.303   4.270  0.1385 -0.0381  0.4837
25937SOL    HW180064  10.578   0.259   4.222  0.9607 -1.2333  0.3196
25937SOL    HW280065  10.605   0.374   4.318 -1.0232 -0.1871 -0.3228
25938SOL     OW80066   2.059   6.418  10.191 -0.1951 -0.1387  0.3000
25938SOL    HW180067   1.992   6.377  10.247 -1.4724  0.6224 -0.6171
25938SOL    HW280068   2.033   6.510  10.187  1.6419  0.4364  0.9157
25939SOL     OW80069   2.107   7.660  10.491  0.3085 -0.0249 -0.0532
25939SOL    HW180070   2.176   7.664  10.425 -0.1714  2.1997 -0.4910
25939SOL    HW280071   2.038   7.715  10.457  0.3252  1.8330  2.6081
25940SOL     OW80072   2.544  10.355   6.630 -0.0530 -0.0597 -0.1696
25940SOL    HW180073   2.453  10.361   6.658 -0.7729 -0.9478 -2.1371
25940SOL    HW280074   2.552  10.268   6.591  2.5520 -1.3367  2.7896
25941SOL     OW80075  10.377   3.575  10.088  0.2245 -0.4431  0.2534
25941SOL    HW180076  10.283   3.571  10.106  0.4366 -1.8271  1.2370
25941SOL    HW280077  10.417   3.601  10.171  0.8702 -2.3895  0.6021
25942SOL     OW80078   9.599   0.071  10.033  0.2139 -0.1948  0.1949
25942SOL    HW180079   9.627   0.026  10.113 -2.9742  1.7663  2.6877
25942SOL    HW280080   9.504   0.075  10.040  0.0535  3.3596 -1.8364
25943SOL     OW80081   8.123   1.970   5.373 -0.5869  0.2208 -0.5541
25943SOL    HW180082   8.061   1.938   5.439 -0.1157 -1.1381 -0.7357
25943SOL    HW280083   8.205   1.983   5.422 -0.6979  0.9054 -0.5398
25944SOL     OW80084   7.993   5.476   6.703 -0.0763  0.3005  0.4186
25944SOL    HW180085   7.923   5.519   6.752 -0.1315  0.1452  0.4752
25944SOL    HW280086   7.958   5.390   6.681  0.2921  0.0183  0.9049
25945SOL     OW80087   6.365   2.441   3.317  0.0013 -0.7297  0.0757
25945SOL    HW180088   6.432   2.407   3.258  0.0149 -1.5450  0.5560
25945SOL    HW280089   6.414   2.467   3.396 -0.1076 -0.2635 -0.0030
25946SOL     OW80090   7.569   4.010   8.985 -0.0260  0.3590  0.6077
25946SOL    HW180091   7.571   3.914   8.983  0.9768  0.3012  2.1543
25946SOL    HW280092   7.638   4.037   8.925 -0.6598  0.1425 -0.2358
25947SOL     OW80093  10.468   5.937   3.550 -0.5006 -0.5077  0.0303
25947SOL    HW180094  10.493   5.890   3.629  0.3096  0.8149  0.5893
25947SOL    HW280095  10.402   6.000   3.579  0.2598  0.4155 -0.2053
25948SOL     OW80096  10.422   1.340   0.685 -0.6514  0.4650  0.3064
25948SOL    HW180097  10.365   1.412   0.658 -1.8088 -0.0835  1.1996
25948SOL    HW280098  10.475   1.321   0.607 -0.9656  1.6718 -0.2209
25949SOL     OW80099  10.332   9.888   5.986 -0.0417 -0.5336  0.1135
25949SOL    HW180100  10.342   9.983   5.978  1.7713 -0.7390 -0.3664
25949SOL    HW280101  10.342   9.856   5.896  0.7782 -1.2811  0.4649
25950SOL     OW80102   4.023   8.373   1.259  0.1350 -0.0799 -0.0421
25950SOL    HW180103   4.093   8.435   1.281  2.3370 -1.4750 -2.4921
25950SOL    HW280104   3.963   8.423   1.203 -0.1680  0.7673  0.9974
25951SOL     OW80105   2.119   0.358  10.034  0.2853 -0.4830  0.3003
25951SOL    HW180106   2.097   0.267  10.055  0.8694 -0.6626  0.1568
25951SOL    HW280107   2.118   0.403  10.118 -1.2163 -0.3437  0.2326
25952SOL     OW80108   3.035   7.822   1.000  0.3452  0.5121 -0.5707
25952SOL    HW180109   3.113   7.770   1.019 -0.5048 -0.3283  0.7592
25952SOL    HW280110   3.051   7.905   1.045  0.0799 -0.0009  0.4836
25953SOL     OW80111   3.556   0.232   2.852  0.0766 -0.9680  0.1471
25953SOL    HW180112   3.550   0.139   2.874  0.0312 -1.2201 -0.8532
25953SOL    HW280113   3.465   0.260   2.842  0.0765 -0.7218  0.7750
25954SOL     OW80114   6.788   6.002   6.582  0.0086  0.6177 -0.2816
25954SOL    HW180115   6.775   5.908   6.566 -1.5632  0.7740 -0.0840
25954SOL    HW280116   6.878   6.019   6.553  1.1148 -1.3728  1.7314
25955SOL     OW80117   3.326   8.521   0.598 -0.3107 -0.2381  0.3680
25955SOL    HW180118   3.339   8.436   0.557 -0.5570  0.3103 -0.9169
25955SOL    HW280119   3.355   8.510   0.688 -0.1905 -1.6291  0.1724
25956SOL     OW80120   3.565   9.764   1.991  0.8428 -0.1737  0.1535
25956SOL    HW180121   3.604   9.813   1.918 -0.2118 -0.4594 -0.6287
25956SOL    HW280122   3.484   9.727   1.954  1.0003 -1.4938  1.0710
25957SOL     OW80123   5.622   2.522   5.829  0.1989  0.6975  0.2203
25957SOL    HW180124   5.717   2.526   5.837  0.2934 -0.6407  0.0350
25957SOL    HW280125   5.596   2.446   5.882 -0.5778  0.0560 -1.0183
25958SOL     OW80126   4.704   6.119   6.229 -0.0017  0.0798  0.5735
25958SOL    HW180127   4.736   6.076   6.308 -2.0259  1.3330  2.1803
25958SOL    HW280128   4.644   6.187   6.261  1.1666  2.4757 -1.9319
25959SOL     OW80129   7.648   5.780   1.958  0.6528  0.3591 -0.5229
25959SOL    HW180130   7.725   5.731   1.987  0.4232  0.6271  0.6068
25959SOL    HW280131   7.573   5.730   1.989  0.4137  1.9021  1.6531
25960SOL     OW80132   6.721   6.546   4.663 -0.2820 -0.0657 -0.4607
25960SOL    HW180133   6.699   6.588   4.747 -1.7883 -0.9924 -0.3542
25960SOL    HW280134   6.700   6.612   4.597 -2.3940 -0.4985 -0.2771
25961SOL     OW80135   6.378   6.116   3.948 -0.0052  0.3374  0.3454
25961SOL    HW180136   6.437   6.053   3.908 -0.1243  0.6066 -0.2615
25961SOL    HW280137   6.419   6.137   4.032  0.1741 -0.3329  0.4315
25962SOL     OW80138   2.755   3.642   1.818  0.8687 -0.2820 -0.4946
25962SOL    HW180139   2.826   3.625   1.880  1.6496  1.4580 -0.8382
25962SOL    HW280140   2.799   3.672   1.738 -0.2234  0.8645 -0.7135
25963SOL     OW80141   3.927   5.264   2.825  0.0551  0.6694 -0.4000
25963SOL    HW180142   4.007   5.281   2.776  0.3928  0.8080  0.1933
25963SOL    HW280143   3.951   5.196   2.888  0.1432  1.7938  0.8308
25964SOL     OW80144   7.972   8.807   1.338  0.5526  0.0585 -0.2656
25964SOL    HW180145   7.891   8.756   1.339  0.8981 -0.6383  2.5590
25964SOL    HW280146   8.022   8.773   1.265 -0.6680 -1.2443 -0.5293
25965SOL     OW80147   3.921   5.012   3.557 -0.5524 -0.0527 -0.2140
25965SOL    HW180148   3.990   4.974   3.612 -0.7706  0.0337  0.1154
25965SOL    HW280149   3.843   4.960   3.576 -0.3070 -0.9441 -1.4800
25966SOL     OW80150   9.855   0.373   1.925 -0.3579 -0.9318  0.4641
25966SOL    HW180151   9.874   0.415   2.010 -0.5097  0.8100 -0.3279
25966SOL    HW280152   9.828   0.445   1.868  1.6141 -1.7184 -1.6422
25967SOL     OW80153   4.188  10.385   5.738  0.7185 -0.0597  0.4456
25967SOL    HW180154   4.259  10.450   5.732  2.0288 -1.5176 -0.7553
25967SOL    HW280155   4.202  10.328   5.662 -0.5600 -1.5947  1.3112
25968SOL     OW80156   8.146   3.094   8.993 -0.3449  0.1978  0.5860
25968SOL    HW180157   8.137   3.008   8.950  2.7505 -0.3029  0.6869
25968SOL    HW280158   8.112   3.080   9.081 -0.4883 -0.7605  0.3969
25969SOL     OW80159   0.707   2.743   2.328  0.2111  0.2480  0.3095
25969SOL    HW180160   0.629   2.696   2.357 -0.2251  0.5527 -0.3220
25969SOL    HW280161   0.698   2.830   2.367 -1.2090  1.2000 -1.9161
25970SOL     OW80162   9.224   2.853   0.413  0.0877  0.2663 -0.1033
25970SOL    HW180163   9.201   2.945   0.410 -0.2484  0.3395  2.5354
25970SOL    HW280164   9.318   2.852   0.434 -0.6833  0.2311  4.4395
25971SOL     OW80165   8.016   7.578   8.306  0.0764 -0.0470 -0.3873
25971SOL    HW180166   7.924   7.598   8.294 -0.4539 -1.5391  0.8439
25971SOL    HW280167   8.021   7.537   8.393  2.0379  0.8331 -0.0237
25972SOL     OW80168   1.671   4.221   2.865 -0.1629  0.7921  0.5579
25972SOL    HW180169   1.646   4.178   2.783 -1.2934 -0.4828  1.5263
25972SOL    HW280170   1.721   4.298   2.837  1.6980 -0.9474 -1.2683
25973SOL     OW80171   0.946   9.597   6.724  0.4824  0.6051  0.1665
25973SOL    HW180172   1.019   9.647   6.759  0.8173 -0.1009  0.4965
25973SOL    HW280173   0.874   9.613   6.784  0.7257  0.3229  0.5402
25974SOL     OW80174   5.772   8.765   8.782  0.2264  0.0709  0.1973
25974SOL    HW180175   5.839   8.725   8.838  1.1166 -2.5152 -2.4153
25974SOL    HW280176   5.689   8.731   8.815  0.6568 -0.7385  0.4839
25975SOL     OW80177   9.030  10.519   3.840 -0.1022  0.1350  0.2996
25975SOL    HW180178   8.961  10.483   3.896  1.2531  0.1332  2.0669
25975SOL    HW280179   9.062  10.445   3.789 -1.2351  0.0931 -0.3764
25976SOL     OW80180   1.193   6.557   8.562 -0.4113  0.0529  0.2331
25976SOL    HW180181   1.227   6.624   8.621 -1.7513  0.7023  0.3095
25976SOL    HW280182   1.184   6.600   8.478 -0.8758 -0.1458  0.1773
25977SOL     OW80183   4.521   5.309   4.906  0.1114 -0.1300  0.4683
25977SOL    HW180184   4.534   5.353   4.822  1.8367 -1.0108  0.2468
25977SOL    HW280185   4.598   5.331   4.957  0.7040 -2.2858  0.6039
25978SOL     OW80186   5.265   9.765   6.362 -0.4707 -0.0938 -0.0296
25978SOL    HW180187   5.357   9.773   6.338 -0.4305 -0.3832  0.0158
25978SOL    HW280188   5.233   9.855   6.370 -0.5782  0.0227 -1.5214
25979SOL     OW80189   8.768   8.026   3.595 -0.8095 -0.3819  0.2249
25979SOL    HW180190   8.768   8.036   3.500 -0.6125 -1.6916  0.0564
25979SOL    HW280191   8.750   7.933   3.609  1.3712 -0.6968  1.3881
25980SOL     OW80192   8.510   2.923   7.967 -0.2605  0.4424 -0.1149
25980SOL    HW180193   8.536   2.975   7.891 -0.6394 -0.1064 -0.6306
25980SOL    HW280194   8.420   2.896   7.947 -0.1497 -0.2113  0.2453
25981SOL     OW80195   5.546   2.022   4.936 -0.2389 -0.0815  0.1255
25981SOL    HW180196   5.634   2.048   4.964 -0.3082  0.8542 -0.4744
25981SOL    HW280197   5.524   1.947   4.991  0.4763  0.3901  1.0881
25982SOL     OW80198   9.447   0.499   6.275 -0.0647 -0.3101  0.5790
25982SOL    HW180199   9.399   0.432   6.226  0.6747 -0.2062 -0.3263
25982SOL    HW280200   9.388   0.525   6.345 -1.3291 -0.1824 -0.5060
25983SOL     OW80201  10.091   6.831   1.567 -0.2495 -0.0247  0.1032
25983SOL    HW180202  10.032   6.776   1.618 -0.5476 -1.1657 -1.4104
25983SOL    HW280203  10.066   6.815   1.476  1.7023  0.2842 -0.5249
25984SOL     OW80204   2.793   9.318   9.227 -0.1532  0.1847  0.2305
25984SOL    HW180205   2.887   9.309   9.243 -0.0483  0.2729 -0.3019
25984SOL    HW280206   2.768   9.236   9.185 -0.3570  0.0751  0.5662
25985SOL     OW80207   2.665   0.188   6.007 -0.0381  0.3332  0.1624
25985SOL    HW180208   2.623   0.193   6.092  0.9851 -0.0535  0.7014
25985SOL    HW280209   2.686   0.279   5.984  2.0847  0.2581  1.5679
25986SOL     OW80210   2.021   0.533   2.679 -0.3024 -0.9996  0.2015
25986SOL    HW180211   2.010   0.603   2.743  0.4224 -0.6489 -0.0433
25986SOL    HW280212   2.060   0.461   2.728 -0.6510 -1.0745  0.3652
25987SOL     OW80213   9.809   4.827   5.402 -0.1848 -0.4789  0.3510
25987SOL    HW180214   9.828   4.801   5.493 -2.4323 -1.4623  0.6194
25987SOL    HW280215   9.868   4.773   5.349  1.3741  0.3274  1.1899
25988SOL     OW80216   7.588   2.593   3.705 -0.1349  0.3796  0.5343
25988SOL    HW180217   7.655   2.656   3.678 -0.2789  0.7326  0.9949
25988SOL    HW280218   7.632   2.508   3.699 -0.3007  0.3818 -1.2670
25989SOL     OW80219   0.931   3.574   2.275  0.4341 -0.2069 -0.6099
25989SOL    HW180220   0.935   3.639   2.205 -0.4280 -0.2928 -0.7446
25989SOL    HW280221   0.956   3.491   2.233  0.0274 -0.2382 -0.7901
25990SOL     OW80222   8.914   2.279   4.890 -0.3334 -0.2672  0.0702
25990SOL    HW180223   9.006   2.265   4.912  0.8160  1.8030 -2.6699
25990SOL    HW280224   8.897   2.218   4.818 -1.6989 -1.7760  1.5811
25991SOL     OW80225   8.622   2.436   1.819 -0.8343 -0.1982  0.6693
25991SOL    HW180226   8.660   2.523   1.802  3.7609 -2.2314 -1.2226
25991SOL    HW280227   8.533   2.441   1.783 -0.1226  3.1947 -1.0335
25992SOL     OW80228   8.194   6.023   3.542  0.4635  0.0843  0.0642
25992SOL    HW180229   8.180   5.928   3.549 -0.8020  0.3801  3.0553
25992SOL    HW280230   8.233   6.035   3.455 -0.1111 -3.0634 -0.7623
25993SOL     OW80231   7.957   4.211   4.028 -0.2646  0.0400  0.2582
25993SOL    HW180232   7.982   4.271   3.958  0.8786  1.8023  2.0636
25993SOL    HW280233   8.031   4.213   4.089 -1.4879 -0.8972  1.8539
25994SOL     OW80234   9.117   6.750   4.870 -0.2709  0.0140  0.1187
25994SOL    HW180235   9.177   6.723   4.940 -1.6676 -0.8576  1.0386
25994SOL    HW280236   9.111   6.673   4.813 -3.2540 -1.3602  2.0379
25995SOL     OW80237   1.716   8.241  10.454 -0.0504  0.5770  0.4207
25995SOL    HW180238   1.635   8.286  10.430  0.0026  0.4872  0.0718
25995SOL    HW280239   1.772   8.310  10.491 -0.3569  0.6027  0.8388
25996SOL     OW80240   6.142   2.945   3.496  0.3505 -0.4497  0.2847
25996SOL    HW180241   6.188   2.893   3.430 -0.9770 -2.0691  0.5766
25996SOL    HW280242   6.050   2.919   3.488 -0.5193  2.2711  0.0871
25997SOL     OW80243   5.572   8.583   8.895 -0.1591 -0.1542  0.5169
25997SOL    HW180244   5.552   8.594   8.987 -1.0762 -0.0335  0.3095
25997SOL    HW280245   5.515   8.645   8.850 -0.4606 -0.9331 -0.1964
25998SOL     OW80246   9.187   1.293   6.282 -0.2410  0.2423 -0.1315
25998SOL    HW180247   9.235   1.377   6.280  0.9146 -0.3524  0.8320
25998SOL    HW280248   9.116   1.308   6.345 -0.1478  0.5576 -0.0987
25999SOL     OW80249   6.291   2.019   6.285 -0.0332 -0.5949  0.1113
25999SOL    HW180250   6.347   2.027   6.208 -0.9085  0.3022 -0.4555
25999SOL    HW280251   6.350   1.990   6.355  1.2391  0.7404 -0.3592
26000SOL     OW80252   5.049   5.131   6.823 -0.2215  0.4323 -0.6248
26000SOL    HW180253   5.008   5.137   6.737 -1.7084  0.5309  0.0524
26000SOL    HW280254   4.980   5.097   6.880  0.8228  0.0767  0.4714
26001SOL     OW80255   5.065   1.728   0.643 -0.5023 -0.4387  0.0538
26001SOL    HW180256   5.146   1.749   0.690 -0.6344  1.1070 -0.3528
26001SOL    HW280257   4.997   1.731   0.710 -0.7533  2.1789 -0.1940
26002SOL     OW80258   5.148   4.006   6.220  0.0304 -0.1414 -0.1623
26002SOL    HW180259   5.172   3.968   6.304 -1.9702 -1.8550 -0.2624
26002SOL    HW280260   5.231   4.017   6.174  0.9535 -1.8125  0.9924
26003SOL     OW80261   0.082   6.730   1.184  0.3342  0.0071  0.4228
26003SOL    HW180262   0.083   6.693   1.096 -1.3230 -0.2083  0.4582
26003SOL    HW280263   0.041   6.816   1.173 -1.9300 -0.8927  1.2361
26004SOL     OW80264   3.068   5.087   9.976  0.2464 -0.1910  0.0863
26004SOL    HW180265   3.011   5.027  10.025 -1.2701  0.5773 -0.6559
26004SOL    HW280266   3.130   5.120  10.041 -0.3025 -0.8907  0.9866
26005SOL     OW80267   6.718   6.021   9.413  0.0786  0.7913 -0.3984
26005SOL    HW180268   6.773   6.086   9.370  0.4350  0.7521 -0.0089
26005SOL    HW280269   6.728   5.942   9.361 -1.5834  1.4436 -1.8032
26006SOL     OW80270   6.774   2.255   3.900  0.8228  0.5208  0.0192
26006SOL    HW180271   6.721   2.191   3.853  0.3586  1.0221 -0.1479
26006SOL    HW280272   6.789   2.215   3.986 -0.3689  0.6461  0.2963
26007SOL     OW80273   8.406   4.881   0.952 -0.3306 -0.2907 -0.2813
26007SOL    HW180274   8.350   4.830   1.010 -1.9717  2.0404  0.3707
26007SOL    HW280275   8.365   4.873   0.866 -0.1631 -0.6260 -0.3319
26008SOL     OW80276   2.843   9.057   1.117  0.7016 -0.4547 -0.2702
26008SOL    HW180277   2.831   9.126   1.183  1.2260 -0.4997 -0.1202
26008SOL    HW280278   2.797   8.981   1.153 -0.0102 -0.1515 -0.5068
26009SOL     OW80279   8.846   2.132   2.445 -0.0843 -0.1135  0.6964
26009SOL    HW180280   8.817   2.141   2.536 -0.7234 -0.1647  0.5008
26009SOL    HW280281   8.933   2.093   2.451  0.0748  0.3134  1.3049
26010SOL     OW80282   6.336   0.189   3.170 -0.1243 -0.2702 -0.1804
26010SOL    HW180283   6.330   0.184   3.266 -0.4959 -0.0605 -0.1900
26010SOL    HW280284   6.416   0.239   3.154 -0.0893 -0.2590  0.0244
26011SOL     OW80285   7.799   2.476   5.189  0.4150  0.6331 -0.0788
26011SOL    HW180286   7.713   2.518   5.191 -0.2065 -0.6133  0.6567
26011SOL    HW280287   7.779   2.382   5.190  1.7975  0.3022  1.9611
26012SOL     OW80288  10.029   8.165   4.663 -0.0489  0.6426 -0.5029
26012SOL    HW180289  10.057   8.084   4.707  1.2905  1.5115  0.2843
26012SOL    HW280290  10.082   8.234   4.703 -1.8918  2.0850 -0.4204
26013SOL     OW80291   2.375  10.597  10.400  0.7269  0.2034  0.1050
26013SOL    HW180292   2.383  10.669  10.462 -1.2373  1.5544 -1.0814
26013SOL    HW280293   2.464  10.565  10.389  1.8107  2.9179  0.1829
26014SOL     OW80294   2.268   0.775   9.267 -0.3662 -0.0742 -0.2570
26014SOL    HW180295   2.323   0.850   9.243 -0.3284 -0.0953 -0.2375
26014SOL    HW280296   2.280   0.766   9.361 -0.6687  0.1307 -0.1975
26015SOL     OW80297   5.009   1.999  10.186 -0.3311  0.8056  0.0073
26015SOL    HW180298   4.992   2.084  10.227 -1.0604  0.7341 -0.1163
26015SOL    HW280299   4.923   1.973  10.151 -0.0322  0.1926 -0.2788
26016SOL     OW80300   8.296   4.871   3.209 -0.7200  0.3544 -0.1219
26016SOL    HW180301   8.338   4.820   3.139 -1.9091 -1.0639  0.1423
26016SOL    HW280302   8.341   4.843   3.289  0.2101  1.5067 -0.2118
26017SOL     OW80303   3.282   2.640   5.594  0.4726 -0.2574  0.4768
26017SOL    HW180304   3.353   2.692   5.632  2.0211 -0.8085 -1.4677
26017SOL    HW280305   3.262   2.574   5.659  0.9374  0.6125  1.5320
26018SOL     OW80306   1.836   1.316   7.023  0.2434 -0.2519 -0.2952
26018SOL    HW180307   1.791   1.387   7.070  0.1053 -0.8581  0.5205
26018SOL    HW280308   1.877   1.359   6.948  0.5258  0.7733  0.4162
26019SOL     OW80309   9.994   6.818   5.661  0.5019 -0.0359 -0.5908
26019SOL    HW180310   9.933   6.747   5.685  1.0770 -0.0350  1.0073
26019SOL    HW280311  10.065   6.810   5.724  0.1508  2.5120  0.2434
26020SOL     OW80312   4.668   5.533   7.765  0.3260 -0.2084 -0.3124
26020SOL    HW180313   4.735   5.587   7.807  0.2032 -0.9255  0.8500
26020SOL    HW280314   4.714   5.453   7.739  0.8374  0.9062 -3.2937
26021SOL     OW80315   0.920   2.379   9.588 -0.4513 -0.2613 -0.2773
26021SOL    HW180316   0.910   2.335   9.504  0.8108 -0.1945 -0.4871
26021SOL    HW280317   0.878   2.464   9.576 -1.7764 -0.8917 -0.2760
26022SOL     OW80318   3.036   3.629   8.976 -0.4454 -0.6060 -0.2437
26022SOL    HW180319   3.020   3.629   9.071  2.1961  0.3118  0.2798
26022SOL    HW280320   2.977   3.696   8.942 -0.6291 -0.1377  0.9353
26023SOL     OW80321   1.884   1.167   5.384 -0.4909  0.2540 -0.0340
26023SOL    HW180322   1.953   1.105   5.411  0.1481  0.8655 -0.2425
26023SOL    HW280323   1.914   1.202   5.300 -0.6831  1.0900  0.2367
26024SOL     OW80324   7.371   6.442   6.452  0.2073  0.0573  0.0589
26024SOL    HW180325   7.302   6.440   6.519 -0.7456  0.3108 -0.8794
26024SOL    HW280326   7.328   6.480   6.375  1.1803 -0.5278 -0.7964
26025SOL     OW80327   3.034   4.242   6.287  0.1770  0.4034 -0.0944
26025SOL    HW180328   3.056   4.240   6.380  0.2451  1.8485 -0.0548
26025SOL    HW280329   3.115   4.269   6.243 -0.2145  1.0347 -0.4374
26026SOL     OW80330   2.342   4.450   8.534 -0.0089  0.4065 -0.6035
26026SOL    HW180331   2.366   4.357   8.545  0.4530  0.4300 -1.3464
26026SOL    HW280332   2.279   4.467   8.604  0.4897 -0.2631  0.0231
26027SOL     OW80333   8.472   0.858   4.435  0.0345 -0.0174 -0.4029
26027SOL    HW180334   8.397   0.842   4.492  0.9362  0.9441  1.1270
26027SOL    HW280335   8.470   0.952   4.418  0.7648 -0.0173 -0.5247
26028SOL     OW80336   6.207   4.341   5.221 -0.2121 -0.1165 -0.0303
26028SOL    HW180337   6.288   4.320   5.267 -0.6273  0.8770  1.2086
26028SOL    HW280338   6.235   4.395   5.147  0.2631  0.3441  0.4741
26029SOL     OW80339   3.512   5.847   6.326 -0.0428  0.1100  0.1845
26029SOL    HW180340   3.470   5.804   6.400 -0.3702 -1.5881 -0.9529
26029SOL    HW280341   3.445   5.848   6.258  0.9420 -0.3318 -0.8091
26030SOL     OW80342   6.543   6.977   7.575 -0.2340  0.3960 -0.3871
26030SOL    HW180343   6.452   7.005   7.573 -0.1165  0.7734 -1.9670
26030SOL    HW280344   6.586   7.031   7.509  0.3628 -2.2006 -2.2748
26031SOL     OW80345   2.454  10.614   9.605  0.0898 -0.2049  0.1337
26031SOL    HW180346   2.490  10.556   9.538 -0.6453  1.4834 -1.8517
26031SOL    HW280347   2.362  10.592   9.610 -0.0853  0.4119 -0.2470
26032SOL     OW80348  10.488   3.730   9.262  0.4495 -0.5780 -0.2252
26032SOL    HW180349  10.419   3.663   9.264  1.4721 -1.6733 -0.4977
26032SOL    HW280350  10.494   3.756   9.171  0.2945 -0.3527 -0.1739
26033SOL     OW80351   6.378   1.047   9.725 -0.1989 -0.0913 -0.2500
26033SOL    HW180352   6.425   1.018   9.804 -1.6445  2.1877  1.5387
26033SOL    HW280353   6.324   0.971   9.701 -1.2276 -0.2201  2.1699
26034SOL     OW80354   7.394   0.442   7.969  0.3337  0.1209  0.4056
26034SOL    HW180355   7.416   0.421   7.879 -1.4334  1.4914 -0.4169
26034SOL    HW280356   7.454   0.390   8.022  0.8557 -1.3406 -1.5402
26035SOL     OW80357   2.200   1.429   7.899 -0.0779  1.2051  0.6358
26035SOL    HW180358   2.253   1.479   7.960  1.3283  0.1778  0.3022
26035SOL    HW280359   2.109   1.448   7.925  0.4225  2.9873  1.2205
26036SOL     OW80360   7.464   7.393   7.207  0.3069 -0.0283  0.1167
26036SOL    HW180361   7.482   7.479   7.168 -3.0207 -0.1852 -2.1550
26036SOL    HW280362   7.550   7.362   7.236  1.7585  3.6877  0.3378
26037SOL     OW80363   8.978   8.849   6.003  0.3397 -0.5992 -0.0509
26037SOL    HW180364   9.041   8.914   6.033  0.9724 -0.2909 -1.9038
26037SOL    HW280365   9.028   8.767   6.001  0.1304 -0.7390  0.2701
26038SOL     OW80366   3.274   7.582   0.678 -0.0321 -0.3216  0.2798
26038SOL    HW180367   3.206   7.539   0.730 -0.2118  0.2585  0.5339
26038SOL    HW280368   3.338   7.512   0.660 -0.2629 -0.6697  0.7714
26039SOL     OW80369   1.604   6.557   9.717 -0.3757  0.0521 -0.0958
26039SOL    HW180370   1.579   6.543   9.626 -1.3638 -1.1027  0.3409
26039SOL    HW280371   1.631   6.471   9.749  2.0033  0.8012  0.1403
26040SOL     OW80372   5.121   9.156   9.233 -0.2505 -0.4098 -0.0422
26040SOL    HW180373   5.201   9.176   9.283  0.1989 -0.1561 -0.8464
26040SOL    HW280374   5.056   9.136   9.300  0.4986 -0.6768  0.6330
26041SOL     OW80375   8.715   1.440   7.026 -0.2887  0.0473  0.4335
26041SOL    HW180376   8.626   1.476   7.032 -0.4682 -0.3397  0.1604
26041SOL    HW280377   8.738   1.450   6.933 -1.2704 -2.6623 -0.2085
26042SOL     OW80378   6.654   7.799   2.506 -0.4822 -0.6474 -0.3121
26042SOL    HW180379   6.723   7.840   2.455 -0.6016 -0.2838 -0.1890
26042SOL    HW280380   6.574   7.812   2.455 -0.5443 -0.5962 -0.2040
26043SOL     OW80381   4.601   0.881   4.458 -0.0899 -0.1319  0.0914
26043SOL    HW180382   4.536   0.943   4.493 -1.2550 -0.1812 -1.8128
26043SOL    HW280383   4.654   0.934   4.399  2.3643  0.1268  2.3462
26044SOL     OW80384   4.520   2.569   4.645 -0.0364 -0.8339 -0.3428
26044SOL    HW180385   4.426   2.588   4.637 -0.2667 -1.6540  0.2944
26044SOL    HW280386   4.559   2.652   4.673 -0.6591 -0.6307 -0.0585
26045SOL     OW80387   9.868   7.505   8.722  0.3025  0.0217 -0.2182
26045SOL    HW180388   9.911   7.445   8.661  1.6432  0.1631  0.5566
26045SOL    HW280389   9.926   7.509   8.798 -1.4463 -0.3435  1.2167
26046SOL     OW80390   3.167   1.196   4.519 -0.5019  0.0724  0.3223
26046SOL    HW180391   3.163   1.269   4.581  1.1276 -1.4276  2.3641
26046SOL    HW280392   3.205   1.124   4.570  1.0455 -1.2422 -2.4607
26047SOL     OW80393   2.909   7.530   3.308 -0.0412  0.5056  0.1884
26047SOL    HW180394   2.902   7.438   3.283  0.8797  0.4259  0.1768
26047SOL    HW280395   3.002   7.541   3.330  0.3442  1.9451 -1.8949
26048SOL     OW80396   5.153   5.486   5.610  0.1236  0.5261 -0.9090
26048SOL    HW180397   5.137   5.490   5.705  1.0092 -0.9351 -0.6622
26048SOL    HW280398   5.113   5.404   5.582  0.6172  0.5298 -1.6447
26049SOL     OW80399   0.699   5.480   3.020  0.5005 -0.1386  0.4487
26049SOL    HW180400   0.746   5.522   3.092  0.4005 -0.0595  0.4685
26049SOL    HW280401   0.745   5.397   3.007 -0.5542 -0.9800  1.7884
26050SOL     OW80402  10.101   9.629  10.206 -0.6451  0.1171 -0.6620
26050SOL    HW180403  10.161   9.665  10.271 -0.2984  0.2334 -1.0411
26050SOL    HW280404  10.038   9.699  10.191 -0.2497  0.3939 -1.0472
26051SOL     OW80405   8.374   6.324   9.146 -0.4878 -0.1551  0.3026
26051SOL    HW180406   8.325   6.375   9.082 -1.2817  0.2570  1.2175
26051SOL    HW280407   8.416   6.255   9.095  1.2223  1.8044 -1.1039
26052SOL     OW80408   3.395   2.483   6.204  0.0625  0.6710 -0.1113
26052SOL    HW180409   3.442   2.416   6.253 -0.9229 -1.6147 -2.1341
26052SOL    HW280410   3.303   2.471   6.228 -0.4987 -0.7607 -2.6448
26053SOL     OW80411   8.989   5.122   3.387 -0.4762 -0.1436  0.3320
26053SOL    HW180412   8.990   5.137   3.292  0.1771 -1.5732  0.0849
26053SOL    HW280413   9.018   5.206   3.424  1.2280 -0.1506 -0.8513
26054SOL     OW80414   1.689   3.766   8.832  0.4357  0.1557 -0.5799
26054SOL    HW180415   1.678   3.788   8.739  1.0552 -0.0934 -0.7144
26054SOL    HW280416   1.759   3.824   8.862 -0.2027  0.6927 -0.0990
26055SOL     OW80417   5.970   4.072   4.683  0.2911  0.0916 -0.1293
26055SOL    HW180418   6.044   4.018   4.657 -0.4592  0.1541 -2.6903
26055SOL    HW280419   6.006   4.161   4.689  0.5509  0.0503 -0.9106
26056SOL     OW80420  10.224   1.799   9.647 -0.0406 -0.3755 -0.1098
26056SOL    HW180421  10.309   1.835   9.620 -0.4637  0.8782  0.1466
26056SOL    HW280422  10.161   1.841   9.588 -0.4136 -2.0251 -0.9397
26057SOL     OW80423   4.140   5.750   7.282  0.3754  0.7750 -0.4226
26057SOL    HW180424   4.144   5.655   7.285 -0.5705  0.7535  1.2002
26057SOL    HW280425   4.066   5.770   7.226 -0.6676  0.4945  0.8176
26058SOL     OW80426   1.500   4.867   9.185  0.7491 -0.1624  0.7933
26058SOL    HW180427   1.596   4.866   9.190  0.7938 -1.3744 -0.0140
26058SOL    HW280428   1.474   4.925   9.256  2.0815  0.2180  1.0130
26059SOL     OW80429   7.772   8.478   6.207  0.1721  0.1432  0.3717
26059SOL    HW180430   7.820   8.545   6.256 -0.2478 -0.5562  1.8101
26059SOL    HW280431   7.680   8.503   6.216 -0.0289 -0.8923  1.3911
26060SOL     OW80432   8.014   6.637   6.355 -0.1674 -0.3773 -0.7192
26060SOL    HW180433   7.956   6.697   6.308 -0.2317 -1.0455 -1.5109
26060SOL    HW280434   7.978   6.550   6.338 -0.3467 -0.6366  0.7922
26061SOL     OW80435   6.851   8.226   8.296 -0.6410  0.5347 -0.2449
26061SOL    HW180436   6.905   8.149   8.282 -2.4315 -1.0371  0.8905
26061SOL    HW280437   6.909   8.291   8.336  0.3392 -1.2140  1.2955
26062SOL     OW80438   3.185   6.455   0.293  0.1163  0.3713  0.9083
26062SOL    HW180439   3.121   6.405   0.243 -1.2559  1.7011  1.2493
26062SOL    HW280440   3.231   6.390   0.346  0.6174 -0.8746 -0.9766
26063SOL     OW80441   5.704   2.988   1.168 -0.1794  0.1498  0.3455
26063SOL    HW180442   5.747   2.905   1.188  0.7343  0.5710  0.2072
26063SOL    HW280443   5.659   3.012   1.248  1.5639  0.7002  1.2115
26064SOL     OW80444   9.495   4.787   2.262  0.2948  0.2171 -0.6138
26064SOL    HW180445   9.439   4.858   2.232  0.4913  0.8304  0.4153
26064SOL    HW280446   9.583   4.825   2.265  0.7986 -0.7399 -2.2248
26065SOL     OW80447   0.428   9.770   6.133  0.3539 -0.2034 -0.1339
26065SOL    HW180448   0.458   9.819   6.209 -1.5164 -1.3289  1.4201
26065SOL    HW280449   0.428   9.679   6.161 -0.3245 -0.6588 -1.4973
26066SOL     OW80450   8.653   2.899   4.546 -0.4576 -0.4725 -0.4004
26066SOL    HW180451   8.675   2.807   4.534 -2.3332 -0.8231 -1.4802
26066SOL    HW280452   8.558   2.901   4.549 -0.4463  1.3852  0.1900
26067SOL     OW80453   7.877   2.892   8.785  0.1228 -0.0834 -0.0800
26067SOL    HW180454   7.805   2.935   8.739 -1.1831 -2.1340 -0.0808
26067SOL    HW280455   7.913   2.831   8.721 -1.4000 -2.6269  1.3110
26068SOL     OW80456   0.218   5.019   6.224 -0.0819 -0.0642 -0.0970
26068SOL    HW180457   0.291   4.971   6.263 -0.1699  1.6793  2.4668
26068SOL    HW280458   0.253   5.105   6.204 -1.2463  0.6155  0.6365
26069SOL     OW80459   5.432   1.842   3.464  0.6078 -0.5968 -0.7129
26069SOL    HW180460   5.501   1.908   3.470  0.0819 -0.1101  0.2043
26069SOL    HW280461   5.385   1.849   3.547 -0.3282 -1.1549 -1.1808
26070SOL     OW80462   4.401   9.517   6.099 -0.0828 -0.5584  0.0337
26070SOL    HW180463   4.450   9.487   6.175 -1.9847 -1.7708  0.8488
26070SOL    HW280464   4.382   9.609   6.118  0.9017 -0.3822  0.2089
26071SOL     OW80465   0.728   4.088   5.827 -0.0558 -1.2170 -0.0399
26071SOL    HW180466   0.636   4.087   5.854 -0.1593 -2.0022 -0.3933
26071SOL    HW280467   0.749   3.995   5.812  0.8116 -1.0508  0.1107
26072SOL     OW80468   6.551   4.651  10.473  0.5357  0.6899  0.1808
26072SOL    HW180469   6.607   4.703  10.530  1.1068  1.9178 -1.3880
26072SOL    HW280470   6.487   4.714  10.440 -0.6015 -0.2778  0.4666
26073SOL     OW80471   4.925   7.012   4.394 -0.2864 -0.1947 -0.2984
26073SOL    HW180472   4.941   6.964   4.475  0.0036 -0.5734 -0.5755
26073SOL    HW280473   4.879   7.091   4.421 -2.0551 -1.2885  0.0078
26074SOL     OW80474   6.670   8.444   0.462  0.4454 -0.3862  0.4692
26074SOL    HW180475   6.708   8.492   0.388 -0.2395 -0.6698 -0.0759
26074SOL    HW280476   6.745   8.419   0.516  0.9546 -0.1992 -0.1473
26075SOL     OW80477   4.879   2.290   3.599  0.0486 -0.1982  0.5611
26075SOL    HW180478   4.809   2.330   3.547  0.5796  2.8735  1.9540
26075SOL    HW280479   4.948   2.272   3.535 -0.3561  0.8830 -0.2295
26076SOL     OW80480   5.942   3.040  10.316  0.1934  0.0640  0.2537
26076SOL    HW180481   6.005   3.026  10.245  0.0980  0.2555  0.1296
26076SOL    HW280482   5.995   3.051  10.394  0.3155  0.2491  0.1450
26077SOL     OW80483   7.475   9.145   2.185 -0.0038 -0.7374  0.3836
26077SOL    HW180484   7.473   9.068   2.242  0.8908 -1.2610 -0.2617
26077SOL    HW280485   7.437   9.115   2.102  0.3965 -0.5125  0.1106
26078SOL     OW80486   9.509   7.880   6.212 -0.6719 -0.3245  0.8411
26078SOL    HW180487   9.569   7.868   6.286 -0.4627 -2.8211  0.3488
26078SOL    HW280488   9.422   7.880   6.251 -0.5516 -1.3681  1.1212
26079SOL     OW80489   4.914   7.648   6.448 -0.1416  0.9952  0.2457
26079SOL    HW180490   4.824   7.618   6.455 -0.4959  2.1407  0.9200
26079SOL    HW280491   4.967   7.568   6.449 -1.1679  0.2864 -0.7560
26080SOL     OW80492   1.159   1.829   1.891  0.3480  0.1437  0.1874
26080SOL    HW180493   1.141   1.786   1.975 -0.7310  1.1620  0.4995
26080SOL    HW280494   1.118   1.772   1.826 -0.7569  0.4788  0.5677
26081SOL     OW80495   3.252   9.759   0.892  0.0975  0.8697  0.0557
26081SOL    HW180496   3.274   9.666   0.898 -2.1045  0.1867 -1.0619
26081SOL    HW280497   3.176   9.769   0.950  0.0831  1.8728 -0.1250
26082SOL     OW80498   9.046   8.184   2.789  0.1346  0.6598  0.6722
26082SOL    HW180499   9.124   8.128   2.800 -0.4544 -0.3867 -0.2973
26082SOL    HW280500   8.993   8.165   2.867 -0.5930 -1.0666 -0.1838
26083SOL     OW80501   8.914   9.799   7.984  0.0663  0.1204 -0.4190
26083SOL    HW180502   8.923   9.734   8.054 -1.4196  0.1295 -0.1804
26083SOL    HW280503   8.979   9.865   8.004  0.1903 -0.2717  0.5235
26084SOL     OW80504   4.856   6.404   6.505 -0.8983  0.0521  0.6552
26084SOL    HW180505   4.871   6.452   6.424 -0.8758 -0.3423  0.4251
26084SOL    HW280506   4.775   6.441   6.540 -2.2240 -1.3963 -0.7615
26085SOL     OW80507  10.643   8.540   0.739 -0.1774  0.3254 -0.2412
26085SOL    HW180508  10.607   8.628   0.729  1.7282  1.2222  0.3493
26085SOL    HW280509  10.734   8.548   0.712 -0.0758 -1.5943 -0.6151
26086SOL     OW80510   0.983   2.769   7.163  0.1070 -0.1517 -0.0425
26086SOL    HW180511   0.961   2.729   7.247  1.3538 -1.0411 -0.0991
26086SOL    HW280512   0.910   2.747   7.105 -0.4774 -0.0414  0.6444
26087SOL     OW80513   9.563   5.578   9.878  0.0474 -0.1816 -0.3111
26087SOL    HW180514   9.618   5.518   9.929  0.9236  1.1843  0.3800
26087SOL    HW280515   9.476   5.571   9.918 -0.0655 -1.5628 -0.7409
26088SOL     OW80516   7.951   5.933   7.520  0.1249  0.9962  0.0053
26088SOL    HW180517   7.931   5.843   7.496 -0.2166  0.6808  1.3939
26088SOL    HW280518   7.945   5.935   7.616  1.0442  2.2726  0.0723
26089SOL     OW80519   9.371   5.438   3.502  0.8900  0.6272  0.1628
26089SOL    HW180520   9.371   5.418   3.408  0.3554  1.0337  0.0721
26089SOL    HW280521   9.452   5.398   3.535 -0.5612 -2.5929  0.1775
26090SOL     OW80522   6.637   2.863   5.118  0.0838 -0.0031 -0.3348
26090SOL    HW180523   6.652   2.803   5.190  0.8583 -0.3809 -0.8037
26090SOL    HW280524   6.599   2.809   5.048 -1.2497  0.4756 -0.0177
26091SOL     OW80525   3.390   3.645   2.888  0.4175  0.5168  0.0254
26091SOL    HW180526   3.376   3.570   2.945 -0.7856  0.6449 -0.0733
26091SOL    HW280527   3.484   3.645   2.870  1.0910  1.2156  3.0463
26092SOL     OW80528   3.267   9.010   7.415  0.0179 -0.5578  0.0243
26092SOL    HW180529   3.311   8.975   7.338  1.8238  0.8756  0.3438
26092SOL    HW280530   3.266   9.105   7.402 -0.8946 -0.3850  1.1392
26093SOL     OW80531   3.787   4.356   8.857 -0.2486  0.5727 -0.5087
26093SOL    HW180532   3.700   4.370   8.822 -1.3022  2.0556  2.3543
26093SOL    HW280533   3.774   4.296   8.931  1.6118 -1.2340 -1.5052
26094SOL     OW80534   6.963   7.619   5.813  0.1549 -0.0728 -0.0198
26094SOL    HW180535   6.869   7.637   5.803  0.1653 -0.4775 -0.8994
26094SOL    HW280536   7.003   7.705   5.827 -0.3342  0.1129  0.2598
26095SOL     OW80537   4.308   9.404   2.118  0.0203  0.1509  0.1780
26095SOL    HW180538   4.309   9.439   2.029 -1.3142 -1.8198 -0.6932
26095SOL    HW280539   4.258   9.468   2.168  1.7928  1.8815 -0.1737
26096SOL     OW80540   9.080   2.076   7.413  0.1361  0.0776  0.1154
26096SOL    HW180541   9.089   2.126   7.495  1.4703 -0.7951  0.5409
26096SOL    HW280542   9.016   2.008   7.434  1.9413 -1.4227  1.1683
26097SOL     OW80543   6.775   9.074   3.239 -0.0248 -0.3798 -0.6189
26097SOL    HW180544   6.773   8.991   3.191 -1.9106 -1.8123  1.6716
26097SOL    HW280545   6.688   9.080   3.279  0.8069  1.5950  1.0855
26098SOL     OW80546   1.828   9.855   2.789  0.2667 -0.2579  0.2270
26098SOL    HW180547   1.895   9.855   2.721  0.0187  0.7585 -0.0363
26098SOL    HW280548   1.804   9.763   2.800  2.1960 -0.7512  0.8242
26099SOL     OW80549   3.519   5.528   4.869  0.4833  0.0811  0.0269
26099SOL    HW180550   3.566   5.547   4.950  1.1319  0.1516 -0.3653
26099SOL    HW280551   3.483   5.440   4.882 -0.6404  0.6545  0.9548
26100SOL     OW80552   2.303   9.189   2.679  0.3317 -0.0548  0.0217
26100SOL    HW180553   2.241   9.117   2.689  1.5799 -1.4116 -1.4914
26100SOL    HW280554   2.266   9.243   2.610 -1.9604  2.3916  2.8685
26101SOL     OW80555   7.511   8.688   8.361 -0.6472 -0.7838  0.2819
26101SOL    HW180556   7.458   8.608   8.365 -0.1984 -1.0440  1.5892
26101SOL    HW280557   7.558   8.681   8.278 -1.8316 -1.0766 -0.3831
26102SOL     OW80558   8.289   6.294   6.710 -0.0583 -0.0539  0.1373
26102SOL    HW180559   8.362   6.341   6.750  1.7590 -2.6305  0.0999
26102SOL    HW280560   8.324   6.262   6.627 -1.0625 -1.7628  0.3231
26103SOL     OW80561   6.703   9.959   9.648  0.4139  0.0278  0.3765
26103SOL    HW180562   6.786   9.996   9.620 -0.6018  1.9074 -0.3629
26103SOL    HW280563   6.638   9.998   9.589 -0.9463 -1.8397  0.5363
26104SOL     OW80564   8.727   9.549   5.794 -0.0559 -0.2294  0.1342
26104SOL    HW180565   8.706   9.601   5.717  1.5902 -0.3346 -0.4112
26104SOL    HW280566   8.722   9.612   5.867  1.6497  0.7055 -0.4821
26105SOL     OW80567   7.688   6.436   5.631  0.1221 -0.1635  0.1636
26105SOL    HW180568   7.626   6.484   5.686 -0.3220 -0.2668 -0.2497
26105SOL    HW280569   7.668   6.343   5.647  0.1709 -0.1971  0.0311
26106SOL     OW80570   1.396   5.191   2.751 -0.5123 -0.0423  0.5075
26106SOL    HW180571   1.474   5.226   2.707  0.1829 -0.8368  1.0884
26106SOL    HW280572   1.376   5.256   2.818  0.6334 -0.6058  1.4279
26107SOL     OW80573   7.746   7.871   6.192  0.3765 -0.3955 -0.2884
26107SOL    HW180574   7.774   7.800   6.250 -0.5402 -0.9668 -0.5121
26107SOL    HW280575   7.803   7.864   6.116 -1.6405 -2.9629 -1.7513
26108SOL     OW80576   6.986   9.851   1.225  0.0170  0.2612 -0.1677
26108SOL    HW180577   7.068   9.814   1.254 -0.6036 -1.3686 -0.4100
26108SOL    HW280578   6.946   9.887   1.304  0.4958  0.1656  0.1195
26109SOL     OW80579   3.244   3.507   4.444  0.3637 -0.5971  0.1712
26109SOL    HW180580   3.193   3.500   4.525  0.1330 -1.4829 -0.0341
26109SOL    HW280581   3.321   3.452   4.460 -0.4264 -2.0387 -0.7395
26110SOL     OW80582   9.588   2.881   4.897  0.3960 -0.6083  0.6848
26110SOL    HW180583   9.570   2.799   4.944  0.3719  0.6258  2.9929
26110SOL    HW280584   9.659   2.921   4.947 -0.7201  1.5508  0.6585
26111SOL     OW80585   2.424   3.506   2.557 -0.3082  0.3302  0.0118
26111SOL    HW180586   2.371   3.559   2.498 -0.3546 -0.2888 -0.5100
26111SOL    HW280587   2.482   3.569   2.600  0.3062  0.7031 -1.3073
26112SOL     OW80588   2.243   5.461   4.176  0.4919 -0.8513  0.0295
26112SOL    HW180589   2.315   5.447   4.115  0.9238 -0.6099  0.4785
26112SOL    HW280590   2.285   5.488   4.258 -0.1577  0.2097  0.0281
26113SOL     OW80591   4.142   4.708   2.864  0.4878  0.3083  0.3127
26113SOL    HW180592   4.202   4.771   2.905  2.8018 -1.1360 -0.6242
26113SOL    HW280593   4.177   4.696   2.775 -1.2712 -0.5688 -0.3086
26114SOL     OW80594   9.722   9.968   8.394 -0.2367  0.1767  0.6908
26114SOL    HW180595   9.658  10.033   8.424 -1.6012  0.1524 -1.9237
26114SOL    HW280596   9.775  10.015   8.330 -1.3085 -1.2300 -1.3211
26115SOL     OW80597  10.047   2.389   0.997  0.4089  0.1188 -0.0142
26115SOL    HW180598   9.982   2.320   1.009 -0.3827  1.1852  2.2919
26115SOL    HW280599  10.106   2.354   0.929 -1.3233 -1.7617 -0.6599
26116SOL     OW80600   9.639   4.141   7.699  0.0545 -0.5988 -0.1204
26116SOL    HW180601   9.724   4.174   7.673 -0.3035  1.5790  1.2284
26116SOL    HW280602   9.636   4.153   7.794 -1.1039 -2.2533  0.0970
26117SOL     OW80603   8.815   7.094   5.077  0.3442  0.2854  0.2526
26117SOL    HW180604   8.870   7.020   5.102  0.2016 -0.3140 -1.1411
26117SOL    HW280605   8.749   7.099   5.147  1.6728  0.5420  1.5320
26118SOL     OW80606   5.629   1.830   4.220 -0.3627  0.1902  0.3058
26118SOL    HW180607   5.566   1.864   4.156  0.5170  0.8058 -0.2431
26118SOL    HW280608   5.678   1.764   4.172 -1.0757 -0.8482  0.9532
26119SOL     OW80609   2.425   7.777   1.109 -0.1115 -0.2878 -0.2767
26119SOL    HW180610   2.510   7.812   1.081  0.2409  1.2983  2.4422
26119SOL    HW280611   2.430   7.684   1.088  1.7674 -0.0003 -1.3737
26120SOL     OW80612   4.135   0.776   6.044  0.0749  0.3689  0.1048
26120SOL    HW180613   4.099   0.855   6.084  0.5213  0.2961  0.6600
26120SOL    HW280614   4.072   0.707   6.064  0.3772  0.2981  0.8337
26121SOL     OW80615   6.586   9.559   7.930  0.2036 -0.5041  0.1066
26121SOL    HW180616   6.630   9.534   7.849  0.2489  1.8534 -0.6452
26121SOL    HW280617   6.654   9.600   7.983 -0.5168  0.9142 -0.0387
26122SOL     OW80618   8.094  10.418   0.588 -0.0849 -0.3503 -0.2783
26122SOL    HW180619   8.138  10.389   0.668  0.7333  0.5008 -0.4099
26122SOL    HW280620   8.154  10.480   0.548 -0.1384 -1.3184 -1.9670
26123SOL     OW80621   7.306   8.023   9.478  0.5001  0.1406  0.5344
26123SOL    HW180622   7.297   8.111   9.442 -1.6071 -0.9491 -1.9436
26123SOL    HW280623   7.232   8.014   9.537 -0.1270 -0.3788 -0.3011
26124SOL     OW80624   8.693   2.110   0.652  0.0786 -0.5821 -0.3639
26124SOL    HW180625   8.724   2.080   0.737 -0.5980  0.0417  0.1086
26124SOL    HW280626   8.739   2.193   0.638 -0.2630 -0.3893 -0.3372
26125SOL     OW80627   5.011   1.885   7.548 -0.3055  1.0951 -0.0271
26125SOL    HW180628   4.949   1.958   7.554 -1.6074 -0.0210  0.8529
26125SOL    HW280629   4.958   1.812   7.514  0.6818  0.2619  0.1868
26126SOL     OW80630   3.123  10.202   7.831  0.1200  0.3875  0.3766
26126SOL    HW180631   3.042  10.230   7.788 -0.6224 -0.3703  1.2461
26126SOL    HW280632   3.190  10.261   7.796 -0.8650  1.2784 -0.0720
26127SOL     OW80633   4.477   0.927   4.917 -0.5012 -0.1812 -0.2907
26127SOL    HW180634   4.504   0.860   4.855 -0.1592 -1.5880  1.3145
26127SOL    HW280635   4.404   0.888   4.964 -0.1242  0.4456  0.8505
26128SOL     OW80636   9.176   0.166   6.107 -0.1102  0.3326  0.2904
26128SOL    HW180637   9.215   0.206   6.029 -1.0778  0.7477  0.0106
26128SOL    HW280638   9.173   0.072   6.087 -1.7029  0.5880 -0.7920
26129SOL     OW80639   8.180   3.749  10.072  0.2449 -0.2299 -0.5698
26129SOL    HW180640   8.192   3.724   9.981 -1.0519 -0.8758 -0.5779
26129SOL    HW280641   8.181   3.845  10.072  2.1104 -0.2009 -0.9714
26130SOL     OW80642   6.424   6.128   8.856  0.2881 -0.4478 -0.1546
26130SOL    HW180643   6.431   6.194   8.787 -1.8885  0.3407  0.3038
26130SOL    HW280644   6.465   6.169   8.933  0.0245 -0.1164 -0.1899
26131SOL     OW80645   2.528   7.319   2.509 -0.0307 -0.5851  0.2917
26131SOL    HW180646   2.545   7.360   2.425  1.1122  1.4136  1.4316
26131SOL    HW280647   2.459   7.372   2.549 -0.4925 -1.4482  0.6866
26132SOL     OW80648   8.554  10.382   0.675  0.0844  0.2480  0.3935
26132SOL    HW180649   8.463  10.353   0.674 -0.8131  2.7876 -1.1185
26132SOL    HW280650   8.559  10.448   0.606  2.6189  1.5457  1.6699
26133SOL     OW80651   0.234   1.917   9.464  0.3498 -0.1787 -0.0086
26133SOL    HW180652   0.216   2.006   9.435  2.2728  0.1960 -0.1835
26133SOL    HW280653   0.266   1.928   9.554  0.9017 -0.6434 -0.1429
26134SOL     OW80654   1.913   0.020   1.045 -0.1275 -0.0449  0.0085
26134SOL    HW180655   1.843  -0.044   1.030 -0.5897  0.0490  1.5284
26134SOL    HW280656   1.948   0.038   0.958 -2.4197  0.4039 -0.9034
26135SOL     OW80657   2.107   6.291   2.356  0.4013 -0.4107 -0.0605
26135SOL    HW180658   2.155   6.322   2.434  1.5833 -2.1649 -0.0212
26135SOL    HW280659   2.129   6.354   2.288  1.9873 -0.5796  0.2380
26136SOL     OW80660  10.140   0.072   9.343 -0.4924 -0.3392 -0.2340
26136SOL    HW180661  10.122   0.057   9.436 -0.3380 -0.7896 -0.2760
26136SOL    HW280662  10.147   0.167   9.335  0.6199 -0.3428  0.4308
26137SOL     OW80663   8.610   4.618   1.711 -0.5620 -0.4172 -0.1608
26137SOL    HW180664   8.673   4.673   1.665 -1.3210 -0.2930 -1.0819
26137SOL    HW280665   8.653   4.533   1.719 -0.0533 -0.1688 -0.2625
26138SOL     OW80666   4.039   1.278   6.401 -0.6799  0.0259 -0.0450
26138SOL    HW180667   4.025   1.184   6.409 -1.1288 -0.0255 -1.3227
26138SOL    HW280668   4.080   1.303   6.484 -1.0647 -1.1922  0.5288
26139SOL     OW80669   7.661   2.364   1.389 -0.3067  0.6493 -0.0039
26139SOL    HW180670   7.728   2.431   1.396 -0.0894  0.4285  0.0443
26139SOL    HW280671   7.637   2.364   1.296  1.5085 -0.9387 -0.5284
26140SOL     OW80672   0.388   9.027  10.519 -0.7084 -0.6479  0.3121
26140SOL    HW180673   0.300   9.064  10.521 -0.2649  0.5717 -1.0082
26140SOL    HW280674   0.439   9.082  10.578 -0.2208  0.4508 -1.0765
26141SOL     OW80675   7.189   4.032   3.403  0.7225 -0.3392  0.2332
26141SOL    HW180676   7.177   3.940   3.425  1.7177 -0.6302 -0.3514
26141SOL    HW280677   7.247   4.031   3.327 -1.2293  0.6747 -1.3586
26142SOL     OW80678   3.940   6.200   3.354 -0.3379  0.0589  0.9803
26142SOL    HW180679   3.880   6.132   3.323  1.6388 -1.2807 -0.1704
26142SOL    HW280680   3.899   6.283   3.326 -1.7892 -0.7669  0.5518
26143SOL     OW80681   7.817   3.839   7.073  0.0685  0.6670  0.2907
26143SOL    HW180682   7.835   3.821   6.981 -1.2004 -0.2027  0.2006
26143SOL    HW280683   7.892   3.801   7.119 -0.3849 -0.9350 -0.2324
26144SOL     OW80684   0.032   1.836   7.116  0.1509  0.5815 -0.3776
26144SOL    HW180685  -0.010   1.874   7.038 -0.4759  0.3519 -0.1608
26144SOL    HW280686  -0.009   1.881   7.190  0.8430  0.8935 -0.1810
26145SOL     OW80687   5.886   0.115   6.017 -0.0896  0.1242  0.0567
26145SOL    HW180688   5.980   0.115   5.999 -0.3602  2.1187 -1.8256
26145SOL    HW280689   5.862   0.023   6.017  1.8661 -0.4563  0.8000
26146SOL     OW80690   4.877   0.829   8.849 -0.0431 -0.2394 -0.1975
26146SOL    HW180691   4.850   0.741   8.826  2.1729 -1.0488  0.0242
26146SOL    HW280692   4.965   0.818   8.886  0.0218  1.9887  0.4673
26147SOL     OW80693   4.227   0.824   3.104  0.3882  0.2381  0.0375
26147SOL    HW180694   4.200   0.778   3.025  2.5169  1.8650 -1.7886
26147SOL    HW280695   4.271   0.903   3.072  1.1192  1.1192  2.8799
26148SOL     OW80696   7.547   2.143   7.946  0.1631  0.0725 -0.1138
26148SOL    HW180697   7.632   2.144   7.903 -0.8052  0.3361 -2.1315
26148SOL    HW280698   7.534   2.233   7.977 -0.6953  0.9129 -2.6695
26149SOL     OW80699  10.334   1.548   6.406  0.4508  0.5503  0.2649
26149SOL    HW180700  10.402   1.604   6.368 -1.3298  1.3993 -1.9284
26149SOL    HW280701  10.252   1.591   6.381 -0.9277 -1.4172  1.1956
26150SOL     OW80702   7.840   4.587  10.582  0.2334 -0.6269 -0.2307
26150SOL    HW180703   7.918   4.544  10.618  1.6675  2.3500  0.5276
26150SOL    HW280704   7.767   4.534  10.613  1.8004 -1.9766  1.3720
26151SOL     OW80705   7.958   6.037   0.168 -0.0174 -0.1764 -0.3007
26151SOL    HW180706   8.034   6.065   0.218 -0.8956 -0.1689  1.0841
26151SOL    HW280707   7.928   5.957   0.211  0.8438 -1.8119 -2.5591
26152SOL     OW80708   6.626   8.188   2.495 -0.3253 -0.1613 -0.0133
26152SOL    HW180709   6.631   8.153   2.584 -2.4242 -2.9246 -0.8412
26152SOL    HW280710   6.577   8.269   2.503 -2.2055 -1.3591  1.1904
26153SOL     OW80711  10.610   0.888   0.365  0.0152 -0.8827  0.4613
26153SOL    HW180712  10.647   0.855   0.447  1.3550 -0.8318 -0.1056
26153SOL    HW280713  10.561   0.966   0.391 -0.0302 -1.1705  1.2810
26154SOL     OW80714   4.414   0.806   1.208  0.6498  0.2780  0.1865
26154SOL    HW180715   4.448   0.736   1.263  1.6571  0.4165 -0.2296
26154SOL    HW280716   4.325   0.778   1.185  0.7453 -0.4619  0.6976
26155SOL     OW80717   2.738   4.252   0.230  0.0285 -0.7387  0.2919
26155SOL    HW180718   2.806   4.269   0.295  0.4034 -1.2313  0.0307
26155SOL    HW280719   2.767   4.173   0.185  1.2998  1.1457 -2.4818
26156SOL     OW80720   2.353   3.545   6.534  0.4984  0.0288 -0.1608
26156SOL    HW180721   2.404   3.531   6.454 -2.0565  0.7259 -2.0529
26156SOL    HW280722   2.271   3.584   6.503 -1.6506 -1.9988  2.5068
26157SOL     OW80723   1.871   8.463   5.287  0.6528  0.1839 -0.1019
26157SOL    HW180724   1.938   8.482   5.353  0.7744 -0.3058 -0.0786
26157SOL    HW280725   1.845   8.372   5.306 -0.0696  0.3952 -0.0626
26158SOL     OW80726   3.579   5.496   0.507  0.2917  0.0686 -0.7847
26158SOL    HW180727   3.508   5.439   0.477  1.1029 -1.3264 -0.1256
26158SOL    HW280728   3.648   5.436   0.536  1.9772  1.3571 -1.8892
26159SOL     OW80729   7.604   1.624   5.321  0.0876  0.8020 -0.3364
26159SOL    HW180730   7.593   1.690   5.252  0.5768  1.0091 -0.2235
26159SOL    HW280731   7.559   1.546   5.288  2.1932  0.1494 -1.9388
26160SOL     OW80732   3.954   4.691   8.475  0.6401 -0.5936 -0.4189
26160SOL    HW180733   3.861   4.687   8.498  0.2051 -0.5253 -2.0779
26160SOL    HW280734   3.996   4.633   8.538 -0.4602 -0.2922  0.6320
26161SOL     OW80735   3.752   9.514   8.487 -0.0384 -0.2771  0.0794
26161SOL    HW180736   3.792   9.509   8.573 -1.4873 -0.6948  0.7709
26161SOL    HW280737   3.746   9.608   8.469  1.6975 -0.2124 -0.2997
26162SOL     OW80738   9.130   4.748   4.212  0.1119 -0.3342  0.1360
26162SOL    HW180739   9.076   4.724   4.137  1.8332  2.6396 -2.3225
26162SOL    HW280740   9.094   4.831   4.242  1.8639  0.6071 -0.1756
26163SOL     OW80741   1.591   5.647   0.404 -0.1483  0.0659  0.8757
26163SOL    HW180742   1.591   5.552   0.413  0.3809  0.0974  1.2799
26163SOL    HW280743   1.517   5.676   0.457  0.5861 -0.0304  1.9862
26164SOL     OW80744   6.424   8.242   0.703 -0.0782 -0.4204 -0.4073
26164SOL    HW180745   6.445   8.335   0.698 -0.2938 -0.4351 -2.2462
26164SOL    HW280746   6.498   8.199   0.660  0.2286 -1.1620  0.8153
26165SOL     OW80747   4.544   9.504   6.903 -0.1866  0.4499  0.3114
26165SOL    HW180748   4.499   9.574   6.855 -1.3647 -0.5706 -0.1271
26165SOL    HW280749   4.474   9.457   6.948  0.4419 -1.0806 -0.2460
26166SOL     OW80750  10.397   6.766   7.886 -0.2128 -0.4588  0.0705
26166SOL    HW180751  10.370   6.844   7.934  0.9611  0.3523 -0.5174
26166SOL    HW280752  10.412   6.798   7.797 -0.1481 -1.4555 -0.2814
26167SOL     OW80753   1.710   5.189   9.990  0.3058 -0.4244 -0.2350
26167SOL    HW180754   1.739   5.186  10.082 -1.2697 -1.2325  0.2688
26167SOL    HW280755   1.709   5.097   9.963 -0.8281 -0.3366 -0.5221
26168SOL     OW80756   9.261   7.410   7.384 -0.3974  0.1455  0.4586
26168SOL    HW180757   9.328   7.344   7.371 -0.6149  0.2697 -1.7096
26168SOL    HW280758   9.184   7.375   7.339 -1.1474  0.9422  1.0841
26169SOL     OW80759   1.202   5.352   0.724 -0.0938 -0.1121 -0.1451
26169SOL    HW180760   1.267   5.336   0.792 -1.6574  1.6463  1.9205
26169SOL    HW280761   1.127   5.298   0.750  0.0846 -1.2320 -1.8438
26170SOL     OW80762   9.205   8.535   6.892 -0.3123 -0.5012 -0.2416
26170SOL    HW180763   9.197   8.566   6.802 -0.7621 -0.5480 -0.2200
26170SOL    HW280764   9.273   8.590   6.931 -0.6343  0.0112 -0.3939
26171SOL     OW80765   0.578   4.095   0.877  0.2436 -0.3831  0.1385
26171SOL    HW180766   0.537   4.085   0.963 -0.4720 -0.5357 -0.2171
26171SOL    HW280767   0.510   4.069   0.815  0.0484  1.6476 -0.5838
26172SOL     OW80768   8.419   9.449   7.298 -0.0933  0.1537  0.3005
26172SOL    HW180769   8.344   9.451   7.238  0.4793 -1.9732 -0.5832
26172SOL    HW280770   8.488   9.497   7.251 -0.3985  0.7012  0.4027
26173SOL     OW80771   2.592   8.618   6.436  0.6806 -0.2061  0.2245
26173SOL    HW180772   2.688   8.620   6.435  0.7320 -0.9513 -1.8659
26173SOL    HW280773   2.567   8.703   6.399  0.5206 -0.0471  0.6916
26174SOL     OW80774   4.873   7.345   3.081 -0.1935  0.1468  0.0503
26174SOL    HW180775   4.856   7.265   3.132  0.4746  0.0055  0.0557
26174SOL    HW280776   4.862   7.416   3.144 -0.9211  0.0710  0.0159
26175SOL     OW80777   9.098   5.057   8.879  0.0162  0.1153 -0.0703
26175SOL    HW180778   9.003   5.045   8.886 -0.2918  2.4830  0.8136
26175SOL    HW280779   9.110   5.105   8.797  0.1704  1.7495  0.8649
26176SOL     OW80780   0.688   5.790   2.063  0.2881  0.1075 -0.3565
26176SOL    HW180781   0.764   5.846   2.078 -1.0610  1.5075  1.6806
26176SOL    HW280782   0.715   5.704   2.095  1.0201  0.5893  0.3648
26177SOL     OW80783   5.712   9.977   8.415 -0.1157 -0.0945  0.3990
26177SOL    HW180784   5.678  10.000   8.329 -0.6752  1.5039  1.0000
26177SOL    HW280785   5.802   9.949   8.398 -0.3974 -0.3528 -0.7572
26178SOL     OW80786   0.086   7.356   0.611  0.9327 -0.1892 -0.2082
26178SOL    HW180787   0.152   7.318   0.670  1.5631  0.4240 -0.5002
26178SOL    HW280788   0.100   7.450   0.618 -0.4463 -0.0053  0.3145
26179SOL     OW80789   4.658   1.935  10.300 -0.2551 -0.5722  0.4673
26179SOL    HW180790   4.670   1.918  10.393 -1.0695 -1.2520  0.4694
26179SOL    HW280791   4.700   1.861  10.257 -0.4452 -0.5985  0.3240
26180SOL     OW80792   6.516   9.158   1.289  0.0869 -0.1356 -0.5620
26180SOL    HW180793   6.471   9.075   1.271 -0.4519 -0.0391  0.2540
26180SOL    HW280794   6.444   9.220   1.302  0.4844  0.3540 -0.7255
26181SOL     OW80795   5.655   9.199   7.053 -0.5433 -0.4731 -0.0311
26181SOL    HW180796   5.637   9.185   7.146 -0.4293 -0.6357 -0.0316
26181SOL    HW280797   5.747   9.227   7.050 -1.0007  1.0831  0.0340
26182SOL     OW80798   9.152   8.385   5.133 -0.4332 -0.4902  0.2501
26182SOL    HW180799   9.089   8.333   5.182  0.7665 -1.6935  0.5709
26182SOL    HW280800   9.231   8.383   5.187  0.3659 -0.3619 -0.8993
26183SOL     OW80801   0.277   1.938   0.784  0.2807  0.3865 -0.0425
26183SOL    HW180802   0.213   2.009   0.795  1.2860  1.1116  1.4795
26183SOL    HW280803   0.227   1.859   0.804 -0.2227  0.9147  0.8813
26184SOL     OW80804   0.479   2.244   1.522  0.2935 -0.7094 -0.0466
26184SOL    HW180805   0.407   2.304   1.542  1.5549  0.2372  2.0354
26184SOL    HW280806   0.529   2.287   1.453  0.2571 -0.1679  0.2628
26185SOL     OW80807   4.451   6.927   8.305 -0.0804 -0.2899  0.0302
26185SOL    HW180808   4.406   7.010   8.297  1.6078  0.6465 -0.3217
26185SOL    HW280809   4.399   6.877   8.369  0.5004  2.2333  2.7001
26186SOL     OW80810   2.093   9.323   9.755  0.5550 -0.5751 -0.8390
26186SOL    HW180811   2.029   9.257   9.728 -0.2101  0.5225 -1.8049
26186SOL    HW280812   2.170   9.306   9.700  0.7840 -1.3316 -0.3052
26187SOL     OW80813   8.709   0.012   4.445 -0.8232  0.6200 -0.3327
26187SOL    HW180814   8.699   0.051   4.359  0.8158 -0.4307 -1.0485
26187SOL    HW280815   8.740  -0.077   4.428 -0.6290  0.3289  1.3326
26188SOL     OW80816   6.932   4.409   3.217  0.2952 -0.2945 -0.4112
26188SOL    HW180817   6.925   4.473   3.146 -1.3912  1.1008  0.9268
26188SOL    HW280818   7.015   4.429   3.260  1.1841 -0.9569 -1.7534
26189SOL     OW80819   0.180   6.363   2.106  0.2075 -0.9393  0.1005
26189SOL    HW180820   0.170   6.413   2.025 -0.2129  1.0658  1.3285
26189SOL    HW280821   0.220   6.280   2.078  1.1038  0.1324 -2.0002
26190SOL     OW80822   4.011   5.088   3.001 -0.3604 -0.8551  0.0977
26190SOL    HW180823   3.967   5.006   3.024 -1.4386  0.1132  1.6440
26190SOL    HW280824   4.035   5.127   3.085 -0.3093  0.6542 -0.5867
26191SOL     OW80825   1.276   7.260   6.768 -0.0557 -0.0752 -0.3010
26191SOL    HW180826   1.242   7.316   6.698  0.7157  1.4431  0.4886
26191SOL    HW280827   1.212   7.269   6.839  0.6311  0.7407  0.2388
26192SOL     OW80828   4.737   6.367   1.619 -0.1923  0.3809  0.0558
26192SOL    HW180829   4.768   6.313   1.691  0.1022  0.9173  0.3313
26192SOL    HW280830   4.811   6.423   1.596 -0.0785 -0.1974 -1.0684
26193SOL     OW80831   0.499   1.318   8.952 -0.7690  0.0921  0.0072
26193SOL    HW180832   0.433   1.337   8.885 -2.5631 -1.0483  1.3620
26193SOL    HW280833   0.467   1.361   9.031  0.3976 -0.0255  0.5644
26194SOL     OW80834   4.093   3.438   2.791 -0.3102  0.4543  0.1310
26194SOL    HW180835   4.156   3.401   2.852 -0.5337  0.7579  0.5477
26194SOL    HW280836   4.093   3.378   2.717  1.8294  1.3935 -0.7011
26195SOL     OW80837   1.114   9.272   3.963  0.1829  0.1201  0.2143
26195SOL    HW180838   1.195   9.242   4.002 -0.7373  1.3394  3.3182
26195SOL    HW280839   1.083   9.197   3.912  3.1640 -0.3623 -1.1111
26196SOL     OW80840   8.255   4.077   5.054 -0.6281 -0.6142  0.3027
26196SOL    HW180841   8.294   4.067   4.967  1.2123  1.5602  0.7771
26196SOL    HW280842   8.309   4.022   5.111  0.2568  0.4841  0.5573
26197SOL     OW80843   6.531   3.486  10.334 -0.4684 -0.5189 -0.0788
26197SOL    HW180844   6.501   3.533  10.256  0.5349 -0.5247 -0.4828
26197SOL    HW280845   6.489   3.532  10.407 -3.5432 -2.1346 -0.7091
26198SOL     OW80846   8.425   5.557   8.821  0.0891 -0.6835 -0.3194
26198SOL    HW180847   8.482   5.628   8.791 -0.8603  0.1084 -0.3026
26198SOL    HW280848   8.483   5.500   8.872  0.7625  0.3872  0.1493
26199SOL     OW80849   7.712  10.559   8.203  0.2503 -0.0492  0.2829
26199SOL    HW180850   7.762  10.640   8.213  0.6760 -0.3717  0.8205
26199SOL    HW280851   7.693  10.531   8.292  1.6839 -1.4819  0.1928
26200SOL     OW80852   1.116   2.469   5.856 -0.4552  0.0804  0.4627
26200SOL    HW180853   1.197   2.510   5.886  0.4093 -1.6922  0.6723
26200SOL    HW280854   1.121   2.474   5.760 -1.2105  1.9734  0.4815
26201SOL     OW80855   2.308   2.461   1.456  0.5059  0.6039  0.6928
26201SOL    HW180856   2.366   2.429   1.525  0.1154  0.8733  1.1476
26201SOL    HW280857   2.230   2.490   1.502 -0.3094 -0.4514  0.0309
26202SOL     OW80858   6.935   9.619   9.519  0.1996 -0.0838 -0.7367
26202SOL    HW180859   7.011   9.674   9.496  1.2478 -1.1204  0.1479
26202SOL    HW280860   6.876   9.628   9.444  0.2968  2.2716 -0.6203
26203SOL     OW80861   2.953   7.100   0.821  0.1011  0.3677 -0.4329
26203SOL    HW180862   2.897   7.094   0.899  1.7171 -1.8005  0.6608
26203SOL    HW280863   2.893   7.088   0.748 -1.0601 -0.6688  0.6361
26204SOL     OW80864   6.769   0.550   7.256  0.0627  0.5831 -0.2774
26204SOL    HW180865   6.699   0.587   7.309  1.1266 -0.4589  1.9978
26204SOL    HW280866   6.743   0.459   7.242  1.0956  0.0451  1.0068
26205SOL     OW80867   4.058   5.646   5.304  0.1828 -0.3187 -0.6692
26205SOL    HW180868   4.147   5.633   5.336  0.4124 -0.5342 -1.3625
26205SOL    HW280869   4.008   5.676   5.380  0.8418 -0.2228 -0.2716
26206SOL     OW80870   6.409   8.881   7.003  0.4565  0.4051  0.2989
26206SOL    HW180871   6.448   8.967   6.985  2.4329 -0.4531  0.1452
26206SOL    HW280872   6.475   8.836   7.056 -0.6628 -0.9360  0.6103
26207SOL     OW80873   2.319   5.508   4.877  0.6598  0.4169  0.7171
26207SOL    HW180874   2.296   5.598   4.898  0.8105  0.6746 -0.1961
26207SOL    HW280875   2.289   5.457   4.953 -1.7676  0.8868  0.1572
26208SOL     OW80876   8.583   1.918   2.583 -0.0220  0.1223  0.2439
26208SOL    HW180877   8.591   1.877   2.670  0.7989  0.0150  0.1325
26208SOL    HW280878   8.511   1.871   2.541  0.7530 -1.0837  0.2021
26209SOL     OW80879   6.188   9.714   4.747  0.0639 -0.3451  0.5292
26209SOL    HW180880   6.192   9.662   4.666 -1.3757  1.0734 -0.5359
26209SOL    HW280881   6.127   9.666   4.803  0.9411 -1.2531  0.7312
26210SOL     OW80882   7.812   8.024   2.016  0.0031 -0.0023  0.1799
26210SOL    HW180883   7.901   8.028   2.050 -0.5536 -1.6874  2.0495
26210SOL    HW280884   7.801   8.104   1.965  1.4143  2.0720  2.8886
26211SOL     OW80885   1.149   8.995  10.429  0.3847 -0.3995 -0.2912
26211SOL    HW180886   1.054   8.985  10.435  0.6070 -2.1135  0.9978
26211SOL    HW280887   1.166   9.084  10.463 -0.6987 -0.3008  0.0157
26212SOL     OW80888   3.662   2.558   3.724 -0.1899 -0.2119  0.0941
26212SOL    HW180889   3.705   2.580   3.807  1.9687 -1.7735 -0.5302
26212SOL    HW280890   3.569   2.547   3.747  0.0378  1.1761  1.9189
26213SOL     OW80891   9.310   0.567   0.825 -0.6632 -0.4887 -0.0610
26213SOL    HW180892   9.231   0.522   0.793 -0.3446  0.3759 -2.2368
26213SOL    HW280893   9.282   0.658   0.837 -0.5294 -0.6141  1.3223
26214SOL     OW80894   6.510   9.225   6.286 -0.1029 -0.1854  0.9231
26214SOL    HW180895   6.539   9.242   6.197 -0.9169  1.1759  0.8853
26214SOL    HW280896   6.586   9.244   6.341 -0.2959  1.4638  0.6823
26215SOL     OW80897   6.192   1.139   3.314  0.2654 -0.1429  0.2198
26215SOL    HW180898   6.127   1.100   3.372  0.1750  0.5488  0.5946
26215SOL    HW280899   6.237   1.203   3.368 -0.7389  1.5154 -0.8065
26216SOL     OW80900   7.965  10.162   4.778  0.0356 -0.1983  0.3231
26216SOL    HW180901   7.879  10.196   4.750  0.4068 -0.5854 -1.3864
26216SOL    HW280902   7.952  10.139   4.870 -1.7424 -0.3938  0.0639
26217SOL     OW80903   7.448   5.459   8.402  0.0159 -0.0647  0.0513
26217SOL    HW180904   7.516   5.437   8.466 -0.5239  0.7358  0.9422
26217SOL    HW280905   7.396   5.379   8.393  0.9402 -0.6252 -0.4977
26218SOL     OW80906   1.646   5.306   2.642 -0.1231  0.3846  0.9620
26218SOL    HW180907   1.617   5.269   2.558 -1.2537  1.1209  1.0262
26218SOL    HW280908   1.737   5.275   2.650 -0.6640 -1.4485  0.4803
26219SOL     OW80909   2.105   9.674   5.074 -0.0155  0.4421  0.6271
26219SOL    HW180910   2.193   9.665   5.111 -0.2963  0.9655  1.4358
26219SOL    HW280911   2.058   9.597   5.106  0.8187 -1.2760 -1.8915
26220SOL     OW80912   2.133   6.035   6.197  0.2942 -0.4910  0.5797
26220SOL    HW180913   2.044   6.014   6.171  0.6481 -0.5413 -0.6679
26220SOL    HW280914   2.180   6.045   6.114  1.2344  0.4370  1.2026
26221SOL     OW80915   5.669  10.002   8.674 -0.3259  0.2355  0.0352
26221SOL    HW180916   5.688   9.976   8.584 -0.8798  0.2126 -0.0838
26221SOL    HW280917   5.615  10.081   8.665 -1.8195 -0.7083  0.2798
26222SOL     OW80918   3.419   0.838   5.776 -0.0874 -0.4750 -0.0431
26222SOL    HW180919   3.500   0.806   5.736  1.0537  1.9719  0.1327
26222SOL    HW280920   3.434   0.932   5.789 -2.8940  0.0345  0.1759
26223SOL     OW80921   0.402   0.460   4.920 -0.1303 -0.7591  0.1661
26223SOL    HW180922   0.471   0.527   4.918  1.8774 -2.6415  1.3945
26223SOL    HW280923   0.382   0.450   5.013 -1.8634 -0.5147 -0.1539
26224SOL     OW80924   1.004   3.207   6.025  0.2864  0.5532 -0.0282
26224SOL    HW180925   1.096   3.205   5.997  0.5201 -0.0328  0.7438
26224SOL    HW280926   0.978   3.298   6.013  1.1144  0.8301  0.1830
26225SOL     OW80927   2.150   9.669   0.543 -0.4461 -0.3297  0.3572
26225SOL    HW180928   2.161   9.579   0.514 -4.3084 -0.7730 -0.3062
26225SOL    HW280929   2.124   9.716   0.463 -1.9443  0.5497  1.3239
26226SOL     OW80930   2.518   0.794   2.425  0.6805 -0.2444  0.2052
26226SOL    HW180931   2.445   0.745   2.463 -1.0476  0.9496 -1.3981
26226SOL    HW280932   2.568   0.728   2.377 -0.4393 -0.7953 -0.2420
26227SOL     OW80933   4.147   3.498  10.643  0.1687  0.7663  0.4354
26227SOL    HW180934   4.182   3.444  10.715 -1.2749 -0.3840  0.3211
26227SOL    HW280935   4.127   3.435  10.574 -0.3266  1.6341 -0.2236
26228SOL     OW80936   4.522   2.650   4.970  0.0386 -0.4822  0.5906
26228SOL    HW180937   4.594   2.587   4.973 -0.1673 -0.8868 -1.5314
26228SOL    HW280938   4.443   2.597   4.978 -0.1367 -0.5797 -1.2666
26229SOL     OW80939   5.146   8.128   8.981 -0.3088  0.0248 -0.3375
26229SOL    HW180940   5.117   8.205   9.030  0.8790  0.2975 -0.0508
26229SOL    HW280941   5.215   8.161   8.923  0.5123 -0.9019  0.0982
26230SOL     OW80942   2.948   9.850   7.080  0.2812  0.0469 -0.2587
26230SOL    HW180943   2.980   9.926   7.128 -0.8058  0.7395 -0.5952
26230SOL    HW280944   3.017   9.830   7.017  1.0833  0.0219  0.6084
26231SOL     OW80945   3.672   0.011  10.564 -0.0977  0.2195  0.5291
26231SOL    HW180946   3.729   0.081  10.595 -0.8038  0.3021  1.7225
26231SOL    HW280947   3.714  -0.021  10.484  3.2254 -1.6864  2.8040
26232SOL     OW80948   1.658   1.417   6.812  0.5124 -0.0418 -0.1657
26232SOL    HW180949   1.716   1.477   6.765 -0.9443  0.8904 -0.8406
26232SOL    HW280950   1.593   1.390   6.747 -1.2085  0.8104  1.1111
26233SOL     OW80951   3.978   7.029   0.952  0.0343  0.3919  0.1573
26233SOL    HW180952   3.967   6.937   0.927  1.6164  0.2955 -0.3113
26233SOL    HW280953   3.891   7.057   0.979 -0.4226 -1.3427  0.6413
26234SOL     OW80954   0.071  10.311   2.915 -0.2115  0.4843 -0.7443
26234SOL    HW180955   0.060  10.241   2.979 -1.1844 -0.1218 -1.5425
26234SOL    HW280956   0.116  10.380   2.963  0.1292 -0.3990  0.2637
26235SOL     OW80957   1.212   2.471   1.404 -0.0327 -0.8317 -1.1483
26235SOL    HW180958   1.156   2.529   1.456  2.4411  0.9237 -0.2427
26235SOL    HW280959   1.220   2.391   1.456  0.0682 -0.2298 -0.2222
26236SOL     OW80960   0.493   9.214   9.754 -0.1075  0.0581 -0.0168
26236SOL    HW180961   0.472   9.304   9.729  3.1066  0.6074 -1.1772
26236SOL    HW280962   0.416   9.163   9.728 -1.0899  2.1494 -1.4338
26237SOL     OW80963   7.118   8.020   8.032  0.2663  0.3946 -0.2586
26237SOL    HW180964   7.147   8.083   8.098  2.2184  1.0607 -1.6633
26237SOL    HW280965   7.090   7.943   8.083  2.9368  0.3639  1.3646
26238SOL     OW80966   8.456   1.668   1.689  0.0580 -0.7424 -0.3073
26238SOL    HW180967   8.500   1.636   1.610 -0.1639  0.1245 -0.7902
26238SOL    HW280968   8.518   1.649   1.760  1.3747  0.7079 -0.9987
26239SOL     OW80969   8.676   9.898  10.652 -0.3985 -0.2349  0.1142
26239SOL    HW180970   8.618   9.825  10.628  0.4355 -0.0020 -3.0969
26239SOL    HW280971   8.617   9.968  10.680 -1.8300  0.1020 -3.3076
26240SOL     OW80972   4.010   3.104   0.465  0.4111 -0.7703 -0.1235
26240SOL    HW180973   3.988   3.098   0.372  0.8139  0.7142 -0.3541
26240SOL    HW280974   3.945   3.050   0.510 -1.3982  0.5396 -1.0646
26241SOL     OW80975   4.055   4.068   6.597 -0.8095 -0.4534  0.0089
26241SOL    HW180976   4.132   4.079   6.653 -0.8981 -1.1930  0.2901
26241SOL    HW280977   4.028   4.157   6.576 -0.5754 -0.1701  0.8647
26242SOL     OW80978   6.255   9.962   4.731 -0.1073 -0.2247  0.9724
26242SOL    HW180979   6.224   9.872   4.742 -1.6193  0.3015  1.2326
26242SOL    HW280980   6.242   9.981   4.638  0.2357 -0.2625  0.9123
26243SOL     OW80981   4.236   7.797   1.466  0.0409  0.4610 -0.0989
26243SOL    HW180982   4.331   7.800   1.460 -0.0127  0.5417 -1.0410
26243SOL    HW280983   4.216   7.837   1.551  0.8088  1.1909 -0.2508
26244SOL     OW80984   9.781   0.116   3.039 -0.1469 -0.1453  0.5042
26244SOL    HW180985   9.820   0.036   3.004  2.2457  1.0453  0.2479
26244SOL    HW280986   9.771   0.099   3.132  1.4430 -0.3737  0.6583
26245SOL     OW80987   0.072   1.945   8.647 -0.3842  0.7320 -0.1048
26245SOL    HW180988   0.149   1.961   8.701  0.0099  2.1075 -1.0213
26245SOL    HW280989   0.012   2.016   8.670 -1.7579 -0.7645  1.1909
26246SOL     OW80990   9.329   0.985   2.577 -0.1027 -0.6165 -0.0224
26246SOL    HW180991   9.393   0.919   2.548  0.3249 -0.2656  0.0982
26246SOL    HW280992   9.294   1.022   2.496 -1.1813 -1.7662 -0.1056
26247SOL     OW80993   3.619   5.919   3.998  0.3284  0.0227  0.2430
26247SOL    HW180994   3.543   5.880   4.041  0.2586 -0.6848 -0.4987
26247SOL    HW280995   3.688   5.854   4.007  0.1642 -0.3685 -1.1437
26248SOL     OW80996   9.210  10.277  10.074 -0.3087 -0.4026 -0.0725
26248SOL    HW180997   9.285  10.265  10.015  1.0909  1.2084  1.2655
26248SOL    HW280998   9.234  10.228  10.153 -0.2094  0.8477  0.7039
26249SOL     OW80999   5.103   8.717  10.115 -0.0181  0.6781 -0.0976
26249SOL    HW181000   5.100   8.623  10.097 -0.8590  0.7443 -0.3438
26249SOL    HW281001   5.190   8.745  10.086 -0.4687  0.3427 -1.8767
26250SOL     OW81002   6.953   3.687   5.696 -0.3839  1.0752  0.4532
26250SOL    HW181003   7.048   3.684   5.704 -0.0875  2.2346 -1.9179
26250SOL    HW281004   6.936   3.748   5.624 -2.9404  1.1191  0.9941
26251SOL     OW81005   9.925   5.370   0.936 -0.3159 -0.0855 -0.0960
26251SOL    HW181006   9.832   5.389   0.921 -0.1222 -0.4056 -1.9118
26251SOL    HW281007   9.924   5.294   0.995 -1.1686  0.7067  0.9441
26252SOL     OW81008   1.984   9.263   7.523 -0.3064 -0.0003  0.5768
26252SOL    HW181009   2.068   9.219   7.512 -0.1605  0.5280 -0.6252
26252SOL    HW281010   1.961   9.250   7.615  1.0899 -0.1476  0.9186
26253SOL     OW81011   2.034   2.845   5.659  0.0848  0.3340 -0.2616
26253SOL    HW181012   1.995   2.845   5.571 -1.3473 -1.4342  0.3010
26253SOL    HW281013   1.969   2.889   5.714  0.0257 -0.3879  0.2582
26254SOL     OW81014   7.991   8.615   5.939  0.1649 -0.4711  0.5943
26254SOL    HW181015   8.038   8.650   5.864 -0.7747 -0.5072 -0.0297
26254SOL    HW281016   7.898   8.630   5.918 -0.0780  0.7732  2.3525
26255SOL     OW81017   1.276   7.168   8.029 -0.4309  0.4142 -0.0124
26255SOL    HW181018   1.186   7.167   7.997  0.4979 -0.2760 -2.8916
26255SOL    HW281019   1.299   7.261   8.033 -1.0041  0.5608 -0.0732
26256SOL     OW81020  10.503   7.393   9.323  0.3627  0.7497  0.8336
26256SOL    HW181021  10.593   7.361   9.313  0.3656  1.1106 -0.5142
26256SOL    HW281022  10.499   7.471   9.268 -1.1952 -0.1119 -0.3800
26257SOL     OW81023   2.108   6.051   1.721 -0.6499  0.1426  0.3432
26257SOL    HW181024   2.174   6.119   1.706  1.3874 -1.8693 -0.3058
26257SOL    HW281025   2.106   6.041   1.816 -0.9839  1.0741  0.4504
26258SOL     OW81026   8.170   3.451   3.661 -0.7910  0.5755 -0.1512
26258SOL    HW181027   8.174   3.465   3.567 -1.6539  0.1810 -0.2507
26258SOL    HW281028   8.258   3.474   3.692 -0.4663  0.5961 -1.0589
26259SOL     OW81029   0.215   7.313   7.822  0.2777 -0.1807  0.3558
26259SOL    HW181030   0.304   7.300   7.791  0.3439 -0.5193  0.6922
26259SOL    HW281031   0.206   7.255   7.897 -0.4636 -0.7198 -0.1312
26260SOL     OW81032   5.262   9.820   4.251  0.8639  0.1239 -0.3135
26260SOL    HW181033   5.288   9.807   4.342 -0.2964  2.1391  0.3565
26260SOL    HW281034   5.329   9.878   4.215  1.5303 -0.9631 -0.9084
26261SOL     OW81035   4.962   2.135   3.984  0.0254  0.0296  0.0006
26261SOL    HW181036   4.935   2.215   3.940 -0.3057 -0.1896 -0.2036
26261SOL    HW281037   4.898   2.069   3.955 -0.7617  0.0816  1.5257
26262SOL     OW81038   9.509   0.815   4.371  0.0820 -0.1241 -0.2959
26262SOL    HW181039   9.534   0.783   4.284 -0.9023  0.6551 -0.9048
26262SOL    HW281040   9.543   0.905   4.374 -1.8258  0.6782 -0.8397
26263SOL     OW81041   9.739   8.292   7.950 -0.3983  0.0883 -0.4725
26263SOL    HW181042   9.812   8.232   7.938  0.4712  1.2253 -1.0418
26263SOL    HW281043   9.755   8.333   8.035 -1.0153 -0.4922 -0.0638
26264SOL     OW81044   5.351   5.426   3.061  1.1812  0.3065 -0.7806
26264SOL    HW181045   5.416   5.374   3.107 -0.4179  0.3738  1.7175
26264SOL    HW281046   5.381   5.516   3.069  2.3550  0.1111 -2.4346
26265SOL     OW81047   8.749   9.465   2.124 -0.1038 -0.0503 -0.1489
26265SOL    HW181048   8.822   9.523   2.103 -0.0351 -1.0660 -3.1723
26265SOL    HW281049   8.691   9.472   2.049 -2.4391 -0.3858  1.5404
26266SOL     OW81050   3.593   1.753   1.885 -0.4631 -0.2494 -0.4158
26266SOL    HW181051   3.504   1.724   1.901 -0.6823  1.1325  1.1442
26266SOL    HW281052   3.584   1.838   1.842  0.0941 -0.1238 -0.3001
26267SOL     OW81053   9.702   4.852   0.010 -0.5675  0.2422 -0.2408
26267SOL    HW181054   9.720   4.811   0.095 -1.5002 -0.0094 -0.1571
26267SOL    HW281055   9.611   4.829  -0.010 -0.1525 -0.3010 -1.6523
26268SOL     OW81056   4.259   0.012  10.568  0.7387 -0.3993  0.7219
26268SOL    HW181057   4.176   0.039  10.530 -0.1832 -1.9808  1.4802
26268SOL    HW281058   4.320   0.083  10.548 -0.5013  0.2737 -0.8477
26269SOL     OW81059   1.010   7.969   0.203 -0.5783  0.7418  0.2109
26269SOL    HW181060   1.051   7.920   0.132 -0.4022 -0.5101  1.1421
26269SOL    HW281061   1.041   8.059   0.190  1.3794  0.1038  0.0720
26270SOL     OW81062   6.173   0.521   2.646 -0.3955  0.3025 -0.0840
26270SOL    HW181063   6.173   0.543   2.552 -2.4851  0.4411 -0.0796
26270SOL    HW281064   6.136   0.433   2.649 -1.8123  0.9082  0.7190
26271SOL     OW81065   3.622   4.582   2.932 -0.4018  0.2482 -0.1341
26271SOL    HW181066   3.609   4.560   2.840  0.8546 -1.2328  0.0077
26271SOL    HW281067   3.714   4.561   2.949 -0.2774  1.6848  1.1498
26272SOL     OW81068   3.819   9.493   3.662 -0.2001  0.2776  0.5731
26272SOL    HW181069   3.797   9.404   3.690 -1.3581  0.6823  1.0081
26272SOL    HW281070   3.735   9.535   3.645  0.2257  1.7824  1.9216
26273SOL     OW81071   9.859   1.952   7.428  0.1441 -0.5245  0.3523
26273SOL    HW181072   9.810   1.937   7.509 -0.7683  0.9211  0.1132
26273SOL    HW281073   9.805   1.912   7.360 -0.1555  0.0737  0.2270
26274SOL     OW81074   7.094   8.843   8.419  0.5230  0.0201 -0.2506
26274SOL    HW181075   7.176   8.865   8.375 -0.5768  3.6081 -0.9023
26274SOL    HW281076   7.039   8.805   8.351  0.7291  0.2564 -0.5528
26275SOL     OW81077   9.548   0.662   0.657 -0.0095  0.4581  0.2182
26275SOL    HW181078   9.471   0.714   0.679  1.6439  3.7819 -1.0441
26275SOL    HW281079   9.614   0.689   0.720  1.1227  0.4557 -0.9212
26276SOL     OW81080   9.314   1.676   2.929 -0.2975  0.0590  0.7532
26276SOL    HW181081   9.235   1.628   2.903 -0.1680 -0.1316  0.7167
26276SOL    HW281082   9.383   1.611   2.929  0.5410  0.8134 -2.2958
26277SOL     OW81083   4.848   5.695   5.051 -0.3847  0.1468  0.1940
26277SOL    HW181084   4.916   5.737   5.103  0.9916 -0.1089 -1.3114
26277SOL    HW281085   4.805   5.767   5.006  0.1171  0.1867 -0.2368
26278SOL     OW81086   2.080  10.196   5.557 -0.4154  0.3851 -0.4994
26278SOL    HW181087   2.068  10.178   5.464  1.5079  0.4212 -0.7751
26278SOL    HW281088   2.143  10.267   5.561 -0.9866  0.8498  0.8280
26279SOL     OW81089   6.657   5.768   4.715  0.1905 -0.2294  0.1665
26279SOL    HW181090   6.739   5.817   4.707  0.7017 -0.6529  2.1728
26279SOL    HW281091   6.645   5.727   4.629  1.4105  0.8512 -0.5558
26280SOL     OW81092   7.970   7.382   9.262 -0.2527  0.4043  0.1099
26280SOL    HW181093   8.025   7.347   9.332  1.0245 -1.3339 -1.6431
26280SOL    HW281094   7.894   7.323   9.260 -0.5000  0.7128  0.2877
26281SOL     OW81095   2.495   1.689   2.595 -0.4204 -0.4208 -0.0725
26281SOL    HW181096   2.496   1.599   2.564 -0.6094 -0.3809 -0.1946
26281SOL    HW281097   2.562   1.691   2.664 -0.0543 -0.5236 -0.4207
26282SOL     OW81098   8.841   4.198   1.869  0.1318 -0.2156 -0.1732
26282SOL    HW181099   8.751   4.220   1.846  0.1616  1.1801  0.9174
26282SOL    HW281100   8.882   4.174   1.786 -1.2826 -1.0592 -0.6578
26283SOL     OW81101   6.463   9.829   5.752  0.1039  0.1175  0.3485
26283SOL    HW181102   6.423   9.789   5.676  0.5517 -1.7744  1.0423
26283SOL    HW281103   6.436   9.921   5.749 -4.1585 -0.9110  0.6698
26284SOL     OW81104   9.824   2.914   4.623 -0.1153  0.1501 -0.1890
26284SOL    HW181105   9.812   2.994   4.573 -0.3126 -0.8996 -1.8985
26284SOL    HW281106   9.736   2.893   4.656  0.1409  1.2249  1.2791
26285SOL     OW81107   5.314  10.610   7.145  0.1393  0.1288 -0.2796
26285SOL    HW181108   5.246  10.646   7.088  0.4750  0.2408 -0.6094
26285SOL    HW281109   5.317  10.671   7.219 -1.3977 -0.8647  0.6673
26286SOL     OW81110   3.760   5.314   0.614  0.1543 -0.0536 -0.3385
26286SOL    HW181111   3.767   5.233   0.664  0.9128  1.7293  2.7320
26286SOL    HW281112   3.802   5.294   0.530 -0.3436 -2.9788 -0.0014
26287SOL     OW81113   1.696   7.751   4.257 -0.7028 -0.6991  0.3107
26287SOL    HW181114   1.632   7.717   4.195 -2.4450 -0.8287  2.0959
26287SOL    HW281115   1.702   7.845   4.237  0.0808 -1.0342 -1.1418
26288SOL     OW81116   0.659   7.370   6.033  0.6309 -0.0550 -0.4671
26288SOL    HW181117   0.755   7.370   6.040  0.5116  0.1449  2.1664
26288SOL    HW281118   0.633   7.455   6.069 -0.5856 -0.7056  0.2355
26289SOL     OW81119   1.878   9.779   5.841  0.7355 -0.0529  0.3512
26289SOL    HW181120   1.897   9.825   5.759  0.5911  1.0651  0.9324
26289SOL    HW281121   1.787   9.751   5.831  0.7747 -0.0866  0.0595
26290SOL     OW81122   8.279   4.715  10.639 -0.3270 -0.0853 -0.0715
26290SOL    HW181123   8.201   4.769  10.624  0.7977  1.3042 -1.2346
26290SOL    HW281124   8.326   4.718  10.556  0.9021 -1.0295  0.5643
26291SOL     OW81125   0.798   0.523   5.579 -0.4925  0.0587  0.1890
26291SOL    HW181126   0.783   0.476   5.661 -0.5636  0.3634  0.3523
26291SOL    HW281127   0.811   0.454   5.513 -0.4925 -0.1853  0.4451
26292SOL     OW81128   3.077   5.026   7.952 -0.5479  0.2632  0.1827
26292SOL    HW181129   3.008   5.069   8.002 -0.4036  1.6176 -0.7335
26292SOL    HW281130   3.156   5.076   7.971  0.2369 -1.2708  1.2237
26293SOL     OW81131   1.585   0.048   4.915  0.3158 -0.0051  0.3526
26293SOL    HW181132   1.561  -0.044   4.924 -0.3510  0.1840  0.5267
26293SOL    HW281133   1.640   0.051   4.836  0.6891 -0.6131  0.5862
26294SOL     OW81134   9.605   1.695  10.280  0.1196  0.0028 -0.2665
26294SOL    HW181135   9.527   1.664  10.326  0.3825 -1.5784 -0.8387
26294SOL    HW281136   9.677   1.651  10.324  0.6117  0.6585 -0.4043
26295SOL     OW81137   3.566   0.194   0.230  0.0458 -0.2700 -0.1038
26295SOL    HW181138   3.574   0.276   0.182  1.8645 -1.2067 -1.5222
26295SOL    HW281139   3.651   0.181   0.271 -0.4217 -1.1314  0.6472
26296SOL     OW81140   1.102   8.277   1.334  0.2058 -0.1663  0.6612
26296SOL    HW181141   1.105   8.364   1.373  0.8503 -0.1504  0.5913
26296SOL    HW281142   1.087   8.218   1.408 -2.7994  0.1731  0.4293
26297SOL     OW81143   7.190   1.088   7.608 -0.0885  0.0273  0.6405
26297SOL    HW181144   7.204   1.042   7.690 -2.5096 -0.1686  1.0060
26297SOL    HW281145   7.130   1.159   7.630 -2.6130 -1.3541 -1.2738
26298SOL     OW81146   2.288   9.362   3.466 -0.3049 -0.7326 -0.0344
26298SOL    HW181147   2.382   9.349   3.476 -0.2769  0.1644  1.1678
26298SOL    HW281148   2.278   9.411   3.385  0.3621  0.0390  0.3414
26299SOL     OW81149   3.448   0.821   9.472 -0.1374 -0.5021  0.1072
26299SOL    HW181150   3.462   0.733   9.436 -0.0310 -0.4107 -0.0761
26299SOL    HW281151   3.520   0.833   9.534 -1.2344 -1.3060  1.5944
26300SOL     OW81152   2.079   8.898   6.182 -0.5657  0.1440  0.5080
26300SOL    HW181153   2.095   8.882   6.275  0.1332  4.2847  1.3142
26300SOL    HW281154   1.986   8.920   6.177 -0.8113 -0.9346  0.0073
26301SOL     OW81155   5.494   0.091  10.416  0.2924  0.0529  0.2507
26301SOL    HW181156   5.425   0.058  10.358  0.3106  0.5061 -0.0286
26301SOL    HW281157   5.508   0.020  10.479 -0.3184 -0.1082  0.2118
26302SOL     OW81158   9.234   4.761   3.516  0.1484 -0.3173 -0.3673
26302SOL    HW181159   9.175   4.685   3.524 -1.0893  0.5666 -0.8346
26302SOL    HW281160   9.274   4.750   3.430  0.1992 -0.6014 -0.3102
26303SOL     OW81161   5.086   3.822   0.192 -0.5216  0.0481 -0.1295
26303SOL    HW181162   5.029   3.749   0.218  0.2900 -0.1071  1.3294
26303SOL    HW281163   5.110   3.864   0.275  1.0776  0.3958 -0.7321
26304SOL     OW81164   5.108   5.804   3.973 -0.3088  0.7542  0.3119
26304SOL    HW181165   5.165   5.736   3.937  0.8584  2.7178 -1.8364
26304SOL    HW281166   5.031   5.757   4.004  1.5429 -1.7820  1.3766
26305SOL     OW81167   2.149   7.057   7.988 -0.5300  0.1436 -0.2878
26305SOL    HW181168   2.078   6.993   7.992  0.4966 -1.0603 -0.8513
26305SOL    HW281169   2.209   7.031   8.057 -0.6801  1.2351  0.2714
26306SOL     OW81170   8.491   2.339   3.509  0.0605  0.4682  0.5083
26306SOL    HW181171   8.421   2.388   3.466  0.3691 -0.2341 -0.8785
26306SOL    HW281172   8.554   2.323   3.439  1.1098  0.1978  1.5031
26307SOL     OW81173   8.547   3.069   8.615  0.3952 -0.0037  0.2159
26307SOL    HW181174   8.474   3.056   8.676  0.4755  1.3921  0.6533
26307SOL    HW281175   8.517   3.029   8.533 -0.8742  0.5182  0.3973
26308SOL     OW81176   7.259   4.962   3.743  0.1222 -0.6782  0.6032
26308SOL    HW181177   7.294   4.952   3.832 -1.2125  0.9717  1.3694
26308SOL    HW281178   7.186   5.022   3.753 -0.7359 -1.2986 -1.4814
26309SOL     OW81179   2.982   5.052   4.438  0.4151  0.0736  0.3361
26309SOL    HW181180   2.901   5.094   4.468 -0.0590  0.6049 -1.5537
26309SOL    HW281181   2.955   5.001   4.362  1.5157 -1.4333  0.9170
26310SOL     OW81182   9.915   0.192   7.211  0.1778  0.1989 -0.3206
26310SOL    HW181183   9.874   0.270   7.173  0.3603  1.5236  2.0162
26310SOL    HW281184   9.843   0.144   7.250  0.4301  0.9157  1.0710
26311SOL     OW81185   8.265   5.747   5.953  0.0844  0.0173  0.1584
26311SOL    HW181186   8.348   5.793   5.940 -0.1961  1.2398  2.1721
26311SOL    HW281187   8.230   5.736   5.865  1.4014  1.3901 -0.5956
26312SOL     OW81188   4.009   8.342   3.894  0.1376  0.3013 -0.0285
26312SOL    HW181189   4.028   8.433   3.917 -0.3238  0.9429 -1.9199
26312SOL    HW281190   3.925   8.324   3.936  0.5098  0.5312  0.8409
26313SOL     OW81191   7.582   6.314   0.274  0.4251  0.5039  0.2059
26313SOL    HW181192   7.553   6.405   0.281 -0.9521  0.0855  0.2029
26313SOL    HW281193   7.529   6.277   0.204  1.3818 -0.1590 -0.1866
26314SOL     OW81194   7.791   2.689   5.470 -0.3827  0.6407  0.0085
26314SOL    HW181195   7.818   2.599   5.452  0.5851  1.0529 -0.7117
26314SOL    HW281196   7.701   2.682   5.502  0.7472 -0.8739  3.2993
26315SOL     OW81197  10.477   4.302   2.327  0.1655  0.2565 -0.8175
26315SOL    HW181198  10.563   4.344   2.315 -0.4421  0.9990 -2.9431
26315SOL    HW281199  10.454   4.269   2.241 -0.8250 -1.7512  0.1443
26316SOL     OW81200   7.594  10.452   3.501  0.5244  0.2142 -0.2699
26316SOL    HW181201   7.647  10.438   3.580  0.0197 -0.7177 -0.0790
26316SOL    HW281202   7.589  10.547   3.492 -0.2362  0.3682  1.4027
26317SOL     OW81203   6.850   5.152   7.693  0.2705 -0.5510  0.2225
26317SOL    HW181204   6.854   5.065   7.732 -0.3577 -0.6606  0.0495
26317SOL    HW281205   6.932   5.161   7.645 -0.0968 -1.4598 -0.6099
26318SOL     OW81206   6.235   1.731   9.066 -0.0883  0.0843 -0.1269
26318SOL    HW181207   6.177   1.806   9.076  0.6972  0.6539  0.2582
26318SOL    HW281208   6.219   1.677   9.143  0.4565  0.6460  0.3923
26319SOL     OW81209   5.032  10.023   4.992 -0.4019  0.5793  0.1325
26319SOL    HW181210   4.979  10.076   5.051 -1.1917 -0.2966  0.2278
26319SOL    HW281211   5.121  10.027   5.029 -0.7334  0.6750  0.9413
26320SOL     OW81212   3.595   7.130   5.643 -0.0967  0.1797 -0.1062
26320SOL    HW181213   3.686   7.112   5.666 -0.4349 -1.1426  0.2513
26320SOL    HW281214   3.548   7.049   5.663 -1.3022  0.7314 -0.5933
26321SOL     OW81215   4.298   9.329   9.731  0.1919 -0.2352 -0.3494
26321SOL    HW181216   4.264   9.375   9.654  0.3434  1.4069  0.5152
26321SOL    HW281217   4.220   9.306   9.781  0.1775  1.4850  0.5011
26322SOL     OW81218   9.304   6.899   1.903  0.2384  0.1677  0.3413
26322SOL    HW181219   9.297   6.930   1.993  0.0909  1.2900 -0.0430
26322SOL    HW281220   9.216   6.909   1.866  0.5401  0.7745 -0.2458
26323SOL     OW81221   3.314   0.570   7.143  0.0614 -0.1576  0.1862
26323SOL    HW181222   3.307   0.592   7.236 -0.0106  2.1613 -0.2902
26323SOL    HW281223   3.236   0.609   7.103  1.4103  1.3415 -1.1836
26324SOL     OW81224   0.653   4.402   4.309  0.0214  0.3378 -0.1795
26324SOL    HW181225   0.579   4.371   4.258 -0.6401  2.0000 -0.2778
26324SOL    HW281226   0.710   4.325   4.318 -1.7764 -1.0236  0.0615
26325SOL     OW81227   1.132   7.484   7.768 -0.2309  0.1370  0.5496
26325SOL    HW181228   1.073   7.447   7.702 -0.9679  1.1998  0.5773
26325SOL    HW281229   1.095   7.456   7.852  0.1231 -0.3670  0.5421
26326SOL     OW81230   0.813   4.143   7.889  0.0925 -0.0173 -0.8245
26326SOL    HW181231   0.745   4.097   7.938  0.3285  0.1227 -0.3570
26326SOL    HW281232   0.852   4.203   7.952  2.0208 -1.5288 -0.4598
26327SOL     OW81233   9.289   9.756   7.978 -0.1097 -0.0042 -0.1575
26327SOL    HW181234   9.218   9.700   7.946 -0.8476  0.9395 -0.2227
26327SOL    HW281235   9.369   9.704   7.964 -0.7141 -0.8079 -0.7226
26328SOL     OW81236   7.067   2.737   7.613  0.1819 -0.2454  0.4114
26328SOL    HW181237   7.127   2.761   7.543 -1.3752  2.2465 -0.1906
26328SOL    HW281238   7.060   2.816   7.667 -2.7487 -0.3154  0.2775
26329SOL     OW81239   2.709  10.253   7.383  0.3266 -0.0793  0.4693
26329SOL    HW181240   2.749  10.337   7.363  2.4459 -0.8154  1.3492
26329SOL    HW281241   2.616  10.273   7.398  0.7864  2.0694  0.6437
26330SOL     OW81242   1.587   0.634   6.943 -0.2250  0.1531 -0.3238
26330SOL    HW181243   1.581   0.727   6.965  2.2502  0.3079  0.0596
26330SOL    HW281244   1.576   0.631   6.848  1.4436  1.1208 -0.5931
26331SOL     OW81245  10.108   4.551   6.340  0.5645 -0.2896 -0.1338
26331SOL    HW181246  10.113   4.623   6.277 -0.5120  0.2722  0.4036
26331SOL    HW281247  10.076   4.477   6.288 -1.8645  0.5667 -0.0003
26332SOL     OW81248   9.879  10.029  10.457  1.1472  0.0837  0.4544
26332SOL    HW181249   9.943   9.977  10.506 -0.0405 -1.4197  0.4701
26332SOL    HW281250   9.796  10.016  10.503  0.1235 -0.8341 -1.4897
26333SOL     OW81251   2.824   3.780   0.988  0.3002  0.2343  0.2836
26333SOL    HW181252   2.781   3.712   1.041  3.9115 -1.6886  1.0505
26333SOL    HW281253   2.858   3.842   1.052  1.3269  0.0271 -0.0550
26334SOL     OW81254   6.076   6.818   4.605  0.1002 -0.3359 -0.2669
26334SOL    HW181255   6.137   6.820   4.679 -1.1930  0.3143  0.8134
26334SOL    HW281256   6.092   6.900   4.559 -0.2854  0.0690  0.3054
26335SOL     OW81257   1.755   4.227   0.718  0.2265  0.2900 -0.3625
26335SOL    HW181258   1.828   4.265   0.767  1.6060 -1.0954 -1.2297
26335SOL    HW281259   1.766   4.260   0.629  1.5305 -2.0612 -1.1660
26336SOL     OW81260   2.222   4.333   6.720 -0.4567  0.1297  0.3075
26336SOL    HW181261   2.254   4.286   6.797 -1.4184  0.5215  0.9735
26336SOL    HW281262   2.300   4.376   6.685  0.4137 -1.7454 -0.2045
26337SOL     OW81263   0.474   3.998   2.813  0.1032 -0.0167  0.5047
26337SOL    HW181264   0.469   3.941   2.736  0.3500  0.4124  0.1664
26337SOL    HW281265   0.567   4.009   2.829  0.1240  1.4545 -0.3298
26338SOL     OW81266   3.639   0.387   8.653  0.3662  0.0409  0.0276
26338SOL    HW181267   3.708   0.387   8.586  0.2939  2.4183 -0.1226
26338SOL    HW281268   3.676   0.336   8.725  1.8318  0.2976 -0.5092
26339SOL     OW81269   1.255   4.090   8.530 -0.6213  0.1973 -0.2830
26339SOL    HW181270   1.230   4.024   8.465 -0.4931 -1.4563  1.2604
26339SOL    HW281271   1.294   4.161   8.479  0.1279 -1.3360 -1.9565
26340SOL     OW81272   1.533   8.701   0.382 -0.3874  0.5380 -0.1519
26340SOL    HW181273   1.471   8.730   0.316 -0.9956 -1.9745 -0.8022
26340SOL    HW281274   1.489   8.629   0.427  0.6184  1.1528  1.9913
26341SOL     OW81275   2.557   7.365   9.426 -0.2397  0.2447  0.6266
26341SOL    HW181276   2.558   7.458   9.402 -0.4074 -0.5081 -2.9453
26341SOL    HW281277   2.501   7.325   9.360 -1.3578 -2.2770  2.9279
26342SOL     OW81278   9.467   9.032   6.139 -0.1704 -1.0877 -0.4314
26342SOL    HW181279   9.431   9.080   6.214 -0.0615 -2.8431  0.7913
26342SOL    HW281280   9.461   9.094   6.067  1.5374  1.4108  1.4034
26343SOL     OW81281   1.236   2.116   7.784  0.2548  0.1107 -0.5551
26343SOL    HW181282   1.236   2.031   7.829  0.6997  0.8984  1.0127
26343SOL    HW281283   1.252   2.095   7.692  0.7235 -1.4733 -0.1370
26344SOL     OW81284   7.379   7.270   1.094  0.5050  0.5117  0.3262
26344SOL    HW181285   7.287   7.283   1.073  0.6610  0.3703 -0.4887
26344SOL    HW281286   7.380   7.193   1.152 -0.1320  2.2157  2.7338
26345SOL     OW81287   6.706   3.631   8.480 -0.1372 -0.1148  0.8582
26345SOL    HW181288   6.797   3.625   8.509  0.8484  0.9562 -1.7228
26345SOL    HW281289   6.663   3.682   8.548  0.9972 -1.1895  2.4534
26346SOL     OW81290   1.800   0.791   1.951 -0.1021 -0.3648 -0.1453
26346SOL    HW181291   1.791   0.739   2.031 -0.1127 -1.5505 -0.8820
26346SOL    HW281292   1.741   0.865   1.964 -2.1939 -1.9151 -0.1005
26347SOL     OW81293   3.665   7.579   7.396  0.5842 -0.4209 -0.4158
26347SOL    HW181294   3.686   7.598   7.304 -1.7173  0.6274 -0.8170
26347SOL    HW281295   3.613   7.499   7.392  1.3206 -0.9244  0.0933
26348SOL     OW81296   1.424   8.462   8.284 -0.1512 -0.3872 -0.3738
26348SOL    HW181297   1.390   8.397   8.345 -4.1898  0.0998 -1.8453
26348SOL    HW281298   1.438   8.540   8.338 -0.2267 -0.9778  0.5211
26349SOL     OW81299   7.554  10.488   5.576  0.4485 -0.2352  0.4878
26349SOL    HW181300   7.605  10.416   5.539  1.9611  1.4021 -0.8008
26349SOL    HW281301   7.614  10.563   5.577 -1.9902  1.9872 -1.6471
26350SOL     OW81302   4.468   0.290   9.452 -0.0544  0.1398  0.9791
26350SOL    HW181303   4.522   0.212   9.438  0.4576  0.4237  1.3849
26350SOL    HW281304   4.400   0.283   9.384 -0.3147 -0.9198  1.3182
26351SOL     OW81305   4.697   8.420   0.520 -0.1809  0.3738 -0.8545
26351SOL    HW181306   4.790   8.400   0.508  0.2044  2.5867 -1.9260
26351SOL    HW281307   4.656   8.390   0.439 -0.5233 -1.0072 -0.2045
26352SOL     OW81308   9.263   6.868   1.220  0.6011 -0.3240 -0.1086
26352SOL    HW181309   9.310   6.814   1.156 -0.5860 -1.4195 -0.1037
26352SOL    HW281310   9.172   6.839   1.212  0.1287  0.8978  0.7189
26353SOL     OW81311   0.869   8.989  10.205 -0.5552 -0.2883  0.3474
26353SOL    HW181312   0.871   8.906  10.156 -2.4026  0.6436 -1.4633
26353SOL    HW281313   0.942   9.040  10.168 -1.5111  0.1429 -1.0317
26354SOL     OW81314   5.205   4.584  10.447 -0.2789  0.4830  0.4155
26354SOL    HW181315   5.135   4.546  10.500  0.4223  0.1211  1.1018
26354SOL    HW281316   5.248   4.509  10.407  0.3113  0.6372  0.7554
26355SOL     OW81317   3.325   5.342   3.782  0.6771 -0.1256  0.0654
26355SOL    HW181318   3.340   5.290   3.703  0.4640  1.9455 -1.4263
26355SOL    HW281319   3.243   5.307   3.818  0.5250 -0.8098 -0.9018
26356SOL     OW81320   0.308   9.517   4.325  0.0196 -0.6037  0.0049
26356SOL    HW181321   0.220   9.500   4.357  0.1347 -1.1269  0.0643
26356SOL    HW281322   0.354   9.557   4.399 -0.8848  2.1320 -0.8250
26357SOL     OW81323   0.695   4.295   1.362 -0.3291 -0.1627 -0.1584
26357SOL    HW181324   0.648   4.368   1.400  0.4513  0.0066  0.5196
26357SOL    HW281325   0.659   4.218   1.406 -1.2827 -0.2135 -1.0091
26358SOL     OW81326   3.357   7.001   3.940  0.2679 -0.0098 -0.1972
26358SOL    HW181327   3.347   6.927   3.880  2.1877 -0.2131 -0.3069
26358SOL    HW281328   3.440   7.041   3.916 -0.0220  1.2977  0.8452
26359SOL     OW81329   0.175   8.085   7.089  0.1410 -0.1790  0.0392
26359SOL    HW181330   0.133   8.145   7.150  1.3637  1.2263 -0.4377
26359SOL    HW281331   0.109   8.018   7.071 -1.0062  0.6117  1.1611
26360SOL     OW81332   0.551   8.317   5.118  0.0922 -0.2203 -0.1721
26360SOL    HW181333   0.577   8.268   5.196 -0.5802  0.6028  0.5866
26360SOL    HW281334   0.488   8.260   5.074  1.9391 -1.5634 -1.2199
26361SOL     OW81335   1.057   2.109   0.767 -0.9506 -0.2504  0.0045
26361SOL    HW181336   1.140   2.066   0.783 -0.7560 -0.8145 -2.1403
26361SOL    HW281337   1.013   2.052   0.703 -1.5858  1.6155 -1.3229
26362SOL     OW81338   6.292   8.980   5.242  0.0814 -0.1735  0.3278
26362SOL    HW181339   6.341   8.915   5.292  0.3809 -0.8816 -0.8497
26362SOL    HW281340   6.350   9.057   5.241  0.1870 -0.2441  0.8290
26363SOL     OW81341   0.056   0.699   4.817 -0.5785 -0.1079 -0.5237
26363SOL    HW181342   0.004   0.685   4.897 -0.3685 -1.1694 -0.5675
26363SOL    HW281343   0.041   0.791   4.796 -0.6145  0.2036  0.7571
26364SOL     OW81344   8.271   3.227   4.324 -0.2541 -0.0719 -0.2010
26364SOL    HW181345   8.343   3.184   4.370  1.0488  1.0194 -1.1785
26364SOL    HW281346   8.280   3.199   4.233 -1.2435 -0.1310 -0.2996
26365SOL     OW81347   4.738   7.071   8.803  0.0427  0.8451  0.0584
26365SOL    HW181348   4.674   7.056   8.733  0.0963  0.0724  0.1633
26365SOL    HW281349   4.791   6.992   8.804 -2.1827 -0.8855  3.3178
26366SOL     OW81350   4.851   9.004   2.197  0.0525 -0.0047 -0.1349
26366SOL    HW181351   4.875   8.924   2.243  0.5265 -0.8625 -1.7870
26366SOL    HW281352   4.891   9.074   2.249  1.9022 -1.0368 -0.0811
26367SOL     OW81353   7.768   1.426   6.834  0.3678 -0.1656  0.8490
26367SOL    HW181354   7.863   1.433   6.840  0.6783 -1.9739 -0.9171
26367SOL    HW281355   7.749   1.337   6.864 -0.6678 -0.1095  0.4027
26368SOL     OW81356   7.678   7.279   8.619 -0.5564  0.1858  0.1276
26368SOL    HW181357   7.749   7.290   8.555 -2.0807  0.4983 -1.5706
26368SOL    HW281358   7.707   7.330   8.695  2.1087 -1.5890  0.4438
26369SOL     OW81359   5.715   4.110   9.408  0.1797 -0.0192  0.5222
26369SOL    HW181360   5.761   4.040   9.454 -0.6279  0.5665  2.3132
26369SOL    HW281361   5.653   4.064   9.350  1.8920 -0.7808 -0.7869
26370SOL     OW81362   3.551   6.118   7.001 -0.1986 -0.0191  0.0257
26370SOL    HW181363   3.489   6.138   7.071 -1.2296 -0.5654 -0.6963
26370SOL    HW281364   3.515   6.161   6.923  0.7597  0.3177 -0.2483
26371SOL     OW81365   0.619   5.486   2.400 -0.1461  0.0318  0.4815
26371SOL    HW181366   0.600   5.579   2.412 -1.4850 -0.5143  3.2988
26371SOL    HW281367   0.697   5.469   2.452  1.2763 -0.1413 -1.5553
26372SOL     OW81368   3.844   3.428   8.923 -0.4628 -0.0112  0.7038
26372SOL    HW181369   3.904   3.370   8.875 -0.0714  2.0762 -1.4901
26372SOL    HW281370   3.763   3.377   8.930 -0.3858 -0.6140 -1.8502
26373SOL     OW81371   5.489   6.350   5.712  0.1881 -0.0103 -0.2588
26373SOL    HW181372   5.463   6.261   5.733 -0.7720  0.2154 -0.4740
26373SOL    HW281373   5.431   6.376   5.640 -0.0340  1.0411  0.2866
26374SOL     OW81374   7.832   3.714   8.482  0.0395  0.2672 -0.0844
26374SOL    HW181375   7.896   3.777   8.450 -0.6750  0.0415 -2.1053
26374SOL    HW281376   7.793   3.756   8.558  0.8583  1.4569 -0.2932
26375SOL     OW81377   4.590   6.941   3.723 -0.2122 -0.5120  0.1065
26375SOL    HW181378   4.511   6.963   3.773 -2.0647 -2.8803 -1.5423
26375SOL    HW281379   4.629   7.025   3.702 -1.4865  0.6922  2.2110
26376SOL     OW81380   3.275   8.051   8.617 -0.1542  0.0364 -0.3197
26376SOL    HW181381   3.263   8.141   8.584 -1.0093 -0.1809 -0.6420
26376SOL    HW281382   3.308   8.002   8.542  3.5080  0.7139  0.6706
26377SOL     OW81383   8.819   1.405   9.712  0.0180 -0.8960 -0.2453
26377SOL    HW181384   8.801   1.349   9.788  0.4757 -2.4594 -1.2347
26377SOL    HW281385   8.751   1.472   9.715 -1.7508 -2.6068 -0.0629
26378SOL     OW81386   8.338   5.955   4.317  0.0211  0.6824 -0.6162
26378SOL    HW181387   8.318   6.040   4.276  0.3763  1.8186  1.4312
26378SOL    HW281388   8.253   5.919   4.341 -0.1887  3.4325  4.0263
26379SOL     OW81389   0.044  10.010   8.322 -0.6596 -0.6604 -0.4510
26379SOL    HW181390   0.118  10.069   8.312 -0.9379  0.0391  1.2952
26379SOL    HW281391   0.077   9.925   8.293  0.1095  0.0954 -1.8704
26380SOL     OW81392  10.338   5.227   7.342  0.2622  0.5163  0.2755
26380SOL    HW181393  10.311   5.137   7.324  1.4143  0.3189 -0.6429
26380SOL    HW281394  10.429   5.219   7.371  0.3534  1.3823  0.2471
26381SOL     OW81395   5.809   7.567   1.736 -0.2538 -0.2061 -0.4534
26381SOL    HW181396   5.867   7.641   1.715  0.1178 -0.6775 -1.1262
26381SOL    HW281397   5.771   7.590   1.821  1.0919  0.0101  0.1125
26382SOL     OW81398   9.472  10.473   9.098  0.0087 -0.3772 -0.2622
26382SOL    HW181399   9.482  10.378   9.099  0.9247 -0.2946 -0.3599
26382SOL    HW281400   9.408  10.491   9.030 -0.4164 -0.9434 -0.0154
26383SOL     OW81401   7.411   5.193   8.118 -0.2619 -0.3801  0.3120
26383SOL    HW181402   7.374   5.130   8.057 -0.9627  0.6615 -0.3653
26383SOL    HW281403   7.349   5.266   8.119  0.2200  0.0466  1.5353
26384SOL     OW81404   8.769   9.227   5.494  0.0454  0.0904  0.7844
26384SOL    HW181405   8.843   9.174   5.526 -0.4549 -1.7120 -0.8190
26384SOL    HW281406   8.695   9.200   5.548 -0.2778 -1.1639 -0.2323
26385SOL     OW81407   0.050   7.698   8.969  0.2096 -0.5049 -0.3058
26385SOL    HW181408   0.121   7.727   9.026  0.4215 -0.7500 -0.4409
26385SOL    HW281409   0.092   7.685   8.883 -0.1164 -0.0753 -0.5342
26386SOL     OW81410   2.847   9.782   8.838 -0.3303 -0.4295 -0.3393
26386SOL    HW181411   2.800   9.700   8.852 -0.4792 -0.2656  0.1343
26386SOL    HW281412   2.921   9.778   8.900 -0.1544 -0.3480 -0.5424
26387SOL     OW81413   2.509   5.610   6.447 -0.3593 -0.2177 -0.1798
26387SOL    HW181414   2.596   5.645   6.464 -0.4466  0.0926 -0.3578
26387SOL    HW281415   2.507   5.525   6.492  0.7579 -1.1938 -1.8455
26388SOL     OW81416   1.727   8.580   7.806 -0.4635 -0.0716  0.4896
26388SOL    HW181417   1.636   8.606   7.822 -0.0296  0.9290  1.4853
26388SOL    HW281418   1.769   8.583   7.892  0.8636  0.9397 -0.1421
26389SOL     OW81419   1.738   6.459   9.076 -0.3227  0.5544 -0.1578
26389SOL    HW181420   1.665   6.472   9.016 -0.5651 -0.3698 -0.0729
26389SOL    HW281421   1.770   6.548   9.095 -1.6061  0.9876  0.0509
26390SOL     OW81422   2.785   7.645   6.819 -0.4851  0.1288  0.0283
26390SOL    HW181423   2.784   7.551   6.837 -1.1711  0.4653  2.0263
26390SOL    HW281424   2.867   7.660   6.773 -0.3439 -1.4377 -0.2732
26391SOL     OW81425   5.087   2.577   1.879  0.2423  0.3176 -0.3107
26391SOL    HW181426   5.162   2.586   1.820  0.1852 -0.1156 -0.4511
26391SOL    HW281427   5.034   2.655   1.862 -0.6114 -0.5747 -2.0344
26392SOL     OW81428   7.271   7.602   5.980 -0.0349  0.3796 -0.0853
26392SOL    HW181429   7.248   7.663   5.911  1.6612  0.3377 -0.7286
26392SOL    HW281430   7.303   7.524   5.935  2.4844  0.8805  0.6517
26393SOL     OW81431   0.784   9.792   7.386 -0.4071 -0.0417  0.0126
26393SOL    HW181432   0.708   9.837   7.422  0.1946 -0.5777  2.1303
26393SOL    HW281433   0.853   9.859   7.386 -0.5322  0.0948 -0.6775
26394SOL     OW81434   2.260   7.675   8.910 -0.4152  0.4686  0.3613
26394SOL    HW181435   2.252   7.765   8.879 -0.1815  0.1729 -0.5716
26394SOL    HW281436   2.174   7.637   8.895 -0.9658  0.9342  2.1078
26395SOL     OW81437   2.242   0.501   8.696  0.0345  0.0934  0.6302
26395SOL    HW181438   2.302   0.467   8.629  0.3240  0.3433  0.7577
26395SOL    HW281439   2.244   0.596   8.683 -2.5689 -0.0007 -1.2789
26396SOL     OW81440   5.680   7.794   9.419 -0.3294  0.2578  0.0792
26396SOL    HW181441   5.617   7.725   9.404 -0.1792  0.3460 -1.0659
26396SOL    HW281442   5.639   7.873   9.385  0.9229  0.0681 -2.0338
26397SOL     OW81443   7.451   9.857   6.394  0.2621  0.1467 -0.2340
26397SOL    HW181444   7.371   9.909   6.404  0.9472  1.0672  0.6636
26397SOL    HW281445   7.435   9.778   6.445 -0.1063  0.2886 -0.1259
26398SOL     OW81446   2.790   6.744   0.386  0.3638  0.4064  0.1976
26398SOL    HW181447   2.753   6.659   0.362 -1.7301  0.8640  1.5650
26398SOL    HW281448   2.883   6.727   0.400  0.3920 -1.2046 -1.5736
26399SOL     OW81449   3.883   0.205   7.642 -0.3771  0.3674  0.2660
26399SOL    HW181450   3.860   0.186   7.551  0.5635 -0.1588  0.1270
26399SOL    HW281451   3.957   0.265   7.636  1.0497 -1.2750  0.6338
26400SOL     OW81452   9.280   7.452   1.075 -0.0580 -0.0391 -0.4384
26400SOL    HW181453   9.290   7.534   1.124 -1.2091  0.2487 -0.6637
26400SOL    HW281454   9.187   7.448   1.054 -0.4987 -2.5416  1.5176
26401SOL     OW81455   0.228   1.261  10.551 -0.9831  0.6036 -0.4080
26401SOL    HW181456   0.299   1.217  10.597 -2.1529  1.2265  2.1574
26401SOL    HW281457   0.173   1.190  10.517 -0.2421  0.1314 -0.6424
26402SOL     OW81458   9.724   8.953   2.861  0.0700 -0.3949 -0.3758
26402SOL    HW181459   9.667   8.879   2.884 -0.4340  0.7321  2.3601
26402SOL    HW281460   9.703   8.971   2.769 -2.9069 -1.0310  0.0640
26403SOL     OW81461  10.514   4.611   9.620  0.4037  0.0166  0.0040
26403SOL    HW181462  10.554   4.696   9.640  1.0419 -0.0042 -1.1013
26403SOL    HW281463  10.420   4.626   9.629  0.3520  1.4224 -2.1007
26404SOL     OW81464   7.613  10.639   8.835 -0.5704 -0.2728 -0.0866
26404SOL    HW181465   7.519  10.653   8.845 -0.8274 -1.8893  0.0896
26404SOL    HW281466   7.649  10.726   8.817 -1.9958  0.4796  0.5544
26405SOL     OW81467   8.278   9.498   7.545  0.2255  0.0104  0.0820
26405SOL    HW181468   8.345   9.495   7.476 -0.4930 -2.3703 -0.6019
26405SOL    HW281469   8.231   9.415   7.537 -1.0415  0.4199  2.3320
26406SOL     OW81470   3.946   2.002   9.083  0.4047 -0.0098 -0.1519
26406SOL    HW181471   3.980   2.088   9.107  0.2305  0.4848 -1.6008
26406SOL    HW281472   3.872   2.021   9.025  0.3387 -1.1354 -0.4609
26407SOL     OW81473   3.417   3.427   6.941 -0.2341 -0.8688 -0.0220
26407SOL    HW181474   3.507   3.410   6.968  0.7326 -0.1320 -2.4497
26407SOL    HW281475   3.405   3.522   6.952 -0.3450 -0.8036 -0.6288
26408SOL     OW81476   1.548   9.474   4.605 -0.2777  0.8006 -0.0590
26408SOL    HW181477   1.484   9.412   4.569 -0.7883 -0.1589  2.2657
26408SOL    HW281478   1.545   9.549   4.546 -3.3686  0.6595 -0.2625
26409SOL     OW81479   0.054   7.617   4.050  0.6247  0.2382 -0.0920
26409SOL    HW181480   0.130   7.675   4.059  0.9176 -0.2746  0.9690
26409SOL    HW281481   0.091   7.533   4.026  0.3114  0.2051 -0.4533
26410SOL     OW81482   7.603   6.224   2.483  0.1594  0.7585 -0.2773
26410SOL    HW181483   7.629   6.285   2.552  3.4951 -1.0656  0.2978
26410SOL    HW281484   7.524   6.181   2.517 -0.2939  2.3239  0.7637
26411SOL     OW81485   0.832   5.151   0.374 -0.5149  0.4467  0.0761
26411SOL    HW181486   0.919   5.116   0.394 -0.8136 -0.8430 -0.7470
26411SOL    HW281487   0.835   5.242   0.405  1.4252  0.7094 -0.7376
26412SOL     OW81488   0.028   4.896   4.625 -0.2277 -0.1836 -0.3757
26412SOL    HW181489   0.095   4.961   4.606 -1.3689  0.6420 -1.8197
26412SOL    HW281490  -0.009   4.875   4.539 -3.0964  0.8263  0.5172
26413SOL     OW81491   4.193   2.570   5.266 -0.3013 -0.0904 -0.0534
26413SOL    HW181492   4.128   2.510   5.301  0.5910 -0.8356  0.3668
26413SOL    HW281493   4.155   2.657   5.278 -0.3143 -0.3470  2.2047
26414SOL     OW81494   7.947   8.819   9.156 -0.5543  0.2912  0.2713
26414SOL    HW181495   7.990   8.767   9.088  0.2347  0.6852  0.4627
26414SOL    HW281496   7.860   8.837   9.120  0.0482  0.9888 -0.8998
26415SOL     OW81497   6.575   2.122   4.362  0.0285  0.2246  0.2835
26415SOL    HW181498   6.564   2.038   4.317  1.3213 -0.1703  0.6572
26415SOL    HW281499   6.630   2.174   4.302 -3.2739  2.0544 -1.4440
26416SOL     OW81500   5.241   0.030   6.388  0.6024 -0.0195 -0.5660
26416SOL    HW181501   5.310   0.017   6.323  0.4132  0.8450 -0.9553
26416SOL    HW281502   5.203  -0.056   6.400  2.9741 -0.9515  1.0649
26417SOL     OW81503  10.208   5.040   2.055 -0.8139 -0.0472  0.4445
26417SOL    HW181504  10.248   5.011   2.137 -0.0479  1.7886  0.7701
26417SOL    HW281505  10.279   5.085   2.008 -1.5932  0.1356 -0.6033
26418SOL     OW81506   9.752   8.507   8.204 -0.6554  0.2445  0.0771
26418SOL    HW181507   9.804   8.434   8.239  0.8471  1.1595 -0.1558
26418SOL    HW281508   9.758   8.575   8.271  1.5101  1.6802 -1.4543
26419SOL     OW81509   6.265   5.062   0.764  0.5840  0.2080 -0.1951
26419SOL    HW181510   6.244   5.153   0.747 -2.0403 -0.3401 -0.3399
26419SOL    HW281511   6.265   5.020   0.678  0.2867 -0.1880 -0.0094
26420SOL     OW81512   5.217   7.143   6.175 -0.0130  0.0586 -0.1659
26420SOL    HW181513   5.178   7.078   6.234 -0.1711  0.5984  0.3330
26420SOL    HW281514   5.286   7.094   6.129  0.2615 -0.3231  0.6223
26421SOL     OW81515   4.591   7.812   5.020  0.2229  0.0459 -0.1692
26421SOL    HW181516   4.539   7.884   4.984  1.0620  0.3510 -0.7898
26421SOL    HW281517   4.681   7.832   4.995  0.2210 -2.7639 -3.1948
26422SOL     OW81518   2.074   5.990   8.110 -0.0977  0.7107  0.0352
26422SOL    HW181519   2.022   5.917   8.079 -1.7357  2.6223 -1.9685
26422SOL    HW281520   2.096   6.040   8.032  0.5600  2.6405  1.3633
26423SOL     OW81521   2.763   6.116   0.875 -0.0225  0.3928 -0.1424
26423SOL    HW181522   2.763   6.201   0.829  0.2603  0.4831  0.0231
26423SOL    HW281523   2.841   6.119   0.931 -0.3357  0.2624  0.3059
26424SOL     OW81524   6.222   6.952   4.159 -0.1385 -0.2686  0.4520
26424SOL    HW181525   6.294   7.012   4.141 -1.9241  1.5402 -1.1606
26424SOL    HW281526   6.261   6.882   4.211  2.0826  2.2629  2.4665
26425SOL     OW81527   6.386   2.449   9.296 -0.1447 -0.1894  0.2512
26425SOL    HW181528   6.453   2.384   9.318  1.1546  0.8704 -0.4303
26425SOL    HW281529   6.435   2.522   9.258 -1.6185  0.9460  0.4374
26426SOL     OW81530   2.774   6.751   2.218  0.1707  0.0101  0.0224
26426SOL    HW181531   2.739   6.839   2.234 -0.3429 -0.2464  0.3079
26426SOL    HW281532   2.853   6.767   2.167  0.0301  0.6362 -0.0149
26427SOL     OW81533   3.833   4.081  10.612 -0.5612 -0.2361  0.1921
26427SOL    HW181534   3.866   4.048  10.695  1.6971  0.3059 -0.4101
26427SOL    HW281535   3.886   4.159  10.594 -1.1835 -0.1605 -1.5868
26428SOL     OW81536   7.511   1.565   2.681  0.6535  0.0608 -0.2966
26428SOL    HW181537   7.485   1.655   2.698 -0.6974 -0.3191 -0.2492
26428SOL    HW281538   7.429   1.517   2.673  1.3446 -1.3956  0.8734
26429SOL     OW81539   9.471   7.624   6.955 -0.0640 -0.0112  0.3522
26429SOL    HW181540   9.423   7.556   7.003  1.4957 -0.1473  1.8047
26429SOL    HW281541   9.505   7.580   6.878 -0.0108 -0.5987  0.7032
26430SOL     OW81542  10.197   8.787   7.493  0.0376 -0.4871  0.0128
26430SOL    HW181543  10.179   8.870   7.538 -1.7897 -1.4614  1.2344
26430SOL    HW281544  10.282   8.800   7.452 -0.4211  2.1736 -0.3087
26431SOL     OW81545   8.689   1.559   1.849  0.7007 -0.0908  0.2693
26431SOL    HW181546   8.699   1.466   1.870 -1.7274 -0.3761  0.5028
26431SOL    HW281547   8.676   1.601   1.934 -0.6646  0.0562  0.0118
26432SOL     OW81548   9.978   3.238   0.131 -0.3997  0.0502 -0.3285
26432SOL    HW181549  10.014   3.166   0.079 -3.4829 -1.8411 -0.0956
26432SOL    HW281550   9.963   3.201   0.217  0.3693  1.8187  0.6227
26433SOL     OW81551   0.759   0.859   4.385  0.0831 -0.0337 -0.7680
26433SOL    HW181552   0.833   0.851   4.324  0.6030  1.8515 -0.4372
26433SOL    HW281553   0.776   0.939   4.433 -1.0600 -0.7383  0.8953
26434SOL     OW81554   0.572   3.580   5.472  0.4346  0.3326 -0.2352
26434SOL    HW181555   0.483   3.570   5.506  1.0187 -1.6247  0.8286
26434SOL    HW281556   0.579   3.514   5.403  1.3664 -0.2055  0.3580
26435SOL     OW81557  10.563   6.392   8.839  0.5260 -0.4118 -0.2697
26435SOL    HW181558  10.537   6.426   8.924  0.3038 -1.1505 -0.0373
26435SOL    HW281559  10.537   6.460   8.777 -2.7387 -1.4078 -0.1569
26436SOL     OW81560   2.500   6.781   2.510 -0.0544  0.1292  0.1877
26436SOL    HW181561   2.522   6.874   2.508  0.0138  0.1678 -3.7459
26436SOL    HW281562   2.584   6.737   2.526  0.2112  0.6763  0.3308
26437SOL     OW81563   6.655   0.211   3.417  0.5946  0.6855 -0.1632
26437SOL    HW181564   6.669   0.305   3.427  2.1997  0.4925 -0.2997
26437SOL    HW281565   6.701   0.190   3.335  1.1230 -0.3823  0.4011
26438SOL     OW81566   7.543   7.411   5.316  0.2586 -0.0118 -0.1786
26438SOL    HW181567   7.567   7.503   5.300  0.3018 -0.0282 -0.2053
26438SOL    HW281568   7.448   7.414   5.330 -0.1390 -0.2732 -2.4750
26439SOL     OW81569   2.744   0.756   5.106  1.1812  0.3020  0.7873
26439SOL    HW181570   2.775   0.846   5.116  1.8030  0.0245  1.4656
26439SOL    HW281571   2.712   0.732   5.192 -1.4656  0.7343  0.0066
26440SOL     OW81572   7.928   0.011   3.751 -0.4159 -0.0040  0.1954
26440SOL    HW181573   8.008   0.055   3.721 -0.6669  0.1101 -0.3030
26440SOL    HW281574   7.870   0.083   3.777 -0.2385 -0.0970  0.8799
26441SOL     OW81575   5.398   5.500   5.910 -0.0603  0.2821 -0.3828
26441SOL    HW181576   5.478   5.513   5.859 -0.0845  1.9078 -0.0623
26441SOL    HW281577   5.418   5.425   5.967  1.3684  0.8817 -0.0558
26442SOL     OW81578   0.748  10.125   7.225  0.0785  0.4593  0.3679
26442SOL    HW181579   0.757  10.220   7.223  1.8847  0.3587  1.5696
26442SOL    HW281580   0.739  10.103   7.317 -1.0231 -0.5188  0.0624
26443SOL     OW81581   7.104   3.663   5.953 -0.3547 -0.7026 -0.1924
26443SOL    HW181582   7.189   3.692   5.985 -0.3866 -2.0069  1.1518
26443SOL    HW281583   7.078   3.593   6.013 -2.6295  0.0337 -0.2333
26444SOL     OW81584   0.701   9.471   3.834  0.0685  0.4258  0.1264
26444SOL    HW181585   0.615   9.460   3.793  0.0374  2.0115 -0.3355
26444SOL    HW281586   0.684   9.526   3.911  0.7348  1.3891 -0.3834
26445SOL     OW81587   7.765   4.743   9.939 -0.0357  0.6032 -0.0091
26445SOL    HW181588   7.751   4.692   9.859  1.9014  0.8052 -0.5104
26445SOL    HW281589   7.839   4.800   9.919  0.2746  0.9020  1.8209
26446SOL     OW81590   6.333   3.192   6.633  0.2678  0.1964  0.5301
26446SOL    HW181591   6.415   3.213   6.678  0.4619 -0.6938  0.6004
26446SOL    HW281592   6.265   3.212   6.698  0.2995  2.4566 -0.0597
26447SOL     OW81593   1.906   7.574   4.342  0.0868  0.3343 -0.9084
26447SOL    HW181594   1.969   7.605   4.277  0.5920 -2.7163 -2.0173
26447SOL    HW281595   1.836   7.639   4.339  1.3201  1.6880 -2.5750
26448SOL     OW81596   6.314   0.024   0.512 -0.5837 -0.1799 -0.2720
26448SOL    HW181597   6.394  -0.002   0.467 -0.5256  1.1987 -1.0181
26448SOL    HW281598   6.248   0.030   0.443 -1.1309 -0.4778  0.2147
26449SOL     OW81599   4.938   2.137   4.292 -0.0956 -0.2038 -0.3067
26449SOL    HW181600   4.979   2.143   4.206 -0.8799 -1.9292 -0.8462
26449SOL    HW281601   4.845   2.153   4.276 -0.0262  1.2211  0.5295
26450SOL     OW81602   3.168   5.414   8.414 -0.0938 -0.1119 -0.0242
26450SOL    HW181603   3.107   5.459   8.355 -0.3231  0.3101  0.5274
26450SOL    HW281604   3.226   5.483   8.446 -0.6017 -0.1468  1.0197
26451SOL     OW81605   4.122   3.430   8.626 -0.2921  0.1492 -0.1774
26451SOL    HW181606   4.166   3.437   8.711  0.4803 -1.9070 -0.3498
26451SOL    HW281607   4.047   3.373   8.643  0.0994 -0.6123 -0.9277
26452SOL     OW81608   0.868   1.244   7.139  0.4378 -0.4330 -0.1331
26452SOL    HW181609   0.785   1.209   7.172 -1.3283  1.9976 -1.6293
26452SOL    HW281610   0.901   1.299   7.210 -0.4389  0.3755 -0.3353
26453SOL     OW81611   3.096   7.623   9.779 -0.2647  0.2683  0.6462
26453SOL    HW181612   3.037   7.698   9.785 -0.9851 -0.2075 -0.2695
26453SOL    HW281613   3.066   7.575   9.702  0.1436 -1.0071  1.2574
26454SOL     OW81614   6.066   9.397   6.167 -0.3462 -0.1316  0.3294
26454SOL    HW181615   6.079   9.367   6.077 -1.1686  1.2148 -0.2682
26454SOL    HW281616   6.009   9.331   6.206  1.2209 -1.5370  0.3693
26455SOL     OW81617   1.730   4.198   8.312 -0.0077  0.1336  0.3792
26455SOL    HW181618   1.769   4.111   8.307 -1.4566 -0.6889  2.0725
26455SOL    HW281619   1.727   4.229   8.221  2.9865 -0.3811  0.0026
26456SOL     OW81620   7.058   2.678   6.039  0.4222 -0.1243  0.9509
26456SOL    HW181621   7.134   2.729   6.012 -0.1486  0.4836  0.4317
26456SOL    HW281622   7.063   2.674   6.134  2.1193 -1.7177  0.8379
26457SOL     OW81623   9.209   0.860   0.868  0.8206 -0.1736 -0.1767
26457SOL    HW181624   9.180   0.835   0.956  2.0672  0.5688  0.4650
26457SOL    HW281625   9.244   0.948   0.878 -0.1462  0.4183 -1.6873
26458SOL     OW81626   0.929   5.605   5.262  0.3022 -0.0063  0.2901
26458SOL    HW181627   0.928   5.671   5.331  1.5370  2.0880 -1.5469
26458SOL    HW281628   0.837   5.583   5.248 -0.1300  1.2193  1.0496
26459SOL     OW81629   6.446   4.190   7.024  0.0349 -0.3860  0.5565
26459SOL    HW181630   6.510   4.138   6.974 -0.9622 -0.5897 -0.5459
26459SOL    HW281631   6.366   4.185   6.973  0.0053  2.6842  0.1017
26460SOL     OW81632   6.695   8.789   0.663  0.2437  0.2590  0.0180
26460SOL    HW181633   6.711   8.843   0.740 -0.2163 -0.7811  0.8691
26460SOL    HW281634   6.600   8.788   0.654  0.0995 -1.9180  1.1769
26461SOL     OW81635   9.924   0.601   4.602  0.3999 -0.1938 -0.3728
26461SOL    HW181636   9.874   0.682   4.616  0.2508  0.1630 -2.5347
26461SOL    HW281637  10.014   0.624   4.624 -0.2215 -0.7429  3.2386
26462SOL     OW81638   1.608   6.066   6.550 -0.1369 -0.3528 -0.2654
26462SOL    HW181639   1.583   6.088   6.460 -0.9407 -0.5828 -0.1043
26462SOL    HW281640   1.570   5.980   6.565  1.6296 -1.1814 -0.3439
26463SOL     OW81641   3.902   9.559   3.002 -0.5717 -0.2866 -0.2909
26463SOL    HW181642   3.904   9.466   3.020  0.0726 -0.6755 -2.1002
26463SOL    HW281643   3.833   9.570   2.936 -1.5826  0.7447  0.8842
26464SOL     OW81644   2.127   9.278   8.712 -0.2108  0.1916 -0.1703
26464SOL    HW181645   2.150   9.347   8.650 -3.0742 -0.3261 -1.9791
26464SOL    HW281646   2.193   9.210   8.698  0.1997  0.8247 -1.4184
26465SOL     OW81647   2.258  10.267   3.228  0.0069  0.2231  0.3659
26465SOL    HW181648   2.319  10.206   3.186 -0.5406 -0.4433  0.5228
26465SOL    HW281649   2.302  10.295   3.308  0.6827  0.8191 -0.1967
26466SOL     OW81650   9.635   9.508   5.312 -0.2327 -0.8135 -0.1000
26466SOL    HW181651   9.648   9.580   5.250 -0.7642 -0.3642  0.2896
26466SOL    HW281652   9.656   9.429   5.263  0.6699 -0.3672 -0.4498
26467SOL     OW81653   2.180   4.910   0.859 -0.0544  0.0437  0.0460
26467SOL    HW181654   2.246   4.867   0.804 -1.2743 -1.9329  0.0289
26467SOL    HW281655   2.185   4.865   0.943  0.4262  1.7179  0.9656
26468SOL     OW81656   5.136  10.073   0.643  0.2672 -0.7075  0.0485
26468SOL    HW181657   5.126  10.167   0.631 -0.2445 -0.5681  1.4666
26468SOL    HW281658   5.049  10.037   0.630 -0.6124 -0.4260  3.9909
26469SOL     OW81659   1.132   1.775   8.739 -0.3230 -0.2975  0.1388
26469SOL    HW181660   1.189   1.722   8.684  0.1624 -0.9704  1.2590
26469SOL    HW281661   1.086   1.833   8.677 -0.6258 -1.7789 -1.0887
26470SOL     OW81662   6.308   4.491  10.438  0.5999  0.0350  0.1701
26470SOL    HW181663   6.375   4.559  10.448  1.0579 -0.2595 -0.8215
26470SOL    HW281664   6.241   4.514  10.503  0.9944  1.1374  0.2046
26471SOL     OW81665   9.778   3.798   1.004 -0.1287  0.7704 -0.3575
26471SOL    HW181666   9.839   3.872   1.000  0.3570  0.3500 -0.9263
26471SOL    HW281667   9.797   3.748   0.924  0.3219 -0.5772  0.5609
26472SOL     OW81668   2.159  10.505   5.757  0.0298  0.4589 -0.3173
26472SOL    HW181669   2.217  10.453   5.702 -1.1480  0.2393 -1.4001
26472SOL    HW281670   2.196  10.593   5.756  2.3369 -0.3457  1.9398
26473SOL     OW81671   4.925   3.608   0.395 -0.2398 -0.2263  0.1587
26473SOL    HW181672   5.011   3.569   0.378  0.6190  1.5699  0.2399
26473SOL    HW281673   4.924   3.625   0.489 -0.3600  0.4916  0.0306
26474SOL     OW81674   6.550   4.330   8.780  0.1099 -0.0682 -0.5700
26474SOL    HW181675   6.481   4.376   8.733  1.3084  3.4142  0.7307
26474SOL    HW281676   6.625   4.331   8.721  0.5306  0.9960 -0.0570
26475SOL     OW81677   8.738   8.819   5.233  0.6867  0.2102  0.2857
26475SOL    HW181678   8.754   8.912   5.218  0.8082  0.2254  0.5202
26475SOL    HW281679   8.780   8.799   5.316 -0.1290  0.1550  0.6954
26476SOL     OW81680   2.068   5.956   9.574  0.6760 -0.4935  1.0635
26476SOL    HW181681   2.061   6.051   9.584 -1.4184 -0.5616  0.6549
26476SOL    HW281682   2.136   5.943   9.508 -1.2403  0.9228 -1.3722
26477SOL     OW81683   7.130   4.262   6.716  0.2602 -0.2065 -0.1121
26477SOL    HW181684   7.163   4.203   6.784 -1.3488 -0.8234  0.1699
26477SOL    HW281685   7.149   4.350   6.750  0.7466 -0.5321  0.4772
26478SOL     OW81686   1.798   2.293   4.772  0.4715  0.3099  0.0814
26478SOL    HW181687   1.876   2.257   4.814  0.0868  1.0099  1.4474
26478SOL    HW281688   1.833   2.354   4.707  1.0800  0.2451  0.3328
26479SOL     OW81689   6.859   7.684   4.247 -0.1709 -0.1286  0.8081
26479SOL    HW181690   6.900   7.717   4.167 -0.8927  0.2818  0.5915
26479SOL    HW281691   6.769   7.664   4.221 -0.7483  1.0724  1.7580
26480SOL     OW81692   8.738   4.433   9.178 -0.1750  0.3449 -0.2624
26480SOL    HW181693   8.776   4.507   9.130  0.9724  0.1019  0.2286
26480SOL    HW281694   8.812   4.396   9.227 -0.1089 -2.6243 -2.3466
26481SOL     OW81695   5.418   0.727   8.410 -0.1982 -0.5093 -0.1421
26481SOL    HW181696   5.439   0.635   8.394  0.0408 -0.1128 -2.3796
26481SOL    HW281697   5.356   0.751   8.341  2.6774  1.9780 -2.1543
26482SOL     OW81698   9.870   8.001  10.098 -0.2586 -0.7143 -0.4064
26482SOL    HW181699   9.862   8.071  10.163  0.5617 -1.0705  0.0957
26482SOL    HW281700   9.867   7.920  10.149 -1.0663 -1.0505 -0.9724
26483SOL     OW81701  10.511   6.214   7.466  0.0229 -0.1037 -0.9493
26483SOL    HW181702  10.597   6.172   7.462  0.2725  0.2858  0.0347
26483SOL    HW281703  10.510   6.258   7.551 -1.1647 -0.1242 -0.9463
26484SOL     OW81704   3.673   6.964   7.738 -0.1016  0.2864 -0.0606
26484SOL    HW181705   3.739   6.925   7.681  1.2825  1.7143  0.4756
26484SOL    HW281706   3.634   6.890   7.784  1.1957 -0.5992 -0.3302
26485SOL     OW81707   2.980  10.466   6.449 -0.2825 -0.0880  0.0654
26485SOL    HW181708   2.974  10.521   6.371  0.1381  0.1419  0.1947
26485SOL    HW281709   3.068  10.482   6.484 -0.2598 -0.6166  0.2684
26486SOL     OW81710   3.720   5.333   1.945  0.2566  0.0195 -0.4259
26486SOL    HW181711   3.717   5.406   1.884  0.5507 -0.3412 -0.8833
26486SOL    HW281712   3.812   5.308   1.948  0.1460 -0.3916 -0.3581
26487SOL     OW81713   0.009   4.904   6.347  0.3859  0.4656  0.3021
26487SOL    HW181714   0.079   4.953   6.303 -0.1204  0.2761 -0.7521
26487SOL    HW281715   0.031   4.812   6.332 -1.6404  0.3271 -2.7963
26488SOL     OW81716   7.763   8.070   9.733 -0.0498 -0.8789  0.0249
26488SOL    HW181717   7.742   8.162   9.746  2.3792 -0.2166 -0.2218
26488SOL    HW281718   7.700   8.039   9.668  0.9238  1.4748 -2.2094
26489SOL     OW81719   3.774   4.728   9.386 -0.6464 -0.2989  0.2698
26489SOL    HW181720   3.740   4.774   9.309  3.2641  0.5373 -1.2439
26489SOL    HW281721   3.780   4.637   9.358  0.1206 -0.1080 -0.2521
26490SOL     OW81722   0.004   5.931   9.914 -0.5628  0.3933  0.0502
26490SOL    HW181723   0.084   5.946   9.964 -0.9908  0.0741  0.8485
26490SOL    HW281724   0.006   5.997   9.844  0.1064  0.7621  0.4102
26491SOL     OW81725   6.683   5.204   9.751 -0.8916  0.2563  0.6019
26491SOL    HW181726   6.661   5.120   9.710 -0.9755  1.2068 -1.4250
26491SOL    HW281727   6.746   5.181   9.820 -1.3332 -1.5193  0.4656
26492SOL     OW81728   2.935   4.590   6.896 -0.2728 -0.0260  0.0985
26492SOL    HW181729   3.018   4.578   6.850 -0.6605 -1.8486 -0.2109
26492SOL    HW281730   2.897   4.668   6.856  0.1008 -0.6822 -1.6724
26493SOL     OW81731   1.868   9.664   6.235  0.2301 -0.0182  0.3462
26493SOL    HW181732   1.864   9.569   6.231 -1.9381  0.0649 -1.3525
26493SOL    HW281733   1.921   9.689   6.159  1.5229  0.1614  1.2633
26494SOL     OW81734   9.905   4.183   1.957  0.3999  0.3021  0.0883
26494SOL    HW181735  10.000   4.183   1.965  0.5924 -1.8720 -1.2316
26494SOL    HW281736   9.890   4.184   1.862 -0.9118  0.6260  0.2840
26495SOL     OW81737   9.491   9.590   5.779 -0.1141  0.1257  0.0517
26495SOL    HW181738   9.417   9.544   5.738 -1.6066  2.0782  0.4134
26495SOL    HW281739   9.484   9.679   5.747 -0.7746  1.5531  3.7264
26496SOL     OW81740   0.303   3.907   0.461  0.3756  0.4061 -0.1996
26496SOL    HW181741   0.305   3.986   0.407 -0.3726 -0.5075 -1.6263
26496SOL    HW281742   0.280   3.837   0.400  0.5535 -0.8476  1.1216
26497SOL     OW81743   0.950   9.033   9.783  0.0220  0.3936  0.0439
26497SOL    HW181744   0.952   9.119   9.825 -0.0044  0.6093 -0.3885
26497SOL    HW281745   0.861   9.002   9.794  0.8042 -1.1576  3.3123
26498SOL     OW81746   6.718   9.760   9.077 -0.9021 -0.2516  0.6175
26498SOL    HW181747   6.677   9.699   9.015 -0.0563 -1.1377  0.9054
26498SOL    HW281748   6.791   9.798   9.028 -0.7245 -0.3454  0.8105
26499SOL     OW81749   0.504   3.224   1.181  0.0588 -0.0483  0.0712
26499SOL    HW181750   0.498   3.128   1.189  0.2149 -0.0670 -0.0326
26499SOL    HW281751   0.478   3.242   1.091 -0.3249  0.0391  0.2000
26500SOL     OW81752  10.491   5.829   8.638 -0.3249  0.0778 -0.9458
26500SOL    HW181753  10.449   5.913   8.617 -0.4382  0.5037  0.8156
26500SOL    HW281754  10.419   5.773   8.668 -0.2156 -0.5998 -1.8989
26501SOL     OW81755  10.177   0.969   2.832  0.0316  0.0632 -0.1785
26501SOL    HW181756  10.263   0.968   2.873  0.9599  1.6518 -1.9172
26501SOL    HW281757  10.122   1.022   2.890  0.4730 -0.1701  0.4601
26502SOL     OW81758   0.516   5.654  10.263 -0.3530 -0.2277 -0.2430
26502SOL    HW181759   0.515   5.613  10.177  0.9581 -1.5739  0.3332
26502SOL    HW281760   0.423   5.658  10.289 -0.7372 -0.0078 -1.6043
26503SOL     OW81761   3.902   8.126   5.374  0.1293 -0.6251 -0.2824
26503SOL    HW181762   3.924   8.171   5.292 -0.1315  1.7410  0.8651
26503SOL    HW281763   3.902   8.195   5.440 -0.4099 -2.3388  1.6074
26504SOL     OW81764   3.331   4.431   3.305 -0.0636  0.2255 -0.2671
26504SOL    HW181765   3.281   4.421   3.386  0.0743 -0.3131 -0.2434
26504SOL    HW281766   3.337   4.342   3.270  2.2091  0.0117  0.5196
26505SOL     OW81767   1.005  10.518   6.607 -0.0863  0.6121  0.6660
26505SOL    HW181768   0.964  10.581   6.667  1.8389  2.6785 -0.0118
26505SOL    HW281769   1.085  10.562   6.578  0.9234 -1.8378 -0.5797
26506SOL     OW81770   2.868   6.941   7.149  0.2037 -0.2301 -0.5512
26506SOL    HW181771   2.787   6.947   7.098  1.3371  0.4555 -2.3706
26506SOL    HW281772   2.927   6.889   7.093  1.0997 -0.5258  0.6384
26507SOL     OW81773  10.090   5.535   8.627 -0.1012 -0.0494  0.5537
26507SOL    HW181774  10.099   5.630   8.626 -1.4290  0.0962  0.9213
26507SOL    HW281775  10.070   5.513   8.718 -0.9706 -0.5444  0.2594
26508SOL     OW81776   9.706   5.774   6.502 -0.0731  0.4047 -0.4907
26508SOL    HW181777   9.616   5.776   6.469 -0.7140 -0.6681  1.0381
26508SOL    HW281778   9.696   5.770   6.598  1.6313  1.3683 -0.2382
26509SOL     OW81779  10.606   5.664  10.405 -0.0057 -0.2377 -0.7472
26509SOL    HW181780  10.691   5.685  10.443 -1.0056  2.5071  0.2010
26509SOL    HW281781  10.547   5.656  10.480 -1.0701  0.5397 -1.4660
26510SOL     OW81782   1.257   3.675   5.396  0.1329  0.3772  0.0919
26510SOL    HW181783   1.259   3.639   5.485  1.0682  0.9233  0.2968
26510SOL    HW281784   1.305   3.610   5.343 -0.3158  0.1140  0.0031
26511SOL     OW81785   1.022   6.480   4.633 -0.2468 -0.3364 -0.3073
26511SOL    HW181786   0.930   6.455   4.643 -0.8509  1.2860 -1.3530
26511SOL    HW281787   1.068   6.396   4.623 -1.5356 -1.2027  0.5898
26512SOL     OW81788   8.319  10.649   3.677  0.3486  0.0629 -0.1708
26512SOL    HW181789   8.412  10.670   3.678  0.5473 -0.5493 -1.9343
26512SOL    HW281790   8.300  10.621   3.766  1.7322  0.6744  0.3446
26513SOL     OW81791   0.795   9.525   5.459 -0.3101  0.6722 -0.0989
26513SOL    HW181792   0.791   9.437   5.422  1.2949  0.1508  0.8514
26513SOL    HW281793   0.753   9.517   5.545 -0.1549  0.8250 -0.0073
26514SOL     OW81794   4.510  10.103   0.414 -0.6155  0.1162  0.3983
26514SOL    HW181795   4.480  10.013   0.425 -1.6496  0.5811  1.8111
26514SOL    HW281796   4.431  10.156   0.424 -0.4127  1.1355 -2.4565
26515SOL     OW81797   7.736   8.878   8.988 -0.4534 -0.8326  0.3688
26515SOL    HW181798   7.707   8.848   8.901 -0.6992  0.4875 -0.0345
26515SOL    HW281799   7.742   8.973   8.979  0.3561 -0.7549  1.5634
26516SOL     OW81800   7.329   5.919  10.014  0.2757 -0.0378  0.4835
26516SOL    HW181801   7.271   5.934   9.939  0.6028 -1.9641 -0.2235
26516SOL    HW281802   7.413   5.956   9.988  0.4649 -0.9338 -0.2729
26517SOL     OW81803   5.603   9.654   9.832 -0.1307 -0.2307 -0.1594
26517SOL    HW181804   5.560   9.730   9.871 -1.5483 -0.9367 -0.2779
26517SOL    HW281805   5.538   9.618   9.771  0.9741 -0.8271 -1.0253
26518SOL     OW81806   2.089   4.137   2.472  0.4293 -0.1277  0.5301
26518SOL    HW181807   2.023   4.204   2.489 -0.4257 -0.9399  0.4526
26518SOL    HW281808   2.091   4.084   2.552 -0.8973 -1.6637 -0.3871
26519SOL     OW81809   6.317   8.020   9.526  0.1223  0.0195  0.2337
26519SOL    HW181810   6.383   8.076   9.484 -1.6317  0.9006 -1.5244
26519SOL    HW281811   6.278   8.076   9.593  0.0294  0.0936  0.1195
26520SOL     OW81812   2.853   5.764   0.415  0.4113  0.0390  0.3120
26520SOL    HW181813   2.870   5.797   0.503  0.8043 -0.6642  0.5116
26520SOL    HW281814   2.758   5.765   0.406  0.3419 -0.3268  0.9268
26521SOL     OW81815  10.196   7.097   9.003  0.6534  0.4450 -0.2346
26521SOL    HW181816  10.220   7.088   8.910 -0.2703 -0.5152 -0.4094
26521SOL    HW281817  10.252   7.167   9.036  1.0643  0.7417 -1.4981
26522SOL     OW81818   9.101   8.182   3.991 -0.8358 -0.2711 -0.1277
26522SOL    HW181819   9.081   8.091   3.968 -0.1170 -0.6899  0.8083
26522SOL    HW281820   9.166   8.175   4.062  0.6976  0.9709 -1.3264
26523SOL     OW81821   5.358   7.947   7.368 -0.2737  0.3967  0.1900
26523SOL    HW181822   5.347   8.042   7.357  1.0651  0.8643  2.3069
26523SOL    HW281823   5.453   7.935   7.371 -0.3931 -0.4753  3.5332
26524SOL     OW81824   8.028   4.884   4.679  0.8151  0.4970 -0.7141
26524SOL    HW181825   7.984   4.820   4.735  0.1285  1.5859  0.0463
26524SOL    HW281826   7.957   4.926   4.630  1.3179  0.2286 -1.6947
26525SOL     OW81827   1.459   2.115   0.567 -1.0204 -0.3284 -0.0695
26525SOL    HW181828   1.544   2.155   0.547 -0.9074 -0.9731 -0.9285
26525SOL    HW281829   1.437   2.066   0.488 -1.3045 -1.7083  0.8467
26526SOL     OW81830   8.047  10.556   8.072  0.2376 -0.1659 -0.2552
26526SOL    HW181831   8.066  10.649   8.078  0.0836  0.0680 -2.4973
26526SOL    HW281832   8.125  10.518   8.032  0.3963 -1.0785  0.8382
26527SOL     OW81833   3.030   3.855   8.016 -0.0608 -0.3566  0.3032
26527SOL    HW181834   3.013   3.768   8.050  1.0080 -0.7520 -0.1175
26527SOL    HW281835   3.043   3.909   8.094  2.1425 -1.2073  0.5940
26528SOL     OW81836   7.652   7.427   2.272 -0.5876  0.9284  0.0820
26528SOL    HW181837   7.638   7.478   2.192 -2.4668 -0.7311 -0.7310
26528SOL    HW281838   7.584   7.359   2.270  1.5380 -1.3930  1.2949
26529SOL     OW81839   4.270   9.289   3.533 -0.3510  0.1989  0.3371
26529SOL    HW181840   4.203   9.356   3.551  0.1261  1.4896 -2.2765
26529SOL    HW281841   4.258   9.268   3.441  2.4058 -0.0191 -0.0485
26530SOL     OW81842   2.421   2.758   6.520  0.2085  0.1329 -0.1845
26530SOL    HW181843   2.484   2.691   6.495  1.4413  0.8487  0.8854
26530SOL    HW281844   2.336   2.715   6.511  0.8767 -1.0999 -0.9119
26531SOL     OW81845   8.876   6.269   7.548 -0.3142 -0.4231 -0.5664
26531SOL    HW181846   8.907   6.354   7.517 -0.9759  0.3096  0.6865
26531SOL    HW281847   8.783   6.282   7.566 -0.1027 -0.9588  1.0669
26532SOL     OW81848   3.232   2.640   4.293 -0.7276 -0.5608 -0.7396
26532SOL    HW181849   3.152   2.587   4.300  0.4108 -2.2766 -0.1927
26532SOL    HW281850   3.299   2.580   4.261  0.5433  0.6583 -0.4943
26533SOL     OW81851   9.583   6.764   9.717  0.4384 -0.6571 -0.1020
26533SOL    HW181852   9.674   6.740   9.699  0.1285 -1.2288 -0.9981
26533SOL    HW281853   9.534   6.727   9.644 -0.2116  1.8476 -1.0385
26534SOL     OW81854   9.471   9.979   7.290 -0.0088  0.0044 -0.1570
26534SOL    HW181855   9.398   9.920   7.307 -0.0741 -0.5336 -2.1417
26534SOL    HW281856   9.509   9.995   7.376  0.1723 -3.1146  0.4407
26535SOL     OW81857   8.728   4.169   8.288 -0.6116 -0.7845  0.0515
26535SOL    HW181858   8.779   4.145   8.210 -1.3209 -1.0861 -0.3364
26535SOL    HW281859   8.793   4.192   8.353  0.0384 -1.5380 -0.3083
26536SOL     OW81860   1.452   1.805   9.642  0.2599 -0.2867  0.3313
26536SOL    HW181861   1.507   1.787   9.566  1.2277  1.3485  0.6138
26536SOL    HW281862   1.514   1.826   9.712 -0.6802  0.3746  0.9884
26537SOL     OW81863   6.771   3.713   3.574  0.3263 -0.5109  0.5680
26537SOL    HW181864   6.762   3.636   3.517 -0.1248 -0.2137  0.2352
26537SOL    HW281865   6.865   3.733   3.570 -0.0126  1.1547 -2.3151
26538SOL     OW81866   3.184   3.210   0.470  0.3626  0.5711  0.4833
26538SOL    HW181867   3.202   3.236   0.380  0.3100  1.3246  0.6796
26538SOL    HW281868   3.256   3.152   0.493  0.7615  0.9363  0.1830
26539SOL     OW81869   6.649   6.732   4.869 -0.0463 -0.2838  0.4310
26539SOL    HW181870   6.603   6.667   4.920 -0.5773 -0.9798 -0.8787
26539SOL    HW281871   6.580   6.784   4.828  0.3197 -0.6912 -0.7436
26540SOL     OW81872   3.946   9.864   4.329 -0.0207  0.1011 -0.1613
26540SOL    HW181873   3.998   9.804   4.276 -1.4161 -0.9930 -0.3343
26540SOL    HW281874   3.939   9.822   4.415  1.9457  1.7026  0.8921
26541SOL     OW81875   2.254   6.273   4.585  0.4737 -0.4384 -0.4903
26541SOL    HW181876   2.344   6.242   4.585  1.0412  1.1225 -0.2734
26541SOL    HW281877   2.246   6.325   4.666  0.1136  1.3992 -1.6471
26542SOL     OW81878   3.150   0.120   2.031 -0.0192 -1.0209 -0.1337
26542SOL    HW181879   3.225   0.152   1.980 -1.6010  1.8376 -0.8600
26542SOL    HW281880   3.107   0.056   1.973 -0.1691  0.0552 -1.2416
26543SOL     OW81881   0.637   9.210   8.131 -0.1068  0.4658  0.7819
26543SOL    HW181882   0.723   9.181   8.102 -0.1683 -0.6568  1.6528
26543SOL    HW281883   0.626   9.297   8.091  0.6113 -0.1721 -0.9035
26544SOL     OW81884   0.276   3.400   2.869  0.4353  0.0264 -0.4738
26544SOL    HW181885   0.330   3.398   2.948  0.5795  1.8295 -0.4752
26544SOL    HW281886   0.224   3.320   2.873 -0.5557  0.6872  2.1831
26545SOL     OW81887   5.799   0.601   1.389 -0.2322  0.2596  0.0439
26545SOL    HW181888   5.723   0.623   1.334  1.8255  3.3233 -1.9276
26545SOL    HW281889   5.865   0.570   1.327  1.0912  0.6034  1.2214
26546SOL     OW81890   9.922   0.772   2.244 -0.0191  0.2214  0.1732
26546SOL    HW181891   9.922   0.740   2.334  0.0445 -0.4170 -0.0491
26546SOL    HW281892   9.995   0.833   2.239 -1.2442  1.8477  1.1008
26547SOL     OW81893   2.171  10.365   2.193  0.5102 -0.1648  0.0193
26547SOL    HW181894   2.122  10.436   2.150  0.4441 -0.8343 -1.0575
26547SOL    HW281895   2.108  10.294   2.203  1.1067 -0.8781 -0.9881
26548SOL     OW81896   5.576   2.632   9.352 -0.3841 -0.9129 -0.1195
26548SOL    HW181897   5.646   2.651   9.290 -0.3309 -0.6648  0.0137
26548SOL    HW281898   5.553   2.541   9.336 -2.4868 -0.0816 -2.6309
26549SOL     OW81899   2.361   0.701   0.525  0.0646  0.6278  0.6204
26549SOL    HW181900   2.354   0.673   0.433  2.0354  2.3620 -0.1319
26549SOL    HW281901   2.272   0.690   0.560 -0.4068 -1.5286 -1.0129
26550SOL     OW81902   1.678   8.946   0.443 -0.1936  0.2674 -0.0932
26550SOL    HW181903   1.635   8.861   0.435  0.6792 -0.0845 -1.5058
26550SOL    HW281904   1.620   9.007   0.396  0.2835  0.0034 -1.0436
26551SOL     OW81905  10.567   2.274   4.817 -0.3709 -0.4555 -0.1251
26551SOL    HW181906  10.610   2.293   4.734 -1.6947  3.3430 -0.1336
26551SOL    HW281907  10.628   2.305   4.884 -0.8973  0.1170  0.1027
26552SOL     OW81908   0.639   0.688   3.271 -0.0760 -0.0811  0.9734
26552SOL    HW181909   0.630   0.625   3.343  0.2005  0.3373  1.3750
26552SOL    HW281910   0.705   0.750   3.301 -1.0079  0.9463  0.9810
26553SOL     OW81911   9.081   4.417   8.390  0.3157  0.4044 -0.2533
26553SOL    HW181912   9.075   4.397   8.483 -0.4993 -0.6690 -0.5052
26553SOL    HW281913   9.153   4.362   8.358 -0.6435 -0.7024 -0.5849
26554SOL     OW81914   6.845   4.844   3.941 -0.0009  0.4030 -0.1100
26554SOL    HW181915   6.935   4.812   3.950 -0.2785 -0.1043  0.9723
26554SOL    HW281916   6.822   4.824   3.850  0.3926 -1.0606  0.0821
26555SOL     OW81917   2.330   7.261   0.408  0.3244 -0.3946 -0.1125
26555SOL    HW181918   2.322   7.167   0.398  0.8812 -0.2856 -1.8498
26555SOL    HW281919   2.415   7.274   0.449  0.6869 -0.6174 -0.7793
26556SOL     OW81920   4.069   4.702   4.716 -0.1809  0.6998  0.2753
26556SOL    HW181921   4.097   4.729   4.803 -0.3788  1.1617  0.1990
26556SOL    HW281922   4.013   4.774   4.685 -1.9841 -0.4733  0.6737
26557SOL     OW81923   6.080   3.908   9.634 -0.4112 -0.9597 -0.2428
26557SOL    HW181924   6.021   3.983   9.639  0.9334  0.1403 -0.2558
26557SOL    HW281925   6.122   3.916   9.549  2.9441  0.8604  1.3883
26558SOL     OW81926   5.318  10.401   8.321  0.0133 -0.4579  0.0272
26558SOL    HW181927   5.223  10.401   8.325  0.0382  0.7141  1.2738
26558SOL    HW281928   5.341  10.474   8.264  0.1528  2.6861  3.6707
26559SOL     OW81929   7.655   0.515   1.766 -0.1622 -0.3497 -0.0823
26559SOL    HW181930   7.624   0.478   1.683  0.6484 -0.0426 -0.5353
26559SOL    HW281931   7.751   0.512   1.759 -0.0869  0.5710  0.4422
26560SOL     OW81932   6.507   7.427   7.094 -0.8123 -0.1946  0.0305
26560SOL    HW181933   6.569   7.354   7.095 -1.4123 -0.7240  1.0143
26560SOL    HW281934   6.532   7.481   7.170  0.4685  1.3993 -1.4403
26561SOL     OW81935   1.611   7.556   7.591 -0.3233  0.1839 -0.5992
26561SOL    HW181936   1.566   7.473   7.602  2.4676 -1.6996 -2.1139
26561SOL    HW281937   1.685   7.552   7.651 -1.3214  2.6761  0.9822
26562SOL     OW81938  10.328   9.672   9.977 -0.1163 -0.4401  0.3436
26562SOL    HW181939  10.258   9.735   9.960 -1.1144 -1.4703  0.5274
26562SOL    HW281940  10.325   9.656  10.071  0.2907 -0.5898  0.3370
26563SOL     OW81941   9.662   0.119   6.528  0.2492 -0.1612  0.5624
26563SOL    HW181942   9.704   0.186   6.582 -0.2270  0.0716  0.6457
26563SOL    HW281943   9.715   0.041   6.542 -0.8496 -0.5897  2.7350
26564SOL     OW81944  10.315   3.480   5.040  0.3140 -0.0918 -0.1642
26564SOL    HW181945  10.405   3.460   5.067  0.1924  0.8885  1.0527
26564SOL    HW281946  10.319   3.481   4.944  1.7543  0.5264 -0.1220
26565SOL     OW81947   8.964   1.720   9.739 -0.2215  0.2000 -0.0113
26565SOL    HW181948   9.003   1.808   9.740  0.3479 -0.0310 -0.8488
26565SOL    HW281949   8.901   1.721   9.811 -1.9523  2.0606 -1.4577
26566SOL     OW81950   7.214   3.043   7.754  0.2156  0.3037  0.2476
26566SOL    HW181951   7.193   2.986   7.828  0.3645 -0.1746 -0.0765
26566SOL    HW281952   7.146   3.111   7.757  1.3141  1.4431  1.9936
26567SOL     OW81953   4.936   2.695   2.477 -0.0894 -0.0084 -1.0239
26567SOL    HW181954   4.868   2.757   2.503  0.2976  0.7325 -1.7263
26567SOL    HW281955   4.995   2.747   2.423  1.8167 -0.2721  0.6896
26568SOL     OW81956   4.510   1.345   2.017 -0.0374 -0.8989  0.4907
26568SOL    HW181957   4.585   1.404   2.026 -0.4127 -0.3443  0.0246
26568SOL    HW281958   4.542   1.274   1.961  0.7288 -1.6911  1.8790
26569SOL     OW81959   5.865   1.911   1.334 -0.4282 -0.8380 -0.3923
26569SOL    HW181960   5.830   1.825   1.310 -0.5091 -0.4824 -1.6035
26569SOL    HW281961   5.802   1.946   1.396  0.2144 -2.1274  1.0690
26570SOL     OW81962   2.208   7.339   3.142  0.2074  0.3031 -0.5025
26570SOL    HW181963   2.287   7.299   3.179  0.1240  0.4226 -0.1929
26570SOL    HW281964   2.183   7.407   3.205 -0.5393 -0.1950 -0.2505
26571SOL     OW81965   8.174   3.283   1.461  0.4718 -0.1897  0.1707
26571SOL    HW181966   8.127   3.328   1.391  1.1356  0.4277  0.1174
26571SOL    HW281967   8.133   3.314   1.542 -0.7483 -1.4108  0.0623
26572SOL     OW81968   1.249   0.580   3.425  0.1885 -0.2214  0.3294
26572SOL    HW181969   1.222   0.492   3.451  0.2138 -0.5839 -0.8253
26572SOL    HW281970   1.337   0.569   3.391 -0.3806 -0.0432 -1.2936
26573SOL     OW81971   1.225   0.241   7.586 -0.6597 -0.1920  0.7356
26573SOL    HW181972   1.225   0.193   7.502 -0.2908 -2.6191  2.0287
26573SOL    HW281973   1.271   0.323   7.567 -0.4029 -0.7650 -1.3864
26574SOL     OW81974   2.616   3.154   4.385  0.5957 -0.2238 -0.5149
26574SOL    HW181975   2.636   3.181   4.474 -0.1606  0.4497 -0.5460
26574SOL    HW281976   2.540   3.096   4.394 -1.1193  1.8286 -0.9132
26575SOL     OW81977   0.084   3.495   0.840 -0.4836 -0.2406  0.3317
26575SOL    HW181978   0.169   3.534   0.817 -0.3093  0.3911  1.8727
26575SOL    HW281979   0.091   3.404   0.812  0.6750 -0.1786  0.3556
26576SOL     OW81980   8.795   5.289   2.293 -0.0001  0.2826 -0.5123
26576SOL    HW181981   8.809   5.216   2.232 -0.1853 -1.5828  1.5381
26576SOL    HW281982   8.704   5.315   2.278  0.3883  0.8935 -2.0240
26577SOL     OW81983   0.913   8.128   1.613 -0.2829 -0.4298 -0.8337
26577SOL    HW181984   0.866   8.146   1.531  1.0722  2.0295 -1.1767
26577SOL    HW281985   0.930   8.034   1.610 -0.6040 -0.4808 -3.2276
26578SOL     OW81986   3.542   4.244   6.105  0.0802 -0.4811 -0.2156
26578SOL    HW181987   3.496   4.313   6.057  1.3681  0.4598 -0.1349
26578SOL    HW281988   3.472   4.187   6.137 -0.9868  0.5278 -0.6690
26579SOL     OW81989   0.906   3.174   9.148 -0.8772  0.2357 -0.4546
26579SOL    HW181990   0.843   3.128   9.204 -1.6571 -0.7757 -2.0795
26579SOL    HW281991   0.986   3.121   9.153 -1.1621 -0.2408 -0.8018
26580SOL     OW81992   2.281   9.690   8.142  0.3110  0.4111  0.5631
26580SOL    HW181993   2.336   9.732   8.208  1.3304  0.5771 -0.3557
26580SOL    HW281994   2.195   9.732   8.151  0.4159  0.3892  1.7962
26581SOL     OW81995   5.326   4.304   3.202 -0.7457 -0.1181  0.4334
26581SOL    HW181996   5.400   4.312   3.141 -1.6840  1.3099 -0.5778
26581SOL    HW281997   5.366   4.278   3.285  0.8129 -0.0228 -0.2555
26582SOL     OW81998   0.433   3.059   8.367 -0.3292  0.0097 -0.3853
26582SOL    HW181999   0.413   2.973   8.331  1.7644 -0.5563 -0.3117
26582SOL    HW282000   0.408   3.053   8.459 -2.0656  0.1969 -0.7948
26583SOL     OW82001   2.174   5.872   3.361  0.3624 -0.2767 -0.3122
26583SOL    HW182002   2.139   5.828   3.284  0.5205 -0.3653 -0.3340
26583SOL    HW282003   2.096   5.902   3.409 -0.1465 -4.5572  2.0982
26584SOL     OW82004   8.018  10.258   0.111  0.0017 -0.0018 -0.3022
26584SOL    HW182005   7.979  10.344   0.130 -0.0824 -0.1396  0.1799
26584SOL    HW282006   8.025  10.216   0.197 -0.1162 -0.5467 -0.5547
26585SOL     OW82007   3.880   1.642   5.145 -0.0020 -1.0117 -0.0044
26585SOL    HW182008   3.937   1.651   5.068  0.6965  3.1629  0.7581
26585SOL    HW282009   3.941   1.638   5.219 -0.6535 -1.0638  0.5365
26586SOL     OW82010   5.175  10.486   5.670 -0.2044  0.1739  0.4111
26586SOL    HW182011   5.116  10.458   5.740 -0.8420 -0.3810 -0.3202
26586SOL    HW282012   5.245  10.534   5.714 -0.8703  0.2893  1.3621
26587SOL     OW82013  10.315   8.877   6.041  0.4259 -0.4477 -0.1633
26587SOL    HW182014  10.341   8.968   6.058  1.1179 -0.9389  1.5972
26587SOL    HW282015  10.377   8.825   6.090 -0.5371 -1.8616 -0.3943
26588SOL     OW82016   8.889   4.075   5.612 -0.3846  0.4125  0.0822
26588SOL    HW182017   8.920   4.120   5.533  0.0928 -0.7863 -0.4262
26588SOL    HW282018   8.926   4.126   5.684  0.2733  0.7553 -0.4871
26589SOL     OW82019   6.523   4.914   4.975 -0.0439 -0.3687 -0.4967
26589SOL    HW182020   6.432   4.886   4.965  0.5802 -2.7296 -0.1880
26589SOL    HW282021   6.569   4.872   4.902  1.1430 -1.0508  0.5999
26590SOL     OW82022   4.478   6.791   3.236 -0.2564 -0.1911  0.0166
26590SOL    HW182023   4.490   6.828   3.148  0.3888  1.1697  0.6487
26590SOL    HW282024   4.559   6.742   3.252 -0.8588 -1.4295 -0.5805
26591SOL     OW82025   1.533   0.561   7.973  0.0874  0.6090 -0.0145
26591SOL    HW182026   1.592   0.581   7.901  0.8977 -2.4107 -0.3240
26591SOL    HW282027   1.446   0.563   7.934  0.2022  2.1649 -0.2584
26592SOL     OW82028   8.086   5.792   3.102  0.8340  0.7586  0.2551
26592SOL    HW182029   8.081   5.864   3.164  1.0610  1.4649 -0.5313
26592SOL    HW282030   8.174   5.757   3.112  1.0152  1.1483  0.0367
26593SOL     OW82031   8.127   1.408   6.296 -0.3112 -0.5299  0.2924
26593SOL    HW182032   8.114   1.500   6.316 -0.6677 -0.7593  1.1914
26593SOL    HW282033   8.195   1.407   6.229 -0.8648  0.4119 -0.2965
26594SOL     OW82034   4.819   0.120   8.059  0.1166 -0.4032 -0.2951
26594SOL    HW182035   4.789   0.084   7.975  0.9198  1.4604 -1.4318
26594SOL    HW282036   4.914   0.110   8.058  0.2138  0.3879  0.0107
26595SOL     OW82037   6.517   2.863   6.395 -0.4853 -0.0529  0.4700
26595SOL    HW182038   6.451   2.932   6.402  0.0516  0.7571 -1.5593
26595SOL    HW282039   6.491   2.812   6.318  1.3413  0.4466 -0.5399
26596SOL     OW82040   3.650   0.567  10.434  0.4011 -0.9427 -0.1340
26596SOL    HW182041   3.558   0.549  10.454  0.1864 -0.8454 -0.9940
26596SOL    HW282042   3.663   0.534  10.346  1.0916 -0.6043 -0.1709
26597SOL     OW82043   0.375   7.882   8.734 -0.0283 -0.6158  0.1392
26597SOL    HW182044   0.467   7.884   8.759 -0.4308 -2.9158  2.2184
26597SOL    HW282045   0.363   7.960   8.679  2.3656  1.7113  2.5820
26598SOL     OW82046   8.439   2.016   5.908 -0.2847 -0.0313  0.0372
26598SOL    HW182047   8.426   2.101   5.867  1.1790  0.3422  0.3055
26598SOL    HW282048   8.534   2.009   5.922 -0.3098 -1.8656 -0.3453
26599SOL     OW82049   3.757   0.244   7.397 -0.4238  0.3059  0.7438
26599SOL    HW182050   3.682   0.258   7.340  1.4369  0.4732 -1.8411
26599SOL    HW282051   3.832   0.278   7.347  1.6771 -1.7271  2.2955
26600SOL     OW82052   2.690   8.632   0.570 -0.1003 -0.1823 -0.2277
26600SOL    HW182053   2.628   8.582   0.622  0.2346  1.5481  1.9559
26600SOL    HW282054   2.731   8.567   0.513 -2.0413 -1.7762  0.0824
26601SOL     OW82055   4.342   2.681   0.525  0.1545  0.1179 -0.5907
26601SOL    HW182056   4.329   2.776   0.516 -0.8258  0.0049 -0.5162
26601SOL    HW282057   4.421   2.663   0.476  0.5358  1.0282 -0.3410
26602SOL     OW82058   3.142   3.510   8.745  0.6139 -0.9029  0.2997
26602SOL    HW182059   3.228   3.499   8.785  0.2684  0.1086  1.3791
26602SOL    HW282060   3.089   3.553   8.812 -0.6084 -1.0800 -0.5083
26603SOL     OW82061   5.438   9.915   9.502 -0.0654  0.7339 -0.3684
26603SOL    HW182062   5.479   9.920   9.589  1.6174  0.6444 -1.1206
26603SOL    HW282063   5.492   9.972   9.447  2.0152 -2.9553 -2.5112
26604SOL     OW82064   4.133   2.710   6.816  0.0223  0.2365  0.2200
26604SOL    HW182065   4.145   2.775   6.746 -1.9707  1.2777  0.7575
26604SOL    HW282066   4.175   2.750   6.892 -1.4732  1.1185  0.6301
26605SOL     OW82067   0.762   4.408  10.567 -0.8746 -0.0403  0.3949
26605SOL    HW182068   0.763   4.419  10.662 -0.6857 -1.1135  0.5269
26605SOL    HW282069   0.703   4.335  10.551 -0.6585 -0.0784 -0.2895
26606SOL     OW82070   3.376   7.011   7.856 -0.5374  0.0704 -0.0817
26606SOL    HW182071   3.422   6.928   7.865  2.3740  1.6661  1.0603
26606SOL    HW282072   3.392   7.038   7.766 -1.3071 -0.4713 -0.3901
26607SOL     OW82073   8.154   3.301   0.411  0.2186 -0.0791 -0.3026
26607SOL    HW182074   8.058   3.301   0.420 -0.1109 -0.9230 -3.0337
26607SOL    HW282075   8.185   3.259   0.491 -1.8423 -1.6962 -0.2581
26608SOL     OW82076   7.806   2.767  10.064  0.3876 -0.0949 -0.1280
26608SOL    HW182077   7.858   2.830  10.013  0.6589 -0.4073 -0.2366
26608SOL    HW282078   7.764   2.821  10.131 -0.3788  0.4052 -0.9883
26609SOL     OW82079   6.830   3.358   0.212 -0.2791 -0.0819  0.3779
26609SOL    HW182080   6.748   3.320   0.182 -0.2094  0.9044 -1.1687
26609SOL    HW282081   6.893   3.335   0.144 -0.2165  2.6689 -0.5986
26610SOL     OW82082   3.456   3.732   6.965 -0.0644  0.2255  0.0471
26610SOL    HW182083   3.519   3.792   7.006 -1.6266  2.0221 -0.0194
26610SOL    HW282084   3.450   3.763   6.874  2.6713 -3.1311 -1.5299
26611SOL     OW82085   5.051   3.261   1.234  0.3624 -0.6601  0.4682
26611SOL    HW182086   5.096   3.181   1.207 -1.1130 -1.2873 -0.2434
26611SOL    HW282087   5.066   3.266   1.329  1.8407 -0.8769  0.2625
26612SOL     OW82088   4.786   7.815   5.651  0.9723  0.1193 -0.4940
26612SOL    HW182089   4.744   7.901   5.650  0.6245 -0.0302  0.2375
26612SOL    HW282090   4.818   7.806   5.741  1.4825 -0.2903 -0.7131
26613SOL     OW82091   2.034   0.341   9.711 -0.3737  0.9497  0.1377
26613SOL    HW182092   2.003   0.395   9.639  2.2449  0.5136 -1.4638
26613SOL    HW282093   1.990   0.257   9.699 -0.4575  1.0870 -0.5886
26614SOL     OW82094   9.351   1.758  10.636 -0.0546 -0.1892 -0.1791
26614SOL    HW182095   9.273   1.798  10.674  0.2259 -0.5039  0.7582
26614SOL    HW282096   9.424   1.812  10.668  0.0848  0.4537 -1.5134
26615SOL     OW82097   3.446   8.920   3.193 -0.6136 -0.1826 -0.5685
26615SOL    HW182098   3.436   8.962   3.278 -0.1249  0.1695 -0.6805
26615SOL    HW282099   3.455   8.827   3.212 -1.4258 -0.2140 -0.3001
26616SOL     OW82100   3.226   9.235   3.188 -0.1516  0.1615 -0.9565
26616SOL    HW182101   3.211   9.330   3.188  1.0361  0.3925  1.3321
26616SOL    HW282102   3.195   9.205   3.273 -0.4545 -1.5403 -1.6115
26617SOL     OW82103   0.739  10.129   0.498 -0.0802 -0.1260  0.3252
26617SOL    HW182104   0.693  10.202   0.456  1.2526 -0.3088 -1.5894
26617SOL    HW282105   0.832  10.149   0.486  0.3150 -1.7206  0.4679
26618SOL     OW82106   3.144   2.841   7.079  0.5571 -0.3884  0.1416
26618SOL    HW182107   3.159   2.917   7.137  0.3766  0.2798 -0.6692
26618SOL    HW282108   3.221   2.839   7.022  0.7909 -1.1166  0.4720
26619SOL     OW82109  10.161   1.123   6.251  0.0316 -0.1064 -0.4286
26619SOL    HW182110  10.252   1.114   6.223 -0.0829 -1.8402 -0.3316
26619SOL    HW282111  10.160   1.203   6.304  0.7816  1.8519 -3.1310
26620SOL     OW82112  10.535   8.079   4.199  0.6195 -0.0859  0.0435
26620SOL    HW182113  10.536   7.983   4.197 -2.3912 -0.2034  0.4475
26620SOL    HW282114  10.545   8.101   4.291 -0.3804 -0.0799  0.1515
26621SOL     OW82115   0.322   4.159   3.083  0.3989  0.0331 -0.2713
26621SOL    HW182116   0.326   4.063   3.087 -0.4286 -0.2069 -3.0848
26621SOL    HW282117   0.232   4.180   3.108 -0.5254 -0.3129 -2.9301
26622SOL     OW82118   0.303   1.147   4.348  0.0708  0.0162 -0.2032
26622SOL    HW182119   0.393   1.136   4.377  0.1299 -0.0918 -0.4188
26622SOL    HW282120   0.304   1.227   4.296 -0.3132  0.9473  1.1783
26623SOL     OW82121   9.627   9.348   9.274  0.2755  0.8833  0.2061
26623SOL    HW182122   9.662   9.283   9.335  1.4991  0.9928 -0.3403
26623SOL    HW282123   9.677   9.334   9.193  1.0264  2.8892  0.2536
26624SOL     OW82124   5.671   0.833   1.923  0.5196  0.0469  0.1899
26624SOL    HW182125   5.633   0.898   1.865 -0.4317  0.7001  1.5222
26624SOL    HW282126   5.748   0.876   1.960  1.4755 -0.5776 -0.9798
26625SOL     OW82127   7.566   8.726   9.272  0.2035 -0.0722 -0.3516
26625SOL    HW182128   7.514   8.805   9.281  1.7600  1.1283 -1.4474
26625SOL    HW282129   7.547   8.676   9.352 -0.2819  1.7146  0.7030
26626SOL     OW82130   0.889   0.809   9.314 -0.0110  0.0962 -0.4637
26626SOL    HW182131   0.968   0.852   9.346  0.5248 -0.5927 -0.8346
26626SOL    HW282132   0.837   0.880   9.276  0.8578  0.4283 -1.0712
26627SOL     OW82133   1.576   1.097   8.165 -0.8751 -0.1386  0.2525
26627SOL    HW182134   1.488   1.129   8.146 -0.9297  0.0883  0.8741
26627SOL    HW282135   1.584   1.102   8.260 -0.1400 -0.0357  0.1912
26628SOL     OW82136   7.563   0.894   3.557 -0.0008  0.3269  0.4203
26628SOL    HW182137   7.554   0.982   3.592 -1.7877  1.7267 -3.0764
26628SOL    HW282138   7.473   0.867   3.537  0.4352 -2.5976  1.8401
26629SOL     OW82139   9.997   5.179   7.019  0.8981  0.0122  0.4348
26629SOL    HW182140  10.051   5.107   7.052  0.5279 -0.1903  0.6014
26629SOL    HW282141   9.930   5.136   6.966  1.9791  0.3853 -1.2922
26630SOL     OW82142   2.912   2.507   4.003 -0.0899 -0.5241 -0.2068
26630SOL    HW182143   2.882   2.582   3.951  1.4879 -0.3691 -0.9331
26630SOL    HW282144   2.965   2.455   3.942 -0.8515 -2.0552  0.3845
26631SOL     OW82145   7.222  10.356   0.740  0.0992 -0.1152 -0.3310
26631SOL    HW182146   7.155  10.423   0.751  1.4659  1.2295  0.0962
26631SOL    HW282147   7.191  10.283   0.793 -1.8667 -0.2361 -1.5159
26632SOL     OW82148   0.332   9.188   4.079  0.3234 -0.2226 -0.5320
26632SOL    HW182149   0.403   9.248   4.100 -0.6440  0.8705 -0.2671
26632SOL    HW282150   0.354   9.107   4.126  1.0855  0.2990  0.0301
26633SOL     OW82151   3.373   1.860   3.262  0.4129  0.3519 -0.6661
26633SOL    HW182152   3.336   1.936   3.305 -1.1136 -0.3310 -0.7105
26633SOL    HW282153   3.396   1.800   3.334  2.1393  1.0241 -0.5930
26634SOL     OW82154   6.586   5.045   2.100  0.2895 -0.3044 -0.4960
26634SOL    HW182155   6.656   5.005   2.048 -1.4752 -0.5161 -2.8835
26634SOL    HW282156   6.541   5.103   2.038 -3.3855 -2.3127  0.0342
26635SOL     OW82157   3.516   5.051   6.467 -0.1130  0.2057 -0.1218
26635SOL    HW182158   3.463   5.051   6.547 -1.3570 -0.2879 -0.9203
26635SOL    HW282159   3.481   5.123   6.415 -0.4046 -0.4721 -0.8948
26636SOL     OW82160   0.574   9.844   5.526  0.1845  0.4891  0.3824
26636SOL    HW182161   0.580   9.831   5.431  2.1814  3.5062 -0.0609
26636SOL    HW282162   0.567   9.756   5.562 -0.3147 -0.7830 -2.5236
26637SOL     OW82163   4.974   7.964   6.278 -0.3861 -0.3813 -0.1254
26637SOL    HW182164   5.037   7.892   6.281  2.1311  1.6746  0.6017
26637SOL    HW282165   4.970   7.988   6.186 -0.7239 -0.9898 -0.2780
26638SOL     OW82166   3.823   8.977   4.662  0.6568  0.7587 -0.0913
26638SOL    HW182167   3.885   9.008   4.727 -0.0013  0.9521  0.4569
26638SOL    HW282168   3.771   9.054   4.639 -0.7361  0.1764  0.9977
26639SOL     OW82169   9.282   2.583   8.960 -0.5034  0.4064 -0.3226
26639SOL    HW182170   9.209   2.627   8.916  0.1464  2.0586  0.1797
26639SOL    HW282171   9.360   2.618   8.917  0.1019  1.1106  1.2844
26640SOL     OW82172   4.010   8.677   4.036  0.0434 -0.5093  0.3497
26640SOL    HW182173   4.024   8.629   4.118  1.7743 -0.7460 -0.0320
26640SOL    HW282174   4.029   8.768   4.057  1.9169 -0.7525 -0.0348
26641SOL     OW82175   1.958   3.567   9.501  0.3455 -0.2171  0.4997
26641SOL    HW182176   1.877   3.533   9.464  0.8050 -0.2617 -0.4936
26641SOL    HW282177   1.988   3.498   9.561 -0.3377 -0.1945  0.8815
26642SOL     OW82178   6.430   7.176   6.410  0.6909  0.2560  0.2023
26642SOL    HW182179   6.335   7.165   6.412  0.6649 -0.0710 -1.4720
26642SOL    HW282180   6.458   7.153   6.498 -0.4460 -3.1031 -0.1833
26643SOL     OW82181   3.814   6.722   2.824  0.1188  0.6861  0.0496
26643SOL    HW182182   3.738   6.747   2.876  0.4334  0.5447  0.5824
26643SOL    HW282183   3.841   6.638   2.861  0.2922  0.5384 -0.4049
26644SOL     OW82184   4.017   0.874   1.289  0.5611 -0.4648  0.5374
26644SOL    HW182185   3.931   0.845   1.257  1.9104 -2.7200 -1.3485
26644SOL    HW282186   4.007   0.969   1.301 -2.5315 -0.8221  1.6707
26645SOL     OW82187   2.458   1.668   8.623  0.1997  0.1284 -0.8939
26645SOL    HW182188   2.448   1.762   8.607 -2.9798  0.0115 -0.3101
26645SOL    HW282189   2.423   1.626   8.544  0.8163 -0.5734 -0.8107
26646SOL     OW82190   0.345   1.776   5.897  0.1645  0.5027 -0.4762
26646SOL    HW182191   0.259   1.742   5.873  0.0243 -0.2231  0.9190
26646SOL    HW282192   0.404   1.741   5.830 -0.6950  1.4942 -1.7802
26647SOL     OW82193   0.169  10.480   7.101  0.3745 -0.5892 -1.1750
26647SOL    HW182194   0.143  10.473   7.009 -2.4061 -0.6019 -0.4816
26647SOL    HW282195   0.202  10.393   7.124 -0.6615 -1.1331 -1.6979
26648SOL     OW82196   4.004   8.154   8.142  0.3012 -0.1231 -0.5958
26648SOL    HW182197   4.033   8.202   8.065 -1.6180 -0.1321 -1.3780
26648SOL    HW282198   3.996   8.063   8.113  2.7561 -0.7854  0.5581
26649SOL     OW82199   7.816   4.228   0.388  0.1273 -0.3171  0.0623
26649SOL    HW182200   7.858   4.205   0.305 -0.9827 -1.6245 -0.1666
26649SOL    HW282201   7.792   4.321   0.378  2.6193  0.4067  0.1009
26650SOL     OW82202   8.344   6.963   1.410  0.7300 -0.0413 -0.3466
26650SOL    HW182203   8.418   6.912   1.443 -0.2567 -2.4683 -1.6154
26650SOL    HW282204   8.379   7.008   1.333  1.7301  1.6510  1.0346
26651SOL     OW82205   1.358   6.341   4.479  0.4701 -0.3155  0.1818
26651SOL    HW182206   1.301   6.329   4.555  0.0041 -1.3883 -0.3199
26651SOL    HW282207   1.339   6.429   4.448 -1.2388 -0.7931 -0.2138
26652SOL     OW82208   5.462   5.512   7.368 -0.1975 -0.1290  0.1255
26652SOL    HW182209   5.450   5.539   7.277 -1.0742  1.6098  0.7238
26652SOL    HW282210   5.397   5.443   7.381 -1.9920  1.4651  0.1369
26653SOL     OW82211   8.478   6.367   3.490  0.5468 -0.1666 -0.1744
26653SOL    HW182212   8.433   6.431   3.545  0.8424 -0.8668  0.9130
26653SOL    HW282213   8.445   6.384   3.401 -1.2671 -0.1678  0.4627
26654SOL     OW82214   8.537   6.079  10.355  0.0563 -0.4209 -0.1806
26654SOL    HW182215   8.504   5.992  10.331 -1.0366 -0.2449  0.6106
26654SOL    HW282216   8.531   6.082  10.450 -2.6324  1.5055 -0.2840
26655SOL     OW82217   0.795   6.478   5.795  0.3068  0.6072 -0.3252
26655SOL    HW182218   0.731   6.495   5.865 -0.4191 -0.8791 -0.5697
26655SOL    HW282219   0.758   6.521   5.718 -0.0841  0.2965 -0.3162
26656SOL     OW82220   1.461   4.274   4.133  0.0344 -0.1190  0.4832
26656SOL    HW182221   1.409   4.351   4.109 -1.8145 -0.6354  2.5508
26656SOL    HW282222   1.527   4.308   4.194 -0.5193 -0.0843  1.0742
26657SOL     OW82223   7.543   6.682   9.721  0.3348 -0.0333 -0.4175
26657SOL    HW182224   7.452   6.710   9.708  0.4794  0.2778 -0.7755
26657SOL    HW282225   7.578   6.744   9.785 -0.0669 -0.9206  0.6988
26658SOL     OW82226   6.629   8.147   2.793  0.7840  0.6358 -0.0347
26658SOL    HW182227   6.703   8.203   2.771  1.2367  0.5277  1.1494
26658SOL    HW282228   6.570   8.202   2.844 -1.2581  1.4914 -3.0197
26659SOL     OW82229   2.034  10.579   2.344  0.4450  0.3201 -0.5116
26659SOL    HW182230   2.077  10.506   2.388  2.6946 -0.8070 -4.1831
26659SOL    HW282231   1.968  10.539   2.288 -2.0486  1.6824  1.2253
26660SOL     OW82232   0.942   1.585   0.947 -0.0007 -0.2034  0.4786
26660SOL    HW182233   0.906   1.507   0.990  0.7358  0.6578  2.7646
26660SOL    HW282234   0.968   1.643   1.018  1.1548  1.3938 -1.1437
26661SOL     OW82235   1.553   2.435   4.860  0.3145 -0.4345 -0.2069
26661SOL    HW182236   1.581   2.486   4.784 -0.5345 -1.0456 -0.9385
26661SOL    HW282237   1.635   2.408   4.902  0.7955  1.5147  0.2120
26662SOL     OW82238   7.080   4.294   0.142  0.5448  0.2818 -0.1529
26662SOL    HW182239   7.010   4.325   0.200 -0.5224 -2.5312  0.2419
26662SOL    HW282240   7.153   4.275   0.201  1.5890  2.7498 -0.5110
26663SOL     OW82241   3.478   6.203   5.111 -0.0158 -0.5429  0.2320
26663SOL    HW182242   3.471   6.267   5.039  3.0306 -1.3735 -0.9520
26663SOL    HW282243   3.515   6.253   5.183 -1.8892 -0.0105  0.8932
26664SOL     OW82244   4.821   3.313   5.994 -0.0499 -0.1723  0.8849
26664SOL    HW182245   4.864   3.236   5.955  0.5441 -0.3082  1.7868
26664SOL    HW282246   4.890   3.380   5.997 -0.0117 -0.2450  1.9204
26665SOL     OW82247   8.824   9.457   6.509 -0.0845  0.2060  0.0249
26665SOL    HW182248   8.730   9.442   6.514  0.3688 -3.5695  0.3679
26665SOL    HW282249   8.845   9.505   6.589 -1.8953  3.4419 -1.2469
26666SOL     OW82250   2.613   4.403   5.673 -0.1391 -0.2856 -0.8497
26666SOL    HW182251   2.703   4.428   5.693 -0.4140 -0.3585  0.5839
26666SOL    HW282252   2.615   4.308   5.668 -0.2434 -0.3177 -0.2680
26667SOL     OW82253   5.721   6.505   3.236  0.6428 -0.2432  0.3767
26667SOL    HW182254   5.718   6.482   3.329 -1.6471 -2.7764 -0.1881
26667SOL    HW282255   5.736   6.421   3.192 -0.0436  0.6255 -1.6067
26668SOL     OW82256   3.688   0.606   6.760  0.1136  0.0873  0.8132
26668SOL    HW182257   3.627   0.573   6.826 -1.3740  2.0171  0.5066
26668SOL    HW282258   3.633   0.620   6.682  1.5802 -0.9778 -0.4873
26669SOL     OW82259   5.668   1.304   2.079 -0.1637 -0.5303  0.1378
26669SOL    HW182260   5.753   1.261   2.064  0.0787 -0.0993  0.2706
26669SOL    HW282261   5.619   1.240   2.131  0.5699 -0.2352  1.2171
26670SOL     OW82262   3.866   0.441  10.519  0.4340  0.0862 -0.7584
26670SOL    HW182263   3.889   0.433  10.427  0.5703  0.0981 -0.7256
26670SOL    HW282264   3.780   0.483  10.519  1.2868  1.9031 -0.8197
26671SOL     OW82265   8.240   0.483   1.808 -0.2876  0.2863 -0.1475
26671SOL    HW182266   8.246   0.393   1.776  2.7711  0.5953 -0.8035
26671SOL    HW282267   8.185   0.477   1.886 -0.5889 -2.0517 -0.4529
26672SOL     OW82268   4.840   6.499   7.465 -0.1307  0.3093 -0.3193
26672SOL    HW182269   4.866   6.446   7.540  0.2074  0.5166 -0.2898
26672SOL    HW282270   4.744   6.500   7.469 -0.1084  0.4709  0.2103
26673SOL     OW82271   0.180   4.926   3.137 -0.3645  0.4913  0.1627
26673SOL    HW182272   0.150   4.890   3.221 -2.0648  0.0817 -0.5608
26673SOL    HW282273   0.251   4.868   3.110  0.2167  0.6362  1.3103
26674SOL     OW82274  10.319   5.830   5.630  0.2285  0.1049  0.2453
26674SOL    HW182275  10.302   5.805   5.540 -1.4044  0.6786  0.3596
26674SOL    HW282276  10.361   5.915   5.624  0.6632 -0.1235  0.0180
26675SOL     OW82277  10.477   3.648   7.687  1.0409  0.7960 -0.1685
26675SOL    HW182278  10.557   3.631   7.638  1.8509 -0.2719  1.4513
26675SOL    HW282279  10.429   3.566   7.686  0.6447  1.0180  0.0765
26676SOL     OW82280   9.355   9.855   1.488  0.1731 -0.3100 -0.0962
26676SOL    HW182281   9.266   9.822   1.479 -0.1259  0.3407  0.3872
26676SOL    HW282282   9.403   9.817   1.414 -1.2462  1.8194 -2.2495
26677SOL     OW82283   6.940   3.589   6.577  0.1118  0.0823 -0.0765
26677SOL    HW182284   6.999   3.535   6.630 -0.1018 -0.8203 -0.7376
26677SOL    HW282285   6.982   3.675   6.575 -0.1217  0.2777  1.9398
26678SOL     OW82286   0.910   6.296   4.339 -0.1832  0.6889 -0.5993
26678SOL    HW182287   0.843   6.287   4.271  0.2197  2.9768 -1.3941
26678SOL    HW282288   0.900   6.218   4.394 -3.4767  0.9473 -0.6761
26679SOL     OW82289   1.295   6.330   3.385  0.1550  0.1397  0.0751
26679SOL    HW182290   1.250   6.293   3.308  0.4893  0.1190 -0.1120
26679SOL    HW282291   1.301   6.424   3.366 -0.0962  0.1934  0.2484
26680SOL     OW82292   0.002   8.005   8.876  0.2272 -0.7611  0.0800
26680SOL    HW182293  -0.025   8.088   8.914  1.8037  0.5198 -1.4441
26680SOL    HW282294  -0.076   7.950   8.880 -0.5416  0.3646  2.1461
26681SOL     OW82295   7.767   2.061   8.896 -0.3512 -0.2980  0.1249
26681SOL    HW182296   7.862   2.072   8.884 -0.3083  0.5443  1.1014
26681SOL    HW282297   7.733   2.150   8.895 -1.6049 -0.6316 -3.3767
26682SOL     OW82298   1.273   6.501   2.661 -0.5604  0.2255  0.6134
26682SOL    HW182299   1.298   6.452   2.583 -2.3294 -0.7346  0.5998
26682SOL    HW282300   1.247   6.587   2.629 -1.5536 -0.2581  0.0921
26683SOL     OW82301   1.947   2.834   8.389  0.0407  0.2194 -0.2251
26683SOL    HW182302   1.878   2.852   8.453 -1.1080 -0.5164 -1.2259
26683SOL    HW282303   2.028   2.856   8.435 -0.8838  1.8597  0.7055
26684SOL     OW82304   2.264   3.506   8.634 -0.4307  0.7821 -0.1706
26684SOL    HW182305   2.344   3.454   8.621 -0.0783  0.8930  1.3588
26684SOL    HW282306   2.286   3.592   8.597 -0.0852  0.6179 -0.3609
26685SOL     OW82307   2.583   0.983   1.853  0.1714  0.3909 -0.4622
26685SOL    HW182308   2.603   0.897   1.814 -1.9696  0.9776 -3.2077
26685SOL    HW282309   2.667   1.029   1.852  1.1577 -1.2872  0.1091
26686SOL     OW82310   9.150   9.429   3.922 -0.0187 -0.0692  0.5141
26686SOL    HW182311   9.234   9.437   3.878  0.1575 -0.4254  0.7813
26686SOL    HW282312   9.085   9.456   3.857  0.4003  1.5848  0.7581
26687SOL     OW82313   0.832   0.867   3.319  0.2489 -0.0729  0.2095
26687SOL    HW182314   0.926   0.862   3.301  0.5843  0.6409  1.6335
26687SOL    HW282315   0.821   0.949   3.367 -0.2496 -2.4536  4.6922
26688SOL     OW82316   5.959  10.505   7.214  0.3760  0.0588 -0.2684
26688SOL    HW182317   5.990  10.539   7.130 -0.6826 -1.0189 -1.1397
26688SOL    HW282318   5.945  10.583   7.268 -1.6188  1.0527 -2.0632
26689SOL     OW82319   5.513   0.675   6.105 -0.3930 -0.0745 -0.3159
26689SOL    HW182320   5.537   0.586   6.127 -0.6438  0.0817  0.6491
26689SOL    HW282321   5.443   0.697   6.167  0.0078  0.9517 -0.2017
26690SOL     OW82322   9.501   5.531   7.661  0.2434  0.0734  0.1570
26690SOL    HW182323   9.433   5.464   7.668  1.6025 -1.3724 -0.0435
26690SOL    HW282324   9.489   5.586   7.738  0.3085 -1.5909  1.4081
26691SOL     OW82325   4.013   1.729   4.332 -0.5849 -0.3303  0.2374
26691SOL    HW182326   4.056   1.653   4.293  0.1893 -0.0941  0.6182
26691SOL    HW282327   4.061   1.804   4.298 -1.9454  0.0639 -0.8955
26692SOL     OW82328   5.495   7.934   6.948 -0.5858 -0.0759 -0.2705
26692SOL    HW182329   5.577   7.953   6.992  0.4807 -3.2565 -0.6428
26692SOL    HW282330   5.460   7.858   6.993 -2.8776  0.6018 -0.7532
26693SOL     OW82331   4.482   7.920  10.459 -0.0887 -0.2148 -0.1355
26693SOL    HW182332   4.393   7.924  10.495  0.4577  0.0463  1.2663
26693SOL    HW282333   4.505   8.011  10.442  0.2465 -0.1940  0.4027
26694SOL     OW82334   1.201   4.356   4.465  0.2360  0.5771 -0.7344
26694SOL    HW182335   1.286   4.313   4.469  0.2067  0.5998  1.1857
26694SOL    HW282336   1.220   4.444   4.431  0.8503  0.2873 -1.1489
26695SOL     OW82337   3.571   4.920   7.200  0.7909 -0.1495 -0.0327
26695SOL    HW182338   3.535   4.850   7.255  0.7252 -1.2877 -1.4544
26695SOL    HW282339   3.540   5.001   7.240 -4.1507 -0.9785 -1.4823
26696SOL     OW82340   7.698   5.190   1.053 -0.2674  0.1854 -0.2630
26696SOL    HW182341   7.780   5.196   1.003 -0.7229 -1.1098 -1.2254
26696SOL    HW282342   7.633   5.166   0.987 -0.7523 -2.3907  1.0458
26697SOL     OW82343  10.044   0.068   6.718  0.1890  0.4006  0.2997
26697SOL    HW182344  10.001   0.047   6.636  0.1221  1.0906  0.1466
26697SOL    HW282345  10.121   0.012   6.721 -0.5808 -0.6798  0.4631
26698SOL     OW82346   6.095   1.188   8.129  0.2580 -0.3071  0.1220
26698SOL    HW182347   6.047   1.258   8.174  2.4039  1.0563  0.4716
26698SOL    HW282348   6.028   1.131   8.093 -1.5899 -0.0723  2.9333
26699SOL     OW82349   5.081   4.292   4.597  0.1103 -0.5188 -0.3396
26699SOL    HW182350   5.121   4.343   4.668 -1.5049  0.3270  0.0241
26699SOL    HW282351   5.118   4.330   4.517  0.2416  0.0708 -0.0113
26700SOL     OW82352   9.530   7.503   4.914  0.3252 -0.2931 -0.0153
26700SOL    HW182353   9.453   7.447   4.926 -0.5218  1.1135  1.4994
26700SOL    HW282354   9.552   7.533   5.002  1.0308  1.3946 -0.7230
26701SOL     OW82355   3.998   3.633   6.508  0.1372 -0.4596 -0.8553
26701SOL    HW182356   3.957   3.700   6.564 -2.0816 -1.4020 -1.2304
26701SOL    HW282357   4.087   3.624   6.542 -0.2690  0.9593  0.7265
26702SOL     OW82358   9.786   8.615   7.778 -0.3504  0.1719  0.1328
26702SOL    HW182359   9.850   8.570   7.722 -0.7149  0.0086 -0.1553
26702SOL    HW282360   9.755   8.547   7.838 -0.6646  0.1105 -0.0940
26703SOL     OW82361   9.262   5.865   7.005 -0.3214  0.0950  0.7983
26703SOL    HW182362   9.324   5.863   7.078  0.0014  0.3636  0.5359
26703SOL    HW282363   9.221   5.951   7.011  1.7216  1.3117 -0.9655
26704SOL     OW82364   6.207   7.601   6.474 -0.3102  0.1246  0.2582
26704SOL    HW182365   6.205   7.670   6.540  1.0582  1.2561 -0.8007
26704SOL    HW282366   6.224   7.520   6.522  0.3019  0.8737  1.3216
26705SOL     OW82367   1.813   1.557   7.789  0.2283 -0.8941 -1.0783
26705SOL    HW182368   1.868   1.519   7.857  0.3800 -0.7786 -1.1358
26705SOL    HW282369   1.760   1.484   7.757  0.0246 -0.9114 -0.7128
26706SOL     OW82370   3.946   1.047  10.314  0.6394  0.0123  0.3184
26706SOL    HW182371   3.944   1.082  10.225  3.2926 -3.4181 -1.3386
26706SOL    HW282372   3.855   1.027  10.334 -0.0170  0.6871 -1.7218
26707SOL     OW82373   6.847   5.782   8.090 -0.0196 -0.3374  0.0661
26707SOL    HW182374   6.929   5.758   8.047 -0.8591  0.5126 -2.2025
26707SOL    HW282375   6.842   5.726   8.167  2.0353 -1.3523 -0.4829
26708SOL     OW82376  10.146   7.922   7.641 -0.7487 -0.0871  0.0048
26708SOL    HW182377  10.155   7.833   7.606 -0.2454  0.0846 -0.2941
26708SOL    HW282378  10.097   7.970   7.574  1.8982  0.7859 -1.4446
26709SOL     OW82379   1.437   8.620   6.724  0.1250  0.2899 -0.0879
26709SOL    HW182380   1.365   8.647   6.781  0.9764  0.4996  0.9066
26709SOL    HW282381   1.516   8.647   6.770  0.9002 -1.0601 -0.5657
26710SOL     OW82382   9.306   8.255   4.187 -0.2914  0.2999 -0.3109
26710SOL    HW182383   9.301   8.308   4.266 -1.3008  0.8268 -0.7134
26710SOL    HW282384   9.388   8.206   4.196 -0.3300  0.4436  0.9930
26711SOL     OW82385   9.298   8.655   1.891  0.4830  0.2608 -0.2988
26711SOL    HW182386   9.364   8.632   1.825 -1.1878 -0.0001 -1.9776
26711SOL    HW282387   9.298   8.750   1.892  1.3055  0.2662  0.1828
26712SOL     OW82388   5.842  10.454   1.917 -0.1605 -0.3153  0.0023
26712SOL    HW182389   5.925  10.482   1.953 -0.5264  0.7845  0.0253
26712SOL    HW282390   5.823  10.517   1.847 -0.8057 -0.7506 -0.2295
26713SOL     OW82391   7.126   6.877   1.066  0.2175  0.2689  0.2239
26713SOL    HW182392   7.158   6.835   0.987 -0.9469  1.3126 -0.8426
26713SOL    HW282393   7.203   6.882   1.123  0.9787 -0.8794 -0.6404
26714SOL     OW82394   3.057   1.314   8.617  0.6409  0.0531 -0.3311
26714SOL    HW182395   3.013   1.389   8.577 -0.6668 -1.3496 -1.6539
26714SOL    HW282396   3.126   1.290   8.554  0.8271 -0.0620 -0.0836
26715SOL     OW82397   7.524   1.468   8.023 -0.0840  0.3516  0.4051
26715SOL    HW182398   7.461   1.538   8.007 -0.3136  0.4844  1.7601
26715SOL    HW282399   7.483   1.390   7.988 -0.3228  0.7075 -0.1081
26716SOL     OW82400   4.466   7.982   6.611 -0.2164  0.1761  0.2277
26716SOL    HW182401   4.493   7.893   6.631 -0.9113  0.0196  0.4929
26716SOL    HW282402   4.509   8.036   6.678  1.0164  0.1806 -0.5239
26717SOL     OW82403   3.207   3.274   5.341 -0.8002 -0.0188  0.9183
26717SOL    HW182404   3.280   3.223   5.375 -0.2195  0.8893  1.0738
26717SOL    HW282405   3.229   3.290   5.249  0.2770  2.0227  1.4615
26718SOL     OW82406   7.869   6.424   3.128 -0.6050 -0.2451 -0.0521
26718SOL    HW182407   7.804   6.437   3.059 -0.5750 -1.5595 -0.3479
26718SOL    HW282408   7.946   6.391   3.082  0.4101  1.5841  0.2510
26719SOL     OW82409   3.030   4.059   2.437  0.1214  0.1637 -0.1354
26719SOL    HW182410   2.945   4.034   2.471  0.3397  2.3527  2.2835
26719SOL    HW282411   3.085   3.982   2.450 -1.0695 -0.7428 -0.3178
26720SOL     OW82412   8.638   9.073   4.894 -0.2782 -0.8757  0.1208
26720SOL    HW182413   8.607   8.994   4.850 -0.6158  0.4491 -2.1907
26720SOL    HW282414   8.607   9.145   4.840  2.2052  0.7561  0.6732
26721SOL     OW82415   0.550   7.217   0.865  0.2433 -0.0459  0.2743
26721SOL    HW182416   0.568   7.240   0.956 -1.4809 -1.6183  1.0863
26721SOL    HW282417   0.612   7.269   0.814  1.9604  0.1021  2.3840
26722SOL     OW82418   0.779   1.499   9.806  0.2948  0.4607 -0.5346
26722SOL    HW182419   0.835   1.565   9.846 -0.5193  0.5504  0.4781
26722SOL    HW282420   0.840   1.443   9.757  1.0241  1.7687 -1.1644
26723SOL     OW82421   6.530   3.113   5.141 -0.4322 -0.4328 -0.3498
26723SOL    HW182422   6.569   3.026   5.151 -0.5539 -0.4329  0.2090
26723SOL    HW282423   6.534   3.132   5.048 -0.4695 -1.0720 -0.4848
26724SOL     OW82424  10.649   1.203   9.221  0.3705  0.1548  0.0415
26724SOL    HW182425  10.673   1.234   9.134  0.3044 -1.9932 -0.8035
26724SOL    HW282426  10.732   1.181   9.263  0.3954  1.0962  0.5170
26725SOL     OW82427   6.166   4.271   1.201 -0.6043  0.4636 -0.8046
26725SOL    HW182428   6.200   4.196   1.151 -0.2002  2.4505 -3.7741
26725SOL    HW282429   6.192   4.253   1.292 -0.1957 -2.7561 -1.4385
26726SOL     OW82430   5.543   6.868   6.750  0.2921 -0.2893 -0.0145
26726SOL    HW182431   5.536   6.929   6.677 -2.4916  0.3486  0.6682
26726SOL    HW282432   5.499   6.913   6.822  0.4706 -2.0584  1.2461
26727SOL     OW82433   7.293   5.356   5.289 -0.2475 -0.1712 -0.2220
26727SOL    HW182434   7.306   5.451   5.292  1.0146 -0.3297 -0.2834
26727SOL    HW282435   7.327   5.330   5.203  0.4419 -0.8181  0.2371
26728SOL     OW82436   1.756   5.525   0.134  0.0373 -0.2911  0.2366
26728SOL    HW182437   1.661   5.528   0.138 -0.1259 -2.2214 -1.0392
26728SOL    HW282438   1.785   5.589   0.200 -2.1161 -0.1874  1.1573
26729SOL     OW82439   6.976   5.455   8.951 -0.6430 -0.1755  0.1182
26729SOL    HW182440   7.018   5.541   8.960  0.7169 -0.8219  0.3208
26729SOL    HW282441   7.044   5.400   8.912 -1.3424 -1.2620  0.4001
26730SOL     OW82442   7.983   0.961   6.290 -0.1389 -0.5437  0.4768
26730SOL    HW182443   8.055   0.943   6.351 -0.0601  1.5968  1.1263
26730SOL    HW282444   7.915   1.000   6.345 -1.3380 -1.4270 -0.3313
26731SOL     OW82445   1.743   8.562   7.153  0.6455 -0.0508  0.1530
26731SOL    HW182446   1.809   8.493   7.144  0.1465 -0.6774  1.1422
26731SOL    HW282447   1.745   8.585   7.246 -0.0198  0.4398  0.0499
26732SOL     OW82448   6.918   8.881   0.182  0.0474 -0.4674  0.2087
26732SOL    HW182449   6.866   8.887   0.262  0.1758  0.3669  0.2364
26732SOL    HW282450   6.853   8.885   0.111 -0.0116 -0.5311  0.2583
26733SOL     OW82451  10.407   1.199   6.807 -0.0697 -0.1770  0.0283
26733SOL    HW182452  10.353   1.136   6.855 -1.5089  2.1036  1.5880
26733SOL    HW282453  10.475   1.224   6.869  1.1473 -0.9076 -0.9553
26734SOL     OW82454   0.690   1.303   4.853 -0.4524  0.2435 -0.6270
26734SOL    HW182455   0.610   1.250   4.860 -1.5688  2.0107  1.0942
26734SOL    HW282456   0.761   1.239   4.845 -1.8975 -1.4234 -0.6734
26735SOL     OW82457   4.330   8.171   3.091 -0.1699  0.2281 -0.1800
26735SOL    HW182458   4.374   8.228   3.154 -2.4932  1.4137  0.5022
26735SOL    HW282459   4.268   8.229   3.047 -2.8477 -1.7575  0.7219
26736SOL     OW82460   2.393   6.052  10.488 -0.5078  0.1273  0.0387
26736SOL    HW182461   2.328   6.111  10.448 -0.0590  0.6268  0.0286
26736SOL    HW282462   2.476   6.077  10.446 -0.2143 -0.1010  0.4803
26737SOL     OW82463  10.504   4.309   5.881 -0.0077  0.5173 -0.6324
26737SOL    HW182464  10.541   4.224   5.907 -0.8518 -0.0842 -1.3379
26737SOL    HW282465  10.553   4.334   5.804 -0.4307  0.1706 -1.0198
26738SOL     OW82466   3.759   5.773   9.275 -0.2550  0.3738  0.2245
26738SOL    HW182467   3.682   5.756   9.329 -1.1868  0.6144 -0.9929
26738SOL    HW282468   3.731   5.752   9.186  1.1467  0.3018 -0.2163
26739SOL     OW82469   8.019   6.312   7.623  0.3523 -0.0211 -0.4196
26739SOL    HW182470   7.944   6.370   7.635 -0.4894 -1.1195 -0.2430
26739SOL    HW282471   8.056   6.302   7.711  1.6478  1.6829 -0.7009
26740SOL     OW82472   4.446   5.633   7.960 -0.0799 -0.6741 -0.6692
26740SOL    HW182473   4.507   5.669   8.025 -1.5476  0.5343  0.1019
26740SOL    HW282474   4.489   5.649   7.876  0.6201  0.2656 -0.1542
26741SOL     OW82475  10.027   7.438   6.806  0.3045  0.2221 -0.0235
26741SOL    HW182476  10.004   7.496   6.733  0.0860  0.4701  0.2398
26741SOL    HW282477  10.011   7.350   6.773  0.8592  0.2998 -0.5062
26742SOL     OW82478   2.271   6.787   3.625 -0.0142 -0.2331  0.1328
26742SOL    HW182479   2.189   6.774   3.577 -0.6742  1.8922  0.5703
26742SOL    HW282480   2.336   6.805   3.558 -0.3910  0.2228 -0.1165
26743SOL     OW82481  10.175   7.001   9.848 -0.5107  0.6836 -0.1100
26743SOL    HW182482  10.227   7.072   9.810 -1.4604  1.6310  0.3126
26743SOL    HW282483  10.236   6.952   9.902  0.2938  0.8112 -0.8752
26744SOL     OW82484   1.248   9.998   3.729  0.1104  0.2637 -0.4136
26744SOL    HW182485   1.314  10.068   3.734  0.5890 -0.1295 -1.0738
26744SOL    HW282486   1.271   9.949   3.650 -0.4275 -0.4335 -0.1481
26745SOL     OW82487   2.530   6.515   1.377  0.3503 -0.1033  0.0256
26745SOL    HW182488   2.608   6.570   1.376  0.6412 -0.5152 -0.3229
26745SOL    HW282489   2.524   6.484   1.468  0.5292  0.0131  0.0775
26746SOL     OW82490   4.252   4.185   3.557  0.8574 -0.5783 -0.3389
26746SOL    HW182491   4.182   4.121   3.568  0.7640  0.0110  4.6072
26746SOL    HW282492   4.332   4.134   3.572  1.1396 -0.3150 -0.9263
26747SOL     OW82493   7.085   0.697   9.428 -0.1970 -0.3279  0.2317
26747SOL    HW182494   6.995   0.696   9.395 -0.3887 -0.4629  0.7528
26747SOL    HW282495   7.132   0.754   9.367 -0.3857 -1.1353 -0.6761
26748SOL     OW82496   2.742   4.739   6.740  0.2499 -0.7624 -0.4029
26748SOL    HW182497   2.659   4.720   6.785 -0.4432  1.6016 -0.5399
26748SOL    HW282498   2.724   4.720   6.648 -0.3133  0.1506 -0.4959
26749SOL     OW82499   4.759   0.651   8.453 -0.5027 -0.2876 -0.7192
26749SOL    HW182500   4.734   0.571   8.407  0.0318 -0.6488 -0.3907
26749SOL    HW282501   4.675   0.694   8.473 -0.8004 -0.8465 -0.7442
26750SOL     OW82502   1.179   2.373   7.451  0.5752  0.3156  0.5128
26750SOL    HW182503   1.238   2.432   7.499  0.5677  0.7879 -0.0429
26750SOL    HW282504   1.219   2.287   7.458  0.5352  0.3586  1.4333
26751SOL     OW82505   2.926   0.692   1.347 -0.0214 -0.1126  0.0274
26751SOL    HW182506   2.994   0.723   1.288  0.8630 -2.2660 -0.1839
26751SOL    HW282507   2.876   0.629   1.295 -0.4736 -0.5667  0.9875
26752SOL     OW82508   2.695   0.746   1.830  0.3633  0.9152 -0.2124
26752SOL    HW182509   2.763   0.778   1.889  0.4402 -0.3147  0.3990
26752SOL    HW282510   2.709   0.652   1.826 -1.2173  0.6554 -0.1947
26753SOL     OW82511   9.717   9.232   1.688  0.1465 -0.1169 -0.3321
26753SOL    HW182512   9.790   9.244   1.626 -0.4017 -0.0819 -0.9811
26753SOL    HW282513   9.721   9.309   1.744  0.9171 -0.3607 -0.0449
26754SOL     OW82514   4.952   5.913   1.639  0.5647 -0.3751  0.0764
26754SOL    HW182515   5.003   5.872   1.709  0.7805  2.0403  1.4505
26754SOL    HW282516   5.018   5.953   1.581  0.3178  0.1270  0.1374
26755SOL     OW82517   6.203   9.442   8.814 -0.4322  0.1942  0.6389
26755SOL    HW182518   6.160   9.470   8.733 -1.7060  0.1527  1.2620
26755SOL    HW282519   6.161   9.358   8.835 -0.4591  0.4314  1.5715
26756SOL     OW82520   6.075   7.986   4.434 -0.1664 -0.9540 -0.3669
26756SOL    HW182521   6.014   8.032   4.492  1.6791 -1.1331  1.8530
26756SOL    HW282522   6.071   7.895   4.463  0.4409 -1.1385 -0.8486
26757SOL     OW82523   1.738   0.991   8.941 -0.8967 -0.3395  0.2637
26757SOL    HW182524   1.662   1.030   8.985 -0.0985  1.9626 -0.2545
26757SOL    HW282525   1.704   0.912   8.900 -3.0583  0.6968 -0.0854
26758SOL     OW82526   3.988   7.565   5.920 -0.5708  0.2195  0.7732
26758SOL    HW182527   3.980   7.496   5.855 -1.0721  0.3311  0.7122
26758SOL    HW282528   3.901   7.603   5.926 -0.3262  0.7777  0.8828
26759SOL     OW82529   6.155   8.570   6.455 -0.5384 -0.0363 -0.0243
26759SOL    HW182530   6.184   8.485   6.486 -2.6528 -0.2357  1.7239
26759SOL    HW282531   6.163   8.627   6.531  0.5009  1.2873 -1.0650
26760SOL     OW82532   2.850   2.258   1.065  0.4864 -0.6915 -0.1223
26760SOL    HW182533   2.866   2.339   1.114 -0.5034 -0.5963  0.0707
26760SOL    HW282534   2.921   2.200   1.091  1.1969  0.1002 -0.2379
26761SOL     OW82535   8.986   5.181   6.633  0.1054 -0.3895  0.3913
26761SOL    HW182536   9.064   5.217   6.591 -0.2292 -0.3787 -0.2332
26761SOL    HW282537   9.019   5.110   6.689  0.5783 -0.2753  0.2602
26762SOL     OW82538   6.702   5.705   5.328  0.2239  0.6065  0.7783
26762SOL    HW182539   6.771   5.738   5.385 -0.3400 -0.3129  2.0472
26762SOL    HW282540   6.741   5.631   5.282  0.8243  1.6351 -0.4444
26763SOL     OW82541   3.512   4.447   1.924  0.1874 -1.0127 -0.1704
26763SOL    HW182542   3.580   4.386   1.896  1.9452  1.0286 -0.5788
26763SOL    HW282543   3.551   4.494   1.998 -0.8669  0.0259 -0.2508
26764SOL     OW82544   1.071   1.980   8.524 -0.2774 -0.7551 -0.8697
26764SOL    HW182545   1.095   1.959   8.434  3.1557  0.7596 -0.4730
26764SOL    HW282546   1.022   2.062   8.517  1.3820  0.2590 -1.3764
26765SOL     OW82547   2.965   9.455   3.111  0.0640 -0.4404  0.4910
26765SOL    HW182548   2.924   9.534   3.145 -1.8665 -0.9362 -0.5393
26765SOL    HW282549   3.015   9.486   3.035 -0.5209 -0.1803  0.2067
26766SOL     OW82550   9.659   7.774   8.333  0.3343  0.0678  0.0380
26766SOL    HW182551   9.733   7.748   8.388  2.0267 -0.4376 -2.2936
26766SOL    HW282552   9.586   7.720   8.363  0.6739  0.9310  2.7470
26767SOL     OW82553   2.279   9.574   3.002 -0.3889 -0.0823 -0.2342
26767SOL    HW182554   2.326   9.499   2.965  1.0427  1.5263 -1.9049
26767SOL    HW282555   2.188   9.545   3.008 -0.0197 -1.6888 -1.5912
26768SOL     OW82556   0.507   5.470   7.099 -0.1723 -0.2544 -0.5658
26768SOL    HW182557   0.444   5.410   7.140 -2.0148  0.2096 -2.5194
26768SOL    HW282558   0.573   5.412   7.061 -0.3182 -0.8633  0.0751
26769SOL     OW82559   4.306   1.010   0.156 -0.8395 -0.0313 -0.3723
26769SOL    HW182560   4.332   0.918   0.146  1.7585  0.3985  1.4836
26769SOL    HW282561   4.348   1.054   0.082 -2.8797 -0.3834 -1.8250
26770SOL     OW82562   6.407   5.933   7.501 -0.2901 -0.7638 -0.0127
26770SOL    HW182563   6.403   5.839   7.483  1.2937 -0.8326 -0.1266
26770SOL    HW282564   6.431   5.938   7.594  0.7228 -0.5011 -0.2773
26771SOL     OW82565   9.453   3.974   0.846  0.4878  0.2336  0.0993
26771SOL    HW182566   9.380   3.915   0.829  1.0894 -0.1922 -1.1778
26771SOL    HW282567   9.435   4.052   0.793  0.8688  0.1908 -0.1011
26772SOL     OW82568   8.266   8.725   9.296 -0.0827 -0.5803  0.5566
26772SOL    HW182569   8.335   8.790   9.290 -0.8500  0.2123  0.0575
26772SOL    HW282570   8.251   8.697   9.206 -0.5182 -0.6292  0.6411
26773SOL     OW82571   1.403   9.386   7.532  0.5192  0.5078 -0.1218
26773SOL    HW182572   1.484   9.390   7.582  0.6258 -0.3922 -0.1991
26773SOL    HW282573   1.404   9.463   7.476  0.3895  1.5580  1.2818
26774SOL     OW82574  10.258   7.918   7.340  0.0295 -0.3013 -0.0850
26774SOL    HW182575  10.325   7.870   7.389  0.1761 -1.8291 -1.6977
26774SOL    HW282576  10.176   7.876   7.364  0.1572 -1.4263 -1.4986
26775SOL     OW82577   5.094   3.532   0.800  0.5463 -0.3341  0.0614
26775SOL    HW182578   5.080   3.445   0.835  1.9201 -0.2148  0.9508
26775SOL    HW282579   5.112   3.587   0.876 -0.5618  0.8095 -0.4471
26776SOL     OW82580   8.253   1.267   7.820 -0.1163 -0.1734  0.4275
26776SOL    HW182581   8.233   1.324   7.894  2.7829 -1.0055  1.9868
26776SOL    HW282582   8.194   1.192   7.831  0.2083 -0.2487  1.8833
26777SOL     OW82583   2.258   6.097   0.422  0.1611  0.2503 -0.2099
26777SOL    HW182584   2.247   6.022   0.363 -0.2344 -0.2096  0.4484
26777SOL    HW282585   2.209   6.075   0.500 -0.0049  1.2268 -0.0211
26778SOL     OW82586   6.106   0.650   2.087 -0.2211  0.1857 -0.8370
26778SOL    HW182587   6.183   0.603   2.052 -0.6371 -1.4312  0.2958
26778SOL    HW282588   6.098   0.619   2.177 -0.6628  2.3522 -0.0627
26779SOL     OW82589   8.221   0.880   6.102  0.4070  0.0589  0.0309
26779SOL    HW182590   8.216   0.787   6.081  0.8148  0.0229  0.0846
26779SOL    HW282591   8.159   0.892   6.175  1.0293 -0.3553  0.6460
26780SOL     OW82592   4.567   1.142   1.856 -0.4932 -0.1339 -0.5201
26780SOL    HW182593   4.522   1.067   1.815 -2.0238 -0.0917  0.9775
26780SOL    HW282594   4.632   1.102   1.913 -1.9555 -0.4273  1.0222
26781SOL     OW82595   8.282   4.201   8.573 -0.1478 -0.0044 -0.2534
26781SOL    HW182596   8.283   4.180   8.666  1.6402  1.8878  0.2096
26781SOL    HW282597   8.347   4.142   8.534  0.9919  0.9237  0.1715
26782SOL     OW82598   6.674   4.364   7.349 -0.1003 -0.2071  0.6965
26782SOL    HW182599   6.760   4.337   7.318 -0.7436  0.8377 -2.3192
26782SOL    HW282600   6.669   4.329   7.438  2.9066 -1.3683  0.5393
26783SOL     OW82601   4.985   6.076   4.336 -0.5238 -0.0632  0.3028
26783SOL    HW182602   4.940   6.030   4.265 -1.7167 -2.4001  2.4095
26783SOL    HW282603   5.023   6.153   4.294 -2.5193 -0.4538 -2.5307
26784SOL     OW82604   5.796   5.502   4.939 -0.5970 -0.1183  0.0724
26784SOL    HW182605   5.706   5.533   4.927 -0.3971 -0.0018 -1.1836
26784SOL    HW282606   5.810   5.508   5.034 -1.7103  0.4110  0.2244
26785SOL     OW82607   7.326   0.894   4.077  0.2970  0.8804  0.3565
26785SOL    HW182608   7.374   0.811   4.071 -0.5249  0.4579 -0.6509
26785SOL    HW282609   7.388   0.960   4.045 -0.1399  0.1792 -2.1136
26786SOL     OW82610  10.087   8.694   2.409  0.0544  0.2407  0.2355
26786SOL    HW182611  10.047   8.658   2.330 -2.7074  1.3256  1.0211
26786SOL    HW282612  10.179   8.703   2.387 -0.8524  2.2370 -3.6163
26787SOL     OW82613   6.860   7.537  10.256 -0.5349 -0.2902 -0.0663
26787SOL    HW182614   6.817   7.622  10.245 -1.2961 -0.3931  1.6975
26787SOL    HW282615   6.855   7.520  10.350  1.6191 -1.2672 -0.0717
26788SOL     OW82616   7.102   8.663   0.332  0.3994 -0.3345  0.1301
26788SOL    HW182617   7.189   8.698   0.355  0.0790 -0.1036  1.0413
26788SOL    HW282618   7.046   8.689   0.405 -0.8688  1.0784 -1.2562
26789SOL     OW82619   9.452   9.742   6.627 -0.2781 -0.1880  0.3863
26789SOL    HW182620   9.420   9.748   6.537  1.4931  0.2921 -0.2594
26789SOL    HW282621   9.534   9.791   6.627 -0.4619  0.2430  2.4003
26790SOL     OW82622  10.638   7.171   6.059 -0.2553  0.1772  0.1929
26790SOL    HW182623  10.661   7.183   6.151  1.2156  0.2192 -0.1645
26790SOL    HW282624  10.617   7.259   6.028 -1.0233  0.1260  0.5440
26791SOL     OW82625   6.232  10.092   0.129  0.1635  0.0254  0.5238
26791SOL    HW182626   6.298  10.063   0.067  1.0518  1.1524  0.9097
26791SOL    HW282627   6.260  10.179   0.155 -0.9324  0.1200  1.4779
26792SOL     OW82628   4.846   0.084   3.471 -0.5408  0.0273  0.5296
26792SOL    HW182629   4.796   0.045   3.399 -3.0620 -0.3964  2.4055
26792SOL    HW282630   4.934   0.095   3.434 -1.7457  0.1057 -2.7004
26793SOL     OW82631   0.497   4.695   1.137  0.0387 -0.2798 -0.4044
26793SOL    HW182632   0.583   4.654   1.126  0.6053  0.6807  0.3395
26793SOL    HW282633   0.497   4.768   1.076  0.6249  1.0504  1.1271
26794SOL     OW82634   6.984  10.142   3.785  0.3881  0.1239 -0.0626
26794SOL    HW182635   6.954  10.207   3.848  1.4189  0.8774 -0.3364
26794SOL    HW282636   6.937  10.163   3.705  1.2799  1.0378 -0.3699
26795SOL     OW82637   1.968   9.515   5.254 -0.6039 -0.4734  0.5598
26795SOL    HW182638   1.914   9.439   5.235 -0.9618 -0.4412  1.4264
26795SOL    HW282639   1.906   9.586   5.270 -0.2819  0.3044 -1.3237
26796SOL     OW82640   0.454   6.215   5.903 -0.1779 -0.4557  0.1434
26796SOL    HW182641   0.382   6.179   5.851 -1.3997 -1.3939  2.3705
26796SOL    HW282642   0.528   6.158   5.884 -1.0629 -1.8310  0.7049
26797SOL     OW82643   5.237   8.373   9.101 -0.2692 -0.2069  0.4242
26797SOL    HW182644   5.203   8.446   9.050 -1.6273 -0.8679  0.3387
26797SOL    HW282645   5.173   8.359   9.170  0.2809 -0.9202  0.8069
26798SOL     OW82646   0.853   4.207   3.273  0.5049 -0.2631 -0.0522
26798SOL    HW182647   0.860   4.250   3.188  1.5498 -0.9653 -0.3349
26798SOL    HW282648   0.799   4.130   3.256  1.1662 -0.6979 -0.2039
26799SOL     OW82649   6.711   6.489  10.603  1.2232 -0.3133 -0.3280
26799SOL    HW182650   6.681   6.545  10.531 -1.2465 -1.1831 -0.1008
26799SOL    HW282651   6.736   6.407  10.560 -0.6507 -0.9831 -0.2608
26800SOL     OW82652   3.186   0.391   1.577 -0.0317  0.8200 -0.3926
26800SOL    HW182653   3.274   0.357   1.590  0.5086  1.9433 -0.9428
26800SOL    HW282654   3.172   0.386   1.482 -0.4934  0.7791 -0.3233
26801SOL     OW82655  10.430   8.566   0.432  0.4837  0.0039 -0.1395
26801SOL    HW182656  10.519   8.566   0.467  1.4001  1.8821 -2.2495
26801SOL    HW282657  10.441   8.554   0.337 -1.6055 -0.8279 -0.3366
26802SOL     OW82658   2.483   7.544  10.520 -0.0156 -0.4148  0.1052
26802SOL    HW182659   2.468   7.583  10.434  0.3374 -0.2984  0.0953
26802SOL    HW282660   2.555   7.482  10.506 -0.3838 -0.8647  0.1802
26803SOL     OW82661   0.898   1.613   6.925 -0.1170  0.7073  0.1528
26803SOL    HW182662   0.964   1.543   6.922  0.2374  0.9754  1.2463
26803SOL    HW282663   0.848   1.596   7.005  1.0166  2.5981  1.3353
26804SOL     OW82664  10.271   0.358   8.593 -0.0745 -0.5785  0.3287
26804SOL    HW182665  10.212   0.402   8.532 -0.4614 -1.9829 -0.3258
26804SOL    HW282666  10.250   0.265   8.586  2.7427 -1.2730 -0.5498
26805SOL     OW82667   0.039   9.920   3.933 -0.2802  0.5299  0.6535
26805SOL    HW182668  -0.044   9.910   3.979 -1.2878  0.3520 -1.0795
26805SOL    HW282669   0.054   9.834   3.893 -0.7327  1.2895 -1.2853
26806SOL     OW82670   2.346   1.611   8.050 -0.2263  0.2261 -0.5380
26806SOL    HW182671   2.434   1.608   8.013 -0.1915  0.5098 -0.4835
26806SOL    HW282672   2.310   1.693   8.017 -1.4558 -1.1212 -2.7919
26807SOL     OW82673   4.291   3.742  10.643  0.1859  0.3342 -0.0208
26807SOL    HW182674   4.249   3.657  10.626 -0.3140  0.6491 -0.3604
26807SOL    HW282675   4.374   3.736  10.595  0.5648 -0.3021  0.6846
26808SOL     OW82676   5.689   5.253   8.488  0.0069 -0.2825  0.2340
26808SOL    HW182677   5.642   5.268   8.407  0.3048 -1.4504 -0.1851
26808SOL    HW282678   5.658   5.167   8.518  0.8884 -0.4784  0.6281
26809SOL     OW82679   1.664  10.216   9.368  0.0907  0.2575 -0.7287
26809SOL    HW182680   1.673  10.275   9.442 -1.7184  1.1017 -1.1101
26809SOL    HW282681   1.574  10.231   9.337  0.2885 -1.1917 -2.1243
26810SOL     OW82682   4.087   7.273   1.191 -0.3323  0.3174  0.1410
26810SOL    HW182683   4.057   7.185   1.213 -1.7392  0.1542 -2.1082
26810SOL    HW282684   4.059   7.327   1.265 -1.8510 -0.6932  0.3410
26811SOL     OW82685   7.666   3.914   5.433  0.0908  0.1611  0.5365
26811SOL    HW182686   7.687   3.840   5.376 -1.3357  0.7501 -0.8364
26811SOL    HW282687   7.750   3.940   5.470  1.0098 -0.5654 -0.9327
26812SOL     OW82688   0.090   5.941   3.914  0.1346  0.3749 -0.7390
26812SOL    HW182689   0.156   5.969   3.850  0.3129  0.5627 -0.4740
26812SOL    HW282690   0.104   5.847   3.923 -0.9856  0.0227 -2.2321
26813SOL     OW82691   4.132   5.159   5.558  0.5439 -0.1622 -0.2332
26813SOL    HW182692   4.060   5.222   5.563  0.2286 -0.5415  0.0705
26813SOL    HW282693   4.211   5.212   5.564  0.2845  0.2388 -0.3453
26814SOL     OW82694  10.488   8.507  10.392  0.0456 -0.3971  0.2114
26814SOL    HW182695  10.456   8.421  10.419 -0.0579 -0.9238 -1.4777
26814SOL    HW282696  10.583   8.495  10.384  0.1281 -0.1221  0.7452
26815SOL     OW82697  10.476   7.351   7.251 -0.1381 -0.5644 -0.4035
26815SOL    HW182698  10.497   7.263   7.281  1.4435 -0.1243 -0.1440
26815SOL    HW282699  10.497   7.351   7.158  2.1011  0.1331  0.0328
26816SOL     OW82700   9.295   4.857   6.119  0.4359  0.5758  0.6630
26816SOL    HW182701   9.301   4.906   6.202 -1.2617  1.1185  0.5066
26816SOL    HW282702   9.324   4.769   6.141 -1.9660  0.1332  2.3932
26817SOL     OW82703   4.389   3.770   1.805  0.1080  0.2677  0.3377
26817SOL    HW182704   4.318   3.705   1.806 -0.8380  1.2040 -1.1284
26817SOL    HW282705   4.381   3.816   1.889 -1.5794  0.8915 -0.1237
26818SOL     OW82706   8.514  10.477   8.140 -0.6710  0.3244  0.3562
26818SOL    HW182707   8.608  10.465   8.126 -0.7898  0.7272 -0.9074
26818SOL    HW282708   8.484  10.391   8.171 -0.0983 -0.2064 -0.5052
26819SOL     OW82709   3.101   2.627   3.140  0.4856  0.5465  0.4051
26819SOL    HW182710   3.067   2.552   3.190  1.3095 -0.2119 -0.1392
26819SOL    HW282711   3.039   2.697   3.157 -1.4878 -0.8328 -0.6852
26820SOL     OW82712   5.552   8.004   9.318 -0.1698 -0.0135 -0.0329
26820SOL    HW182713   5.535   8.044   9.233  0.3760 -0.0156 -0.1478
26820SOL    HW282714   5.521   8.069   9.381 -2.3418 -0.7936 -0.2123
26821SOL     OW82715   0.946   0.195   1.303  0.2230  0.2656 -0.2269
26821SOL    HW182716   1.018   0.157   1.252 -0.0923 -2.3186  1.0498
26821SOL    HW282717   0.867   0.165   1.259 -0.0463 -0.2567  0.5876
26822SOL     OW82718   0.325   9.192   4.467  0.4713  0.4074  0.5404
26822SOL    HW182719   0.294   9.281   4.478 -1.3488  0.0439 -1.0537
26822SOL    HW282720   0.417   9.201   4.440 -0.1896  1.9138 -1.3932
26823SOL     OW82721   7.469   4.105   2.194 -0.3581 -0.1513  1.1023
26823SOL    HW182722   7.563   4.088   2.197 -0.1778  0.7844  0.8919
26823SOL    HW282723   7.433   4.032   2.142  0.2969 -0.2813  0.8243
26824SOL     OW82724   2.256   4.964   7.489  0.1404  0.1031  0.3336
26824SOL    HW182725   2.275   4.936   7.400  1.2281 -2.6562  1.3213
26824SOL    HW282726   2.333   4.938   7.539  0.1473  2.8052  1.9178
26825SOL     OW82727   9.146   1.740   2.336 -1.0660 -0.0305  0.6211
26825SOL    HW182728   9.100   1.666   2.295 -0.1022 -0.9026  1.0602
26825SOL    HW282729   9.237   1.728   2.311 -1.0061  1.5206 -0.0024
26826SOL     OW82730   5.362   7.287   5.220 -0.0515 -0.2734  0.4493
26826SOL    HW182731   5.369   7.314   5.129 -1.5783  0.3212  0.4771
26826SOL    HW282732   5.372   7.192   5.218 -0.3135 -0.2893 -0.3618
26827SOL     OW82733   8.766   8.292   3.992 -0.1203  0.2750  0.0142
26827SOL    HW182734   8.700   8.227   4.019 -0.9421  1.9537  2.4479
26827SOL    HW282735   8.831   8.290   4.062 -0.0569  1.8536  0.0482
26828SOL     OW82736   2.303   6.111   6.390 -0.1602 -0.4390  0.2233
26828SOL    HW182737   2.365   6.169   6.345 -1.9317  2.1186  0.8424
26828SOL    HW282738   2.230   6.102   6.329 -1.1046  0.2917  1.2094
26829SOL     OW82739   5.227   7.545   4.749  0.0955  0.3740 -0.4635
26829SOL    HW182740   5.273   7.628   4.734 -1.3486  0.9183 -2.1469
26829SOL    HW282741   5.147   7.552   4.697 -1.1009 -1.2217  1.0673
26830SOL     OW82742   1.098   1.055   3.200 -0.5552  0.2345  0.2816
26830SOL    HW182743   1.005   1.077   3.199 -1.1223 -1.9404  0.8407
26830SOL    HW282744   1.122   1.048   3.107 -1.1153  0.1057  0.1436
26831SOL     OW82745   7.722   8.843   5.957 -0.4726 -0.0770  0.0018
26831SOL    HW182746   7.706   8.764   5.905 -0.8310 -1.0786  1.5935
26831SOL    HW282747   7.776   8.898   5.899  1.4268 -2.2758 -0.4728
26832SOL     OW82748   7.617   4.394   1.132  0.1516 -0.4472  0.4781
26832SOL    HW182749   7.592   4.340   1.057  0.7969  1.3758 -1.1382
26832SOL    HW282750   7.710   4.376   1.145  0.6433  0.9450 -0.7546
26833SOL     OW82751   2.031   8.146  10.639  0.6689 -0.4893  0.1890
26833SOL    HW182752   1.954   8.121  10.690  1.0981 -0.5577  0.8153
26833SOL    HW282753   2.066   8.223  10.685  0.8050 -0.2800 -0.2592
26834SOL     OW82754   7.530   9.381   1.657  0.5551  0.0616  0.0994
26834SOL    HW182755   7.484   9.423   1.730  0.3147 -0.2289  0.1146
26834SOL    HW282756   7.613   9.352   1.695  0.3763 -0.2017  0.2861
26835SOL     OW82757   6.031   5.768   6.854  0.3697  0.4476 -0.0902
26835SOL    HW182758   6.049   5.862   6.856  2.6303  0.0553 -0.3320
26835SOL    HW282759   5.942   5.760   6.890 -0.5569  2.7953 -1.6681
26836SOL     OW82760   2.606   8.549   1.872 -0.2801  0.2872 -0.3978
26836SOL    HW182761   2.678   8.594   1.828 -1.2353  0.8256 -1.4566
26836SOL    HW282762   2.604   8.587   1.960  1.6647 -0.8180  0.1870
26837SOL     OW82763   8.716   0.628   0.328 -0.4585 -0.0403 -0.3763
26837SOL    HW182764   8.758   0.706   0.292  0.5825  0.3752  1.6570
26837SOL    HW282765   8.644   0.610   0.266  0.3334  1.4760 -1.8267
26838SOL     OW82766  10.027   9.626   5.312 -0.1231  0.0674  0.2794
26838SOL    HW182767  10.111   9.628   5.359  0.4066 -0.3280 -0.6132
26838SOL    HW282768  10.002   9.533   5.313  0.4218 -0.1121 -1.1001
26839SOL     OW82769  10.230   2.987   8.976  0.4932 -0.0706  0.5378
26839SOL    HW182770  10.248   2.900   9.011 -1.6776 -0.7642  0.0633
26839SOL    HW282771  10.187   3.034   9.048 -1.9002 -0.7504 -0.3429
26840SOL     OW82772   7.932   4.892   3.131 -0.2820 -1.0368 -0.3391
26840SOL    HW182773   7.979   4.930   3.206  0.4169 -0.8427 -0.8586
26840SOL    HW282774   7.840   4.896   3.156 -0.1834  0.4255 -0.1050
26841SOL     OW82775   8.657   5.368   9.269 -0.0943  0.2887 -0.4587
26841SOL    HW182776   8.572   5.393   9.307 -0.0947  0.3073 -0.4719
26841SOL    HW282777   8.634   5.313   9.194 -0.0542 -1.3866  0.7159
26842SOL     OW82778   9.278   9.586   6.019 -0.5434 -0.4615 -0.5516
26842SOL    HW182779   9.196   9.540   6.000 -0.8687 -0.6970  1.2696
26842SOL    HW282780   9.297   9.634   5.938 -2.5949 -0.2199 -0.9564
26843SOL     OW82781   7.834   9.582   7.671 -0.8272  0.0619 -0.4918
26843SOL    HW182782   7.920   9.602   7.710 -0.2229 -2.0557 -0.6137
26843SOL    HW282783   7.830   9.639   7.594  0.0576  0.8552  0.0150
26844SOL     OW82784   7.269   9.205   6.498  0.6053  0.0071 -0.2171
26844SOL    HW182785   7.256   9.270   6.566 -0.2976 -0.9860  0.5842
26844SOL    HW282786   7.271   9.256   6.417 -0.5740  0.9853  0.3389
26845SOL     OW82787   4.176   1.280   2.678 -1.0908  0.2000  0.3416
26845SOL    HW182788   4.224   1.206   2.712 -1.2097 -0.4144 -0.7821
26845SOL    HW282789   4.090   1.275   2.721 -2.4586 -2.5041 -2.3086
26846SOL     OW82790   4.378   5.980   2.199  0.5213  0.0605 -0.3890
26846SOL    HW182791   4.328   6.062   2.189 -0.0015 -0.0249  1.2066
26846SOL    HW282792   4.315   5.911   2.180  0.6735  0.0015 -0.6820
26847SOL     OW82793   5.792   1.474   3.365 -0.7023  0.4389  0.2733
26847SOL    HW182794   5.789   1.405   3.299 -1.3596  2.2408 -1.6704
26847SOL    HW282795   5.729   1.446   3.432 -3.2878  0.5194 -1.9534
26848SOL     OW82796   3.091  10.350   1.622  0.4195  0.0294 -0.2092
26848SOL    HW182797   3.164  10.373   1.565  1.1949  0.0732  0.7651
26848SOL    HW282798   3.090  10.254   1.621  2.2941 -0.0982  1.8883
26849SOL     OW82799   5.185   8.959   5.504 -0.2595 -0.2875 -0.1271
26849SOL    HW182800   5.268   8.997   5.476  0.4221 -1.3691  0.3644
26849SOL    HW282801   5.126   8.973   5.429  0.4485  0.1890 -0.6085
26850SOL     OW82802   4.411   3.969   9.149 -0.3046  0.5110  0.0437
26850SOL    HW182803   4.433   3.966   9.056  0.7057  0.9276  0.2570
26850SOL    HW282804   4.351   3.896   9.163  0.9583 -0.6684 -0.5660
26851SOL     OW82805   4.917   0.636   4.251  0.5992 -0.3944 -0.0060
26851SOL    HW182806   4.828   0.616   4.282  0.7097  0.1629  0.6963
26851SOL    HW282807   4.919   0.731   4.245  1.5238 -0.3089  1.1869
26852SOL     OW82808   6.654   2.881   1.017  0.2826  0.1886 -0.4673
26852SOL    HW182809   6.701   2.831   1.084 -0.6132 -0.9559 -0.6534
26852SOL    HW282810   6.599   2.942   1.067 -0.3735 -0.6543 -0.1354
26853SOL     OW82811   7.599   2.338   4.579 -0.3114 -0.1836 -0.2867
26853SOL    HW182812   7.605   2.351   4.484 -0.5634 -1.9398 -0.5819
26853SOL    HW282813   7.586   2.426   4.614 -0.4609  0.4841 -1.8958
26854SOL     OW82814   6.716  10.189   5.026  0.0697 -0.1869 -0.6771
26854SOL    HW182815   6.684  10.251   4.960 -1.3703 -1.4468 -1.2116
26854SOL    HW282816   6.641  10.173   5.083  0.3654 -1.5182 -0.6226
26855SOL     OW82817   4.650   5.093   2.908  0.0882  0.2877  0.0275
26855SOL    HW182818   4.604   5.035   2.847  0.3533  0.9383 -0.7915
26855SOL    HW282819   4.676   5.168   2.856 -1.2348  1.7060  1.3072
26856SOL     OW82820   2.593   9.173   6.121 -0.4677  0.0062 -0.0281
26856SOL    HW182821   2.581   9.085   6.156 -0.3581 -0.7753 -1.8510
26856SOL    HW282822   2.644   9.161   6.041 -0.1844  1.7612 -0.1579
26857SOL     OW82823   4.638   1.219   3.776  0.9696  0.4731 -0.4811
26857SOL    HW182824   4.573   1.157   3.809 -0.1069  1.6023 -0.4251
26857SOL    HW282825   4.684   1.250   3.854  0.2128  1.1594 -0.2944
26858SOL     OW82826   0.802   4.037   5.022 -0.3669  0.0813  0.3028
26858SOL    HW182827   0.872   4.051   4.958 -1.6602 -1.3804 -1.5405
26858SOL    HW282828   0.837   3.971   5.081 -0.7177 -1.9801 -1.6612
26859SOL     OW82829   8.363   4.510   5.812  0.5787 -0.0610  0.3090
26859SOL    HW182830   8.457   4.497   5.796  0.0884 -1.3579 -1.9185
26859SOL    HW282831   8.329   4.544   5.729 -1.0830 -0.5467  0.7584
26860SOL     OW82832  10.293   7.522   8.069 -0.1194  0.0633 -0.2517
26860SOL    HW182833  10.315   7.610   8.039 -0.6967  0.6978  1.0823
26860SOL    HW282834  10.212   7.500   8.024  0.1137  0.1363 -0.7170
26861SOL     OW82835  10.064   0.220   2.215  0.3618  0.2674  0.7417
26861SOL    HW182836   9.995   0.161   2.185  0.2430  1.1829 -0.8743
26861SOL    HW282837  10.021   0.274   2.282  0.4477 -1.3417  2.1709
26862SOL     OW82838   9.446   8.266   1.191 -0.2466  0.0131  0.6799
26862SOL    HW182839   9.439   8.282   1.097  0.6034 -0.0304  0.6016
26862SOL    HW282840   9.395   8.186   1.205  0.5550 -0.6393  0.0487
26863SOL     OW82841   6.762   5.997  10.111 -0.7290  0.5367 -0.1839
26863SOL    HW182842   6.667   6.005  10.103 -0.6259  0.9530 -1.0570
26863SOL    HW282843   6.794   6.087  10.120 -0.3318  0.4763 -0.9233
26864SOL     OW82844   8.096   9.479   4.074  0.3082  0.1632 -0.3492
26864SOL    HW182845   8.097   9.572   4.096 -1.1757  0.6839 -2.1779
26864SOL    HW282846   8.022   9.443   4.124  0.3201  0.1656 -0.3304
26865SOL     OW82847   2.034   0.206   0.273 -0.2907  0.0584 -0.9349
26865SOL    HW182848   1.985   0.155   0.209  0.1090 -0.6714 -0.6859
26865SOL    HW282849   2.071   0.140   0.332 -1.5652  0.7484  0.7246
26866SOL     OW82850  10.056   4.677   7.687 -0.2524 -0.0470  0.6138
26866SOL    HW182851  10.123   4.611   7.705 -0.2462  0.3598  2.3274
26866SOL    HW282852  10.015   4.692   7.773 -1.7188  0.5904 -0.1711
26867SOL     OW82853   6.063   8.739   2.386  0.3990  0.0433 -0.2450
26867SOL    HW182854   6.032   8.729   2.476  1.3118  0.4804  0.1376
26867SOL    HW282855   5.998   8.694   2.333  0.1653 -0.7648  0.6879
26868SOL     OW82856   4.347   6.278   7.143 -0.5259  0.0306 -0.9361
26868SOL    HW182857   4.261   6.279   7.102 -0.6219 -2.1199 -0.8721
26868SOL    HW282858   4.395   6.209   7.097  1.1603  1.0771 -0.8869
26869SOL     OW82859   8.137   7.950   1.108  0.1570  0.8672  0.4784
26869SOL    HW182860   8.086   8.007   1.167 -0.6660  0.3975  0.2356
26869SOL    HW282861   8.096   7.864   1.117 -0.1198  0.8335 -0.9368
26870SOL     OW82862   9.826   7.756   8.598 -0.0348  0.0382  0.0216
26870SOL    HW182863   9.869   7.671   8.606 -1.3950 -0.7457 -0.6367
26870SOL    HW282864   9.893   7.820   8.623  0.3582 -1.3235  2.7200
26871SOL     OW82865   1.782   5.351   3.397  0.2280  0.3154 -0.2904
26871SOL    HW182866   1.693   5.384   3.396  0.4915  1.0495 -2.2089
26871SOL    HW282867   1.835   5.425   3.427  0.4093  0.5036 -1.0668
26872SOL     OW82868   4.606   9.238   1.476 -0.0152 -0.4549  0.4154
26872SOL    HW182869   4.577   9.217   1.565  1.3073  0.9976  1.2392
26872SOL    HW282870   4.681   9.181   1.460  0.3350 -0.0602  0.6209
26873SOL     OW82871   6.388  10.449   1.764  0.2358  0.0848 -0.1349
26873SOL    HW182872   6.375  10.364   1.807  1.0106 -0.3463 -0.7145
26873SOL    HW282873   6.336  10.442   1.683 -0.3308  0.4667  0.1947
26874SOL     OW82874   3.443   6.725   8.608  0.3573 -0.6388 -0.3911
26874SOL    HW182875   3.371   6.789   8.614  0.5505 -0.5301  1.3214
26874SOL    HW282876   3.482   6.742   8.523 -0.7799  0.2526 -0.7761
26875SOL     OW82877   6.214   5.275   5.719  0.1870  0.4750  0.3899
26875SOL    HW182878   6.299   5.287   5.678  0.0063 -1.1286 -0.5519
26875SOL    HW282879   6.232   5.267   5.813  1.1619 -0.4262  0.1421
26876SOL     OW82880   0.371   9.100   2.532 -0.5673 -0.3250 -0.2419
26876SOL    HW182881   0.278   9.122   2.536 -1.0045 -1.9411 -0.9974
26876SOL    HW282882   0.381   9.053   2.449  1.6961  3.2146 -2.2668
26877SOL     OW82883   9.021   4.881   7.273  0.3166  0.1820 -0.0851
26877SOL    HW182884   8.962   4.893   7.198  1.6506 -1.6563 -1.5075
26877SOL    HW282885   9.094   4.830   7.238  1.5915  0.3350  2.2035
26878SOL     OW82886   2.306   2.963   6.917 -0.3065 -0.3275 -0.2034
26878SOL    HW182887   2.213   2.963   6.940 -0.1359  0.5315  0.5510
26878SOL    HW282888   2.350   2.996   6.996  0.6224 -0.6040 -0.5965
26879SOL     OW82889   0.700   0.613   7.583  0.1301 -0.4074 -0.2912
26879SOL    HW182890   0.765   0.666   7.537 -0.4768  0.6836  0.0568
26879SOL    HW282891   0.742   0.590   7.666  0.0488  0.3807 -0.0229
26880SOL     OW82892   7.147   4.910   1.783 -0.2808  0.3820 -0.0028
26880SOL    HW182893   7.057   4.878   1.782 -0.6870  1.4424 -2.2362
26880SOL    HW282894   7.161   4.946   1.696  2.3484  0.2011  0.2626
26881SOL     OW82895   9.166   6.758   0.759  0.0856  0.5766  0.7901
26881SOL    HW182896   9.220   6.827   0.798 -0.3124  0.1811  2.0971
26881SOL    HW282897   9.226   6.710   0.702  1.4253 -0.4272  2.9037
26882SOL     OW82898   6.995   6.882   0.600  0.0964 -0.2028 -0.5647
26882SOL    HW182899   7.072   6.926   0.565 -0.7995 -0.1101 -2.5495
26882SOL    HW282900   7.029   6.821   0.665  1.4801  2.5491  1.5100
26883SOL     OW82901   1.002   9.001   7.402 -0.0750  0.0376  0.0970
26883SOL    HW182902   0.978   9.038   7.316 -2.2922  0.4701  0.8346
26883SOL    HW282903   1.071   9.059   7.434  1.9191 -1.0016 -1.9784
26884SOL     OW82904   6.728   2.736   1.992  0.4429 -1.2348 -0.1378
26884SOL    HW182905   6.739   2.654   2.039  0.3096 -1.9031 -1.2287
26884SOL    HW282906   6.777   2.723   1.910 -0.4060 -0.6229 -0.7692
26885SOL     OW82907   6.953   9.591   8.318 -0.0594 -0.2952  0.0816
26885SOL    HW182908   6.978   9.544   8.397  0.2294  0.8037  0.6606
26885SOL    HW282909   6.954   9.683   8.343 -1.6660 -0.0160 -0.7379
26886SOL     OW82910   7.363   5.346   5.029  0.2542 -0.5921 -0.6293
26886SOL    HW182911   7.435   5.395   4.990  0.9914 -2.1488 -1.3181
26886SOL    HW282912   7.315   5.309   4.954 -1.7218  0.9727 -0.2200
26887SOL     OW82913   9.586   7.425   6.822  0.1891 -0.0186 -0.1783
26887SOL    HW182914   9.672   7.436   6.863  0.4037 -0.6212 -0.4588
26887SOL    HW282915   9.576   7.331   6.812 -0.6276  0.0337  0.0976
26888SOL     OW82916   1.473   2.717   1.475 -0.0223 -0.1045  0.8319
26888SOL    HW182917   1.501   2.788   1.417  0.6977 -3.0445 -2.7963
26888SOL    HW282918   1.383   2.740   1.499  0.0757  1.8508 -0.4437
26889SOL     OW82919   7.234   6.003   8.232 -0.0003 -0.2581 -0.3709
26889SOL    HW182920   7.263   5.942   8.300  0.0016  2.1390  1.9230
26889SOL    HW282921   7.313   6.051   8.208  0.0792 -1.2964 -2.4490
26890SOL     OW82922  10.261   8.288   0.052 -0.4414  0.1717  0.0666
26890SOL    HW182923  10.190   8.232   0.080 -0.4817  0.7337  1.1322
26890SOL    HW282924  10.223   8.343  -0.016 -0.7411 -0.2162 -0.0822
26891SOL     OW82925   8.474   8.882   9.237 -0.3854  0.1992 -0.5552
26891SOL    HW182926   8.515   8.920   9.315  1.1125  0.9488 -1.6381
26891SOL    HW282927   8.535   8.813   9.210 -0.6857  0.2020 -1.2568
26892SOL     OW82928   0.792   2.710   3.523  1.0480 -0.5280 -0.3060
26892SOL    HW182929   0.744   2.761   3.588  2.7716  1.7055 -0.6618
26892SOL    HW282930   0.786   2.762   3.442  0.8426 -2.1208 -1.3600
26893SOL     OW82931   2.155   2.185   7.356 -0.2358  0.0351  0.7614
26893SOL    HW182932   2.135   2.226   7.440  0.8921 -1.3971  1.7578
26893SOL    HW282933   2.186   2.098   7.378 -0.0386 -0.4215 -1.1639
26894SOL     OW82934   5.433   6.864   2.036  0.1469  0.6528  0.0977
26894SOL    HW182935   5.439   6.890   2.128 -0.0053  1.4260 -0.0990
26894SOL    HW282936   5.367   6.795   2.035  1.3569 -0.5577  0.7938
26895SOL     OW82937   9.287   8.124   0.863 -0.1552 -0.8467 -0.1376
26895SOL    HW182938   9.209   8.084   0.902  0.1327 -0.0440  1.3480
26895SOL    HW282939   9.277   8.218   0.880  1.0171 -0.7062 -0.1406
26896SOL     OW82940   5.974   9.204   2.493 -0.3150 -0.0111 -0.5058
26896SOL    HW182941   6.011   9.284   2.530 -0.3576  0.5655 -1.6779
26896SOL    HW282942   5.940   9.156   2.569  0.5958  0.6074  0.3159
26897SOL     OW82943   8.255   3.272   6.618  0.3514  0.4131 -0.2034
26897SOL    HW182944   8.282   3.286   6.527  1.2088  0.7263  0.0895
26897SOL    HW282945   8.305   3.195   6.646  1.0619  1.0709  0.3835
26898SOL     OW82946   2.953  10.618   6.224 -0.7160 -0.4423  0.4313
26898SOL    HW182947   2.899  10.564   6.168 -0.4252 -1.1403  0.8120
26898SOL    HW282948   2.957  10.703   6.179 -2.0584 -0.3873  0.3648
26899SOL     OW82949   2.166   6.695   6.045 -0.4982  0.7052 -0.2594
26899SOL    HW182950   2.109   6.743   5.985 -1.7736 -1.3035 -0.7738
26899SOL    HW282951   2.185   6.613   5.999  2.1613  0.9524  0.2654
26900SOL     OW82952   1.201   1.174   6.635  0.3503  0.0181 -1.2045
26900SOL    HW182953   1.252   1.115   6.579 -0.2245 -1.8215  0.0891
26900SOL    HW282954   1.244   1.167   6.721 -0.8268  0.0441 -0.5992
26901SOL     OW82955   8.139   3.324   5.168  0.3220 -0.6068  0.0602
26901SOL    HW182956   8.077   3.325   5.095  2.0582 -0.3587 -1.4522
26901SOL    HW282957   8.221   3.291   5.131  0.9434 -1.6274  2.1807
26902SOL     OW82958   4.770   4.893   4.094  0.1681  0.1312  0.0501
26902SOL    HW182959   4.830   4.924   4.026  0.6577  0.3640  0.5827
26902SOL    HW282960   4.809   4.812   4.126 -1.0421 -0.9945 -1.2435
26903SOL     OW82961   5.908   9.954   1.781 -0.3837  0.0061 -0.2420
26903SOL    HW182962   5.935   9.882   1.838  0.4312  0.7370  0.3206
26903SOL    HW282963   5.900  10.029   1.840  0.6471  0.8207 -1.1019
26904SOL     OW82964   7.301   6.942   8.103 -0.5394 -0.2277  0.0284
26904SOL    HW182965   7.228   6.910   8.051 -0.1581 -2.4069  0.7608
26904SOL    HW282966   7.307   6.882   8.177  2.6298 -0.7679 -0.5243
26905SOL     OW82967   8.817   6.263  10.004  0.0212 -0.2968 -0.0559
26905SOL    HW182968   8.744   6.201  10.010  0.1900 -0.5608 -0.6132
26905SOL    HW282969   8.895   6.210  10.022  0.1807 -0.2919 -0.7103
26906SOL     OW82970   2.780   0.735   9.720  0.1527 -0.6764 -0.0343
26906SOL    HW182971   2.760   0.740   9.627 -2.2534  1.0896  0.4757
26906SOL    HW282972   2.851   0.798   9.733  0.0304 -0.4283 -0.5536
26907SOL     OW82973   8.049   7.056   3.729  0.5346  0.5716 -0.1290
26907SOL    HW182974   8.104   7.095   3.661  0.3758  1.7090  0.3763
26907SOL    HW282975   8.091   7.081   3.811  0.6436 -0.6700  0.2083
26908SOL     OW82976   9.969   2.262   3.275 -0.1591  0.1516 -0.1642
26908SOL    HW182977   9.989   2.356   3.271 -3.7440  1.0043 -1.7523
26908SOL    HW282978   9.958   2.236   3.184 -0.6031 -1.4793  0.3195
26909SOL     OW82979   1.978   2.357   2.493  0.1062  0.4563 -0.0308
26909SOL    HW182980   1.897   2.305   2.491 -0.0222  0.4371  2.3551
26909SOL    HW282981   2.047   2.295   2.470 -0.1647 -0.5781  1.7833
26910SOL     OW82982   0.289   7.518   6.090  0.3652  0.1124 -0.2727
26910SOL    HW182983   0.315   7.598   6.135 -2.7641  0.4614  1.1616
26910SOL    HW282984   0.309   7.448   6.152  0.1632  0.1043 -0.2190
26911SOL     OW82985   5.447   3.026   9.325 -0.1899  0.5383 -0.2112
26911SOL    HW182986   5.446   3.121   9.324 -0.1056  0.5661 -1.9365
26911SOL    HW282987   5.463   3.002   9.233  0.6652 -1.1219  0.3386
26912SOL     OW82988   0.864   5.898  10.614  0.9408  0.4470  0.2330
26912SOL    HW182989   0.875   5.943  10.698  0.0985  0.1347  0.5183
26912SOL    HW282990   0.805   5.825  10.633  0.3528  0.6592 -0.7322
26913SOL     OW82991   8.131   7.013   0.050 -0.4685  0.5283  0.7379
26913SOL    HW182992   8.195   6.942   0.064  0.4017  1.1356 -0.0257
26913SOL    HW282993   8.046   6.969   0.047  0.0438 -0.4642  0.4353
26914SOL     OW82994   6.302   9.883   9.894 -0.2361 -0.4496 -0.3944
26914SOL    HW182995   6.362   9.820   9.854 -0.9870 -1.2992 -0.2150
26914SOL    HW282996   6.335   9.893   9.984  1.5862  1.6325 -1.1997
26915SOL     OW82997   5.652   8.575   6.503  0.4413 -0.5063  0.6432
26915SOL    HW182998   5.736   8.606   6.471  0.5823 -2.0378 -0.6595
26915SOL    HW282999   5.669   8.544   6.592  1.3473 -1.0769  0.2881
26916SOL     OW83000   2.364   0.162   0.747 -0.5122 -0.4117  0.1497
26916SOL    HW183001   2.269   0.161   0.752 -0.4724  0.3059  1.7191
26916SOL    HW283002   2.393   0.121   0.829  0.5174  0.4639  0.2436
26917SOL     OW83003   6.587  10.575   6.711 -0.1199  0.1588 -0.1835
26917SOL    HW183004   6.527  10.501   6.718 -0.2921  0.3390  0.2950
26917SOL    HW283005   6.531  10.652   6.722  0.2092  0.3264  0.3687
26918SOL     OW83006   4.251   6.432   4.474  0.2860  0.3011 -0.4121
26918SOL    HW183007   4.276   6.504   4.532  0.0298 -0.8780  1.2219
26918SOL    HW283008   4.332   6.382   4.464  0.1502  0.0969 -0.4743
26919SOL     OW83009   0.212   4.476   9.812  0.2324  0.0958  0.0615
26919SOL    HW183010   0.197   4.395   9.861  1.1718  0.2588  0.6577
26919SOL    HW283011   0.173   4.544   9.866  0.4808  0.1690  0.1528
26920SOL     OW83012   0.714   2.786   9.139 -0.0556  0.0651 -0.2681
26920SOL    HW183013   0.799   2.747   9.117 -0.3472 -0.4571 -0.4807
26920SOL    HW283014   0.736   2.872   9.173  0.6189 -0.3448  0.3652
26921SOL     OW83015   3.825   4.403   3.107 -0.6346 -0.4469  0.3420
26921SOL    HW183016   3.898   4.453   3.144  2.5168 -2.2703 -2.8258
26921SOL    HW283017   3.779   4.368   3.184  1.6389  0.9536  2.5071
26922SOL     OW83018   3.278   1.964   2.591 -0.1073 -0.2080 -0.2492
26922SOL    HW183019   3.372   1.970   2.580  0.2655 -1.0796  1.9679
26922SOL    HW283020   3.247   1.919   2.512  1.4100 -0.5796 -0.6625
26923SOL     OW83021   3.269   0.923   2.990  0.3145  0.6049  0.3012
26923SOL    HW183022   3.192   0.962   2.949 -0.3217 -1.2031 -0.3045
26923SOL    HW283023   3.284   0.842   2.942  1.9972  0.4090  1.0720
26924SOL     OW83024   1.908   2.037   9.236 -0.0483 -0.1091 -0.3730
26924SOL    HW183025   1.911   2.095   9.312  0.0962  0.1831 -0.5989
26924SOL    HW283026   1.824   1.992   9.244  0.3002 -0.6566  0.3735
26925SOL     OW83027   4.358   9.566   5.297  0.0308  0.0959  0.4296
26925SOL    HW183028   4.395   9.537   5.381 -0.8900  2.5365  1.7899
26925SOL    HW283029   4.426   9.622   5.260 -0.3315  0.5904  0.5079
26926SOL     OW83030   9.713   3.984   1.505  0.8966 -0.3773  0.6907
26926SOL    HW183031   9.714   3.993   1.410  0.0178  0.3357  0.7266
26926SOL    HW283032   9.782   3.921   1.525  0.3858 -1.3521 -0.5009
26927SOL     OW83033   8.994   0.165   4.385 -0.8512  0.2171 -0.2723
26927SOL    HW183034   8.941   0.132   4.312 -0.7787  0.4001 -0.4073
26927SOL    HW283035   9.080   0.181   4.347 -0.7515  0.1102 -0.0975
26928SOL     OW83036   5.602   9.971   3.640 -0.4064  0.5245 -0.0936
26928SOL    HW183037   5.529   9.976   3.578 -0.7838 -0.6390  0.2456
26928SOL    HW283038   5.582   9.896   3.695  0.7474  0.5624  0.4030
26929SOL     OW83039   3.256   6.939   6.534  0.2640 -0.3083 -0.2074
26929SOL    HW183040   3.239   6.938   6.440 -2.3868  0.2788  0.1927
26929SOL    HW283041   3.319   6.867   6.548  1.1554 -0.0370 -2.4482
26930SOL     OW83042   7.359   0.061   0.843 -1.1314  0.0453 -0.1039
26930SOL    HW183043   7.304   0.133   0.875 -0.8818  0.4848 -0.6651
26930SOL    HW283044   7.402   0.028   0.922 -1.5274  0.2664  0.2133
26931SOL     OW83045   1.044   5.754   3.195  0.7190  0.3006  0.3405
26931SOL    HW183046   1.009   5.666   3.209 -1.6809  1.3562  1.6044
26931SOL    HW283047   0.991   5.789   3.123  3.4014 -0.0806 -2.0068
26932SOL     OW83048   1.690   4.590   0.226  0.0482  0.4426  0.3486
26932SOL    HW183049   1.606   4.544   0.222  0.9947 -1.4124  1.0322
26932SOL    HW283050   1.724   4.585   0.136  0.4387 -0.8148  0.5472
26933SOL     OW83051   4.943   4.334   9.797 -0.4901 -0.4885  0.2773
26933SOL    HW183052   5.020   4.363   9.747 -0.3951 -0.7509  0.2726
26933SOL    HW283053   4.874   4.395   9.771 -0.1834 -0.0053  0.5759
26934SOL     OW83054   8.092   0.048   3.169  0.2538 -0.1710  0.2530
26934SOL    HW183055   8.027  -0.011   3.130 -0.5557  1.1453 -0.4568
26934SOL    HW283056   8.045   0.092   3.240 -0.5745  2.7588 -1.9217
26935SOL     OW83057   9.991   8.896  10.448 -0.3273 -0.3249 -0.4408
26935SOL    HW183058   9.899   8.923  10.451 -0.5415 -0.9784 -0.9317
26935SOL    HW283059  10.014   8.899  10.355  0.2521  0.1511 -0.2922
26936SOL     OW83060   3.172   0.645   9.421 -0.2531 -0.3650  0.5604
26936SOL    HW183061   3.156   0.728   9.466 -2.5817 -1.2256  1.4964
26936SOL    HW283062   3.182   0.581   9.491  1.5473 -0.9319 -0.1496
26937SOL     OW83063   7.022   2.565   5.572 -0.0237 -0.2106 -0.3677
26937SOL    HW183064   6.960   2.613   5.627  2.1281  2.4355 -0.0564
26937SOL    HW283065   7.013   2.604   5.486  0.7048 -0.3023 -0.4908
26938SOL     OW83066   0.276   2.747   1.356  0.2497 -0.8573 -0.3593
26938SOL    HW183067   0.351   2.692   1.379 -0.2360 -0.7505  1.6846
26938SOL    HW283068   0.203   2.685   1.346  0.1507 -0.7740 -0.1597
26939SOL     OW83069   2.621   4.244   8.851 -0.0877 -0.3333  0.4112
26939SOL    HW183070   2.585   4.156   8.841  0.6730 -0.5010 -1.3489
26939SOL    HW283071   2.553   4.302   8.815  0.5413 -0.4891 -1.1254
26940SOL     OW83072  10.378   4.297   2.583  0.0248 -0.1316  0.8106
26940SOL    HW183073  10.428   4.302   2.501 -1.5505  0.3148 -0.1512
26940SOL    HW283074  10.415   4.367   2.638  0.3971  0.2476  0.0914
26941SOL     OW83075   1.200   4.029   6.848  0.7131  0.0763 -0.0780
26941SOL    HW183076   1.116   4.075   6.836 -0.7345 -2.4244 -0.1963
26941SOL    HW283077   1.249   4.085   6.908 -1.6921  0.8925  1.3000
26942SOL     OW83078   4.902   0.389   9.616  0.0093 -0.6524 -0.3666
26942SOL    HW183079   4.904   0.310   9.670  0.5474 -0.1260  0.3853
26942SOL    HW283080   4.928   0.359   9.529 -3.1870 -1.9909 -1.0176
26943SOL     OW83081   5.293   0.636   7.763 -0.2110  0.2322  0.7558
26943SOL    HW183082   5.388   0.633   7.771  0.3223  1.2717 -3.1080
26943SOL    HW283083   5.271   0.729   7.769 -0.2733  0.5684 -2.4891
26944SOL     OW83084   3.351   7.661   8.455 -0.0601  0.4018  0.2891
26944SOL    HW183085   3.260   7.637   8.438 -0.0924  0.7069  0.0319
26944SOL    HW283086   3.360   7.652   8.550 -0.5034  0.8810  0.3822
26945SOL     OW83087   0.266   9.455   8.512  0.4419 -0.2937 -0.2907
26945SOL    HW183088   0.213   9.504   8.449  1.3455  0.8642 -0.1804
26945SOL    HW283089   0.334   9.414   8.458  0.0430 -0.9582 -0.3031
26946SOL     OW83090   9.522   6.098   9.468  0.4484  0.1165 -0.2513
26946SOL    HW183091   9.456   6.079   9.534 -0.2329  0.8579 -0.7034
26946SOL    HW283092   9.605   6.069   9.507 -0.1547 -0.9463  0.2611
26947SOL     OW83093   1.516  10.018   5.136  0.3117  0.8064 -0.2333
26947SOL    HW183094   1.421  10.028   5.127 -0.0902 -1.3272  0.8826
26947SOL    HW283095   1.551  10.038   5.050 -1.0116  2.8166 -0.3561
26948SOL     OW83096   7.627   7.387   7.899 -0.2725 -0.2290  0.3167
26948SOL    HW183097   7.704   7.444   7.897 -1.2758  1.2402  0.8769
26948SOL    HW283098   7.562   7.435   7.848 -0.7155 -1.5989 -0.4199
26949SOL     OW83099   6.393   5.917   4.664  0.0235  0.2253 -0.0058
26949SOL    HW183100   6.367   5.825   4.658  0.2487  0.1771 -0.2564
26949SOL    HW283101   6.476   5.915   4.711  0.2768  0.2550 -0.4457
26950SOL     OW83102  10.387   1.570   9.686  0.1458 -0.1972  0.5076
26950SOL    HW183103  10.340   1.651   9.667  0.0286 -0.1901  0.8142
26950SOL    HW283104  10.472   1.598   9.718 -0.1680 -0.1665  1.3542
26951SOL     OW83105  10.122   1.732   2.218 -0.4560  0.0742 -0.1378
26951SOL    HW183106  10.058   1.727   2.289 -0.4984 -0.8424 -0.2329
26951SOL    HW283107  10.181   1.658   2.234 -1.0513 -0.7602 -1.6159
26952SOL     OW83108   3.122   1.143   5.929  0.4675  0.0407  0.2640
26952SOL    HW183109   3.118   1.237   5.946  1.9747  0.1760  0.0311
26952SOL    HW283110   3.112   1.135   5.834 -1.3121 -0.1928  0.4363
26953SOL     OW83111   6.997   7.472   7.871  0.4788  0.3135  0.2598
26953SOL    HW183112   7.029   7.450   7.783 -1.4984 -0.2346 -0.3739
26953SOL    HW283113   6.998   7.389   7.918  0.1457  0.3211  0.2810
26954SOL     OW83114   8.767  10.345   8.060 -0.2485 -0.4541  0.1991
26954SOL    HW183115   8.716  10.272   8.094  0.3453 -0.2634  1.5995
26954SOL    HW283116   8.833  10.361   8.128 -1.1981  2.2558  0.6199
26955SOL     OW83117   3.115   2.407   5.481  0.6575 -0.0449  0.3957
26955SOL    HW183118   3.112   2.496   5.445  0.3325 -0.2986 -0.2233
26955SOL    HW283119   3.201   2.374   5.455 -1.0453 -1.7512 -4.0142
26956SOL     OW83120   9.966   6.381   1.713  0.2734 -0.0911  0.4539
26956SOL    HW183121   9.936   6.298   1.750  0.3506 -1.0625 -1.4986
26956SOL    HW283122  10.061   6.371   1.708  0.4478  0.7986  1.6971
26957SOL     OW83123   0.744   3.944   6.600  0.3197  0.1089  0.3827
26957SOL    HW183124   0.760   4.036   6.581  1.6782 -0.0665  0.5567
26957SOL    HW283125   0.827   3.912   6.637  0.0787 -1.3036 -0.1994
26958SOL     OW83126   2.678   7.046   7.828  0.4670 -0.7837 -0.3854
26958SOL    HW183127   2.754   7.023   7.775  0.0684 -0.3612 -1.1689
26958SOL    HW283128   2.603   7.019   7.774  0.0657 -1.6742  0.5995
26959SOL     OW83129   4.772   1.516  10.079 -0.0492  0.6403  0.2470
26959SOL    HW183130   4.841   1.575  10.111  0.6469  1.0236 -1.7944
26959SOL    HW283131   4.776   1.441  10.138  2.4076  0.4814  0.0089
26960SOL     OW83132   3.273   4.489   2.599  0.1055 -0.4443  0.3547
26960SOL    HW183133   3.224   4.505   2.679 -0.6753 -0.9139 -0.0080
26960SOL    HW283134   3.205   4.474   2.532  0.7303 -1.8802 -0.0037
26961SOL     OW83135   9.123   7.127   8.475 -0.3920 -0.1290  0.1104
26961SOL    HW183136   9.139   7.083   8.391  2.9785  0.0271  0.5566
26961SOL    HW283137   9.072   7.064   8.526 -0.5915 -1.1253 -1.2549
26962SOL     OW83138   3.392   7.671   1.953  0.0779 -0.1017 -0.3247
26962SOL    HW183139   3.374   7.709   2.039 -0.0789 -0.2804 -0.2799
26962SOL    HW283140   3.473   7.714   1.925 -0.3372  0.6065 -0.4725
26963SOL     OW83141   0.636  10.576   6.267 -0.0637 -0.2948  0.7719
26963SOL    HW183142   0.689  10.496   6.261 -2.5697 -2.0793  0.5198
26963SOL    HW283143   0.656  10.612   6.354  0.2088 -1.9324  1.4232
26964SOL     OW83144   8.239   9.643   5.291  0.1934 -0.3226 -0.4895
26964SOL    HW183145   8.218   9.579   5.224  0.7331 -0.0589 -0.9157
26964SOL    HW283146   8.323   9.680   5.264  0.4236 -0.2200  0.3309
26965SOL     OW83147   5.203   5.540   7.874 -0.0730  0.4991  0.1958
26965SOL    HW183148   5.288   5.575   7.846 -0.2413 -0.4539 -1.6119
26965SOL    HW283149   5.223   5.451   7.903 -0.0617  1.1461  2.3604
26966SOL     OW83150   2.323   2.538   1.997  0.2238  0.3245  0.5632
26966SOL    HW183151   2.335   2.597   1.922 -0.8039  1.4983  1.2814
26966SOL    HW283152   2.351   2.452   1.965  1.8088  1.1772 -0.5174
26967SOL     OW83153   5.767   9.747   7.347 -0.4846 -0.1984 -0.0589
26967SOL    HW183154   5.774   9.741   7.251 -0.0555 -1.9491  0.0382
26967SOL    HW283155   5.805   9.832   7.369  0.9907 -0.4910 -1.3173
26968SOL     OW83156   2.294   1.686   7.304  0.0517 -0.4695  0.2259
26968SOL    HW183157   2.301   1.709   7.396  3.1274  3.5619 -0.7557
26968SOL    HW283158   2.366   1.625   7.288  1.5393  1.3064 -0.0416
26969SOL     OW83159   0.699   3.693   4.255  0.0084  0.1327  0.2159
26969SOL    HW183160   0.641   3.730   4.321 -0.2970 -0.1821  0.1225
26969SOL    HW283161   0.644   3.682   4.178 -0.7571 -3.3927  1.1152
26970SOL     OW83162   7.746   1.905   3.522 -0.1123 -0.2310  0.6401
26970SOL    HW183163   7.667   1.951   3.552 -1.7277 -1.8743 -0.8730
26970SOL    HW283164   7.811   1.923   3.590 -1.9767  0.6060  2.3093
26971SOL     OW83165   1.426   8.264   8.470 -0.3066 -0.1559  0.5349
26971SOL    HW183166   1.386   8.245   8.555 -2.9318 -0.8535 -0.7474
26971SOL    HW283167   1.416   8.184   8.419  0.6192  0.4461 -0.6586
26972SOL     OW83168   6.105   3.701   6.960 -0.1759 -0.0180 -0.2620
26972SOL    HW183169   6.021   3.657   6.943  0.5860 -1.0890 -1.4022
26972SOL    HW283170   6.082   3.775   7.017 -2.0077  0.1327 -1.1169
26973SOL     OW83171   3.780   7.949   7.363 -0.6822 -0.5965  0.0677
26973SOL    HW183172   3.788   7.882   7.431 -0.0452 -0.4420  0.1480
26973SOL    HW283173   3.752   8.027   7.411 -0.7306 -0.6194  0.0766
26974SOL     OW83174   1.265   9.868   7.515  0.1521  0.2665 -0.2586
26974SOL    HW183175   1.180   9.904   7.491  0.5219  0.6293 -1.0527
26974SOL    HW283176   1.259   9.855   7.610  0.1905  2.9185  0.1901
26975SOL     OW83177   3.393   9.559   0.625 -0.2687 -0.0702 -0.0545
26975SOL    HW183178   3.481   9.595   0.626 -0.2594 -0.0620 -0.6582
26975SOL    HW283179   3.368   9.558   0.532  0.0790 -2.4520 -0.1938
26976SOL     OW83180   7.096   8.689   3.943  0.0507  0.0393  0.0763
26976SOL    HW183181   7.056   8.605   3.967 -2.8558  1.4015  0.4938
26976SOL    HW283182   7.100   8.738   4.025  0.7455  0.6849 -0.3322
26977SOL     OW83183   8.544   1.330   6.665 -0.2320 -0.3358  0.1252
26977SOL    HW183184   8.479   1.326   6.596  1.3183 -0.0661 -1.4055
26977SOL    HW283185   8.617   1.275   6.634  0.5530 -0.1203  1.4830
26978SOL     OW83186   3.015   5.467   5.476 -0.5969 -0.3056 -0.2452
26978SOL    HW183187   2.959   5.544   5.486 -0.6419 -0.5957  2.0856
26978SOL    HW283188   3.095   5.488   5.523  0.2779 -0.8832 -1.4056
26979SOL     OW83189   4.976   1.671   3.461  0.5970  0.3208  0.0348
26979SOL    HW183190   4.886   1.686   3.432 -0.3518 -1.5995  1.7402
26979SOL    HW283191   4.989   1.733   3.533 -0.0162 -0.5467  0.9215
26980SOL     OW83192   4.489   4.887   7.125 -0.6608 -0.7089 -0.2104
26980SOL    HW183193   4.497   4.954   7.057  0.8460 -1.3069 -0.6731
26980SOL    HW283194   4.578   4.879   7.162 -0.8930 -2.1212  0.1258
26981SOL     OW83195   7.470   4.942   4.237 -0.1997  0.2117  0.0714
26981SOL    HW183196   7.487   5.028   4.273  1.8653 -0.3315  0.5177
26981SOL    HW283197   7.427   4.894   4.308 -0.9739  0.7330 -0.0396
26982SOL     OW83198   3.800   5.724   7.381 -0.4341  0.4615  0.4054
26982SOL    HW183199   3.883   5.697   7.343 -0.1574  0.2737  1.1148
26982SOL    HW283200   3.807   5.820   7.386 -0.4468  0.4818  0.0474
26983SOL     OW83201   3.404   5.724   8.273 -0.1442  0.4849 -0.2185
26983SOL    HW183202   3.415   5.638   8.313 -0.1396  0.0123 -1.2053
26983SOL    HW283203   3.341   5.769   8.329 -0.5571 -0.3610  0.0098
26984SOL     OW83204   5.127   3.628   7.427 -0.0947  0.2241  0.2072
26984SOL    HW183205   5.209   3.663   7.393  0.6637 -1.5968  0.0426
26984SOL    HW283206   5.153   3.561   7.489 -1.4194 -1.0560 -0.5401
26985SOL     OW83207   9.910   5.085   3.979  0.2232 -0.2328 -0.5938
26985SOL    HW183208   9.965   5.113   3.906  0.6445 -1.7212 -0.8888
26985SOL    HW283209   9.962   5.104   4.057  0.1669  0.4973 -0.7305
26986SOL     OW83210   7.825   7.725   7.167 -0.4092 -0.0236  0.1342
26986SOL    HW183211   7.786   7.809   7.192  0.1517  0.1034  0.6300
26986SOL    HW283212   7.880   7.701   7.242  0.1863 -0.3613 -0.3919
26987SOL     OW83213   1.493  10.431   0.785  0.2891 -0.0038  0.3551
26987SOL    HW183214   1.523  10.414   0.696  0.6943 -0.3336  0.5505
26987SOL    HW283215   1.430  10.362   0.803 -0.2848  0.4452  0.0946
26988SOL     OW83216   7.143   7.550   7.352  0.0789  0.3519  0.3607
26988SOL    HW183217   7.145   7.503   7.269 -0.9380  1.5899 -0.4034
26988SOL    HW283218   7.224   7.601   7.353  0.0354  0.4270  0.0706
26989SOL     OW83219   8.908   7.204   3.422 -0.8186  0.3470  0.3037
26989SOL    HW183220   8.986   7.232   3.471 -0.5987  0.2872 -0.0102
26989SOL    HW283221   8.863   7.145   3.482 -0.0243 -0.5223  0.0744
26990SOL     OW83222   0.004   3.021   7.709 -0.5167 -0.4504 -0.4938
26990SOL    HW183223   0.003   3.117   7.703 -0.5205 -0.4785 -1.0163
26990SOL    HW283224   0.090   3.001   7.746 -1.7350 -0.1044  2.8340
26991SOL     OW83225   8.099   3.210   6.835 -0.2789 -0.7367 -0.0410
26991SOL    HW183226   8.136   3.125   6.859 -0.6055 -0.2440  2.5090
26991SOL    HW283227   8.175   3.269   6.834 -0.4284 -0.4937  1.2704
26992SOL     OW83228   2.174   6.947   0.434  0.0722  0.3092 -0.3330
26992SOL    HW183229   2.251   6.964   0.380  0.0654 -1.6095 -1.0203
26992SOL    HW283230   2.205   6.889   0.503 -0.1815  1.7818  1.0698
26993SOL     OW83231   2.834   2.393   8.166  0.4358 -0.1850 -0.3317
26993SOL    HW183232   2.869   2.365   8.250 -0.6730 -0.3242  0.0986
26993SOL    HW283233   2.766   2.457   8.187  2.1208  2.0408 -1.2572
26994SOL     OW83234   1.600   2.354   5.954 -0.0479 -0.1655  0.7158
26994SOL    HW183235   1.615   2.420   5.886 -1.2362 -0.4138  0.1998
26994SOL    HW283236   1.646   2.388   6.030 -1.8221  2.0165  0.9121
26995SOL     OW83237   4.261   4.823   7.517 -0.4081  0.6019  0.1824
26995SOL    HW183238   4.332   4.883   7.541 -0.4719 -0.0379  2.1858
26995SOL    HW283239   4.183   4.878   7.517 -0.3283  0.7409  1.0518
26996SOL     OW83240   5.254   4.817   3.612  0.1428 -0.1423  0.4347
26996SOL    HW183241   5.342   4.788   3.587 -0.2905 -0.7427 -0.4518
26996SOL    HW283242   5.226   4.872   3.539 -0.0231  0.4813  0.9591
26997SOL     OW83243   2.189   7.592  10.000  0.0750 -0.1535 -0.5975
26997SOL    HW183244   2.094   7.598   9.987 -0.0710  0.9553  0.7956
26997SOL    HW283245   2.226   7.623   9.918 -0.7655 -0.1157 -0.9747
26998SOL     OW83246   2.659   1.044   5.619 -0.3143  0.4642  0.2901
26998SOL    HW183247   2.720   1.046   5.545 -0.0677  2.2382  0.4942
26998SOL    HW283248   2.639   0.952   5.631 -0.5222  0.1403 -2.1117
26999SOL     OW83249   2.537   6.306   4.525  0.0639 -0.7362 -0.5624
26999SOL    HW183250   2.587   6.232   4.561 -0.3076  0.7926  3.7920
26999SOL    HW283251   2.604   6.366   4.493  0.5594 -1.6037 -1.1901
27000SOL     OW83252   6.446  10.097   0.402 -0.1059  0.1602  0.1554
27000SOL    HW183253   6.491  10.101   0.486  0.5202  0.2046 -0.1776
27000SOL    HW283254   6.353  10.102   0.425 -0.0143 -1.3451  0.9516
27001SOL     OW83255   0.523   1.519  10.506 -0.4603 -0.7890 -0.5641
27001SOL    HW183256   0.598   1.481  10.552  2.0478  4.3769  0.3845
27001SOL    HW283257   0.539   1.499  10.413  0.2331 -2.4761 -0.1169
27002SOL     OW83258  10.277   2.675   5.310  0.0548 -0.4832  0.2002
27002SOL    HW183259  10.194   2.709   5.343  1.2752  0.9005  2.0526
27002SOL    HW283260  10.321   2.751   5.272  1.3866 -0.6692  1.2678
27003SOL     OW83261   4.171   6.515   8.334  0.3315 -0.0271 -0.6538
27003SOL    HW183262   4.152   6.492   8.425 -0.1960 -0.0196 -0.7568
27003SOL    HW283263   4.249   6.464   8.311 -0.2306 -0.9470 -0.5697
27004SOL     OW83264   6.364   5.061   5.386 -0.8701 -0.0970 -0.2168
27004SOL    HW183265   6.448   5.052   5.432 -0.8810  2.1422  0.3917
27004SOL    HW283266   6.385   5.108   5.306 -1.5554  0.7463  0.0775
27005SOL     OW83267   6.055   8.379   4.537  0.2210  0.1015 -0.6182
27005SOL    HW183268   6.123   8.319   4.506  0.6660  0.1201  0.2883
27005SOL    HW283269   6.103   8.448   4.582 -0.3447  0.6663 -0.8687
27006SOL     OW83270   9.904   3.850   2.383  0.5651 -0.1686 -0.0359
27006SOL    HW183271   9.816   3.812   2.385  0.5620 -0.2138 -0.7787
27006SOL    HW283272   9.929   3.848   2.290  0.6959  1.3221 -0.0598
27007SOL     OW83273   5.172   7.748   4.165 -0.0151 -0.2060 -0.2774
27007SOL    HW183274   5.118   7.759   4.242  0.3004  1.7640 -0.2814
27007SOL    HW283275   5.110   7.731   4.094 -0.5554  0.8014 -0.0687
27008SOL     OW83276   4.922   9.184   5.450  0.6175 -0.0240 -0.2233
27008SOL    HW183277   4.906   9.278   5.445 -0.2241 -0.1945 -1.0095
27008SOL    HW283278   4.920   9.163   5.543 -0.1003  0.5824 -0.1020
27009SOL     OW83279   3.581   0.472   0.117 -0.0731 -0.5959  0.6812
27009SOL    HW183280   3.668   0.490   0.153  0.7071  2.1980 -2.1590
27009SOL    HW283281   3.598   0.413   0.043 -0.5572 -0.0210  0.1023
27010SOL     OW83282   5.010   0.939  10.108  0.0372  0.3168 -0.0574
27010SOL    HW183283   5.093   0.945  10.156  0.3779 -1.2597 -0.3813
27010SOL    HW283284   5.037   0.928  10.017 -0.4944 -0.5816 -0.1212
27011SOL     OW83285   2.848   9.407   4.801 -0.1974  0.6557  0.1931
27011SOL    HW183286   2.839   9.445   4.889  0.5471  1.5457 -0.0961
27011SOL    HW283287   2.869   9.315   4.817  1.5121  1.1274  1.0181
27012SOL     OW83288   0.611   7.803   5.405 -0.3284  0.0274  0.1418
27012SOL    HW183289   0.543   7.809   5.338  0.2273 -3.3484 -0.9571
27012SOL    HW283290   0.565   7.775   5.484 -0.5917  0.9994  0.3446
27013SOL     OW83291   1.902   4.882   7.853  0.6194  0.3272 -0.0093
27013SOL    HW183292   1.954   4.865   7.774  0.2810  0.1408 -0.1957
27013SOL    HW283293   1.965   4.915   7.917  1.1820 -1.0744  0.1777
27014SOL     OW83294   6.935   9.832   8.906  0.1142  0.1917  0.1329
27014SOL    HW183295   6.960   9.789   8.824 -1.7033  0.0801 -0.4153
27014SOL    HW283296   6.971   9.776   8.975  0.9912 -0.1480 -0.5912
27015SOL     OW83297   9.335   4.045   9.898 -0.2849  0.0229 -0.0656
27015SOL    HW183298   9.364   4.135   9.883  0.3781  0.1433  1.7237
27015SOL    HW283299   9.290   4.048   9.982  0.1234 -1.3959  0.2257
27016SOL     OW83300   9.815   7.226   6.261 -0.1972 -0.0273 -0.1904
27016SOL    HW183301   9.814   7.303   6.205  0.5159  0.4221  0.3911
27016SOL    HW283302   9.800   7.261   6.349 -0.6096 -0.6407 -0.0119
27017SOL     OW83303   7.013   4.054   5.999  0.0766 -0.2208  0.2755
27017SOL    HW183304   7.051   4.115   6.062 -0.4237 -0.0930  0.4540
27017SOL    HW283305   7.087   4.027   5.945  0.3237  0.4676  0.2585
27018SOL     OW83306   3.115   6.645   7.715 -0.1849  0.1905  0.2025
27018SOL    HW183307   3.107   6.734   7.680  0.6266  0.5499  0.8906
27018SOL    HW283308   3.088   6.588   7.642 -1.3703  1.0084 -0.0190
27019SOL     OW83309   6.529   5.202   3.816 -0.5847 -0.3334  0.3072
27019SOL    HW183310   6.523   5.112   3.848  1.3017 -0.8613 -0.6629
27019SOL    HW283311   6.591   5.244   3.876  0.5823 -0.4676 -0.7614
27020SOL     OW83312   6.036   3.458   9.668 -0.2657  0.0597  0.3579
27020SOL    HW183313   5.980   3.419   9.735  0.6153  1.2931  1.8654
27020SOL    HW283314   6.092   3.519   9.716  2.6527 -1.3574 -0.9674
27021SOL     OW83315   7.571   9.766   5.635 -0.1337 -0.9633  0.2034
27021SOL    HW183316   7.649   9.724   5.672  0.3246 -1.6636 -1.4589
27021SOL    HW283317   7.520   9.793   5.711  1.2987 -1.2982  1.3310
27022SOL     OW83318   1.446   8.175   3.514  0.4088 -0.2824  0.1930
27022SOL    HW183319   1.368   8.119   3.509  0.3546 -0.2305  0.4465
27022SOL    HW283320   1.478   8.162   3.604 -0.0503  0.7036  0.5071
27023SOL     OW83321   8.691   5.334   6.167 -0.1201 -0.6299  0.0216
27023SOL    HW183322   8.715   5.272   6.236 -1.4648  0.5886  1.6858
27023SOL    HW283323   8.597   5.321   6.154  0.1492 -1.0464 -1.8734
27024SOL     OW83324   9.593   9.488   4.164 -0.4834  0.2512  0.9149
27024SOL    HW183325   9.596   9.573   4.207 -0.7530  0.6324  0.1910
27024SOL    HW283326   9.526   9.498   4.096  1.2555  0.2693 -0.8976
27025SOL     OW83327   4.077   2.758   8.938  0.1436 -0.5626 -0.0240
27025SOL    HW183328   4.110   2.689   8.996  0.7649  0.3420  0.7133
27025SOL    HW283329   4.149   2.820   8.931 -0.8183  0.6268  0.2816
27026SOL     OW83330   8.184   3.162  10.639  0.2318  0.2112  0.8562
27026SOL    HW183331   8.226   3.198  10.717  1.3689  0.2829  0.2244
27026SOL    HW283332   8.166   3.238  10.584  0.4127  0.0612  0.5866
27027SOL     OW83333   6.113   0.298   5.756 -0.5007  0.3396 -0.1839
27027SOL    HW183334   6.139   0.236   5.823  1.1019  1.1756  0.0261
27027SOL    HW283335   6.067   0.367   5.803 -0.7524  0.1631 -0.1710
27028SOL     OW83336   1.798   1.485   2.988  0.4313  0.1913 -0.1417
27028SOL    HW183337   1.874   1.476   2.931  0.8551 -1.2296  0.5893
27028SOL    HW283338   1.723   1.475   2.930  0.8334 -3.5368 -0.2921
27029SOL     OW83339   6.183   2.880   9.859  0.3447  0.5367 -0.8592
27029SOL    HW183340   6.278   2.873   9.851  0.5088 -0.2040  1.1012
27029SOL    HW283341   6.148   2.816   9.797  1.0848  1.1276 -1.9198
27030SOL     OW83342   1.097   0.670  10.547 -0.1248  0.3530 -0.1152
27030SOL    HW183343   1.008   0.680  10.582 -0.3207 -0.9001 -0.2037
27030SOL    HW283344   1.106   0.740  10.483 -1.0218  0.5601 -0.0257
27031SOL     OW83345   1.467   7.737   2.381  0.3064  0.3342 -0.2272
27031SOL    HW183346   1.560   7.738   2.362  0.4879 -0.0155  0.5738
27031SOL    HW283347   1.433   7.817   2.342  1.0058  0.6467 -0.2038
27032SOL     OW83348   8.147   2.754   4.467 -0.0850  0.2002 -0.0392
27032SOL    HW183349   8.178   2.675   4.424 -0.1932  0.0066  0.2329
27032SOL    HW283350   8.137   2.818   4.397 -1.8602 -0.5968 -0.5598
27033SOL     OW83351   2.196   3.769   9.401  0.0906  0.5609 -0.3674
27033SOL    HW183352   2.228   3.681   9.381 -0.0849  0.6696 -1.1896
27033SOL    HW283353   2.168   3.765   9.492 -1.5101 -0.7443 -0.8614
27034SOL     OW83354   5.178   4.356   7.596 -0.2743 -0.7623  0.5875
27034SOL    HW183355   5.138   4.387   7.677 -0.5371 -2.0115  0.9594
27034SOL    HW283356   5.156   4.263   7.592  1.8226 -1.3114  0.3559
27035SOL     OW83357   5.158   4.120   5.288  0.2724 -0.1458  0.1815
27035SOL    HW183358   5.147   4.212   5.263  0.6001 -0.0871  0.2541
27035SOL    HW283359   5.070   4.082   5.277  0.1116  0.1983  0.2499
27036SOL     OW83360   7.834   3.484   7.050  0.2705 -0.6551  0.3938
27036SOL    HW183361   7.792   3.405   7.014  0.0567 -0.5417  0.3924
27036SOL    HW283362   7.905   3.503   6.988 -2.8564  2.2532 -2.7900
27037SOL     OW83363   8.009   3.160   2.897 -0.1043 -0.4115 -0.3877
27037SOL    HW183364   8.066   3.217   2.949 -2.0645  0.3997  1.0178
27037SOL    HW283365   8.001   3.204   2.812 -1.5939  1.5607  0.6752
27038SOL     OW83366  10.363   2.405   6.482  0.2181 -0.6337  0.4588
27038SOL    HW183367  10.302   2.373   6.416  0.7236 -0.1053 -0.2875
27038SOL    HW283368  10.356   2.342   6.554  0.0125 -1.4999 -0.2990
27039SOL     OW83369  10.593   8.669   2.599  0.3916  0.5364  0.1462
27039SOL    HW183370  10.635   8.716   2.671 -1.3649  1.7991  0.4155
27039SOL    HW283371  10.569   8.584   2.637  3.1750 -0.5331 -0.2141
27040SOL     OW83372   4.889   2.991   8.705  0.0572  0.2838 -0.1914
27040SOL    HW183373   4.984   3.006   8.706  0.0219  0.8948  2.3828
27040SOL    HW283374   4.853   3.067   8.660  0.8136 -0.5836 -2.3606
27041SOL     OW83375   8.509   5.723   9.108 -0.0811  0.7013 -0.4032
27041SOL    HW183376   8.440   5.789   9.101 -0.8602 -0.0626 -0.0158
27041SOL    HW283377   8.477   5.661   9.172  0.1777 -0.6212 -1.5042
27042SOL     OW83378   8.808   8.581   6.057  0.0780  0.0913  0.1156
27042SOL    HW183379   8.796   8.591   6.151 -1.0003 -0.5370  0.0647
27042SOL    HW283380   8.828   8.669   6.026  0.6871  0.2603  0.9539
27043SOL     OW83381  10.398   4.083   5.461  0.7859 -0.0916  0.3233
27043SOL    HW183382  10.384   4.177   5.464  0.1592 -0.1341 -0.7549
27043SOL    HW283383  10.466   4.070   5.395  0.3550 -0.4379 -0.0589
27044SOL     OW83384   9.939   8.754   3.819 -0.1571  0.4746  0.4480
27044SOL    HW183385   9.999   8.817   3.780  1.6402  0.0552  2.3188
27044SOL    HW283386   9.899   8.709   3.745  0.7020  1.7959 -0.8806
27045SOL     OW83387   0.252  10.445   6.011  0.2195  0.5032  0.0739
27045SOL    HW183388   0.173  10.411   5.969 -0.6868  2.8970 -0.3403
27045SOL    HW283389   0.278  10.377   6.072  0.8601 -2.6350 -3.3317
27046SOL     OW83390   6.325   9.430   8.450 -0.4158  0.1851  0.1584
27046SOL    HW183391   6.383   9.368   8.407 -1.2041 -1.0931  0.8841
27046SOL    HW283392   6.382   9.503   8.475  0.7498 -0.7502  0.2982
27047SOL     OW83393   0.925   7.353   8.266  0.0102 -0.0750  0.5234
27047SOL    HW183394   0.855   7.288   8.271 -0.8609  0.2946 -3.4402
27047SOL    HW283395   0.885   7.433   8.300 -0.3382 -0.5966  1.3887
27048SOL     OW83396   5.762   6.036   7.647 -0.3316  0.0971  1.2161
27048SOL    HW183397   5.697   6.099   7.679 -2.2276 -0.9734 -0.2886
27048SOL    HW283398   5.758   5.963   7.709  0.1690  0.4489  1.6682
27049SOL     OW83399   6.527   2.851   1.820 -0.2852 -0.4105  0.7216
27049SOL    HW183400   6.543   2.767   1.862 -1.4891 -0.8664  0.3051
27049SOL    HW283401   6.593   2.855   1.750 -0.6000 -1.2985  0.3540
27050SOL     OW83402   2.466   7.708   2.219  0.1607  0.4116  0.1158
27050SOL    HW183403   2.446   7.722   2.312 -0.2998  0.5588 -0.0024
27050SOL    HW283404   2.539   7.767   2.201  0.0436  0.6185  0.3061
27051SOL     OW83405   7.759   2.339   2.906 -0.1852 -0.3752  0.0526
27051SOL    HW183406   7.824   2.380   2.963  2.1330 -0.7123 -2.1840
27051SOL    HW283407   7.773   2.379   2.820 -0.5332 -2.9407 -1.3105
27052SOL     OW83408   6.456   5.765   1.323  0.7028  0.4731  0.3257
27052SOL    HW183409   6.434   5.706   1.395 -1.3152  2.1439  1.2164
27052SOL    HW283410   6.401   5.736   1.250  0.8084  0.3410  0.3002
27053SOL     OW83411   5.604   7.758   4.194  0.2090 -0.6895 -0.0304
27053SOL    HW183412   5.673   7.692   4.193  0.8921 -0.0401  1.2994
27053SOL    HW283413   5.648   7.840   4.175 -0.0777 -0.2003  1.2912
27054SOL     OW83414   2.562   1.215   1.049 -0.2519 -0.2851 -0.1533
27054SOL    HW183415   2.529   1.305   1.051 -2.3683 -0.9692  2.7171
27054SOL    HW283416   2.654   1.222   1.076 -0.1775  1.0478 -0.7031
27055SOL     OW83417   1.581  10.422   3.141  0.4631  0.7560 -0.4131
27055SOL    HW183418   1.622  10.342   3.174 -1.6130 -0.3660 -0.4007
27055SOL    HW283419   1.490  10.398   3.125 -0.2393  3.1212 -0.4121
27056SOL     OW83420   2.053   8.367   1.844  0.4904  0.0427  0.1249
27056SOL    HW183421   1.968   8.412   1.844  0.7229  0.5365 -1.3884
27056SOL    HW283422   2.117   8.437   1.843  0.8630 -0.2774 -1.8587
27057SOL     OW83423   5.795   6.771   4.408  0.3662 -0.4419 -0.3385
27057SOL    HW183424   5.871   6.714   4.416  2.0752  1.6818 -0.5598
27057SOL    HW283425   5.790   6.793   4.315  0.4709  0.6961 -0.0897
27058SOL     OW83426   3.068   7.801   5.676 -0.2049  0.7766 -0.6206
27058SOL    HW183427   3.104   7.888   5.693  0.5399  0.1477  1.2857
27058SOL    HW283428   2.974   7.812   5.684 -0.0519  1.1958  0.8708
27059SOL     OW83429   9.471   8.536   2.337  0.2389  0.3067 -0.3660
27059SOL    HW183430   9.539   8.523   2.403  0.3850  1.3589 -0.2956
27059SOL    HW283431   9.508   8.601   2.277 -1.3377  2.1849  0.6037
27060SOL     OW83432   6.597   9.303   7.257  0.1201  0.8340 -0.3143
27060SOL    HW183433   6.631   9.235   7.199  0.7853  0.5817  0.3504
27060SOL    HW283434   6.544   9.359   7.201  0.8813  0.6912 -1.1917
27061SOL     OW83435   5.013   8.201   5.518  0.3012 -0.6977 -0.3611
27061SOL    HW183436   4.977   8.289   5.528  0.0753 -0.2725 -3.7460
27061SOL    HW283437   5.089   8.199   5.577  0.2388  1.7259 -0.1190
27062SOL     OW83438   2.226   0.131   2.173  0.2379  0.4667  0.1691
27062SOL    HW183439   2.234   0.040   2.200 -0.9436 -0.1673 -1.4605
27062SOL    HW283440   2.136   0.139   2.142  0.0838  2.4169  1.0007
27063SOL     OW83441   5.747   2.943   7.519 -0.8340  0.6830 -0.3445
27063SOL    HW183442   5.837   2.972   7.506 -0.4160 -0.7018 -0.7521
27063SOL    HW283443   5.729   2.888   7.442 -1.7642  0.3474  0.1029
27064SOL     OW83444   0.167   7.142   8.019 -0.3605 -0.0952  0.1506
27064SOL    HW183445   0.134   7.183   8.099  0.0936 -0.0291  0.3097
27064SOL    HW283446   0.198   7.056   8.048  0.6317  0.2720  0.2255
27065SOL     OW83447   3.592   4.036   9.980  0.3907 -0.0657 -0.1333
27065SOL    HW183448   3.584   4.126   9.949 -0.5836 -0.0148  0.2392
27065SOL    HW283449   3.682   4.030  10.012 -0.5864  1.9923  3.5140
27066SOL     OW83450   4.175   8.754   7.523  0.0203  0.0621  0.2145
27066SOL    HW183451   4.179   8.689   7.453 -0.7709 -0.7382  0.8868
27066SOL    HW283452   4.090   8.797   7.511  0.7923  1.4544 -0.6087
27067SOL     OW83453   1.882   1.872   1.351  0.4627 -0.5034  0.7714
27067SOL    HW183454   1.827   1.950   1.350  1.0093 -0.0848  1.5858
27067SOL    HW283455   1.820   1.799   1.353 -0.0587 -0.1304 -0.5718
27068SOL     OW83456   9.486   2.720   1.705 -0.2867 -0.1934  0.1787
27068SOL    HW183457   9.545   2.714   1.630  0.0193  0.1588  0.3854
27068SOL    HW283458   9.448   2.633   1.713  0.2797 -0.4559  0.0996
27069SOL     OW83459   5.721   9.033   3.281  0.4400 -0.1668  0.5791
27069SOL    HW183460   5.769   8.968   3.230  0.5017  0.2592  0.0752
27069SOL    HW283461   5.662   8.983   3.336 -1.3004 -0.6266 -1.5587
27070SOL     OW83462   3.852  10.617   7.254 -0.7582  0.2793 -0.1510
27070SOL    HW183463   3.893  10.689   7.204 -2.0816  0.7776 -0.5514
27070SOL    HW283464   3.924  10.582   7.307  0.2716  0.9090 -1.0707
27071SOL     OW83465   4.834  10.651   4.356  0.0082  0.0333  0.2693
27071SOL    HW183466   4.923  10.665   4.325 -0.2657  0.1725 -0.4712
27071SOL    HW283467   4.824  10.556   4.360 -0.5390 -0.0372 -1.8511
27072SOL     OW83468   9.414   2.498   2.097  0.2828 -0.0216  0.2918
27072SOL    HW183469   9.448   2.413   2.068 -0.2564 -0.6812  1.4816
27072SOL    HW283470   9.384   2.481   2.187  0.5566  1.5443  0.6962
27073SOL     OW83471   8.358   6.352  10.652 -0.0448 -0.3034  0.0468
27073SOL    HW183472   8.433   6.390  10.605 -0.8577  0.9251 -0.2989
27073SOL    HW283473   8.359   6.396  10.737  0.9304 -1.9253  0.9297
27074SOL     OW83474   9.979   5.448   2.539  0.7769 -0.3466  0.0766
27074SOL    HW183475  10.031   5.494   2.474 -1.4748  2.1638 -0.0909
27074SOL    HW283476   9.991   5.498   2.619 -1.5108  0.4757 -0.0336
27075SOL     OW83477   7.367   1.835   2.001 -0.4091  0.1134 -0.4726
27075SOL    HW183478   7.350   1.752   2.045 -0.2982  0.4128  0.1444
27075SOL    HW283479   7.330   1.824   1.914  1.3203 -1.3050 -1.0901
27076SOL     OW83480   0.343   6.856   9.244  0.8798  0.1811 -0.4252
27076SOL    HW183481   0.402   6.852   9.320  0.1273 -0.8683  0.1329
27076SOL    HW283482   0.399   6.885   9.172  1.8485  0.2095  0.3089
27077SOL     OW83483  10.539   0.962   2.355 -0.2120 -0.2116  0.1954
27077SOL    HW183484  10.613   0.968   2.416  0.1507  0.7860 -0.3206
27077SOL    HW283485  10.466   0.930   2.409  0.2362  0.1374  1.0346
27078SOL     OW83486   3.216   4.465   8.378 -0.7011 -0.1574  0.2165
27078SOL    HW183487   3.184   4.457   8.288  0.1247  0.8329 -0.1809
27078SOL    HW283488   3.143   4.504   8.426 -1.2101 -0.8537  0.0358
27079SOL     OW83489   3.284  10.302   3.035 -0.1482  0.3492  0.4267
27079SOL    HW183490   3.361  10.351   3.006 -1.2532  2.0890  0.2396
27079SOL    HW283491   3.214  10.332   2.976 -1.1904 -0.4061  1.2429
27080SOL     OW83492   9.589   0.640  10.590 -0.1645  0.3841 -0.2085
27080SOL    HW183493   9.632   0.723  10.568 -0.6771  0.8867  0.6274
27080SOL    HW283494   9.638   0.574  10.541  2.6171  0.7027  1.8930
27081SOL     OW83495   7.165   4.785   4.334 -0.2341 -1.1009 -0.2967
27081SOL    HW183496   7.231   4.757   4.398 -0.0608 -2.6199 -1.1029
27081SOL    HW283497   7.159   4.880   4.346  1.5695 -1.0259  0.2871
27082SOL     OW83498   3.517   9.299   3.165  0.3228 -0.7981  0.2661
27082SOL    HW183499   3.426   9.291   3.195  0.3489 -2.9278 -0.0553
27082SOL    HW283500   3.510   9.306   3.070  0.5231 -2.6649  0.0895
27083SOL     OW83501   7.864  10.351   0.854 -0.0416  0.2847  0.0129
27083SOL    HW183502   7.815  10.366   0.935  1.4336  2.0423  0.6468
27083SOL    HW283503   7.946  10.311   0.882  0.1494  0.1567 -0.7089
27084SOL     OW83504   5.262   1.805   7.376 -0.5170 -0.9939 -0.4635
27084SOL    HW183505   5.218   1.815   7.292 -3.2710 -2.6887  0.6538
27084SOL    HW283506   5.200   1.839   7.441  2.1533  1.7994  0.9282
27085SOL     OW83507  10.146   5.264   4.496  0.6220 -0.1365 -0.0371
27085SOL    HW183508  10.190   5.194   4.447 -0.4455 -0.3504 -0.7190
27085SOL    HW283509  10.170   5.344   4.449  1.8610 -0.0069  0.7559
27086SOL     OW83510   0.230   0.409   7.693 -0.3915  0.0135 -0.2512
27086SOL    HW183511   0.214   0.372   7.606  0.1212  1.9640 -1.2258
27086SOL    HW283512   0.318   0.378   7.716 -0.5927 -0.6473 -0.3342
27087SOL     OW83513   9.257  10.298   1.974 -0.5407  0.9134  0.2350
27087SOL    HW183514   9.276  10.333   2.061 -1.4641  0.0437  0.7953
27087SOL    HW283515   9.162  10.286   1.972 -0.4098 -0.2068 -0.4573
27088SOL     OW83516   9.384  10.172   5.473 -0.7135  0.0868 -0.0164
27088SOL    HW183517   9.473  10.146   5.450 -0.7007 -0.1829  0.3225
27088SOL    HW283518   9.328  10.102   5.439 -0.8265  0.3985 -0.4863
27089SOL     OW83519   4.766   1.774   3.270 -0.1725 -0.1660 -0.8238
27089SOL    HW183520   4.692   1.721   3.299 -1.2645  1.7621  0.1146
27089SOL    HW283521   4.753   1.782   3.175  0.5185 -2.2187 -1.1543
27090SOL     OW83522   1.967   2.985   9.426  0.0216  0.4685 -0.0760
27090SOL    HW183523   1.966   3.079   9.443 -2.5922  0.4778  0.1508
27090SOL    HW283524   1.919   2.946   9.500  0.1114 -0.9135 -0.7084
27091SOL     OW83525   4.821   0.021   1.619 -0.0370  0.0919  0.1417
27091SOL    HW183526   4.854  -0.023   1.698 -0.8825 -1.7051 -0.4463
27091SOL    HW283527   4.850   0.112   1.628 -2.1128  0.6179  3.7105
27092SOL     OW83528   9.159   8.898   7.294  0.3782  0.2412 -0.5460
27092SOL    HW183529   9.121   8.852   7.368 -0.0619  1.2300 -0.1346
27092SOL    HW283530   9.213   8.833   7.249  0.3385 -0.4678  0.4198
27093SOL     OW83531   8.695   5.287   8.664 -0.4541 -0.0780  0.0866
27093SOL    HW183532   8.614   5.321   8.628 -1.0077 -1.4726 -0.0698
27093SOL    HW283533   8.764   5.317   8.604 -1.1908 -1.1823 -1.3715
27094SOL     OW83534   3.156   4.446   7.102  0.2124  0.5675  0.1293
27094SOL    HW183535   3.151   4.371   7.161 -0.6195  0.6782  0.2178
27094SOL    HW283536   3.065   4.468   7.084  0.4626  0.5283 -1.2257
27095SOL     OW83537   7.689   4.420   8.522  0.0475  0.3439 -0.4254
27095SOL    HW183538   7.618   4.475   8.555 -0.4036  0.4045 -1.4603
27095SOL    HW283539   7.765   4.445   8.575 -0.3723  1.2921 -0.2464
27096SOL     OW83540   9.548   8.752   6.476  0.4834  0.8980  0.2354
27096SOL    HW183541   9.564   8.840   6.512 -1.5975  0.8998  1.2972
27096SOL    HW283542   9.518   8.768   6.387  1.1388  1.1875  0.0589
27097SOL     OW83543   9.925   8.499   1.656  0.4152 -0.0494 -1.0815
27097SOL    HW183544   9.963   8.587   1.661 -2.5371  1.3217  0.3621
27097SOL    HW283545   9.990   8.442   1.698  1.2487  1.9594  0.5603
27098SOL     OW83546   9.510   6.951   1.751  0.1170  0.8394  0.2759
27098SOL    HW183547   9.462   6.947   1.834  0.0948 -1.0432  0.2255
27098SOL    HW283548   9.444   6.933   1.684  0.6307 -0.5763  0.1155
27099SOL     OW83549   6.661   8.878   7.478 -0.0723 -0.3850 -0.1762
27099SOL    HW183550   6.664   8.783   7.469 -2.8847 -0.8351  2.1660
27099SOL    HW283551   6.568   8.900   7.475  0.4775  2.2667 -0.2203
27100SOL     OW83552   1.892   6.125   6.465 -0.1730  0.3299  0.0806
27100SOL    HW183553   1.806   6.123   6.507 -0.9115  0.0941 -1.3580
27100SOL    HW283554   1.938   6.049   6.501 -1.0105 -0.2309  0.0153
27101SOL     OW83555   9.111   7.185   7.579 -0.1711 -0.4517 -0.0294
27101SOL    HW183556   9.034   7.230   7.546  0.2213 -0.4152 -0.9190
27101SOL    HW283557   9.175   7.254   7.595  0.6448 -0.6782 -1.9705
27102SOL     OW83558   9.664  10.558   0.568  0.2823 -0.5438  0.0965
27102SOL    HW183559   9.605  10.623   0.607  1.1802 -0.1132  0.7802
27102SOL    HW283560   9.611  10.478   0.563 -0.2896 -0.2344  0.9071
27103SOL     OW83561   7.602   9.331   3.013  0.1537  0.0328 -0.5477
27103SOL    HW183562   7.634   9.241   3.006  0.8065  0.2636 -0.5621
27103SOL    HW283563   7.540   9.340   2.941  0.0807 -0.4071 -0.5406
27104SOL     OW83564   5.105   8.426   6.382  0.4287 -0.4064 -0.0214
27104SOL    HW183565   5.018   8.413   6.420  0.6383 -1.5325  0.1315
27104SOL    HW283566   5.116   8.352   6.322  0.7261  0.5001 -1.1213
27105SOL     OW83567   7.914   2.382   8.526 -0.4047  0.3872 -0.2039
27105SOL    HW183568   7.965   2.455   8.493 -1.8573  0.7226 -1.9115
27105SOL    HW283569   7.889   2.333   8.447 -2.0802 -0.1515  0.6055
27106SOL     OW83570   5.363  10.598   3.395 -0.4047 -0.6281  0.5834
27106SOL    HW183571   5.367  10.624   3.487 -3.0062  0.0449  0.5816
27106SOL    HW283572   5.408  10.668   3.348 -0.4508 -0.1570  1.2278
27107SOL     OW83573   3.793   0.862   2.100  1.0465  0.0465 -0.1208
27107SOL    HW183574   3.878   0.856   2.057  1.3527  0.4164  0.4217
27107SOL    HW283575   3.798   0.941   2.153  1.1777 -1.0626  1.6383
27108SOL     OW83576   1.218   6.268   5.234 -0.2888  0.1828 -0.1553
27108SOL    HW183577   1.301   6.221   5.238 -0.1653  0.4202  0.1438
27108SOL    HW283578   1.241   6.353   5.196 -0.3652  0.3165  0.1009
27109SOL     OW83579   8.432   0.327   0.066  0.1050  0.2834 -0.2665
27109SOL    HW183580   8.364   0.314   0.132 -2.3071  1.6513 -2.3125
27109SOL    HW283581   8.403   0.404   0.016  1.4880 -0.9581 -3.2434
27110SOL     OW83582   0.189   6.343   1.781  0.2101  0.0552 -0.6117
27110SOL    HW183583   0.263   6.361   1.723  1.7157  0.9759  1.4681
27110SOL    HW283584   0.226   6.291   1.852 -1.4850 -0.7372 -0.2630
27111SOL     OW83585   7.126   1.260   8.497 -0.3380 -0.2274  0.2840
27111SOL    HW183586   7.170   1.286   8.578 -1.0973  0.9747  0.3483
27111SOL    HW283587   7.073   1.336   8.474  0.0009 -0.4744 -1.4566
27112SOL     OW83588   2.163   0.736   6.082  0.8076  0.0606  0.9186
27112SOL    HW183589   2.242   0.700   6.041  1.1977  1.2262  0.6177
27112SOL    HW283590   2.196   0.798   6.148  0.1949 -1.5031  2.8042
27113SOL     OW83591   5.742   3.049   3.331  0.1237 -0.0342  0.3143
27113SOL    HW183592   5.755   3.123   3.272 -2.7091  0.3666  0.0503
27113SOL    HW283593   5.802   2.981   3.299  0.1159  0.8718 -1.7696
27114SOL     OW83594   4.984  10.433   1.018 -0.8051  0.0724  0.2966
27114SOL    HW183595   4.919  10.365   0.999  0.5619 -1.2266  0.0647
27114SOL    HW283596   4.950  10.478   1.095 -1.5989 -1.1062  0.6598
27115SOL     OW83597   6.883   8.802   9.705 -0.2837  0.3869 -0.4260
27115SOL    HW183598   6.913   8.713   9.721 -0.3585  0.1950 -1.2923
27115SOL    HW283599   6.788   8.798   9.717 -0.1959  0.5481  0.3726
27116SOL     OW83600   7.749   2.431   9.393 -0.2987  0.1588  0.2766
27116SOL    HW183601   7.807   2.390   9.329  1.0390  1.1055  0.8239
27116SOL    HW283602   7.803   2.441   9.472 -1.2512  0.9257  0.8602
27117SOL     OW83603   6.083   9.403   2.161 -0.4580 -0.1683 -0.7039
27117SOL    HW183604   6.089   9.312   2.191 -2.6179 -0.4759 -1.0706
27117SOL    HW283605   6.174   9.433   2.158  0.1697 -1.5917  1.5954
27118SOL     OW83606   1.741   2.654   4.959 -0.2023 -0.3185  0.0423
27118SOL    HW183607   1.651   2.645   4.927 -0.4173 -1.0719  0.8239
27118SOL    HW283608   1.784   2.709   4.894 -1.4604  0.7963  0.1050
27119SOL     OW83609   0.769   6.492  10.305 -0.0966 -0.1051 -0.0303
27119SOL    HW183610   0.787   6.429  10.375 -0.7716 -1.6528 -1.1780
27119SOL    HW283611   0.722   6.563  10.348  0.0379 -0.7244  1.1914
27120SOL     OW83612   4.388   9.417   8.189 -0.1370 -0.2604  1.1105
27120SOL    HW183613   4.414   9.505   8.217 -1.4887  0.7757 -0.6773
27120SOL    HW283614   4.436   9.403   8.108  0.0223 -1.1795  1.3482
27121SOL     OW83615   8.145   4.415   7.615  0.0322  0.1459  0.3903
27121SOL    HW183616   8.155   4.345   7.680  4.5961  0.2591  0.1178
27121SOL    HW283617   8.143   4.496   7.667  1.6401  0.1166  0.5503
27122SOL     OW83618   3.227   8.985   3.054 -0.1295 -0.3700  0.4422
27122SOL    HW183619   3.317   8.961   3.079 -0.3089  0.0358  1.5345
27122SOL    HW283620   3.206   9.059   3.110 -1.3572 -0.8314  0.6161
27123SOL     OW83621   2.093   8.633  10.378 -0.4966 -0.8268 -0.3836
27123SOL    HW183622   2.040   8.697  10.332 -1.0151 -0.0690  1.1731
27123SOL    HW283623   2.180   8.672  10.384 -1.1444  0.4806  1.7941
27124SOL     OW83624   2.350   2.183   5.261  0.4408 -0.5656 -0.1664
27124SOL    HW183625   2.275   2.141   5.219 -0.2790  1.3699 -0.9319
27124SOL    HW283626   2.311   2.248   5.320  1.4969  0.2657 -0.3516
27125SOL     OW83627   0.688   9.564   6.489  0.5889 -0.2052 -0.2939
27125SOL    HW183628   0.737   9.646   6.498 -1.0079  0.7844 -0.2539
27125SOL    HW283629   0.732   9.518   6.417  1.5199  0.6740 -0.3130
27126SOL     OW83630   0.550   4.455   5.617  0.7196 -0.3403 -0.3032
27126SOL    HW183631   0.630   4.427   5.661  0.8338  0.0822 -0.2339
27126SOL    HW283632   0.483   4.394   5.647  0.4441  0.8398  1.6824
27127SOL     OW83633   4.986   0.261   1.607  0.4838  0.0855  0.1715
27127SOL    HW183634   5.043   0.259   1.530  2.5990  3.0588  1.5051
27127SOL    HW283635   5.042   0.236   1.680 -1.3495 -2.1215  0.9647
27128SOL     OW83636   8.311   8.230   1.037  0.0459  0.8786 -0.4819
27128SOL    HW183637   8.348   8.184   1.113 -1.1555  3.0944  1.6053
27128SOL    HW283638   8.320   8.323   1.060 -1.4104  1.5898 -2.5639
27129SOL     OW83639   7.033   4.045   7.363 -0.0281 -0.1539  0.0263
27129SOL    HW183640   7.040   4.114   7.428 -2.1803 -0.4394  0.6586
27129SOL    HW283641   6.973   3.981   7.402 -0.5071 -0.8837 -1.7685
27130SOL     OW83642   1.253   6.463   6.879  0.0976  0.3609 -0.1548
27130SOL    HW183643   1.292   6.514   6.949 -0.3299 -1.2549  1.3395
27130SOL    HW283644   1.187   6.409   6.923  0.6446 -1.5874 -1.5757
27131SOL     OW83645   7.671   8.012   1.624 -0.6347 -0.1056  0.3107
27131SOL    HW183646   7.670   7.932   1.571 -0.8130  0.4472 -0.5243
27131SOL    HW283647   7.761   8.045   1.614 -0.4531 -0.3907  0.9533
27132SOL     OW83648   9.840   3.174   4.477 -0.1484  0.0312 -0.3773
27132SOL    HW183649   9.876   3.251   4.434  1.5506 -0.3499  0.2785
27132SOL    HW283650   9.772   3.208   4.536  0.2137  0.9691 -0.4872
27133SOL     OW83651  10.111   8.980   5.221 -0.4537  0.2204  0.3760
27133SOL    HW183652  10.104   8.939   5.135  2.8204 -3.0197  1.3872
27133SOL    HW283653  10.090   8.910   5.283  3.0201  0.5303  2.1840
27134SOL     OW83654   1.368   1.746   2.351 -0.5113  0.0791  0.3838
27134SOL    HW183655   1.293   1.732   2.294 -0.3213  3.1386 -0.7730
27134SOL    HW283656   1.443   1.751   2.291  0.0676  0.7624  1.1469
27135SOL     OW83657   6.058   9.128   0.831  0.1799 -0.2823  0.3453
27135SOL    HW183658   6.068   9.055   0.770  0.6934 -0.3558  0.5086
27135SOL    HW283659   5.966   9.126   0.858  0.3370 -1.2612  0.8338
27136SOL     OW83660   4.733   5.187   4.366  0.5797  0.0953 -0.4793
27136SOL    HW183661   4.824   5.200   4.338  0.8204  0.5880  0.4859
27136SOL    HW283662   4.740   5.169   4.460 -0.1520 -1.9980 -0.7659
27137SOL     OW83663   9.824   5.669   2.409  0.4241 -0.1352 -0.5129
27137SOL    HW183664   9.772   5.734   2.361  2.5454  1.1030 -1.3094
27137SOL    HW283665   9.826   5.593   2.351 -0.9398 -0.4313 -0.2003
27138SOL     OW83666   2.237   2.984   3.652  0.0988  0.0411  0.3981
27138SOL    HW183667   2.330   2.995   3.675 -0.3339 -0.1882  2.4387
27138SOL    HW283668   2.231   2.892   3.625  0.7404  0.4793 -1.4029
27139SOL     OW83669   4.483   0.605   2.697  0.1748  0.2856  0.2118
27139SOL    HW183670   4.430   0.684   2.697  0.8694  0.8479  3.0411
27139SOL    HW283671   4.488   0.579   2.789  0.2259 -2.9026 -0.5780
27140SOL     OW83672   8.546   6.624   9.907  0.0309  0.9536  0.2602
27140SOL    HW183673   8.547   6.532   9.882 -2.4396  0.8844  0.2385
27140SOL    HW283674   8.515   6.670   9.830  0.4579  1.7132  0.5322
27141SOL     OW83675   6.443   9.968   8.349  0.0333 -0.0827  0.4975
27141SOL    HW183676   6.382  10.030   8.310  0.0433 -0.1067  0.4424
27141SOL    HW283677   6.433   9.889   8.295  0.5795  0.1201  0.0889
27142SOL     OW83678   9.221   7.988   2.145 -0.1470 -0.2266 -0.1384
27142SOL    HW183679   9.146   8.041   2.120  0.2060  1.8844  2.7236
27142SOL    HW283680   9.296   8.034   2.109  0.0245 -0.0297  0.4658
27143SOL     OW83681   8.613   0.852   2.129 -0.1650 -0.0113 -0.4708
27143SOL    HW183682   8.598   0.757   2.129 -0.7606  0.0750 -0.2770
27143SOL    HW283683   8.619   0.875   2.222 -0.3484  0.1827 -0.5056
27144SOL     OW83684   9.261   9.741   5.784 -0.1752 -0.1703 -0.4766
27144SOL    HW183685   9.307   9.763   5.703 -0.0443 -0.8750 -0.5919
27144SOL    HW283686   9.287   9.810   5.845 -0.1093  0.2484 -0.9623
27145SOL     OW83687   9.276  10.643   5.751 -0.4154 -0.4213  0.1265
27145SOL    HW183688   9.238  10.688   5.675  1.7956  1.2667 -0.0729
27145SOL    HW283689   9.308  10.560   5.715 -0.6454 -0.2585 -0.4714
27146SOL     OW83690   8.572   9.988   6.673  0.7485 -0.1157 -0.1245
27146SOL    HW183691   8.577  10.062   6.733 -0.5073 -0.1806  0.0931
27146SOL    HW283692   8.658   9.947   6.677  0.6699 -0.1637  1.6952
27147SOL     OW83693   8.875   2.050   6.123 -0.5057 -0.0588 -0.0062
27147SOL    HW183694   8.944   1.985   6.109  0.6972  1.2491 -0.3042
27147SOL    HW283695   8.824   2.048   6.042  1.3430  1.4630 -1.2822
27148SOL     OW83696   8.999   2.660   7.328 -0.1041  0.1768 -0.0761
27148SOL    HW183697   9.004   2.688   7.237  0.5106 -1.0986 -0.4515
27148SOL    HW283698   8.921   2.705   7.363 -0.4311  0.5558 -1.2664
27149SOL     OW83699   0.388   7.171   6.876  0.4330 -0.0569 -0.4206
27149SOL    HW183700   0.407   7.264   6.887  1.1541  0.1950 -3.0421
27149SOL    HW283701   0.323   7.168   6.807 -0.8661 -1.4734  0.8055
27150SOL     OW83702   7.564   9.064   2.566  0.6509  0.2546 -0.0463
27150SOL    HW183703   7.638   9.030   2.517 -0.1987 -1.1387 -0.4203
27150SOL    HW283704   7.512   8.987   2.589 -1.3486  1.2465 -0.8868
27151SOL     OW83705   8.286   5.047   0.079  0.3288  0.1631 -0.6344
27151SOL    HW183706   8.209   5.004   0.117  2.3760 -1.4247  2.1231
27151SOL    HW283707   8.257   5.074  -0.008 -3.3409 -0.2093  0.2695
27152SOL     OW83708   3.599   2.385   8.263  0.0352  0.3448 -0.1724
27152SOL    HW183709   3.540   2.413   8.193  0.5576  3.7292  0.5372
27152SOL    HW283710   3.541   2.368   8.338 -0.2828  4.5896  0.8192
27153SOL     OW83711   1.113   0.837   5.572 -0.2517 -0.0224  0.2582
27153SOL    HW183712   1.028   0.811   5.536 -0.7602 -0.0967  1.4347
27153SOL    HW283713   1.091   0.873   5.658  0.5298  3.1890 -0.7398
27154SOL     OW83714   9.345   0.441  10.012 -0.2217 -0.0237  0.0179
27154SOL    HW183715   9.309   0.493  10.083 -1.4566 -0.5823 -0.1730
27154SOL    HW283716   9.411   0.497   9.972 -1.3755  1.3363 -0.0659
27155SOL     OW83717   7.395   1.262  10.564  0.4797  0.1161 -0.0637
27155SOL    HW183718   7.341   1.290  10.491  0.4111 -0.4756 -0.2406
27155SOL    HW283719   7.344   1.285  10.642  1.1077  1.9352 -0.1347
27156SOL     OW83720   0.016   4.369   3.048 -0.6232 -0.0086  0.1004
27156SOL    HW183721   0.087   4.416   3.004 -0.1963  0.2035  0.9882
27156SOL    HW283722  -0.047   4.349   2.978  0.1144  0.1578 -0.6251
27157SOL     OW83723   0.066   2.279   7.196 -0.1182 -0.1747  0.1476
27157SOL    HW183724   0.055   2.354   7.138 -0.2236 -1.5039 -1.6482
27157SOL    HW283725  -0.023   2.256   7.223 -0.0775  0.3815  0.7691
27158SOL     OW83726   4.675   2.881   7.866 -0.3471 -0.1731  0.7187
27158SOL    HW183727   4.628   2.934   7.801 -1.3860 -0.1144  1.4995
27158SOL    HW283728   4.739   2.941   7.905 -2.0939  0.8089  2.2116
27159SOL     OW83729   2.832   0.089   3.887  0.0587 -0.6452  0.1363
27159SOL    HW183730   2.786   0.014   3.849 -1.1041 -0.2189  0.6392
27159SOL    HW283731   2.861   0.139   3.811  0.6187 -1.4636 -0.1995
27160SOL     OW83732   1.748   6.681   8.029  0.1636 -0.1366 -0.0990
27160SOL    HW183733   1.801   6.638   8.096  0.0521  1.1465  0.8671
27160SOL    HW283734   1.704   6.752   8.076  1.3895  1.8955 -1.8334
27161SOL     OW83735   1.089   3.552   0.512 -0.1429  0.3930 -0.3727
27161SOL    HW183736   1.064   3.465   0.480  1.9971 -2.0085  3.6301
27161SOL    HW283737   1.010   3.585   0.555  0.2087 -1.9622  2.3614
27162SOL     OW83738   2.191   7.126   5.274  0.2309  0.4795 -0.7409
27162SOL    HW183739   2.118   7.111   5.215 -0.7462  0.0953  0.5072
27162SOL    HW283740   2.241   7.197   5.234 -0.9422  0.8906 -1.5343
27163SOL     OW83741   2.279   6.309   9.789 -0.0175  0.1103 -0.2443
27163SOL    HW183742   2.297   6.332   9.880 -1.6097 -0.6524  0.2986
27163SOL    HW283743   2.353   6.345   9.740  0.4127  1.3253  1.2264
27164SOL     OW83744   5.298   5.125   5.704  0.0927  0.5543 -0.1006
27164SOL    HW183745   5.364   5.073   5.750 -0.8085 -1.4599 -0.9677
27164SOL    HW283746   5.219   5.117   5.757  0.3663  2.6700  0.7502
27165SOL     OW83747   3.250   6.214   0.048  0.0811 -0.2523  0.3646
27165SOL    HW183748   3.158   6.206   0.072  0.0994 -1.8249  0.0190
27165SOL    HW283749   3.256   6.174  -0.039  0.8366  1.1497 -0.2603
27166SOL     OW83750   2.909   0.316   1.611 -0.5930  0.4947  0.1009
27166SOL    HW183751   2.901   0.253   1.683  0.7431 -0.3753 -0.4673
27166SOL    HW283752   2.997   0.352   1.620 -0.3694  0.3181 -1.1112
27167SOL     OW83753   7.133   4.804   6.475 -0.3743  0.0769 -0.0837
27167SOL    HW183754   7.200   4.823   6.409 -0.0140  2.5230  0.8600
27167SOL    HW283755   7.065   4.869   6.459 -0.0310  1.1061  2.1938
27168SOL     OW83756   0.629   5.852   5.582 -0.5941 -0.6370 -0.0590
27168SOL    HW183757   0.614   5.895   5.666 -1.6797 -0.4245 -0.3469
27168SOL    HW283758   0.724   5.839   5.578 -0.6485 -1.9945  1.8449
27169SOL     OW83759   7.469   0.741   3.834  0.0387 -0.1581 -0.1959
27169SOL    HW183760   7.506   0.824   3.803  1.4676 -0.7010 -0.0204
27169SOL    HW283761   7.500   0.732   3.923 -1.0013 -0.3929  0.1613
27170SOL     OW83762   5.268   3.981   2.951 -0.0310 -0.1396 -0.0898
27170SOL    HW183763   5.315   3.990   3.034 -0.6333  0.9761  0.1540
27170SOL    HW283764   5.265   3.886   2.936  1.5072 -0.2817  0.3107
27171SOL     OW83765   4.680   2.239   8.851 -0.3675 -0.5846  0.1084
27171SOL    HW183766   4.623   2.172   8.814  0.4512 -2.3446  1.8888
27171SOL    HW283767   4.766   2.198   8.857  0.2250  0.7063  1.0183
27172SOL     OW83768  10.278   5.260   5.536  0.4601 -0.4446 -0.4284
27172SOL    HW183769  10.293   5.224   5.449  0.1650 -0.9525 -0.2755
27172SOL    HW283770  10.256   5.352   5.520  0.7308 -0.4515 -0.8618
27173SOL     OW83771   5.116   0.227   4.762  0.4832 -0.0385  0.5074
27173SOL    HW183772   5.166   0.147   4.782  0.1823 -0.0434  1.2636
27173SOL    HW283773   5.042   0.196   4.709 -0.0381 -0.3806  1.4104
27174SOL     OW83774   7.771   3.061   1.330  0.6200 -0.8030 -0.1818
27174SOL    HW183775   7.699   3.020   1.378  0.5110  0.3664  0.7178
27174SOL    HW283776   7.748   3.051   1.238 -0.9357 -0.0921  0.0844
27175SOL     OW83777   6.843   3.950   6.734  0.1847  0.2591 -0.0579
27175SOL    HW183778   6.903   3.889   6.777  0.9400 -0.6759 -2.2538
27175SOL    HW283779   6.885   3.968   6.650 -1.4266  1.5760 -0.6270
27176SOL     OW83780   7.904   9.234   7.943  0.0741 -0.2028  0.2487
27176SOL    HW183781   7.980   9.195   7.901 -0.4747  1.0944 -2.0666
27176SOL    HW283782   7.838   9.239   7.874 -2.0411 -0.9713  2.0915
27177SOL     OW83783   6.574   4.089   3.492 -0.1153 -0.3422 -0.1403
27177SOL    HW183784   6.565   4.054   3.403  0.7002 -1.9024  0.3569
27177SOL    HW283785   6.627   4.168   3.481 -0.0975 -0.4659 -1.0574
27178SOL     OW83786   0.769   9.345   2.757 -0.5097  0.4235  0.8458
27178SOL    HW183787   0.742   9.283   2.688 -0.5051  2.1189 -0.7668
27178SOL    HW283788   0.749   9.300   2.839 -1.4625 -1.2826 -0.2559
27179SOL     OW83789   1.357   8.262   9.746  0.2419  0.6325 -0.0275
27179SOL    HW183790   1.322   8.216   9.670 -0.2898  0.7991  0.1124
27179SOL    HW283791   1.420   8.324   9.710  0.3755  0.3533 -0.2842
27180SOL     OW83792   3.879   0.942   3.275  0.4449  0.4548  0.3566
27180SOL    HW183793   3.950   0.937   3.339 -0.3975  0.5162  1.3074
27180SOL    HW283794   3.807   0.984   3.322 -1.0394 -1.7364  0.1604
27181SOL     OW83795  10.032   4.646   3.048 -0.0532  0.3627 -0.1452
27181SOL    HW183796   9.940   4.664   3.029 -0.3159 -1.8163 -1.3003
27181SOL    HW283797  10.043   4.553   3.027  2.6804  0.8045 -1.0961
27182SOL     OW83798  10.060   5.794   8.843  0.5640 -0.1101  0.4966
27182SOL    HW183799   9.980   5.816   8.892 -0.1426 -3.7415  1.2922
27182SOL    HW283800  10.032   5.787   8.752 -0.2617 -1.8738  0.8375
27183SOL     OW83801   0.932   6.564   5.461  1.1455 -0.0785  0.2370
27183SOL    HW183802   0.924   6.609   5.377 -0.0518 -1.0739 -0.2221
27183SOL    HW283803   0.847   6.577   5.503  0.9151 -1.5041  0.2743
27184SOL     OW83804   4.371   0.171   8.594 -0.5139 -0.0176  0.1046
27184SOL    HW183805   4.397   0.208   8.509  1.3337 -3.3679 -0.9812
27184SOL    HW283806   4.408   0.232   8.658  1.0089  0.8853 -1.5121
27185SOL     OW83807   5.690   2.333   6.152 -0.1272  0.9624  0.1557
27185SOL    HW183808   5.738   2.262   6.108 -1.7497  0.5301 -1.0287
27185SOL    HW283809   5.741   2.412   6.132  1.6061  0.2170  1.3402
27186SOL     OW83810  10.174   0.316   8.974  0.3161  0.4956 -0.9624
27186SOL    HW183811  10.203   0.388   8.919 -1.4416  1.0376 -1.2568
27186SOL    HW283812  10.078   0.317   8.966  0.1634 -0.9325  0.2086
27187SOL     OW83813   7.430   2.113   1.133 -0.4578 -0.0497 -0.2874
27187SOL    HW183814   7.503   2.111   1.070 -0.1211  0.5605  0.0720
27187SOL    HW283815   7.460   2.056   1.205  0.0145  0.8354  0.2267
27188SOL     OW83816   5.374   2.568  10.135  0.3931 -0.2642 -0.6143
27188SOL    HW183817   5.331   2.581  10.220  0.4930  1.6097 -0.8110
27188SOL    HW283818   5.390   2.474  10.131 -0.2621 -0.4964  1.1294
27189SOL     OW83819   4.344   6.107   8.704 -0.3983  0.0921 -0.1847
27189SOL    HW183820   4.308   6.081   8.788  0.9328 -2.1246 -0.2255
27189SOL    HW283821   4.410   6.173   8.725  0.3911 -0.9264  0.6069
27190SOL     OW83822   7.421   2.494   4.367  0.4086  0.0378  0.1617
27190SOL    HW183823   7.502   2.513   4.319  0.9740  1.0219  1.4634
27190SOL    HW283824   7.404   2.574   4.417 -1.8872  0.2003 -0.7670
27191SOL     OW83825   5.507   4.114   8.555  0.1296 -0.0641  0.0190
27191SOL    HW183826   5.547   4.123   8.468  0.0148  3.3157  0.2109
27191SOL    HW283827   5.582   4.111   8.615  0.1732  0.8357  0.0133
27192SOL     OW83828   9.935   7.580   6.577 -0.4988 -0.5456  0.7545
27192SOL    HW183829   9.846   7.574   6.541 -0.3075  1.5692 -0.2313
27192SOL    HW283830   9.992   7.567   6.502  0.0342 -1.1943  1.2619
27193SOL     OW83831   4.727   5.164   7.138 -0.2076  0.0146  0.3231
27193SOL    HW183832   4.749   5.257   7.140 -0.3308  0.0291  1.1487
27193SOL    HW283833   4.668   5.151   7.212 -0.6026 -0.6224 -0.0890
27194SOL     OW83834   9.199   3.819   7.656  0.4807  0.4831  0.0327
27194SOL    HW183835   9.131   3.870   7.697  1.7063  1.9534  0.3232
27194SOL    HW283836   9.182   3.827   7.562 -0.1489  0.2283  0.1205
27195SOL     OW83837   7.081   7.713   1.788  0.3515 -0.4844  0.1083
27195SOL    HW183838   7.003   7.658   1.785  1.5694 -2.2462 -1.7072
27195SOL    HW283839   7.129   7.681   1.865 -1.6368  2.1371  2.6410
27196SOL     OW83840   9.549  10.507   6.056 -0.3328  0.1052  0.6453
27196SOL    HW183841   9.532  10.426   6.105  0.5164 -0.6162 -0.2145
27196SOL    HW283842   9.560  10.574   6.124 -0.9804 -0.5073  1.3738
27197SOL     OW83843   6.792   7.777   1.417 -0.4543  0.0755 -0.1924
27197SOL    HW183844   6.720   7.755   1.476 -0.4353  0.1048 -0.1584
27197SOL    HW283845   6.749   7.796   1.333 -0.2628 -3.9780 -1.4097
27198SOL     OW83846   3.108   4.095   1.867  0.2068 -0.0422  0.1514
27198SOL    HW183847   3.138   4.060   1.783 -0.4484 -0.8310  0.2338
27198SOL    HW283848   3.152   4.179   1.875  0.5881 -0.1407 -0.7970
27199SOL     OW83849  10.345   8.995   4.860  0.9653 -0.1321 -0.2901
27199SOL    HW183850  10.286   9.069   4.847  0.6130 -0.3190  0.1936
27199SOL    HW283851  10.433   9.031   4.848  0.9649  0.9175  2.2491
27200SOL     OW83852   1.692   6.610   6.879 -0.4469 -0.2730  0.0305
27200SOL    HW183853   1.740   6.659   6.945 -0.3631 -2.6039  1.8192
27200SOL    HW283854   1.610   6.586   6.922 -1.0644 -0.5697 -1.2620
27201SOL     OW83855   0.580   8.880   6.995  0.2684 -0.0405  0.3906
27201SOL    HW183856   0.561   8.796   6.952  0.1047  0.3101 -0.2323
27201SOL    HW283857   0.669   8.901   6.967 -0.1110  0.5562 -0.3936
27202SOL     OW83858   9.920   5.429  10.132 -0.0278 -0.3994 -0.3536
27202SOL    HW183859   9.852   5.418  10.066 -1.0529  0.6097  0.5014
27202SOL    HW283860  10.000   5.398  10.089 -1.3975 -4.4279 -0.4471
27203SOL     OW83861   0.463   2.772   8.118  0.3047  0.3624 -0.1912
27203SOL    HW183862   0.422   2.773   8.205  0.0591  1.1303 -0.3101
27203SOL    HW283863   0.557   2.765   8.136  0.1725 -1.1580  0.0898
27204SOL     OW83864   8.680   3.953   5.384  0.1653 -0.1528  0.7311
27204SOL    HW183865   8.685   3.942   5.479  2.7953 -1.1351  0.5481
27204SOL    HW283866   8.687   4.048   5.371  0.6776 -0.0815  1.4797
27205SOL     OW83867   2.573   1.836   3.475 -0.2783 -0.2483 -0.1184
27205SOL    HW183868   2.594   1.745   3.455 -2.1471 -1.3363  2.2918
27205SOL    HW283869   2.480   1.844   3.458  0.2509  2.0381 -2.6719
27206SOL     OW83870   0.851   6.892   4.967 -0.3658 -0.5617  0.5191
27206SOL    HW183871   0.870   6.800   4.948 -0.1811 -0.5847  0.8189
27206SOL    HW283872   0.896   6.910   5.049 -0.3612 -0.1890  0.4383
27207SOL     OW83873   2.419   6.661  10.086 -0.1652  0.1609  0.4951
27207SOL    HW183874   2.389   6.576  10.057  1.7713  0.3741 -2.5271
27207SOL    HW283875   2.512   6.664  10.062 -0.2579  3.2650  0.0728
27208SOL     OW83876   1.196   6.225   9.168  0.7017 -0.6424  0.9183
27208SOL    HW183877   1.226   6.214   9.077 -0.0011  0.4737  0.5279
27208SOL    HW283878   1.101   6.234   9.161  0.7626  0.9251  1.5743
27209SOL     OW83879   2.844   7.788   0.565  0.6167  0.2710  0.1987
27209SOL    HW183880   2.918   7.811   0.622  1.2383 -1.2431  0.0591
27209SOL    HW283881   2.883   7.732   0.497 -0.4172  0.6189 -0.7036
27210SOL     OW83882   3.681   7.057   2.960 -0.0927 -0.5792 -0.3805
27210SOL    HW183883   3.637   6.974   2.980 -1.0568  0.0466  0.1805
27210SOL    HW283884   3.650   7.118   3.027 -1.0934  0.8051 -1.9918
27211SOL     OW83885   4.129   6.253   7.686 -0.0385 -0.3309 -0.0358
27211SOL    HW183886   4.194   6.186   7.662  1.4215  0.9643  0.1752
27211SOL    HW283887   4.080   6.213   7.758  0.5447 -1.3178 -0.1605
27212SOL     OW83888   5.228   4.309   3.757  0.7311 -0.1583  0.0026
27212SOL    HW183889   5.192   4.309   3.845 -0.2833 -2.5782 -0.3221
27212SOL    HW283890   5.323   4.301   3.770  0.9065  2.3986  0.8281
27213SOL     OW83891   5.458   4.081   8.941  0.2072  0.4542  0.0716
27213SOL    HW183892   5.476   4.161   8.892 -0.0159  0.3540 -0.1766
27213SOL    HW283893   5.363   4.081   8.953 -0.1585 -1.1018 -2.2616
27214SOL     OW83894   3.283   6.137   8.948  0.3028 -0.0530 -0.2856
27214SOL    HW183895   3.223   6.186   8.891  0.0400 -0.9770 -0.8203
27214SOL    HW283896   3.255   6.159   9.037  0.8300  1.5502 -0.4874
27215SOL     OW83897   9.385   7.178   8.210  0.0321  0.1476 -0.2736
27215SOL    HW183898   9.300   7.213   8.185 -0.0202 -1.5188 -2.8764
27215SOL    HW283899   9.369   7.085   8.228  1.1860 -0.0810 -0.3052
27216SOL     OW83900   6.959   1.133   5.840 -0.2674  0.0421 -0.0413
27216SOL    HW183901   6.980   1.219   5.803  1.4864  0.0225  0.8059
27216SOL    HW283902   7.011   1.071   5.791  1.7065 -0.0357  1.9752
27217SOL     OW83903   5.352   9.175   8.748  0.5324  0.6599 -0.2969
27217SOL    HW183904   5.314   9.237   8.811  0.3627  0.1336  0.1307
27217SOL    HW283905   5.446   9.195   8.749  0.7607 -0.3340  1.2800
27218SOL     OW83906   2.066   2.637   4.975  0.3456  0.5946  0.1268
27218SOL    HW183907   2.126   2.710   4.962  0.2582  0.3330 -1.9799
27218SOL    HW283908   1.985   2.665   4.933  0.4114 -0.8220 -1.0066
27219SOL     OW83909   9.291   2.662   7.057  0.3301  0.0396 -0.2519
27219SOL    HW183910   9.326   2.593   7.113  1.4309  0.4779 -0.3713
27219SOL    HW283911   9.318   2.743   7.101 -0.1220  0.3912 -0.6156
27220SOL     OW83912   6.382   8.468   3.019 -0.0278 -0.4809  0.4707
27220SOL    HW183913   6.362   8.561   3.016  1.6109 -0.1210 -1.1537
27220SOL    HW283914   6.345   8.438   3.102  0.2246  1.7951  1.4801
27221SOL     OW83915   6.793   3.696  10.058 -0.3994 -0.6069  0.1643
27221SOL    HW183916   6.833   3.620  10.016 -1.0072 -1.4600  1.0835
27221SOL    HW283917   6.831   3.772  10.012  2.6179 -1.3171  1.2362
27222SOL     OW83918   0.219   6.097   6.495 -0.5232  0.5816  0.6933
27222SOL    HW183919   0.280   6.168   6.514 -1.5267  2.2547 -1.8581
27222SOL    HW283920   0.147   6.111   6.557 -0.9471  2.1799 -0.1006
27223SOL     OW83921   8.057   1.525   0.515  0.5101  0.0043 -0.3253
27223SOL    HW183922   8.010   1.573   0.583  2.3273  1.3088  0.0875
27223SOL    HW283923   8.127   1.480   0.562  0.7858 -0.4331 -1.1356
27224SOL     OW83924  10.581   1.970   0.787 -0.5513 -0.9100  0.3161
27224SOL    HW183925  10.598   1.892   0.734  0.5044 -1.5051  1.4899
27224SOL    HW283926  10.637   2.037   0.748 -1.5536 -0.6724 -0.7728
27225SOL     OW83927   6.419   9.461   6.465 -0.1738  0.1806 -0.2570
27225SOL    HW183928   6.414   9.378   6.418  1.2623  0.7127 -1.4171
27225SOL    HW283929   6.332   9.500   6.454 -0.9086 -1.1870  0.4045
27226SOL     OW83930   6.635   9.999   9.297 -0.8424  0.5801 -0.0917
27226SOL    HW183931   6.640   9.943   9.219  0.1271 -1.1414  1.1261
27226SOL    HW283932   6.623  10.087   9.263 -0.7239 -0.1507 -2.1735
27227SOL     OW83933   8.106   4.672   1.668 -0.0510  0.0113  0.2129
27227SOL    HW183934   8.195   4.642   1.689  0.7166  0.8543 -1.6137
27227SOL    HW283935   8.095   4.652   1.575 -0.7027  2.3926 -0.2851
27228SOL     OW83936   9.563   9.433   3.408 -0.3257  0.1721  0.6550
27228SOL    HW183937   9.537   9.348   3.372  1.3414  0.5345 -1.6837
27228SOL    HW283938   9.571   9.490   3.331 -0.1071  2.0867  2.0255
27229SOL     OW83939   9.512   4.319   6.398  0.0789  0.1267 -0.3628
27229SOL    HW183940   9.572   4.344   6.328 -0.3140  0.9223 -0.4256
27229SOL    HW283941   9.516   4.391   6.460 -0.4316 -0.0457 -0.1214
27230SOL     OW83942   4.593   1.329   8.401  0.1122 -0.0501 -0.2898
27230SOL    HW183943   4.617   1.418   8.373 -2.0742  0.8562  0.5315
27230SOL    HW283944   4.501   1.335   8.426 -0.1212 -2.5985 -0.2813
27231SOL     OW83945   5.980   3.020   2.109 -0.0070  0.4768 -0.6826
27231SOL    HW183946   5.962   3.053   2.021  0.6573 -0.3636 -1.1479
27231SOL    HW283947   6.075   3.011   2.112 -0.1276 -0.8508 -0.3855
27232SOL     OW83948   9.003   6.984   2.218  0.2536 -0.7012 -0.1138
27232SOL    HW183949   9.083   7.018   2.177  1.0476 -0.5849  1.4268
27232SOL    HW283950   8.933   7.041   2.186  0.9311 -0.2174 -0.7672
27233SOL     OW83951   6.844   7.536   1.778  0.1145  0.5554  0.4574
27233SOL    HW183952   6.853   7.498   1.866  1.8329  1.3018  0.6398
27233SOL    HW283953   6.786   7.611   1.790  0.0038  0.4081  0.8610
27234SOL     OW83954   4.487   7.381   2.558 -0.2422  0.2813 -0.3008
27234SOL    HW183955   4.430   7.389   2.635 -0.6013 -1.1430 -0.3989
27234SOL    HW283956   4.561   7.439   2.577 -1.1306  1.2451  0.3599
27235SOL     OW83957   3.297   1.647   2.474  0.0574 -0.0767 -0.0046
27235SOL    HW183958   3.222   1.599   2.437 -1.0944  0.8255  1.0597
27235SOL    HW283959   3.296   1.623   2.567 -0.4215  1.8037  0.5096
27236SOL     OW83960   4.802   0.436   9.964  0.3211 -0.3644  0.0624
27236SOL    HW183961   4.748   0.490   9.907 -3.6763 -2.4255  1.5280
27236SOL    HW283962   4.814   0.489  10.043 -1.1202 -0.4776  0.3811
27237SOL     OW83963   3.630   3.340   3.450 -0.9338 -0.8137  0.0036
27237SOL    HW183964   3.554   3.374   3.497 -1.5853 -1.6182 -0.4316
27237SOL    HW283965   3.637   3.248   3.478  0.3515 -0.5438  0.6254
27238SOL     OW83966   1.126  10.561   7.144 -0.3290 -0.0034  0.1025
27238SOL    HW183967   1.067  10.490   7.168 -0.9953  0.6270  0.3774
27238SOL    HW283968   1.070  10.639   7.144  0.6165  0.6962  0.8829
27239SOL     OW83969   6.469  10.560   4.776  0.1860  0.2346 -0.0163
27239SOL    HW183970   6.514  10.642   4.798  1.2333 -0.9802  2.7477
27239SOL    HW283971   6.529  10.491   4.803 -2.3092 -1.4692  1.6266
27240SOL     OW83972   4.932   3.430   5.174  0.0615 -0.0188  0.4328
27240SOL    HW183973   4.962   3.396   5.090 -1.7709 -0.3553 -0.1250
27240SOL    HW283974   4.975   3.374   5.239 -0.3964 -1.3682 -0.3759
27241SOL     OW83975   9.398   3.811   6.983 -0.0508 -0.1925 -0.1514
27241SOL    HW183976   9.384   3.898   6.946  1.8782 -0.8032 -2.5856
27241SOL    HW283977   9.467   3.823   7.048 -0.9446  0.3191  0.7282
27242SOL     OW83978   9.334   2.324   8.157 -0.2233  0.1453  0.2062
27242SOL    HW183979   9.296   2.239   8.179  1.7454 -1.2439 -1.3496
27242SOL    HW283980   9.412   2.330   8.213 -0.6938  1.2633  0.7680
27243SOL     OW83981   3.713   4.570   5.805 -0.7033  0.3014  0.7654
27243SOL    HW183982   3.704   4.554   5.899 -1.5211 -0.3903  0.5780
27243SOL    HW283983   3.727   4.664   5.798 -1.3661  0.4679  1.5360
27244SOL     OW83984   3.199   4.990   0.759  0.5429 -0.3298  0.3298
27244SOL    HW183985   3.144   4.969   0.684 -1.2966  0.5284  1.3611
27244SOL    HW283986   3.148   5.055   0.809  3.2333  1.8797  0.4623
27245SOL     OW83987   8.904   0.051   7.688 -0.2364 -0.0501 -0.2987
27245SOL    HW183988   8.893   0.088   7.775  1.0904  0.3712 -0.2760
27245SOL    HW283989   8.939   0.124   7.636 -1.0976 -0.2684 -1.2088
27246SOL     OW83990   1.377   1.289   1.091 -0.1300 -0.2278 -0.1216
27246SOL    HW183991   1.385   1.366   1.036 -0.7266 -0.7491 -0.9696
27246SOL    HW283992   1.466   1.270   1.121  0.4154 -0.6545 -1.9153
27247SOL     OW83993   6.711   4.510   4.874  0.4955  0.0672 -0.3692
27247SOL    HW183994   6.735   4.599   4.849  1.8839  0.1536  1.1594
27247SOL    HW283995   6.787   4.457   4.852  0.5421 -0.3632  0.7638
27248SOL     OW83996   3.620   2.991   2.560 -0.1401  0.1585  0.5280
27248SOL    HW183997   3.563   2.974   2.485  0.6794 -0.7813  0.0830
27248SOL    HW283998   3.705   2.955   2.534  0.1377 -0.2988  1.9419
27249SOL     OW83999   2.407   9.888   6.403  0.2734  0.0032  0.1081
27249SOL    HW184000   2.370   9.869   6.490 -1.2929  1.7219 -0.1028
27249SOL    HW284001   2.353   9.837   6.343  0.0815  0.3359 -0.0009
27250SOL     OW84002   2.572   7.516   0.264 -0.0218 -0.1017 -0.0645
27250SOL    HW184003   2.531   7.450   0.208 -0.3277 -0.9514  1.1452
27250SOL    HW284004   2.503   7.541   0.326  0.9997 -0.9011  1.4324
27251SOL     OW84005   3.078   8.699  10.646  0.3003 -0.6603 -0.4671
27251SOL    HW184006   3.120   8.712  10.561 -0.9636  0.4931 -0.9611
27251SOL    HW284007   2.991   8.739  10.636  0.9930  1.8352  2.1098
27252SOL     OW84008   6.369   0.308   5.071 -0.2423 -0.0936  0.3607
27252SOL    HW184009   6.406   0.291   5.158 -0.2587 -1.3291  0.1470
27252SOL    HW284010   6.375   0.402   5.060  0.9057 -0.0576  1.1975
27253SOL     OW84011   9.669   3.134   5.128 -0.4179  0.6645  0.7630
27253SOL    HW184012   9.749   3.082   5.135  0.0729  1.2977  0.0690
27253SOL    HW284013   9.696   3.224   5.147 -0.5302  1.2100 -1.3791
27254SOL     OW84014  10.212   5.505   4.370  0.3990  0.5816  0.5195
27254SOL    HW184015  10.116   5.513   4.375  0.3381  0.6112 -0.5011
27254SOL    HW284016  10.244   5.572   4.431 -0.2299  0.9384  0.4728
27255SOL     OW84017   3.776   1.786   7.996 -0.7497 -0.6395  0.3910
27255SOL    HW184018   3.822   1.870   7.987 -4.6375  1.6778  0.1721
27255SOL    HW284019   3.781   1.765   8.089 -0.1142  0.0213  0.5148
27256SOL     OW84020   0.498   2.912   0.426 -0.0547 -0.1126 -0.3772
27256SOL    HW184021   0.507   2.959   0.342  2.4016 -0.0065 -0.1297
27256SOL    HW284022   0.443   2.837   0.405 -0.7882  0.7414 -1.7106
27257SOL     OW84023   8.440   5.445   5.750  0.1129  0.3197  0.1834
27257SOL    HW184024   8.515   5.505   5.756  1.9696 -1.8409 -0.2577
27257SOL    HW284025   8.399   5.467   5.666 -0.1473  1.8917  0.6827
27258SOL     OW84026   0.103   9.059   4.363  0.6710 -0.0996  0.2384
27258SOL    HW184027   0.173   9.097   4.416  0.1696 -2.2984  2.6720
27258SOL    HW284028   0.144   8.985   4.319  0.2912 -0.3021  0.2238
27259SOL     OW84029   0.431   0.145   3.170  0.0366  0.1204  0.1021
27259SOL    HW184030   0.368   0.094   3.120 -1.0780  0.2335  1.3401
27259SOL    HW284031   0.509   0.150   3.114 -1.4004  0.8933 -1.9234
27260SOL     OW84032   5.462  10.307  10.351 -0.0275 -0.1152  0.1898
27260SOL    HW184033   5.401  10.328  10.279 -0.0542  1.1188  0.5416
27260SOL    HW284034   5.520  10.383  10.355  0.0783 -0.2476  1.3707
27261SOL     OW84035   4.034   9.165   1.947  0.4054  0.0791 -0.1391
27261SOL    HW184036   4.021   9.260   1.949 -2.8572 -0.2336 -0.7620
27261SOL    HW284037   3.997   9.137   1.863  2.0530 -1.7068 -0.3559
27262SOL     OW84038   0.943   5.882   1.314  0.5582 -0.4353 -0.0549
27262SOL    HW184039   0.876   5.923   1.369 -0.4634 -1.8404 -0.1967
27262SOL    HW284040   0.971   5.952   1.255 -0.3828  0.3431  0.3895
27263SOL     OW84041   5.566  10.300   7.709  0.5709  0.4902  0.5493
27263SOL    HW184042   5.634  10.366   7.702  1.4509 -0.5008 -0.6841
27263SOL    HW284043   5.585  10.238   7.639  0.8894 -2.0644  2.7191
27264SOL     OW84044   4.241   7.269   5.352 -0.2934  0.1347 -0.0619
27264SOL    HW184045   4.291   7.193   5.382  0.2441  0.7023  0.5004
27264SOL    HW284046   4.306   7.329   5.318 -0.4463  1.3760  1.7465
27265SOL     OW84047   2.236   9.229  10.126 -0.3088  0.3300  0.3622
27265SOL    HW184048   2.179   9.172  10.074  2.0093 -1.8573 -0.0137
27265SOL    HW284049   2.277   9.287  10.062  0.6006 -0.6149  0.0535
27266SOL     OW84050   1.434   2.975   1.349 -0.6525  0.1257 -0.9906
27266SOL    HW184051   1.413   2.953   1.258 -2.4534  1.6377 -1.0197
27266SOL    HW284052   1.366   3.038   1.374 -1.1301 -1.3935  1.9080
27267SOL     OW84053   3.180   9.781   9.657  0.5338 -0.6280 -0.2145
27267SOL    HW184054   3.252   9.761   9.717  0.4362  0.8568  0.4372
27267SOL    HW284055   3.120   9.708   9.667  2.5206 -2.6243 -1.7838
27268SOL     OW84056   9.813   3.408   3.813 -0.6029 -0.0286  0.4069
27268SOL    HW184057   9.835   3.462   3.738 -0.7097  1.5569  1.4773
27268SOL    HW284058   9.717   3.405   3.814 -0.5925 -0.9050 -0.0879
27269SOL     OW84059   2.637   8.874   8.249  0.2903 -0.4018  0.0603
27269SOL    HW184060   2.579   8.808   8.287  1.1486 -0.9562  0.4479
27269SOL    HW284061   2.719   8.865   8.298  0.5498  0.6995 -0.1339
27270SOL     OW84062   8.967   5.835   6.600  0.3122  0.4875 -0.5488
27270SOL    HW184063   8.878   5.803   6.617  0.7360 -0.4061  0.0276
27270SOL    HW284064   8.988   5.888   6.677 -0.1280  1.6521 -1.1942
27271SOL     OW84065   8.898   5.773   0.210 -0.0786  0.1735  0.4414
27271SOL    HW184066   8.912   5.742   0.299 -1.5105 -1.4472  0.1673
27271SOL    HW284067   8.948   5.712   0.156 -0.4240  0.2173  0.0662
27272SOL     OW84068   4.001   7.197   9.718 -0.0497 -0.1448 -0.0577
27272SOL    HW184069   3.913   7.187   9.681  0.2353  0.3821 -0.9298
27272SOL    HW284070   3.993   7.166   9.808 -0.9730 -0.7130 -0.3169
27273SOL     OW84071   3.574   9.893   1.734 -0.0343  0.1730 -0.4630
27273SOL    HW184072   3.559   9.859   1.646 -0.0712 -2.4710  0.4905
27273SOL    HW284073   3.489   9.888   1.777 -0.0249  1.4724 -0.2319
27274SOL     OW84074   9.930   1.703   8.258 -0.1279 -0.4539 -0.4106
27274SOL    HW184075   9.855   1.719   8.315 -1.6012  2.6167 -2.9078
27274SOL    HW284076   9.997   1.667   8.316 -2.2481  0.2497  2.7204
27275SOL     OW84077  10.167   7.183   3.305 -0.4861 -0.4376  0.2262
27275SOL    HW184078  10.077   7.180   3.275 -0.4314  1.4979 -0.2766
27275SOL    HW284079  10.161   7.171   3.400 -1.4545  1.0982  0.3994
27276SOL     OW84080   2.057   8.781   2.582  0.5547 -0.1020  0.3081
27276SOL    HW184081   2.123   8.756   2.517 -1.0064  0.2224 -1.4800
27276SOL    HW284082   2.019   8.699   2.611 -0.4753 -0.1631 -1.1228
27277SOL     OW84083   0.695   2.820   1.927 -0.0400 -0.6221  0.0506
27277SOL    HW184084   0.630   2.833   1.996  1.0646  0.9835  0.8518
27277SOL    HW284085   0.773   2.789   1.972  0.5201 -0.1153 -0.5513
27278SOL     OW84086   2.921   9.395   1.969 -0.0571 -0.2362  0.1875
27278SOL    HW184087   2.851   9.338   2.001 -1.0902  1.5044  1.1922
27278SOL    HW284088   2.988   9.390   2.037 -1.0264  1.2561  1.3117
27279SOL     OW84089   2.257   2.719   9.109 -0.3242  0.1475  0.1378
27279SOL    HW184090   2.188   2.784   9.118  0.0990  0.4617  1.3149
27279SOL    HW284091   2.244   2.659   9.183 -0.8011 -1.2249 -1.0090
27280SOL     OW84092   3.322   0.257   7.370 -0.2948 -0.3655  0.6752
27280SOL    HW184093   3.345   0.169   7.400  0.8581 -0.2033  0.2974
27280SOL    HW284094   3.247   0.282   7.425 -0.5589 -1.5269  0.8655
27281SOL     OW84095   3.678   5.845   2.520 -0.7818  0.2322  0.5299
27281SOL    HW184096   3.707   5.850   2.429 -0.3783 -1.0275  0.5691
27281SOL    HW284097   3.583   5.854   2.516 -0.8050 -0.2532 -0.0587
27282SOL     OW84098   6.479   4.894   9.804  0.3526  0.3658  0.3273
27282SOL    HW184099   6.411   4.939   9.855 -0.5329 -1.6981  1.0758
27282SOL    HW284100   6.499   4.816   9.855  2.3316  0.2272 -0.5806
27283SOL     OW84101   2.271   2.089   4.862  0.5974 -0.5156  0.0312
27283SOL    HW184102   2.293   2.065   4.952  0.2995 -0.4115  0.1345
27283SOL    HW284103   2.343   2.145   4.834  1.5228 -1.8713 -0.3685
27284SOL     OW84104   2.775   0.303   2.237 -0.0089  0.2571 -0.5257
27284SOL    HW184105   2.707   0.240   2.214 -0.2047  0.9514 -1.9447
27284SOL    HW284106   2.788   0.291   2.331 -0.9308 -1.0079 -0.5368
27285SOL     OW84107   9.272   0.377   0.253  0.0000  1.0575 -0.6617
27285SOL    HW184108   9.203   0.435   0.218 -1.2509  0.6783  1.0834
27285SOL    HW284109   9.315   0.429   0.321 -1.7660 -0.2824  1.6054
27286SOL     OW84110   6.599   1.248   0.096  0.1156  0.2164  0.3265
27286SOL    HW184111   6.584   1.254   0.190  1.4911 -1.3780  0.6932
27286SOL    HW284112   6.523   1.200   0.063 -0.0959  0.2796  0.7146
27287SOL     OW84113   0.950   2.989   0.528  0.4629 -0.7159  0.5454
27287SOL    HW184114   0.863   3.027   0.543  0.0857 -1.5465  0.4840
27287SOL    HW284115   1.010   3.049   0.574  0.0848  0.9721 -1.0382
27288SOL     OW84116   5.286   4.689   4.795  0.4680 -0.1965  0.6920
27288SOL    HW184117   5.378   4.705   4.816  0.7914 -0.7963 -0.2224
27288SOL    HW284118   5.241   4.767   4.827  1.6399  1.3645 -1.2354
27289SOL     OW84119   7.543   3.675   3.535  0.0717 -0.1130  0.1498
27289SOL    HW184120   7.524   3.600   3.591 -0.3704 -0.1785 -0.0913
27289SOL    HW284121   7.578   3.638   3.455 -2.1620 -0.2123 -0.8480
27290SOL     OW84122   6.290   1.373   4.776  0.1235 -0.0354  0.0286
27290SOL    HW184123   6.301   1.328   4.859 -3.2109  4.0989  3.1801
27290SOL    HW284124   6.368   1.428   4.768  0.7741 -0.9438  0.0383
27291SOL     OW84125   1.629   8.053   7.829  0.6220 -0.3908  0.3993
27291SOL    HW184126   1.665   8.140   7.818  0.5791 -0.4628 -0.3903
27291SOL    HW284127   1.695   7.994   7.791  0.5209 -0.6796  0.6614
27292SOL     OW84128   3.442   8.192   1.164  0.0566 -0.4642  0.7094
27292SOL    HW184129   3.381   8.119   1.167 -0.9652  0.3655  0.6091
27292SOL    HW284130   3.525   8.153   1.134 -0.7312 -1.4019 -0.3213
27293SOL     OW84131   5.799   1.101   8.163  0.6657 -0.2417 -0.1230
27293SOL    HW184132   5.747   1.177   8.190 -2.9039 -2.1400 -1.0411
27293SOL    HW284133   5.818   1.116   8.071  0.1242 -0.3585 -0.2569
27294SOL     OW84134   7.819   8.170   6.687  0.1975  0.4732 -0.4438
27294SOL    HW184135   7.752   8.107   6.663  0.6290  0.7388 -2.5266
27294SOL    HW284136   7.816   8.236   6.617  1.6020  1.2858  0.2157
27295SOL     OW84137   4.478   0.284   3.903  0.0104  0.2602  0.3457
27295SOL    HW184138   4.420   0.333   3.844 -0.7569 -0.1933  0.7017
27295SOL    HW284139   4.566   0.314   3.881 -0.0311 -1.2301 -2.3392
27296SOL     OW84140   2.265   4.011   8.363 -0.4077  0.5533 -0.7924
27296SOL    HW184141   2.282   4.092   8.316  0.1815  1.7705  1.3690
27296SOL    HW284142   2.251   4.039   8.454 -1.3820 -1.6643 -0.1926
27297SOL     OW84143  10.324   9.959   9.581 -0.2486 -0.2709 -0.2791
27297SOL    HW184144  10.412   9.922   9.583  0.2502  0.7043  3.8367
27297SOL    HW284145  10.266   9.883   9.581  0.6173 -0.9462 -0.6099
27298SOL     OW84146   7.357   7.244   9.004 -0.5469 -0.2609 -0.0646
27298SOL    HW184147   7.399   7.248   9.090  2.3584  2.4525 -1.4465
27298SOL    HW284148   7.287   7.310   9.009  0.3149  0.6816 -0.0546
27299SOL     OW84149   1.901   5.964   0.851  0.4135 -0.1121  0.0719
27299SOL    HW184150   1.944   5.929   0.929  0.2405 -1.5847 -0.4586
27299SOL    HW284151   1.832   5.900   0.831 -0.1545  0.7224 -0.7557
27300SOL     OW84152   3.316   2.027   4.141 -0.3308 -0.0538  0.0470
27300SOL    HW184153   3.262   2.101   4.167 -0.5399 -0.2978  0.3106
27300SOL    HW284154   3.406   2.059   4.149 -0.4025 -0.0009  0.6931
27301SOL     OW84155   6.194   2.844   4.748 -0.4491  0.6599 -0.7640
27301SOL    HW184156   6.216   2.781   4.816 -0.3601  0.8482 -0.6177
27301SOL    HW284157   6.099   2.850   4.750 -0.5340 -0.2164 -1.4515
27302SOL     OW84158   2.397   8.383   7.198 -0.2877 -0.0972 -0.0147
27302SOL    HW184159   2.425   8.292   7.187 -0.9589 -0.2273 -0.7946
27302SOL    HW284160   2.477   8.431   7.217  0.3852 -0.5558 -1.5330
27303SOL     OW84161   4.384   2.750   8.960  0.9572 -0.1836  0.6396
27303SOL    HW184162   4.471   2.721   8.984  2.2685  1.6917 -1.4360
27303SOL    HW284163   4.384   2.747   8.864 -1.0505  0.4466  0.5786
27304SOL     OW84164   3.370   2.373   5.375 -0.0168 -0.6276  0.3482
27304SOL    HW184165   3.429   2.337   5.441 -0.5410  0.9454  1.7544
27304SOL    HW284166   3.422   2.438   5.329 -0.3848  0.2254  1.0901
27305SOL     OW84167   6.738   2.031   9.111  0.2836  0.1496  1.0143
27305SOL    HW184168   6.719   2.067   9.024 -0.4969 -1.1754  0.5919
27305SOL    HW284169   6.817   2.077   9.140  2.3882 -1.3936 -1.7144
27306SOL     OW84170  10.391   9.677   2.824 -0.0655 -1.1707 -0.0781
27306SOL    HW184171  10.393   9.586   2.855  2.1751 -1.5198 -1.1017
27306SOL    HW284172  10.436   9.675   2.740 -1.7862  0.5867 -1.1256
27307SOL     OW84173   5.616   1.252   5.984  0.0618 -0.3337 -0.0286
27307SOL    HW184174   5.623   1.317   5.915 -0.7757 -0.9481 -0.7158
27307SOL    HW284175   5.526   1.260   6.015  0.3003 -0.3643  0.7096
27308SOL     OW84176   5.156   8.106   0.830 -0.2612  0.5727  0.1942
27308SOL    HW184177   5.243   8.110   0.871  0.0999 -2.3244 -0.0963
27308SOL    HW284178   5.095   8.127   0.902  0.5837  0.4552  0.9668
27309SOL     OW84179   5.743   7.632   5.425  0.0294  0.6130 -0.4419
27309SOL    HW184180   5.648   7.642   5.427 -0.3606 -2.3936  0.5407
27309SOL    HW284181   5.777   7.712   5.465 -2.0916  1.4209 -0.1700
27310SOL     OW84182   5.365   1.102   2.617 -0.1526  0.2481 -0.0898
27310SOL    HW184183   5.326   1.148   2.691 -0.0600  1.7486 -0.9328
27310SOL    HW284184   5.455   1.083   2.645 -0.4802 -0.3151  0.6262
27311SOL     OW84185   5.770   7.452   3.616 -0.2468  0.2963  0.6385
27311SOL    HW184186   5.797   7.409   3.535 -0.4288 -0.0852  0.7775
27311SOL    HW284187   5.697   7.398   3.648  0.2874  0.0263  1.4248
27312SOL     OW84188   8.649   6.359   9.559  0.3912  0.2436 -0.0013
27312SOL    HW184189   8.723   6.418   9.577 -1.6988  2.8126  0.6894
27312SOL    HW284190   8.632   6.370   9.465  0.9398 -0.4550 -0.1896
27313SOL     OW84191   2.639   3.446   2.765 -0.3149  0.1490 -0.2478
27313SOL    HW184192   2.648   3.412   2.676  0.4432  0.6291 -0.3610
27313SOL    HW284193   2.603   3.373   2.815 -1.5499  0.1266 -1.1081
27314SOL     OW84194   6.824   1.119   5.279  0.1802  0.1793  0.0248
27314SOL    HW184195   6.807   1.192   5.219 -1.6590  2.5261  3.1103
27314SOL    HW284196   6.912   1.136   5.311  0.7386 -0.4552 -1.1170
27315SOL     OW84197   2.616   2.159   2.186 -0.0001 -0.2054 -0.3759
27315SOL    HW184198   2.630   2.238   2.134  1.7985  2.1943  3.3017
27315SOL    HW284199   2.531   2.172   2.228  1.1776  0.9663  1.8336
27316SOL     OW84200   0.474   3.066   0.219  0.4411  0.5073 -0.1757
27316SOL    HW184201   0.502   3.036   0.132 -0.7825 -0.3322 -0.3049
27316SOL    HW284202   0.551   3.111   0.255  0.7755  1.4667 -1.9547
27317SOL     OW84203   6.711   2.101   6.279  0.6464 -0.2955  0.3721
27317SOL    HW184204   6.796   2.071   6.308  0.7605 -0.6140 -0.2785
27317SOL    HW284205   6.721   2.196   6.268  0.4698 -0.0940  1.7841
27318SOL     OW84206   1.752  10.042  10.572 -0.3849 -0.1087  0.7845
27318SOL    HW184207   1.814  10.113  10.552  0.8430 -1.4275 -0.3377
27318SOL    HW284208   1.696  10.037  10.495 -0.1381 -0.6675  0.6360
27319SOL     OW84209   1.827   1.356   6.583  0.3435 -0.2785 -0.2970
27319SOL    HW184210   1.880   1.428   6.617 -1.1660  0.0789  1.4902
27319SOL    HW284211   1.745   1.397   6.555 -0.5913 -1.2498  0.8703
27320SOL     OW84212   3.122  10.186   6.486 -0.5819 -0.5654  0.9534
27320SOL    HW184213   3.092  10.233   6.409  0.0861  0.6398  1.4003
27320SOL    HW284214   3.043  10.147   6.523 -1.3165  0.9907  1.0764
27321SOL     OW84215   4.125   3.604   1.792  0.1566 -0.2545  0.2053
27321SOL    HW184216   4.093   3.655   1.717 -0.1305 -2.7759 -1.5299
27321SOL    HW284217   4.052   3.605   1.854 -0.6629 -0.3038 -0.7282
27322SOL     OW84218   8.399   4.045   9.488  0.1346  0.4673  0.0515
27322SOL    HW184219   8.371   3.955   9.468 -0.3067  0.9215 -1.5210
27322SOL    HW284220   8.317   4.094   9.495  0.3662  0.7259  1.1406
27323SOL     OW84221   9.547   1.152   2.428 -0.3543  0.1619 -0.1516
27323SOL    HW184222   9.485   1.159   2.500  2.0892  0.4476  2.0617
27323SOL    HW284223   9.566   1.058   2.421 -0.1061  0.2006  0.0060
27324SOL     OW84224   9.282   7.834   7.449  1.0312 -0.3613 -0.3463
27324SOL    HW184225   9.292   7.763   7.385  0.2479  0.8279 -1.8312
27324SOL    HW284226   9.369   7.874   7.454  0.4796  1.4015 -2.9836
27325SOL     OW84227   1.296   0.614   7.230 -0.1182  0.2201  0.0524
27325SOL    HW184228   1.341   0.549   7.177  1.8046  0.8810  0.7902
27325SOL    HW284229   1.295   0.693   7.176  1.7072  0.8507  0.8659
27326SOL     OW84230   1.621   5.763   2.271 -0.8534  0.1420  0.8345
27326SOL    HW184231   1.660   5.683   2.236 -0.2296  0.3152  1.1239
27326SOL    HW284232   1.548   5.733   2.325 -1.9255 -0.1269 -0.6905
27327SOL     OW84233  10.409   6.964   2.385 -0.8236  0.4804 -0.2365
27327SOL    HW184234  10.439   7.053   2.402  1.4173 -0.4798  1.1711
27327SOL    HW284235  10.386   6.929   2.471 -1.8727 -0.2614 -0.7906
27328SOL     OW84236   2.246   4.913   8.689 -0.1619  0.3491  0.0526
27328SOL    HW184237   2.257   4.994   8.739  1.4559  0.9413 -1.1813
27328SOL    HW284238   2.159   4.922   8.649 -0.1554  1.3213  0.2271
27329SOL     OW84239   4.188   4.777   7.092  0.3327 -0.0544 -0.6577
27329SOL    HW184240   4.098   4.799   7.118  0.8507  1.9004 -0.3152
27329SOL    HW284241   4.234   4.764   7.175  1.0954  2.3643 -0.6055
27330SOL     OW84242   6.966   1.335   0.219 -0.2246  0.2904  0.2768
27330SOL    HW184243   6.929   1.411   0.174 -1.5821 -0.0783  0.7329
27330SOL    HW284244   6.906   1.319   0.292  0.5422 -0.6768  0.7171
27331SOL     OW84245   5.515  10.128   3.235  0.1838  0.1471  0.2765
27331SOL    HW184246   5.602  10.113   3.198  0.7028 -0.3079  1.6042
27331SOL    HW284247   5.511  10.222   3.252  0.9338  0.0011  1.3694
27332SOL     OW84248   6.154   1.813   3.101  0.8752 -0.2225 -0.0157
27332SOL    HW184249   6.235   1.764   3.087  0.7840 -0.6915  1.0158
27332SOL    HW284250   6.182   1.905   3.101  1.1485 -0.2790 -1.2718
27333SOL     OW84251   3.671   2.905   5.050 -0.3647 -0.4402  0.2397
27333SOL    HW184252   3.734   2.958   5.001 -0.6510 -0.5743 -0.2918
27333SOL    HW284253   3.591   2.959   5.051 -0.6702 -0.8663 -0.3429
27334SOL     OW84254   9.415   3.323   9.484  0.0595  0.7801  0.3924
27334SOL    HW184255   9.451   3.299   9.398 -2.4121 -0.3184 -0.4207
27334SOL    HW284256   9.468   3.274   9.547 -0.2367 -1.1583 -0.7828
27335SOL     OW84257   8.796   0.683   4.413  0.7469  0.0011 -0.1294
27335SOL    HW184258   8.753   0.629   4.348  0.6178 -0.3589  0.2531
27335SOL    HW284259   8.828   0.621   4.479  0.6890  0.3732  0.2554
27336SOL     OW84260   3.463   7.991   6.470 -0.1952 -0.2963  0.3093
27336SOL    HW184261   3.437   7.923   6.407  1.3364 -0.4403 -0.2181
27336SOL    HW284262   3.473   8.070   6.417 -1.6286  0.2940  0.8654
27337SOL     OW84263   0.701  10.594   6.526 -0.3392 -0.4007 -0.1574
27337SOL    HW184264   0.736  10.528   6.586 -0.7726 -0.7887 -0.3310
27337SOL    HW284265   0.775  10.653   6.511 -0.6764  0.7797  2.2266
27338SOL     OW84266   7.968  10.094   2.973  0.4708 -0.3796 -0.2607
27338SOL    HW184267   7.899  10.133   3.027  0.8049 -0.2017  0.0444
27338SOL    HW284268   7.995  10.016   3.022 -0.2451 -1.0430 -0.9060
27339SOL     OW84269   9.757   7.741   5.442 -0.2444 -0.6018  0.4645
27339SOL    HW184270   9.809   7.741   5.522 -0.3511  0.6859  0.5519
27339SOL    HW284271   9.792   7.667   5.391  2.5077  0.8744  0.0015
27340SOL     OW84272   7.348   8.157  10.048  0.3056  0.7938 -0.2877
27340SOL    HW184273   7.436   8.161  10.086  0.4635 -0.2999 -0.5062
27340SOL    HW284274   7.329   8.064  10.040 -0.3299  0.9989 -1.5034
27341SOL     OW84275   5.711   9.851   6.919 -0.0576 -0.8855 -0.5995
27341SOL    HW184276   5.794   9.851   6.871  0.0645 -2.2929 -0.4439
27341SOL    HW284277   5.645   9.871   6.852  0.4152  0.7008 -0.6370
27342SOL     OW84278   2.981   1.225   1.093 -0.2036  0.0836 -0.3155
27342SOL    HW184279   2.972   1.319   1.111  2.9631  0.3961  0.3537
27342SOL    HW284280   2.962   1.216   0.999 -1.6985  1.1437 -0.1469
27343SOL     OW84281   4.719   1.868  10.572  0.3660 -0.0679  0.2636
27343SOL    HW184282   4.729   1.910  10.657  0.1362  0.2231  0.1481
27343SOL    HW284283   4.720   1.774  10.591 -0.7721 -0.0067  0.7156
27344SOL     OW84284   2.185   5.118   1.537 -0.3019  0.2868 -0.0089
27344SOL    HW184285   2.141   5.138   1.455 -0.4343  2.4572  0.5329
27344SOL    HW284286   2.139   5.042   1.572 -0.9122 -0.0144 -1.4331
27345SOL     OW84287   7.954   6.568   5.331 -0.5650 -0.2677  0.2639
27345SOL    HW184288   7.861   6.544   5.341 -0.4497 -0.8533  0.0029
27345SOL    HW284289   7.989   6.502   5.271 -0.3612  0.9230 -0.9646
27346SOL     OW84290  10.397   5.504   9.655  1.3084 -0.0508 -0.0983
27346SOL    HW184291  10.415   5.592   9.689 -0.8685 -0.4528  2.4439
27346SOL    HW284292  10.466   5.449   9.691  2.2067  0.4277 -1.0291
27347SOL     OW84293  10.328   2.469   4.959 -0.5102  0.3173  0.7437
27347SOL    HW184294  10.342   2.387   5.007 -2.3841 -0.0522  0.7327
27347SOL    HW284295  10.353   2.538   5.020 -1.2459 -0.2033  1.6689
27348SOL     OW84296   1.047   9.381   7.295 -0.3241  0.4214  0.0015
27348SOL    HW184297   0.975   9.318   7.303 -0.7322  0.8798  0.0133
27348SOL    HW284298   1.014   9.460   7.337  1.0196 -0.0319  2.0636
27349SOL     OW84299   6.098   1.933   4.549 -0.0999  0.0646  0.0680
27349SOL    HW184300   6.123   2.024   4.568 -1.6271  0.4289  0.4618
27349SOL    HW284301   6.167   1.902   4.490  0.0372  1.7448 -0.7391
27350SOL     OW84302   0.247   1.875   0.459 -0.2656 -0.4452 -0.3017
27350SOL    HW184303   0.169   1.823   0.440 -0.7695 -0.0267  0.5894
27350SOL    HW284304   0.222   1.965   0.439 -0.2590 -0.2120  0.7088
27351SOL     OW84305   3.824   2.052   4.703 -0.2178  0.4607 -0.2607
27351SOL    HW184306   3.831   1.958   4.688 -0.0332  0.5200 -0.5662
27351SOL    HW284307   3.835   2.091   4.616  1.3174  0.8318  0.0595
27352SOL     OW84308   6.698   8.530   8.293 -0.0777  0.5068  0.1000
27352SOL    HW184309   6.659   8.566   8.373  2.6098  2.3403  0.7214
27352SOL    HW284310   6.736   8.447   8.321  2.1967  1.8276  1.2714
27353SOL     OW84311   2.321   4.167   6.964  0.2013  0.2675  0.2675
27353SOL    HW184312   2.273   4.085   6.976 -0.6419  0.3729 -1.9036
27353SOL    HW284313   2.405   4.153   7.007 -0.3598 -1.3260  0.8973
27354SOL     OW84314   5.422   5.311   8.117 -0.5251  0.1449  0.2460
27354SOL    HW184315   5.458   5.315   8.028 -0.8452 -2.1317 -0.0381
27354SOL    HW284316   5.470   5.240   8.159 -2.6484 -1.0476  0.7918
27355SOL     OW84317   8.042  10.578   6.373 -0.4263  0.2211  0.0757
27355SOL    HW184318   8.011  10.527   6.298  0.8441  1.4493 -1.3467
27355SOL    HW284319   8.121  10.533   6.402 -1.1200 -0.4675  0.9635
27356SOL     OW84320  10.539   0.184   1.381  0.6682 -0.2751  0.1841
27356SOL    HW184321  10.552   0.265   1.431 -1.4871  0.0471  0.2901
27356SOL    HW284322  10.576   0.203   1.295 -0.9218  1.3304 -0.2009
27357SOL     OW84323   5.673   3.272   1.274  0.3631 -0.1392  0.3364
27357SOL    HW184324   5.752   3.229   1.242  0.1497  0.4929 -1.1171
27357SOL    HW284325   5.672   3.357   1.230 -2.4100 -1.0816 -1.6826
27358SOL     OW84326   8.204   2.835   1.900  0.0342  0.4532  0.1283
27358SOL    HW184327   8.282   2.886   1.922  0.0967  0.5840 -0.3926
27358SOL    HW284328   8.204   2.829   1.805 -1.0247  1.1270  0.0690
27359SOL     OW84329   1.521   7.017   2.189 -0.1718 -0.6954 -0.0265
27359SOL    HW184330   1.460   7.091   2.185  0.9833  0.2321 -1.3047
27359SOL    HW284331   1.483   6.959   2.255 -1.5019  0.6750  0.4805
27360SOL     OW84332   5.173   5.896   4.919 -0.2663  0.5024 -0.1282
27360SOL    HW184333   5.235   5.901   4.846 -0.4041 -3.5126 -0.7199
27360SOL    HW284334   5.089   5.876   4.879 -0.7801  0.2716  1.0145
27361SOL     OW84335  10.391   1.076   0.597  0.0903  1.0005  0.2966
27361SOL    HW184336  10.337   1.145   0.635 -0.3688  1.3779 -0.9982
27361SOL    HW284337  10.415   1.108   0.510  0.9479  0.0807  0.1603
27362SOL     OW84338   5.373   9.933   5.620  0.2009  0.4968 -0.7954
27362SOL    HW184339   5.319   9.889   5.686 -0.3922 -1.3685 -2.4064
27362SOL    HW284340   5.390  10.020   5.656 -1.0325 -0.0566  1.2788
27363SOL     OW84341   7.837   1.918   7.343  0.0950 -0.5047 -0.5437
27363SOL    HW184342   7.854   1.997   7.291  2.3470 -2.3478 -2.8770
27363SOL    HW284343   7.859   1.944   7.433  1.9726  1.2334 -1.4137
27364SOL     OW84344   8.669   1.472   7.472 -0.5803 -0.2799 -0.2252
27364SOL    HW184345   8.649   1.385   7.437  2.2091 -1.3977  0.6745
27364SOL    HW284346   8.637   1.470   7.562  1.5230 -1.3463  0.5749
27365SOL     OW84347   7.302   5.347   3.834  0.1942 -0.1546  0.4466
27365SOL    HW184348   7.388   5.363   3.796  0.3162 -0.2613  0.6775
27365SOL    HW284349   7.274   5.433   3.866  0.9002 -0.3969  1.7904
27366SOL     OW84350   4.653   6.765   4.100  0.0336 -0.1461  0.5132
27366SOL    HW184351   4.714   6.692   4.106  1.1105  0.5631 -1.1006
27366SOL    HW284352   4.707   6.841   4.079 -1.4528  0.2527 -2.4028
27367SOL     OW84353   7.974   2.943   7.971  0.3997 -0.0655  0.4359
27367SOL    HW184354   7.925   2.865   7.945 -1.1593  1.1908 -0.6370
27367SOL    HW284355   7.924   3.016   7.934  2.0178  1.4327  1.0501
27368SOL     OW84356   6.963   3.712   4.013 -0.0348 -0.1321 -0.6116
27368SOL    HW184357   7.043   3.691   3.964  1.0270  0.7035  0.7032
27368SOL    HW284358   6.974   3.666   4.096  0.5553  2.3866  0.7964
27369SOL     OW84359   5.667   0.248   5.888 -0.6577  0.5177  0.5815
27369SOL    HW184360   5.760   0.229   5.905  0.0304  1.9392 -1.2562
27369SOL    HW284361   5.620   0.191   5.949  1.3661 -1.5407  0.3896
27370SOL     OW84362   2.086   5.944   5.528  0.8919  0.3676  0.4222
27370SOL    HW184363   2.134   5.916   5.450  0.2856 -0.0839  0.1997
27370SOL    HW284364   2.037   6.021   5.500  0.2539 -0.1120  0.1973
27371SOL     OW84365   8.531   8.692   4.424 -0.0303  0.1653  0.0636
27371SOL    HW184366   8.626   8.682   4.418 -0.0941  0.1825 -1.7835
27371SOL    HW284367   8.497   8.603   4.433  0.1326  0.0787 -0.1621
27372SOL     OW84368   1.012   9.351   1.297  0.2741 -0.1391 -0.4949
27372SOL    HW184369   0.999   9.391   1.211 -3.2756  0.1443  0.0333
27372SOL    HW284370   1.013   9.425   1.358 -0.0530 -0.4898 -0.0573
27373SOL     OW84371  10.427   2.480   3.659 -0.5155  0.3267  0.8247
27373SOL    HW184372  10.488   2.522   3.720  0.4250  4.3426 -2.4673
27373SOL    HW284373  10.353   2.453   3.714  1.7235  0.3493  4.1382
27374SOL     OW84374   1.639   5.701   6.679 -0.9224 -0.2359  0.4940
27374SOL    HW184375   1.659   5.629   6.739 -0.3167  0.0745  0.6757
27374SOL    HW284376   1.563   5.744   6.718 -2.3211 -1.7216 -0.4585
27375SOL     OW84377   3.942   3.190   5.540 -0.1666  0.0207 -0.3805
27375SOL    HW184378   3.990   3.229   5.613 -1.2423 -1.1630  1.0291
27375SOL    HW284379   3.906   3.265   5.492 -0.8225  0.8188  1.2896
27376SOL     OW84380   3.769   9.926   9.992 -0.0972  0.0122  0.5127
27376SOL    HW184381   3.685   9.927  10.040  0.9468  0.2054  2.4462
27376SOL    HW284382   3.824   9.867  10.042  0.6175 -1.0194 -1.3940
27377SOL     OW84383   0.450   5.346   4.010 -0.1989  0.5366  0.4477
27377SOL    HW184384   0.436   5.252   4.023  0.3749  0.4102  0.1916
27377SOL    HW284385   0.381   5.388   4.060 -1.6103 -0.0520 -0.9130
27378SOL     OW84386   1.821   2.051   2.204 -0.0058  0.0355 -0.2837
27378SOL    HW184387   1.838   1.977   2.146  0.3105  0.9135 -1.3507
27378SOL    HW284388   1.908   2.084   2.227 -0.1315  1.5089 -1.7547
27379SOL     OW84389   2.481  10.211   5.282 -0.3314 -0.1076  0.4856
27379SOL    HW184390   2.479  10.140   5.347 -0.0521  0.1505  0.7758
27379SOL    HW284391   2.501  10.166   5.199  1.1820 -0.2173  0.8853
27380SOL     OW84392   3.798   6.552   0.613  0.0194 -0.0799  0.5986
27380SOL    HW184393   3.780   6.542   0.707 -1.2004  0.2935  0.4172
27380SOL    HW284394   3.813   6.463   0.582 -1.7163 -0.4609  0.7474
27381SOL     OW84395   2.595   4.213   1.329 -0.0478  0.2703  0.2338
27381SOL    HW184396   2.555   4.143   1.380  2.4809 -1.0190  0.6324
27381SOL    HW284397   2.537   4.225   1.254 -1.4570 -1.0098  1.0725
27382SOL     OW84398   7.192   9.404   7.736 -0.3511 -0.0914 -0.5231
27382SOL    HW184399   7.101   9.415   7.765 -0.2156  2.0901 -0.7892
27382SOL    HW284400   7.240   9.384   7.816 -1.2227 -2.8406 -0.5802
27383SOL     OW84401   0.492   8.695   3.005  0.6318  0.3764  0.0961
27383SOL    HW184402   0.446   8.775   3.032  0.0122 -0.2069  0.8389
27383SOL    HW284403   0.439   8.624   3.042  1.9786 -0.3336  0.7218
27384SOL     OW84404   6.910   3.285   9.568  0.3088  0.0250 -0.6308
27384SOL    HW184405   6.993   3.297   9.615 -0.0839 -0.2130  0.1379
27384SOL    HW284406   6.900   3.190   9.562 -1.1715 -0.0382  1.6208
27385SOL     OW84407   1.431   2.910   4.779 -0.0813  0.4911 -0.1716
27385SOL    HW184408   1.435   2.882   4.687 -1.1490  0.9225 -0.3633
27385SOL    HW284409   1.510   2.962   4.792 -0.1463  0.7959 -0.9748
27386SOL     OW84410   1.174   2.216   6.446 -0.3140 -0.0267  0.3155
27386SOL    HW184411   1.144   2.207   6.355 -2.2258 -1.4294  1.0298
27386SOL    HW284412   1.108   2.271   6.487 -0.0790 -0.3478  1.1300
27387SOL     OW84413   2.012   9.243   0.060 -0.7725 -0.2780 -0.0092
27387SOL    HW184414   2.077   9.268  -0.006 -2.1896 -0.1527 -1.4251
27387SOL    HW284415   2.064   9.213   0.134  0.9403 -1.7695 -1.6871
27388SOL     OW84416   8.707   6.559   4.142 -0.1842 -0.2330  0.5033
27388SOL    HW184417   8.705   6.535   4.235 -1.3652 -0.7141  0.3685
27388SOL    HW284418   8.629   6.613   4.130 -0.2734 -0.5368 -0.3020
27389SOL     OW84419   2.245   6.990   5.512  0.2147  0.6290 -0.6120
27389SOL    HW184420   2.337   6.991   5.536  0.0114  1.6499  0.1857
27389SOL    HW284421   2.236   7.061   5.448 -0.0330  0.5992 -0.6127
27390SOL     OW84422  10.483   6.934   8.116  0.0899  0.1442  0.2608
27390SOL    HW184423  10.569   6.895   8.129 -0.1942 -0.2553  0.9789
27390SOL    HW284424  10.421   6.866   8.142 -0.4691  0.1858 -0.8942
27391SOL     OW84425   0.190   1.585  10.079 -0.1555  0.3201  0.2529
27391SOL    HW184426   0.215   1.628  10.162  1.1657 -1.0283  0.5960
27391SOL    HW284427   0.105   1.545  10.097 -0.4175  1.0086  0.5844
27392SOL     OW84428   2.643   0.837   6.570 -0.0911  0.8135 -0.6840
27392SOL    HW184429   2.654   0.903   6.638 -1.5348 -0.0275  0.4054
27392SOL    HW284430   2.727   0.791   6.568  0.2945  1.4767 -0.1606
27393SOL     OW84431   8.110   2.948   7.447  0.1179  0.1201 -0.3020
27393SOL    HW184432   8.193   2.918   7.410  0.4876  2.7014 -1.7629
27393SOL    HW284433   8.090   2.883   7.515  2.4424 -1.5072 -1.0325
27394SOL     OW84434   0.686   6.262   0.146  0.3744  0.3178 -0.5348
27394SOL    HW184435   0.735   6.330   0.193 -0.9107 -0.2006  1.7367
27394SOL    HW284436   0.743   6.185   0.148 -0.2045 -0.1263  1.6139
27395SOL     OW84437   0.295  10.441   5.293  0.0019 -0.1139  0.2842
27395SOL    HW184438   0.246  10.483   5.364 -3.3222  0.4047 -2.0713
27395SOL    HW284439   0.228  10.404   5.236  2.4049 -0.0123 -2.8923
27396SOL     OW84440  10.028   0.286   5.979 -0.3259 -0.1335 -0.1101
27396SOL    HW184441  10.105   0.283   5.922  1.7201 -1.0404  2.5236
27396SOL    HW284442  10.061   0.313   6.064 -3.4356  2.3083  0.5233
27397SOL     OW84443   9.686   9.900   9.302  0.1724  0.1825 -0.6283
27397SOL    HW184444   9.694   9.805   9.309 -3.3349 -0.3208 -1.5829
27397SOL    HW284445   9.721   9.920   9.215  1.5895 -0.0664 -0.1469
27398SOL     OW84446   1.359   4.138   9.284 -0.1401  0.2085  0.0942
27398SOL    HW184447   1.450   4.109   9.271 -0.4639  0.0951 -2.5170
27398SOL    HW284448   1.366   4.232   9.299  0.4682 -0.0202  1.4069
27399SOL     OW84449   3.281   2.108   4.564 -0.3628 -0.0969  0.3849
27399SOL    HW184450   3.282   2.189   4.615  0.3291 -0.8945  1.6894
27399SOL    HW284451   3.308   2.040   4.626 -1.4521 -1.4215 -0.5373
27400SOL     OW84452   8.429   0.112   9.582  0.8329 -0.0130  0.3511
27400SOL    HW184453   8.465   0.055   9.650  1.2276  0.0538  0.2028
27400SOL    HW284454   8.466   0.078   9.501  0.4145 -0.0515  0.1778
27401SOL     OW84455  10.256   1.599   1.273  0.0361 -0.0096 -0.6321
27401SOL    HW184456  10.336   1.652   1.274 -0.2937  0.4912 -0.5556
27401SOL    HW284457  10.267   1.538   1.347  1.0101 -0.9614 -1.5230
27402SOL     OW84458   2.932   4.566  10.096  0.1441  0.5648 -0.2452
27402SOL    HW184459   3.017   4.534  10.126 -0.0317  1.5685  1.4857
27402SOL    HW284460   2.954   4.633  10.031  0.6420  0.2142 -0.4465
27403SOL     OW84461   8.297   3.357   6.359 -0.1461  0.0065  0.9454
27403SOL    HW184462   8.255   3.284   6.314  1.2227 -2.4591  3.3278
27403SOL    HW284463   8.236   3.430   6.350 -1.8652 -1.5643 -1.0604
27404SOL     OW84464   0.465   8.801   6.090  0.4991  0.6541  0.7161
27404SOL    HW184465   0.401   8.769   6.026  1.1112  0.6622  0.0807
27404SOL    HW284466   0.469   8.896   6.073  1.8492  0.4429 -0.3724
27405SOL     OW84467   0.182   4.182   4.074  0.6006 -0.0904 -0.3098
27405SOL    HW184468   0.192   4.088   4.084  0.3270 -0.0341  0.5124
27405SOL    HW284469   0.209   4.219   4.158  0.4030  0.5408 -0.5146
27406SOL     OW84470   0.614   9.159   3.628 -0.6082 -0.2106 -0.5558
27406SOL    HW184471   0.556   9.231   3.602 -0.9411  0.9391  2.8995
27406SOL    HW284472   0.556   9.083   3.633 -0.7233 -0.2452 -1.9835
27407SOL     OW84473   2.937   6.980   2.904 -0.1034 -0.1925 -0.3961
27407SOL    HW184474   2.868   7.047   2.903  0.1748  0.0972 -0.8583
27407SOL    HW284475   2.939   6.948   2.994  1.1160  1.8449  0.3793
27408SOL     OW84476   2.370   5.530   8.839  0.0881  0.4729  0.1212
27408SOL    HW184477   2.449   5.514   8.789  1.3148  0.8881  1.8385
27408SOL    HW284478   2.380   5.619   8.873 -1.1659  0.5726  0.2865
27409SOL     OW84479   7.907   4.033   2.003 -0.4448 -0.3188 -0.5519
27409SOL    HW184480   7.863   3.999   1.925 -0.5696  1.1850 -1.1518
27409SOL    HW284481   7.999   4.037   1.979  0.0477 -2.9283  0.5169
27410SOL     OW84482   7.397   1.897   4.420  0.1743 -0.1893  0.1210
27410SOL    HW184483   7.461   1.927   4.484 -2.1297  0.2717  2.3539
27410SOL    HW284484   7.443   1.902   4.336  2.3681  2.1644  1.3226
27411SOL     OW84485   4.545   4.208   7.134 -0.0318  0.0325 -0.3574
27411SOL    HW184486   4.556   4.211   7.229  0.7362 -1.4766 -0.3723
27411SOL    HW284487   4.489   4.283   7.114  0.2959  0.7311  1.2065
27412SOL     OW84488   8.719   0.307   8.979 -0.4463  0.1299 -0.3850
27412SOL    HW184489   8.646   0.360   8.947 -0.2053  1.9254  1.8047
27412SOL    HW284490   8.688   0.272   9.062  0.6594 -0.3599 -0.1654
27413SOL     OW84491   2.573   4.772   6.519 -0.2937 -0.1397 -0.0149
27413SOL    HW184492   2.482   4.745   6.527 -0.0915 -1.0486 -0.6602
27413SOL    HW284493   2.571   4.852   6.467 -0.7679  0.1897  0.5026
27414SOL     OW84494   2.072   6.473   0.780 -0.5210 -0.8319 -0.0848
27414SOL    HW184495   2.013   6.528   0.727 -0.6685 -1.9511 -1.1196
27414SOL    HW284496   2.114   6.415   0.717  0.2744 -1.3414  0.8853
27415SOL     OW84497   9.842   1.549   1.560 -0.0209 -0.0814  0.6574
27415SOL    HW184498   9.926   1.595   1.551  0.0529  0.0112  1.6785
27415SOL    HW284499   9.827   1.510   1.474 -0.3629  2.3252 -0.4583
27416SOL     OW84500   9.274   4.719   9.864  0.0602  0.2437 -0.3349
27416SOL    HW184501   9.235   4.768   9.791  1.8344  2.4119  0.0908
27416SOL    HW284502   9.358   4.688   9.830  0.2330 -0.0159  0.3110
27417SOL     OW84503   9.799   7.908   0.092 -0.5256  0.3235 -0.4408
27417SOL    HW184504   9.842   7.917   0.007  0.3947  0.5601  0.0242
27417SOL    HW284505   9.754   7.824   0.088 -0.1620  0.1504 -1.0331
27418SOL     OW84506   8.329   7.954   6.943 -0.4720 -0.1423 -0.0868
27418SOL    HW184507   8.363   8.028   6.892 -2.2870  0.4603 -0.5049
27418SOL    HW284508   8.310   7.992   7.029  0.2455 -0.5702  0.2710
27419SOL     OW84509   4.638   6.906   1.679 -0.0945 -0.0421  0.5328
27419SOL    HW184510   4.674   6.874   1.761 -1.9803  0.9337  1.8137
27419SOL    HW284511   4.620   6.826   1.628  1.7856 -0.6188  0.6930
27420SOL     OW84512   6.406   9.514   4.754  0.8286  0.5760  0.5362
27420SOL    HW184513   6.387   9.594   4.803  0.9364  0.7620  0.2776
27420SOL    HW284514   6.501   9.513   4.745  0.7384  1.1585 -0.6800
27421SOL     OW84515   5.054   8.845   6.026 -0.2859 -0.6444 -0.1969
27421SOL    HW184516   5.060   8.796   6.109  0.7073  0.7933  0.6302
27421SOL    HW284517   4.988   8.798   5.975 -1.9307 -0.8265  1.9472
27422SOL     OW84518   7.651   1.553   2.224 -0.1993 -0.0194  0.0908
27422SOL    HW184519   7.558   1.561   2.206  0.1523  2.1132 -1.1968
27422SOL    HW284520   7.694   1.570   2.140  1.3690 -0.5336  0.7378
27423SOL     OW84521   0.499   1.053   3.372  0.2732 -0.2300  0.2453
27423SOL    HW184522   0.530   1.091   3.289 -2.4301 -0.2003 -0.8846
27423SOL    HW284523   0.451   0.975   3.345 -0.3050 -0.4484  1.8323
27424SOL     OW84524   2.337   3.887   9.155  0.1264 -0.1046 -0.3381
27424SOL    HW184525   2.309   3.978   9.146 -2.1436 -0.7074 -0.0378
27424SOL    HW284526   2.309   3.862   9.243  0.1658 -1.2677 -0.6376
27425SOL     OW84527   9.294   2.988   5.639  0.4137  0.4703 -0.4650
27425SOL    HW184528   9.387   2.998   5.620  0.6524 -0.1723  0.3389
27425SOL    HW284529   9.266   2.911   5.590  0.5964 -0.0688  0.2649
27426SOL     OW84530   7.874   4.306   1.115 -0.1017  0.3420  0.5792
27426SOL    HW184531   7.907   4.308   1.025 -0.6147 -1.1522  0.3298
27426SOL    HW284532   7.950   4.327   1.169  0.8383 -1.2287 -0.0871
27427SOL     OW84533   1.325  10.297   2.519  0.4800  0.3130 -0.2706
27427SOL    HW184534   1.273  10.332   2.447  0.4663 -0.5394 -0.6893
27427SOL    HW284535   1.289  10.338   2.597 -0.4832  0.1293 -0.6057
27428SOL     OW84536   9.860   2.220   9.796  1.0527  0.9052  0.3492
27428SOL    HW184537   9.787   2.159   9.782  0.5322  1.8603 -1.4919
27428SOL    HW284538   9.890   2.202   9.885 -1.3507  0.3961  1.1234
27429SOL     OW84539   7.712   4.075   4.387 -0.2636 -0.1029  0.9628
27429SOL    HW184540   7.719   4.095   4.293 -1.0003 -1.4516  0.5972
27429SOL    HW284541   7.729   4.159   4.430 -2.5089  1.1925 -0.4507
27430SOL     OW84542   8.446   6.619   3.715 -0.2358  0.1229  0.2534
27430SOL    HW184543   8.407   6.532   3.725 -0.0483 -0.2552 -1.8597
27430SOL    HW284544   8.383   6.678   3.756 -1.9254 -0.6998 -1.0202
27431SOL     OW84545   3.941   8.712   0.383 -0.3420  0.0161  0.2337
27431SOL    HW184546   3.970   8.719   0.474  0.7109 -0.4084 -0.0544
27431SOL    HW284547   3.921   8.619   0.371 -0.9590  0.1507  0.1574
27432SOL     OW84548   8.034   7.802   8.080  0.0276  0.2271  0.2873
27432SOL    HW184549   8.099   7.827   8.014 -0.5315  0.5296 -0.1494
27432SOL    HW284550   8.075   7.728   8.127  0.3086 -0.1776 -0.5803
27433SOL     OW84551   9.658   6.852   2.599  0.5789 -0.2811 -0.3100
27433SOL    HW184552   9.615   6.811   2.524  0.7050 -0.5775 -0.2223
27433SOL    HW284553   9.671   6.943   2.572  0.5468 -0.3639 -0.6153
27434SOL     OW84554   2.613   5.519   5.789 -0.0898 -0.0214  0.2873
27434SOL    HW184555   2.655   5.564   5.862  0.1012  1.5426 -0.7442
27434SOL    HW284556   2.564   5.447   5.830 -0.6875  1.3203  2.0539
27435SOL     OW84557   9.673   6.638   5.288 -0.4657  0.2946  0.1034
27435SOL    HW184558   9.686   6.731   5.307  1.3894  0.2830 -0.8618
27435SOL    HW284559   9.679   6.632   5.192 -0.5957 -0.8195  0.1492
27436SOL     OW84560   9.186   2.243   9.361  0.8699 -0.0741 -0.6740
27436SOL    HW184561   9.235   2.160   9.359  0.3250 -0.3941 -1.1140
27436SOL    HW284562   9.113   2.228   9.301  0.6323  0.6466 -0.5632
27437SOL     OW84563   8.271   0.064   2.006 -0.0863  0.4346  0.2500
27437SOL    HW184564   8.186   0.020   2.017 -0.4612  1.2099  0.5444
27437SOL    HW284565   8.275   0.085   1.913 -1.3728  2.5939  0.5948
27438SOL     OW84566   3.954   5.432   1.299 -0.1664  0.0032  0.4594
27438SOL    HW184567   3.865   5.402   1.313 -0.5779  1.9501  2.6402
27438SOL    HW284568   3.945   5.514   1.251  0.3708  0.5132  1.2029
27439SOL     OW84569   9.910   4.590   9.779  0.1769  0.2177  0.1171
27439SOL    HW184570   9.962   4.583   9.700  2.4008  1.2437  1.3775
27439SOL    HW284571   9.861   4.672   9.769 -3.7531 -2.1390 -2.3562
27440SOL     OW84572   1.862   0.176   7.587 -0.1858 -0.4084  0.4580
27440SOL    HW184573   1.804   0.118   7.637  1.9548 -1.8864  1.3797
27440SOL    HW284574   1.831   0.168   7.496 -3.1841  1.1353  1.2028
27441SOL     OW84575   5.228   8.101   9.838 -0.0110  0.7642  0.4084
27441SOL    HW184576   5.182   8.062   9.912 -0.9668 -0.0818 -0.6034
27441SOL    HW284577   5.198   8.051   9.762  1.9438  0.7412 -0.3993
27442SOL     OW84578   0.304   7.174   3.267  0.0942 -0.0928 -0.2049
27442SOL    HW184579   0.264   7.243   3.215 -0.5736 -0.3884 -0.0844
27442SOL    HW284580   0.381   7.147   3.215  0.3202  0.6787 -0.2865
27443SOL     OW84581   8.714   9.244   7.064 -0.4245 -0.3056  0.5342
27443SOL    HW184582   8.727   9.262   7.157  2.4969 -0.0312  0.1574
27443SOL    HW284583   8.771   9.170   7.045  0.5875  0.8850 -1.4197
27444SOL     OW84584   9.695   9.067   8.697 -0.5232 -0.8450  0.9262
27444SOL    HW184585   9.770   9.070   8.639 -2.2418 -1.0499 -1.4496
27444SOL    HW284586   9.693   9.153   8.738  1.0344 -0.8762  1.1122
27445SOL     OW84587   8.752   5.680   6.620  0.5648 -0.0804 -0.1046
27445SOL    HW184588   8.779   5.616   6.554  1.0833 -0.6468  0.6365
27445SOL    HW284589   8.669   5.646   6.654 -0.1622  0.6732 -1.0580
27446SOL     OW84590  10.336   8.740   3.696 -0.4429  0.0678  0.3171
27446SOL    HW184591  10.282   8.703   3.765  0.7100  0.7546  1.6226
27446SOL    HW284592  10.419   8.761   3.738 -0.0129  1.3226 -1.0650
27447SOL     OW84593   0.859   8.419   8.692 -0.1527  0.0084  0.0487
27447SOL    HW184594   0.910   8.488   8.649 -1.0623  0.3081 -0.5613
27447SOL    HW284595   0.779   8.462   8.720 -1.1184 -0.9623 -1.1032
27448SOL     OW84596   5.061   0.406   0.699  0.4544  0.5511 -0.1045
27448SOL    HW184597   5.106   0.326   0.673 -0.2119  0.1812 -0.1525
27448SOL    HW284598   5.011   0.381   0.777  0.4534  0.9883  0.0382
27449SOL     OW84599   3.191  10.250   5.152  0.0970  0.0340  0.2518
27449SOL    HW184600   3.193  10.340   5.121 -1.9189  0.2754  0.6462
27449SOL    HW284601   3.134  10.205   5.089  1.0247 -0.9484  0.1009
27450SOL     OW84602   0.833   2.748   3.016 -0.2337  0.0635  0.3488
27450SOL    HW184603   0.898   2.774   2.950  1.1727 -0.1176  1.6137
27450SOL    HW284604   0.750   2.744   2.967  1.0298 -1.9033 -1.8720
27451SOL     OW84605   7.151   9.769   7.880  0.6622 -0.1539  0.1036
27451SOL    HW184606   7.235   9.731   7.906 -0.0703 -2.3182 -0.4944
27451SOL    HW284607   7.087   9.698   7.892 -0.6520  0.6026 -1.8734
27452SOL     OW84608   3.287   0.900   3.498  0.1432 -0.2212  0.2270
27452SOL    HW184609   3.316   0.931   3.411 -0.8937 -0.6551 -0.2875
27452SOL    HW284610   3.203   0.857   3.481  0.4831 -1.3461  1.2759
27453SOL     OW84611   0.261   2.673   9.827 -0.3235  0.5452 -0.6705
27453SOL    HW184612   0.219   2.657   9.912  1.2605 -0.4067 -0.0233
27453SOL    HW284613   0.297   2.761   9.835  3.0609 -0.7898  1.2055
27454SOL     OW84614   8.790   6.706  10.617 -0.2905  0.3497  0.5051
27454SOL    HW184615   8.816   6.753  10.538  0.0056 -0.3180  0.2054
27454SOL    HW284616   8.855   6.637  10.628 -0.7371 -0.0196  0.9287
27455SOL     OW84617   2.441  10.642   0.547 -0.2497 -0.2857 -0.1075
27455SOL    HW184618   2.434  10.713   0.611  0.4735 -1.0376  0.8377
27455SOL    HW284619   2.531  10.610   0.556  0.2307  0.2781 -2.2871
27456SOL     OW84620   0.236   3.370   4.657 -0.4698  0.0614  0.2848
27456SOL    HW184621   0.291   3.296   4.632 -1.2158 -0.0270 -1.1877
27456SOL    HW284622   0.180   3.337   4.726  1.4539  0.2250  2.0429
27457SOL     OW84623   7.554   5.674   3.970  0.2704 -0.2698  0.3097
27457SOL    HW184624   7.608   5.705   3.898 -1.9343  1.0961 -0.8933
27457SOL    HW284625   7.595   5.711   4.049  0.4599  1.7158 -0.6574
27458SOL     OW84626   3.388   5.459  10.354 -0.0758  0.0774  0.0315
27458SOL    HW184627   3.309   5.512  10.360 -0.1008  0.2991 -1.7277
27458SOL    HW284628   3.360   5.377  10.314  0.4549 -0.1431  0.0935
27459SOL     OW84629   6.937   2.327   2.522  0.7294 -0.6656 -0.0241
27459SOL    HW184630   6.885   2.406   2.539 -0.6473 -1.8510  1.5893
27459SOL    HW284631   6.995   2.352   2.451 -2.0511  0.7624 -1.9855
27460SOL     OW84632   0.919   7.607  10.176  0.4755  0.0893  0.2261
27460SOL    HW184633   0.861   7.660  10.122  1.2058 -0.0108 -0.6866
27460SOL    HW284634   0.983   7.669  10.210 -0.9209  0.4476  2.3682
27461SOL     OW84635   6.559   8.684   2.104  0.2144  0.5975 -0.6384
27461SOL    HW184636   6.490   8.650   2.047 -0.8837 -3.0518  2.4358
27461SOL    HW284637   6.512   8.737   2.168  0.4628 -0.2829  0.3021
27462SOL     OW84638   7.483   6.296   3.538  0.0662  0.0994  0.1963
27462SOL    HW184639   7.525   6.288   3.452  2.1352  0.7795  1.0929
27462SOL    HW284640   7.474   6.390   3.551 -1.4099 -0.0212  0.2199
27463SOL     OW84641   5.392   4.260   6.973 -0.1463 -0.0716 -0.4373
27463SOL    HW184642   5.470   4.272   6.919 -1.0623  1.3426 -1.5181
27463SOL    HW284643   5.394   4.168   6.997  1.9620 -0.0318 -0.2474
27464SOL     OW84644   4.403   1.277   1.629  0.3688 -0.1087 -0.0585
27464SOL    HW184645   4.453   1.226   1.692 -0.9026 -2.8910 -1.1118
27464SOL    HW284646   4.334   1.319   1.680 -0.5590 -2.2065  0.5062
27465SOL     OW84647   3.928   8.761  10.634  0.1635  0.0588  0.3479
27465SOL    HW184648   3.994   8.696  10.612  0.1487  0.2763 -0.3627
27465SOL    HW284649   3.850   8.709  10.655  0.3581 -0.1751  0.5013
27466SOL     OW84650   8.049   5.259   1.602  0.3330  0.0499  0.1116
27466SOL    HW184651   8.028   5.346   1.636  0.0797  0.8451 -1.9504
27466SOL    HW284652   8.022   5.199   1.672 -0.9024  1.5319  0.9637
27467SOL     OW84653   4.808   6.923   3.080  0.0950  0.4508  0.1877
27467SOL    HW184654   4.720   6.949   3.107 -0.1737 -0.8946  0.6754
27467SOL    HW284655   4.795   6.875   2.999  0.4354  0.6588  0.0074
27468SOL     OW84656   9.412   1.043   5.155  0.2526 -0.7179  0.2588
27468SOL    HW184657   9.403   0.993   5.074 -2.7396 -1.5115  0.9859
27468SOL    HW284658   9.357   1.120   5.142 -1.2421 -1.4579  1.9274
27469SOL     OW84659   1.693   8.489   8.778  0.1486  0.4517  0.1142
27469SOL    HW184660   1.777   8.529   8.800  0.1026 -0.4760  2.2240
27469SOL    HW284661   1.704   8.397   8.799 -0.8672 -0.0228 -1.2902
27470SOL     OW84662   4.898   3.848   6.391  0.2035  0.0362  0.3666
27470SOL    HW184663   4.865   3.759   6.406 -0.0866  0.0577 -0.1063
27470SOL    HW284664   4.831   3.905   6.429 -0.3841  0.0827 -0.6871
27471SOL     OW84665   4.037   9.667   4.153  0.2259  0.0604  0.0382
27471SOL    HW184666   4.101   9.716   4.101  1.1319 -2.5472 -1.4647
27471SOL    HW284667   4.090   9.604   4.203 -1.0607 -3.1416 -2.2953
27472SOL     OW84668   7.275   9.385   3.471 -0.3560  0.1579 -0.0310
27472SOL    HW184669   7.214   9.334   3.418 -1.6958  0.3075  1.3126
27472SOL    HW284670   7.223   9.417   3.545  1.2378  0.6800  0.9257
27473SOL     OW84671   4.477   0.630   5.049 -0.0548 -0.4982 -0.1848
27473SOL    HW184672   4.437   0.602   5.131 -1.1756  0.4922 -0.3586
27473SOL    HW284673   4.546   0.566   5.032  0.1646 -0.7455  1.4886
27474SOL     OW84674   2.951   4.254   8.500 -0.0452  0.1888  0.1391
27474SOL    HW184675   2.968   4.164   8.528  1.1231 -0.2783 -1.8659
27474SOL    HW284676   2.888   4.246   8.428 -0.2182  1.0136  0.1871
27475SOL     OW84677   2.260   1.303   5.211 -0.0320 -0.4592 -0.1200
27475SOL    HW184678   2.171   1.322   5.180 -0.1953 -1.1412 -0.0857
27475SOL    HW284679   2.257   1.324   5.305 -0.2497 -0.7743 -0.0539
27476SOL     OW84680   5.817   8.624   0.604  0.4044  0.0630 -0.0359
27476SOL    HW184681   5.910   8.601   0.604  0.3413 -0.2698  1.0994
27476SOL    HW284682   5.804   8.670   0.521  1.5149 -0.1312 -0.3437
27477SOL     OW84683   4.276   7.355  10.356  0.2326 -0.4094 -0.3185
27477SOL    HW184684   4.284   7.339  10.450  0.5027 -0.1818 -0.3005
27477SOL    HW284685   4.198   7.307  10.330 -1.3053  1.5043  0.4956
27478SOL     OW84686   1.053   8.545   6.568  0.2682  0.1729 -0.9825
27478SOL    HW184687   1.011   8.556   6.483  0.3662  1.9442 -0.8398
27478SOL    HW284688   1.146   8.558   6.552  0.3485 -0.0092 -0.6803
27479SOL     OW84689   8.121   6.045   0.986  0.1625 -0.1812  0.2851
27479SOL    HW184690   8.180   6.043   0.911 -0.0596  0.1078  0.0963
27479SOL    HW284691   8.149   6.121   1.038  0.3805 -0.4420  0.5476
27480SOL     OW84692   5.620   4.564   4.949  0.4515 -0.4666  0.1255
27480SOL    HW184693   5.693   4.515   4.987  0.1523  0.0883  1.4530
27480SOL    HW284694   5.607   4.524   4.863  1.1689 -1.7463  0.5856
27481SOL     OW84695   7.109   0.471   1.136 -0.4789  0.1633  0.0231
27481SOL    HW184696   7.017   0.470   1.161 -1.4925  0.2456 -3.1617
27481SOL    HW284697   7.117   0.548   1.078  1.6039  0.1781  0.2562
27482SOL     OW84698   4.786   1.268   7.225  0.0806  0.4604 -0.1964
27482SOL    HW184699   4.725   1.297   7.157  1.4101  2.5686 -0.6116
27482SOL    HW284700   4.843   1.344   7.239  1.2070 -0.6714  1.7406
27483SOL     OW84701   5.721   1.826   6.413 -0.1545 -0.6777  0.0962
27483SOL    HW184702   5.707   1.911   6.372  0.7986 -0.6461 -0.1985
27483SOL    HW284703   5.644   1.774   6.390 -0.2623 -0.2183 -0.5772
27484SOL     OW84704   4.076   3.965   7.222  0.0611  0.2317 -0.0543
27484SOL    HW184705   4.097   4.058   7.210 -2.1805  0.8015  0.1009
27484SOL    HW284706   3.993   3.965   7.270 -0.3529 -1.8555 -0.6800
27485SOL     OW84707   6.363   0.862   2.800 -0.2558 -0.4800  0.0457
27485SOL    HW184708   6.274   0.839   2.829 -0.2198 -1.1487 -0.3646
27485SOL    HW284709   6.353   0.880   2.706 -0.1642  0.5969  0.2201
27486SOL     OW84710   5.581   8.797   6.712 -0.4847 -0.5327  0.3024
27486SOL    HW184711   5.644   8.837   6.771  0.5454 -2.1604  0.3833
27486SOL    HW284712   5.505   8.854   6.714  0.5092  0.7985  1.2061
27487SOL     OW84713   4.843   4.283   6.476 -0.3790 -0.4884 -0.5684
27487SOL    HW184714   4.938   4.288   6.462 -0.4628 -0.1448 -1.0396
27487SOL    HW284715   4.810   4.366   6.441 -0.3130  2.0358  4.5264
27488SOL     OW84716   3.811   5.245  10.172  0.3776 -0.0688  0.2961
27488SOL    HW184717   3.818   5.333  10.135 -0.2246 -0.2412 -0.2381
27488SOL    HW284718   3.743   5.253  10.239  1.6061  0.2909  1.5386
27489SOL     OW84719   0.314   3.369   1.319  0.1446  0.3156  0.2629
27489SOL    HW184720   0.387   3.318   1.284  0.6930  1.0954  0.2476
27489SOL    HW284721   0.270   3.404   1.241 -0.1856 -0.0691  0.2755
27490SOL     OW84722   6.403   0.210   3.957  0.1015 -0.1343 -0.0171
27490SOL    HW184723   6.472   0.168   3.906 -1.1250 -0.1668 -1.7195
27490SOL    HW284724   6.334   0.145   3.964 -1.4157  1.1574 -1.8582
27491SOL     OW84725   4.044   5.938   6.207  0.4264  0.5707 -0.3975
27491SOL    HW184726   4.077   5.878   6.273 -0.2102 -2.1953 -2.4158
27491SOL    HW284727   3.958   5.964   6.238  0.6735  0.3854  0.4568
27492SOL     OW84728   7.782  10.121   3.667 -0.3510 -0.0506 -0.3830
27492SOL    HW184729   7.754  10.062   3.737 -1.8328  1.9969  0.8849
27492SOL    HW284730   7.876  10.130   3.679 -0.6942  1.0515  2.1161
27493SOL     OW84731   4.000   5.583   3.914 -0.0091 -0.4180  0.3189
27493SOL    HW184732   3.978   5.503   3.963 -0.8106  0.3768  1.3004
27493SOL    HW284733   4.092   5.571   3.889 -0.1436 -1.6823  0.3768
27494SOL     OW84734   4.593   9.206   7.215 -0.4127  0.2070 -0.3262
27494SOL    HW184735   4.640   9.175   7.292 -1.0764  0.4731  0.1937
27494SOL    HW284736   4.549   9.129   7.180  0.4921 -0.0710 -0.8908
27495SOL     OW84737   6.391   1.393   3.424 -0.8285  0.2731 -0.3916
27495SOL    HW184738   6.385   1.408   3.518 -0.4446  3.3823 -0.7621
27495SOL    HW284739   6.413   1.478   3.387  0.8395 -1.1995 -3.1725
27496SOL     OW84740   5.241   2.305   4.368  0.7874  0.5314  0.4265
27496SOL    HW184741   5.225   2.239   4.434 -0.1290  1.1194  0.8148
27496SOL    HW284742   5.249   2.257   4.286 -1.8954  0.0541  0.3709
27497SOL     OW84743   4.001   1.877   7.543 -0.0322 -0.4220  0.5602
27497SOL    HW184744   4.076   1.848   7.490 -0.8270  1.8415 -1.9973
27497SOL    HW284745   3.939   1.804   7.538  0.8914 -1.2218  0.4262
27498SOL     OW84746   9.260   7.414   8.618 -0.2623  0.2145  0.4300
27498SOL    HW184747   9.176   7.393   8.576 -0.5255  0.8338  0.6363
27498SOL    HW284748   9.323   7.410   8.547 -1.1424  4.5154 -0.9225
27499SOL     OW84749   4.489   7.189   1.168  0.6240  0.0795 -0.4667
27499SOL    HW184750   4.443   7.181   1.085  2.2512 -1.1740 -1.3191
27499SOL    HW284751   4.429   7.237   1.225  0.6084  3.7773 -3.2335
27500SOL     OW84752   8.708   0.084   7.324 -0.4342 -0.0354 -0.4252
27500SOL    HW184753   8.681   0.174   7.306  1.8205  1.1657  1.6889
27500SOL    HW284754   8.763   0.060   7.249  1.3817  1.4956  0.3484
27501SOL     OW84755   0.179   9.368   1.433 -0.0285  0.1458  0.2502
27501SOL    HW184756   0.257   9.315   1.447  0.4495  0.6134 -0.5993
27501SOL    HW284757   0.150   9.391   1.521 -0.1866 -1.4195  0.6400
27502SOL     OW84758   9.816   4.013   3.590  0.1996 -0.0602 -0.7347
27502SOL    HW184759   9.856   4.083   3.641 -0.6637 -0.8431  1.1381
27502SOL    HW284760   9.868   3.936   3.610  0.9026 -0.0681 -2.4666
27503SOL     OW84761   7.913   6.533   4.428 -0.5044 -0.6209  0.4042
27503SOL    HW184762   7.850   6.502   4.362 -0.9379 -1.2681  1.1085
27503SOL    HW284763   7.999   6.509   4.391 -0.5706  1.0206 -0.9576
27504SOL     OW84764   6.420   0.421  10.020 -0.0061  0.3958 -0.7141
27504SOL    HW184765   6.484   0.417   9.948 -2.4979 -2.9789 -3.0361
27504SOL    HW284766   6.454   0.361  10.086  1.0074  1.5204 -0.1765
27505SOL     OW84767   4.734   4.482  10.628 -0.7655 -0.1159  0.6909
27505SOL    HW184768   4.679   4.540  10.575 -1.1194 -0.7353  0.3683
27505SOL    HW284769   4.674   4.448  10.695 -0.5882 -0.1880  0.8124
27506SOL     OW84770  10.350   2.543   2.475 -0.2232  0.2281 -0.3870
27506SOL    HW184771  10.386   2.456   2.460  0.7472  0.5266  0.0683
27506SOL    HW284772  10.400   2.600   2.416 -2.3863  0.2153 -2.3891
27507SOL     OW84773   2.014   4.927   2.297 -0.1328  0.3489  0.3082
27507SOL    HW184774   2.054   4.945   2.382 -0.1452  0.1406  0.3584
27507SOL    HW284775   2.000   4.832   2.297 -0.7814  0.4463  0.3541
27508SOL     OW84776   1.540   5.690   5.257 -0.0105  0.4481 -0.0425
27508SOL    HW184777   1.508   5.747   5.326 -1.1393  2.1658 -1.8508
27508SOL    HW284778   1.460   5.654   5.217  0.5719  0.0851 -0.9080
27509SOL     OW84779   2.423   4.777   0.696 -0.1423  0.1675  0.3503
27509SOL    HW184780   2.472   4.703   0.661  0.0644  1.0564 -1.3834
27509SOL    HW284781   2.449   4.851   0.640 -0.1687  1.6024  2.1456
27510SOL     OW84782   6.292   9.512   6.214  0.6488  0.0199  0.3390
27510SOL    HW184783   6.299   9.519   6.119  0.7140 -0.4013  0.3111
27510SOL    HW284784   6.207   9.470   6.229 -0.1471  1.6342  0.5339
27511SOL     OW84785   7.780   0.513   5.192 -0.2674 -0.6305  0.0826
27511SOL    HW184786   7.813   0.424   5.202  0.7122 -0.2303  0.5608
27511SOL    HW284787   7.834   0.551   5.122 -0.9306 -0.5207 -0.3822
27512SOL     OW84788   9.792   9.665   6.170 -0.2041  0.0731 -0.0274
27512SOL    HW184789   9.880   9.652   6.133 -0.0448 -1.3917  0.7848
27512SOL    HW284790   9.768   9.755   6.145  1.4408  0.4320 -0.4295
27513SOL     OW84791   1.913   8.982   3.620 -0.2864 -0.1596  1.2593
27513SOL    HW184792   1.850   9.025   3.678 -0.5739 -2.4584  2.7937
27513SOL    HW284793   1.961   8.922   3.678  0.5870 -1.3342 -0.5933
27514SOL     OW84794   8.037   1.088   1.945  0.0942  0.1503  0.2025
27514SOL    HW184795   8.102   1.044   2.000  1.2501 -1.8459 -2.5243
27514SOL    HW284796   8.087   1.117   1.868 -1.9821 -0.2469 -1.3813
27515SOL     OW84797   0.571   9.732  10.524 -0.0813  0.1228 -0.0410
27515SOL    HW184798   0.582   9.710  10.616 -1.1706 -3.3132 -0.5834
27515SOL    HW284799   0.492   9.786  10.522 -1.1054 -1.2633  0.9427
27516SOL     OW84800  10.079   3.749   8.514  0.4327  1.0839  0.0436
27516SOL    HW184801  10.159   3.760   8.565  1.4286 -0.9543 -0.9679
27516SOL    HW284802  10.017   3.709   8.575  0.7627  1.0578  0.3682
27517SOL     OW84803   2.114   0.124   1.624 -0.0436 -0.2674  0.2463
27517SOL    HW184804   2.108   0.218   1.645 -0.4958 -0.1666 -0.2888
27517SOL    HW284805   2.052   0.112   1.552  0.5280 -0.8465 -0.1632
27518SOL     OW84806   1.193   1.137   7.102 -0.0967  0.1246 -0.3424
27518SOL    HW184807   1.135   1.199   7.146  1.9446  2.2484 -0.4745
27518SOL    HW284808   1.275   1.141   7.151  0.3152 -2.0627 -0.7312
27519SOL     OW84809   9.785  10.001   3.354 -0.2696  0.0371  0.3449
27519SOL    HW184810   9.842   9.963   3.287  0.5246  0.8270  0.5579
27519SOL    HW284811   9.840  10.004   3.433 -0.0685  2.2072  0.1772
27520SOL     OW84812   9.150   0.859   3.899 -0.1248  0.0196 -0.6730
27520SOL    HW184813   9.106   0.930   3.945 -0.2135 -0.4583 -0.0058
27520SOL    HW284814   9.095   0.782   3.916  1.1149 -0.6638  0.4530
27521SOL     OW84815   3.201   8.329   9.850 -0.1041  0.3236 -0.3935
27521SOL    HW184816   3.118   8.291   9.821 -1.0851  0.8643  1.5678
27521SOL    HW284817   3.177   8.410   9.894  1.3956  0.2506  0.6426
27522SOL     OW84818   1.232   7.963   3.969 -0.0124  0.0227  0.1733
27522SOL    HW184819   1.184   7.986   4.049 -1.7430 -2.1625 -0.1130
27522SOL    HW284820   1.236   7.867   3.970  1.1375 -0.0088 -1.6940
27523SOL     OW84821   9.473   2.403   3.747  0.1829  0.2960  0.2692
27523SOL    HW184822   9.401   2.445   3.794 -0.1688 -1.4829  1.3926
27523SOL    HW284823   9.472   2.312   3.777  1.3363 -0.3759 -1.5768
27524SOL     OW84824   6.372   7.903   2.068 -0.3267  0.1391  0.0426
27524SOL    HW184825   6.322   7.982   2.087  2.2646  1.9080  0.0938
27524SOL    HW284826   6.367   7.852   2.149 -2.1292  0.1485 -0.0262
27525SOL     OW84827   1.405   8.370   5.526 -0.3118  0.9362  0.0051
27525SOL    HW184828   1.498   8.372   5.548 -0.2333 -0.4525 -0.1253
27525SOL    HW284829   1.398   8.421   5.445  0.5241  0.1036 -0.6081
27526SOL     OW84830   5.267   2.853  10.345 -0.0690 -0.3425  0.2631
27526SOL    HW184831   5.291   2.935  10.301 -0.6139  0.9364  2.2175
27526SOL    HW284832   5.172   2.845  10.330 -0.7291  1.3171  2.9419
27527SOL     OW84833   8.262   3.538   2.005  0.0421  0.2151  0.0323
27527SOL    HW184834   8.329   3.470   2.009 -0.7927 -0.7270 -1.3143
27527SOL    HW284835   8.282   3.595   2.080  1.7368 -0.5773  0.2385
27528SOL     OW84836   2.066   0.435   4.352  0.0978 -0.8614 -0.0668
27528SOL    HW184837   2.149   0.423   4.399 -0.7086 -0.0936  1.6711
27528SOL    HW284838   2.090   0.479   4.271  1.3688 -0.3766  0.5466
27529SOL     OW84839   0.828   1.861   1.992 -0.5994  0.6766 -0.0844
27529SOL    HW184840   0.744   1.843   1.951  0.5873 -1.2660 -1.8601
27529SOL    HW284841   0.871   1.924   1.934 -0.4740  0.9709  0.3242
27530SOL     OW84842   8.366   1.825   6.316  0.4907  0.0565 -0.5731
27530SOL    HW184843   8.403   1.738   6.323  0.9470  0.2045 -1.1195
27530SOL    HW284844   8.341   1.834   6.224  1.0748  0.7515 -0.6705
27531SOL     OW84845   3.554   4.395   5.016  0.0391 -0.5040 -0.4362
27531SOL    HW184846   3.620   4.463   5.001  0.0572  0.2428  2.4835
27531SOL    HW284847   3.592   4.316   4.978  1.6199  0.3886 -0.8006
27532SOL     OW84848   7.298   6.924   2.725  0.1057  0.5828  0.4002
27532SOL    HW184849   7.374   6.866   2.722 -0.7375 -0.5594  0.2966
27532SOL    HW284850   7.238   6.881   2.785 -1.8078 -0.2947 -1.9631
27533SOL     OW84851   2.213   0.858   1.457  0.2773  0.2004 -0.7676
27533SOL    HW184852   2.248   0.776   1.422  0.7577  0.0116  0.1386
27533SOL    HW284853   2.119   0.841   1.469  0.5430 -0.5562  0.3548
27534SOL     OW84854   7.943   7.459   4.040 -0.3451  0.3749 -0.3018
27534SOL    HW184855   7.864   7.498   4.079  0.0867  1.2576 -0.2808
27534SOL    HW284856   7.941   7.368   4.068 -0.6761  0.7014  0.8048
27535SOL     OW84857   1.108   9.999  10.083 -0.1218  0.0444  0.1995
27535SOL    HW184858   1.126   9.958   9.998  2.8142 -0.2880  0.8758
27535SOL    HW284859   1.015   9.982  10.098 -0.0915 -2.3709 -1.6696
27536SOL     OW84860   6.091   2.475   2.845  0.0521  0.3038  0.5022
27536SOL    HW184861   6.018   2.535   2.859  0.3181  1.1227 -1.3769
27536SOL    HW284862   6.141   2.513   2.772  1.4627 -1.0648  0.6902
27537SOL     OW84863   2.310   8.890   4.902 -0.0674  0.4076 -0.2265
27537SOL    HW184864   2.400   8.924   4.906  0.4391 -0.9236  0.0292
27537SOL    HW284865   2.320   8.796   4.887 -1.4448  0.3892 -1.1986
27538SOL     OW84866   5.564   1.740   5.872  0.7901 -0.5078  0.3112
27538SOL    HW184867   5.606   1.659   5.843  0.8308 -1.0685  1.8392
27538SOL    HW284868   5.540   1.785   5.791  1.6223 -1.5917 -0.5735
27539SOL     OW84869   7.458  10.363   7.935  0.3853  0.2344  0.4684
27539SOL    HW184870   7.415  10.309   8.001  2.0472  1.3882  2.6327
27539SOL    HW284871   7.424  10.451   7.950 -3.8227 -0.1557 -4.2841
27540SOL     OW84872  10.633   1.748   3.403  0.0670 -0.2210  0.6837
27540SOL    HW184873  10.640   1.840   3.425  1.6965 -0.0292 -0.4618
27540SOL    HW284874  10.718   1.711   3.427 -0.1649 -1.1788  0.1058
27541SOL     OW84875   4.189   1.277   1.029  0.1346  0.0575 -0.3409
27541SOL    HW184876   4.130   1.330   1.083 -1.5958 -2.1408  0.0604
27541SOL    HW284877   4.154   1.286   0.941 -0.1002 -0.3193 -0.2878
27542SOL     OW84878   3.248   3.320   7.275 -0.1276 -0.0896 -0.2354
27542SOL    HW184879   3.228   3.332   7.182  0.5532  0.9709 -0.2768
27542SOL    HW284880   3.210   3.236   7.298 -2.2646  0.6258 -0.9215
27543SOL     OW84881   7.802   6.560   8.842 -0.1433  0.5336  0.2505
27543SOL    HW184882   7.718   6.571   8.798  0.8082 -0.1632 -1.8695
27543SOL    HW284883   7.844   6.646   8.837 -1.1103  1.1921  2.3081
27544SOL     OW84884   3.350   6.552   7.824  0.5684 -0.2669  0.0930
27544SOL    HW184885   3.269   6.567   7.775  1.1206 -0.2312 -0.8228
27544SOL    HW284886   3.329   6.580   7.913 -0.1486  0.6447 -0.3426
27545SOL     OW84887   6.854   7.653   7.360 -0.1956  0.0836  0.0040
27545SOL    HW184888   6.887   7.616   7.278  1.2030  1.9606 -0.3690
27545SOL    HW284889   6.930   7.697   7.398 -1.9166  3.6755 -0.3057
27546SOL     OW84890   5.875   5.452   7.244  0.1083 -0.5036 -0.0858
27546SOL    HW184891   5.852   5.362   7.220 -0.0061 -0.4904 -0.0261
27546SOL    HW284892   5.830   5.467   7.327 -3.3727  0.9886 -1.9979
27547SOL     OW84893   2.219   2.424   5.862 -0.2154  0.2198 -0.3218
27547SOL    HW184894   2.133   2.463   5.877 -0.6526 -0.2019 -1.6173
27547SOL    HW284895   2.210   2.376   5.780  1.3981  0.5594 -0.7362
27548SOL     OW84896   2.057   2.191   5.162 -0.1617  0.3096  0.7706
27548SOL    HW184897   2.029   2.124   5.225  1.0199  0.8435  1.9291
27548SOL    HW284898   2.090   2.262   5.217 -0.3657  1.3748 -0.4559
27549SOL     OW84899   1.889   6.529   0.143  0.2986  0.1263 -0.0666
27549SOL    HW184900   1.853   6.614   0.116  1.3617  0.7371  0.3987
27549SOL    HW284901   1.957   6.550   0.206 -0.5261 -1.1554  1.3180
27550SOL     OW84902   1.121   3.324   4.793  0.3053  0.4371 -0.2388
27550SOL    HW184903   1.147   3.248   4.845  0.2185  1.1512  0.8793
27550SOL    HW284904   1.187   3.329   4.724  0.5822 -0.3768 -0.0450
27551SOL     OW84905   6.076  10.613   2.005 -0.2601  0.1035  0.2894
27551SOL    HW184906   6.121  10.597   2.088 -1.6882  1.0891  1.3101
27551SOL    HW284907   6.126  10.683   1.963  1.5649 -1.6671 -0.6103
27552SOL     OW84908   6.775   0.859   5.137 -0.1305 -0.3182  0.0766
27552SOL    HW184909   6.814   0.872   5.050  2.0130 -1.0995  0.8503
27552SOL    HW284910   6.811   0.931   5.189  1.0688 -1.5733  1.0429
27553SOL     OW84911   9.328   4.493   0.726  0.6187  0.4761  0.0972
27553SOL    HW184912   9.424   4.488   0.721  0.5756  1.0744 -1.8857
27553SOL    HW284913   9.307   4.582   0.699 -0.5886 -0.1926 -1.2828
27554SOL     OW84914   3.654   3.708   0.314 -0.4118 -0.3740 -0.5274
27554SOL    HW184915   3.736   3.680   0.352  0.4690  1.3362 -1.0631
27554SOL    HW284916   3.618   3.771   0.377 -2.6439 -2.8690  0.9495
27555SOL     OW84917   9.987   2.166   3.014 -0.0171  0.0222 -0.4645
27555SOL    HW184918   9.915   2.108   2.990  1.0155 -1.7449  0.5346
27555SOL    HW284919   9.961   2.251   2.979 -0.5831 -1.4102 -3.9656
27556SOL     OW84920   6.420   7.368   4.983  0.1763  0.0295  0.1425
27556SOL    HW184921   6.445   7.315   5.058  0.5364  0.6562  0.4644
27556SOL    HW284922   6.503   7.398   4.946 -0.0515  1.1002  0.4869
27557SOL     OW84923   3.676   7.548  10.586  0.0128 -0.6709  0.2343
27557SOL    HW184924   3.616   7.505  10.524  0.5275  0.2438 -0.9379
27557SOL    HW284925   3.758   7.500  10.577 -0.0295 -0.7963  0.5164
27558SOL     OW84926   2.762   1.981   4.863 -0.1202 -0.4890 -0.2498
27558SOL    HW184927   2.808   1.965   4.781  1.2379 -1.6330  0.6867
27558SOL    HW284928   2.824   2.032   4.915 -1.9061  2.4526 -0.7699
27559SOL     OW84929   7.066   5.830   5.235  0.8480 -0.5378  0.0975
27559SOL    HW184930   7.085   5.802   5.325 -0.0860  0.8837  0.7666
27559SOL    HW284931   7.113   5.913   5.226 -1.1888  0.6709  0.1980
27560SOL     OW84932   4.731   1.800   6.459  0.4176  0.3967  0.5873
27560SOL    HW184933   4.795   1.870   6.464  0.8029 -0.0199  1.7997
27560SOL    HW284934   4.752   1.742   6.532  0.8022 -1.5719 -0.9824
27561SOL     OW84935   0.598   8.814   1.844  0.2262  0.1125 -0.4850
27561SOL    HW184936   0.683   8.820   1.799 -0.2624 -0.3203 -1.5136
27561SOL    HW284937   0.558   8.900   1.831  0.7836  0.5569  0.6159
27562SOL     OW84938   2.473  10.577  10.051  0.2993 -0.1543 -0.4968
27562SOL    HW184939   2.503  10.656  10.098 -0.6817 -0.1172  0.1103
27562SOL    HW284940   2.469  10.510  10.119 -1.9215  0.1049 -0.3024
27563SOL     OW84941   4.823  10.544   8.208 -0.0267  0.1091 -0.3416
27563SOL    HW184942   4.775  10.617   8.248  2.8290  2.2446 -0.4410
27563SOL    HW284943   4.899  10.586   8.166  1.8920 -2.9554 -0.2615
27564SOL     OW84944   7.849   7.030   1.187 -0.2059 -0.1098 -0.1540
27564SOL    HW184945   7.836   6.966   1.118  0.8584 -2.0590  1.3604
27564SOL    HW284946   7.933   7.007   1.227  0.4807  2.5625  0.1442
27565SOL     OW84947   3.353   9.916   9.487  0.0733 -0.5250 -0.1135
27565SOL    HW184948   3.435   9.868   9.476  1.2984  1.1834  1.0697
27565SOL    HW284949   3.301   9.861   9.546  0.7408 -1.1893 -0.1337
27566SOL     OW84950   5.605   9.044  10.624 -0.4232 -0.0356 -0.4156
27566SOL    HW184951   5.627   8.953  10.607  0.6356  0.1859 -0.2831
27566SOL    HW284952   5.679   9.094  10.590  1.1928  0.5302  3.3597
27567SOL     OW84953   7.015   2.556   7.303 -0.7937 -0.0415 -0.2136
27567SOL    HW184954   6.997   2.650   7.301 -0.8985 -0.0439  0.5278
27567SOL    HW284955   6.989   2.525   7.216 -1.4497  0.4855 -0.2105
27568SOL     OW84956   1.736   2.414   7.449 -0.3136 -0.0263  0.2233
27568SOL    HW184957   1.811   2.382   7.399  0.9612 -0.5037  2.3166
27568SOL    HW284958   1.672   2.343   7.444 -0.2301 -0.0405 -0.7476
27569SOL     OW84959   7.899   6.418   0.008 -0.2058 -0.2067 -0.0922
27569SOL    HW184960   7.913   6.430   0.102  0.1093 -0.4131 -0.1105
27569SOL    HW284961   7.935   6.331  -0.010  0.0195 -0.0376 -0.4621
27570SOL     OW84962   7.958   5.176   3.256  0.3573  0.6143  0.7459
27570SOL    HW184963   7.888   5.184   3.321  0.1253 -1.1793  0.7798
27570SOL    HW284964   8.024   5.122   3.300  0.8157  0.5394 -0.0286
27571SOL     OW84965   1.383   5.851  10.308 -0.2053 -0.0684 -0.1110
27571SOL    HW184966   1.318   5.920  10.295  0.2986  0.5350  0.5337
27571SOL    HW284967   1.375   5.796  10.230 -0.9060  0.4729 -0.4316
27572SOL     OW84968   0.994   3.865   1.320 -0.1729  0.1253 -0.0849
27572SOL    HW184969   0.992   3.941   1.378  0.3308 -0.6205  0.9511
27572SOL    HW284970   1.021   3.899   1.235 -1.3387  1.3140  0.0016
27573SOL     OW84971   7.999   2.252   5.329 -0.1938 -0.0102 -0.5075
27573SOL    HW184972   7.936   2.234   5.259  0.9372  0.8919 -1.8091
27573SOL    HW284973   8.065   2.183   5.319 -0.1565 -0.0246 -0.1679
27574SOL     OW84974   0.904  10.361   4.908 -0.4694 -0.8066 -0.6451
27574SOL    HW184975   0.870  10.314   4.985 -2.3090  0.9417 -0.2885
27574SOL    HW284976   0.997  10.375   4.927 -0.3309 -2.5141  0.1114
27575SOL     OW84977   7.937   6.686   2.845  0.7334  0.0201  0.0836
27575SOL    HW184978   7.855   6.674   2.798  1.6881 -0.3839 -1.5665
27575SOL    HW284979   7.913   6.734   2.924 -0.8814  1.2129 -1.0622
27576SOL     OW84980   5.149   2.994   9.299 -0.1859  0.6820 -0.5362
27576SOL    HW184981   5.215   3.029   9.359 -0.3629  0.6410 -0.3166
27576SOL    HW284982   5.118   2.914   9.341  1.6377 -0.8647 -1.9616
27577SOL     OW84983  10.523   5.971   1.633 -0.4974  0.7296  0.2887
27577SOL    HW184984  10.465   5.928   1.695 -1.0803  2.6596  1.1606
27577SOL    HW284985  10.580   5.901   1.601 -2.5480 -1.0168  0.2374
27578SOL     OW84986   2.987   9.649   0.181 -0.2120 -0.3466 -0.0174
27578SOL    HW184987   2.947   9.644   0.268 -0.1571  0.0138  0.0300
27578SOL    HW284988   3.072   9.691   0.196  0.3596 -1.4579 -0.0613
27579SOL     OW84989   8.666   8.695   3.280  0.2330  0.1595 -0.1854
27579SOL    HW184990   8.601   8.640   3.324  1.2056 -0.3095  0.7068
27579SOL    HW284991   8.668   8.776   3.330  0.5461  0.0533 -0.0210
27580SOL     OW84992   4.644   6.737   7.330 -0.2101  0.0736 -0.4519
27580SOL    HW184993   4.616   6.656   7.286 -0.9850 -0.0397  0.2318
27580SOL    HW284994   4.663   6.797   7.258  1.4839 -1.0569 -1.0111
27581SOL     OW84995   1.798   8.475   9.591  0.3284  0.0500 -0.3493
27581SOL    HW184996   1.882   8.522   9.590  0.6747 -0.5599 -1.2889
27581SOL    HW284997   1.775   8.464   9.499 -1.3823  1.1902 -0.1104
27582SOL     OW84998   7.842   6.482   7.278  0.7788 -0.6976  0.3917
27582SOL    HW184999   7.910   6.468   7.344  1.2670  0.8857  0.2546
27582SOL    HW285000   7.826   6.394   7.242  2.6788 -1.1305  0.4909
27583SOL     OW85001   5.200   1.836   7.109 -0.1019  0.0091 -0.0728
27583SOL    HW185002   5.226   1.792   7.028  1.4032 -1.1093  0.9550
27583SOL    HW285003   5.121   1.885   7.086 -0.0903 -0.8102 -2.0331
27584SOL     OW85004   4.608   6.277   5.777  0.3255 -0.2174 -0.0235
27584SOL    HW185005   4.569   6.218   5.713  0.9822 -1.5660  0.7954
27584SOL    HW285006   4.541   6.286   5.845  0.7955 -1.2829  0.6082
27585SOL     OW85007   1.765   7.837   6.155  0.0662 -0.0486 -0.6038
27585SOL    HW185008   1.788   7.799   6.240  0.6160  0.8393 -0.3514
27585SOL    HW285009   1.847   7.836   6.105 -0.5917 -2.1210 -1.7601
27586SOL     OW85010   2.559   6.044   5.568 -0.2817  0.7155  0.0035
27586SOL    HW185011   2.507   6.116   5.531  0.9026  1.9734  0.7155
27586SOL    HW285012   2.500   6.003   5.631 -1.0440  0.9419 -0.5493
27587SOL     OW85013   7.425   5.359   0.234  0.1086  0.2756 -0.0019
27587SOL    HW185014   7.384   5.282   0.195  1.5445  0.1575 -1.3909
27587SOL    HW285015   7.363   5.430   0.218  0.6289  0.2356 -2.6326
27588SOL     OW85016   6.699   0.240   2.475  0.1222 -0.2095 -0.3131
27588SOL    HW185017   6.746   0.265   2.396  1.2712  1.0485  0.7384
27588SOL    HW285018   6.692   0.144   2.469 -0.7818 -0.0681 -2.4354
27589SOL     OW85019   9.339   1.882   0.344  0.4760 -0.6981  0.5358
27589SOL    HW185020   9.293   1.933   0.277 -0.9598 -2.3430  0.1852
27589SOL    HW285021   9.327   1.933   0.425 -0.8057 -0.3779  0.1757
27590SOL     OW85022   6.426  10.281   7.710 -0.4236  0.3954 -0.0538
27590SOL    HW185023   6.341  10.290   7.754 -1.4987  0.9885 -2.1134
27590SOL    HW285024   6.415  10.205   7.652  0.4692  0.4732 -0.3372
27591SOL     OW85025  10.329   1.721   4.476 -0.0142 -0.1908  0.1127
27591SOL    HW185026  10.342   1.641   4.425  0.8904  1.5007 -2.5437
27591SOL    HW285027  10.240   1.714   4.509  0.1515 -2.4018  0.2554
27592SOL     OW85028   9.716   2.290   0.538  0.8362  0.9551  0.1899
27592SOL    HW185029   9.802   2.285   0.580  0.5730  0.4676  0.6871
27592SOL    HW285030   9.654   2.299   0.611  0.3059 -0.7257 -0.0088
27593SOL     OW85031   8.319   3.685   4.673 -0.0752  0.1501 -0.7690
27593SOL    HW185032   8.232   3.686   4.713  0.2528  0.4577 -0.0664
27593SOL    HW285033   8.304   3.716   4.583 -0.7106  0.0578 -0.6968
27594SOL     OW85034   3.151   2.810   3.950  0.0986  0.1752 -0.6105
27594SOL    HW185035   3.094   2.734   3.936  0.5146  0.0365 -1.7195
27594SOL    HW285036   3.121   2.874   3.886  0.7397  0.3551 -0.7399
27595SOL     OW85037   5.111   2.921   4.330  0.2861  0.2209 -0.2161
27595SOL    HW185038   5.122   3.016   4.336 -0.2404  0.2650  0.1356
27595SOL    HW285039   5.156   2.896   4.249  1.2411  0.6388  0.1728
27596SOL     OW85040   3.384   8.069   4.965  0.3914  0.1906  0.0892
27596SOL    HW185041   3.463   8.024   4.934 -0.8981 -1.0953 -1.5372
27596SOL    HW285042   3.314   8.004   4.955 -1.2493  1.9616 -0.5111
27597SOL     OW85043   8.757   3.687   4.253 -0.4228  0.2000  0.4553
27597SOL    HW185044   8.831   3.647   4.299 -0.2728  0.3359  0.3317
27597SOL    HW285045   8.728   3.758   4.311  0.5651  1.1928 -0.2248
27598SOL     OW85046   7.753   5.260   3.725 -0.1943 -0.6360  0.8076
27598SOL    HW185047   7.782   5.327   3.787 -1.1092 -1.8139  2.5822
27598SOL    HW285048   7.809   5.185   3.743 -0.0739 -0.8043 -0.2279
27599SOL     OW85049   2.400   0.117   4.611  0.4545  0.7800 -0.5004
27599SOL    HW185050   2.374   0.030   4.579  1.0635  0.3550  0.1156
27599SOL    HW285051   2.466   0.098   4.678 -0.8866  1.6010  1.1573
27600SOL     OW85052   7.623   5.297   6.197 -0.4630 -0.7826 -0.5373
27600SOL    HW185053   7.571   5.240   6.140  0.2850 -1.4274 -0.5827
27600SOL    HW285054   7.687   5.337   6.139 -1.8669  1.2736 -0.8038
27601SOL     OW85055   0.967   7.425   8.018 -0.0938 -0.1062  0.6916
27601SOL    HW185056   0.894   7.480   7.990  0.1224 -0.1590 -0.0069
27601SOL    HW285057   0.952   7.409   8.111  0.2055  1.6934  1.0800
27602SOL     OW85058   5.133   5.352   4.922 -0.1820  0.6702  0.8248
27602SOL    HW185059   5.090   5.395   4.848 -0.6595 -0.1694  0.6042
27602SOL    HW285060   5.116   5.411   4.996 -3.0004 -0.2710  1.0663
27603SOL     OW85061   1.669   1.352   5.012 -0.3712  0.3226 -0.0826
27603SOL    HW185062   1.742   1.320   5.064 -1.7617  0.5203  2.1132
27603SOL    HW285063   1.700   1.436   4.977  0.1209  0.9050  1.6613
27604SOL     OW85064  10.401   0.368   0.980 -0.5613  0.1096 -0.7328
27604SOL    HW185065  10.367   0.391   1.066 -1.4645  0.9882 -1.2974
27604SOL    HW285066  10.428   0.452   0.942 -0.4118 -0.2341 -1.4014
27605SOL     OW85067   5.300   1.417   5.248  0.3668 -0.1391  0.3486
27605SOL    HW185068   5.369   1.482   5.258  0.3053 -0.3336  2.3554
27605SOL    HW285069   5.223   1.456   5.289 -1.3228  0.7678 -3.2430
27606SOL     OW85070   1.651   2.442   5.549  0.1019 -0.2282  0.3448
27606SOL    HW185071   1.690   2.373   5.603  1.6708 -0.5156 -1.0994
27606SOL    HW285072   1.670   2.417   5.459 -0.4378  1.4207 -0.2678
27607SOL     OW85073   6.407   1.651   8.241 -0.2359 -0.1464  0.0472
27607SOL    HW185074   6.419   1.713   8.313  1.2474  1.1930 -1.2840
27607SOL    HW285075   6.461   1.576   8.265  0.6918  0.5214  0.0773
27608SOL     OW85076  10.548   2.149   2.653 -0.5521 -0.4509 -0.1955
27608SOL    HW185077  10.593   2.086   2.598  0.9178  0.8776 -0.5661
27608SOL    HW285078  10.611   2.171   2.722 -0.9030  0.8507 -0.2664
27609SOL     OW85079   2.331   2.765   8.214  0.2420  0.2304  0.2834
27609SOL    HW185080   2.389   2.788   8.141  0.3156  0.2766  0.3550
27609SOL    HW285081   2.375   2.802   8.291  0.1187  0.2609  0.3387
27610SOL     OW85082   3.330   8.992   6.980 -0.3095  0.3748 -0.0268
27610SOL    HW185083   3.273   8.916   6.972 -0.8343  0.8274 -0.7667
27610SOL    HW285084   3.289   9.059   6.924  1.6347  0.2944 -1.6974
27611SOL     OW85085   8.336   1.171   6.204 -0.1767 -0.4201  0.4218
27611SOL    HW185086   8.370   1.094   6.159 -0.3278  0.1957 -0.7768
27611SOL    HW285087   8.244   1.176   6.177 -0.1028  0.3273  0.3000
27612SOL     OW85088   9.184   0.839   7.443 -0.2528 -0.1537  0.2880
27612SOL    HW185089   9.207   0.924   7.479  0.2229 -1.0543  2.2105
27612SOL    HW285090   9.112   0.808   7.498  0.9079 -1.8451  0.9287
27613SOL     OW85091   6.340   9.873   6.021  0.0012  0.3349  0.5984
27613SOL    HW185092   6.392   9.840   5.948 -0.5094 -0.1280  0.4419
27613SOL    HW285093   6.252   9.883   5.986 -0.1615  0.4885  1.0398
27614SOL     OW85094   7.512  10.387   6.000 -0.5415 -0.3663 -0.0874
27614SOL    HW185095   7.585  10.448   5.994 -0.0950 -1.0091 -1.8699
27614SOL    HW285096   7.435  10.439   5.978 -0.4032 -0.0639  0.1375
27615SOL     OW85097   6.890   5.770   3.067 -0.8150  0.7161  0.1504
27615SOL    HW185098   6.955   5.806   3.006  0.3662 -0.9560  0.3408
27615SOL    HW285099   6.902   5.675   3.061 -1.4507  0.4632  2.1493
27616SOL     OW85100   6.418   5.299   9.408 -0.0290  0.2399  0.0575
27616SOL    HW185101   6.499   5.297   9.458 -0.0377  0.3250  0.0756
27616SOL    HW285102   6.447   5.293   9.317  0.1144  1.9059 -0.0385
27617SOL     OW85103   1.331   6.598   0.718 -0.3640 -0.2311  0.1123
27617SOL    HW185104   1.244   6.590   0.757 -0.9404  0.1352 -1.0718
27617SOL    HW285105   1.354   6.690   0.730 -0.9278  0.0924 -1.1785
27618SOL     OW85106   5.268   1.693   9.549 -0.1546  0.5339 -0.3168
27618SOL    HW185107   5.183   1.663   9.579  0.5499  0.0961  1.3628
27618SOL    HW285108   5.256   1.711   9.456 -1.9846  0.1936 -0.1756
27619SOL     OW85109   4.482   3.227   8.974 -0.2163 -0.5174  0.9150
27619SOL    HW185110   4.559   3.172   8.956  0.0122  0.0146  0.2252
27619SOL    HW285111   4.516   3.299   9.027  0.0933  0.5419 -0.6486
27620SOL     OW85112   5.014   0.615   2.342  0.0550  0.6450 -0.1267
27620SOL    HW185113   5.103   0.596   2.371 -0.0324 -1.0334 -0.8382
27620SOL    HW285114   5.021   0.696   2.293  1.3842  0.0432 -0.9848
27621SOL     OW85115   0.424   3.596   9.026 -0.1101 -0.6661 -0.0520
27621SOL    HW185116   0.428   3.612   9.121 -1.8305 -0.7469  0.0687
27621SOL    HW285117   0.335   3.564   9.011  0.3708 -1.3801 -1.6057
27622SOL     OW85118   2.793   6.228   1.377  0.3935  0.3364 -0.0026
27622SOL    HW185119   2.801   6.235   1.472 -0.3252  1.8436 -0.0363
27622SOL    HW285120   2.855   6.293   1.343  1.4139 -0.9048 -0.6114
27623SOL     OW85121   8.337   4.863   8.150  0.0754 -0.2130 -0.3341
27623SOL    HW185122   8.298   4.939   8.105  2.0257  0.2307 -1.3723
27623SOL    HW285123   8.301   4.867   8.238 -0.1597  1.7298 -0.4660
27624SOL     OW85124   4.830   9.687   9.703  0.0279  0.4042 -0.2149
27624SOL    HW185125   4.741   9.687   9.738  0.7054  1.0861  1.6208
27624SOL    HW285126   4.846   9.778   9.678 -0.7276 -0.1946 -3.2441
27625SOL     OW85127   7.477   2.428   7.956 -0.4624  0.2984 -0.2010
27625SOL    HW185128   7.470   2.470   7.870 -1.7929  0.8362  0.1479
27625SOL    HW285129   7.507   2.497   8.014  0.8294 -0.1647 -0.2775
27626SOL     OW85130   5.380   2.123   0.114  0.1783 -0.0988 -0.0368
27626SOL    HW185131   5.467   2.085   0.101 -0.0515 -0.5242 -0.3731
27626SOL    HW285132   5.330   2.095   0.037 -0.4896 -0.5420  0.5437
27627SOL     OW85133   7.367   2.744   2.882  0.6586  0.1729 -0.0105
27627SOL    HW185134   7.456   2.712   2.868  1.2977  1.8334  0.1091
27627SOL    HW285135   7.350   2.803   2.809 -0.6193 -0.6140 -0.3988
27628SOL     OW85136   1.149   7.555   1.476 -0.0159 -0.0066  0.5298
27628SOL    HW185137   1.083   7.491   1.504 -1.0057  0.3099 -0.9143
27628SOL    HW285138   1.211   7.504   1.425 -0.4770  0.0624 -0.1170
27629SOL     OW85139   4.307   8.732   3.677  0.7578 -0.1045 -0.1649
27629SOL    HW185140   4.327   8.806   3.620  0.6831 -0.4150 -0.5975
27629SOL    HW285141   4.244   8.767   3.740  0.1582  0.0204 -0.8170
27630SOL     OW85142   6.860   5.403   7.025 -0.6667 -0.0145 -0.8114
27630SOL    HW185143   6.908   5.320   7.028  0.1030  0.3894 -1.6387
27630SOL    HW285144   6.888   5.450   7.103 -0.3490 -0.1319 -0.8520
27631SOL     OW85145   3.455   8.794   5.338 -0.1044 -0.1329 -0.2832
27631SOL    HW185146   3.380   8.736   5.350  0.5583 -0.7942  0.8075
27631SOL    HW285147   3.515   8.745   5.282  0.2700 -0.3332  0.2857
27632SOL     OW85148   1.706   8.894   4.472  0.5673  0.1746 -0.2834
27632SOL    HW185149   1.743   8.807   4.485 -0.4126 -0.0757  1.0847
27632SOL    HW285150   1.649   8.907   4.548 -0.3839  1.4432 -1.1777
27633SOL     OW85151   2.837   9.911   8.215  0.1235  0.0607 -0.2062
27633SOL    HW185152   2.819   9.960   8.295 -1.5210  0.0908 -0.5692
27633SOL    HW285153   2.793   9.961   8.146  1.5599  0.0621 -1.1593
27634SOL     OW85154   5.323   3.876   1.360 -0.0767 -0.1270 -0.1956
27634SOL    HW185155   5.400   3.820   1.370  0.8572  0.4676 -3.1316
27634SOL    HW285156   5.251   3.815   1.343  0.8568 -0.5827 -2.9815
27635SOL     OW85157   2.461   9.218   0.091  0.0406 -0.4255 -0.4035
27635SOL    HW185158   2.386   9.275   0.078  0.4789  0.6496  1.4311
27635SOL    HW285159   2.425   9.140   0.133 -0.0052  0.4345  1.2501
27636SOL     OW85160   8.427   3.364   9.378 -0.3051  0.1581 -0.2103
27636SOL    HW185161   8.412   3.347   9.285 -2.0374 -0.0524  0.0823
27636SOL    HW285162   8.462   3.281   9.412 -2.5277 -0.7972 -0.1094
27637SOL     OW85163   0.370   9.938   3.297 -0.1197 -0.2061 -0.4819
27637SOL    HW185164   0.377  10.004   3.229 -1.8084 -0.2657 -0.7534
27637SOL    HW285165   0.344   9.858   3.250 -0.2927 -0.4954  0.0970
27638SOL     OW85166   1.316   2.260   0.206 -0.6400 -0.6709  0.5229
27638SOL    HW185167   1.298   2.224   0.293 -1.1622 -0.3994  0.5337
27638SOL    HW285168   1.380   2.329   0.222  0.9285 -2.0502  0.4098
27639SOL     OW85169   6.223   7.586   2.424  0.0295 -0.1604 -0.1891
27639SOL    HW185170   6.204   7.508   2.476  0.7765  0.5261  1.1524
27639SOL    HW285171   6.147   7.642   2.435 -0.3615 -0.5426 -0.8826
27640SOL     OW85172   4.696   4.582   8.962  0.3784 -0.6358 -0.7723
27640SOL    HW185173   4.650   4.555   8.883 -1.8570  2.4113 -0.6992
27640SOL    HW285174   4.634   4.568   9.033  0.0366  2.0015 -0.4353
27641SOL     OW85175   7.963   1.712   1.285 -0.0453  0.2756  0.2748
27641SOL    HW185176   7.895   1.775   1.260 -0.6781 -0.8013 -0.8453
27641SOL    HW285177   7.950   1.698   1.379 -1.4253  0.0758  0.0833
27642SOL     OW85178   8.695   4.745   5.010  0.3833  0.2966 -0.3651
27642SOL    HW185179   8.787   4.767   4.993 -0.2606  2.7266 -0.9542
27642SOL    HW285180   8.655   4.826   5.038 -1.1531 -1.2017  2.1557
27643SOL     OW85181   7.228   9.478   9.221 -0.1719 -0.3487  0.0856
27643SOL    HW185182   7.213   9.463   9.314 -0.0897  1.6839  0.4640
27643SOL    HW285183   7.278   9.560   9.217  0.7685 -0.9472 -1.6976
27644SOL     OW85184   3.698   8.761   6.350 -0.2315  0.1618  0.0460
27644SOL    HW185185   3.676   8.672   6.324 -1.1540  1.0285 -2.5061
27644SOL    HW285186   3.740   8.799   6.272 -0.2678  2.0923  0.8971
27645SOL     OW85187   1.080   8.954   8.454 -0.2060  0.2402 -0.0893
27645SOL    HW185188   1.173   8.977   8.449 -0.4546  1.1672 -0.6255
27645SOL    HW285189   1.067   8.928   8.545  0.7792 -0.8454 -0.2191
27646SOL     OW85190   8.879   8.469   8.425 -0.0115 -0.0007  0.0890
27646SOL    HW185191   8.869   8.556   8.387  1.0844  0.0893 -0.0183
27646SOL    HW285192   8.831   8.474   8.508 -0.7894  0.3880 -0.3656
27647SOL     OW85193   9.751   7.117   4.975 -0.1108 -0.4284  0.0655
27647SOL    HW185194   9.723   7.162   4.895 -1.2921 -0.7903  0.2534
27647SOL    HW285195   9.820   7.058   4.946  0.1772  0.1719 -0.5071
27648SOL     OW85196   8.116  10.453   2.674  0.3729 -0.3301 -0.1905
27648SOL    HW185197   8.139  10.511   2.746  0.5543 -0.3610 -0.2222
27648SOL    HW285198   8.147  10.498   2.596  1.0821 -0.7501 -0.1638
27649SOL     OW85199   2.880   8.304   1.921 -0.0975  0.3239  0.0109
27649SOL    HW185200   2.941   8.233   1.904  0.1472  0.1153  1.5946
27649SOL    HW285201   2.842   8.284   2.007  1.1744  2.8945  1.2972
27650SOL     OW85202   5.277   5.607   3.906 -0.4007 -0.4324 -0.7630
27650SOL    HW185203   5.287   5.543   3.977  1.6753  0.5470 -0.1053
27650SOL    HW285204   5.236   5.557   3.835 -1.5825 -1.7017  0.7504
27651SOL     OW85205   6.813   4.266  10.654 -0.4797  0.0343  0.2706
27651SOL    HW185206   6.880   4.202  10.629 -0.4833  0.0312  0.2696
27651SOL    HW285207   6.861   4.332  10.705 -0.0902  1.0126 -1.2607
27652SOL     OW85208   8.202   4.042   2.241  0.9619 -0.5337 -0.2884
27652SOL    HW185209   8.209   4.109   2.174 -0.7487  0.0240  0.0447
27652SOL    HW285210   8.292   4.029   2.271  1.2294  3.0160  0.9750
27653SOL     OW85211  10.585   7.366   1.418  0.2878 -0.7249 -0.0217
27653SOL    HW185212  10.555   7.449   1.455  0.6879 -0.1394 -1.0030
27653SOL    HW285213  10.567   7.302   1.488 -0.2100  0.1360  0.6661
27654SOL     OW85214   1.852   0.326   5.945 -0.2354 -0.6790  0.0091
27654SOL    HW185215   1.828   0.380   5.870 -1.9988 -0.3028  0.7999
27654SOL    HW285216   1.890   0.388   6.008  0.3171 -0.8308 -0.1704
27655SOL     OW85217   8.006   8.262   1.347  0.2500 -0.3352  0.1333
27655SOL    HW185218   8.076   8.284   1.409  0.5193 -1.4675  0.2602
27655SOL    HW285219   7.976   8.175   1.375 -0.6230 -0.2349 -0.4505
27656SOL     OW85220   7.950  10.233   9.930  0.9635  0.2761 -0.2411
27656SOL    HW185221   7.893  10.309   9.941  1.7887  1.1353 -1.6255
27656SOL    HW285222   7.949  10.189  10.015 -2.3796 -0.2025 -0.3804
27657SOL     OW85223   8.856  10.026   5.486  0.0573  0.0498 -0.6350
27657SOL    HW185224   8.797  10.096   5.516 -0.7588 -0.4808 -0.9711
27657SOL    HW285225   8.884   9.982   5.566 -2.7533 -1.8855 -0.5895
27658SOL     OW85226   8.947  10.039   8.258 -0.0127  0.0437  0.1309
27658SOL    HW185227   8.941   9.964   8.317 -1.9663 -1.6885 -2.0848
27658SOL    HW285228   9.027  10.024   8.207  1.0854  0.9809  1.4919
27659SOL     OW85229   0.442   9.425   5.009  0.1765 -0.1495 -0.3954
27659SOL    HW185230   0.509   9.431   4.940 -1.4317  1.7267 -1.8804
27659SOL    HW285231   0.405   9.337   4.998 -1.0651  0.6156 -2.9900
27660SOL     OW85232   9.003   3.775   9.883  0.3321 -0.1481  0.1350
27660SOL    HW185233   8.975   3.719   9.810  1.3008 -0.6777  0.1619
27660SOL    HW285234   8.959   3.739   9.959  1.5803 -1.4185  0.2964
27661SOL     OW85235   8.543   3.350   0.614  0.0591 -0.1744 -0.4901
27661SOL    HW185236   8.565   3.311   0.529  2.2969  0.5838 -0.3272
27661SOL    HW285237   8.525   3.442   0.593 -0.8631 -0.3007 -0.3037
27662SOL     OW85238   3.980   8.279   5.173 -0.2182 -0.2742 -0.1200
27662SOL    HW185239   3.903   8.327   5.142  0.5962  0.9702 -0.2952
27662SOL    HW285240   4.028   8.342   5.227  1.5701 -0.4365 -1.4154
27663SOL     OW85241   8.274   1.907   8.249  0.1796  0.2470  0.2754
27663SOL    HW185242   8.279   1.980   8.310 -0.5891  0.1053  0.5253
27663SOL    HW285243   8.346   1.850   8.274  0.0366  0.3232  0.8817
27664SOL     OW85244  10.141   1.101   3.316  0.2165  0.5101 -0.2889
27664SOL    HW185245  10.055   1.094   3.356  0.9400  1.6042  1.6225
27664SOL    HW285246  10.151   1.194   3.296  0.5469  0.2330 -1.5354
27665SOL     OW85247   7.523   9.370   9.432 -0.2293 -0.3461  0.1700
27665SOL    HW185248   7.599   9.360   9.489 -0.6848 -0.7165  0.7375
27665SOL    HW285249   7.516   9.286   9.386 -0.7445 -0.6180  0.7149
27666SOL     OW85250   4.885   1.406   0.049 -0.1548  0.4557  0.1967
27666SOL    HW185251   4.863   1.314   0.041  0.8014  0.1797  0.6057
27666SOL    HW285252   4.816   1.452  -0.000 -1.3738 -0.3651  1.0910
27667SOL     OW85253   2.753   9.181   2.048 -0.6439  0.3640  0.2722
27667SOL    HW185254   2.779   9.117   2.114 -2.3456  0.1017  0.7130
27667SOL    HW285255   2.674   9.144   2.008 -0.3641  1.1229 -1.0459
27668SOL     OW85256   0.326   7.474  10.638  0.1633 -0.5649 -0.1701
27668SOL    HW185257   0.283   7.553  10.603 -0.6374 -1.3331 -1.0091
27668SOL    HW285258   0.310   7.477  10.732  1.5908  1.1084  0.0724
27669SOL     OW85259   4.848   0.316   5.568 -0.1753 -0.2795  0.3430
27669SOL    HW185260   4.912   0.386   5.577 -0.4710 -0.0556  0.7620
27669SOL    HW285261   4.900   0.236   5.561  0.1636 -0.3402  2.7464
27670SOL     OW85262   6.105   2.636   4.898  0.6682 -0.1912 -0.6319
27670SOL    HW185263   6.024   2.684   4.917  0.3638 -1.0472  0.3374
27670SOL    HW285264   6.106   2.564   4.962  3.5336  1.3499  1.3081
27671SOL     OW85265   4.571   4.308   0.127 -0.0670  0.0049 -0.0204
27671SOL    HW185266   4.567   4.214   0.142  1.7297 -0.0713  0.2524
27671SOL    HW285267   4.565   4.346   0.215  2.3791 -0.0575  0.2485
27672SOL     OW85268  10.510   4.068   4.949 -0.7097  0.4621 -0.4794
27672SOL    HW185269  10.551   4.110   4.873  1.9204  0.1398  0.6380
27672SOL    HW285270  10.464   4.139   4.994 -0.1628  1.1928 -1.0383
27673SOL     OW85271   7.431   0.724   8.036 -0.6708  0.2333 -0.7643
27673SOL    HW185272   7.389   0.649   7.993 -1.4363 -1.5691  2.7784
27673SOL    HW285273   7.358   0.778   8.067 -0.2890 -0.0815  0.7688
27674SOL     OW85274   6.760   2.541   3.933  0.4129 -0.2134  0.2187
27674SOL    HW185275   6.847   2.567   3.903 -0.1433  1.8419  0.2350
27674SOL    HW285276   6.760   2.446   3.926  1.6701 -0.1145 -2.4943
27675SOL     OW85277   4.800   1.049   7.846  0.1386 -0.0579  0.2141
27675SOL    HW185278   4.881   1.061   7.896  0.2618 -0.8406  0.2097
27675SOL    HW285279   4.798   1.124   7.786  1.7848 -0.9199 -1.0202
27676SOL     OW85280   3.363   6.832   1.176  0.3641  0.0042  0.6185
27676SOL    HW185281   3.313   6.829   1.095  2.0336 -3.6083 -0.5356
27676SOL    HW285282   3.454   6.845   1.147  0.7002  1.3424  2.1748
27677SOL     OW85283   2.776   2.642  10.123  0.1751  0.8970 -0.2275
27677SOL    HW185284   2.812   2.608  10.042 -3.0666  0.0601 -1.4815
27677SOL    HW285285   2.757   2.564  10.175  1.2568  1.3788  0.9465
27678SOL     OW85286   5.692   4.887   3.706  0.3740  0.7151  0.2398
27678SOL    HW185287   5.760   4.873   3.640 -0.2223 -1.3379  0.0183
27678SOL    HW285288   5.740   4.916   3.784  1.4351  0.0262 -0.1352
27679SOL     OW85289   3.551   6.140   1.708  0.3532  0.1946 -0.3722
27679SOL    HW185290   3.540   6.171   1.798 -0.8706 -0.3022 -0.3222
27679SOL    HW285291   3.507   6.206   1.654 -0.7618 -0.5434 -0.4073
27680SOL     OW85292   7.985   4.973   8.160  0.1230 -0.3932 -0.1391
27680SOL    HW185293   8.073   5.007   8.146 -1.2368  3.2840 -0.9864
27680SOL    HW285294   7.947   4.969   8.072 -0.8878 -0.9092  0.3091
27681SOL     OW85295   9.036   7.962   0.529 -0.3945  0.1879  0.3144
27681SOL    HW185296   9.131   7.954   0.539 -0.6370 -1.0728  2.1296
27681SOL    HW285297   9.011   7.888   0.474  0.0837  3.0486 -4.2206
27682SOL     OW85298   9.203   4.701   4.998  0.0742 -0.0883  0.0618
27682SOL    HW185299   9.270   4.769   5.000 -0.6358  0.6056  1.1172
27682SOL    HW285300   9.233   4.640   4.930  1.1385  0.8404 -0.3353
27683SOL     OW85301   2.870   6.177   3.724  0.3485  0.0946 -0.6843
27683SOL    HW185302   2.863   6.100   3.667 -1.2445 -0.1649 -0.1789
27683SOL    HW285303   2.785   6.219   3.718 -0.7046 -1.0872  3.0728
27684SOL     OW85304   4.428   2.746   5.659  0.3798  0.1848 -0.2720
27684SOL    HW185305   4.497   2.716   5.599  0.2535  1.2773 -0.9968
27684SOL    HW285306   4.387   2.666   5.690  0.8900 -0.4337 -1.1332
27685SOL     OW85307   3.914   8.450   1.692 -0.0351  0.1173  0.4511
27685SOL    HW185308   3.860   8.431   1.615  0.1784 -0.8689  0.5361
27685SOL    HW285309   3.981   8.511   1.659  0.9705 -1.4471 -0.5307
27686SOL     OW85310   1.424   9.682   2.587  0.1701  0.0220 -0.1265
27686SOL    HW185311   1.425   9.715   2.677  0.0379 -0.8050  0.1879
27686SOL    HW285312   1.356   9.615   2.587  0.2476 -0.0655 -0.8208
27687SOL     OW85313   6.340   3.086   7.974 -0.4267 -0.1903  0.9999
27687SOL    HW185314   6.328   3.075   7.879 -2.2045  0.4454  1.1241
27687SOL    HW285315   6.316   3.177   7.990 -3.7126 -1.1850  2.5349
27688SOL     OW85316   4.432   7.747   4.416  0.9683 -0.1256  0.0828
27688SOL    HW185317   4.386   7.722   4.496  0.3506  0.3800 -0.1035
27688SOL    HW285318   4.503   7.683   4.407  0.8442 -0.3735  0.8579
27689SOL     OW85319   0.887   6.634   1.588  0.4226  0.0216 -0.3599
27689SOL    HW185320   0.946   6.565   1.621  0.7967  1.3581  1.9873
27689SOL    HW285321   0.822   6.645   1.658  0.6942  2.3936 -0.3994
27690SOL     OW85322   6.515   8.684   6.738 -0.4887 -0.2346  0.1075
27690SOL    HW185323   6.505   8.636   6.656  2.8455  1.0785 -1.2453
27690SOL    HW285324   6.469   8.767   6.724 -0.3628 -0.2264 -0.2707
27691SOL     OW85325   1.410   1.450   1.710 -0.0238 -0.2990  0.1122
27691SOL    HW185326   1.379   1.492   1.630 -0.8884  0.3300  0.7543
27691SOL    HW285327   1.337   1.394   1.737 -1.3943  2.3885  2.4994
27692SOL     OW85328   5.539   6.494   7.019 -0.3809 -0.5113  0.2283
27692SOL    HW185329   5.569   6.436   7.089 -0.5416 -0.8612  0.0132
27692SOL    HW285330   5.617   6.542   6.992 -0.7571  1.4029  2.2703
27693SOL     OW85331   2.245   2.584   0.672  0.4085 -0.4525  0.2706
27693SOL    HW185332   2.261   2.533   0.751 -0.3798 -0.6546  0.3077
27693SOL    HW285333   2.321   2.567   0.617  2.8641  2.5505  2.3886
27694SOL     OW85334   0.483   3.923   1.139 -0.5235  0.0903 -0.1968
27694SOL    HW185335   0.440   4.006   1.160 -1.2156 -0.6529  1.4889
27694SOL    HW285336   0.424   3.856   1.175  2.6200 -0.9886  3.6257
27695SOL     OW85337   6.479   8.494   0.648 -0.3792 -0.8863 -0.3870
27695SOL    HW185338   6.511   8.501   0.738 -1.7910  0.0601  0.0837
27695SOL    HW285339   6.557   8.476   0.596  0.8667  0.8796  0.7437
27696SOL     OW85340   5.293   9.185   0.193 -1.0247 -0.1761 -0.0001
27696SOL    HW185341   5.386   9.195   0.212 -0.7630 -1.9920 -0.0990
27696SOL    HW285342   5.288   9.178   0.098 -1.6515  2.8855 -0.2839
27697SOL     OW85343   8.477   3.501   6.218  0.1146  0.6770 -0.6369
27697SOL    HW185344   8.434   3.421   6.248 -0.8028  1.6237  0.7028
27697SOL    HW285345   8.471   3.561   6.293  0.4076  2.1327 -1.7323
27698SOL     OW85346   6.863   2.751   1.259 -0.0358  0.3175  0.1794
27698SOL    HW185347   6.922   2.707   1.321  3.2628  0.8125 -2.3734
27698SOL    HW285348   6.837   2.832   1.303 -0.0034 -0.5772  1.9203
27699SOL     OW85349   4.315   6.912   1.482  0.4225  0.1596 -0.2614
27699SOL    HW185350   4.361   6.994   1.460 -0.9660  1.0322 -0.0823
27699SOL    HW285351   4.384   6.847   1.490  1.8092  1.7696  1.7669
27700SOL     OW85352   5.239   3.634   2.314  0.5824 -0.3483 -0.0106
27700SOL    HW185353   5.176   3.601   2.250 -2.6168  1.1433  2.0805
27700SOL    HW285354   5.282   3.708   2.271  0.8241 -1.2664 -1.4178
27701SOL     OW85355   0.389   1.482   6.286  0.2343 -0.2521 -0.3669
27701SOL    HW185356   0.473   1.460   6.327 -0.0479  0.9060  0.9092
27701SOL    HW285357   0.412   1.542   6.215  0.4212  1.4634  1.0542
27702SOL     OW85358   8.586   5.187   4.745  0.5808 -0.1761 -0.2187
27702SOL    HW185359   8.568   5.194   4.651  1.6041 -0.5350 -0.4470
27702SOL    HW285360   8.681   5.189   4.752  0.5453 -0.9005  0.7504
27703SOL     OW85361   5.361   7.327   3.574  0.1931  0.2892  0.1781
27703SOL    HW185362   5.337   7.318   3.666  0.5385  0.1507  0.2561
27703SOL    HW285363   5.456   7.335   3.574  0.3166 -0.8862 -0.2470
27704SOL     OW85364   1.946   5.310   3.694 -0.2633  0.6294  0.2995
27704SOL    HW185365   1.857   5.334   3.670 -0.3006 -0.9381 -1.3770
27704SOL    HW285366   1.938   5.222   3.731  0.4377  1.0711  1.5750
27705SOL     OW85367   0.916   0.806   4.962 -0.1273  0.0579  0.0940
27705SOL    HW185368   0.914   0.849   4.876  1.2168  0.5892  0.3086
27705SOL    HW285369   0.965   0.725   4.947 -2.8872 -1.6914 -0.3755
27706SOL     OW85370   3.988   9.971   1.758  0.2057  0.0119 -0.6078
27706SOL    HW185371   4.050  10.043   1.766 -1.9335  1.8150  1.2321
27706SOL    HW285372   4.042   9.892   1.759  2.5373  1.5111 -0.8948
27707SOL     OW85373   6.316   6.363   6.906  0.5517 -0.3951 -0.7079
27707SOL    HW185374   6.391   6.371   6.966  0.4742 -0.4389 -0.6049
27707SOL    HW285375   6.337   6.286   6.852  0.2896 -0.7810 -0.2653
27708SOL     OW85376   3.940   1.322   4.287 -0.5537  0.2460 -0.6868
27708SOL    HW185377   3.907   1.243   4.245 -1.5365  0.9337 -1.2321
27708SOL    HW285378   3.942   1.301   4.381 -1.3921 -0.2117 -0.7689
27709SOL     OW85379   0.908   7.766   1.914 -0.2208  0.6500 -0.5047
27709SOL    HW185380   0.911   7.696   1.848 -1.0739 -0.5952  0.7143
27709SOL    HW285381   0.991   7.756   1.962 -0.4966  0.2317 -0.1077
27710SOL     OW85382   3.033   9.196   4.058  0.1698 -0.4396  0.4758
27710SOL    HW185383   3.069   9.263   3.999  1.7532 -1.9133 -0.3155
27710SOL    HW285384   2.940   9.192   4.036 -0.0259  1.5824  0.6724
27711SOL     OW85385   7.779   2.774   9.020  0.1554  0.5331  0.2670
27711SOL    HW185386   7.704   2.725   8.986 -0.2813  1.1554  0.3092
27711SOL    HW285387   7.815   2.819   8.944  0.2854  0.4926  0.3039
27712SOL     OW85388   9.994   7.723   1.403  0.2051 -0.6591 -0.6397
27712SOL    HW185389  10.086   7.717   1.378 -0.2384 -1.0745 -2.3039
27712SOL    HW285390   9.955   7.641   1.371 -0.9124 -0.1008 -0.7638
27713SOL     OW85391   7.628   1.732   7.218  0.3533 -0.1555  0.1701
27713SOL    HW185392   7.678   1.765   7.292  0.8400  1.0750 -0.6744
27713SOL    HW285393   7.682   1.751   7.141 -0.3779 -0.9041 -0.5637
27714SOL     OW85394   8.593  10.355  10.111  0.3666 -0.0070 -0.0985
27714SOL    HW185395   8.510  10.324  10.148  0.0928  0.2175 -0.5312
27714SOL    HW285396   8.608  10.299  10.035  1.6571 -1.4578  1.1330
27715SOL     OW85397   7.217   0.796   5.643  0.2422  0.4218  0.1111
27715SOL    HW185398   7.156   0.732   5.606 -0.0358 -1.4530  3.4196
27715SOL    HW285399   7.304   0.759   5.628  0.1257 -0.3838  1.3405
27716SOL     OW85400   6.271   3.209   9.369  0.9467 -0.0161 -0.5975
27716SOL    HW185401   6.235   3.169   9.449  0.3986  0.4753 -0.5850
27716SOL    HW285402   6.194   3.242   9.323  1.1095 -1.6452 -2.1046
27717SOL     OW85403   9.892   4.814   2.825  0.4450  0.5572  0.4193
27717SOL    HW185404   9.840   4.893   2.810  0.5142  0.6448  0.6362
27717SOL    HW285405   9.831   4.753   2.865  0.9329  1.2798  2.3891
27718SOL     OW85406   3.186  10.409   4.401  0.7504 -0.0232  0.1970
27718SOL    HW185407   3.174  10.468   4.476  0.8026  0.6769 -0.3272
27718SOL    HW285408   3.278  10.383   4.405  0.3261 -1.4454  1.3996
27719SOL     OW85409   0.972   9.354   5.685  0.5281 -0.1416 -0.7433
27719SOL    HW185410   1.017   9.286   5.635  2.8702 -1.6338  2.9593
27719SOL    HW285411   1.037   9.424   5.694 -0.5599  0.9805 -1.4040
27720SOL     OW85412  10.379   9.520   6.880 -0.6222 -0.3177 -0.4262
27720SOL    HW185413  10.327   9.566   6.946  0.0709 -0.1539  0.0186
27720SOL    HW285414  10.386   9.582   6.807  0.7733  0.5357  0.3901
27721SOL     OW85415   4.545  10.305  10.386 -0.0372  0.5395  0.0895
27721SOL    HW185416   4.568  10.356  10.465 -0.8936  0.8021  0.1777
27721SOL    HW285417   4.542  10.370  10.316  1.0469  0.2548 -0.2373
27722SOL     OW85418   7.271   9.635   2.372 -0.6364  0.1071 -0.4573
27722SOL    HW185419   7.337   9.642   2.302  1.7862  0.6865  1.7419
27722SOL    HW285420   7.240   9.545   2.366  0.2226 -0.1411 -1.6517
27723SOL     OW85421   8.723   0.642   3.618  0.1908  0.1011  0.0180
27723SOL    HW185422   8.791   0.662   3.683 -0.6350  1.4798  0.4937
27723SOL    HW285423   8.758   0.567   3.570  1.7984  0.4161  0.6212
27724SOL     OW85424   7.714   6.140   5.710 -0.4712 -0.0289 -0.4002
27724SOL    HW185425   7.651   6.083   5.666 -0.9320  1.4663 -1.8060
27724SOL    HW285426   7.789   6.144   5.651  0.5387 -0.9660  0.7707
27725SOL     OW85427   5.007   5.689   7.408 -0.0737  0.4616  0.2121
27725SOL    HW185428   4.917   5.669   7.383  0.2507  0.4281 -1.0065
27725SOL    HW285429   5.004   5.704   7.502 -0.9713 -1.8069  0.6066
27726SOL     OW85430   3.714   6.724   7.245 -0.1462  0.6307  0.1045
27726SOL    HW185431   3.728   6.687   7.158  2.2432 -0.9358  1.0707
27726SOL    HW285432   3.687   6.815   7.228  1.3601  0.7116 -2.2576
27727SOL     OW85433   8.300   4.183   3.841  0.5206 -0.3028  0.2862
27727SOL    HW185434   8.341   4.270   3.846 -2.0378  0.9674  0.9928
27727SOL    HW285435   8.306   4.149   3.930  0.0344 -0.0856  0.4065
27728SOL     OW85436   9.437   4.002   6.164 -0.1510 -0.0264 -0.9058
27728SOL    HW185437   9.474   3.943   6.099  1.4798  0.0323 -0.0885
27728SOL    HW285438   9.360   4.040   6.122  0.4189 -0.5700 -2.4964
27729SOL     OW85439  10.235   9.807   6.544 -0.4897  0.0209  0.1268
27729SOL    HW185440  10.186   9.862   6.605  0.2072  0.1974  0.5455
27729SOL    HW285441  10.186   9.811   6.462 -1.0938  0.2946  0.5029
27730SOL     OW85442   4.494   3.094   0.565 -0.3770  0.3040  0.0291
27730SOL    HW185443   4.433   3.076   0.493  0.7584  0.1119 -0.9290
27730SOL    HW285444   4.550   3.016   0.568  0.8472  1.1555 -0.2077
27731SOL     OW85445   0.232   3.616   9.282 -0.5051  0.1630  0.6675
27731SOL    HW185446   0.179   3.583   9.209  0.4098 -0.7728  0.4015
27731SOL    HW285447   0.249   3.539   9.336 -1.2674  0.8636  1.9705
27732SOL     OW85448   6.610   9.092   9.869 -0.0077 -0.3358 -0.1359
27732SOL    HW185449   6.561   9.041   9.934  0.8011  0.0848  0.8382
27732SOL    HW285450   6.556   9.089   9.790 -0.3946 -1.9552  0.1523
27733SOL     OW85451   5.892   8.413   4.904 -0.4502 -0.4436 -0.2883
27733SOL    HW185452   5.926   8.470   4.835  0.6625  0.8138  1.2273
27733SOL    HW285453   5.844   8.471   4.963  0.2826 -1.1084  1.0360
27734SOL     OW85454   9.106   1.622   8.238 -0.5201  0.1611  0.1795
27734SOL    HW185455   9.161   1.622   8.316  1.3708 -0.7410 -1.0796
27734SOL    HW285456   9.067   1.534   8.236  1.0402 -0.5578 -0.8939
27735SOL     OW85457   0.547  10.189   3.394 -0.0014 -0.1149  0.0927
27735SOL    HW185458   0.464  10.203   3.440  0.3639  1.0877  0.4214
27735SOL    HW285459   0.527  10.210   3.302  0.1221  1.0023  0.3060
27736SOL     OW85460   2.893   7.827   1.861 -0.1043  0.4620  0.0156
27736SOL    HW185461   2.943   7.746   1.866 -0.2331  0.2673 -1.5384
27736SOL    HW285462   2.806   7.801   1.829  0.0996  1.2814 -1.2780
27737SOL     OW85463   9.448   8.215   2.651 -1.0213  0.3602  0.4964
27737SOL    HW185464   9.483   8.273   2.719 -0.9459  1.3706 -0.3706
27737SOL    HW285465   9.502   8.136   2.656  0.0893  1.0998  0.4814
27738SOL     OW85466   1.447   3.971   8.715  0.5045  0.0501  0.0973
27738SOL    HW185467   1.534   3.976   8.674  0.1002 -0.5241 -0.8683
27738SOL    HW285468   1.390   4.021   8.656 -0.0324 -0.5142  0.1295
27739SOL     OW85469   6.608   9.985   0.222 -0.1601 -0.2655 -0.0036
27739SOL    HW185470   6.537  10.006   0.283 -0.0691  0.8621 -0.2586
27739SOL    HW285471   6.684  10.029   0.259 -0.0038  0.0396 -0.6827
27740SOL     OW85472   4.156   0.260  10.106  0.1251  0.4478 -0.0319
27740SOL    HW185473   4.244   0.262  10.067  1.1958 -1.0972  2.0742
27740SOL    HW285474   4.121   0.175  10.082 -0.2074  0.4829  0.3151
27741SOL     OW85475   4.402   5.770   6.443  0.6675 -0.1926  0.3400
27741SOL    HW185476   4.449   5.728   6.371  0.7919 -1.4470  1.1180
27741SOL    HW285477   4.340   5.703   6.473  0.3019  0.4693  1.0999
27742SOL     OW85478   4.550   0.451   0.619  0.1536 -0.0998 -0.4668
27742SOL    HW185479   4.613   0.519   0.595  0.4015 -0.2606 -0.2743
27742SOL    HW285480   4.499   0.436   0.539  0.9342 -0.5968 -0.8829
27743SOL     OW85481   9.224   4.802   0.385 -0.5889 -0.2650 -0.7380
27743SOL    HW185482   9.231   4.719   0.338  2.4370 -0.2489 -0.5124
27743SOL    HW285483   9.278   4.863   0.334 -0.4757  0.8153  0.6173
27744SOL     OW85484   4.661   3.066   3.460  0.1042  0.0975 -0.0120
27744SOL    HW185485   4.685   3.087   3.370 -1.2498 -0.0597 -0.4276
27744SOL    HW285486   4.589   3.125   3.480  0.3955  0.1368  0.9866
27745SOL     OW85487   0.314   1.348   8.120 -0.1930 -0.3140  0.3112
27745SOL    HW185488   0.242   1.286   8.133 -1.4825  0.5602 -2.1127
27745SOL    HW285489   0.289   1.425   8.173  0.5555 -1.1294  1.9300
27746SOL     OW85490   5.242   3.191   0.391 -0.1499 -1.0526  0.0402
27746SOL    HW185491   5.201   3.165   0.474 -0.1206  1.7403  1.0478
27746SOL    HW285492   5.333   3.164   0.401 -0.2890 -1.3358  0.6378
27747SOL     OW85493   9.551   3.908   4.899  0.6815  0.2749  0.0260
27747SOL    HW185494   9.503   3.852   4.837  0.4874  2.1743 -1.6130
27747SOL    HW285495   9.642   3.903   4.870  0.8103  0.0956  0.4527
27748SOL     OW85496   5.836   0.557  10.378  0.9351 -0.3616  0.0623
27748SOL    HW185497   5.867   0.636  10.423 -1.1675  1.3343 -1.3105
27748SOL    HW285498   5.900   0.542  10.308  0.7154  0.8510 -0.4123
27749SOL     OW85499   2.774   9.621   1.512  0.0904  0.1704  0.4353
27749SOL    HW185500   2.789   9.682   1.440 -1.0862  1.3721  1.1527
27749SOL    HW285501   2.701   9.567   1.483 -0.1370  0.4081  0.5519
27750SOL     OW85502   0.150   2.170   7.612 -0.4337  0.1830  0.1478
27750SOL    HW185503   0.117   2.218   7.536 -0.4900 -1.9288 -1.2372
27750SOL    HW285504   0.113   2.216   7.687 -1.7688  1.3515 -1.1652
27751SOL     OW85505   6.546   5.220   9.185 -0.2554  0.2874 -0.3242
27751SOL    HW185506   6.520   5.149   9.125 -0.2649  0.8506 -1.0042
27751SOL    HW285507   6.638   5.235   9.164 -0.3335  0.6734 -0.3925
27752SOL     OW85508   7.608   9.151   0.919 -0.2690  0.0130  0.2321
27752SOL    HW185509   7.515   9.134   0.926 -0.1508 -0.7373  0.0426
27752SOL    HW285510   7.624   9.162   0.825  0.1838 -2.0650  0.0143
27753SOL     OW85511   3.765   4.152   5.950  0.1413 -0.2031 -0.1032
27753SOL    HW185512   3.798   4.205   6.023  1.6843 -0.4867 -0.5559
27753SOL    HW285513   3.671   4.144   5.967  0.3571  0.2524  1.5179
27754SOL     OW85514   4.700   6.704   3.753 -0.3832 -0.3148  0.2148
27754SOL    HW185515   4.657   6.789   3.744  0.6436  0.1196 -0.9326
27754SOL    HW285516   4.652   6.647   3.693 -0.8248 -0.4375  0.6866
27755SOL     OW85517   9.635   0.282   7.543 -0.1925  0.4467 -0.1400
27755SOL    HW185518   9.556   0.318   7.584 -0.1864  0.2518  0.0434
27755SOL    HW285519   9.640   0.192   7.575  0.9405  0.9103  1.0937
27756SOL     OW85520   7.173   1.211   1.258 -0.0482 -0.0740 -0.0383
27756SOL    HW185521   7.206   1.150   1.192 -1.4130 -1.4374  0.4598
27756SOL    HW285522   7.078   1.204   1.251 -0.2364 -0.4893  2.2541
27757SOL     OW85523  10.009   6.492   7.980 -0.2894 -0.1329 -0.8469
27757SOL    HW185524   9.920   6.526   7.982  0.3305  1.8191 -2.4436
27757SOL    HW285525   9.999   6.399   7.962 -2.0385  0.4568 -3.6182
27758SOL     OW85526   2.956   8.850   2.391  0.1293  0.1409 -0.1380
27758SOL    HW185527   2.939   8.829   2.300  0.0623  2.3783 -0.7113
27758SOL    HW285528   3.050   8.835   2.403 -0.1551 -1.8202 -0.0314
27759SOL     OW85529   1.335   5.386   7.995 -0.4045 -0.2913  0.4094
27759SOL    HW185530   1.250   5.428   8.012 -0.7484 -0.4888 -0.6992
27759SOL    HW285531   1.399   5.456   8.007 -0.9993  0.7088 -1.7479
27760SOL     OW85532   6.747   2.782   4.072  0.1251  0.0392  0.2962
27760SOL    HW185533   6.754   2.696   4.030  0.7072  0.2805 -0.1114
27760SOL    HW285534   6.716   2.840   4.002 -0.5802  0.1093  0.6493
27761SOL     OW85535   2.452   7.432   2.276 -0.0959  0.3380 -0.0423
27761SOL    HW185536   2.482   7.410   2.188  1.2798  0.9606  0.2455
27761SOL    HW285537   2.443   7.527   2.275 -1.2183  0.2409  0.1556
27762SOL     OW85538   9.401   7.661   7.246  0.1634 -0.2360  0.3426
27762SOL    HW185539   9.375   7.570   7.254  0.7134 -0.6390 -1.8824
27762SOL    HW285540   9.410   7.676   7.152  2.5925  1.3696  0.7255
27763SOL     OW85541   0.043   3.274   5.353  0.2079  0.6012 -0.1743
27763SOL    HW185542   0.133   3.243   5.337  0.0319 -1.4220  2.3048
27763SOL    HW285543   0.053   3.343   5.419  0.0152  1.5449 -1.0908
27764SOL     OW85544   1.749   6.768   5.228 -0.1369 -0.0763 -0.0931
27764SOL    HW185545   1.701   6.814   5.159  0.9230  0.5329 -0.4471
27764SOL    HW285546   1.739   6.676   5.207  0.0872  0.1016 -1.0073
27765SOL     OW85547   2.885   1.520   2.093 -0.1449 -0.1626 -0.1179
27765SOL    HW185548   2.863   1.481   2.008 -1.2049 -0.4500  0.2809
27765SOL    HW285549   2.806   1.510   2.146  0.6838 -0.4784  1.0951
27766SOL     OW85550   3.199   8.197   2.999 -0.4789  0.7710  0.3118
27766SOL    HW185551   3.275   8.166   3.048 -1.3862  0.4133  1.5585
27766SOL    HW285552   3.215   8.291   2.987  0.3816  0.6077  0.1194
27767SOL     OW85553   6.646  10.269   1.758 -0.0692  0.4259  0.0291
27767SOL    HW185554   6.558  10.293   1.786 -0.1992 -0.8166  0.7305
27767SOL    HW285555   6.635  10.239   1.668  0.2553  3.8091 -1.2921
27768SOL     OW85556   1.524  10.332   2.199  0.0745  0.2238 -0.0558
27768SOL    HW185557   1.520  10.320   2.105  1.1811  1.5768 -0.3106
27768SOL    HW285558   1.475  10.258   2.235 -0.3482 -0.3242 -1.6719
27769SOL     OW85559   9.794   2.804   5.600  0.1316 -0.1555 -0.4335
27769SOL    HW185560   9.876   2.756   5.597  0.6958  0.8256 -1.6890
27769SOL    HW285561   9.809   2.873   5.665  0.1178 -0.2657 -0.3115
27770SOL     OW85562   9.931   9.170   9.138 -0.0837  0.0387  0.3605
27770SOL    HW185563  10.025   9.159   9.151 -0.2047 -2.7144 -0.3609
27770SOL    HW285564   9.898   9.197   9.223  1.1321 -1.0993  1.2322
27771SOL     OW85565   3.263   4.077   1.307  0.3560 -0.0093 -0.3595
27771SOL    HW185566   3.202   4.151   1.300 -0.3992 -0.7054 -1.6290
27771SOL    HW285567   3.236   4.031   1.387 -0.3146  0.1287 -0.4960
27772SOL     OW85568   9.278   3.367   8.403 -0.1391  0.0729  0.0572
27772SOL    HW185569   9.299   3.364   8.310  0.9616 -0.1191  0.3018
27772SOL    HW285570   9.319   3.447   8.435 -1.3386  0.6617  0.2045
27773SOL     OW85571   6.575   7.463   3.481  0.4660 -0.0667  0.2545
27773SOL    HW185572   6.623   7.540   3.512  0.3040  0.1731 -0.0871
27773SOL    HW285573   6.521   7.437   3.556  1.6345 -0.7669  0.8937
27774SOL     OW85574   7.492   4.637   6.757 -0.4654 -0.0650 -0.2928
27774SOL    HW185575   7.560   4.656   6.821 -0.7060  0.8016 -0.2775
27774SOL    HW285576   7.446   4.560   6.792  1.5047 -1.7054 -1.1182
27775SOL     OW85577   1.115   1.647   1.696 -0.2653  0.0177  0.3514
27775SOL    HW185578   1.175   1.649   1.622  0.6554 -0.6773  1.0559
27775SOL    HW285579   1.045   1.587   1.670 -0.3071  0.3078 -0.2128
27776SOL     OW85580   6.627   3.356   3.598 -0.0447 -0.9365 -0.9711
27776SOL    HW185581   6.596   3.424   3.538 -1.0592  0.4779  1.0575
27776SOL    HW285582   6.572   3.280   3.578 -2.5215  0.4401  0.1269
27777SOL     OW85583   2.650   3.594   2.278 -0.7377 -0.3420  0.1984
27777SOL    HW185584   2.558   3.569   2.269 -1.3998  1.5418  1.1448
27777SOL    HW285585   2.651   3.652   2.354  1.3855 -0.9247  0.6755
27778SOL     OW85586   1.342   1.190   3.213 -0.4097  0.7614 -0.4658
27778SOL    HW185587   1.356   1.122   3.147  0.5381  0.6524 -0.1662
27778SOL    HW285588   1.247   1.196   3.222 -0.5310  0.4071 -1.4511
27779SOL     OW85589   8.760   4.418   6.414 -0.2081 -0.2314 -0.6389
27779SOL    HW185590   8.703   4.397   6.488 -0.1381  0.2285 -0.4547
27779SOL    HW285591   8.700   4.438   6.342 -0.2885 -1.7557 -1.0334
27780SOL     OW85592   8.609   2.103   2.980  0.0962  0.0370  0.7782
27780SOL    HW185593   8.693   2.118   2.937  0.4775  0.4000  1.6315
27780SOL    HW285594   8.601   2.008   2.984  0.6134 -0.0018  0.9645
27781SOL     OW85595   4.001   4.732   0.948 -0.1192 -0.5542  0.8982
27781SOL    HW185596   3.998   4.648   0.993  0.1723 -0.7844  0.4898
27781SOL    HW285597   3.990   4.711   0.856  1.7844 -0.3406  0.5740
27782SOL     OW85598   7.082   5.723   8.952 -0.0134  0.2975 -0.2171
27782SOL    HW185599   7.023   5.760   9.017  0.8507  1.1816  0.0922
27782SOL    HW285600   7.149   5.677   9.003  0.0641  0.0565 -0.5309
27783SOL     OW85601   7.511   6.852   7.591 -0.5586 -0.2310 -0.1480
27783SOL    HW185602   7.425   6.829   7.555 -1.4985  0.7357  1.3259
27783SOL    HW285603   7.494   6.865   7.685  1.4037 -0.9146  0.3325
27784SOL     OW85604   9.849   2.193   8.334 -0.7100 -0.2127 -0.1642
27784SOL    HW185605   9.926   2.219   8.386 -0.1993 -1.7207 -0.0892
27784SOL    HW285606   9.788   2.158   8.399 -1.3175  0.6483 -0.2657
27785SOL     OW85607   3.558   6.616   3.325 -0.1678  0.1032  0.4058
27785SOL    HW185608   3.512   6.541   3.362 -1.2851  0.1009 -0.9185
27785SOL    HW285609   3.488   6.678   3.301  0.6721  1.1486  0.5951
27786SOL     OW85610   5.566   4.579   2.713  0.4638  0.1295 -0.0041
27786SOL    HW185611   5.535   4.492   2.687  3.2900 -0.8311 -0.4436
27786SOL    HW285612   5.656   4.566   2.742 -0.1830  2.3082  3.7242
27787SOL     OW85613   4.603   9.655   7.764 -0.4637 -1.0193 -0.2548
27787SOL    HW185614   4.595   9.703   7.681  0.8806 -0.3482 -0.0204
27787SOL    HW285615   4.620   9.723   7.829  2.3398 -1.7969 -0.0336
27788SOL     OW85616   0.992   1.310   6.762 -0.3413  0.1521 -0.7366
27788SOL    HW185617   1.003   1.363   6.683  1.5861  0.0697 -0.5651
27788SOL    HW285618   1.049   1.234   6.748 -1.2653 -0.7104  0.0314
27789SOL     OW85619   3.063   7.588   1.873 -0.0983 -0.0879  0.3763
27789SOL    HW185620   3.131   7.625   1.929 -0.6070 -0.7558  1.4492
27789SOL    HW285621   3.086   7.496   1.864  0.8086  0.2838 -1.7663
27790SOL     OW85622   3.692   5.291   4.193 -0.1339  0.4896  0.0727
27790SOL    HW185623   3.637   5.326   4.123 -1.3558  0.0069  0.7721
27790SOL    HW285624   3.690   5.196   4.179 -0.7881  0.3525  1.0561
27791SOL     OW85625   6.964   4.266   8.507 -1.1246  0.3781 -0.4908
27791SOL    HW185626   6.974   4.190   8.564 -0.2515  1.8274  1.3951
27791SOL    HW285627   7.012   4.243   8.427  3.0059  0.5303  1.7141
27792SOL     OW85628   4.601   2.836   5.273  0.2577 -0.4921 -0.0549
27792SOL    HW185629   4.617   2.892   5.197 -0.4868  2.3117  1.7121
27792SOL    HW285630   4.520   2.790   5.252 -0.4386  0.9375 -0.6246
27793SOL     OW85631   6.896   8.935   6.471 -0.1750  0.2644 -0.1114
27793SOL    HW185632   6.970   8.876   6.481  0.3172  1.0515  1.0513
27793SOL    HW285633   6.935   9.022   6.467 -1.0413  0.7135  0.7853
27794SOL     OW85634   0.131   2.360   1.816 -0.2492  0.0354  0.2424
27794SOL    HW185635   0.157   2.291   1.876 -0.8547  1.6973  2.5329
27794SOL    HW285636   0.164   2.441   1.855 -0.2703  1.1852 -1.9131
27795SOL     OW85637   5.038   5.363   6.470  0.5008 -0.5132  0.0066
27795SOL    HW185638   5.073   5.402   6.391  0.3473 -0.4242 -0.0156
27795SOL    HW285639   5.038   5.434   6.535  2.6940 -1.0845  0.7408
27796SOL     OW85640   1.070   6.864   8.656  0.6196 -0.0280  0.7075
27796SOL    HW185641   1.149   6.837   8.702 -0.1743 -1.2612  1.4177
27796SOL    HW285642   1.001   6.810   8.694 -0.6685  1.4224  0.5090
27797SOL     OW85643   3.787   9.297   5.726  0.3599 -0.2356 -0.0888
27797SOL    HW185644   3.717   9.293   5.660  0.5757 -2.5131 -0.2822
27797SOL    HW285645   3.805   9.390   5.736 -0.7881  0.2775 -2.0713
27798SOL     OW85646   3.466   4.117   8.138  0.6575 -0.5597 -0.4496
27798SOL    HW185647   3.529   4.047   8.123  2.5174  1.2261 -1.5414
27798SOL    HW285648   3.501   4.166   8.213  1.5460  1.3381 -1.9869
27799SOL     OW85649   0.992   7.872   1.589  0.0989 -0.5006  0.0779
27799SOL    HW185650   0.919   7.816   1.563 -1.0058  0.4962  0.9141
27799SOL    HW285651   1.023   7.834   1.671 -0.2799 -0.2431  0.3470
27800SOL     OW85652   7.229   5.171   9.038  0.2696  0.6500  0.6005
27800SOL    HW185653   7.308   5.225   9.049  1.6419 -0.9273 -0.8051
27800SOL    HW285654   7.260   5.081   9.051 -1.4592  0.0271  0.6360
27801SOL     OW85655   4.710   9.258   5.797 -0.2187 -0.2077  0.4133
27801SOL    HW185656   4.647   9.311   5.747 -1.9917 -1.7447  0.9375
27801SOL    HW285657   4.708   9.296   5.885 -0.3941 -0.2507  0.4276
27802SOL     OW85658   6.211   5.057  10.387  0.1815  0.7568  0.4661
27802SOL    HW185659   6.126   5.078  10.425  0.9788 -0.4355  3.1945
27802SOL    HW285660   6.214   5.105  10.305 -2.4132  2.1902  1.1170
27803SOL     OW85661   9.961   2.594   9.847  0.2517 -0.0071 -0.1447
27803SOL    HW185662   9.884   2.571   9.899  0.7124  0.6572  0.8556
27803SOL    HW285663   9.948   2.686   9.825  0.9942  0.2477  0.4509
27804SOL     OW85664   1.613   7.365   7.123  0.1350 -0.0070 -0.2285
27804SOL    HW185665   1.595   7.444   7.175  0.0323  0.0220 -0.3084
27804SOL    HW285666   1.566   7.295   7.169 -3.1288  0.6233 -2.2944
27805SOL     OW85667   0.459   5.061   4.633 -0.1468 -0.4463  0.1173
27805SOL    HW185668   0.370   5.094   4.647 -0.9275 -2.0160 -0.8688
27805SOL    HW285669   0.447   4.979   4.587  1.8086 -1.0916  0.6639
27806SOL     OW85670   8.013   4.547   0.491 -0.3576 -0.0090  0.3664
27806SOL    HW185671   7.926   4.543   0.452 -0.5896 -1.0828  0.9667
27806SOL    HW285672   8.073   4.532   0.417 -0.7341 -0.4275  0.1419
27807SOL     OW85673   9.516   7.030   4.251  0.3867  0.0070  0.3945
27807SOL    HW185674   9.490   6.957   4.307  1.3804  0.3455  1.3590
27807SOL    HW285675   9.533   6.991   4.166  1.5433 -1.0428  1.0632
27808SOL     OW85676   0.121   5.987   2.348 -0.1829 -0.6507  0.2781
27808SOL    HW185677   0.064   6.010   2.274  0.8288  3.2214  0.4901
27808SOL    HW285678   0.063   5.987   2.424 -0.2178  2.0095  0.3174
27809SOL     OW85679   3.196   8.894   0.247 -0.4707  0.1651  1.0446
27809SOL    HW185680   3.235   8.960   0.304  0.6817  0.9379 -0.5482
27809SOL    HW285681   3.140   8.842   0.305  1.5544  0.1162  3.1051
27810SOL     OW85682   3.342   3.372   3.563  0.0868  0.3464  0.5614
27810SOL    HW185683   3.262   3.389   3.612  0.0683  1.7408  0.0932
27810SOL    HW285684   3.315   3.372   3.471  0.2008 -1.7740  0.4714
27811SOL     OW85685   3.414   3.596   0.431  0.3074 -0.5399  0.2351
27811SOL    HW185686   3.496   3.586   0.383 -0.3659  0.6956 -1.2863
27811SOL    HW285687   3.346   3.577   0.366 -0.6252  0.5765  0.8484
27812SOL     OW85688   8.440   0.710   9.352  0.2163  0.4416  0.0430
27812SOL    HW185689   8.360   0.743   9.393  1.3591  0.0762  2.8129
27812SOL    HW285690   8.511   0.750   9.402  1.6971 -2.0449  0.0941
27813SOL     OW85691   4.353   7.381   9.674  0.0075  0.6489 -0.0355
27813SOL    HW185692   4.284   7.354   9.614 -0.5460 -0.3668  1.0093
27813SOL    HW285693   4.313   7.452   9.725  0.1899  0.9445 -0.3010
27814SOL     OW85694   5.875   0.459   1.976  0.0463 -0.1176 -0.2119
27814SOL    HW185695   5.915   0.536   2.017  0.9890 -0.0056 -1.2821
27814SOL    HW285696   5.924   0.385   2.010  1.3222  0.0313 -1.6386
27815SOL     OW85697   6.298   8.589   2.524  0.6222 -0.0470  0.1109
27815SOL    HW185698   6.248   8.625   2.451  1.1507 -0.1346 -0.2965
27815SOL    HW285699   6.298   8.659   2.590  1.6673  0.7249 -0.6803
27816SOL     OW85700   1.845   8.136   6.152  0.0908 -0.2755  0.2639
27816SOL    HW185701   1.782   8.064   6.142  1.0708 -0.9932 -1.1931
27816SOL    HW285702   1.793   8.215   6.142 -0.6119 -0.8490 -0.8347
27817SOL     OW85703   2.386   7.531   5.551 -0.4788  0.4707 -0.4607
27817SOL    HW185704   2.426   7.445   5.555  1.1971  1.1602 -1.4143
27817SOL    HW285705   2.318   7.523   5.484  0.5702  0.2069 -1.5325
27818SOL     OW85706   6.512   6.188   0.624  0.6206  0.3663 -0.1205
27818SOL    HW185707   6.439   6.236   0.663  0.7696  0.8358 -0.4050
27818SOL    HW285708   6.547   6.135   0.695 -0.6623 -0.6902 -0.2381
27819SOL     OW85709   2.191   0.895   3.700  0.5321 -0.4410  0.1112
27819SOL    HW185710   2.269   0.843   3.683  1.0465  0.5016 -0.5150
27819SOL    HW285711   2.134   0.877   3.624  0.9151  0.2665 -0.3534
27820SOL     OW85712   6.617   3.002   2.470  0.4208  0.8701  0.2361
27820SOL    HW185713   6.536   3.035   2.431  0.4234 -0.8050 -1.3081
27820SOL    HW285714   6.590   2.961   2.552 -0.0267  1.8533  0.5865
27821SOL     OW85715   1.717   0.429   5.405 -0.0145 -0.0725  0.6823
27821SOL    HW185716   1.689   0.345   5.441 -0.1938 -0.6034 -0.6340
27821SOL    HW285717   1.655   0.492   5.440  0.4584 -0.3728  2.1495
27822SOL     OW85718   7.411   9.720   6.668  0.0009 -0.5089 -0.1709
27822SOL    HW185719   7.349   9.774   6.718  2.5175  2.9698 -0.3951
27822SOL    HW285720   7.473   9.689   6.734  0.2647 -0.5353 -0.4317
27823SOL     OW85721  10.367   8.170   5.292  0.0392 -0.5915 -0.0840
27823SOL    HW185722  10.313   8.177   5.214  1.8319  1.1951 -1.2731
27823SOL    HW285723  10.453   8.141   5.260  0.9150  0.5478  1.1091
27824SOL     OW85724   2.405   5.504   0.343 -0.6906  0.2152 -0.1059
27824SOL    HW185725   2.345   5.534   0.412 -1.9790 -2.0489 -0.1115
27824SOL    HW285726   2.360   5.428   0.305  1.9831 -1.2714 -0.4828
27825SOL     OW85727   6.649   0.491   4.685 -0.1574  0.9953 -0.8071
27825SOL    HW185728   6.639   0.499   4.780  1.2714  2.4508 -0.7399
27825SOL    HW285729   6.603   0.566   4.649  0.0948  0.9651 -1.2050
27826SOL     OW85730   7.713   7.408   6.643  0.6680 -0.2961  0.6916
27826SOL    HW185731   7.731   7.326   6.689  0.5401 -0.7989 -0.1438
27826SOL    HW285732   7.777   7.470   6.679  2.5708 -1.4447 -0.5636
27827SOL     OW85733   0.890   2.498   1.039 -0.2873  0.3861 -0.6826
27827SOL    HW185734   0.961   2.555   1.009 -0.0903  0.4598 -0.0810
27827SOL    HW285735   0.881   2.433   0.969  1.7029 -0.8133  0.0884
27828SOL     OW85736   3.995   8.303   6.763 -0.0937  0.3046 -0.1102
27828SOL    HW185737   4.060   8.263   6.820 -0.4630 -1.1832 -0.6895
27828SOL    HW285738   3.913   8.256   6.782 -0.4243  0.4090 -1.1842
27829SOL     OW85739   6.736  10.449   9.639  0.2591  0.1133 -0.2651
27829SOL    HW185740   6.714  10.487   9.724 -0.6326  0.3810 -0.5965
27829SOL    HW285741   6.706  10.358   9.644  1.0015 -0.1200  0.0022
27830SOL     OW85742   6.265   6.299   6.521 -0.1663 -0.2905 -0.0934
27830SOL    HW185743   6.175   6.307   6.490 -0.1947  0.1495  0.1003
27830SOL    HW285744   6.260   6.240   6.596 -0.1063 -1.3216 -0.8665
27831SOL     OW85745   3.436  10.359   0.732 -0.1124  0.5891 -0.0602
27831SOL    HW185746   3.399  10.285   0.685  0.3673  0.4159 -0.1657
27831SOL    HW285747   3.377  10.432   0.714  0.3868  0.6768 -1.4205
27832SOL     OW85748   7.627   7.919   6.990 -0.4361 -0.3455 -0.4602
27832SOL    HW185749   7.655   8.007   6.966  0.7946 -1.0128 -1.5980
27832SOL    HW285750   7.650   7.911   7.083  1.0886 -0.0532 -0.7863
27833SOL     OW85751   6.464   5.951   7.762  0.9629 -0.1888  0.1977
27833SOL    HW185752   6.413   6.029   7.784  0.9236 -1.0521  3.7913
27833SOL    HW285753   6.551   5.969   7.797  1.1854 -1.4233  0.3223
27834SOL     OW85754   3.034   0.753   4.043 -0.1026  0.2016  0.3415
27834SOL    HW185755   2.976   0.815   3.999 -0.8596 -0.3913  0.4784
27834SOL    HW285756   3.005   0.667   4.012  0.5015 -0.1225  0.6571
27835SOL     OW85757   2.211   0.878   5.747  0.0223  0.5260 -0.5577
27835SOL    HW185758   2.177   0.918   5.667  2.6926  0.5283 -1.8116
27835SOL    HW285759   2.248   0.952   5.797  0.3203  0.2716 -0.3949
27836SOL     OW85760   4.447   3.534   2.711 -0.2135  0.1565 -0.3759
27836SOL    HW185761   4.441   3.610   2.653  4.0548  1.2212  0.1922
27836SOL    HW285762   4.504   3.473   2.665  1.6452  0.1636  1.7106
27837SOL     OW85763   9.063   6.120   5.204 -0.0881  0.2993 -0.1383
27837SOL    HW185764   9.118   6.153   5.133  1.2140 -0.7984  0.3204
27837SOL    HW285765   9.058   6.193   5.266  1.7535  0.1228  0.2924
27838SOL     OW85766   7.660   5.242   3.198 -0.4425  0.4074  0.6064
27838SOL    HW185767   7.677   5.197   3.281  0.0895 -1.2721 -0.3571
27838SOL    HW285768   7.697   5.184   3.132 -0.5024  1.8991 -0.7945
27839SOL     OW85769   8.944   5.087   8.294 -0.5878  0.7681 -0.0005
27839SOL    HW185770   8.849   5.093   8.281 -0.5052 -0.1739 -1.2736
27839SOL    HW285771   8.981   5.135   8.220 -0.0900 -0.6383 -0.7061
27840SOL     OW85772   7.168   1.889   9.966 -0.0825 -0.0007 -0.4395
27840SOL    HW185773   7.099   1.822   9.962  0.4699 -0.6846  0.9570
27840SOL    HW285774   7.136   1.953  10.029 -0.0551  0.4347 -0.8558
27841SOL     OW85775  10.317   9.168   2.624  0.2514  0.3254 -0.2445
27841SOL    HW185776  10.385   9.153   2.559  0.5227  0.4725  0.0013
27841SOL    HW285777  10.296   9.081   2.658  0.2429  0.2689 -0.3926
27842SOL     OW85778   4.484   0.491   8.093 -0.0573  0.4894 -0.1661
27842SOL    HW185779   4.543   0.421   8.122  1.0658  1.7103  0.5976
27842SOL    HW285780   4.397   0.453   8.101  0.5318 -0.8845  0.0595
27843SOL     OW85781   9.528   3.856   8.390 -0.0476  0.1142  0.4404
27843SOL    HW185782   9.497   3.863   8.300 -1.0838 -1.4225  0.6514
27843SOL    HW285783   9.466   3.908   8.442  0.5586  1.0131  0.2906
27844SOL     OW85784   6.748   2.927   3.828 -0.1474  0.3038 -0.0110
27844SOL    HW185785   6.830   2.927   3.779  2.3573  1.2528  3.7617
27844SOL    HW285786   6.707   3.011   3.807 -0.1602 -0.0851 -1.7530
27845SOL     OW85787   7.715   3.347   7.396  0.1014  0.7621  0.1152
27845SOL    HW185788   7.658   3.370   7.469  0.7768  0.5357  0.7303
27845SOL    HW285789   7.656   3.335   7.322 -0.7057  0.0593  0.8411
27846SOL     OW85790   0.382   0.854   6.885  0.5214 -0.4515 -0.0732
27846SOL    HW185791   0.388   0.910   6.963 -1.1604  0.5540 -0.6314
27846SOL    HW285792   0.471   0.818   6.876  1.4970  1.5733  0.7017
27847SOL     OW85793   0.947   4.037   5.440 -0.0120  0.5506  0.0918
27847SOL    HW185794   0.876   4.101   5.434 -1.1445 -0.4500  1.8212
27847SOL    HW285795   1.023   4.087   5.469 -0.7351  1.2121  0.8949
27848SOL     OW85796   7.976   9.286  10.636  0.2277  0.1719  0.2694
27848SOL    HW185797   7.972   9.307  10.542 -0.2786 -0.7705  0.0665
27848SOL    HW285798   8.062   9.316  10.664  0.3815  0.4647 -0.4946
27849SOL     OW85799   1.822   7.021   3.591 -0.4393  0.5720  0.1143
27849SOL    HW185800   1.786   6.938   3.621 -1.3492  1.5456  1.8426
27849SOL    HW285801   1.917   7.005   3.586 -0.5735 -0.4851  0.6876
27850SOL     OW85802  10.498   8.364   4.635  0.2817 -0.1855  0.1890
27850SOL    HW185803  10.528   8.325   4.553 -1.7763  0.5849 -1.0277
27850SOL    HW285804  10.495   8.458   4.617 -2.1226 -0.1612  0.3667
27851SOL     OW85805   5.789  10.474   7.751 -0.0232  0.0876  0.1021
27851SOL    HW185806   5.866  10.482   7.696 -1.5672  1.3921 -2.0236
27851SOL    HW285807   5.815  10.517   7.833  0.9284  2.3974 -1.2843
27852SOL     OW85808   5.706   0.062   3.645 -0.0575  0.4642  0.1888
27852SOL    HW185809   5.719  -0.033   3.639  1.0130  0.6032  0.1998
27852SOL    HW285810   5.669   0.086   3.560 -0.2438  0.0581  0.1479
27853SOL     OW85811   2.778   9.388   5.729 -0.3949  0.4437  0.6512
27853SOL    HW185812   2.867   9.403   5.696 -0.5087  0.4041  0.3218
27853SOL    HW285813   2.759   9.466   5.781  0.1377  0.0834  1.3938
27854SOL     OW85814   0.271   7.258   0.792  0.1999  0.1564  0.2047
27854SOL    HW185815   0.228   7.211   0.864  2.3299 -2.3072  0.0094
27854SOL    HW285816   0.362   7.229   0.795  1.2286  2.8733 -1.2315
27855SOL     OW85817  10.584   8.368   6.717 -0.2755 -0.4299 -0.0205
27855SOL    HW185818  10.554   8.278   6.724  0.0005 -0.4218  1.5219
27855SOL    HW285819  10.520   8.411   6.659 -0.9976 -1.3445  0.0867
27856SOL     OW85820   4.034  10.438   2.567 -0.3196 -0.1215 -0.2967
27856SOL    HW185821   4.096  10.401   2.505  0.5172 -1.6386  1.3629
27856SOL    HW285822   4.083  10.507   2.611 -0.4788  0.0435 -0.3754
27857SOL     OW85823   7.750   6.971   4.329 -0.3818  0.1756 -0.5271
27857SOL    HW185824   7.712   6.887   4.354 -0.6074  0.3377 -0.3162
27857SOL    HW285825   7.698   7.000   4.254 -0.2689  0.1005 -0.6342
27858SOL     OW85826   8.230   0.794   4.567  0.0081 -0.1768 -0.7218
27858SOL    HW185827   8.178   0.829   4.639 -0.8159  0.7218 -1.7232
27858SOL    HW285828   8.214   0.700   4.569  1.0145 -0.3751  1.0319
27859SOL     OW85829   7.450   5.938   9.640 -0.2694 -0.8696  0.2695
27859SOL    HW185830   7.499   6.012   9.676  0.9245 -1.9351  0.9132
27859SOL    HW285831   7.366   5.940   9.686  0.9796 -1.8234  2.7689
27860SOL     OW85832   8.136  10.363   9.189  0.3835 -0.2707 -0.0395
27860SOL    HW185833   8.114  10.272   9.168 -1.5527  0.7082 -2.9621
27860SOL    HW285834   8.058  10.412   9.165  1.1434  2.1667  2.0267
27861SOL     OW85835   0.945  10.650   7.846 -0.0582  0.0298  0.1244
27861SOL    HW185836   0.853  10.663   7.824  0.0593 -1.6147 -1.5023
27861SOL    HW285837   0.991  10.719   7.799 -0.4001  0.6078  0.6208
27862SOL     OW85838   5.718   9.520   3.642  0.3574  0.2479  0.7076
27862SOL    HW185839   5.686   9.492   3.557  0.0261  1.3264  0.4691
27862SOL    HW285840   5.647   9.500   3.703  0.1105  0.5969  0.5342
27863SOL     OW85841   2.418   3.636   7.633 -0.2729  0.3264  0.1315
27863SOL    HW185842   2.504   3.657   7.668 -0.1220  2.4531 -1.3080
27863SOL    HW285843   2.435   3.581   7.557 -0.5105 -2.7420  2.1010
27864SOL     OW85844   8.525   7.786   8.181 -0.5620 -0.4680  0.1175
27864SOL    HW185845   8.474   7.743   8.249 -1.2075  0.4391  0.2224
27864SOL    HW285846   8.475   7.771   8.101 -2.3040  2.3318  0.5338
27865SOL     OW85847   9.901   1.116   3.941 -0.1515 -0.4904  0.6157
27865SOL    HW185848   9.961   1.048   3.910 -2.2947 -1.8023 -0.8568
27865SOL    HW285849   9.845   1.073   4.005 -0.8609  0.1826  0.4615
27866SOL     OW85850   3.725  10.112   5.915  0.2193 -0.5379 -0.2862
27866SOL    HW185851   3.669  10.040   5.944 -1.4077  0.8625  0.2365
27866SOL    HW285852   3.705  10.183   5.976  2.1450  0.2227 -0.4833
27867SOL     OW85853  10.202  10.134   7.526 -0.4637  0.2978  0.5931
27867SOL    HW185854  10.114  10.108   7.501 -0.6132  0.8701  0.5121
27867SOL    HW285855  10.233  10.063   7.583  0.1509 -1.4152 -1.7226
27868SOL     OW85856   5.916   9.808   0.537  0.7845  0.2552  0.0744
27868SOL    HW185857   5.936   9.759   0.458 -2.4099 -0.3219 -0.5160
27868SOL    HW285858   5.872   9.744   0.594 -1.3082  1.7685  0.2677
27869SOL     OW85859   7.203   1.266   8.769  0.0851 -0.3085  0.1914
27869SOL    HW185860   7.175   1.305   8.852 -0.6453 -1.4079  0.4789
27869SOL    HW285861   7.296   1.288   8.762 -0.0630  0.5739  0.8432
27870SOL     OW85862   1.549   0.028   0.885 -0.0778  0.1766  0.0042
27870SOL    HW185863   1.591   0.020   0.970 -4.3708 -0.1555  2.3365
27870SOL    HW285864   1.514  -0.058   0.866  1.2494  0.0741 -2.5573
27871SOL     OW85865   9.033   0.932   2.989  0.4187  0.2755 -0.3858
27871SOL    HW185866   9.030   0.911   2.895  0.8874 -1.1271 -0.1141
27871SOL    HW285867   8.943   0.957   3.010  0.2291  0.2698 -1.1467
27872SOL     OW85868   9.041   1.224   4.397  0.7573 -0.4328  0.4245
27872SOL    HW185869   9.005   1.158   4.457 -0.7117 -0.9627 -0.9632
27872SOL    HW285870   8.990   1.213   4.316  1.4058  1.5009 -0.3021
27873SOL     OW85871   9.855   9.248  10.221  0.5669 -0.3901  0.6731
27873SOL    HW185872   9.897   9.252  10.307 -0.1362  0.0583  1.0054
27873SOL    HW285873   9.848   9.339  10.193  0.2068 -0.4900  0.4325
27874SOL     OW85874   8.708   6.912   9.153 -0.2753  0.5285 -0.1776
27874SOL    HW185875   8.613   6.921   9.158 -0.2785  1.2481 -1.2339
27874SOL    HW285876   8.738   6.990   9.106  1.1578  1.8174  2.6097
27875SOL     OW85877   0.648   9.418  10.579 -0.3502  0.6242  0.5352
27875SOL    HW185878   0.674   9.506  10.608 -0.5755  0.6795  0.5747
27875SOL    HW285879   0.555   9.412  10.603  0.0138 -0.1691  1.8953
27876SOL     OW85880   7.432   3.776   3.983 -0.1369 -0.2015  0.4521
27876SOL    HW185881   7.379   3.773   4.063  0.8703  0.9107  1.2017
27876SOL    HW285882   7.370   3.797   3.913 -0.9154 -0.4280  1.0687
27877SOL     OW85883   2.161   9.325   5.293 -0.1821 -0.8196  0.1591
27877SOL    HW185884   2.143   9.306   5.385 -1.8470  0.4677  0.1494
27877SOL    HW285885   2.127   9.414   5.280  1.4749 -0.3513 -1.3136
27878SOL     OW85886   4.897  10.268   3.970 -0.0148 -0.3930  0.0096
27878SOL    HW185887   4.831  10.327   4.006  0.9638  0.6840  0.0833
27878SOL    HW285888   4.867  10.249   3.881 -0.2521  0.3575 -0.0741
27879SOL     OW85889   3.516   1.095   3.009 -0.4571 -0.2905  0.3567
27879SOL    HW185890   3.563   1.030   2.958  1.9381  0.8836  0.9447
27879SOL    HW285891   3.439   1.048   3.043 -0.3008 -1.9997 -1.4841
27880SOL     OW85892   7.987   4.137   5.135  0.2954 -0.1758  0.2246
27880SOL    HW185893   8.070   4.129   5.088 -0.0935 -3.6465 -0.1747
27880SOL    HW285894   7.924   4.093   5.078 -0.9989 -1.0053  2.2013
27881SOL     OW85895   9.378   9.253   9.374  0.4482  0.0259 -0.3196
27881SOL    HW185896   9.454   9.304   9.346  0.4542 -0.2816 -0.8804
27881SOL    HW285897   9.303   9.307   9.350  0.4864  0.4282  0.4306
27882SOL     OW85898   1.761   9.363   7.053 -0.2827  0.7578 -0.2882
27882SOL    HW185899   1.855   9.362   7.070 -0.3508 -0.1123  0.0983
27882SOL    HW285900   1.729   9.443   7.095  0.2891  1.0877 -0.4766
27883SOL     OW85901   0.231   2.942  10.110  0.5210  0.1275 -0.2361
27883SOL    HW185902   0.170   3.014  10.125  2.0548  1.5768 -0.6248
27883SOL    HW285903   0.205   2.875  10.172  0.8540  2.2166  2.3289
27884SOL     OW85904   1.487   8.707   7.792 -0.1202 -0.2665 -0.4218
27884SOL    HW185905   1.506   8.796   7.822  1.0556 -0.3992 -0.7419
27884SOL    HW285906   1.435   8.668   7.863 -0.6932  0.6808 -0.3066
27885SOL     OW85907   5.815  10.422   2.737 -0.3672 -0.1481 -0.4394
27885SOL    HW185908   5.870  10.378   2.802 -0.4509  0.4641  0.0591
27885SOL    HW285909   5.729  10.427   2.779 -0.1575  1.2231 -0.1429
27886SOL     OW85910   0.955   5.422   1.942 -0.4503  0.0953 -0.0761
27886SOL    HW185911   0.889   5.377   1.995 -0.5264  0.4795  0.1582
27886SOL    HW285912   0.974   5.502   1.991  0.9272 -0.4873  0.3879
27887SOL     OW85913   9.635   4.446  10.472 -0.1172 -0.2527  0.7673
27887SOL    HW185914   9.678   4.368  10.436 -1.6252 -1.1523  0.8265
27887SOL    HW285915   9.691   4.519  10.445  1.9129 -1.4064  1.5917
27888SOL     OW85916   3.440   2.245   0.861 -0.0486 -0.5381  0.6859
27888SOL    HW185917   3.454   2.170   0.919  0.8294 -0.4537  0.5875
27888SOL    HW285918   3.345   2.252   0.854 -0.1479 -1.1806  1.2965
27889SOL     OW85919  10.099   1.120   9.736  0.0351 -0.7102 -0.0014
27889SOL    HW185920  10.030   1.122   9.669 -0.1575 -2.7552  0.0652
27889SOL    HW285921  10.148   1.200   9.723 -0.7738 -0.4640 -1.7786
27890SOL     OW85922   8.333   2.815   6.324 -0.6859  0.0195 -0.1712
27890SOL    HW185923   8.322   2.795   6.417 -0.5481 -2.6228 -0.6398
27890SOL    HW285924   8.337   2.911   6.320  0.7097  0.1968  2.6929
27891SOL     OW85925  10.613   0.316   5.668 -0.8426 -0.4435 -0.7379
27891SOL    HW185926  10.553   0.248   5.638  0.1852 -1.0520 -1.4744
27891SOL    HW285927  10.700   0.276   5.662 -0.3345  0.4933  0.0887
27892SOL     OW85928   5.746   2.897   9.754  0.4282  0.4274  0.2880
27892SOL    HW185929   5.668   2.924   9.705 -1.1970 -1.5595  1.6407
27892SOL    HW285930   5.723   2.813   9.793  2.8087  0.3810  1.8257
27893SOL     OW85931   3.104   6.445   3.244 -0.9498  0.6409 -0.2974
27893SOL    HW185932   3.186   6.456   3.197 -0.4806  3.3579  0.9706
27893SOL    HW285933   3.129   6.408   3.328 -1.2193  0.2044 -0.4033
27894SOL     OW85934   7.223   6.990   0.502 -0.5479 -0.1481  0.3563
27894SOL    HW185935   7.313   6.965   0.518 -0.3861  0.1541 -0.0488
27894SOL    HW285936   7.202   7.052   0.572 -0.2815  0.1471  0.1784
27895SOL     OW85937   9.424   8.676   5.979  0.4816 -0.7152  0.3412
27895SOL    HW185938   9.423   8.633   5.894  1.2395 -1.6813  0.8107
27895SOL    HW285939   9.355   8.632   6.028 -1.4267  1.2490 -0.4088
27896SOL     OW85940   4.368   7.311   2.788 -0.0610  0.4212 -0.3037
27896SOL    HW185941   4.323   7.239   2.744 -1.6794  1.8346 -1.0915
27896SOL    HW285942   4.403   7.272   2.868 -0.0337 -1.4394 -1.1605
27897SOL     OW85943   4.346   0.939   6.273 -0.1029 -0.0256  0.8300
27897SOL    HW185944   4.309   0.994   6.204  2.1632  1.7470  0.8934
27897SOL    HW285945   4.329   0.850   6.243 -2.5404  0.6485 -0.0692
27898SOL     OW85946   3.603   3.060   3.519  0.1830  0.1215  0.5821
27898SOL    HW185947   3.535   3.035   3.582 -0.3521 -1.2715 -0.4789
27898SOL    HW285948   3.666   2.988   3.524  0.7151  0.5774  0.3541
27899SOL     OW85949   6.690   4.338   1.258  0.7229 -0.6782  0.1445
27899SOL    HW185950   6.684   4.420   1.307  0.4369 -0.8032  0.3199
27899SOL    HW285951   6.780   4.309   1.273  0.2338 -1.4628  1.8115
27900SOL     OW85952   0.487   6.945   3.240  0.6240  0.1014 -0.2735
27900SOL    HW185953   0.516   6.954   3.149 -3.5889  0.3055 -1.8272
27900SOL    HW285954   0.496   6.852   3.260 -0.0489 -0.2614 -1.5846
27901SOL     OW85955   1.926   1.923   0.791  0.7000 -0.4543 -0.6971
27901SOL    HW185956   1.910   1.841   0.743  1.0177 -0.7378 -0.3162
27901SOL    HW285957   1.858   1.982   0.758 -0.6327 -1.3881  0.2569
27902SOL     OW85958   5.762   8.112   0.839 -0.3508 -0.7265  0.1346
27902SOL    HW185959   5.765   8.162   0.757  1.3378  0.9069  1.1173
27902SOL    HW285960   5.848   8.069   0.844 -0.4895 -0.9276  0.9685
27903SOL     OW85961   8.799   5.252   1.827 -0.2275  0.0698 -0.2015
27903SOL    HW185962   8.866   5.250   1.759  0.4172  2.0149  0.3108
27903SOL    HW285963   8.716   5.253   1.779  0.1164 -1.0309 -0.8667
27904SOL     OW85964   5.050   3.645   1.646  0.0527 -0.1504 -0.0455
27904SOL    HW185965   5.082   3.615   1.731  0.3498 -1.3863 -0.5725
27904SOL    HW285966   5.004   3.569   1.610 -0.1878  0.4044 -0.9339
27905SOL     OW85967   5.529   0.566   2.428  0.1795 -0.3166  0.0513
27905SOL    HW185968   5.444   0.600   2.400  0.7280  1.5813  0.5273
27905SOL    HW285969   5.578   0.554   2.346 -0.4811 -1.2916 -0.2146
27906SOL     OW85970   3.441   3.172  10.036 -0.1419 -0.1913  1.0033
27906SOL    HW185971   3.527   3.184   9.996 -0.6486 -0.2888 -0.1414
27906SOL    HW285972   3.457   3.113  10.110  0.6869 -0.6913  0.4423
27907SOL     OW85973   9.692   7.526   6.472  0.3624 -0.1170  0.1651
27907SOL    HW185974   9.688   7.613   6.433  0.4337  0.9331  2.3637
27907SOL    HW285975   9.600   7.502   6.486  0.3395 -0.4545 -0.5309
27908SOL     OW85976   7.188   9.895   2.312  0.2720 -0.4714  0.1239
27908SOL    HW185977   7.214   9.820   2.366 -1.0412  0.1073  1.6400
27908SOL    HW285978   7.238   9.885   2.231  2.4828 -1.2734  1.5011
27909SOL     OW85979   4.016   8.779   3.278  0.9257  0.6406  0.2884
27909SOL    HW185980   4.094   8.745   3.233  1.4464  1.0158  0.8976
27909SOL    HW285981   3.964   8.818   3.208  0.9613 -0.1915 -0.2276
27910SOL     OW85982   6.821   8.837   3.035 -0.3328 -0.0385 -0.5704
27910SOL    HW185983   6.894   8.850   3.096 -0.8692  1.0303 -0.1250
27910SOL    HW285984   6.843   8.756   2.988  0.4865 -0.4448  0.4712
27911SOL     OW85985   2.602   1.720   1.654 -0.2379 -0.1549 -0.2630
27911SOL    HW185986   2.614   1.671   1.736  0.4040  1.2973  0.5489
27911SOL    HW285987   2.548   1.663   1.600 -1.9652 -0.5489  1.7373
27912SOL     OW85988   6.084  10.185   8.149 -0.1675  0.2348  0.1401
27912SOL    HW185989   6.125  10.165   8.065 -1.2589 -0.3952 -0.2661
27912SOL    HW285990   6.013  10.121   8.156 -0.5631  0.7754  1.1963
27913SOL     OW85991   6.923   5.913   9.728 -0.1680 -1.1094 -0.5245
27913SOL    HW185992   6.964   5.880   9.648  1.1257 -0.2100 -0.2685
27913SOL    HW285993   6.830   5.920   9.706  0.3218  0.3950 -2.4291
27914SOL     OW85994   6.725   1.800   4.256  0.4126  0.0883 -0.1100
27914SOL    HW185995   6.656   1.733   4.263  0.0620  0.2674 -1.4503
27914SOL    HW285996   6.741   1.807   4.162  0.0349  2.3067 -0.0517
27915SOL     OW85997   1.406  10.095   2.352  0.1531 -0.2707  0.1220
27915SOL    HW185998   1.348  10.022   2.374 -0.1279 -0.5156 -1.3403
27915SOL    HW285999   1.373  10.168   2.404  0.2775 -1.1077  1.4087
27916SOL     OW86000   0.433   1.214   3.960  0.8440 -0.0035 -0.1299
27916SOL    HW186001   0.471   1.131   3.986 -0.7089 -0.8274 -0.3799
27916SOL    HW286002   0.474   1.234   3.875  1.6224 -0.2243  0.1871
27917SOL     OW86003   9.171   3.130   4.897 -0.2280 -0.0678  0.6274
27917SOL    HW186004   9.176   3.076   4.818 -0.4586 -0.5787  0.9569
27917SOL    HW286005   9.200   3.217   4.869  1.7053 -0.7236  0.4286
27918SOL     OW86006   3.797   1.784   9.168  0.0244 -0.5005  0.5909
27918SOL    HW186007   3.833   1.862   9.127 -1.1388 -0.5284 -0.5279
27918SOL    HW286008   3.780   1.810   9.259 -0.7715  0.6968  0.1185
27919SOL     OW86009   1.194   8.758   5.258 -0.4510 -0.0706 -0.3938
27919SOL    HW186010   1.195   8.669   5.223  1.8575 -1.0409  1.7981
27919SOL    HW286011   1.110   8.766   5.302 -2.3980  0.3530 -3.8655
27920SOL     OW86012  10.338   9.051  10.064  0.2699  0.4762 -0.3806
27920SOL    HW186013  10.320   9.012   9.979 -3.6674  0.0234  0.4735
27920SOL    HW286014  10.343   9.145  10.047 -1.5360  0.4816 -1.0253
27921SOL     OW86015   3.606   3.754   4.312  0.4978  0.2540  0.8520
27921SOL    HW186016   3.584   3.734   4.221  1.2809  0.5003  0.5985
27921SOL    HW286017   3.669   3.827   4.306  2.1572 -1.0709  1.4741
27922SOL     OW86018   4.974   4.783   6.891  0.4367  0.4610  0.8190
27922SOL    HW186019   4.912   4.855   6.896 -1.1633 -0.5151 -2.3389
27922SOL    HW286020   5.021   4.797   6.809  1.2536 -1.2079  0.9468
27923SOL     OW86021   5.635   1.608   7.766 -0.2220  0.0663 -0.1685
27923SOL    HW186022   5.620   1.665   7.842 -0.9266  0.2484 -0.4391
27923SOL    HW286023   5.668   1.667   7.698 -2.5865  0.5344 -1.0167
27924SOL     OW86024   2.142   7.338  10.128 -0.1290 -0.1442  0.8212
27924SOL    HW186025   2.214   7.292  10.171 -0.2162  0.3494  1.5169
27924SOL    HW286026   2.180   7.422  10.102  0.6296 -1.3005 -2.3021
27925SOL     OW86027   7.536   8.250   3.921 -0.0154  0.0678  0.0884
27925SOL    HW186028   7.537   8.336   3.879  3.4141 -0.3501 -1.0554
27925SOL    HW286029   7.586   8.262   4.002 -1.7389 -0.3663  1.2757
27926SOL     OW86030   5.852  10.267   5.578  0.5046  0.1937 -0.1652
27926SOL    HW186031   5.944  10.258   5.552  0.3516  0.2652 -0.7661
27926SOL    HW286032   5.810  10.304   5.500 -0.0932 -0.1482 -0.0032
27927SOL     OW86033   2.744   7.299   5.417 -0.8857  0.4323  0.2745
27927SOL    HW186034   2.826   7.266   5.379 -0.3804 -0.1527  1.7856
27927SOL    HW286035   2.676   7.246   5.377 -0.3944  0.0037 -0.0148
27928SOL     OW86036   2.719   5.899   3.847 -0.3809 -0.4198  0.2135
27928SOL    HW186037   2.742   5.927   3.758  3.1409  0.1725  1.1948
27928SOL    HW286038   2.798   5.912   3.898 -1.7864 -2.3245  3.1323
27929SOL     OW86039   6.286   0.643   5.988  0.6479  0.1446  0.1393
27929SOL    HW186040   6.360   0.644   5.928  2.0954 -0.1961  1.8663
27929SOL    HW286041   6.285   0.730   6.026 -0.2010  0.3208 -0.2533
27930SOL     OW86042   5.095   1.730   3.197 -0.7460 -0.0196  0.5741
27930SOL    HW186043   5.052   1.720   3.282 -1.0547 -0.5772  0.3580
27930SOL    HW286044   5.183   1.762   3.218 -0.4756 -1.1275  1.1651
27931SOL     OW86045   9.759   6.875   6.546 -0.1783  0.1431  0.4269
27931SOL    HW186046   9.766   6.794   6.597 -1.4736 -1.2287 -1.4209
27931SOL    HW286047   9.820   6.935   6.588  1.9858 -2.2524  1.0048
27932SOL     OW86048   1.276   2.438   2.777  0.2868 -0.3412  0.6012
27932SOL    HW186049   1.241   2.448   2.865  2.4099  0.0173  1.4742
27932SOL    HW286050   1.365   2.473   2.783  0.3817 -0.0276 -1.7741
27933SOL     OW86051   7.530   3.183  10.566 -0.1071 -0.0984 -0.3815
27933SOL    HW186052   7.605   3.241  10.579  0.0236 -0.6785  2.0400
27933SOL    HW286053   7.539   3.151  10.476  1.0878  1.8225 -0.9968
27934SOL     OW86054   2.854   5.704   5.441 -0.0605  0.7496 -0.0968
27934SOL    HW186055   2.883   5.719   5.531 -1.7021  2.1989  0.2535
27934SOL    HW286056   2.769   5.661   5.451  0.9437 -1.5684 -1.0389
27935SOL     OW86057   3.076   8.599   8.341 -0.4086 -0.0336  0.4854
27935SOL    HW186058   3.085   8.632   8.430  1.2617  0.1513  0.2876
27935SOL    HW286059   3.152   8.542   8.329  0.2022  1.0373 -1.2495
27936SOL     OW86060   0.547   7.837   4.124  0.3722 -0.1212 -0.1437
27936SOL    HW186061   0.589   7.762   4.166  0.4675  0.4464  0.7960
27936SOL    HW286062   0.614   7.870   4.063  0.2340 -0.9410 -0.7618
27937SOL     OW86063   2.239   4.683   4.390  0.3357 -0.6085 -0.2951
27937SOL    HW186064   2.215   4.694   4.482 -0.3703  0.7876 -0.6135
27937SOL    HW286065   2.244   4.773   4.356  1.8313 -1.0408 -1.3165
27938SOL     OW86066   9.316   9.664   2.502  0.4897 -0.2692  0.7563
27938SOL    HW186067   9.400   9.671   2.547 -0.0112  0.1335  1.6522
27938SOL    HW286068   9.263   9.733   2.540  0.1316  0.2625 -0.6618
27939SOL     OW86069   0.356  10.397   4.958 -0.0997 -0.2364 -0.2097
27939SOL    HW186070   0.389  10.427   5.043 -0.0288 -1.8539  0.3873
27939SOL    HW286071   0.301  10.468   4.926 -0.5250  0.2148  1.4395
27940SOL     OW86072   6.973   2.201   8.216  0.1908 -0.3267 -0.1321
27940SOL    HW186073   7.012   2.273   8.166  2.2025 -0.8622  0.6140
27940SOL    HW286074   7.017   2.123   8.183  0.6934 -0.8159  1.6170
27941SOL     OW86075   7.437   2.423   5.503  0.1034 -0.5142  0.3065
27941SOL    HW186076   7.445   2.358   5.572  0.7388 -1.9435 -1.0495
27941SOL    HW286077   7.479   2.383   5.427 -0.6602  0.9486 -0.9489
27942SOL     OW86078   5.762   7.771   7.908 -0.2029  0.4319  0.0812
27942SOL    HW186079   5.779   7.864   7.895  1.0380  0.6306  2.4991
27942SOL    HW286080   5.847   7.735   7.937 -1.3732 -0.7431  2.3692
27943SOL     OW86081   3.412   9.385   3.914 -0.3413  0.9196  0.3630
27943SOL    HW186082   3.395   9.296   3.945 -1.6272  1.6982  2.0912
27943SOL    HW286083   3.345   9.438   3.956  1.4390  2.9848  0.7996
27944SOL     OW86084   0.884   5.756   3.801 -0.0408  0.3687  0.7237
27944SOL    HW186085   0.876   5.784   3.893 -1.6556 -1.6097  1.2557
27944SOL    HW286086   0.835   5.822   3.752 -0.1564  0.8064  1.4084
27945SOL     OW86087   5.320   1.061   4.574 -0.0908 -0.3486 -0.3770
27945SOL    HW186088   5.336   1.153   4.556  0.1935 -0.1797  0.6714
27945SOL    HW286089   5.255   1.034   4.509 -0.0685  0.5483 -0.7757
27946SOL     OW86090  10.584   1.303   6.472  0.0506 -0.0981  0.3600
27946SOL    HW186091  10.583   1.330   6.381 -0.8216  0.7581  0.6031
27946SOL    HW286092  10.504   1.251   6.483 -0.4464  0.7571  0.8958
27947SOL     OW86093   4.632   5.895   2.102 -0.1574  0.5418  0.2744
27947SOL    HW186094   4.540   5.912   2.125 -0.1704  0.0250  0.6010
27947SOL    HW286095   4.627   5.856   2.015 -0.3498 -0.8050  0.8758
27948SOL     OW86096   0.037   8.983   9.936 -0.2143  0.5047  0.3159
27948SOL    HW186097   0.039   8.970   9.841 -0.2516 -0.1777  0.3991
27948SOL    HW286098   0.010   9.074   9.948  0.6480  0.8587 -0.3395
27949SOL     OW86099   4.400   0.966   6.923  0.4553 -0.3661 -0.8241
27949SOL    HW186100   4.371   0.878   6.945  0.3226  0.2071  1.4902
27949SOL    HW286101   4.474   0.953   6.864  0.9008 -2.0609  0.0620
27950SOL     OW86102   3.364   3.768   5.530  0.4962  0.3413 -0.2653
27950SOL    HW186103   3.397   3.841   5.478 -0.3523 -0.6519 -2.3044
27950SOL    HW286104   3.331   3.705   5.466 -1.2369 -0.6886  1.5031
27951SOL     OW86105   6.066   8.586   5.409  0.2078 -0.0453  0.3237
27951SOL    HW186106   5.983   8.548   5.439  0.3043 -1.2782 -0.8781
27951SOL    HW286107   6.132   8.520   5.433  0.6243  0.1819 -0.1967
27952SOL     OW86108   8.517   7.501   1.368  0.3131  0.2754 -0.5244
27952SOL    HW186109   8.599   7.495   1.417 -0.1548 -1.5633  0.1044
27952SOL    HW286110   8.456   7.445   1.416 -1.3640  1.6918 -0.9240
27953SOL     OW86111   1.539   0.549   3.569 -0.4186  0.3162  0.0518
27953SOL    HW186112   1.610   0.522   3.627  0.0798  0.8438 -0.2932
27953SOL    HW286113   1.526   0.642   3.589 -0.5275  0.3969 -0.3789
27954SOL     OW86114   5.911   5.316   1.471  0.0376 -0.5172  0.6122
27954SOL    HW186115   5.913   5.267   1.389 -0.1225  0.6849 -0.1218
27954SOL    HW286116   6.002   5.319   1.500  0.0333 -1.3455  0.7372
27955SOL     OW86117   6.804   1.199   7.261  0.1456  0.1423  0.8108
27955SOL    HW186118   6.892   1.213   7.296  0.5482  0.9323 -0.4489
27955SOL    HW286119   6.783   1.281   7.216 -0.7117 -0.5013  0.0023
27956SOL     OW86120   3.460   8.795   0.846 -0.1218  0.0074  0.0613
27956SOL    HW186121   3.521   8.801   0.773  0.2785  2.9119  0.5101
27956SOL    HW286122   3.388   8.853   0.822  0.9777  2.7098  2.7178
27957SOL     OW86123   6.729   0.637   6.935  0.7749 -0.1390  0.1672
27957SOL    HW186124   6.713   0.568   6.999  0.5817 -0.0016  0.2715
27957SOL    HW286125   6.654   0.696   6.944 -0.6355 -1.4547 -1.9977
27958SOL     OW86126   5.241   0.164   0.582  0.1984 -0.5168 -0.1278
27958SOL    HW186127   5.195   0.109   0.520 -0.5922  0.7154 -0.6665
27958SOL    HW286128   5.304   0.213   0.529 -0.1621  0.2072  0.1051
27959SOL     OW86129   3.984   6.757   1.233  0.0756  0.0276 -0.2490
27959SOL    HW186130   3.990   6.733   1.325  2.6037  0.7283 -0.1545
27959SOL    HW286131   3.997   6.852   1.232 -2.8473  0.5403 -1.1603
27960SOL     OW86132   2.938   5.991   8.646  0.0014 -0.2733  0.0933
27960SOL    HW186133   2.865   6.035   8.690  1.9200  2.5410  0.6738
27960SOL    HW286134   2.980   5.939   8.714 -1.2102 -1.6883 -0.1821
27961SOL     OW86135   6.199  10.438   0.964 -0.7416 -0.1541 -0.0307
27961SOL    HW186136   6.144  10.359   0.961 -1.0338 -0.0179  1.1856
27961SOL    HW286137   6.142  10.505   1.002  0.5957 -0.3454  2.5231
27962SOL     OW86138  10.538   5.495   3.849  0.4388  0.2061 -0.2103
27962SOL    HW186139  10.544   5.458   3.937  1.7244 -1.2307 -0.8377
27962SOL    HW286140  10.519   5.419   3.793  2.3534  0.5685 -1.4635
27963SOL     OW86141   1.160   8.091   9.627 -0.2622  0.2516 -0.2410
27963SOL    HW186142   1.072   8.087   9.664  0.0656 -1.0030  0.4577
27963SOL    HW286143   1.182   8.000   9.607  2.1580  0.0432  2.7078
27964SOL     OW86144   6.274   1.288   9.145  0.9012 -0.1472  0.1537
27964SOL    HW186145   6.331   1.291   9.068  0.3761  0.3677 -0.2258
27964SOL    HW286146   6.209   1.221   9.124  0.3486  0.4707 -0.1562
27965SOL     OW86147   2.291   7.024   9.541  0.0373  0.3768 -0.0089
27965SOL    HW186148   2.381   7.040   9.568  0.5530  0.2954 -1.5730
27965SOL    HW286149   2.283   7.066   9.456 -0.2516 -2.6745 -1.6644
27966SOL     OW86150   3.620   4.963   9.693  0.9277 -0.1585 -0.4819
27966SOL    HW186151   3.681   4.972   9.620  1.9430 -2.4226  0.0060
27966SOL    HW286152   3.662   5.009   9.766  1.5276 -0.7796 -0.4350
27967SOL     OW86153  10.215  10.056   2.983  0.0546  0.1265  0.7244
27967SOL    HW186154  10.185  10.003   2.909  1.5358  0.1373  0.0848
27967SOL    HW286155  10.215  10.146   2.949 -2.4066  0.6125  1.7887
27968SOL     OW86156   3.141   7.092   8.038  0.5898  0.8609  0.3294
27968SOL    HW186157   3.220   7.079   7.987  0.6281  2.0637  0.0431
27968SOL    HW286158   3.106   7.004   8.053  2.1354  0.2913  0.7309
27969SOL     OW86159   7.125   2.414   1.137 -0.2557 -0.0499 -0.4956
27969SOL    HW186160   7.208   2.443   1.174 -0.2870 -0.6829  0.1001
27969SOL    HW286161   7.139   2.415   1.042  0.1255  0.7260 -0.4330
27970SOL     OW86162   8.935   6.852   2.834  0.5947 -0.0968 -0.5114
27970SOL    HW186163   9.017   6.854   2.883  0.1085 -0.7057  0.3539
27970SOL    HW286164   8.867   6.861   2.901 -0.0549  0.1095 -1.1892
27971SOL     OW86165   2.013   0.043   8.357  0.3072  0.2967  0.3615
27971SOL    HW186166   2.012  -0.017   8.282  2.4127  0.5255  0.0682
27971SOL    HW286167   1.939   0.016   8.411 -0.6085 -0.5737 -1.2618
27972SOL     OW86168   7.360   7.649   4.614  0.6301 -0.4093 -0.0888
27972SOL    HW186169   7.454   7.652   4.632  0.5009 -0.9056  0.7133
27972SOL    HW286170   7.328   7.574   4.665 -0.2785  0.0400  0.0243
27973SOL     OW86171   1.267   6.816   0.998  0.3723 -0.4386 -0.3807
27973SOL    HW186172   1.295   6.733   1.037 -0.4487  0.3757  2.1493
27973SOL    HW286173   1.344   6.872   1.003 -0.2055  0.2642  2.0415
27974SOL     OW86174   6.764   8.235   1.818  0.0820 -0.3192  0.1106
27974SOL    HW186175   6.858   8.230   1.838 -0.1104  0.1840  1.2173
27974SOL    HW286176   6.755   8.315   1.766  0.3569 -0.7661 -0.6502
27975SOL     OW86177   7.615   8.410   9.464  0.0545  0.6170 -0.0399
27975SOL    HW186178   7.567   8.490   9.485  0.0008  0.3802  0.7997
27975SOL    HW286179   7.618   8.362   9.547 -0.7835 -0.7039 -0.7286
27976SOL     OW86180  10.105   6.324   3.672 -0.4042 -0.2170  0.2514
27976SOL    HW186181  10.194   6.294   3.655  0.3490  0.9894  1.7528
27976SOL    HW286182  10.072   6.265   3.741 -1.2569 -1.4023 -1.1008
27977SOL     OW86183   8.584   4.707   3.633  0.3345  0.2298 -0.2363
27977SOL    HW186184   8.514   4.746   3.581  1.2180 -0.4796 -2.0684
27977SOL    HW286185   8.576   4.747   3.719 -2.0768  0.4214 -0.4999
27978SOL     OW86186   9.691   1.169  10.608  0.6449  0.0674 -0.2068
27978SOL    HW186187   9.686   1.165  10.703 -1.2654 -1.5213 -0.3155
27978SOL    HW286188   9.625   1.234  10.583 -0.4351 -1.1178 -0.5128
27979SOL     OW86189   3.405   5.370   0.351  0.2666 -0.4203 -0.1490
27979SOL    HW186190   3.315   5.396   0.368  0.1952 -0.8788  0.1789
27979SOL    HW286191   3.404   5.342   0.259  0.2869  0.4612 -0.4287
27980SOL     OW86192  10.364   4.283   0.011  0.6500  0.1168  0.3971
27980SOL    HW186193  10.371   4.372  -0.025  3.5353  0.0234  0.5262
27980SOL    HW286194  10.306   4.237  -0.050  0.5553  1.5916 -0.6700
27981SOL     OW86195   4.525   1.407   4.452 -0.4896  0.5520 -0.2173
27981SOL    HW186196   4.537   1.436   4.542 -0.4587 -1.0340  0.3186
27981SOL    HW286197   4.607   1.430   4.408 -0.7813  2.0021 -0.0668
27982SOL     OW86198   0.243   4.204   1.386  0.1250  0.3588  0.4260
27982SOL    HW186199   0.300   4.249   1.449  0.4733 -1.0970  1.2030
27982SOL    HW286200   0.294   4.201   1.305  0.8685 -0.2877  0.9100
27983SOL     OW86201   1.095   8.485   4.130 -0.2250  0.0870  0.4397
27983SOL    HW186202   1.090   8.411   4.069  2.2979  0.2886 -0.1415
27983SOL    HW286203   1.117   8.560   4.074  1.8348  0.3407  1.5161
27984SOL     OW86204   2.303   1.538   1.692  0.1712  0.0914 -0.1035
27984SOL    HW186205   2.258   1.455   1.703  1.9118 -1.0317 -0.9449
27984SOL    HW286206   2.275   1.569   1.606 -0.3495  0.3088  0.1394
27985SOL     OW86207   8.862  10.115   6.544  0.2022 -0.5399 -0.0058
27985SOL    HW186208   8.818  10.193   6.577  1.8161  0.6745 -0.5978
27985SOL    HW286209   8.826  10.043   6.596 -1.4522  0.5574  0.4355
27986SOL     OW86210   2.691   5.501   1.943 -0.3048  0.5454 -0.0383
27986SOL    HW186211   2.598   5.490   1.961 -0.5322  0.1667 -1.3292
27986SOL    HW286212   2.713   5.428   1.884  0.6009  1.1291 -0.4525
27987SOL     OW86213   4.658   6.205   3.212  0.5572 -0.2861 -0.5917
27987SOL    HW186214   4.670   6.300   3.216 -0.8284 -0.1335  0.1385
27987SOL    HW286215   4.716   6.177   3.141  0.0109  1.2721 -1.6987
27988SOL     OW86216   9.329   7.955   5.322  0.9581 -0.5969 -0.4918
27988SOL    HW186217   9.286   7.898   5.386  1.6981 -0.2440  0.3491
27988SOL    HW286218   9.419   7.963   5.354  0.2825  3.1718  0.9983
27989SOL     OW86219   7.279   3.200   6.794 -0.4019  0.4288  0.2745
27989SOL    HW186220   7.216   3.164   6.732  0.2089  1.1726 -0.8011
27989SOL    HW286221   7.226   3.247   6.858 -0.9794  0.4382 -0.2057
27990SOL     OW86222   9.160  10.118   7.316  0.1475  0.0006 -0.2517
27990SOL    HW186223   9.184  10.060   7.389  0.2821  1.0091  0.5268
27990SOL    HW286224   9.243  10.136   7.272  0.0533 -0.6854 -0.7281
27991SOL     OW86225   7.804   4.457   1.473  0.5764  0.4569 -0.5496
27991SOL    HW186226   7.733   4.466   1.409  0.2037  0.5912 -0.1153
27991SOL    HW286227   7.816   4.545   1.508  0.8844  0.4126 -0.5378
27992SOL     OW86228   8.747   9.277   7.691  0.2198  0.4527  0.8752
27992SOL    HW186229   8.698   9.199   7.664  1.0171 -0.5777  2.2769
27992SOL    HW286230   8.693   9.351   7.662 -1.1758 -0.6269  0.6367
27993SOL     OW86231   7.568   4.926   9.977  0.2099  0.3108 -0.2105
27993SOL    HW186232   7.618   5.002   9.948 -0.6880  1.2785  0.6691
27993SOL    HW286233   7.618   4.851   9.947  0.2645  1.2323 -2.5790
27994SOL     OW86234   0.814   2.053   7.667  0.3574 -0.4694  0.1895
27994SOL    HW186235   0.904   2.067   7.696  0.1848  1.2133  0.0170
27994SOL    HW286236   0.821   2.041   7.572  0.4915 -1.5207  0.3191
27995SOL     OW86237   9.356   3.264   0.033 -0.6570 -0.1301 -0.0537
27995SOL    HW186238   9.370   3.180   0.078 -0.7318 -0.5287 -0.7634
27995SOL    HW286239   9.430   3.319   0.062  0.3837 -1.0222 -0.9458
27996SOL     OW86240   5.489  10.129   5.351 -0.1735  0.4359 -0.1837
27996SOL    HW186241   5.563  10.177   5.389  0.7108  0.7153 -2.1544
27996SOL    HW286242   5.412  10.163   5.397  0.7854  0.9815  1.0849
27997SOL     OW86243   9.898   9.268   1.482  0.1263 -0.1206 -0.1760
27997SOL    HW186244   9.993   9.256   1.489  0.2300  0.3327 -0.8133
27997SOL    HW286245   9.877   9.243   1.392 -0.0896  1.5391 -0.6045
27998SOL     OW86246   9.322   1.153   4.836 -0.7028  0.5829 -0.0339
27998SOL    HW186247   9.278   1.189   4.759  1.3017 -0.7301 -1.9217
27998SOL    HW286248   9.410   1.192   4.833  0.3712 -1.6845 -0.1821
27999SOL     OW86249   3.665   5.697   8.717  0.3033 -0.5403  0.7389
27999SOL    HW186250   3.578   5.713   8.680  0.0808 -0.6339  1.2081
27999SOL    HW286251   3.726   5.729   8.651 -0.0878 -0.6244  0.3385
28000SOL     OW86252   0.249   0.983   5.725 -0.0787 -0.1086 -0.6759
28000SOL    HW186253   0.184   1.050   5.749 -0.5103 -0.5782 -0.5193
28000SOL    HW286254   0.206   0.900   5.746 -0.0476 -0.4956 -2.0447
28001SOL     OW86255   6.058   1.286   3.557 -0.1267  0.0512 -0.2976
28001SOL    HW186256   6.101   1.273   3.641  1.0216  0.2558 -0.8340
28001SOL    HW286257   6.075   1.377   3.534 -0.5783  0.0487 -0.6615
28002SOL     OW86258   5.625   2.001   6.061  0.1465 -0.0710  0.1411
28002SOL    HW186259   5.543   2.023   6.017  0.2080 -0.2675 -0.0743
28002SOL    HW286260   5.652   1.919   6.020  0.7609  0.3011 -0.2041
28003SOL     OW86261   8.754   0.286   4.906  0.3594 -0.5343  0.3839
28003SOL    HW186262   8.752   0.379   4.927 -0.1174 -0.2518 -0.8277
28003SOL    HW286263   8.746   0.283   4.810  1.2412 -1.7866  0.3323
28004SOL     OW86264   8.247  10.400   6.469 -0.2714  0.1962  0.1096
28004SOL    HW186265   8.291  10.429   6.389 -0.7105 -0.6920 -0.4792
28004SOL    HW286266   8.219  10.311   6.449 -1.3465  0.3469  0.8651
28005SOL     OW86267  10.344   3.227   4.463 -0.5187  0.3513 -0.5047
28005SOL    HW186268  10.328   3.205   4.554 -0.0523 -0.2800 -0.5642
28005SOL    HW286269  10.327   3.321   4.457  0.2240  0.5574  0.4061
28006SOL     OW86270   9.129   8.738   2.992 -0.0815  0.0682  0.2332
28006SOL    HW186271   9.112   8.675   3.063  0.3327 -0.2402  0.0617
28006SOL    HW286272   9.170   8.686   2.923  0.8260  0.6425  0.3330
28007SOL     OW86273   0.446   3.108   6.725  0.2443  0.4120  0.3752
28007SOL    HW186274   0.527   3.058   6.731 -0.4523 -0.9212 -0.8505
28007SOL    HW286275   0.463   3.175   6.659  0.3590  0.1412  0.1304
28008SOL     OW86276   1.574   6.247   4.871  0.1264  0.2392  0.0788
28008SOL    HW186277   1.607   6.264   4.959  1.7168 -1.9432  0.0045
28008SOL    HW286278   1.593   6.154   4.857  1.1033  0.8066 -3.0290
28009SOL     OW86279  10.320   9.612  10.553  0.2532 -0.4095 -0.3052
28009SOL    HW186280  10.287   9.640  10.638 -1.4022  0.8659 -1.2870
28009SOL    HW286281  10.259   9.543  10.525 -0.9515  1.0855 -1.5864
28010SOL     OW86282   5.906  10.427   5.814 -0.1510 -0.6601 -0.8298
28010SOL    HW186283   5.875  10.360   5.753  0.6576 -0.4626 -1.4812
28010SOL    HW286284   5.906  10.508   5.763 -0.4758 -0.2848 -0.2469
28011SOL     OW86285   1.923   6.769   4.539 -0.1884 -0.6712  0.2361
28011SOL    HW186286   1.935   6.710   4.614 -0.9200  0.1676  1.0333
28011SOL    HW286287   1.905   6.710   4.465 -2.2183 -1.4350  1.2713
28012SOL     OW86288   8.374   6.880   4.714  0.2512 -0.6045  0.0867
28012SOL    HW186289   8.302   6.822   4.741  1.0788 -1.8334 -0.2523
28012SOL    HW286290   8.441   6.867   4.780  0.3291  0.2188  0.1721
28013SOL     OW86291   4.949   1.180   9.066 -0.3016 -0.4210  0.5781
28013SOL    HW186292   5.032   1.135   9.047 -0.2323  0.4412 -1.4424
28013SOL    HW286293   4.958   1.265   9.023 -1.6099  0.3618  1.7671
28014SOL     OW86294   9.127   7.214   0.615  0.8270  0.2154  0.3310
28014SOL    HW186295   9.202   7.240   0.668  1.6690  0.2219 -0.8433
28014SOL    HW286296   9.164   7.164   0.543 -0.4199 -0.9468  0.4416
28015SOL     OW86297   3.356   5.731   8.695  0.1677 -0.0236 -0.2387
28015SOL    HW186298   3.339   5.821   8.668  0.9777  0.1080 -0.3244
28015SOL    HW286299   3.270   5.689   8.694  0.0220  0.2261 -2.0982
28016SOL     OW86300   0.557   0.343   8.517  0.3943  0.6401  0.1466
28016SOL    HW186301   0.495   0.388   8.459  0.8902 -0.4406 -1.2709
28016SOL    HW286302   0.611   0.290   8.458  0.0600 -1.5327  1.6882
28017SOL     OW86303   2.141   8.435   7.312  0.3755 -0.5752 -0.3156
28017SOL    HW186304   2.136   8.439   7.407 -0.0014 -0.3190 -0.3443
28017SOL    HW286305   2.227   8.397   7.294  0.8047  0.1731  0.1127
28018SOL     OW86306   1.733   7.545   0.945  0.0875 -0.5452 -0.1736
28018SOL    HW186307   1.746   7.548   1.039  0.9789 -2.7999 -0.1554
28018SOL    HW286308   1.819   7.524   0.909 -0.0024  1.2944 -1.6179
28019SOL     OW86309   4.466  10.230   5.406 -0.6648  0.0330  0.0526
28019SOL    HW186310   4.496  10.316   5.437 -0.4420  0.1110 -0.3695
28019SOL    HW286311   4.383  10.216   5.452  0.2377 -0.4060  1.6013
28020SOL     OW86312   5.013   4.984   7.850  0.5587 -0.7512 -0.3312
28020SOL    HW186313   4.964   4.949   7.776 -1.4256  2.2226 -0.6030
28020SOL    HW286314   5.097   5.011   7.813 -0.4459  0.8032 -1.6479
28021SOL     OW86315   0.191   8.436   6.022  0.4559  0.1257  0.1669
28021SOL    HW186316   0.181   8.530   6.036 -1.2502 -0.0163  0.0819
28021SOL    HW286317   0.101   8.402   6.017  1.0083 -1.6706  1.3051
28022SOL     OW86318   5.662   4.222   3.735 -0.2485 -0.3878  0.2250
28022SOL    HW186319   5.752   4.223   3.703 -1.1177  0.2369 -2.5391
28022SOL    HW286320   5.636   4.315   3.735 -0.8800 -0.5607  0.9938
28023SOL     OW86321   6.767   2.194   6.809  0.0604 -0.1888 -0.2667
28023SOL    HW186322   6.808   2.265   6.858 -1.7315  1.1498 -0.5684
28023SOL    HW286323   6.756   2.230   6.720 -1.2086 -0.6707 -0.3280
28024SOL     OW86324   4.120   3.275   1.404  0.5076  0.0854 -0.3486
28024SOL    HW186325   4.060   3.345   1.428  2.9770  1.7102  1.5009
28024SOL    HW286326   4.077   3.231   1.330 -2.4076  1.7661  0.1961
28025SOL     OW86327   6.242   3.017   1.250 -0.1567 -0.5197 -0.1372
28025SOL    HW186328   6.172   2.984   1.306 -0.4540 -0.0352 -0.2096
28025SOL    HW286329   6.319   2.965   1.273 -0.2002 -0.1429  0.9300
28026SOL     OW86330   4.330   3.155   3.833 -0.2022 -0.3327 -0.1000
28026SOL    HW186331   4.235   3.162   3.838 -0.4265 -1.8459 -1.4258
28026SOL    HW286332   4.351   3.078   3.885  0.2147 -0.4884 -0.4965
28027SOL     OW86333   7.737  10.043   8.835 -0.7265  0.1788 -0.1988
28027SOL    HW186334   7.721   9.959   8.878  2.3256 -0.4054  0.0099
28027SOL    HW286335   7.701  10.108   8.895 -3.7992 -0.8967 -0.6961
28028SOL     OW86336   7.180   7.796   3.016 -0.3903 -0.1237 -0.4749
28028SOL    HW186337   7.125   7.748   2.955 -2.4557 -1.2895  2.0997
28028SOL    HW286338   7.123   7.864   3.053  1.3616  1.8559 -1.1912
28029SOL     OW86339   5.127  10.596   4.380 -0.7757  0.3489  0.3846
28029SOL    HW186340   5.178  10.662   4.427  0.1156 -1.4397  2.0870
28029SOL    HW286341   5.191  10.545   4.331 -1.2294 -0.2133  0.3497
28030SOL     OW86342   3.050   8.122   7.881 -0.0329  0.9664 -0.0140
28030SOL    HW186343   3.118   8.077   7.830 -2.1962 -0.5138 -1.7491
28030SOL    HW286344   3.056   8.213   7.853  1.0943  0.8206 -0.3046
28031SOL     OW86345   7.353  10.479   8.448 -0.2744 -0.0507  0.1829
28031SOL    HW186346   7.435  10.528   8.449  0.9645 -2.0007  0.0941
28031SOL    HW286347   7.352  10.432   8.531  0.2379 -2.3693 -1.0425
28032SOL     OW86348   2.965   6.824   0.855  0.2860 -0.0820  0.3848
28032SOL    HW186349   2.993   6.764   0.786 -0.4868 -0.0969  0.0724
28032SOL    HW286350   2.965   6.910   0.812  0.5490  0.0191  0.5859
28033SOL     OW86351   6.090   8.597   0.611 -0.2358 -0.3910  0.5485
28033SOL    HW186352   6.130   8.678   0.578 -0.8423 -0.0746  0.5877
28033SOL    HW286353   6.117   8.592   0.703 -1.0197  0.2954  0.8280
28034SOL     OW86354   1.372   8.050   6.171  0.3104 -0.0900 -0.2480
28034SOL    HW186355   1.283   8.060   6.205  0.3185 -2.8602  0.8730
28034SOL    HW286356   1.410   8.137   6.176 -1.7205  0.7936  1.0881
28035SOL     OW86357  10.316  10.261  10.032 -0.0528  0.0095 -0.2328
28035SOL    HW186358  10.400  10.262  10.077  0.2424 -1.0187 -0.7157
28035SOL    HW286359  10.268  10.335  10.068  0.6946  0.0395  0.7466
28036SOL     OW86360   2.309   8.509  10.122 -0.1064  0.0600  0.3591
28036SOL    HW186361   2.386   8.452  10.121 -0.2748 -0.2608 -2.4616
28036SOL    HW286362   2.246   8.462  10.178  0.0091 -2.2673 -1.2951
28037SOL     OW86363   1.290   8.356   2.450  0.4903  0.1902  0.7417
28037SOL    HW186364   1.249   8.269   2.451  0.8428  0.0160  0.2448
28037SOL    HW286365   1.245   8.404   2.520  0.6738 -0.5686  1.4032
28038SOL     OW86366   1.970   7.616   3.922  0.4794  0.3719 -0.4662
28038SOL    HW186367   1.898   7.554   3.909 -0.5884  1.5724 -0.4762
28038SOL    HW286368   2.048   7.561   3.930 -0.5009 -0.9890  0.0476
28039SOL     OW86369   3.609   4.465   2.683  0.6457 -0.2858 -0.4189
28039SOL    HW186370   3.681   4.408   2.655  1.7342  1.0018 -0.3186
28039SOL    HW286371   3.580   4.509   2.603 -0.3572 -1.1249 -0.5386
28040SOL     OW86372   4.656   4.777   0.701  0.2196 -0.4900 -0.5497
28040SOL    HW186373   4.745   4.759   0.670 -0.2397 -2.3031 -0.9659
28040SOL    HW286374   4.605   4.701   0.671 -1.6388  0.8634 -0.9893
28041SOL     OW86375   6.998   7.268   2.195  0.4753 -0.2741  0.2222
28041SOL    HW186376   7.061   7.202   2.223 -0.0468 -1.4175 -1.1244
28041SOL    HW286377   6.932   7.269   2.264  0.5023 -1.1711  0.2708
28042SOL     OW86378   6.740   2.376   1.882 -0.3117  0.5671 -0.2789
28042SOL    HW186379   6.797   2.390   1.958  0.4106  0.4842 -0.7953
28042SOL    HW286380   6.701   2.290   1.897  2.9038 -1.3585 -1.8745
28043SOL     OW86381   0.839   7.623   7.793 -0.6209  0.5022 -0.1041
28043SOL    HW186382   0.779   7.698   7.787  0.5897  1.7220  1.8817
28043SOL    HW286383   0.914   7.657   7.842  0.6423 -1.6391 -0.4500
28044SOL     OW86384   6.960   3.706   8.089 -0.0686 -0.2736  0.0467
28044SOL    HW186385   6.964   3.798   8.062  2.4121  0.1846  1.6334
28044SOL    HW286386   6.877   3.698   8.135 -0.2146  1.2758  0.1116
28045SOL     OW86387   2.811   1.973   1.967  0.2948  0.1278  0.4636
28045SOL    HW186388   2.833   2.010   2.053  0.3589  1.0269  0.0781
28045SOL    HW286389   2.889   1.990   1.913 -0.7230  2.0422 -0.5176
28046SOL     OW86390   6.101   1.083   9.077  0.7291 -0.5064  0.5783
28046SOL    HW186391   6.024   1.117   9.123  0.2637 -0.6601 -0.0678
28046SOL    HW286392   6.089   0.988   9.078  0.5619 -0.4970 -0.1070
28047SOL     OW86393  10.156   2.962   7.289  0.2540  0.0685  0.1623
28047SOL    HW186394  10.061   2.976   7.283  0.5784  2.4921 -0.3293
28047SOL    HW286395  10.166   2.893   7.355 -1.8147  0.2521  0.7353
28048SOL     OW86396   1.764   2.675   5.610 -0.1855 -0.5410 -0.0244
28048SOL    HW186397   1.802   2.713   5.531  0.4743  0.0225  0.5570
28048SOL    HW286398   1.738   2.587   5.584  0.7207 -0.6291 -0.6706
28049SOL     OW86399   7.185   3.939   8.294  0.6351  0.1739  0.3894
28049SOL    HW186400   7.262   3.886   8.279 -0.7468 -1.9594  0.3693
28049SOL    HW286401   7.124   3.881   8.341 -1.2242  1.5106 -0.2185
28050SOL     OW86402  10.586   2.969   3.342 -0.0241  0.4076 -0.4484
28050SOL    HW186403  10.563   2.891   3.393  0.1215  0.2316 -0.6457
28050SOL    HW286404  10.675   2.950   3.310  1.0095  1.6758  1.4883
28051SOL     OW86405  10.453   9.210   9.770  0.7045 -0.0639 -0.3256
28051SOL    HW186406  10.440   9.116   9.778  2.3627 -0.2662  0.4274
28051SOL    HW286407  10.379   9.249   9.817  0.2436 -1.0020 -0.2643
28052SOL     OW86408   5.093  10.511   8.778  0.0829  0.2255  0.2499
28052SOL    HW186409   5.095  10.416   8.770  0.2944  0.2025  0.5578
28052SOL    HW286410   5.106  10.543   8.688  2.2251 -0.0299  0.4058
28053SOL     OW86411   6.210   8.309   6.474 -0.4745 -0.3524 -0.0058
28053SOL    HW186412   6.159   8.294   6.395  2.3257 -1.0541 -1.7858
28053SOL    HW286413   6.239   8.222   6.501  1.5851  0.1894 -0.3464
28054SOL     OW86414   6.509   8.855  10.237 -0.1700  0.2110  0.2200
28054SOL    HW186415   6.516   8.907  10.317  0.1279 -0.9339  0.9605
28054SOL    HW286416   6.590   8.873  10.189 -0.4020  0.9861  0.1130
28055SOL     OW86417   9.550   2.730   7.474 -0.0088  0.0642 -0.4147
28055SOL    HW186418   9.552   2.680   7.392 -0.0410 -0.8519  0.1283
28055SOL    HW286419   9.640   2.760   7.486  0.4973 -1.6046  0.2733
28056SOL     OW86420   5.016   9.002   9.034 -0.3850 -0.0464 -0.3228
28056SOL    HW186421   5.073   9.056   9.089 -1.3204  0.1197  0.5275
28056SOL    HW286422   4.970   8.945   9.096 -0.8331 -0.4666 -1.0191
28057SOL     OW86423   2.469   9.166   6.964  0.0470 -0.0607 -0.4206
28057SOL    HW186424   2.509   9.116   7.034 -2.1925  0.3258  1.2353
28057SOL    HW286425   2.453   9.101   6.895  0.1714 -0.9384  0.3532
28058SOL     OW86426   8.569   1.174   9.712  0.6709 -0.3017 -0.9378
28058SOL    HW186427   8.624   1.204   9.640  0.3711  0.2301 -0.9525
28058SOL    HW286428   8.567   1.248   9.773 -1.4740  0.4144 -1.7725
28059SOL     OW86429   8.838   5.186   4.700  0.0822 -0.3051  0.1980
28059SOL    HW186430   8.915   5.241   4.713  1.3581 -1.7073 -0.9807
28059SOL    HW286431   8.873   5.097   4.698 -1.1098 -0.8334 -3.1346
28060SOL     OW86432  10.518   6.597   9.063 -0.5758 -0.5884  0.2296
28060SOL    HW186433  10.565   6.611   9.145 -0.9320 -0.4446  0.4118
28060SOL    HW286434  10.474   6.680   9.046 -0.8480 -0.7536  0.1193
28061SOL     OW86435  10.517   1.822   9.968 -0.5053 -0.5887  0.5136
28061SOL    HW186436  10.526   1.907   9.925  0.6211 -0.6429  0.6169
28061SOL    HW286437  10.535   1.759   9.898  1.0829 -0.6833  0.9837
28062SOL     OW86438   0.784   8.300   6.536  0.4901  0.7018 -0.1336
28062SOL    HW186439   0.697   8.311   6.575  0.2544 -1.7510  0.1917
28062SOL    HW286440   0.843   8.343   6.597 -0.3409  1.1177  0.3979
28063SOL     OW86441   7.701   9.955   9.500 -0.1746 -0.2084 -0.0721
28063SOL    HW186442   7.775   9.899   9.524 -0.1689  0.4537  1.5782
28063SOL    HW286443   7.624   9.906   9.527 -0.3173 -0.6472 -1.2595
28064SOL     OW86444   8.169   0.170   3.933  0.0889  0.2646  0.0464
28064SOL    HW186445   8.117   0.090   3.944 -0.0861 -0.1709 -3.0956
28064SOL    HW286446   8.180   0.179   3.839  2.1875  2.6708  0.4084
28065SOL     OW86447   8.771   6.739   8.520 -0.4659 -0.0875 -0.0535
28065SOL    HW186448   8.864   6.716   8.523  0.0147  1.8226  0.6020
28065SOL    HW286449   8.729   6.660   8.485  1.3627 -1.0500 -0.2242
28066SOL     OW86450   5.750   0.783   9.221  0.5418  0.2127  0.1907
28066SOL    HW186451   5.822   0.842   9.244  0.8975  0.3754 -1.2131
28066SOL    HW286452   5.697   0.834   9.160  0.0241 -0.4137  0.1178
28067SOL     OW86453   4.374   1.595   2.393 -0.9501 -0.0444  0.0633
28067SOL    HW186454   4.443   1.541   2.433 -1.5675 -0.0621  1.1666
28067SOL    HW286455   4.305   1.533   2.370 -1.3433  0.1698  0.6343
28068SOL     OW86456   6.217   2.276   2.992  0.1793  0.5070  0.3415
28068SOL    HW186457   6.153   2.205   3.004  1.5249 -0.9125 -0.5530
28068SOL    HW286458   6.173   2.336   2.931 -0.1941 -0.6222 -0.5446
28069SOL     OW86459   7.182   7.962   6.136  0.3523 -0.0361  0.0829
28069SOL    HW186460   7.277   7.967   6.126  0.3467  0.4240  0.2164
28069SOL    HW286461   7.155   8.053   6.151 -0.0246 -0.2483  0.7326
28070SOL     OW86462   6.571   9.214   9.576 -0.3452  0.3948 -0.2026
28070SOL    HW186463   6.654   9.258   9.592 -0.0750 -0.8592  2.2086
28070SOL    HW286464   6.514   9.283   9.543  1.1206  1.6924 -0.1353
28071SOL     OW86465   5.622   5.042   8.628  0.1128  0.2367 -0.9202
28071SOL    HW186466   5.690   4.989   8.669  2.7618  0.7751 -4.1870
28071SOL    HW286467   5.541   4.993   8.645  0.9582  0.0204  3.8975
28072SOL     OW86468   9.812   5.824  10.500 -0.1645 -0.7286  0.0697
28072SOL    HW186469   9.738   5.811  10.559 -0.6934 -2.2231 -0.8572
28072SOL    HW286470   9.820   5.919  10.491 -1.7156 -0.5359  0.4972
28073SOL     OW86471   6.161   4.522   7.268 -0.5179 -0.3484  0.6354
28073SOL    HW186472   6.200   4.451   7.319  1.4829  1.9451  2.5217
28073SOL    HW286473   6.083   4.547   7.317  0.1016  0.3129  1.2895
28074SOL     OW86474   8.413   1.220   5.516  0.2713  0.7358 -0.2631
28074SOL    HW186475   8.474   1.231   5.442 -0.0367 -0.3700 -0.6965
28074SOL    HW286476   8.468   1.231   5.594  0.4147  3.0022 -0.5951
28075SOL     OW86477   8.806   4.184   7.851  0.2764  0.4254 -0.2538
28075SOL    HW186478   8.714   4.194   7.873  0.4906  2.4924 -0.1501
28075SOL    HW286479   8.817   4.234   7.770  1.5739  1.4645  0.5203
28076SOL     OW86480   7.923   6.737   2.358  0.0810  0.2311 -0.0156
28076SOL    HW186481   7.991   6.796   2.391  2.1096 -2.0699  0.2262
28076SOL    HW286482   7.884   6.698   2.437 -0.1687  0.1167 -0.1915
28077SOL     OW86483   7.839   6.138   1.557  0.5721  0.5143  0.0633
28077SOL    HW186484   7.826   6.067   1.494  0.6171 -1.9397  2.5963
28077SOL    HW286485   7.751   6.158   1.588  0.6885  0.5621  0.3649
28078SOL     OW86486   8.481   1.633   0.907  0.1439 -0.6097  0.3009
28078SOL    HW186487   8.442   1.703   0.959 -0.1480  1.1992 -2.1657
28078SOL    HW286488   8.457   1.553   0.954 -1.5859  0.7760  1.9699
28079SOL     OW86489   9.048   1.557   5.936  0.1632  0.0040 -0.5937
28079SOL    HW186490   9.132   1.560   5.982  0.0142  0.1329 -0.3295
28079SOL    HW286491   9.018   1.467   5.948 -0.7748  0.5105  1.1967
28080SOL     OW86492   6.899   2.580   4.266  0.3362  0.3317 -0.0202
28080SOL    HW186493   6.825   2.529   4.235 -0.1778  0.5786  0.7595
28080SOL    HW286494   6.861   2.664   4.293  0.5833 -0.1317  1.9809
28081SOL     OW86495   5.426   5.524   4.340  0.4652  0.0304 -0.5105
28081SOL    HW186496   5.493   5.519   4.271 -0.1858 -0.0052 -1.1590
28081SOL    HW286497   5.451   5.599   4.393  1.8865 -0.8982  0.1943
28082SOL     OW86498  10.478   2.471   8.587 -0.0606 -0.5196  0.0864
28082SOL    HW186499  10.385   2.477   8.562  0.2575 -0.3742 -1.1297
28082SOL    HW286500  10.523   2.528   8.525  0.7690  0.0996  1.2171
28083SOL     OW86501   8.756   4.125   5.018  0.1985 -0.2339 -0.1397
28083SOL    HW186502   8.758   4.151   4.926  2.6816 -0.4514 -0.1966
28083SOL    HW286503   8.804   4.194   5.064  0.9221 -1.2425  0.6687
28084SOL     OW86504   7.690   4.920   3.812 -0.2755 -0.4714  0.1307
28084SOL    HW186505   7.634   4.866   3.757 -0.6747  0.1150 -0.0499
28084SOL    HW286506   7.630   4.962   3.873 -0.1052  0.5722 -0.3984
28085SOL     OW86507   1.121   1.996   9.788 -0.2358  0.2162  0.1635
28085SOL    HW186508   1.190   1.979   9.724  0.4489 -0.1669  0.9859
28085SOL    HW286509   1.040   2.001   9.736  0.1987 -0.8002 -0.6409
28086SOL     OW86510   6.921   1.336   7.998 -0.2309 -0.3328 -0.1149
28086SOL    HW186511   6.862   1.405   8.027  0.7776  0.8342 -0.7202
28086SOL    HW286512   6.866   1.276   7.948 -1.0947  0.1457  0.2466
28087SOL     OW86513   8.723   4.033   7.408  0.2528 -0.3390  0.2791
28087SOL    HW186514   8.795   4.042   7.346 -0.9924  0.9394 -1.0751
28087SOL    HW286515   8.663   3.972   7.366 -0.4822  0.3398  0.3143
28088SOL     OW86516   8.395   9.926   7.831  0.3088  0.0936  0.9447
28088SOL    HW186517   8.299   9.919   7.832  0.3134 -0.1271  0.0480
28088SOL    HW286518   8.420   9.905   7.741  1.1546  0.8094  1.0067
28089SOL     OW86519   7.236   7.997   8.970 -0.1698  0.2165  0.1282
28089SOL    HW186520   7.149   7.969   8.941 -0.2027  0.9398 -0.4948
28089SOL    HW286521   7.292   7.982   8.894  0.2080 -0.0313  0.4544
28090SOL     OW86522   2.685   3.272   0.591 -0.4484 -0.2963  0.0845
28090SOL    HW186523   2.670   3.178   0.602  0.8437 -0.3999  1.3172
28090SOL    HW286524   2.780   3.280   0.583 -0.3025  1.0458  2.2482
28091SOL     OW86525   0.441   4.716   1.397  0.1750  0.2021  0.1977
28091SOL    HW186526   0.466   4.735   1.306  0.5620  1.5095  0.5598
28091SOL    HW286527   0.439   4.801   1.440 -0.5000 -0.3528  1.3072
28092SOL     OW86528   1.997   8.848   7.518  0.0531  0.2778  0.1463
28092SOL    HW186529   1.989   8.815   7.428 -1.5914 -1.3737  0.8222
28092SOL    HW286530   2.044   8.931   7.509 -1.4624  0.9651 -2.3993
28093SOL     OW86531   2.117   8.046   5.557  0.1229 -0.1330  0.2263
28093SOL    HW186532   2.107   7.952   5.571 -1.1022 -0.3895 -1.9660
28093SOL    HW286533   2.088   8.085   5.639 -0.8257 -1.6215  0.6519
28094SOL     OW86534   5.544   0.559   7.618  0.2182 -0.2528 -0.2775
28094SOL    HW186535   5.548   0.651   7.594  1.8231 -0.3862 -0.6506
28094SOL    HW286536   5.466   0.526   7.574 -0.4605  0.9491 -0.0122
28095SOL     OW86537   6.332   4.716   5.287 -0.3676 -0.6248 -0.7136
28095SOL    HW186538   6.366   4.644   5.234  0.5994 -0.6933 -0.0171
28095SOL    HW286539   6.247   4.735   5.248 -0.2549 -1.5492 -1.4656
28096SOL     OW86540   2.799   0.886   5.866  0.0604 -0.1033 -0.5394
28096SOL    HW186541   2.829   0.910   5.953 -0.1683 -2.8376  0.4142
28096SOL    HW286542   2.706   0.865   5.877  0.3349 -1.8155 -1.0498
28097SOL     OW86543   0.969   2.777   2.344 -0.4353  0.0393  0.3250
28097SOL    HW186544   1.017   2.746   2.267 -0.8021  1.2589 -0.4208
28097SOL    HW286545   0.878   2.753   2.327 -0.6814  1.2615 -0.1377
28098SOL     OW86546   2.759   8.510   9.514  0.1105 -0.8098 -0.0033
28098SOL    HW186547   2.792   8.583   9.566 -0.6356  0.2141 -0.9452
28098SOL    HW286548   2.664   8.518   9.519  0.0004 -0.2161 -2.1388
28099SOL     OW86549   3.378   7.756   2.194  0.9359 -0.2110  0.1014
28099SOL    HW186550   3.328   7.826   2.236  1.0179 -0.1863  0.1568
28099SOL    HW286551   3.469   7.776   2.213  0.9941 -0.0101 -0.3736
28100SOL     OW86552   2.074   3.819   4.303  0.1130  0.1176 -0.6021
28100SOL    HW186553   1.996   3.845   4.254 -0.4217  0.4503  0.4035
28100SOL    HW286554   2.146   3.838   4.243 -0.3570  2.6523 -0.4663
28101SOL     OW86555   7.717   2.315   0.269  0.0873  0.1496  0.1451
28101SOL    HW186556   7.658   2.284   0.201  1.9458 -0.7338 -1.1475
28101SOL    HW286557   7.707   2.411   0.267  0.7066  0.2213 -2.0121
28102SOL     OW86558   8.343   4.762   8.867 -0.2663 -0.2769 -0.1530
28102SOL    HW186559   8.410   4.694   8.853 -0.6026 -0.4404 -0.9850
28102SOL    HW286560   8.339   4.771   8.962 -0.0455 -1.2639 -0.0308
28103SOL     OW86561   7.523   8.644   9.772 -0.0346 -0.4176  0.0257
28103SOL    HW186562   7.612   8.676   9.758 -0.4163  0.1682 -1.2396
28103SOL    HW286563   7.527   8.597   9.854  1.1700  0.6421  0.6092
28104SOL     OW86564   0.238   3.413   0.276 -0.2615 -0.3050 -0.5669
28104SOL    HW186565   0.170   3.458   0.327 -0.9484 -2.3239  0.3676
28104SOL    HW286566   0.204   3.325   0.262  1.1066 -0.6266 -2.2466
28105SOL     OW86567   9.856   3.135   7.707  0.3014  0.5294 -0.0071
28105SOL    HW186568   9.934   3.080   7.708 -0.8817 -1.2152  0.1602
28105SOL    HW286569   9.862   3.183   7.625  0.4137 -1.3232 -1.1335
28106SOL     OW86570   0.357   4.446   9.313  0.1051  0.3468 -0.0649
28106SOL    HW186571   0.291   4.470   9.379  0.5002  1.1707  0.0402
28106SOL    HW286572   0.307   4.435   9.232 -0.4044 -0.7968  0.3896
28107SOL     OW86573   9.845   0.861   5.413  0.9289 -0.1226  0.9513
28107SOL    HW186574   9.780   0.915   5.458 -1.2970 -1.6486 -0.1691
28107SOL    HW286575   9.901   0.923   5.367 -1.3287  1.3084 -0.0589
28108SOL     OW86576   4.800   5.845   7.652 -1.1158 -0.3097  0.2274
28108SOL    HW186577   4.847   5.807   7.727  0.7839  0.1250 -0.6839
28108SOL    HW286578   4.708   5.828   7.671 -0.6917 -0.3886  2.5685
28109SOL     OW86579   7.982   4.551   5.570  0.3551  0.7861  0.1793
28109SOL    HW186580   7.974   4.532   5.664 -0.5630  1.3233  0.2165
28109SOL    HW286581   7.908   4.506   5.530 -0.0331  1.6668 -0.1143
28110SOL     OW86582   8.357   8.333   7.656 -0.0069  0.2440  0.3994
28110SOL    HW186583   8.388   8.328   7.747 -1.0182 -0.5370  0.7153
28110SOL    HW286584   8.284   8.271   7.652 -0.0254  0.3286 -0.9330
28111SOL     OW86585   4.466   9.187   8.914  0.2896 -0.1192  0.3995
28111SOL    HW186586   4.412   9.211   8.839 -0.5424  0.9745  1.3151
28111SOL    HW286587   4.405   9.148   8.977  0.7078  0.3064  1.0859
28112SOL     OW86588   2.112   8.948   6.436 -0.0735  0.1687 -0.7424
28112SOL    HW186589   2.058   8.950   6.515  0.9819  0.9560 -0.0070
28112SOL    HW286590   2.138   9.040   6.422 -1.0476  0.2090 -2.5973
28113SOL     OW86591   0.701   2.022   2.231 -0.1549 -0.2671  0.6433
28113SOL    HW186592   0.710   1.976   2.147  0.8551  0.2472  0.4547
28113SOL    HW286593   0.674   1.954   2.292 -1.7982 -0.4848 -0.2616
28114SOL     OW86594   9.205   0.716   8.988 -0.5494  0.3627  0.3521
28114SOL    HW186595   9.189   0.720   8.894 -0.8570 -0.1314  0.3812
28114SOL    HW286596   9.177   0.628   9.014  3.6684 -1.2554  0.1538
28115SOL     OW86597   3.906   8.808   6.808 -0.1084  0.1015  0.2595
28115SOL    HW186598   3.919   8.713   6.814  0.6083  0.1841  0.0622
28115SOL    HW286599   3.989   8.845   6.838 -0.0782  0.6526 -0.4796
28116SOL     OW86600   9.781   5.997   6.037 -0.1611 -0.1605 -0.3810
28116SOL    HW186601   9.811   6.015   6.127  0.4447 -0.6225 -0.4826
28116SOL    HW286602   9.769   5.902   6.035  1.6349 -0.4105 -1.3161
28117SOL     OW86603   7.266   4.502   3.057  0.2340 -0.2960  0.2236
28117SOL    HW186604   7.264   4.510   3.153 -0.8195 -0.0387  0.1938
28117SOL    HW286605   7.253   4.591   3.025  0.0244 -0.4636 -0.1598
28118SOL     OW86606   1.874   5.363   7.849 -0.0470  0.1388  0.4927
28118SOL    HW186607   1.818   5.424   7.800  0.6031 -0.4633 -1.0562
28118SOL    HW286608   1.816   5.290   7.871  0.4303 -1.3978 -2.7571
28119SOL     OW86609  10.261   4.952   7.405 -0.0074  0.5643 -0.1972
28119SOL    HW186610  10.217   4.978   7.486 -0.5672  1.6362 -0.8348
28119SOL    HW286611  10.282   4.859   7.419 -1.0607  0.4412  0.7402
28120SOL     OW86612   6.018   4.331   5.745  0.2274 -0.0996  0.1767
28120SOL    HW186613   6.027   4.425   5.760 -0.3740 -0.0214  0.0972
28120SOL    HW286614   5.930   4.311   5.776  0.9940 -0.9822  1.8548
28121SOL     OW86615   9.932   3.533   6.087 -0.0480 -0.3182 -0.2404
28121SOL    HW186616  10.011   3.586   6.088 -0.0280 -0.3543  0.2214
28121SOL    HW286617   9.932   3.492   6.001 -0.7726  1.4862 -1.1534
28122SOL     OW86618   2.207   3.747   3.077 -0.4302  0.0893  0.3268
28122SOL    HW186619   2.133   3.788   3.122  0.1971  2.4438 -0.6207
28122SOL    HW286620   2.277   3.749   3.142 -0.4713  0.3229  0.3669
28123SOL     OW86621   2.529  10.057   1.205  0.1053 -0.6835 -0.1018
28123SOL    HW186622   2.465  10.095   1.265  0.2509 -0.5840 -0.0099
28123SOL    HW286623   2.560   9.978   1.249 -0.0503 -0.8041 -0.2049
28124SOL     OW86624   6.427  10.643   2.543 -0.2974  0.1766 -0.2253
28124SOL    HW186625   6.492  10.648   2.474  1.6120 -0.2868  1.4479
28124SOL    HW286626   6.401  10.551   2.545 -0.2548  0.1648 -0.2247
28125SOL     OW86627  10.136   3.262   8.800  0.1984  0.1509 -0.2101
28125SOL    HW186628  10.172   3.275   8.888 -0.2451  1.0934 -0.1682
28125SOL    HW286629  10.200   3.205   8.757  0.2142 -0.6618  0.8483
28126SOL     OW86630   2.869   0.741   6.241 -0.2676 -0.2766 -0.4569
28126SOL    HW186631   2.775   0.735   6.253 -0.2888 -2.1902 -1.1518
28126SOL    HW286632   2.887   0.834   6.229 -1.9386  0.2046  0.5536
28127SOL     OW86633   6.047   1.851   8.460 -0.0693 -0.2682  0.0346
28127SOL    HW186634   6.088   1.935   8.483 -0.6781  0.0792 -0.1177
28127SOL    HW286635   5.964   1.876   8.420 -0.6388 -0.9657  0.7440
28128SOL     OW86636   8.251   8.207   9.098 -0.1049 -0.7913 -0.2432
28128SOL    HW186637   8.288   8.166   9.176 -0.9209 -1.3495 -0.1379
28128SOL    HW286638   8.189   8.271   9.132  0.1438 -0.4531 -0.4266
28129SOL     OW86639   9.351   5.126   3.864  0.0033 -0.4667 -0.4059
28129SOL    HW186640   9.399   5.176   3.799  1.1231 -1.2022 -0.1805
28129SOL    HW286641   9.351   5.036   3.831  1.1112 -0.9727  0.8408
28130SOL     OW86642   0.555   1.369   4.236 -0.2193  0.2425 -0.1480
28130SOL    HW186643   0.460   1.362   4.230 -0.1837  0.7777 -1.8944
28130SOL    HW286644   0.572   1.463   4.245  0.1099  0.0188  2.3785
28131SOL     OW86645   2.547   9.762   8.975  0.5555  0.3466  0.1471
28131SOL    HW186646   2.473   9.768   9.035  0.1575  0.4368 -0.3454
28131SOL    HW286647   2.587   9.677   8.993 -0.9889 -0.6920 -1.0715
28132SOL     OW86648   1.167   6.895   0.208 -0.2386  0.5449  0.5445
28132SOL    HW186649   1.078   6.865   0.226  0.0893 -0.2195  0.9437
28132SOL    HW286650   1.205   6.826   0.153 -0.5058  1.7929 -1.2954
28133SOL     OW86651   1.133   5.886   9.482 -0.1657  0.2954  0.0863
28133SOL    HW186652   1.043   5.861   9.457 -0.2504 -0.8856  1.4648
28133SOL    HW286653   1.187   5.854   9.410 -0.5896 -1.4454  0.4886
28134SOL     OW86654   3.364  10.456   8.976 -0.2581 -0.0675 -0.1672
28134SOL    HW186655   3.423  10.385   8.954  0.1509  0.3118 -0.3026
28134SOL    HW286656   3.419  10.535   8.975 -0.4461  0.1116  1.0984
28135SOL     OW86657   3.651   4.412   6.547  0.4466  0.1135  0.1881
28135SOL    HW186658   3.657   4.463   6.628  0.4109 -0.5233  0.6026
28135SOL    HW286659   3.558   4.393   6.538  0.6165 -1.1121  0.8341
28136SOL     OW86660   3.842   9.466   2.600  0.8825  0.8125 -0.6076
28136SOL    HW186661   3.855   9.544   2.546  1.3850  0.4067 -1.0807
28136SOL    HW286662   3.914   9.408   2.576  2.3859  1.4313  1.9958
28137SOL     OW86663   0.294   7.489   2.177 -0.1636 -0.5944 -0.4006
28137SOL    HW186664   0.232   7.506   2.107 -1.7801  1.2604  1.3581
28137SOL    HW286665   0.367   7.549   2.160 -1.0967  0.7326  0.0848
28138SOL     OW86666   8.937   8.513   0.305  0.5535 -1.0260  0.4614
28138SOL    HW186667   9.007   8.568   0.271  1.3186 -1.4686  1.2613
28138SOL    HW286668   8.885   8.571   0.360 -0.4373 -0.4125 -1.0734
28139SOL     OW86669   9.581   5.721   4.937  0.3581 -0.3646 -0.5403
28139SOL    HW186670   9.672   5.690   4.935  1.2570  2.1337 -2.0168
28139SOL    HW286671   9.574   5.768   5.020  0.4557 -0.4537 -0.4809
28140SOL     OW86672  10.412   6.804   7.615 -0.2293 -0.0217 -0.4069
28140SOL    HW186673  10.339   6.856   7.582  0.0938 -0.3467 -1.7353
28140SOL    HW286674  10.404   6.720   7.568  1.1032  0.0162 -0.7367
28141SOL     OW86675   4.731   3.188   7.495 -0.2000  0.1783  0.0442
28141SOL    HW186676   4.824   3.202   7.514  0.3798  0.4430 -2.6552
28141SOL    HW286677   4.696   3.275   7.478 -0.6038 -0.0414 -0.2704
28142SOL     OW86678   6.138   8.637   9.573  0.5448  0.5881 -0.1530
28142SOL    HW186679   6.074   8.706   9.554 -0.6653 -0.0457  1.4050
28142SOL    HW286680   6.095   8.556   9.544  0.8493  0.2125  0.4209
28143SOL     OW86681   9.023   1.801   6.085  0.7637 -0.4361  0.0629
28143SOL    HW186682   9.027   1.748   6.164  2.1470 -0.3302  0.0830
28143SOL    HW286683   9.025   1.737   6.013 -2.5356 -0.6930  0.0079
28144SOL     OW86684   1.463   0.468   7.098  0.0853 -0.2320 -0.5806
28144SOL    HW186685   1.509   0.512   7.026 -0.2903  1.5730  0.2289
28144SOL    HW286686   1.519   0.482   7.174 -1.3031  1.2065  0.2288
28145SOL     OW86687   1.019   7.235   5.682  0.2121 -0.1154 -0.2303
28145SOL    HW186688   0.969   7.287   5.619  0.2151  0.2473  0.0634
28145SOL    HW286689   1.032   7.151   5.638 -1.2576 -0.4755 -0.0224
28146SOL     OW86690   7.823   2.575   0.433 -0.0995  0.4228  0.3429
28146SOL    HW186691   7.871   2.571   0.516  0.7996  1.6171 -0.0868
28146SOL    HW286692   7.873   2.636   0.379 -1.0164  0.1581 -0.8653
28147SOL     OW86693   5.968   8.055   3.279 -0.2126  0.3559 -0.1745
28147SOL    HW186694   6.021   8.135   3.284 -0.2146  0.4278 -1.1247
28147SOL    HW286695   5.959   8.039   3.186 -0.4026 -0.6378  0.0108
28148SOL     OW86696   2.689   9.047   7.607 -0.0225  0.7097 -0.1924
28148SOL    HW186697   2.602   9.082   7.591  0.2644  1.5614  0.0405
28148SOL    HW286698   2.720   9.019   7.521 -0.0976  1.4295 -0.4597
28149SOL     OW86699   9.162   9.067   5.330  0.8791 -0.5064 -0.0561
28149SOL    HW186700   9.106   8.996   5.296  1.0319 -1.9336  2.4250
28149SOL    HW286701   9.100   9.129   5.368  0.8191 -0.0170 -0.9276
28150SOL     OW86702   9.992   2.650   5.503 -0.5787 -0.0396 -0.7315
28150SOL    HW186703  10.049   2.726   5.497  0.3349 -0.6156  0.1785
28150SOL    HW286704   9.930   2.660   5.431  0.8252  0.5002 -1.9066
28151SOL     OW86705   8.808   9.026   6.708 -0.5140  0.0539  0.1843
28151SOL    HW186706   8.750   9.101   6.716 -0.7731 -0.1017 -0.1969
28151SOL    HW286707   8.839   9.029   6.618 -2.0147 -1.3441 -0.4455
28152SOL     OW86708   0.008   3.535   4.569  0.0023 -0.1666 -0.5766
28152SOL    HW186709   0.075   3.473   4.597  0.2440  0.3914  0.0845
28152SOL    HW286710  -0.065   3.479   4.541 -0.4375 -0.7766  1.5876
28153SOL     OW86711   5.563   3.367   0.636  0.7379  0.2322 -0.3251
28153SOL    HW186712   5.502   3.408   0.575  0.6653 -2.9063 -2.6181
28153SOL    HW286713   5.508   3.326   0.702  0.6527  1.1145  0.1649
28154SOL     OW86714   4.748   5.750   3.980  0.1102  0.1894  0.3208
28154SOL    HW186715   4.721   5.708   3.899  1.9693 -0.1419 -0.1655
28154SOL    HW286716   4.749   5.680   4.045 -0.9848  0.3799  0.5802
28155SOL     OW86717   7.251   6.077   8.567 -0.3384  0.1946  0.4911
28155SOL    HW186718   7.211   6.022   8.500 -1.1036 -0.4050  1.4153
28155SOL    HW286719   7.317   6.021   8.608 -1.6516 -0.3368  1.9551
28156SOL     OW86720   4.765   3.216   8.577 -0.2343 -0.0806 -0.1071
28156SOL    HW186721   4.674   3.191   8.595 -0.5224  0.8202 -0.2303
28156SOL    HW286722   4.780   3.291   8.634  0.0715  0.4519 -0.8738
28157SOL     OW86723   0.086  10.105   3.621  0.1421  0.0503 -0.3133
28157SOL    HW186724   0.135  10.129   3.699 -0.4868 -3.0037  1.2134
28157SOL    HW286725   0.047  10.020   3.644 -1.9961  0.1492 -3.1274
28158SOL     OW86726   8.011   7.052   2.940 -0.5787  0.2197  0.0482
28158SOL    HW186727   8.054   6.979   2.986  0.2127 -0.3145 -1.4560
28158SOL    HW286728   7.918   7.031   2.944 -0.2769 -1.9182 -1.9107
28159SOL     OW86729   8.632   2.785   5.727  0.3228 -0.1899 -0.0486
28159SOL    HW186730   8.583   2.703   5.714 -0.3736  0.3501 -0.9490
28159SOL    HW286731   8.718   2.767   5.689 -0.0678 -0.2695 -0.9076
28160SOL     OW86732   3.195   1.300  10.582  0.2591 -0.2754 -0.1152
28160SOL    HW186733   3.224   1.294  10.491  0.6411  1.8394 -0.1916
28160SOL    HW286734   3.202   1.393  10.603 -1.5385 -0.4469  1.5279
28161SOL     OW86735   4.275   3.751   0.689  0.3099 -0.2060 -0.4686
28161SOL    HW186736   4.254   3.658   0.699 -0.0915 -0.0626  0.0974
28161SOL    HW286737   4.191   3.795   0.699  0.2793  0.1517 -2.0212
28162SOL     OW86738   7.414   2.618   6.484 -0.0897 -0.5199  0.1694
28162SOL    HW186739   7.390   2.579   6.400 -0.0488  0.2866 -0.2262
28162SOL    HW286740   7.390   2.710   6.475  0.5217 -0.2954  0.8107
28163SOL     OW86741   8.171   4.380   3.548 -0.9032 -0.0933  0.7477
28163SOL    HW186742   8.161   4.285   3.550 -0.5993 -0.1758 -0.5899
28163SOL    HW286743   8.253   4.396   3.595 -1.3793 -0.4112  1.6996
28164SOL     OW86744   2.182   3.587   9.925  0.5019  0.4910  0.0131
28164SOL    HW186745   2.096   3.617   9.953  0.9517  2.7006 -0.7486
28164SOL    HW286746   2.239   3.599  10.001  0.4528  0.5475  0.0404
28165SOL     OW86747   2.697   7.477   8.055 -0.3409 -0.0384 -0.6425
28165SOL    HW186748   2.734   7.392   8.031  0.1485 -0.1127  0.3386
28165SOL    HW286749   2.603   7.461   8.063 -0.2149 -0.5785 -0.1392
28166SOL     OW86750   8.486   9.989   1.986 -0.4651 -0.4056 -0.1210
28166SOL    HW186751   8.558  10.037   1.945 -1.5587  0.0671 -1.5395
28166SOL    HW286752   8.506   9.897   1.968  0.5522 -0.3885  0.8091
28167SOL     OW86753   3.954   9.650   1.433  0.4130 -0.2628 -0.0938
28167SOL    HW186754   3.863   9.625   1.419  0.5498 -0.9132  0.1349
28167SOL    HW286755   3.988   9.584   1.493  1.1052 -0.1777 -0.3765
28168SOL     OW86756   9.498   8.267   1.578 -0.0663  0.2856 -0.0985
28168SOL    HW186757   9.561   8.298   1.513 -0.3374  1.3736  0.1397
28168SOL    HW286758   9.526   8.306   1.660 -1.1761  0.9992 -0.0313
28169SOL     OW86759   6.481   3.024   2.735  0.3166  0.4325  0.2374
28169SOL    HW186760   6.428   3.003   2.811  1.2620 -2.4558  0.2060
28169SOL    HW286761   6.565   3.052   2.771  0.2523  0.6217  0.2435
28170SOL     OW86762   4.711   6.746   5.254 -0.2314 -0.8043  0.0361
28170SOL    HW186763   4.693   6.663   5.210 -0.8034 -0.3317 -0.6446
28170SOL    HW286764   4.806   6.747   5.266 -0.2324 -1.6091  0.1777
28171SOL     OW86765   2.783   3.455   1.404 -0.3691  0.4216  0.4607
28171SOL    HW186766   2.850   3.433   1.468 -0.8583 -0.2068  0.7733
28171SOL    HW286767   2.700   3.432   1.447 -0.8610  1.9541  0.4233
28172SOL     OW86768   9.207   9.236  10.527 -0.0746  0.3673  0.6052
28172SOL    HW186769   9.195   9.261  10.619 -0.4736 -1.6348  1.1434
28172SOL    HW286770   9.277   9.170  10.529 -1.0450 -0.7348 -0.3073
28173SOL     OW86771   1.252   7.867   5.991  0.3658  0.0064  0.1549
28173SOL    HW186772   1.345   7.874   6.014  0.0802 -2.1271  2.3733
28173SOL    HW286773   1.213   7.947   6.026  1.2930  0.7917 -0.5550
28174SOL     OW86774   9.061   4.595   0.290 -0.5692  0.2015 -0.0253
28174SOL    HW186775   9.131   4.534   0.265 -1.9812 -1.1386 -0.9365
28174SOL    HW286776   9.067   4.666   0.226 -0.2477 -0.0828 -0.3130
28175SOL     OW86777   4.119   0.342   2.472  0.3803 -1.2056  0.0032
28175SOL    HW186778   4.155   0.264   2.515  1.4757  0.0086  1.4118
28175SOL    HW286779   4.025   0.333   2.482  0.5480 -1.6928  1.3938
28176SOL     OW86780   7.836   3.266  10.098  0.5213  0.0623  0.2033
28176SOL    HW186781   7.915   3.275  10.045 -1.6747  1.6078 -3.1152
28176SOL    HW286782   7.799   3.182  10.072 -0.1714  0.4622 -0.1040
28177SOL     OW86783   6.552   3.790   5.773 -0.4809 -0.3525  0.1719
28177SOL    HW186784   6.591   3.845   5.704  0.9827 -0.9279  0.4927
28177SOL    HW286785   6.491   3.847   5.818 -0.4363  0.4394 -0.7311
28178SOL     OW86786   2.376   7.188   7.208  0.6917 -0.5126 -0.0251
28178SOL    HW186787   2.385   7.264   7.151 -0.4911  0.4111  0.9708
28178SOL    HW286788   2.358   7.115   7.149 -1.3915  0.5691 -0.8277
28179SOL     OW86789   6.159   5.551   8.038 -0.0895  0.1122 -0.1039
28179SOL    HW186790   6.084   5.590   8.084  0.2278 -0.7821  1.2292
28179SOL    HW286791   6.178   5.612   7.967 -1.4237  0.8869  0.1784
28180SOL     OW86792   0.228   6.208   6.912 -0.3600 -0.5030  0.2181
28180SOL    HW186793   0.291   6.273   6.944 -2.3288  1.5873  0.1034
28180SOL    HW286794   0.159   6.260   6.871 -1.0332 -2.8104 -1.7903
28181SOL     OW86795   6.115   9.523   6.807 -0.0420 -0.2144 -1.3746
28181SOL    HW186796   6.131   9.540   6.714  0.1422 -0.4681 -1.3906
28181SOL    HW286797   6.022   9.542   6.819 -0.4380 -1.5993 -1.9496
28182SOL     OW86798   9.198  10.107   2.356  0.9005  0.0116  0.5443
28182SOL    HW186799   9.251  10.187   2.354  1.2643 -0.1169  2.4852
28182SOL    HW286800   9.109  10.137   2.338  1.2881  0.5770 -0.4841
28183SOL     OW86801   4.585   2.190   9.355 -0.0206  0.0713  0.3846
28183SOL    HW186802   4.537   2.229   9.428  0.4930 -0.4467  1.0237
28183SOL    HW286803   4.677   2.199   9.380  0.3115  1.8872 -1.2375
28184SOL     OW86804  10.655   6.443   3.924 -0.6212  0.5391 -0.0202
28184SOL    HW186805  10.564   6.448   3.954 -0.2342  0.2529  1.2745
28184SOL    HW286806  10.687   6.361   3.961 -0.0878  0.1776 -1.2404
28185SOL     OW86807  10.428   5.011   0.055 -0.1039 -0.0109  0.1209
28185SOL    HW186808  10.497   5.041  -0.005 -0.7474 -0.6252 -0.9605
28185SOL    HW286809  10.450   5.051   0.139 -0.6661  3.1662 -1.0926
28186SOL     OW86810  10.446   7.237   9.069  0.0315  0.8118  0.0561
28186SOL    HW186811  10.451   7.269   8.979 -1.7869  0.9523 -0.0319
28186SOL    HW286812  10.517   7.282   9.114  1.9900 -0.4289 -1.6127
28187SOL     OW86813  10.368   1.601   5.899  0.2536 -0.2192 -0.2333
28187SOL    HW186814  10.382   1.695   5.904 -0.8260 -0.1118  1.8316
28187SOL    HW286815  10.394   1.577   5.810 -0.2373  2.1541 -1.0799
28188SOL     OW86816   8.137   6.353   3.009 -0.1088  0.1903  0.1521
28188SOL    HW186817   8.212   6.349   3.068 -1.2873  2.1914  1.9192
28188SOL    HW286818   8.165   6.305   2.931  2.9689  0.8149  0.7639
28189SOL     OW86819   5.345   8.220   8.823 -0.3060  0.2037  0.1510
28189SOL    HW186820   5.430   8.219   8.866 -0.9244  0.8731  1.4693
28189SOL    HW286821   5.354   8.285   8.753  1.0145 -1.6035 -1.4374
28190SOL     OW86822   0.425   6.271   7.786 -0.2932 -0.0050  0.1199
28190SOL    HW186823   0.414   6.260   7.881  0.0633 -1.7893 -0.0154
28190SOL    HW286824   0.505   6.323   7.777  0.6700 -1.3231  0.7800
28191SOL     OW86825   3.741   4.041   4.523  0.6526 -0.0116 -0.4930
28191SOL    HW186826   3.687   4.071   4.449 -1.1885 -0.4710  0.6099
28191SOL    HW286827   3.783   4.120   4.556 -0.2913  0.5721 -0.6534
28192SOL     OW86828   5.761  10.424   3.646  0.4065  0.7067  0.5523
28192SOL    HW186829   5.762  10.359   3.575 -3.1995  3.6077 -2.5388
28192SOL    HW286830   5.735  10.374   3.723 -2.6128 -1.6257 -1.7412
28193SOL     OW86831   2.802   5.954   3.573  0.0604 -0.1403  0.0441
28193SOL    HW186832   2.825   5.993   3.489 -1.9007 -1.8445 -1.3837
28193SOL    HW286833   2.794   5.861   3.555 -1.4802 -0.4224  1.8395
28194SOL     OW86834   6.547   3.618   7.808 -0.1069 -0.2008  0.2093
28194SOL    HW186835   6.608   3.579   7.745 -0.2560 -1.2474  0.6841
28194SOL    HW286836   6.501   3.543   7.847 -1.1387  0.5220  0.4297
28195SOL     OW86837   9.069   4.848   9.408  0.1293  0.1388  0.0395
28195SOL    HW186838   9.057   4.918   9.343 -0.9168 -2.1236 -2.3663
28195SOL    HW286839   9.108   4.776   9.358  0.5302 -1.2642  2.2691
28196SOL     OW86840   2.541   5.168   4.758 -0.0854  0.2280  0.3557
28196SOL    HW186841   2.512   5.217   4.681 -0.8560 -0.4727  0.1969
28196SOL    HW286842   2.626   5.207   4.779  0.3536  0.1344 -1.1148
28197SOL     OW86843   2.162   8.211   3.782  0.6344 -0.3482  0.0688
28197SOL    HW186844   2.248   8.225   3.742  0.5169  0.1155 -0.0317
28197SOL    HW286845   2.127   8.134   3.738 -0.3038  1.2090 -2.1388
28198SOL     OW86846   2.598   2.343   8.446 -0.0352 -0.7307 -0.0478
28198SOL    HW186847   2.599   2.385   8.532  0.8940 -0.0436 -0.3730
28198SOL    HW286848   2.691   2.335   8.422 -0.2923 -0.4824 -1.1892
28199SOL     OW86849   5.042   6.852   6.081 -0.1543  0.1304  0.1792
28199SOL    HW186850   5.096   6.783   6.043  0.4858  1.4970 -1.5586
28199SOL    HW286851   4.953   6.831   6.052 -0.2155 -0.7972  0.9974
28200SOL     OW86852   8.251   8.269   1.502 -0.0422 -0.2146 -0.4411
28200SOL    HW186853   8.288   8.199   1.449  0.4368  0.3227 -0.8238
28200SOL    HW286854   8.305   8.271   1.580  0.7805  0.6039 -1.0222
28201SOL     OW86855   0.091   4.440   2.537 -1.0121 -0.6311  0.8810
28201SOL    HW186856   0.076   4.477   2.450  2.4519  1.4010  0.9437
28201SOL    HW286857   0.066   4.348   2.530 -1.2943 -0.3952 -2.0975
28202SOL     OW86858   5.785   4.032  10.036  0.5340  0.3446 -0.3707
28202SOL    HW186859   5.835   3.973   9.980 -0.0187  1.2506 -1.8866
28202SOL    HW286860   5.829   4.028  10.120  1.2632 -1.2430 -0.7873
28203SOL     OW86861   2.019   9.671   4.481 -0.2366  0.5332  0.8189
28203SOL    HW186862   2.025   9.636   4.392 -1.2019  0.3275  0.8272
28203SOL    HW286863   2.110   9.679   4.510  0.0919  0.7060 -0.2227
28204SOL     OW86864   2.501   2.740   1.334  0.3353 -0.3712 -0.2331
28204SOL    HW186865   2.428   2.685   1.364 -0.6350  1.7220  1.5107
28204SOL    HW286866   2.458   2.816   1.294  1.6284 -0.3035 -1.5817
28205SOL     OW86867   4.946   9.052   4.474 -0.4668 -0.1340  0.0682
28205SOL    HW186868   4.995   8.974   4.502 -1.5349 -0.6810  0.4520
28205SOL    HW286869   4.967   9.060   4.381 -1.1005 -1.4771 -0.2229
28206SOL     OW86870   9.406   1.619   2.332 -0.3291  0.0904  0.1110
28206SOL    HW186871   9.467   1.591   2.264 -1.4170 -0.9904 -0.4651
28206SOL    HW286872   9.451   1.690   2.377  0.7821  0.2283 -1.1582
28207SOL     OW86873   4.593   9.455   1.133 -0.0660 -0.2748 -0.2917
28207SOL    HW186874   4.518   9.396   1.131 -0.4541  0.2194 -0.7231
28207SOL    HW286875   4.667   9.400   1.107 -0.1991 -0.8673  0.5502
28208SOL     OW86876   9.886   1.918   3.534  0.0169 -0.2441  0.1171
28208SOL    HW186877   9.969   1.932   3.490 -0.1788  1.3336  0.2162
28208SOL    HW286878   9.823   1.971   3.485 -1.0168 -1.6271 -0.1368
28209SOL     OW86879   2.331   2.362  10.165 -0.4217  0.2652 -0.1477
28209SOL    HW186880   2.334   2.450  10.127  1.7999 -0.9424 -3.1883
28209SOL    HW286881   2.295   2.307  10.096  1.2641 -1.6719  0.4152
28210SOL     OW86882  10.193   7.388   3.843  0.0063  0.1886 -0.4927
28210SOL    HW186883  10.210   7.482   3.844  1.9296 -0.0991 -0.9671
28210SOL    HW286884  10.197   7.364   3.750  0.1139 -0.4349 -0.3337
28211SOL     OW86885   5.562   3.766   5.825 -0.5441  0.4010 -0.4012
28211SOL    HW186886   5.599   3.830   5.765  2.8205 -2.2626 -1.4859
28211SOL    HW286887   5.634   3.744   5.885 -2.2598 -0.7179  1.3827
28212SOL     OW86888   8.571   2.415   6.102  0.2042  0.4468 -0.0606
28212SOL    HW186889   8.598   2.330   6.136 -1.4309 -0.3030 -0.4914
28212SOL    HW286890   8.602   2.416   6.012 -0.3423  0.0094 -0.2592
28213SOL     OW86891   9.074   9.050   4.431 -0.2337  0.2403  0.3280
28213SOL    HW186892   9.022   8.972   4.413  0.2099  0.2782 -1.2736
28213SOL    HW286893   9.025   9.096   4.498 -2.0520  0.0514 -0.7929
28214SOL     OW86894   2.724   3.329   6.584  0.1773 -0.2459  0.2571
28214SOL    HW186895   2.818   3.335   6.599  0.2794  1.2016 -0.7485
28214SOL    HW286896   2.689   3.296   6.667  1.5775 -0.9915  0.5787
28215SOL     OW86897   7.632   6.599   4.996 -0.7591  0.0103  0.1273
28215SOL    HW186898   7.542   6.569   4.987 -1.0009  0.3316  1.2569
28215SOL    HW286899   7.667   6.548   5.069  0.3033 -0.8153 -0.9212
28216SOL     OW86900  10.315   3.316   8.408  0.6994  0.4001 -0.0716
28216SOL    HW186901  10.288   3.225   8.396  0.4837  0.2309  1.4358
28216SOL    HW286902  10.407   3.310   8.436  0.5172  0.6002  0.5837
28217SOL     OW86903   3.677   6.043   8.120  0.1025  0.4102  0.5817
28217SOL    HW186904   3.628   6.120   8.147  0.2745  1.2523 -1.4069
28217SOL    HW286905   3.615   5.992   8.068  1.1861  1.3766 -1.7668
28218SOL     OW86906   3.800   8.250   3.001  0.5641  0.1969  0.3053
28218SOL    HW186907   3.886   8.222   2.971 -0.9173 -2.5056 -1.8698
28218SOL    HW286908   3.741   8.226   2.929 -1.8914  2.9943  1.2119
28219SOL     OW86909   7.229   3.377   2.388 -0.0563  0.1660 -0.4171
28219SOL    HW186910   7.249   3.298   2.437 -1.1929 -0.1726 -0.4762
28219SOL    HW286911   7.235   3.351   2.296 -1.1115 -0.0488 -0.4376
28220SOL     OW86912   7.559   1.861   0.236  0.2903  0.1223 -0.0208
28220SOL    HW186913   7.534   1.793   0.299 -3.2321  0.8556 -0.4613
28220SOL    HW286914   7.599   1.812   0.164  0.0822 -1.2235  0.7373
28221SOL     OW86915   8.524   9.675   5.285  0.2407  0.1259 -0.4401
28221SOL    HW186916   8.543   9.588   5.322  0.6532  0.1781 -0.5245
28221SOL    HW286917   8.524   9.734   5.360  0.7717  0.1830 -0.4855
28222SOL     OW86918   6.713   6.671   7.163  0.1719  0.1186 -0.9329
28222SOL    HW186919   6.625   6.708   7.172  0.5090  0.9590 -1.0727
28222SOL    HW286920   6.754   6.723   7.094  1.9801  2.0756  1.4435
28223SOL     OW86921   4.173  10.395   4.092  0.2519  0.6565  0.0481
28223SOL    HW186922   4.137  10.329   4.150 -3.3652  0.8222 -1.7609
28223SOL    HW286923   4.127  10.476   4.115  1.1823  1.4816 -0.8354
28224SOL     OW86924   1.091   5.406   5.373 -0.0880 -0.2182  0.4746
28224SOL    HW186925   1.034   5.458   5.316  1.4363  0.0747 -0.8644
28224SOL    HW286926   1.180   5.425   5.341  0.6755 -1.6742  1.6246
28225SOL     OW86927   1.192   9.232   7.478  1.3078 -0.2614  0.2843
28225SOL    HW186928   1.150   9.285   7.410  0.6392 -0.0977  0.8234
28225SOL    HW286929   1.270   9.281   7.502 -0.4613  1.7071  2.4113
28226SOL     OW86930   7.005   0.604   4.260  0.6854  0.4490  0.6055
28226SOL    HW186931   6.927   0.609   4.315 -0.2572  4.0582 -0.7795
28226SOL    HW286932   7.064   0.670   4.295  0.8355  1.5058 -1.4659
28227SOL     OW86933   5.956   0.640   9.480 -0.8672  0.3789 -0.4362
28227SOL    HW186934   5.968   0.654   9.574  1.8093 -0.4368 -0.5696
28227SOL    HW286935   5.979   0.724   9.441 -0.7851  0.3594 -0.4298
28228SOL     OW86936   1.323   2.394   1.727  0.1692  0.4240  0.0428
28228SOL    HW186937   1.234   2.374   1.758 -0.1928 -1.0718 -1.7904
28228SOL    HW286938   1.363   2.442   1.800 -1.9426  0.6632  1.1416
28229SOL     OW86939   3.553   2.764   4.126 -0.5190  0.2419 -0.1212
28229SOL    HW186940   3.600   2.824   4.184 -0.2826 -1.4136  1.5007
28229SOL    HW286941   3.463   2.763   4.160 -0.7745  0.4440 -0.7742
28230SOL     OW86942   5.169   2.695   9.968  0.4138 -0.4878 -0.0572
28230SOL    HW186943   5.243   2.643  10.000 -0.8467 -0.8442  2.5707
28230SOL    HW286944   5.163   2.768  10.030 -0.6726  0.2414 -0.9740
28231SOL     OW86945   6.506   8.062   6.030 -0.2344  0.5258 -0.2194
28231SOL    HW186946   6.426   8.085   5.983 -0.9265  2.2782  1.6818
28231SOL    HW286947   6.508   7.966   6.027 -1.2138  0.5183 -2.1510
28232SOL     OW86948   0.812   1.600   5.916  0.6939  0.1166  0.3431
28232SOL    HW186949   0.727   1.596   5.961 -1.0276 -1.5176 -2.7476
28232SOL    HW286950   0.820   1.691   5.888 -0.0998  0.2406  0.5035
28233SOL     OW86951   1.585   4.075  10.102 -0.1963  0.0100 -0.6364
28233SOL    HW186952   1.553   4.164  10.082 -2.9412 -0.6733  0.2552
28233SOL    HW286953   1.510   4.019  10.084  1.3263 -2.1158 -0.6741
28234SOL     OW86954   3.405   2.328   1.686  0.2083  0.3569  0.2261
28234SOL    HW186955   3.482   2.381   1.708  0.8142 -0.6315  0.5810
28234SOL    HW286956   3.441   2.241   1.669 -0.7666  0.0496 -0.3123
28235SOL     OW86957   4.230   8.126   0.925 -0.3466  0.0967 -0.0253
28235SOL    HW186958   4.168   8.079   0.869  0.1904 -2.3836  1.3498
28235SOL    HW286959   4.238   8.072   1.004  1.6995  1.6075  0.8997
28236SOL     OW86960   1.119   2.922   1.826 -0.0747  0.4597 -0.0710
28236SOL    HW186961   1.209   2.934   1.858  0.6828 -0.8175 -1.5601
28236SOL    HW286962   1.113   2.979   1.750 -0.5356  0.5851  0.0616
28237SOL     OW86963   3.945   8.109   0.293  0.5657 -0.2239  0.0326
28237SOL    HW186964   3.989   8.136   0.212  0.0947 -0.5424 -0.3400
28237SOL    HW286965   3.985   8.024   0.314 -0.0782 -0.6694 -0.4859
28238SOL     OW86966   2.758   2.419   6.108 -0.5206  0.5231  0.2666
28238SOL    HW186967   2.677   2.469   6.119 -0.4026  0.7698  0.0245
28238SOL    HW286968   2.780   2.429   6.016  0.1578  1.0301  0.4785
28239SOL     OW86969  10.286   8.124   1.426  0.0642 -1.1455 -0.2307
28239SOL    HW186970  10.209   8.077   1.456 -1.2529  0.7762 -0.3752
28239SOL    HW286971  10.289   8.107   1.332 -1.2353  0.0747 -0.5400
28240SOL     OW86972   2.645   0.357   7.914 -0.5718  0.6763  0.2063
28240SOL    HW186973   2.584   0.333   7.983 -0.4732 -2.6558 -0.6957
28240SOL    HW286974   2.731   0.357   7.956 -0.7000  0.5407  0.4666
28241SOL     OW86975   0.931   5.420   4.996  0.3798 -0.0704 -0.5220
28241SOL    HW186976   0.923   5.486   5.065 -0.7735  0.5809 -1.2481
28241SOL    HW286977   0.952   5.339   5.043  2.1814  0.8476  0.3477
28242SOL     OW86978   2.431   0.664   3.329 -0.3264 -0.3170  0.4801
28242SOL    HW186979   2.377   0.664   3.250  3.3960 -2.3327 -2.4218
28242SOL    HW286980   2.457   0.755   3.340 -1.0514  0.0348 -0.5373
28243SOL     OW86981   6.245   6.498   4.039  0.0719  0.1509  0.1565
28243SOL    HW186982   6.310   6.472   3.975 -0.4862  0.0113 -0.3671
28243SOL    HW286983   6.241   6.593   4.033 -0.4589  0.0987 -0.5145
28244SOL     OW86984   7.320  10.540  10.305 -0.3144  0.2532  0.1203
28244SOL    HW186985   7.240  10.497  10.336 -1.1307 -1.6465 -3.9780
28244SOL    HW286986   7.296  10.633  10.300 -0.7542  0.3620  2.9072
28245SOL     OW86987   5.407   3.995   3.957  0.1329 -0.4384  0.2988
28245SOL    HW186988   5.389   3.993   4.051  0.5968 -1.8912  0.3737
28245SOL    HW286989   5.376   3.910   3.924  1.0030 -0.4079 -0.6662
28246SOL     OW86990   0.987   7.558   8.608 -0.2392  0.0640 -0.1539
28246SOL    HW186991   1.081   7.549   8.621  0.0216  0.6369 -1.4825
28246SOL    HW286992   0.950   7.474   8.637  0.5596  0.1507  1.2151
28247SOL     OW86993   8.308   2.128   8.417  0.0132 -0.2108 -0.6401
28247SOL    HW186994   8.372   2.144   8.348  0.3802  0.4369 -0.1706
28247SOL    HW286995   8.255   2.208   8.419 -0.1938 -0.3532 -0.3845
28248SOL     OW86996  10.468   7.466   3.057  0.2575  0.3115  0.2146
28248SOL    HW186997  10.428   7.438   3.139 -0.2372  0.7765  0.1382
28248SOL    HW286998  10.517   7.545   3.080  0.7092  0.0392  0.2028
28249SOL     OW86999   2.282   0.691   6.997 -0.2424 -0.1831  0.1966
28249SOL    HW187000   2.376   0.706   6.998 -0.0146 -1.5007 -0.2512
28249SOL    HW287001   2.247   0.755   7.059  0.6813  1.9116 -1.3378
28250SOL     OW87002   3.013   0.826   3.534 -0.2971 -0.6141  0.3988
28250SOL    HW187003   2.994   0.771   3.609  0.9352  0.0727  1.2548
28250SOL    HW287004   2.998   0.770   3.458  0.1094 -1.8581  1.2128
28251SOL     OW87005   3.826   4.533   5.138 -0.0515 -0.3559  0.0936
28251SOL    HW187006   3.914   4.511   5.107 -0.0381 -0.0015 -0.1281
28251SOL    HW287007   3.836   4.620   5.177 -0.6214  0.3930 -1.3567
28252SOL     OW87008  10.432   0.776   6.090 -0.2300 -0.0400  0.4285
28252SOL    HW187009  10.487   0.812   6.160 -0.8502 -0.4057  1.1218
28252SOL    HW287010  10.346   0.815   6.105 -0.8744 -1.6144  1.0816
28253SOL     OW87011   7.159   3.895  10.641 -0.4839 -0.3579  0.1448
28253SOL    HW187012   7.190   3.936  10.722 -1.4322 -0.5100  0.5897
28253SOL    HW287013   7.191   3.805  10.647 -0.4869 -0.3488  0.3062
28254SOL     OW87014   2.106   4.416   4.682 -0.1649  0.5027 -0.3980
28254SOL    HW187015   2.092   4.448   4.592  0.8628  3.8065  0.4590
28254SOL    HW287016   2.037   4.459   4.733  1.1198  1.2394  0.8096
28255SOL     OW87017   7.138   3.166   1.455  0.0951 -0.3436  0.3411
28255SOL    HW187018   7.173   3.081   1.481  0.1739 -0.3618  0.1737
28255SOL    HW287019   7.105   3.152   1.366 -0.6806 -0.4273  0.6326
28256SOL     OW87020   7.624   8.265   5.053 -0.1895 -0.9050  0.6597
28256SOL    HW187021   7.557   8.252   5.119  1.0103  0.5654  2.2651
28256SOL    HW287022   7.683   8.329   5.091  1.3200 -1.0242 -1.3019
28257SOL     OW87023   5.305   9.333   1.012 -0.1130  0.4958 -0.0645
28257SOL    HW187024   5.331   9.412   1.060  2.8079 -0.8575  0.7578
28257SOL    HW287025   5.313   9.358   0.920 -0.0162  1.4005  0.1775
28258SOL     OW87026   8.199   6.489   2.549 -0.1289  0.2816  0.3236
28258SOL    HW187027   8.207   6.570   2.601  0.1855  0.9759 -0.7599
28258SOL    HW287028   8.203   6.519   2.458 -1.0031 -0.8664 -0.1161
28259SOL     OW87029   3.770   2.128   0.562  0.7296 -0.0632 -0.3438
28259SOL    HW187030   3.751   2.193   0.630  0.5272 -0.6951  0.2282
28259SOL    HW287031   3.858   2.097   0.583  1.9808  1.9294 -2.2221
28260SOL     OW87032   0.369   8.790   1.017 -0.4439 -0.2258 -0.0081
28260SOL    HW187033   0.303   8.797   1.086 -0.0667 -1.3710  0.4995
28260SOL    HW287034   0.447   8.756   1.061 -0.0466 -0.5286 -0.9059
28261SOL     OW87035   2.398  10.023   9.920 -0.2353 -0.4566 -0.4125
28261SOL    HW187036   2.465   9.965   9.958  1.8448  1.3283 -1.1164
28261SOL    HW287037   2.433  10.045   9.833  0.0851  3.2876  0.5037
28262SOL     OW87038   9.876   5.060   1.119 -0.2587 -0.1908 -0.4329
28262SOL    HW187039   9.819   5.006   1.064 -0.3044  0.9830 -1.5995
28262SOL    HW287040   9.964   5.027   1.100 -0.3263 -0.1978 -0.7381
28263SOL     OW87041   2.957   9.094   8.469 -0.7606 -0.1123  0.3866
28263SOL    HW187042   2.896   9.167   8.460 -0.7614 -0.2979 -1.5123
28263SOL    HW287043   2.901   9.018   8.485 -1.0294 -0.2045 -0.8906
28264SOL     OW87044   4.871   0.698   2.086  0.3309 -0.3670  0.1008
28264SOL    HW187045   4.929   0.689   2.011  0.3223  1.2203 -0.1195
28264SOL    HW287046   4.929   0.717   2.160  0.3839 -2.3593  0.6376
28265SOL     OW87047   5.295   2.677   1.708  0.6123  0.2881 -0.2568
28265SOL    HW187048   5.270   2.758   1.753 -0.8290  0.0965 -0.6469
28265SOL    HW287049   5.382   2.695   1.672 -0.4213  2.3652 -1.9509
28266SOL     OW87050   2.212  10.522   0.826  0.3081  0.3139 -0.1377
28266SOL    HW187051   2.152  10.597   0.826 -1.8281 -1.1642  2.9567
28266SOL    HW287052   2.206  10.486   0.737  0.3782  2.9652 -1.2896
28267SOL     OW87053   9.266   8.664   9.167 -0.0304  0.0415  0.1645
28267SOL    HW187054   9.330   8.689   9.099 -0.3241 -0.6744 -0.3889
28267SOL    HW287055   9.243   8.573   9.146 -0.1331 -0.1915  1.2288
28268SOL     OW87056   1.916   8.857   7.261 -0.0810 -0.1022  0.0737
28268SOL    HW187057   1.960   8.936   7.231 -1.6509  1.1051  0.7861
28268SOL    HW287058   1.944   8.789   7.200  1.1982  1.0296 -0.6470
28269SOL     OW87059   9.676   4.679   4.658 -0.0635  0.1206 -0.0490
28269SOL    HW187060   9.750   4.736   4.675  0.4425 -0.0374 -1.5909
28269SOL    HW287061   9.714   4.599   4.623 -0.9913  0.9000 -3.1779
28270SOL     OW87062   1.172   9.638   9.704 -0.4588  0.3000 -0.2357
28270SOL    HW187063   1.149   9.548   9.729  2.1938 -0.1838  0.7919
28270SOL    HW287064   1.180   9.635   9.608  0.2458 -0.7678 -0.1658
28271SOL     OW87065   4.497   8.237   9.621  0.3253  0.2543 -0.5833
28271SOL    HW187066   4.478   8.162   9.677  0.1417  0.7864  0.0723
28271SOL    HW287067   4.502   8.200   9.533  0.4254 -0.5567 -0.2436
28272SOL     OW87068   2.099   0.656   0.578 -0.0497  0.1401  0.2209
28272SOL    HW187069   2.071   0.604   0.502  0.2459  0.0482  0.1750
28272SOL    HW287070   2.097   0.594   0.651 -2.4081  0.7072  0.7339
28273SOL     OW87071   9.071   2.054   9.574  0.0775  0.3191 -0.4499
28273SOL    HW187072   9.131   1.990   9.536 -1.0652 -2.6304  2.2181
28273SOL    HW287073   9.101   2.139   9.542  3.4618 -1.2960 -1.9542
28274SOL     OW87074   4.489   9.552   9.645 -0.0739 -0.5427  0.3955
28274SOL    HW187075   4.416   9.491   9.653  1.0128 -2.5559 -2.9368
28274SOL    HW287076   4.559   9.512   9.696  0.4688 -1.9408 -1.3420
28275SOL     OW87077   1.142   6.231   5.683 -0.1413  0.4096 -0.6169
28275SOL    HW187078   1.175   6.321   5.673  0.5622  0.1588 -0.6634
28275SOL    HW287079   1.047   6.239   5.682 -0.1236  1.3895  1.4087
28276SOL     OW87080   4.839   0.197   9.804  0.1532 -0.0973 -0.1939
28276SOL    HW187081   4.902   0.129   9.826 -0.9206 -0.2800  2.6894
28276SOL    HW287082   4.865   0.272   9.858 -1.3797  0.2171  0.1440
28277SOL     OW87083   8.936   4.493   2.973 -1.0483  0.4242 -0.2182
28277SOL    HW187084   8.849   4.532   2.983 -1.9207 -1.5150  0.0298
28277SOL    HW287085   8.921   4.410   2.928  0.8380  0.6115 -1.3037
28278SOL     OW87086   0.132   8.212  10.318 -0.3194 -0.2516 -0.4682
28278SOL    HW187087   0.076   8.185  10.391  0.8367  1.3750  1.0835
28278SOL    HW287088   0.119   8.306  10.311  1.7980  0.0792 -0.4155
28279SOL     OW87089   0.711   9.570   2.437 -0.2675  0.4124  0.0818
28279SOL    HW187090   0.695   9.504   2.504  1.3535 -0.4471 -0.3363
28279SOL    HW287091   0.699   9.654   2.483  1.5632 -0.1296  1.6882
28280SOL     OW87092  10.290  10.395   8.060 -0.2770 -0.0054  0.1842
28280SOL    HW187093  10.357  10.328   8.071 -0.4916 -0.0170  1.5430
28280SOL    HW287094  10.253  10.378   7.973  1.2392 -0.1884 -0.4552
28281SOL     OW87095   2.122   3.560   7.900 -0.0661  0.3511 -0.4922
28281SOL    HW187096   2.082   3.646   7.915 -0.2302  0.3098 -0.6781
28281SOL    HW287097   2.195   3.556   7.962 -0.1289  0.5767 -0.4016
28282SOL     OW87098   7.137   8.031   9.722 -0.6089  0.1444 -0.1329
28282SOL    HW187099   7.181   8.048   9.806 -0.5714 -2.0267  0.3566
28282SOL    HW287100   7.048   8.065   9.734  0.2936  2.8245 -0.4406
28283SOL     OW87101   6.721   5.358   0.269 -0.5124 -0.3870 -0.3381
28283SOL    HW187102   6.778   5.419   0.223 -1.0340  0.2633 -0.1440
28283SOL    HW287103   6.639   5.359   0.219 -0.7381 -0.4463  0.0233
28284SOL     OW87104   0.914   5.974   4.862 -0.1160  0.0645 -0.2425
28284SOL    HW187105   0.869   5.994   4.944  1.0480 -3.1741  1.3151
28284SOL    HW287106   1.005   6.000   4.877 -0.0905  0.3694 -0.8938
28285SOL     OW87107   3.177   9.757   4.842  0.3106 -0.0656  0.0374
28285SOL    HW187108   3.102   9.805   4.878 -0.4029 -0.9771 -0.1971
28285SOL    HW287109   3.206   9.811   4.768 -2.3816 -1.3893 -2.1669
28286SOL     OW87110   5.406   8.774   2.478  0.1802 -0.2026 -0.3941
28286SOL    HW187111   5.333   8.823   2.517  0.3905 -1.0326  1.1391
28286SOL    HW287112   5.390   8.683   2.504 -0.2569 -1.0431 -3.2426
28287SOL     OW87113   6.943   1.119   4.015  0.7558 -0.0634 -0.7605
28287SOL    HW187114   6.903   1.052   4.071  0.0456  0.7206 -0.3100
28287SOL    HW287115   7.007   1.163   4.072  1.5007 -0.5983 -1.1659
28288SOL     OW87116   8.468   0.021  10.240 -0.4234  0.1352 -0.2398
28288SOL    HW187117   8.496   0.058  10.324 -0.8048  2.2985 -1.0201
28288SOL    HW287118   8.375   0.043  10.234 -0.2619  0.5434 -1.4875
28289SOL     OW87119   3.789   3.754   7.413  0.5312  0.6140  0.2608
28289SOL    HW187120   3.784   3.712   7.327  0.2297 -0.5854  0.8522
28289SOL    HW287121   3.742   3.836   7.402 -2.3220 -0.9323  0.0878
28290SOL     OW87122   6.327   0.448   7.938  0.1297 -0.2628  0.0714
28290SOL    HW187123   6.233   0.464   7.929 -0.3097 -1.7359  1.4945
28290SOL    HW287124   6.337   0.417   8.028  1.9134 -0.5881 -0.2081
28291SOL     OW87125   0.586   6.471   9.818  0.3871  0.0690 -0.2424
28291SOL    HW187126   0.550   6.385   9.794 -0.8139  0.7755 -1.1456
28291SOL    HW287127   0.639   6.454   9.896  1.4467 -1.7446 -1.2730
28292SOL     OW87128   7.924   9.290   2.916  0.0975  0.3422 -0.4608
28292SOL    HW187129   7.831   9.293   2.939 -0.2638  1.4853 -1.9300
28292SOL    HW287130   7.936   9.203   2.877 -0.2134 -0.0112  0.2088
28293SOL     OW87131   0.876   7.554   3.021 -0.2922 -0.9084 -0.6305
28293SOL    HW187132   0.834   7.471   3.042  1.0148 -1.5364 -0.3761
28293SOL    HW287133   0.962   7.530   2.987  0.2050  0.3382 -0.3344
28294SOL     OW87134   7.198   1.035   8.307  0.5925 -0.4832  0.1424
28294SOL    HW187135   7.155   1.052   8.224  0.3828 -0.1109  0.3215
28294SOL    HW287136   7.153   1.092   8.369 -0.1645 -1.7435  0.7864
28295SOL     OW87137   4.058   9.101   3.861 -0.1087  0.2890  0.3256
28295SOL    HW187138   4.129   9.164   3.849  0.1641  0.1720  1.1977
28295SOL    HW287139   4.084   9.052   3.940 -0.5949 -0.5260 -0.0106
28296SOL     OW87140   7.727   9.480   6.109  0.2532 -0.1671  0.6015
28296SOL    HW187141   7.657   9.478   6.174  0.4355  0.8731  0.8562
28296SOL    HW287142   7.681   9.468   6.025 -0.2667  0.6852  0.7481
28297SOL     OW87143   3.428  10.441   4.689  0.3118 -0.4741 -0.0757
28297SOL    HW187144   3.441  10.452   4.595  0.7709  0.3831  0.0780
28297SOL    HW287145   3.438  10.529   4.726  1.2284 -0.9552  0.9011
28298SOL     OW87146   2.298   6.981   8.551  0.1504  0.1223 -0.0894
28298SOL    HW187147   2.302   6.937   8.466 -3.3805  0.2364 -0.4715
28298SOL    HW287148   2.389   6.991   8.578  1.3177 -4.6058 -1.3967
28299SOL     OW87149   6.025   0.260   2.660 -0.4965  0.1590 -0.0583
28299SOL    HW187150   6.020   0.193   2.728 -1.1555  0.8090  0.5645
28299SOL    HW287151   6.031   0.212   2.578  0.3840 -0.6413  0.4632
28300SOL     OW87152   6.887   2.348   7.476  0.1822 -0.3818 -0.2860
28300SOL    HW187153   6.800   2.307   7.470  1.3297 -2.8333 -1.2226
28300SOL    HW287154   6.884   2.420   7.414 -0.0004 -2.8976 -3.4565
28301SOL     OW87155   7.778   8.043   3.941 -0.1287  0.3218 -0.1708
28301SOL    HW187156   7.821   8.091   4.012 -0.3708 -0.7731  0.7391
28301SOL    HW287157   7.849   8.021   3.881  0.4102 -0.4286  0.7160
28302SOL     OW87158   4.336   4.970   2.960  0.1625  0.5821  0.3529
28302SOL    HW187159   4.400   4.954   3.030 -0.3405 -1.4596  0.4197
28302SOL    HW287160   4.265   5.017   3.004  0.2744  0.1586  1.0096
28303SOL     OW87161   0.644   3.629   0.383  0.2240  0.4537 -0.2032
28303SOL    HW187162   0.677   3.717   0.364 -0.6060  0.4285 -1.9892
28303SOL    HW287163   0.714   3.570   0.355  1.5426  0.5117  2.6596
28304SOL     OW87164   4.900   0.685   1.314 -0.0757  0.1247 -0.4445
28304SOL    HW187165   4.882   0.667   1.222  1.7129 -1.6968 -0.5073
28304SOL    HW287166   4.856   0.769   1.331  2.3247  2.3691 -3.8739
28305SOL     OW87167   2.301   9.392   4.438  0.0812 -0.1504  0.3074
28305SOL    HW187168   2.304   9.444   4.519  0.3872 -0.5039  0.5283
28305SOL    HW287169   2.361   9.437   4.379  1.7177 -1.2080  1.0893
28306SOL     OW87170   9.810   8.790   9.400  0.1687  0.4741  0.5139
28306SOL    HW187171   9.726   8.834   9.416  1.0494  2.0608  1.0349
28306SOL    HW287172   9.815   8.722   9.467  0.4983  2.2046  2.3368
28307SOL     OW87173   1.205   0.958   7.712 -0.6856  0.0827 -0.0915
28307SOL    HW187174   1.209   0.996   7.624  2.7278 -0.8657 -0.4810
28307SOL    HW287175   1.176   0.868   7.699 -0.1319 -0.0719 -0.2578
28308SOL     OW87176   8.385   2.746   6.039  0.0446 -0.2393 -0.6817
28308SOL    HW187177   8.478   2.766   6.044 -0.2203  0.9774 -0.4235
28308SOL    HW287178   8.353   2.751   6.129 -0.5677  0.8754 -0.9508
28309SOL     OW87179   3.393   2.795   6.850 -0.4366 -0.1824 -0.3778
28309SOL    HW187180   3.414   2.880   6.888 -2.6083 -0.2137  1.0885
28309SOL    HW287181   3.477   2.757   6.828  0.6972  1.5816  0.6784
28310SOL     OW87182   3.965   4.254   5.098 -0.2781  0.4925 -0.2009
28310SOL    HW187183   3.917   4.321   5.049  0.1864  1.1411  0.2366
28310SOL    HW287184   4.042   4.235   5.044 -0.1506  0.6685 -0.0787
28311SOL     OW87185   0.946  10.082   1.234  0.9186  0.0309 -0.3400
28311SOL    HW187186   0.903  10.009   1.279  0.2549  1.0580  0.7568
28311SOL    HW287187   0.918  10.074   1.143 -0.0960 -0.4012 -0.0004
28312SOL     OW87188   4.290   3.820   3.928 -0.6075  0.4434  0.1903
28312SOL    HW187189   4.340   3.804   4.008  2.3790 -1.1775 -1.8373
28312SOL    HW287190   4.236   3.897   3.949  1.3444  1.1772  3.1705
28313SOL     OW87191   8.529   0.482   1.613  0.8332 -0.3962 -0.2231
28313SOL    HW187192   8.483   0.401   1.591  1.4706 -0.4414 -1.5002
28313SOL    HW287193   8.619   0.468   1.581  1.3898  0.2061  0.9958
28314SOL     OW87194   6.838   1.569   5.025 -0.2322  0.3925 -0.2361
28314SOL    HW187195   6.891   1.637   5.068 -0.6607  0.6413 -0.1010
28314SOL    HW287196   6.837   1.595   4.933 -0.7548  0.8131 -0.1178
28315SOL     OW87197   4.469   6.964   7.704  0.4608  0.1562 -0.1674
28315SOL    HW187198   4.451   6.925   7.619  0.9757 -0.8537  0.1676
28315SOL    HW287199   4.408   7.038   7.710 -0.7889 -0.7846 -0.6892
28316SOL     OW87200   6.003   1.192   2.647 -0.3360  0.1332 -0.2033
28316SOL    HW187201   6.096   1.208   2.637 -0.2214 -0.0708  0.4629
28316SOL    HW287202   5.974   1.254   2.714 -0.3560 -0.8251  0.6978
28317SOL     OW87203   1.446   7.559   9.050  0.0658 -0.6327  0.3560
28317SOL    HW187204   1.449   7.474   9.094 -0.7226 -0.2640  1.1470
28317SOL    HW287205   1.532   7.598   9.068 -0.3039 -0.4068  1.7768
28318SOL     OW87206   3.741   4.481   7.728 -0.5937  0.4214 -0.1017
28318SOL    HW187207   3.718   4.565   7.769 -0.9984  0.5082 -0.5008
28318SOL    HW287208   3.797   4.438   7.793 -1.7370  0.2823  0.8283
28319SOL     OW87209   4.335   2.225   3.063 -0.1503  0.1785  0.2267
28319SOL    HW187210   4.335   2.235   2.968 -0.4569 -1.1760  0.0651
28319SOL    HW287211   4.382   2.143   3.079 -0.1774  0.3402  1.2365
28320SOL     OW87212   4.974   4.753   4.392 -0.1051 -0.0004 -0.0765
28320SOL    HW187213   4.960   4.707   4.310 -1.2760  0.2804 -0.0450
28320SOL    HW287214   5.067   4.779   4.389  0.0679 -0.6767 -0.9379
28321SOL     OW87215   7.930   2.443   3.074  0.3721 -0.2791 -0.1577
28321SOL    HW187216   7.883   2.467   3.154 -0.8445 -0.0048 -0.9366
28321SOL    HW287217   8.000   2.385   3.105  0.0080 -0.0825  1.1183
28322SOL     OW87218   8.840   7.761   9.859  0.0125  0.0389  0.4791
28322SOL    HW187219   8.768   7.824   9.866 -0.7771 -0.8079  0.2548
28322SOL    HW287220   8.869   7.749   9.949  0.9335  1.5416  0.4225
28323SOL     OW87221   0.642   0.978   2.864  0.8590 -0.0951 -0.1712
28323SOL    HW187222   0.580   0.944   2.800  0.7273 -0.2820  0.0503
28323SOL    HW287223   0.684   0.900   2.901  1.7482  0.0616 -0.8272
28324SOL     OW87224   5.816   7.147   2.782  0.8109 -0.0367  0.5897
28324SOL    HW187225   5.820   7.171   2.875  0.8709  0.1433  0.5409
28324SOL    HW287226   5.883   7.202   2.740  1.6431 -0.9880  0.6295
28325SOL     OW87227   4.573   2.489   4.395 -0.5829 -0.0561 -0.2086
28325SOL    HW187228   4.619   2.562   4.353 -1.0869  0.0806 -0.5316
28325SOL    HW287229   4.570   2.513   4.488 -1.0089  0.4762 -0.3568
28326SOL     OW87230   6.023   5.095   5.630  0.1616 -0.1198  0.8029
28326SOL    HW187231   6.088   5.029   5.654 -0.7981 -1.0885  0.8172
28326SOL    HW287232   6.068   5.179   5.641  0.8155 -0.6794  2.6650
28327SOL     OW87233   2.682   4.341   9.113 -0.8876  0.0807  0.6565
28327SOL    HW187234   2.658   4.322   9.022  2.5769 -1.0867 -0.1435
28327SOL    HW287235   2.626   4.415   9.137 -3.4283 -0.8854 -1.6494
28328SOL     OW87236   6.037   0.029   2.837 -0.6566  0.5199 -0.2913
28328SOL    HW187237   5.961  -0.020   2.805  0.1259  0.0200 -1.5042
28328SOL    HW287238   6.104  -0.038   2.852 -0.1376  1.0413 -0.2310
28329SOL     OW87239   4.196  10.322  10.153  0.1066 -0.5517 -0.2823
28329SOL    HW187240   4.144  10.251  10.116 -0.0786 -0.1669 -0.7726
28329SOL    HW287241   4.226  10.289  10.238  0.4939 -1.4198 -0.7571
28330SOL     OW87242   5.438   3.146   6.425  0.4032  0.2155 -0.1433
28330SOL    HW187243   5.381   3.173   6.498 -0.0776  0.9346 -0.7636
28330SOL    HW287244   5.378   3.134   6.351  0.8268 -0.9497 -0.3223
28331SOL     OW87245   5.817   6.251   4.516 -0.7535 -0.2202 -0.0749
28331SOL    HW187246   5.837   6.194   4.442  2.7041  0.5316  0.1267
28331SOL    HW287247   5.742   6.303   4.487 -0.8584 -1.4402 -2.1597
28332SOL     OW87248   7.987   8.261   0.618 -0.0855  0.6733  0.6180
28332SOL    HW187249   8.082   8.258   0.612 -0.0942  0.3177  0.6497
28332SOL    HW287250   7.965   8.208   0.694 -0.3775 -0.2667 -0.0947
28333SOL     OW87251   0.035   9.487   9.802  0.3184 -0.3106  0.2568
28333SOL    HW187252   0.061   9.462   9.714 -2.0197 -0.0803 -0.5687
28333SOL    HW287253   0.103   9.547   9.831  1.0548 -0.2645 -1.4571
28334SOL     OW87254   1.791   6.856   6.129 -0.0842  0.2687 -0.2182
28334SOL    HW187255   1.854   6.870   6.058 -0.9337  2.3355 -0.6283
28334SOL    HW287256   1.826   6.907   6.202 -1.4141  1.7387 -0.5633
28335SOL     OW87257   7.032   3.804   3.542 -0.0905 -0.1699  0.6072
28335SOL    HW187258   7.115   3.764   3.566  1.2477  1.0569 -1.6104
28335SOL    HW287259   7.024   3.788   3.447 -2.6433 -0.6626  0.8210
28336SOL     OW87260   6.851   4.648   6.007  0.4544  0.5585 -0.3154
28336SOL    HW187261   6.828   4.617   6.094  0.0751  3.3180  0.6625
28336SOL    HW287262   6.850   4.569   5.952 -2.2058 -0.8447  1.5338
28337SOL     OW87263   0.836   2.158   0.451  0.0557 -0.0572 -0.3060
28337SOL    HW187264   0.823   2.077   0.400 -0.4217 -0.5192  0.5142
28337SOL    HW287265   0.756   2.164   0.504  0.2375  0.7901 -0.1319
28338SOL     OW87266   7.743  10.298  10.286 -0.0495  0.0221  0.0909
28338SOL    HW187267   7.707  10.363  10.226 -0.6577  0.4934  0.9435
28338SOL    HW287268   7.792  10.348  10.351  1.0034 -0.5199 -0.2552
28339SOL     OW87269   5.266   2.012   0.374  0.0980  0.0082 -0.4620
28339SOL    HW187270   5.173   1.987   0.371  0.3182 -0.9484 -0.0072
28339SOL    HW287271   5.288   2.034   0.284  0.1441 -2.6158 -1.1741
28340SOL     OW87272   4.769   7.468   0.272  0.6399  0.3179 -0.2946
28340SOL    HW187273   4.748   7.551   0.228  0.5660  1.2055  1.3188
28340SOL    HW287274   4.700   7.458   0.337  0.1132 -1.5345 -1.0895
28341SOL     OW87275   1.850   7.727   3.656  0.1306 -0.1481  0.0442
28341SOL    HW187276   1.940   7.701   3.676  0.3363  1.4541  1.4479
28341SOL    HW287277   1.807   7.732   3.741 -1.3512 -1.0237 -0.6191
28342SOL     OW87278   3.518   3.138   7.265  0.0754 -0.2053  0.3526
28342SOL    HW187279   3.611   3.160   7.267 -0.3271  1.8186 -0.7000
28342SOL    HW287280   3.475   3.213   7.305 -1.1539 -0.9045  0.3771
28343SOL     OW87281   8.580   6.170   5.390 -0.3161  0.1851  0.1860
28343SOL    HW187282   8.535   6.098   5.347  0.0304  0.1190 -0.0735
28343SOL    HW287283   8.642   6.128   5.449 -0.2722  0.2731  0.2016
28344SOL     OW87284   2.961   8.447   6.751 -0.2690  0.2202 -0.0934
28344SOL    HW187285   3.041   8.407   6.787 -0.8792  0.1320  1.2419
28344SOL    HW287286   2.933   8.387   6.683  1.5679  0.9710 -1.6010
28345SOL     OW87287   0.522   7.571   3.721 -0.1971  0.1053  0.0002
28345SOL    HW187288   0.552   7.662   3.716 -0.8683  0.3704  0.6461
28345SOL    HW287289   0.599   7.522   3.751 -0.2680  0.7140  1.2366
28346SOL     OW87290   9.124   1.088   9.316  0.2899  0.1296  0.1410
28346SOL    HW187291   9.058   1.085   9.247  0.7585  1.0856 -0.3604
28346SOL    HW287292   9.076   1.066   9.396 -0.0867 -1.9309 -0.5865
28347SOL     OW87293   2.969   9.857   9.325  0.3774 -0.6601  0.5079
28347SOL    HW187294   2.965   9.905   9.407 -0.9663  0.0821  0.0349
28347SOL    HW287295   2.883   9.869   9.285  0.6395 -1.8969 -0.5132
28348SOL     OW87296   1.259   0.443   2.156 -0.3230 -0.2261  0.0457
28348SOL    HW187297   1.336   0.401   2.118 -1.0975 -0.5999 -1.1876
28348SOL    HW287298   1.294   0.513   2.211  0.9130 -1.0529  0.3484
28349SOL     OW87299   9.169   2.252   7.227 -0.1128 -0.2326 -0.2263
28349SOL    HW187300   9.141   2.194   7.298 -0.6093 -0.5411 -0.6616
28349SOL    HW287301   9.087   2.276   7.183  0.1889 -0.0158 -0.6732
28350SOL     OW87302   3.901   4.183   1.064 -0.3589 -0.1737  0.3758
28350SOL    HW187303   3.967   4.180   1.133 -1.4471 -1.6447  1.4136
28350SOL    HW287304   3.820   4.156   1.108 -1.1494 -0.8020 -1.4019
28351SOL     OW87305   7.014   8.187   7.376  1.1223  0.3916  0.1808
28351SOL    HW187306   7.088   8.219   7.324  1.3098  1.1782  0.9115
28351SOL    HW287307   6.990   8.261   7.432  0.5096 -0.2270  0.7575
28352SOL     OW87308   6.528   3.522   1.610 -0.2977  0.1835 -0.2800
28352SOL    HW187309   6.613   3.481   1.625  0.2433  1.3648  0.0332
28352SOL    HW287310   6.486   3.522   1.696  0.1222  1.1640 -0.0646
28353SOL     OW87311   3.239   5.932   6.854 -0.1717 -0.3379  0.1734
28353SOL    HW187312   3.180   5.887   6.793  0.2249  0.8789 -1.1448
28353SOL    HW287313   3.322   5.885   6.845 -0.2150 -0.3961  0.0720
28354SOL     OW87314   2.166   5.941   7.612 -0.1828  0.0434  0.6506
28354SOL    HW187315   2.232   5.926   7.679 -0.3669 -1.7878  0.4678
28354SOL    HW287316   2.204   6.010   7.556 -0.0158  1.5617  2.5387
28355SOL     OW87317   1.369   7.812   4.402 -0.1708 -0.2647 -0.5141
28355SOL    HW187318   1.367   7.755   4.479 -0.5893 -0.4006 -0.6247
28355SOL    HW287319   1.341   7.897   4.435  1.5164  0.1751 -0.1140
28356SOL     OW87320   8.909   2.918   4.292  0.5202  0.1505  0.1618
28356SOL    HW187321   8.994   2.944   4.255 -0.1204 -0.0611 -1.5632
28356SOL    HW287322   8.923   2.829   4.324  1.0075  0.1848  0.0526
28357SOL     OW87323   2.746   0.675   0.861 -0.0184 -0.0295 -0.1630
28357SOL    HW187324   2.730   0.713   0.775 -0.4146  0.2173  0.0212
28357SOL    HW287325   2.670   0.699   0.913 -0.6352 -1.6519 -0.2418
28358SOL     OW87326   2.898   5.701   6.381  0.5504 -0.7275 -1.1146
28358SOL    HW187327   2.919   5.617   6.421 -1.7249 -0.6953  0.3746
28358SOL    HW287328   2.838   5.680   6.310 -0.8900 -0.3556 -0.0557
28359SOL     OW87329   5.042   3.897   1.532 -0.2008  0.7617  0.0076
28359SOL    HW187330   5.055   3.873   1.441 -0.8639  0.4834 -0.0187
28359SOL    HW287331   5.046   3.814   1.580 -3.0939  0.4354 -0.1502
28360SOL     OW87332   4.682   1.603   1.053  0.4379  0.7955 -0.3813
28360SOL    HW187333   4.619   1.566   1.114  2.3607 -0.6711  0.8517
28360SOL    HW287334   4.682   1.697   1.071 -2.1429  1.0228 -1.2377
28361SOL     OW87335   2.663   2.548   1.628  0.1625  0.2512 -0.4444
28361SOL    HW187336   2.663   2.541   1.533  0.8448  0.2834 -0.4506
28361SOL    HW287337   2.618   2.469   1.658 -0.8207  0.6564 -0.8129
28362SOL     OW87338   5.501   7.385   1.758  0.3757  0.4949 -0.6490
28362SOL    HW187339   5.515   7.310   1.816 -0.0849  0.8736 -0.0382
28362SOL    HW287340   5.481   7.346   1.673 -2.0757 -0.1688  0.1261
28363SOL     OW87341   4.981   1.637   6.375 -0.1345 -0.1507  0.2516
28363SOL    HW187342   5.021   1.593   6.450  2.1877  2.5992  0.8555
28363SOL    HW287343   4.911   1.690   6.413 -0.5237 -0.5459  0.0911
28364SOL     OW87344   6.200   0.432   3.975  0.1420 -0.0468  0.3638
28364SOL    HW187345   6.253   0.371   4.027 -0.3876  0.2164  1.2519
28364SOL    HW287346   6.110   0.401   3.987  0.0090  0.0253 -0.4135
28365SOL     OW87347   3.132   7.962   4.554 -0.3095  1.1327 -0.1467
28365SOL    HW187348   3.094   7.907   4.623 -2.5255  2.0116 -0.5824
28365SOL    HW287349   3.183   7.901   4.501  0.9238  0.3265  1.8414
28366SOL     OW87350   7.884   8.316   4.073  0.5123 -0.0750 -0.4386
28366SOL    HW187351   7.845   8.366   4.002 -1.2170 -0.1807  0.3678
28366SOL    HW287352   7.864   8.366   4.152  3.1100  0.4651 -0.0435
28367SOL     OW87353   9.099  10.436   5.346 -0.1030  0.3115  0.0083
28367SOL    HW187354   9.183  10.413   5.306 -0.3898  0.1750 -0.5179
28367SOL    HW287355   9.086  10.528   5.322  0.8777  0.9810  1.8221
28368SOL     OW87356  10.633   5.560   4.386  0.2649  0.0124 -0.7505
28368SOL    HW187357  10.613   5.466   4.379  1.9657 -0.5279  0.9037
28368SOL    HW287358  10.589   5.587   4.467 -0.4481  0.7464 -1.3636
28369SOL     OW87359  10.036   6.284  10.064 -0.3222  0.1293  0.4605
28369SOL    HW187360  10.017   6.236   9.983  2.2189  1.3204 -0.9746
28369SOL    HW287361  10.042   6.376  10.036  1.6818  0.4546  1.7336
28370SOL     OW87362   9.630   2.043   3.437 -0.0021 -0.7337 -0.6622
28370SOL    HW187363   9.574   1.989   3.494 -1.1861  0.2587 -0.8560
28370SOL    HW287364   9.571   2.077   3.370  0.3658  2.0037  0.2758
28371SOL     OW87365   3.067   1.257   4.090  0.1732 -0.5135 -0.1916
28371SOL    HW187366   3.152   1.248   4.133  0.1096  0.7463  0.2418
28371SOL    HW287367   3.004   1.265   4.162  0.2447  3.2519 -0.3878
28372SOL     OW87368   6.296   3.353   2.172  0.0855 -0.2925 -0.9066
28372SOL    HW187369   6.224   3.372   2.113 -1.2301 -1.4683  0.2246
28372SOL    HW287370   6.375   3.374   2.123 -1.0269  3.2593 -1.3962
28373SOL     OW87371   7.873   5.555   1.058 -0.1316 -0.3090 -0.0715
28373SOL    HW187372   7.928   5.522   1.130 -2.0740 -0.2576  1.5184
28373SOL    HW287373   7.913   5.639   1.035  0.3877 -0.1969  1.1394
28374SOL     OW87374   2.337   8.604  10.538 -0.6176 -0.1877 -0.1774
28374SOL    HW187375   2.264   8.616  10.600 -1.6417 -0.8362 -1.2064
28374SOL    HW287376   2.323   8.516  10.503  0.0481  0.1008 -1.1933
28375SOL     OW87377   4.111  10.528   1.577 -0.3763 -0.0188 -0.5598
28375SOL    HW187378   4.135  10.586   1.649  0.9327  0.2159 -1.1673
28375SOL    HW287379   4.016  10.536   1.571 -0.4719  0.2305  0.9003
28376SOL     OW87380   7.334   1.842  10.204  0.7279 -0.2191  0.2542
28376SOL    HW187381   7.299   1.873  10.120  1.5792  1.2748  0.4191
28376SOL    HW287382   7.425   1.821  10.187  0.5064 -1.4656  0.4669
28377SOL     OW87383   5.871   3.135   5.172  0.4640  0.2566  0.0422
28377SOL    HW187384   5.943   3.072   5.180  0.3039 -0.0143 -0.6139
28377SOL    HW287385   5.824   3.108   5.093 -0.0780  0.7209  0.2021
28378SOL     OW87386   7.876   3.764   6.553 -0.3378 -0.0560  0.2398
28378SOL    HW187387   7.878   3.808   6.468  1.0759  0.9680  0.7486
28378SOL    HW287388   7.886   3.671   6.533  0.7228  0.2388 -0.7079
28379SOL     OW87389   0.452   2.234   9.605 -0.1389  0.3898  0.3167
28379SOL    HW187390   0.514   2.294   9.644  0.5310 -0.3409  0.4021
28379SOL    HW287391   0.407   2.285   9.538  1.6044  0.5526 -0.7952
28380SOL     OW87392   4.455   3.220   3.484  0.2413  0.0477 -0.0191
28380SOL    HW187393   4.402   3.294   3.453 -0.1091  1.6418  3.8174
28380SOL    HW287394   4.390   3.152   3.507  0.3491 -0.3331 -0.8127
28381SOL     OW87395  10.380   6.597   9.620  0.5767  0.0112  0.1822
28381SOL    HW187396  10.404   6.666   9.558  2.4715  0.0667  0.9113
28381SOL    HW287397  10.455   6.538   9.621 -0.0382 -0.7883  1.3244
28382SOL     OW87398   7.073   6.053   1.667  0.3056  0.2801 -0.3265
28382SOL    HW187399   7.150   6.088   1.623 -0.9720  2.1994 -1.1308
28382SOL    HW287400   7.107   6.020   1.751  2.0274  0.8576 -0.7551
28383SOL     OW87401   7.682   4.131   6.078 -0.2346  0.6231 -0.0783
28383SOL    HW187402   7.601   4.082   6.065  0.7551 -1.3060  0.6148
28383SOL    HW287403   7.658   4.199   6.141 -1.0614 -0.7910  1.2366
28384SOL     OW87404   2.412   7.832   4.619 -0.1789  0.5062 -0.1696
28384SOL    HW187405   2.426   7.789   4.535 -0.2801  0.8578 -0.3657
28384SOL    HW287406   2.480   7.900   4.623 -1.1551  1.5265 -0.6643
28385SOL     OW87407   8.118   4.705   4.085 -0.3876 -0.0948  0.4795
28385SOL    HW187408   8.064   4.630   4.110 -2.4359  1.4266  0.8324
28385SOL    HW287409   8.091   4.726   3.995 -0.4262  0.7175  0.6725
28386SOL     OW87410   7.158   2.930   9.287  0.2804 -0.0732 -0.1576
28386SOL    HW187411   7.113   2.909   9.369 -0.4952 -1.2705 -0.8706
28386SOL    HW287412   7.138   2.857   9.229  1.1907  0.5422 -1.2821
28387SOL     OW87413   3.972   0.565   8.399 -0.0874  0.3390 -1.0838
28387SOL    HW187414   3.877   0.567   8.394 -0.2422  1.0560  1.0158
28387SOL    HW287415   3.993   0.476   8.427 -0.0397 -0.1456 -2.6076
28388SOL     OW87416   8.596   0.903   5.735 -0.1067 -0.0589  0.0607
28388SOL    HW187417   8.664   0.840   5.761 -1.5378 -1.3539  0.8184
28388SOL    HW287418   8.633   0.989   5.758  1.5744 -0.6544 -0.2673
28389SOL     OW87419   7.087   6.261   3.183 -0.2858  0.1460 -0.2612
28389SOL    HW187420   7.163   6.240   3.238 -0.0960 -1.0639 -0.9477
28389SOL    HW287421   7.121   6.321   3.117 -0.0161 -0.0622 -0.3141
28390SOL     OW87422   5.581   4.590   3.232 -0.1963 -0.0008  0.0687
28390SOL    HW187423   5.494   4.585   3.192 -0.9763  2.5065  1.2266
28390SOL    HW287424   5.622   4.665   3.189  0.9099 -0.3720  0.4546
28391SOL     OW87425   1.562   4.325   7.024  0.2827  0.7203 -0.2309
28391SOL    HW187426   1.585   4.369   6.943  0.4000 -0.6307 -0.9629
28391SOL    HW287427   1.631   4.260   7.036 -0.5886 -0.1770  0.0848
28392SOL     OW87428   0.834   9.109   7.949 -0.7557  0.1628  0.1191
28392SOL    HW187429   0.913   9.155   7.922  2.0220 -2.0571  3.5351
28392SOL    HW287430   0.810   9.054   7.874  2.4902 -0.8698 -0.2867
28393SOL     OW87431   0.683   7.904   9.454 -0.3793  0.3332  0.4804
28393SOL    HW187432   0.617   7.894   9.386 -0.4731 -0.3074  0.6591
28393SOL    HW287433   0.675   7.824   9.507  0.9027 -0.0151  0.1756
28394SOL     OW87434   1.315   5.124   3.536  0.3629  0.5163 -0.0986
28394SOL    HW187435   1.298   5.136   3.630 -1.2516 -1.0882 -0.1508
28394SOL    HW287436   1.368   5.044   3.531  1.5987  1.3275 -0.4987
28395SOL     OW87437   8.807   0.230   2.093 -0.3870  0.2728  0.2488
28395SOL    HW187438   8.807   0.249   1.999 -1.4769 -0.1221  0.1583
28395SOL    HW287439   8.883   0.173   2.105  1.5711  2.6741  0.1409
28396SOL     OW87440   8.073   5.819   2.007 -0.2603  0.7391  0.0536
28396SOL    HW187441   8.028   5.737   1.985 -0.6408  0.7371  0.8165
28396SOL    HW287442   8.006   5.887   1.997 -0.2863  0.8025  0.6458
28397SOL     OW87443   3.630   7.592   3.557 -0.5252  0.0049 -0.2251
28397SOL    HW187444   3.680   7.670   3.531 -1.7791  0.8098 -0.3022
28397SOL    HW287445   3.664   7.570   3.644 -0.8311  1.2490  0.2311
28398SOL     OW87446   3.877   3.253   1.690 -0.0199 -0.1832 -0.0375
28398SOL    HW187447   3.816   3.302   1.746 -1.5570 -2.5556  0.5220
28398SOL    HW287448   3.865   3.291   1.603 -2.1054 -0.3483  0.1251
28399SOL     OW87449   5.969   8.995   6.578 -0.3396 -0.4338  0.3519
28399SOL    HW187450   6.018   9.071   6.547  0.1793 -0.5430  0.8932
28399SOL    HW287451   5.880   9.010   6.546 -0.2772  0.4668  0.5673
28400SOL     OW87452   4.048   0.042   5.199  0.2706 -0.6229 -0.6439
28400SOL    HW187453   3.978   0.034   5.263  0.2995  0.1910 -0.4924
28400SOL    HW287454   4.014   0.102   5.133  0.1156 -1.7159 -1.5847
28401SOL     OW87455   0.500   0.785   8.093  0.1384  0.3649 -0.1668
28401SOL    HW187456   0.569   0.838   8.055  0.8214 -0.8909 -0.7567
28401SOL    HW287457   0.515   0.788   8.187  0.2344  1.1027 -0.2029
28402SOL     OW87458   2.108   2.085   3.075 -0.0920  0.6841  0.5411
28402SOL    HW187459   2.078   2.011   3.128  0.4082  0.1458  0.0969
28402SOL    HW287460   2.068   2.071   2.989  1.4499 -0.1168 -0.0972
28403SOL     OW87461   5.624   5.599   2.497 -0.1283  0.3770  0.0838
28403SOL    HW187462   5.592   5.687   2.514 -0.4782  0.6740 -1.8225
28403SOL    HW287463   5.560   5.561   2.437  0.2472 -1.0312  0.5271
28404SOL     OW87464   6.236   0.572   6.338  0.4178 -0.1850 -1.0858
28404SOL    HW187465   6.318   0.522   6.336 -0.8280 -2.3990  0.1572
28404SOL    HW287466   6.237   0.618   6.422 -0.5332 -1.9550 -0.0584
28405SOL     OW87467   5.989   4.762   2.067  0.2309  0.5803  0.3787
28405SOL    HW187468   5.912   4.723   2.108  0.8368 -0.5926  0.4667
28405SOL    HW287469   6.017   4.829   2.129 -0.6594  0.9581  0.3841
28406SOL     OW87470   8.392   4.450   0.492 -0.0436 -0.7554 -0.0097
28406SOL    HW187471   8.476   4.478   0.456 -1.5031  1.8933 -1.6799
28406SOL    HW287472   8.392   4.484   0.581 -0.6050  2.3358 -1.0829
28407SOL     OW87473   6.024   9.368   3.198 -0.7676 -0.1886  0.2781
28407SOL    HW187474   6.116   9.360   3.226 -1.1132 -1.3457  1.1598
28407SOL    HW287475   5.981   9.414   3.270 -1.1199 -0.7509  0.4327
28408SOL     OW87476   4.483  10.147  10.089 -0.3994  0.2382 -0.2362
28408SOL    HW187477   4.401  10.151  10.137 -0.7171  0.5821 -0.7855
28408SOL    HW287478   4.489  10.232  10.045 -1.3631 -0.9053 -2.7610
28409SOL     OW87479   2.718   1.589   8.586  0.5045  0.3205 -0.0615
28409SOL    HW187480   2.780   1.599   8.659 -0.0403  0.0229  0.4424
28409SOL    HW287481   2.635   1.621   8.621 -0.2621 -1.7471  0.1490
28410SOL     OW87482   0.548   0.596   3.860  0.2989  0.5490 -0.1040
28410SOL    HW187483   0.589   0.613   3.775 -0.7979  2.2228 -0.3342
28410SOL    HW287484   0.570   0.505   3.879  2.2638  0.7362 -1.2194
28411SOL     OW87485   9.599   3.513   4.210  0.8124 -0.4591 -0.0888
28411SOL    HW187486   9.568   3.451   4.275 -0.2459  0.4964  0.3671
28411SOL    HW287487   9.675   3.472   4.170  0.4970 -1.7617  0.6213
28412SOL     OW87488   0.681   2.312   0.615  0.1556 -0.1011  0.8751
28412SOL    HW187489   0.636   2.236   0.652  0.5536 -0.5755  0.3960
28412SOL    HW287490   0.610   2.363   0.574 -0.0003 -0.7050  0.3626
28413SOL     OW87491   6.761   5.248  10.504  0.3474  0.5571 -0.0106
28413SOL    HW187492   6.768   5.158  10.537 -0.5297  0.8658  1.0852
28413SOL    HW287493   6.675   5.251  10.461 -0.0314  1.1069  0.7685
28414SOL     OW87494   8.109   5.489   5.702 -0.1943 -0.1778  0.0940
28414SOL    HW187495   8.122   5.472   5.608 -0.4641 -0.4503  0.1051
28414SOL    HW287496   8.132   5.581   5.712 -1.5971  0.2728 -0.5272
28415SOL     OW87497   3.588   4.635   8.207 -0.4532  0.1420 -0.3817
28415SOL    HW187498   3.545   4.563   8.161  1.7044 -0.2582 -1.9287
28415SOL    HW287499   3.679   4.606   8.219 -0.1063  1.6458  1.1338
28416SOL     OW87500   2.580   8.986   9.775  0.1918  0.0743 -0.2774
28416SOL    HW187501   2.568   8.893   9.794 -1.9710  0.1387 -1.0367
28416SOL    HW287502   2.575   8.992   9.680  2.0893  0.8081 -0.3817
28417SOL     OW87503   7.440   4.613   1.093  0.1490 -0.0737  0.5387
28417SOL    HW187504   7.505   4.660   1.041  0.1361 -1.5984 -0.9344
28417SOL    HW287505   7.484   4.533   1.122 -1.0058 -1.1380 -0.4947
28418SOL     OW87506   9.433   0.810   7.686 -0.1017  0.7812  0.6232
28418SOL    HW187507   9.483   0.818   7.767  0.9182  0.0411  0.0950
28418SOL    HW287508   9.446   0.893   7.640  2.8076 -0.2504 -0.6630
28419SOL     OW87509   3.883   1.958   0.350 -0.0037 -0.1122  0.3291
28419SOL    HW187510   3.978   1.953   0.365  0.2879  0.6201 -1.1525
28419SOL    HW287511   3.855   2.034   0.402 -0.2012 -1.5817  2.5251
28420SOL     OW87512   5.580   7.433   4.764  0.8629 -0.5142 -0.3579
28420SOL    HW187513   5.671   7.463   4.770  0.6665  0.0105  0.0462
28420SOL    HW287514   5.549   7.467   4.680  0.0138  2.2471  0.9645
28421SOL     OW87515  10.076   2.045   2.230 -0.5530 -0.1728 -0.3607
28421SOL    HW187516  10.045   2.131   2.204  0.2773 -0.0866 -1.1367
28421SOL    HW287517  10.079   2.048   2.326  0.8837  1.2012 -0.4014
28422SOL     OW87518   9.765   9.447   4.495  0.5824  0.4004 -0.7205
28422SOL    HW187519   9.685   9.395   4.502  0.5769  0.5877  0.8127
28422SOL    HW287520   9.783   9.450   4.401  1.3074 -3.4543 -0.8506
28423SOL     OW87521   9.762   5.622  10.318  0.1915 -0.2666  0.1840
28423SOL    HW187522   9.667   5.627  10.311  0.1906 -1.8248 -1.7150
28423SOL    HW287523   9.787   5.703  10.363 -1.8849  1.1086 -0.9635
28424SOL     OW87524  10.402   0.504   3.756  0.0965 -0.3240 -0.3888
28424SOL    HW187525  10.432   0.414   3.768 -0.1425 -0.5298 -1.2811
28424SOL    HW287526  10.376   0.532   3.843  1.7370 -0.5391  0.2091
28425SOL     OW87527   5.449   4.178   1.732  0.4436  0.2777  0.4425
28425SOL    HW187528   5.436   4.159   1.639  1.0414  0.1100  0.3903
28425SOL    HW287529   5.461   4.273   1.735 -2.3923  0.7139  0.6877
28426SOL     OW87530   1.149   1.059   9.099 -0.6342 -0.3100 -0.0485
28426SOL    HW187531   1.085   1.127   9.080  0.8941  0.4930 -2.7983
28426SOL    HW287532   1.168   1.019   9.014  0.9531 -1.9701  1.0047
28427SOL     OW87533   2.877   0.264   0.615  0.1887 -0.4433  0.0822
28427SOL    HW187534   2.820   0.337   0.639 -0.8594 -0.7170 -1.4769
28427SOL    HW287535   2.880   0.209   0.694 -0.3353  0.4311  0.7224
28428SOL     OW87536   0.807   2.724   1.708  0.0427  0.0960 -0.2104
28428SOL    HW187537   0.810   2.803   1.655 -1.1543 -0.6586 -1.4747
28428SOL    HW287538   0.765   2.751   1.790 -1.6135  0.5132 -1.1619
28429SOL     OW87539   2.222   4.931   2.552 -0.1127  0.6268 -0.1738
28429SOL    HW187540   2.247   5.015   2.512  1.1866 -0.2315 -1.2717
28429SOL    HW287541   2.305   4.895   2.583 -0.2772 -1.2250 -1.7034
28430SOL     OW87542   6.955   8.671   5.648 -0.5460  0.3913 -0.4904
28430SOL    HW187543   7.047   8.648   5.638 -1.0579 -1.8655 -0.6432
28430SOL    HW287544   6.948   8.702   5.739  0.1310 -0.7770 -0.0218
28431SOL     OW87545   5.104   7.725   5.683  0.3765  0.0308 -0.4275
28431SOL    HW187546   5.070   7.680   5.606  1.0634  0.5295 -1.0381
28431SOL    HW287547   5.138   7.808   5.649  0.8263  0.1908  0.3897
28432SOL     OW87548   6.059   3.749   2.012  0.4368 -0.4825  0.4886
28432SOL    HW187549   6.005   3.827   1.999 -1.0918 -1.5190  0.3217
28432SOL    HW287550   6.140   3.768   1.964  0.8417  1.6706  1.8851
28433SOL     OW87551   5.993   9.267   8.161 -0.1637 -0.1667 -0.4119
28433SOL    HW187552   6.066   9.328   8.149 -0.4812  0.6611  1.5121
28433SOL    HW287553   5.999   9.207   8.087  3.1314 -0.8408  0.2681
28434SOL     OW87554  10.364   3.852   7.370 -0.0131 -0.4208  0.8283
28434SOL    HW187555  10.408   3.851   7.285 -0.4029 -1.4278  0.6261
28434SOL    HW287556  10.410   3.786   7.422 -1.8830 -2.2455  0.2828
28435SOL     OW87557   4.364   1.994   2.041 -0.3743  0.1975 -0.3967
28435SOL    HW187558   4.314   2.024   2.117 -0.1621 -0.8027  0.1444
28435SOL    HW287559   4.360   1.899   2.045  0.2183  0.1259 -1.2563
28436SOL     OW87560   9.555   3.076   4.694 -0.1280 -0.1111  0.2457
28436SOL    HW187561   9.531   3.012   4.627  0.8731 -0.9872  0.7206
28436SOL    HW287562   9.565   3.026   4.774 -0.2412  0.7811  0.8361
28437SOL     OW87563   8.353   2.405   8.425 -0.2628 -0.0052 -0.9018
28437SOL    HW187564   8.396   2.443   8.502 -0.6733  1.3311 -1.3070
28437SOL    HW287565   8.360   2.473   8.358 -1.1004 -0.6242 -1.6340
28438SOL     OW87566   8.439   5.529   2.673  0.6444 -0.0333 -0.2250
28438SOL    HW187567   8.452   5.545   2.766 -0.3262 -0.1139 -0.0660
28438SOL    HW287568   8.527   5.512   2.639  0.8934 -1.2215  0.9107
28439SOL     OW87569   1.739   3.968   1.270 -0.2063 -0.0596 -0.5703
28439SOL    HW187570   1.744   3.963   1.365 -0.3948  1.1021 -0.4843
28439SOL    HW287571   1.816   3.921   1.239  0.7039  0.8597  0.2079
28440SOL     OW87572  10.506   7.074   5.251  0.1980 -0.0886 -0.3698
28440SOL    HW187573  10.440   7.015   5.287  0.4711  0.3383  0.8907
28440SOL    HW287574  10.474   7.097   5.164 -1.0296 -0.3193  0.0107
28441SOL     OW87575   2.844   0.079  10.225 -0.0095  0.5538 -0.0269
28441SOL    HW187576   2.779   0.036  10.169 -0.8834  2.4168 -0.5525
28441SOL    HW287577   2.924   0.078  10.173 -0.6233  1.5957 -1.0545
28442SOL     OW87578   9.382   2.824  10.189 -0.1715 -0.7424  0.0759
28442SOL    HW187579   9.310   2.886  10.204 -0.7850 -1.3046 -0.4944
28442SOL    HW287580   9.367   2.790  10.101  1.7487  0.3660 -0.7222
28443SOL     OW87581   0.630   0.650   1.860 -0.2898  0.6389  0.3724
28443SOL    HW187582   0.581   0.617   1.936 -1.0272 -0.0346 -0.3719
28443SOL    HW287583   0.718   0.667   1.894 -0.9959  1.7683  1.7113
28444SOL     OW87584  10.295   4.839   9.911 -0.1889  0.2953  0.1518
28444SOL    HW187585  10.227   4.773   9.911  0.7100 -0.7800 -2.8075
28444SOL    HW287586  10.304   4.864  10.003 -3.3227 -0.7347  0.8514
28445SOL     OW87587   3.403  10.090   5.010  0.1162 -0.3675  0.0682
28445SOL    HW187588   3.466  10.152   4.974  0.0526 -0.6487 -0.5281
28445SOL    HW287589   3.368  10.134   5.087  1.8463 -0.6449  1.0782
28446SOL     OW87590   7.449   2.956   6.804  0.0424 -0.2405 -0.2623
28446SOL    HW187591   7.512   2.951   6.732  1.7311  0.3679  1.1097
28446SOL    HW287592   7.412   3.044   6.798 -0.2215 -0.3755 -0.6820
28447SOL     OW87593   7.428   8.567   0.299 -0.1027 -0.5346  0.4935
28447SOL    HW187594   7.382   8.624   0.360 -1.4733 -0.9137 -0.1576
28447SOL    HW287595   7.472   8.502   0.355 -0.5363 -0.2966  1.1153
28448SOL     OW87596   3.175   7.327   8.721  0.4303  0.6756  0.5573
28448SOL    HW187597   3.175   7.304   8.814  0.2272  1.6882  0.8172
28448SOL    HW287598   3.265   7.310   8.692  0.2153 -0.7533  0.6296
28449SOL     OW87599   4.088   2.517   7.724  0.0156 -0.0326  0.1694
28449SOL    HW187600   4.067   2.597   7.773 -0.3964  0.1367 -0.2811
28449SOL    HW287601   4.013   2.504   7.667 -0.2699 -1.1754  0.7869
28450SOL     OW87602   3.316   4.415   6.779 -0.3374  0.2623  0.0009
28450SOL    HW187603   3.265   4.491   6.751  0.2774  1.1976  1.2938
28450SOL    HW287604   3.350   4.440   6.865  2.3122 -0.2903 -0.7892
28451SOL     OW87605  10.407   6.563   2.279 -0.3302 -0.0847 -0.4535
28451SOL    HW187606  10.448   6.476   2.274  0.7712  0.3759  0.3156
28451SOL    HW287607  10.480   6.624   2.269 -0.9083  0.7552  0.3870
28452SOL     OW87608   3.691   9.734   3.802 -0.3995  0.0136 -0.2271
28452SOL    HW187609   3.783   9.732   3.778 -0.1667  0.6403  0.5608
28452SOL    HW287610   3.644   9.719   3.720  0.3974 -1.9074 -0.3817
28453SOL     OW87611   4.856   2.523   8.205 -0.6514  0.1053  0.0029
28453SOL    HW187612   4.940   2.560   8.233 -0.5131  0.3345 -0.6795
28453SOL    HW287613   4.818   2.486   8.284 -0.5523  1.2364  0.6007
28454SOL     OW87614   4.433   7.845   5.971  0.2374 -0.6660 -0.1785
28454SOL    HW187615   4.435   7.860   5.877  0.7222  0.2878 -0.0305
28454SOL    HW287616   4.517   7.804   5.991  0.9285  0.8050  0.0772
28455SOL     OW87617   1.273   4.665   0.722 -0.2141  0.6912 -0.5014
28455SOL    HW187618   1.187   4.685   0.685  0.2163  0.9188 -1.3978
28455SOL    HW287619   1.335   4.689   0.653  0.4575 -1.5662 -0.7762
28456SOL     OW87620   8.974   1.165   3.140 -0.2765 -0.1434  0.7520
28456SOL    HW187621   9.067   1.146   3.127 -0.3488 -0.6245  0.9139
28456SOL    HW287622   8.951   1.222   3.066  0.2249  0.2673  0.9025
28457SOL     OW87623   5.292   7.736   6.473  0.2689  0.4595 -0.1575
28457SOL    HW187624   5.346   7.656   6.477 -1.5369 -0.9228 -1.4389
28457SOL    HW287625   5.272   7.746   6.380 -1.6172  0.9479  0.2704
28458SOL     OW87626   0.544   6.807   5.759  0.3767 -0.1371  0.1025
28458SOL    HW187627   0.538   6.896   5.724  2.8022 -0.2218 -0.7571
28458SOL    HW287628   0.468   6.762   5.723 -2.3250  2.0694  2.4882
28459SOL     OW87629   8.138   0.926  10.534 -0.5939 -0.2036 -0.0933
28459SOL    HW187630   8.218   0.923  10.482 -0.3297 -1.0150  0.3356
28459SOL    HW287631   8.081   0.858  10.497 -1.5914  1.1546 -1.1565
28460SOL     OW87632   2.804   5.385   1.331 -0.1507 -0.4248  0.4851
28460SOL    HW187633   2.784   5.373   1.424 -0.4830  0.1306  0.4895
28460SOL    HW287634   2.718   5.401   1.290 -0.3356 -3.0251 -0.3127
28461SOL     OW87635   4.030   6.601   2.103  0.0730  0.3983 -0.7520
28461SOL    HW187636   4.093   6.660   2.063  1.2526  0.4111  1.0108
28461SOL    HW287637   4.076   6.564   2.178 -1.7989 -0.1038  0.2160
28462SOL     OW87638   4.630   4.774   4.363  0.2098 -0.4556 -1.0270
28462SOL    HW187639   4.667   4.775   4.452 -2.2404  1.4181  0.0846
28462SOL    HW287640   4.706   4.783   4.306  2.0949 -3.5854  0.6616
28463SOL     OW87641   0.753   4.301   0.211  0.1998 -0.0431  0.0024
28463SOL    HW187642   0.823   4.301   0.277  1.2089  1.8505 -1.0032
28463SOL    HW287643   0.675   4.325   0.260  0.1533 -2.2145  1.1531
28464SOL     OW87644  10.100   6.463   7.314 -0.3344  0.7856 -0.4867
28464SOL    HW187645  10.088   6.465   7.409  0.3089 -0.9893 -0.3401
28464SOL    HW287646  10.011   6.458   7.279 -0.6521  2.6438 -0.0720
28465SOL     OW87647   2.039   6.129   9.099  0.6960 -0.2378 -0.2125
28465SOL    HW187648   1.954   6.150   9.063  0.9945  0.5851 -0.4541
28465SOL    HW287649   2.037   6.163   9.189  0.5202 -0.8520  0.0190
28466SOL     OW87650   0.553   5.975   9.932  0.3868 -0.7406  0.6414
28466SOL    HW187651   0.560   5.953  10.025  1.1276 -1.1274  0.5050
28466SOL    HW287652   0.618   5.919   9.889  1.8313  1.1455  0.1980
28467SOL     OW87653   9.241   2.235   9.703 -0.1403 -0.2041 -0.0431
28467SOL    HW187654   9.231   2.213   9.796  0.1372 -1.6127 -0.3272
28467SOL    HW287655   9.246   2.330   9.702 -0.2533 -0.1570  1.3815
28468SOL     OW87656   7.495   0.296   8.202 -0.2621 -0.4213 -0.2667
28468SOL    HW187657   7.493   0.200   8.208 -0.7648 -0.4366 -0.6152
28468SOL    HW287658   7.586   0.319   8.223 -0.7081 -0.7743  2.4316
28469SOL     OW87659   8.988   7.515   8.188 -0.5468  0.4785 -0.4098
28469SOL    HW187660   9.008   7.481   8.100 -2.2442 -1.0003 -0.2875
28469SOL    HW287661   8.893   7.529   8.187 -0.4761  1.2462  0.9450
28470SOL     OW87662   4.499   0.081   6.119 -0.2284 -0.4735 -0.3994
28470SOL    HW187663   4.590   0.078   6.149 -0.5757 -1.4372  0.6063
28470SOL    HW287664   4.448   0.102   6.197 -0.6940  2.8986 -1.4589
28471SOL     OW87665   2.078   7.344   9.334 -0.1606 -0.2470 -0.0752
28471SOL    HW187666   2.086   7.336   9.429 -0.5498 -0.1945 -0.0368
28471SOL    HW287667   2.032   7.427   9.321  2.3445  1.1969 -0.3996
28472SOL     OW87668   4.210   3.380   9.168 -0.1017  0.0043  0.6730
28472SOL    HW187669   4.196   3.456   9.224  1.2599 -0.4473  1.6671
28472SOL    HW287670   4.190   3.305   9.223 -1.8400 -0.3960 -0.4228
28473SOL     OW87671  10.581  10.023   8.029 -0.4197  0.4488 -0.8849
28473SOL    HW187672  10.607  10.100   8.080 -0.1014  0.8359 -1.6134
28473SOL    HW287673  10.561   9.956   8.095  4.6890 -0.7517 -0.1041
28474SOL     OW87674  10.361   5.159   9.652  0.7796 -0.0972  0.1112
28474SOL    HW187675  10.416   5.236   9.638  1.1298 -0.4342 -0.4279
28474SOL    HW287676  10.412   5.087   9.614 -0.1325 -0.3759 -0.6167
28475SOL     OW87677   0.101   3.194   6.439 -0.3184 -0.2626  0.3644
28475SOL    HW187678   0.128   3.152   6.521 -1.1171  1.1293  1.3838
28475SOL    HW287679   0.006   3.182   6.437 -0.3038 -0.2497 -0.3425
28476SOL     OW87680   7.248   0.622   1.628 -0.7735  0.4525  0.3021
28476SOL    HW187681   7.294   0.620   1.545 -1.0217  1.5894  0.1197
28476SOL    HW287682   7.317   0.623   1.694 -0.5749 -0.1116  0.1103
28477SOL     OW87683   4.479   5.573   5.667  0.3551  0.0502  0.1849
28477SOL    HW187684   4.501   5.661   5.697  0.1046 -0.1834  1.0631
28477SOL    HW287685   4.563   5.527   5.661  0.4484  0.2303  0.0961
28478SOL     OW87686   5.862   0.907   3.253  0.5760  0.5134 -0.3766
28478SOL    HW187687   5.936   0.902   3.313 -0.2334 -0.5842  0.5819
28478SOL    HW287688   5.807   0.976   3.289  0.7414  0.7815 -0.6343
28479SOL     OW87689   0.498   6.563   2.440  0.3885  0.1384  0.2284
28479SOL    HW187690   0.521   6.570   2.533 -0.8836  0.2599  0.5498
28479SOL    HW287691   0.467   6.473   2.429 -0.7733  0.5160  0.2523
28480SOL     OW87692   7.512   6.880   6.942  0.3246 -0.0496 -0.0005
28480SOL    HW187693   7.584   6.838   6.896 -0.6880 -2.9539  0.8420
28480SOL    HW287694   7.501   6.828   7.022 -1.5259  1.4311  0.7792
28481SOL     OW87695  10.560  10.644   6.240  0.1927  0.2854 -0.2117
28481SOL    HW187696  10.472  10.666   6.212  0.2005  1.5994  0.7124
28481SOL    HW287697  10.617  10.708   6.197  0.7686 -0.8107 -1.1393
28482SOL     OW87698   8.050   3.433   1.283  0.4264  0.6118 -0.0711
28482SOL    HW187699   8.128   3.462   1.235  0.6877  0.1340  0.0572
28482SOL    HW287700   8.023   3.509   1.334 -0.5438  1.5161 -1.8416
28483SOL     OW87701   7.005   5.515  10.346 -0.0859 -0.0832  0.1303
28483SOL    HW187702   7.080   5.469  10.384  0.1323 -0.6721 -0.9519
28483SOL    HW287703   6.992   5.591  10.402 -0.0897 -1.1523  1.6357
28484SOL     OW87704   1.036   9.683   4.655 -0.4384 -0.3471  0.1913
28484SOL    HW187705   1.011   9.615   4.718  1.0701 -0.1180  1.0847
28484SOL    HW287706   1.131   9.678   4.652 -0.4764 -0.6068 -2.3959
28485SOL     OW87707   8.099   4.906   9.047 -1.0399 -0.4499 -0.4600
28485SOL    HW187708   8.151   4.979   9.078 -0.2834 -1.7910  1.5964
28485SOL    HW287709   8.065   4.935   8.962  0.6231  1.5904 -0.4932
28486SOL     OW87710   3.492   3.950   3.382 -0.3890 -0.0334 -0.6368
28486SOL    HW187711   3.480   3.984   3.471  1.7191 -0.0022 -0.3070
28486SOL    HW287712   3.432   4.001   3.328 -1.8989 -0.2256  0.7803
28487SOL     OW87713   2.318   3.108   5.044  0.2742 -0.0354  0.0353
28487SOL    HW187714   2.330   3.197   5.077  0.4479 -0.1842  0.3734
28487SOL    HW287715   2.226   3.105   5.017  0.0266 -0.0272  0.8543
28488SOL     OW87716   2.131   2.218   9.410 -0.3385  0.5210 -0.5841
28488SOL    HW187717   2.167   2.167   9.483 -0.4759  1.3052  0.0463
28488SOL    HW287718   2.038   2.228   9.432  0.2483  3.7721  1.0275
28489SOL     OW87719   1.307   2.305   4.864  0.0753 -0.3682 -0.5027
28489SOL    HW187720   1.284   2.268   4.779 -1.1594 -0.0959 -0.3023
28489SOL    HW287721   1.403   2.309   4.863  0.1155 -1.1886 -1.5238
28490SOL     OW87722   3.551   7.079   4.344  0.1336  0.1881 -0.6466
28490SOL    HW187723   3.572   7.071   4.251  1.6719  0.6891 -0.3616
28490SOL    HW287724   3.631   7.054   4.389 -0.5737  0.0344  0.5532
28491SOL     OW87725   3.924   3.286   1.205 -0.3401  0.0910  0.0876
28491SOL    HW187726   3.852   3.294   1.142 -0.3135  0.3357  0.0872
28491SOL    HW287727   3.990   3.347   1.173  0.9961 -1.9705 -1.4281
28492SOL     OW87728   9.420   4.635  10.360  0.0059  0.1204  0.5484
28492SOL    HW187729   9.464   4.687  10.293 -0.5511 -0.9210 -0.6800
28492SOL    HW287730   9.336   4.679  10.374 -0.6226 -0.5871 -0.7605
28493SOL     OW87731   7.310   5.725   9.498  0.3370  0.4233 -0.4789
28493SOL    HW187732   7.292   5.660   9.566 -1.5823  0.8757 -0.5108
28493SOL    HW287733   7.349   5.798   9.546  0.4885  0.1054 -0.1112
28494SOL     OW87734   1.804   3.112   0.811  0.4211 -0.9679  0.0317
28494SOL    HW187735   1.733   3.099   0.748 -0.2020  0.5786  0.3481
28494SOL    HW287736   1.807   3.030   0.861  1.0216 -2.2687 -2.0433
28495SOL     OW87737   2.880   3.147  10.468 -0.0052 -0.3174 -0.2203
28495SOL    HW187738   2.926   3.224  10.436 -0.4544 -0.2119 -0.6319
28495SOL    HW287739   2.789   3.175  10.476  0.3513  0.3363  3.2487
28496SOL     OW87740   9.368  10.510   5.044 -0.0689  0.6327  0.7205
28496SOL    HW187741   9.336  10.478   5.129 -0.6908  0.1529  0.3151
28496SOL    HW287742   9.394  10.432   4.997 -0.3492  0.8378  0.2181
28497SOL     OW87743   2.808   8.318   9.315 -0.5167  0.1763  0.0068
28497SOL    HW187744   2.814   8.351   9.225  2.2135  2.4116  0.8535
28497SOL    HW287745   2.816   8.397   9.369  3.6074 -1.4967  2.2106
28498SOL     OW87746   4.902   1.264   9.804 -0.0203 -0.0278  0.7080
28498SOL    HW187747   4.869   1.196   9.745 -0.0545  0.1309  0.5444
28498SOL    HW287748   4.877   1.234   9.891  0.7080 -0.6567  0.7190
28499SOL     OW87749   0.545   8.088   3.208  0.0268  0.1880  0.4519
28499SOL    HW187750   0.592   8.082   3.291  1.0681 -0.1303 -0.1427
28499SOL    HW287751   0.608   8.129   3.148 -0.6066  0.1364 -0.2597
28500SOL     OW87752   5.869   3.729  10.383  0.4589 -0.6963  0.6572
28500SOL    HW187753   5.783   3.698  10.352  0.4925 -1.4935  1.3344
28500SOL    HW287754   5.932   3.686  10.325  0.3618  2.5006 -2.1180
28501SOL     OW87755   8.497   7.085   9.039  0.0704 -0.7248  0.3898
28501SOL    HW187756   8.580   7.116   9.002 -0.6844 -1.1857 -1.8654
28501SOL    HW287757   8.464   7.159   9.090  0.6174  0.4648 -0.9049
28502SOL     OW87758   4.094  10.339   3.838 -0.4556 -0.7329 -0.2615
28502SOL    HW187759   4.095  10.349   3.933  0.8682  0.5465 -0.3677
28502SOL    HW287760   4.022  10.396   3.809  0.4615  0.5454 -0.1305
28503SOL     OW87761   5.891   0.944   8.451  0.1298 -0.4901 -0.5375
28503SOL    HW187762   5.881   0.994   8.370 -0.3843 -0.7013 -0.6088
28503SOL    HW287763   5.857   1.002   8.519  0.1094 -0.5009 -0.5384
28504SOL     OW87764   0.324   6.167   1.976 -0.3609  0.2175 -0.4578
28504SOL    HW187765   0.306   6.081   1.938  1.6239 -0.7397  0.5953
28504SOL    HW287766   0.339   6.149   2.069  2.1014  1.3256 -0.5687
28505SOL     OW87767   3.281   3.467   7.512  0.2249 -0.0851 -0.2625
28505SOL    HW187768   3.261   3.405   7.442  1.8372 -0.3062 -0.5608
28505SOL    HW287769   3.364   3.507   7.485  0.5943  0.2198  1.2540
28506SOL     OW87770   7.914   2.616   1.993 -0.2067  0.2611  0.3173
28506SOL    HW187771   7.851   2.612   1.920 -1.1829 -1.5646  1.2014
28506SOL    HW287772   7.937   2.709   1.999 -2.1305  0.8573 -0.6473
28507SOL     OW87773   9.712   3.486   5.228  0.0631  0.5704  0.0128
28507SOL    HW187774   9.656   3.563   5.218 -0.7531 -0.2465 -2.8173
28507SOL    HW287775   9.730   3.458   5.138  3.2056 -0.5631  0.8543
28508SOL     OW87776   3.833   2.454   5.208  0.9206  0.3452 -0.5467
28508SOL    HW187777   3.836   2.396   5.284  0.2350  1.7750  0.6383
28508SOL    HW287778   3.838   2.542   5.246  0.1378  1.1117 -2.1454
28509SOL     OW87779   8.432   1.178   4.243  0.0967 -0.4957  0.3092
28509SOL    HW187780   8.460   1.187   4.333 -0.9017 -1.3468  0.7262
28509SOL    HW287781   8.342   1.212   4.242  1.0042  2.1411 -0.9742
28510SOL     OW87782   1.240   9.879   1.067  0.4272  0.6933  0.2440
28510SOL    HW187783   1.201   9.943   1.007  1.5338  1.0694 -0.0948
28510SOL    HW287784   1.333   9.902   1.069  0.5043  0.3495  1.6870
28511SOL     OW87785   0.260   7.777   3.262  0.1593  0.0374  0.1708
28511SOL    HW187786   0.219   7.691   3.270 -1.5065  0.8825  1.3351
28511SOL    HW287787   0.325   7.779   3.332  0.6695 -0.5124 -0.2846
28512SOL     OW87788   5.856   5.826   4.904 -0.2539 -0.5116 -0.1577
28512SOL    HW187789   5.773   5.792   4.935 -1.4594  3.0498  1.0710
28512SOL    HW287790   5.847   5.832   4.809 -1.6141  0.2651  0.0067
28513SOL     OW87791  10.424   7.485   2.492  0.3448 -0.4723 -0.7325
28513SOL    HW187792  10.347   7.543   2.491  0.3702 -0.4359 -1.4523
28513SOL    HW287793  10.400   7.414   2.551 -0.1395 -0.3186 -0.7390
28514SOL     OW87794   7.593   8.779   1.665 -0.2559  0.0965 -0.2156
28514SOL    HW187795   7.685   8.756   1.675 -0.1769 -0.6020 -2.0726
28514SOL    HW287796   7.591   8.841   1.592 -1.2419  0.2364 -0.0867
28515SOL     OW87797   5.805   6.228   3.106  0.3532 -0.3059 -0.0829
28515SOL    HW187798   5.815   6.151   3.051  0.0484 -0.3570 -0.0672
28515SOL    HW287799   5.878   6.223   3.168  0.2942 -0.6174 -0.0376
28516SOL     OW87800   5.747   9.799   5.700  0.6257 -0.2664 -0.4754
28516SOL    HW187801   5.672   9.812   5.641 -0.9296  2.1337  1.8337
28516SOL    HW287802   5.795   9.882   5.696  0.3310  0.0713  1.7175
28517SOL     OW87803   9.319   7.611   9.557 -0.3867 -0.2748 -0.4049
28517SOL    HW187804   9.286   7.580   9.642  0.3886  1.0829  0.4318
28517SOL    HW287805   9.375   7.685   9.579  0.8410 -0.6812 -2.0289
28518SOL     OW87806   7.974   2.512   0.656 -0.3267 -0.0841  0.1296
28518SOL    HW187807   8.006   2.445   0.597 -0.6046  0.3631 -0.5390
28518SOL    HW287808   8.002   2.483   0.743 -0.1272 -0.8670 -0.1915
28519SOL     OW87809   9.290  10.009   9.766 -0.3522  0.3230  0.0825
28519SOL    HW187810   9.216   9.998   9.825 -0.1935 -0.5576  0.1292
28519SOL    HW287811   9.268   9.956   9.690 -0.1132  0.6677 -0.2279
28520SOL     OW87812   5.983   4.980  10.037 -0.4137  0.1996  0.1374
28520SOL    HW187813   5.980   5.035   9.958 -1.4752 -0.4284 -0.2817
28520SOL    HW287814   5.966   5.040  10.109 -4.2243  0.1417 -0.5022
28521SOL     OW87815   4.531   0.424   6.684 -0.1619  0.4788 -0.4284
28521SOL    HW187816   4.461   0.418   6.618 -0.3851 -2.2982 -0.0471
28521SOL    HW287817   4.489   0.463   6.760 -0.9776  0.0136 -0.6265
28522SOL     OW87818   9.741   6.477   5.485  0.4303 -0.3395  0.1134
28522SOL    HW187819   9.836   6.483   5.479  0.3459 -0.7583 -3.3031
28522SOL    HW287820   9.708   6.532   5.413 -1.9943  0.4524  1.6783
28523SOL     OW87821   5.991   6.345   7.895  0.8172 -0.2657  0.1879
28523SOL    HW187822   6.069   6.397   7.876 -0.2694  1.7697  0.9169
28523SOL    HW287823   5.979   6.289   7.818  2.2967  0.2486 -0.4494
28524SOL     OW87824   5.248  10.446   5.203 -0.2324  0.2853 -0.2859
28524SOL    HW187825   5.332  10.468   5.162 -0.8848 -0.5959 -2.2363
28524SOL    HW287826   5.272  10.395   5.280  1.0992 -2.4131 -2.2917
28525SOL     OW87827  10.136   4.607   9.984  0.0758 -0.1699 -0.5628
28525SOL    HW187828  10.050   4.613   9.943 -0.0824  0.9942 -0.0904
28525SOL    HW287829  10.117   4.593  10.077  0.4143 -0.6304 -0.5558
28526SOL     OW87830  10.247   1.355   3.905  0.1918 -0.3147  0.3259
28526SOL    HW187831  10.211   1.444   3.901 -1.2174 -0.8829 -0.3729
28526SOL    HW287832  10.196   1.306   3.840  3.1022 -0.8965 -1.7428
28527SOL     OW87833   6.509   3.713   0.557 -0.3638 -0.7175 -0.0129
28527SOL    HW187834   6.603   3.729   0.559 -0.7262  1.6606  1.1677
28527SOL    HW287835   6.499   3.636   0.501  2.2168 -0.6435 -0.6910
28528SOL     OW87836   0.704   0.465   0.831  0.2798 -0.3985 -0.1778
28528SOL    HW187837   0.694   0.505   0.745 -2.7520  1.2003  0.7905
28528SOL    HW287838   0.703   0.371   0.813 -0.3903 -0.1067 -1.8938
28529SOL     OW87839  10.041  10.414   9.496  0.3897  0.4248 -0.3505
28529SOL    HW187840  10.016  10.332   9.539  1.6656  1.0280  1.6970
28529SOL    HW287841  10.110  10.389   9.434  1.1534 -0.0020  0.6524
28530SOL     OW87842   4.509   2.093   5.194 -0.3230  0.3704  0.1694
28530SOL    HW187843   4.512   2.023   5.259  1.9086  1.3913  1.2947
28530SOL    HW287844   4.526   2.173   5.245  4.4254  0.9760 -1.8143
28531SOL     OW87845   0.361   6.756  10.341  0.2127 -0.3774  0.0883
28531SOL    HW187846   0.318   6.804  10.271  1.1951  1.6168  0.7853
28531SOL    HW287847   0.447   6.798  10.351 -0.1692 -0.0462  2.9693
28532SOL     OW87848   9.710   9.818   8.646  0.1877 -0.3662  0.2912
28532SOL    HW187849   9.718   9.853   8.557  0.1177 -0.4933  0.2348
28532SOL    HW287850   9.631   9.765   8.644 -0.1096  0.0597  0.5721
28533SOL     OW87851   2.265   8.946   0.106  0.0281  0.4579  0.2361
28533SOL    HW187852   2.228   9.001   0.175  3.0946  1.1314  1.5277
28533SOL    HW287853   2.348   8.914   0.143  0.7982 -0.8695 -2.3883
28534SOL     OW87854   5.969   4.860   1.804  0.5868  0.3896 -0.2102
28534SOL    HW187855   5.888   4.910   1.820  0.6008  0.1748  0.5469
28534SOL    HW287856   5.982   4.809   1.884  0.6900 -0.6808 -0.8933
28535SOL     OW87857   9.105   6.047   0.571  0.3658 -0.1261  0.6158
28535SOL    HW187858   9.026   5.997   0.590  0.5111  0.2964  2.5204
28535SOL    HW287859   9.177   5.988   0.596  0.6477 -0.2388 -0.4151
28536SOL     OW87860   7.849   0.534  10.115  0.5635  0.2998 -0.3776
28536SOL    HW187861   7.944   0.527  10.114  0.6438  1.3447 -0.9813
28536SOL    HW287862   7.819   0.467  10.053  0.8448 -0.6329  0.4697
28537SOL     OW87863   3.992   0.611   0.029 -0.1140 -0.4410  0.1679
28537SOL    HW187864   3.967   0.584   0.117  0.1240 -0.1540  0.3223
28537SOL    HW287865   3.972   0.534  -0.026  1.5113 -1.3184  0.7495
28538SOL     OW87866   0.744   1.828   8.472  0.0139 -0.2553 -0.1637
28538SOL    HW187867   0.697   1.792   8.397 -1.7368  0.5712  0.4730
28538SOL    HW287868   0.832   1.791   8.466 -0.3570 -0.9236 -2.0930
28539SOL     OW87869   3.051   4.472   4.025  0.0243 -0.0809  0.0033
28539SOL    HW187870   3.041   4.532   4.099  1.2282 -0.0317  0.1371
28539SOL    HW287871   3.095   4.523   3.957 -2.3961  0.3513 -1.3789
28540SOL     OW87872   5.954   9.927   5.092 -0.5133  0.4343  0.0693
28540SOL    HW187873   5.930   9.920   5.184  0.4070 -1.3092  0.2229
28540SOL    HW287874   5.881   9.888   5.044 -0.2325 -0.2727  0.2009
28541SOL     OW87875   4.694   5.375   6.050  0.2527  0.1944  0.2105
28541SOL    HW187876   4.715   5.311   6.118 -0.6133 -3.0657 -2.3483
28541SOL    HW287877   4.779   5.397   6.011  0.5335  0.4831  0.9666
28542SOL     OW87878   8.593   2.987   3.746  0.5336 -0.5107 -0.4792
28542SOL    HW187879   8.581   3.044   3.670  0.5336 -1.0434 -0.8835
28542SOL    HW287880   8.651   2.918   3.714 -0.0055 -1.1019 -0.1827
28543SOL     OW87881   6.260   3.049   5.030  0.2450  0.1508  0.0608
28543SOL    HW187882   6.349   3.075   5.052  0.1001  2.6731 -1.8260
28543SOL    HW287883   6.262   3.032   4.936 -0.9982 -1.1234  0.2279
28544SOL     OW87884   8.678   2.617   4.535  0.1566 -0.3003 -0.4073
28544SOL    HW187885   8.627   2.566   4.472  1.0905 -1.8041 -0.0214
28544SOL    HW287886   8.769   2.608   4.505  0.5876 -0.8064  0.9650
28545SOL     OW87887   3.549   7.467   9.935  0.1344  0.1233 -0.2568
28545SOL    HW187888   3.532   7.502  10.022  0.1442 -0.1841 -0.1290
28545SOL    HW287889   3.488   7.514   9.877  2.8817  3.3685 -0.8054
28546SOL     OW87890   4.414   8.830   8.241  0.1780 -0.5518  0.2115
28546SOL    HW187891   4.468   8.848   8.164  0.6668  0.8967  0.8583
28546SOL    HW287892   4.466   8.768   8.292  0.1901 -0.9374 -0.2585
28547SOL     OW87893   3.920   7.371   9.281 -0.3976  0.1264 -0.0074
28547SOL    HW187894   3.841   7.422   9.261  0.2324  1.4595  0.7373
28547SOL    HW287895   3.888   7.293   9.325 -1.2817  1.0636  1.0787
28548SOL     OW87896  10.648   0.289   0.303 -0.4086  0.2525 -0.3195
28548SOL    HW187897  10.685   0.269   0.388 -0.3784  1.9907  0.1057
28548SOL    HW287898  10.652   0.206   0.255  1.9863 -0.1563  0.4521
28549SOL     OW87899   6.828   9.049   1.838  0.4280 -0.5340  0.2239
28549SOL    HW187900   6.921   9.052   1.817  0.1898  0.7545 -0.7251
28549SOL    HW287901   6.785   9.032   1.755 -0.3791  2.1856  0.0131
28550SOL     OW87902   3.035   6.402   0.036  0.6144 -0.3102 -0.2153
28550SOL    HW187903   3.044   6.441  -0.052 -1.7910  0.1261 -0.3218
28550SOL    HW287904   2.988   6.321   0.022 -1.8715  0.8562  0.8345
28551SOL     OW87905   5.665   5.061   3.337 -0.4464 -0.0281  0.2464
28551SOL    HW187906   5.758   5.040   3.332 -0.2259  1.0949 -0.7770
28551SOL    HW287907   5.661   5.139   3.393 -0.7646 -0.0725  0.2855
28552SOL     OW87908   4.957   5.103   6.543 -0.6029 -0.0242 -0.5336
28552SOL    HW187909   5.034   5.046   6.545 -0.9115 -0.4297  0.2528
28552SOL    HW287910   4.989   5.186   6.508 -0.2562 -0.8272 -2.2225
28553SOL     OW87911   9.702   5.407   0.469 -0.1730 -0.8595 -0.2692
28553SOL    HW187912   9.712   5.328   0.522 -1.4435 -1.7896 -1.3360
28553SOL    HW287913   9.718   5.378   0.379 -0.4132  0.1541 -0.6593
28554SOL     OW87914   7.062   2.036   5.066  0.2799 -0.7822 -0.4465
28554SOL    HW187915   7.047   2.045   4.971 -0.1005 -0.6634 -0.3753
28554SOL    HW287916   7.013   2.108   5.105  0.7728 -0.5820 -0.1835
28555SOL     OW87917   7.977   9.867   2.328 -0.3306 -0.1325  0.1896
28555SOL    HW187918   7.969   9.961   2.343  1.4376  0.0124  0.4318
28555SOL    HW287919   7.962   9.827   2.413  1.1847  0.1044  0.5860
28556SOL     OW87920   9.278   8.969   3.047 -0.2447 -0.1196  0.3146
28556SOL    HW187921   9.258   8.876   3.041 -1.1457  0.1065 -0.3376
28556SOL    HW287922   9.244   8.996   3.132  0.9801 -0.5954  0.9864
28557SOL     OW87923   5.794   7.506   2.517  0.1861  0.3194 -0.1004
28557SOL    HW187924   5.738   7.508   2.440  1.3997 -2.6826 -1.2212
28557SOL    HW287925   5.770   7.424   2.561  0.8424  1.0460  1.6967
28558SOL     OW87926   8.032   2.667   3.867 -0.1710 -0.1500  0.1469
28558SOL    HW187927   7.952   2.719   3.876  0.5080  0.9405 -0.0078
28558SOL    HW287928   8.062   2.683   3.778  1.7981  1.8486  1.0666
28559SOL     OW87929   7.791   3.836   6.798 -0.0024 -0.9409 -0.3120
28559SOL    HW187930   7.825   3.825   6.709 -0.5628 -5.0546 -0.1916
28559SOL    HW287931   7.726   3.766   6.807 -1.3700  0.5616  2.7491
28560SOL     OW87932   6.531   1.025   2.385  0.5910  0.1504  0.5097
28560SOL    HW187933   6.529   1.106   2.435 -1.2319 -1.0898  2.6202
28560SOL    HW287934   6.589   1.044   2.310 -0.0623  3.4507  0.7121
28561SOL     OW87935   3.842   4.062   5.232 -0.0036  0.1789 -1.0079
28561SOL    HW187936   3.885   4.134   5.186  1.8578 -0.6545 -0.6603
28561SOL    HW287937   3.853   3.987   5.175  0.0811 -0.3083 -0.3650
28562SOL     OW87938   7.750   2.919   4.282  0.6500  0.3011 -0.1435
28562SOL    HW187939   7.805   2.842   4.299  1.2660  1.0294  1.3583
28562SOL    HW287940   7.684   2.888   4.221  2.0085 -0.9254 -1.0759
28563SOL     OW87941   2.306   5.901   5.186 -0.4037 -0.5560  0.5467
28563SOL    HW187942   2.275   5.872   5.100  0.8924 -0.5228  0.0491
28563SOL    HW287943   2.400   5.913   5.175  0.1147 -2.3513  2.4769
28564SOL     OW87944   3.315   4.193   0.428 -0.3627 -0.0719 -0.0636
28564SOL    HW187945   3.233   4.233   0.399  0.0962  0.3623 -0.8014
28564SOL    HW287946   3.354   4.257   0.487 -1.6120 -1.2325  2.1432
28565SOL     OW87947   6.512   1.405   7.629  0.6779  0.1008 -0.3785
28565SOL    HW187948   6.567   1.415   7.551  2.1050 -0.8180  0.4610
28565SOL    HW287949   6.497   1.310   7.636 -0.4948  0.2818 -0.2229
28566SOL     OW87950   5.460   8.856   9.369  0.0300  0.1061 -0.6249
28566SOL    HW187951   5.481   8.902   9.451 -0.6825  0.7285 -0.7872
28566SOL    HW287952   5.538   8.868   9.315  0.7789 -0.8672  0.1847
28567SOL     OW87953   0.145   0.546   2.690  0.2076  0.2063  0.3988
28567SOL    HW187954   0.087   0.613   2.727  0.4516 -1.4021  4.1368
28567SOL    HW287955   0.124   0.467   2.740  1.6887 -1.9105 -2.1076
28568SOL     OW87956   5.151   0.220   3.528 -0.4656  0.4566 -0.0387
28568SOL    HW187957   5.155   0.316   3.529 -0.6684  0.4716  0.9623
28568SOL    HW287958   5.230   0.192   3.573  0.2512  0.0926 -1.4564
28569SOL     OW87959   1.066   8.913   0.593  0.2325  0.4967  0.2103
28569SOL    HW187960   1.124   8.960   0.653 -0.8882  1.0164  0.9231
28569SOL    HW287961   1.093   8.821   0.602  2.5305  0.9317 -1.2967
28570SOL     OW87962   5.414   6.736   5.044 -0.5729 -0.8204  0.2710
28570SOL    HW187963   5.441   6.773   4.959 -0.5975 -0.4135  0.4370
28570SOL    HW287964   5.491   6.690   5.076  0.0054  0.4895  0.8294
28571SOL     OW87965   0.115   8.395   1.032 -0.1520  0.1409  0.5436
28571SOL    HW187966   0.049   8.421   1.096  0.3466 -2.2636  2.1669
28571SOL    HW287967   0.065   8.370   0.954 -0.7453  3.4200 -0.2993
28572SOL     OW87968   9.447   7.956   2.465  0.5130 -0.1940  0.3881
28572SOL    HW187969   9.461   7.869   2.427 -0.3901 -0.7078  1.1743
28572SOL    HW287970   9.526   8.005   2.444  2.0306 -1.8988  1.8202
28573SOL     OW87971   9.767   0.593   1.788 -0.2324 -0.1425 -0.4436
28573SOL    HW187972   9.720   0.636   1.859  1.8371  2.0210 -0.2550
28573SOL    HW287973   9.793   0.665   1.730  2.2896 -1.2747 -0.8162
28574SOL     OW87974  10.641   3.329   7.921  0.0611  0.2220 -0.6651
28574SOL    HW187975  10.645   3.315   7.826 -0.8043  0.7578 -0.7922
28574SOL    HW287976  10.710   3.273   7.956  0.7035  0.3620 -1.6498
28575SOL     OW87977   0.212   1.297   6.153 -0.5670  0.3971 -0.1333
28575SOL    HW187978   0.198   1.344   6.070 -0.9846 -1.5191 -1.2170
28575SOL    HW287979   0.292   1.335   6.189 -0.6957  1.6762 -1.1188
28576SOL     OW87980   6.373   1.562   0.075  0.2656  0.2139 -0.1566
28576SOL    HW187981   6.314   1.502   0.030 -0.0063  0.9026 -0.7486
28576SOL    HW287982   6.382   1.526   0.163 -1.2330  0.2143  0.0302
28577SOL     OW87983   7.624   2.347   0.828  0.1762  0.1073 -0.0623
28577SOL    HW187984   7.697   2.403   0.802  0.7931 -0.3941  0.5446
28577SOL    HW287985   7.665   2.265   0.854 -0.7892 -1.0050 -1.8602
28578SOL     OW87986   2.281   9.999   0.814 -0.3912 -0.1164  0.1609
28578SOL    HW187987   2.302   9.919   0.862 -0.0083 -0.5170 -0.6588
28578SOL    HW287988   2.313  10.070   0.870 -0.3942 -0.5503  0.7189
28579SOL     OW87989   4.637   6.583   7.680  0.2492  0.6482  0.0352
28579SOL    HW187990   4.598   6.542   7.602 -0.6540 -0.6257  1.1042
28579SOL    HW287991   4.632   6.515   7.747  1.6524  1.4789  1.0302
28580SOL     OW87992   1.701   7.718   5.619  0.5295 -0.4676  0.4032
28580SOL    HW187993   1.625   7.714   5.677 -0.3598 -2.2084 -0.7687
28580SOL    HW287994   1.728   7.809   5.621 -1.0741  0.0331  1.5194
28581SOL     OW87995   1.073  10.283   6.233  0.0077 -0.3056 -0.0510
28581SOL    HW187996   1.055  10.190   6.216 -0.2805 -0.0191 -1.4392
28581SOL    HW287997   0.989  10.318   6.265 -0.1454 -0.3371 -0.4074
28582SOL     OW87998   7.858   8.738   1.660 -0.3474 -0.4671 -0.3435
28582SOL    HW187999   7.909   8.668   1.700  0.1712 -0.4069 -0.8830
28582SOL    HW288000   7.904   8.758   1.578  0.3435  1.4639  0.4502
28583SOL     OW88001   9.641   9.709   3.295 -0.2437  0.1238  0.2877
28583SOL    HW188002   9.674   9.679   3.380 -2.4854  1.5841  1.7769
28583SOL    HW288003   9.611   9.798   3.311 -2.0459 -0.0436 -1.6662
28584SOL     OW88004  10.045   1.083   7.304 -0.3015  0.3349  0.1582
28584SOL    HW188005  10.005   0.996   7.303 -1.9142  0.9843 -2.6619
28584SOL    HW288006  10.136   1.068   7.279 -0.6825 -0.5223 -0.7627
28585SOL     OW88007   8.127   3.508   8.318  0.3117 -0.2044 -0.1912
28585SOL    HW188008   8.058   3.556   8.364 -0.6306 -1.2098 -0.5288
28585SOL    HW288009   8.124   3.541   8.228  0.6207  0.1041 -0.0939
28586SOL     OW88010   1.387   1.714   2.629 -0.1882 -0.2943 -0.1353
28586SOL    HW188011   1.471   1.669   2.617  0.4579  0.6195  0.7988
28586SOL    HW288012   1.347   1.713   2.542 -0.0251 -2.2936 -0.2307
28587SOL     OW88013   9.512   8.238   7.783 -0.1727 -0.1437  0.3653
28587SOL    HW188014   9.599   8.233   7.822 -0.4967  0.7058  1.2222
28587SOL    HW288015   9.454   8.197   7.847 -0.3670 -1.0750 -0.3804
28588SOL     OW88016  10.250   7.554   4.923 -0.5031  0.4597  0.2273
28588SOL    HW188017  10.327   7.556   4.980 -0.3046 -0.2692 -0.0058
28588SOL    HW288018  10.279   7.505   4.846 -0.7269  1.5342 -0.5616
28589SOL     OW88019   0.209   3.182   1.078  0.3389 -0.0026 -0.1550
28589SOL    HW188020   0.263   3.177   0.999 -0.8603  0.5090 -1.0535
28589SOL    HW288021   0.182   3.092   1.095 -0.3063  0.0158 -1.0132
28590SOL     OW88022   3.625   1.600   5.269  0.0395  0.3744  0.2618
28590SOL    HW188023   3.574   1.676   5.240  0.4587  0.0068 -1.4986
28590SOL    HW288024   3.712   1.614   5.233  1.0609  0.6327  2.6547
28591SOL     OW88025   8.576   3.103  10.253  0.5517 -0.3021  0.6922
28591SOL    HW188026   8.602   3.178  10.307 -0.2907 -1.0146  2.1515
28591SOL    HW288027   8.505   3.062  10.303 -1.0657 -0.3528 -1.5133
28592SOL     OW88028   5.398   1.526   9.967  0.4124 -0.0914  0.8907
28592SOL    HW188029   5.388   1.432   9.954 -1.4112  0.1306  0.3737
28592SOL    HW288030   5.309   1.561   9.960  1.0628  1.6932  0.9277
28593SOL     OW88031   6.830   4.084   9.675  0.1420 -0.1757 -0.1404
28593SOL    HW188032   6.912   4.046   9.643  0.4561 -0.3649  0.8434
28593SOL    HW288033   6.768   4.011   9.675  0.6501 -0.6579  1.4131
28594SOL     OW88034   5.155   3.049   4.795 -0.3503 -0.1090  0.4542
28594SOL    HW188035   5.108   3.079   4.717  1.2331  1.0413 -0.1173
28594SOL    HW288036   5.197   3.128   4.829  0.1484 -0.8618  1.6569
28595SOL     OW88037   9.828   5.183   2.347  0.4829  0.0795 -0.0130
28595SOL    HW188038   9.922   5.196   2.342  0.8377 -1.3107  2.0036
28595SOL    HW288039   9.797   5.250   2.408 -0.1135  1.5115 -1.8090
28596SOL     OW88040   7.368   8.003   3.570 -0.0873  0.1039  0.2380
28596SOL    HW188041   7.380   7.961   3.655 -1.4151 -1.2798 -0.2343
28596SOL    HW288042   7.452   8.047   3.554  1.6751 -2.8779  0.4786
28597SOL     OW88043   7.004   9.855   6.859 -0.7715  0.0002  0.2982
28597SOL    HW188044   6.951   9.882   6.934  1.1267  0.4973  1.5189
28597SOL    HW288045   7.020   9.937   6.811 -0.9680 -0.1234  0.0208
28598SOL     OW88046   1.873   0.207   6.586 -0.7307 -0.1192  0.1628
28598SOL    HW188047   1.823   0.172   6.512 -0.4703 -1.8456  0.7379
28598SOL    HW288048   1.947   0.253   6.546 -0.2275 -1.5796 -0.7031
28599SOL     OW88049   4.368   6.333   6.570 -0.2602 -0.0789 -0.4557
28599SOL    HW188050   4.397   6.248   6.537 -0.8371 -0.3298 -0.3267
28599SOL    HW288051   4.306   6.365   6.504  0.2754  0.4348 -0.7134
28600SOL     OW88052   1.292   3.806   0.582  0.6317 -0.1939 -0.4977
28600SOL    HW188053   1.358   3.873   0.562 -0.4248  0.5222 -1.7489
28600SOL    HW288054   1.210   3.854   0.585  0.2098 -0.9658  1.7496
28601SOL     OW88055   0.153   2.510   8.851 -0.4992 -0.1409 -0.1298
28601SOL    HW188056   0.217   2.484   8.917 -0.9890  2.0187  1.2979
28601SOL    HW288057   0.071   2.521   8.900 -1.0214  0.9289 -1.1889
28602SOL     OW88058   7.702   6.855   6.676  0.2047  0.1435 -0.1724
28602SOL    HW188059   7.739   6.919   6.615 -1.0538  1.4544  0.3669
28602SOL    HW288060   7.695   6.774   6.626 -0.2784  1.0344 -1.5941
28603SOL     OW88061   6.521   8.455   3.861 -0.3214  0.2298  0.3578
28603SOL    HW188062   6.560   8.381   3.907 -1.0897  1.1824  2.6953
28603SOL    HW288063   6.595   8.507   3.831  0.2026 -0.1695  0.9389
28604SOL     OW88064   9.525   3.138   2.341 -0.1794 -0.4385 -0.1797
28604SOL    HW188065   9.563   3.224   2.353 -0.9907  0.1592 -1.5988
28604SOL    HW288066   9.579   3.097   2.273 -1.2151 -0.0780 -1.2654
28605SOL     OW88067   1.673  10.006   7.624  0.2941  0.2419  0.1262
28605SOL    HW188068   1.711  10.061   7.555  1.0321  0.2181  0.4958
28605SOL    HW288069   1.736  10.012   7.696 -0.3415  0.0670  0.7051
28606SOL     OW88070   0.001   4.740   3.844 -0.5145  0.1135 -0.2952
28606SOL    HW188071   0.077   4.775   3.890 -0.3788 -0.0924 -0.3581
28606SOL    HW288072  -0.072   4.797   3.869 -0.3696  0.2159 -0.1102
28607SOL     OW88073   1.943   5.359  10.605  0.4595 -0.3589 -0.3855
28607SOL    HW188074   1.932   5.265  10.590  1.6493 -0.7576  0.9918
28607SOL    HW288075   1.857   5.389  10.633  0.1394 -1.1005 -0.5462
28608SOL     OW88076   3.900   5.621   6.142  0.4479 -0.1019  0.3102
28608SOL    HW188077   3.969   5.598   6.080  0.3092  0.6405 -0.1270
28608SOL    HW288078   3.945   5.663   6.215  0.4449  0.5706 -0.0697
28609SOL     OW88079  10.068   1.848   6.310  0.7230  0.0216 -0.8035
28609SOL    HW188080  10.096   1.801   6.388  0.9336 -0.5690 -1.2246
28609SOL    HW288081  10.143   1.904   6.288  0.8680 -0.1923 -0.8668
28610SOL     OW88082   1.986   4.553   9.720  0.2393  0.3081  0.5551
28610SOL    HW188083   2.014   4.469   9.754 -0.0793 -0.3510 -0.7617
28610SOL    HW288084   1.910   4.577   9.774 -0.7127 -1.0606 -0.1210
28611SOL     OW88085  10.319   2.024   2.777  0.1570 -0.2094  0.2847
28611SOL    HW188086  10.332   2.052   2.867  0.8884 -0.8986  0.4108
28611SOL    HW288087  10.402   2.045   2.733 -0.3443  0.5182 -0.3402
28612SOL     OW88088   3.301   7.971  10.475  0.0960 -0.1278 -0.6837
28612SOL    HW188089   3.294   7.977  10.380  0.3106 -0.6644 -0.7356
28612SOL    HW288090   3.243   7.899  10.499  1.0800 -0.8929 -0.5458
28613SOL     OW88091   9.856   0.056   9.337  0.3108  0.6229  0.1730
28613SOL    HW188092   9.942   0.082   9.303 -0.3345  1.8986 -0.5503
28613SOL    HW288093   9.807   0.029   9.260 -0.2506  0.8338  0.4529
28614SOL     OW88094  10.458   9.130   7.554  0.1643  0.4384 -0.3484
28614SOL    HW188095  10.479   9.218   7.585  3.0261 -0.6678  1.2450
28614SOL    HW288096  10.510   9.119   7.475 -2.1409  0.9516 -2.0522
28615SOL     OW88097   0.814   0.611   5.971  0.9705  0.3162  0.1215
28615SOL    HW188098   0.873   0.536   5.981  0.1224 -0.2619  0.8962
28615SOL    HW288099   0.728   0.578   5.997  0.8432  1.9485  2.0596
28616SOL     OW88100   1.418   3.132   2.504  0.1479  0.6002  0.2053
28616SOL    HW188101   1.398   3.209   2.451  1.7157  0.3180 -0.8443
28616SOL    HW288102   1.499   3.153   2.549 -0.1597  0.0943  1.0212
28617SOL     OW88103   8.038   6.582   1.999 -1.0177  0.1284 -0.1580
28617SOL    HW188104   8.128   6.576   1.968 -0.1236 -0.6184  2.3535
28617SOL    HW288105   8.012   6.672   1.980 -0.8007 -0.3785 -3.4036
28618SOL     OW88106   5.227   8.220   5.673 -0.6262  0.5257 -0.7012
28618SOL    HW188107   5.303   8.265   5.636 -0.8014  1.5337  0.1101
28618SOL    HW288108   5.191   8.282   5.737 -0.6664 -0.8841  0.7310
28619SOL     OW88109  10.092  10.128   8.983 -0.1824 -0.2549 -0.1173
28619SOL    HW188110  10.032  10.202   8.989 -2.2310 -1.5702 -2.3975
28619SOL    HW288111  10.155  10.153   8.916  0.3504  0.1554  0.5215
28620SOL     OW88112   9.751   0.961   1.806  0.0390 -0.2315  0.1946
28620SOL    HW188113   9.672   0.911   1.785  0.7122 -1.3104  0.1980
28620SOL    HW288114   9.736   0.994   1.895 -0.4096 -0.4155  0.1865
28621SOL     OW88115   9.000   7.686   8.485  0.0162 -0.1645  0.2381
28621SOL    HW188116   8.926   7.742   8.465  1.0623  0.0100 -4.4476
28621SOL    HW288117   8.970   7.598   8.463  1.1373 -0.0380 -2.1511
28622SOL     OW88118  10.020   0.562   2.925 -0.2872  0.3580  0.0723
28622SOL    HW188119  10.017   0.624   2.998  0.6626  0.0931  0.3536
28622SOL    HW288120  10.014   0.476   2.966  0.3793  0.2018 -0.1404
28623SOL     OW88121   8.080   5.147   0.320  0.0339 -0.0646 -0.2592
28623SOL    HW188122   8.160   5.096   0.334  0.8172  0.9239 -0.9984
28623SOL    HW288123   8.038   5.105   0.245  0.0298 -0.3898 -0.0759
28624SOL     OW88124   3.033   4.259   1.278  0.3740 -0.1812 -0.1004
28624SOL    HW188125   2.973   4.333   1.287 -0.5273 -0.5866 -2.2187
28624SOL    HW288126   2.995   4.205   1.209  1.8870 -1.7705  0.2298
28625SOL     OW88127   2.561   1.444   9.966 -0.0043  0.4925  0.1110
28625SOL    HW188128   2.487   1.425  10.025 -1.4238  1.2529 -1.3356
28625SOL    HW288129   2.578   1.537   9.979 -0.5797  0.7566 -0.8983
28626SOL     OW88130   9.995   8.513   4.939  0.1182  0.0142  0.3917
28626SOL    HW188131   9.975   8.419   4.937  2.0221 -0.4286 -0.6371
28626SOL    HW288132   9.938   8.551   4.872  1.5775 -0.9734 -1.5103
28627SOL     OW88133  10.317   5.366   8.156 -0.4604 -0.4376 -0.4500
28627SOL    HW188134  10.253   5.393   8.222  1.4344 -0.5486  1.5485
28627SOL    HW288135  10.265   5.354   8.076 -2.7499  0.4068  0.8020
28628SOL     OW88136   6.195   5.925   8.821  0.2667 -0.3420 -0.0525
28628SOL    HW188137   6.147   5.951   8.742  0.3229 -1.6372 -0.5457
28628SOL    HW288138   6.254   5.998   8.838 -0.8025  0.6178 -0.3201
28629SOL     OW88139  10.103   4.595   6.976 -0.0855  0.0089 -0.0716
28629SOL    HW188140  10.074   4.508   6.948  1.7462 -0.6760  0.0223
28629SOL    HW288141  10.159   4.626   6.905  0.8470  0.2433  0.7371
28630SOL     OW88142   0.638   8.242   5.570 -0.6000 -0.0459 -0.2927
28630SOL    HW188143   0.548   8.258   5.598 -0.1424  1.1080  0.5708
28630SOL    HW288144   0.685   8.221   5.650  0.0685  0.1647 -0.6222
28631SOL     OW88145   0.176  10.029   2.229 -0.5079  0.0085 -0.4552
28631SOL    HW188146   0.091  10.058   2.263  0.2911  0.7941  0.9586
28631SOL    HW288147   0.194   9.948   2.277  0.5745  1.0661  1.0238
28632SOL     OW88148   1.398  10.270   3.386 -0.2692  0.2993  0.0118
28632SOL    HW188149   1.320  10.216   3.380 -0.9855  1.0773  1.5908
28632SOL    HW288150   1.465  10.213   3.423 -0.3791 -0.0816 -0.3715
28633SOL     OW88151   3.733   8.990   7.288  0.3469  0.2440  0.8053
28633SOL    HW188152   3.772   9.073   7.262  0.9059 -0.0462  0.6964
28633SOL    HW288153   3.736   8.936   7.208  0.4397 -0.0444  1.0013
28634SOL     OW88154   6.413   6.893   6.563 -0.8069  0.4420  0.6787
28634SOL    HW188155   6.428   6.825   6.628 -0.3222  0.7180  0.8567
28634SOL    HW288156   6.321   6.883   6.539 -0.1996 -1.7568 -1.0115
28635SOL     OW88157   2.973   9.208   5.269  0.1864 -0.2261 -0.3406
28635SOL    HW188158   2.965   9.131   5.213  2.6054  0.8582 -2.3948
28635SOL    HW288159   2.899   9.263   5.244  0.1464 -0.6095 -1.1075
28636SOL     OW88160   0.088   4.959   8.987  0.2228 -0.0059 -0.0153
28636SOL    HW188161   0.176   4.997   8.980  0.3765 -0.1373  0.9961
28636SOL    HW288162   0.098   4.889   9.052 -0.8182  0.5701  0.7881
28637SOL     OW88163   6.713   4.448   4.005  0.1863 -0.2557  0.0101
28637SOL    HW188164   6.698   4.482   4.093  0.8350  0.5989 -0.2013
28637SOL    HW288165   6.789   4.391   4.014 -0.9979 -1.8546  0.3969
28638SOL     OW88166   1.917   9.326  10.003 -0.3881  0.4563  0.0617
28638SOL    HW188167   1.935   9.420  10.000  2.6365  0.0173  0.8848
28638SOL    HW288168   1.923   9.298   9.912  1.2999  0.7034  0.0675
28639SOL     OW88169   5.049   6.521   2.129 -0.4972  0.0493  0.2130
28639SOL    HW188170   4.983   6.459   2.096 -0.5583  0.3984 -0.3375
28639SOL    HW288171   5.000   6.580   2.185 -0.5913  0.0956  0.0835
28640SOL     OW88172   0.363   6.594   7.889 -0.3216 -0.5449  0.6477
28640SOL    HW188173   0.443   6.608   7.839 -0.7047 -1.5166 -0.2721
28640SOL    HW288174   0.297   6.647   7.845 -0.2046  0.3064  1.4432
28641SOL     OW88175   2.850   2.264   0.283  0.3475 -0.7357 -0.0162
28641SOL    HW188176   2.911   2.238   0.352 -1.4215 -2.6977  0.9143
28641SOL    HW288177   2.818   2.350   0.311  1.9697 -0.0762 -0.0784
28642SOL     OW88178   1.659   1.137   6.479  0.0785  0.9108 -0.3856
28642SOL    HW188179   1.736   1.160   6.531 -0.2856 -1.1552  1.2132
28642SOL    HW288180   1.596   1.207   6.498  0.3752  0.8195  1.0890
28643SOL     OW88181   3.318   7.112   5.898 -0.0980 -0.3567 -0.0289
28643SOL    HW188182   3.353   7.041   5.844  1.3922  0.4877 -0.2163
28643SOL    HW288183   3.355   7.097   5.985 -0.1948 -0.1097  0.0571
28644SOL     OW88184   7.516   2.338   8.682 -0.3898  0.3406 -0.0121
28644SOL    HW188185   7.438   2.334   8.626 -0.8181  1.8739  0.4287
28644SOL    HW288186   7.559   2.420   8.657  0.8387 -0.2453  0.0963
28645SOL     OW88187   6.951   9.335   8.137  0.4727  0.4070  0.6595
28645SOL    HW188188   6.968   9.377   8.222  1.3603 -1.3208  1.4049
28645SOL    HW288189   7.012   9.261   8.135 -0.1307 -0.0930 -1.1353
28646SOL     OW88190   4.150   8.537   6.652  0.3746 -0.7813 -0.0621
28646SOL    HW188191   4.095   8.576   6.585 -0.4238 -0.3543  0.8192
28646SOL    HW288192   4.097   8.466   6.689  0.1127  0.0660  1.2585
28647SOL     OW88193   8.995  10.119   3.064  0.0092  0.3274 -0.6439
28647SOL    HW188194   9.050  10.197   3.067 -0.5406  0.8023 -2.0773
28647SOL    HW288195   9.034  10.066   2.994 -0.8366  0.2763 -1.0807
28648SOL     OW88196   2.949   1.034   5.668  0.6045  0.2700 -0.1045
28648SOL    HW188197   2.871   1.051   5.615  0.2138  0.1645  0.4372
28648SOL    HW288198   2.915   1.005   5.752  1.2056  1.3142  0.5132
28649SOL     OW88199   2.163   5.734   9.122  1.0758 -0.0439 -0.1317
28649SOL    HW188200   2.170   5.679   9.200  0.3905  0.5494  0.3664
28649SOL    HW288201   2.070   5.755   9.116  1.0535 -0.3839 -1.3372
28650SOL     OW88202   2.377   9.732   1.630 -0.7179 -0.5063 -0.0015
28650SOL    HW188203   2.447   9.733   1.695  0.0881  1.5841 -0.8083
28650SOL    HW288204   2.319   9.804   1.657 -0.0718  0.7810 -1.8426
28651SOL     OW88205   0.986   6.939   5.198 -0.2287  0.0752  0.5053
28651SOL    HW188206   1.077   6.939   5.167 -0.2739 -0.8000  0.3472
28651SOL    HW288207   0.992   6.969   5.289  0.3898 -1.2617  0.9358
28652SOL     OW88208   9.470   1.203   2.143 -0.0836  0.4616 -0.0919
28652SOL    HW188209   9.386   1.217   2.099 -0.2813  2.1077  0.7138
28652SOL    HW288210   9.447   1.182   2.233  0.3591 -0.3738 -0.1645
28653SOL     OW88211   1.334   4.593   3.923 -0.0404 -0.1799  0.6460
28653SOL    HW188212   1.414   4.646   3.918  1.2338 -2.1109 -0.5444
28653SOL    HW288213   1.306   4.583   3.833 -0.4339 -1.2550  0.8748
28654SOL     OW88214   8.763   5.567   6.877  0.2582  0.0564  0.3372
28654SOL    HW188215   8.759   5.479   6.839 -0.0025  0.2777 -0.1573
28654SOL    HW288216   8.798   5.622   6.806 -1.7889  0.7954 -0.1695
28655SOL     OW88217   2.148   1.830  10.599 -0.5292  0.1706 -0.8370
28655SOL    HW188218   2.150   1.836  10.695  0.8402  1.6886 -0.9158
28655SOL    HW288219   2.218   1.769  10.577 -2.1099 -1.7422 -0.8442
28656SOL     OW88220   8.955   3.133   2.862  0.8559  0.0941 -0.3843
28656SOL    HW188221   8.953   3.222   2.899  0.0147  0.5543 -1.4907
28656SOL    HW288222   9.042   3.124   2.825  1.1263  0.2461  0.1932
28657SOL     OW88223   8.118   3.495   3.277 -0.1453  0.0299  0.3172
28657SOL    HW188224   8.173   3.511   3.201 -1.1693  0.9658 -0.2679
28657SOL    HW288225   8.090   3.582   3.305 -1.2465 -0.4041  0.6433
28658SOL     OW88226   1.346  10.066   2.740 -0.7747  0.0078 -0.0144
28658SOL    HW188227   1.435  10.031   2.740 -0.4598  0.6025 -2.6710
28658SOL    HW288228   1.352  10.147   2.790  0.1693  0.0368 -0.1606
28659SOL     OW88229   7.311   0.947   6.483  0.7895 -0.5310 -0.1068
28659SOL    HW188230   7.374   1.014   6.456  2.8745 -1.5504  1.8722
28659SOL    HW288231   7.327   0.874   6.424 -0.3047  0.0803 -1.1851
28660SOL     OW88232   8.801   0.459   1.549  0.0939  0.4976  0.0182
28660SOL    HW188233   8.801   0.368   1.577 -0.4761  0.5077  0.0671
28660SOL    HW288234   8.860   0.461   1.474  1.2108  0.3734  0.8738
28661SOL     OW88235   6.562   1.365   1.381 -0.2299 -0.5349 -0.6014
28661SOL    HW188236   6.604   1.445   1.350  0.7745 -0.9103 -0.2680
28661SOL    HW288237   6.544   1.382   1.474 -1.7160 -0.0230 -0.9636
28662SOL     OW88238   8.125   4.104   3.645  0.3303 -1.0268  0.8521
28662SOL    HW188239   8.059   4.042   3.676 -0.1083 -0.0824  1.8430
28662SOL    HW288240   8.170   4.134   3.724  0.8543 -0.4290  0.3456
28663SOL     OW88241   5.992   7.173   5.884 -0.5108  0.1813  0.0943
28663SOL    HW188242   6.022   7.247   5.832 -2.3331  1.1773  0.3917
28663SOL    HW288243   5.982   7.101   5.822  0.9854  0.2434 -0.2455
28664SOL     OW88244   1.248   5.287   4.270 -0.0549  0.1787  0.4410
28664SOL    HW188245   1.335   5.326   4.277  0.6224 -1.0396 -0.8106
28664SOL    HW288246   1.264   5.193   4.268 -1.3921 -0.0588  0.1207
28665SOL     OW88247  10.477   9.971   5.236 -0.1561 -0.1618  0.4079
28665SOL    HW188248  10.549  10.033   5.222 -1.6138  1.1190 -2.1640
28665SOL    HW288249  10.421  10.013   5.301  1.4872 -1.3581  2.7505
28666SOL     OW88250   5.360   2.900   6.900 -0.2234  0.0650  0.3022
28666SOL    HW188251   5.409   2.977   6.872  1.8391 -1.7569 -1.4781
28666SOL    HW288252   5.301   2.932   6.968  0.7370  3.1222 -0.1688
28667SOL     OW88253   5.104   7.359   7.978 -0.2587  0.3774 -0.1928
28667SOL    HW188254   5.072   7.435   8.026 -1.3476  0.3098 -0.7560
28667SOL    HW288255   5.032   7.338   7.918 -1.5030 -3.0781  2.1625
28668SOL     OW88256   4.651   4.433   6.911 -0.0821  0.3600 -1.0213
28668SOL    HW188257   4.743   4.417   6.892  0.1557  1.0912 -0.5227
28668SOL    HW288258   4.652   4.486   6.991 -1.0008 -1.8296  0.5435
28669SOL     OW88259   9.979   5.897   6.801  0.2705  0.3443 -0.0123
28669SOL    HW188260   9.995   5.805   6.780 -0.5828 -0.0875  1.1010
28669SOL    HW288261  10.026   5.911   6.883 -2.0733 -0.0165  1.4950
28670SOL     OW88262   2.622   4.610   2.782 -0.0038  0.0450  0.3429
28670SOL    HW188263   2.662   4.660   2.854 -0.6615  1.8760 -0.5006
28670SOL    HW288264   2.618   4.520   2.815  2.0370  0.3302  1.5984
28671SOL     OW88265   4.541  10.038   1.320 -0.3231 -0.3024  0.3250
28671SOL    HW188266   4.464  10.059   1.268 -1.3773 -1.6613  1.2369
28671SOL    HW288267   4.506   9.997   1.399  1.3527 -3.9020 -0.5600
28672SOL     OW88268   2.244   2.998   9.618 -0.3700  0.2009  0.3587
28672SOL    HW188269   2.265   2.953   9.536 -0.8690  0.0425  0.3195
28672SOL    HW288270   2.299   2.955   9.684  0.1238  0.4103  0.0885
28673SOL     OW88271   3.357   2.672   5.890 -0.8249 -0.5537  0.1072
28673SOL    HW188272   3.322   2.691   5.977  2.1835 -1.1033  1.5720
28673SOL    HW288273   3.414   2.747   5.870 -1.3403 -0.5159 -1.3315
28674SOL     OW88274  10.537   8.957   5.708 -0.2811 -0.4008  0.0322
28674SOL    HW188275  10.556   9.019   5.637 -0.3041 -2.0032 -1.4521
28674SOL    HW288276  10.445   8.974   5.731  0.1030  1.0036  0.6136
28675SOL     OW88277   6.074   7.866   1.217  0.0208  0.3647 -0.1305
28675SOL    HW188278   6.158   7.849   1.260  0.0463  0.0075 -0.3148
28675SOL    HW288279   6.025   7.784   1.227  0.1100  0.2016 -0.9602
28676SOL     OW88280   1.801   2.784   2.753 -0.1871 -0.1025 -0.0475
28676SOL    HW188281   1.808   2.702   2.703  0.2839  0.2311 -0.5390
28676SOL    HW288282   1.758   2.845   2.693  0.5670  0.3617 -0.1250
28677SOL     OW88283  10.161   1.048   7.617  0.0877  0.2422  0.1414
28677SOL    HW188284  10.232   1.073   7.558  0.3685 -1.0920 -0.1074
28677SOL    HW288285  10.101   1.123   7.614  0.9653  0.9530 -0.4407
28678SOL     OW88286   2.253   4.832   9.556  0.2959  0.3594 -0.9615
28678SOL    HW188287   2.262   4.739   9.539  0.8127  0.2958 -0.3724
28678SOL    HW288288   2.171   4.840   9.605  1.2531 -0.0436  0.7764
28679SOL     OW88289   0.757   1.787   6.684  0.4029  0.1557  0.2040
28679SOL    HW188290   0.674   1.804   6.728 -0.5022  1.5131 -1.8430
28679SOL    HW288291   0.801   1.872   6.683  1.4783 -0.3836  0.5760
28680SOL     OW88292   2.486   4.515   3.697 -0.0169 -0.9267  0.9843
28680SOL    HW188293   2.463   4.424   3.677  2.8793 -1.5268 -0.0959
28680SOL    HW288294   2.520   4.549   3.615  2.6173 -0.1507  2.3199
28681SOL     OW88295   0.051   6.356   4.869  0.2954 -0.6568 -0.1364
28681SOL    HW188296   0.088   6.301   4.800  1.5556 -1.0669  0.8310
28681SOL    HW288297  -0.001   6.422   4.822  2.7985  0.3832 -1.6622
28682SOL     OW88298   9.839   0.974   3.056  0.5024 -0.0912 -0.0414
28682SOL    HW188299   9.899   1.037   3.016 -0.7970  0.2772 -1.4969
28682SOL    HW288300   9.755   1.019   3.060  0.1258 -0.8330  1.3294
28683SOL     OW88301   7.722   1.209   2.350 -0.5389  0.3585  0.0371
28683SOL    HW188302   7.744   1.264   2.275 -1.8427  0.7981 -0.0560
28683SOL    HW288303   7.717   1.270   2.424 -1.2283  0.2561  0.0815
28684SOL     OW88304   8.199   2.030   1.285 -0.1850  0.5112 -0.2322
28684SOL    HW188305   8.144   2.093   1.331 -2.0274 -0.2317 -1.2719
28684SOL    HW288306   8.205   1.955   1.344  0.0916  0.7697  0.0685
28685SOL     OW88307   0.271   0.751   7.959  0.1566 -0.6751  0.5262
28685SOL    HW188308   0.365   0.737   7.969 -0.0498 -1.5196  1.3904
28685SOL    HW288309   0.238   0.760   8.049 -0.7941 -1.8731  0.3245
28686SOL     OW88310  10.146   9.957   1.199 -0.0078 -0.0598  0.5442
28686SOL    HW188311  10.186   9.976   1.284 -3.6590 -0.0813  2.4496
28686SOL    HW288312  10.083  10.028   1.185  1.3563  0.7138 -2.9271
28687SOL     OW88313   3.601   9.071  10.082  0.0206  0.0163 -0.1761
28687SOL    HW188314   3.560   9.135  10.140  0.0867 -0.5197  0.4821
28687SOL    HW288315   3.692   9.066  10.112  0.1081 -0.1130 -0.4615
28688SOL     OW88316   6.920   8.023   0.733 -0.6979  0.1656  0.5089
28688SOL    HW188317   6.926   8.016   0.828  0.0700 -0.2604  0.4407
28688SOL    HW288318   6.827   8.013   0.714 -1.2847  2.9591  1.3988
28689SOL     OW88319   4.927   3.783   8.139 -0.0011 -0.3661  0.1484
28689SOL    HW188320   4.949   3.692   8.123  3.4639 -0.1458  2.5755
28689SOL    HW288321   4.982   3.832   8.077 -0.2467  0.1128  0.3046
28690SOL     OW88322   9.697   7.393   5.355 -0.2628 -0.1352  0.0346
28690SOL    HW188323   9.770   7.393   5.418 -0.3435 -0.2844  0.1288
28690SOL    HW288324   9.737   7.363   5.273  0.1288  1.2859 -0.3283
28691SOL     OW88325   4.194  10.299   6.438 -0.4361  0.0923 -0.0956
28691SOL    HW188326   4.198  10.206   6.458  0.8835 -0.0383 -0.8479
28691SOL    HW288327   4.216  10.305   6.345 -0.0479  1.2008  0.0479
28692SOL     OW88328   3.786   7.254   5.014  0.0639 -0.0699  0.0044
28692SOL    HW188329   3.823   7.206   4.941 -0.1957 -0.2197 -0.0299
28692SOL    HW288330   3.862   7.283   5.065  0.2063 -1.6263  0.7463
28693SOL     OW88331   1.350   9.294   8.818  0.3315 -1.4105  0.6510
28693SOL    HW188332   1.328   9.378   8.859  0.6341 -0.7028 -0.6052
28693SOL    HW288333   1.385   9.242   8.890  2.2997  0.3407  1.0616
28694SOL     OW88334   2.538   4.211   3.152  0.7840 -0.3766 -0.4521
28694SOL    HW188335   2.570   4.211   3.062  1.0246  0.1311 -0.3664
28694SOL    HW288336   2.454   4.165   3.147  1.2710 -1.2691 -0.7598
28695SOL     OW88337   7.482   2.346   2.963  0.6083 -1.1231 -0.0801
28695SOL    HW188338   7.566   2.343   2.917  0.7070 -0.6710  0.0715
28695SOL    HW288339   7.445   2.431   2.940  0.8102 -0.7452  0.9361
28696SOL     OW88340   7.043   4.131  10.599 -0.2553  0.0105  0.3345
28696SOL    HW188341   7.071   4.045  10.629  1.0202  0.6220  0.9721
28696SOL    HW288342   7.083   4.192  10.660  1.6343  1.2571 -1.9555
28697SOL     OW88343   9.402   4.030   4.354 -0.4397 -0.6469  0.6582
28697SOL    HW188344   9.323   3.986   4.322 -1.2376 -0.4700  2.2840
28697SOL    HW288345   9.466   4.018   4.284 -1.5756 -1.7301 -0.2396
28698SOL     OW88346   0.931  10.080   4.221 -0.4184 -0.2063 -0.0582
28698SOL    HW188347   0.983  10.075   4.140  0.9937  1.0120  0.7286
28698SOL    HW288348   0.962  10.007   4.274  2.0416  1.5899  1.2045
28699SOL     OW88349   3.886   9.973   0.627 -0.0888  0.7346 -0.0348
28699SOL    HW188350   3.851   9.899   0.677 -0.2917  0.1904 -0.9748
28699SOL    HW288351   3.826  10.045   0.646 -0.4280  0.4096  0.1398
28700SOL     OW88352   4.636   9.401   7.665 -0.0615 -0.2405  0.7937
28700SOL    HW188353   4.634   9.480   7.721  0.1259 -0.3344  0.9327
28700SOL    HW288354   4.726   9.369   7.672  0.0376 -0.0985  0.2177
28701SOL     OW88355   1.760   6.280   8.555  0.2750  0.2162 -0.3920
28701SOL    HW188356   1.730   6.192   8.533 -0.7925 -0.2762  2.5370
28701SOL    HW288357   1.685   6.336   8.536  0.0875  0.1073  0.0165
28702SOL     OW88358   3.807   8.332   2.271  0.2350 -0.5644 -0.2847
28702SOL    HW188359   3.894   8.340   2.233  0.7522 -1.2931  0.7202
28702SOL    HW288360   3.808   8.249   2.317 -0.5282  0.0624  0.9148
28703SOL     OW88361   7.500   3.581   0.774 -0.0038 -0.6601 -0.5461
28703SOL    HW188362   7.548   3.500   0.790 -0.1082 -0.5648  0.3179
28703SOL    HW288363   7.435   3.557   0.707  1.9861 -0.4806 -2.6738
28704SOL     OW88364   1.243   4.977   2.678 -0.3773 -0.5813  0.9164
28704SOL    HW188365   1.293   5.023   2.745 -0.0669  0.9651 -0.3256
28704SOL    HW288366   1.307   4.923   2.632 -0.1940 -0.0487  0.5402
28705SOL     OW88367   8.533   4.025   7.945 -0.8939 -0.1097 -0.1999
28705SOL    HW188368   8.505   4.090   7.880  0.9777  0.8452 -0.1171
28705SOL    HW288369   8.514   4.067   8.029 -2.0490 -0.7823 -0.0938
28706SOL     OW88370  10.483   1.989   7.624 -0.2816 -0.7147  0.2987
28706SOL    HW188371  10.497   2.024   7.712 -0.5850 -0.0499  0.0900
28706SOL    HW288372  10.456   1.899   7.638 -1.6015 -0.2441  0.9603
28707SOL     OW88373   0.268   9.744   7.842  0.5129  0.6610  0.0943
28707SOL    HW188374   0.247   9.651   7.837  0.4905  0.6240  0.7773
28707SOL    HW288375   0.359   9.750   7.811  0.5748  0.3851  0.2188
28708SOL     OW88376   5.511   5.018   4.447  0.2275  0.4222 -0.5296
28708SOL    HW188377   5.590   4.983   4.488 -1.2687 -1.4547  0.9926
28708SOL    HW288378   5.512   4.985   4.358  0.9450  0.0523 -0.3865
28709SOL     OW88379   4.818   3.478   8.298  0.3705 -0.2688  0.7252
28709SOL    HW188380   4.790   3.550   8.355  0.5968  1.0771 -0.8062
28709SOL    HW288381   4.739   3.424   8.289 -0.2523  0.6192  0.6811
28710SOL     OW88382   9.896   7.183   3.242 -0.2590  0.4762  0.0860
28710SOL    HW188383   9.871   7.134   3.163 -0.4291 -0.5164  0.7305
28710SOL    HW288384   9.813   7.206   3.283 -0.1822 -0.7491  0.9897
28711SOL     OW88385   5.135   2.651   3.469  0.0012 -0.3916  0.7621
28711SOL    HW188386   5.068   2.719   3.465 -0.0552 -0.2208  3.2354
28711SOL    HW288387   5.103   2.582   3.411  0.9920  2.3042 -3.4230
28712SOL     OW88388   3.094   7.127   9.288  0.1935 -0.4939  0.0878
28712SOL    HW188389   3.053   7.122   9.374  0.0409  0.0146  0.0472
28712SOL    HW288390   3.188   7.122   9.306  0.1202 -2.0143  0.1528
28713SOL     OW88391   8.184   3.017   3.770  0.3004 -0.3671 -0.3559
28713SOL    HW188392   8.176   3.018   3.674  2.7793  0.8685 -0.6577
28713SOL    HW288393   8.129   3.089   3.799 -0.2215 -0.5442 -0.8760
28714SOL     OW88394  10.112  10.145   0.104 -0.8540 -0.0874  0.4659
28714SOL    HW188395  10.099  10.087   0.028  0.4264  0.1276  0.0577
28714SOL    HW288396  10.109  10.233   0.067 -0.0173  0.0120  0.6308
28715SOL     OW88397   9.948   0.789   4.225 -0.1157  0.2226  0.1864
28715SOL    HW188398   9.884   0.830   4.167  1.3904  2.4487 -0.0328
28715SOL    HW288399   9.955   0.849   4.300  1.9124  0.2454  0.0414
28716SOL     OW88400   0.832   1.811   3.443  0.5401  0.7829 -0.1320
28716SOL    HW188401   0.746   1.852   3.456 -0.8093 -1.0367 -2.4268
28716SOL    HW288402   0.892   1.862   3.497 -1.7514  2.9649  0.5292
28717SOL     OW88403   2.021   5.621   6.623 -0.0459  0.4701  0.3617
28717SOL    HW188404   1.953   5.575   6.573  0.1592  0.1310  0.3890
28717SOL    HW288405   2.095   5.625   6.563  0.2434 -0.0468  0.6765
28718SOL     OW88406   7.849   6.645   9.190 -0.2271 -0.5253 -0.0863
28718SOL    HW188407   7.851   6.719   9.129 -0.0729 -1.3450 -1.0988
28718SOL    HW288408   7.756   6.627   9.201 -0.3081  0.3457  0.8489
28719SOL     OW88409   4.570   2.041   8.720  0.5430 -0.3902 -0.9965
28719SOL    HW188410   4.548   1.976   8.787 -0.0455  0.9507  0.1805
28719SOL    HW288411   4.541   2.002   8.638  0.0195 -1.5305 -0.2995
28720SOL     OW88412   3.530   4.940   8.896  1.1927 -0.0348 -0.6375
28720SOL    HW188413   3.504   4.856   8.934  2.0710 -0.3582 -0.7254
28720SOL    HW288414   3.509   4.931   8.803  0.6914  0.0944 -0.5438
28721SOL     OW88415   8.766   3.194   1.710  0.2824 -0.0121 -0.1789
28721SOL    HW188416   8.791   3.285   1.720 -0.8687  0.1145  2.3540
28721SOL    HW288417   8.814   3.148   1.779  0.2846 -1.1892 -0.9402
28722SOL     OW88418   6.380  10.346   1.209  0.0758 -0.2769 -0.4906
28722SOL    HW188419   6.328  10.401   1.151 -2.7301 -0.9773  1.1684
28722SOL    HW288420   6.427  10.286   1.150 -1.8334 -0.2939 -2.0955
28723SOL     OW88421   6.381   3.305   7.032  0.2664  0.2567 -0.5097
28723SOL    HW188422   6.414   3.215   7.035 -0.3986  0.0021 -0.5293
28723SOL    HW288423   6.403   3.337   6.944 -0.2964 -0.2121 -0.8312
28724SOL     OW88424   3.620   9.977   3.925  0.2056  0.5620 -0.1679
28724SOL    HW188425   3.673  10.057   3.935 -2.0792  2.1335  0.1149
28724SOL    HW288426   3.599   9.974   3.832 -0.8516  1.1239  0.0305
28725SOL     OW88427   5.410   9.023   5.390  0.0441  0.1703  0.0540
28725SOL    HW188428   5.422   9.118   5.403  1.9915  0.2779 -2.0039
28725SOL    HW288429   5.498   8.987   5.398 -0.3550 -1.1647 -1.3031
28726SOL     OW88430   3.921   2.168   6.986  0.0622 -0.4114 -0.5426
28726SOL    HW188431   3.833   2.153   6.952 -0.4844  1.1443  0.0862
28726SOL    HW288432   3.963   2.222   6.919 -0.5614  1.5182  0.5688
28727SOL     OW88433   4.389   2.315   2.377 -0.5613 -0.1017 -0.0849
28727SOL    HW188434   4.446   2.322   2.453 -2.7543 -0.3581  1.7059
28727SOL    HW288435   4.368   2.222   2.372 -0.6441 -0.0485 -0.8635
28728SOL     OW88436   1.677   0.122   1.155 -0.6002  0.0024  0.3139
28728SOL    HW188437   1.768   0.094   1.161 -0.5037  0.5474  2.1557
28728SOL    HW288438   1.678   0.214   1.179 -1.7493 -0.3022  1.7413
28729SOL     OW88439   3.907   7.209   1.446 -0.2927  0.5490  0.2351
28729SOL    HW188440   3.940   7.298   1.454  1.2787 -0.0765  1.2711
28729SOL    HW288441   3.884   7.183   1.535 -0.7704 -0.0686 -0.0564
28730SOL     OW88442   5.507  10.287   3.528 -0.0109  0.4155  0.3293
28730SOL    HW188443   5.517  10.195   3.502 -2.1098  0.0346  0.7052
28730SOL    HW288444   5.590  10.328   3.502  0.0501 -1.0321 -2.1539
28731SOL     OW88445   8.368   2.587   9.722 -0.2713  0.5723 -0.1833
28731SOL    HW188446   8.322   2.650   9.778 -2.3024 -0.3329 -0.7639
28731SOL    HW288447   8.326   2.503   9.741  1.0758 -0.2780 -0.8552
28732SOL     OW88448   5.713   1.090   7.354  0.0533  0.0717  0.0997
28732SOL    HW188449   5.735   1.042   7.433 -1.4815  1.1433  1.2165
28732SOL    HW288450   5.790   1.145   7.337  0.2392  0.1232  1.0745
28733SOL     OW88451   0.604   7.637   0.052  0.1576 -0.4736 -0.0288
28733SOL    HW188452   0.619   7.560   0.107  0.9350  0.7230  1.4924
28733SOL    HW288453   0.571   7.704   0.112  2.0728  1.2247 -0.7442
28734SOL     OW88454   3.544   9.195   9.555 -0.1124  0.0857  0.5209
28734SOL    HW188455   3.563   9.229   9.642 -0.2538  0.6710  0.3240
28734SOL    HW288456   3.570   9.103   9.559  0.6919  0.3267  0.9137
28735SOL     OW88457   5.358   0.308   6.373 -0.0832  0.3509 -0.1076
28735SOL    HW188458   5.415   0.277   6.444  2.0073 -1.1600 -2.2815
28735SOL    HW288459   5.290   0.241   6.365 -0.6427  0.7943  0.7558
28736SOL     OW88460   5.337   6.247   4.360 -0.0082  0.0585  0.3245
28736SOL    HW188461   5.324   6.250   4.265 -0.3091 -1.2243  0.3038
28736SOL    HW288462   5.413   6.302   4.376 -0.9015  1.5986 -0.4681
28737SOL     OW88463   8.258   6.383   0.798 -0.2316 -0.5347  0.3207
28737SOL    HW188464   8.211   6.463   0.822  1.6361  1.1334 -1.1839
28737SOL    HW288465   8.321   6.371   0.868 -1.3439 -1.4723  1.1943
28738SOL     OW88466   8.442   7.522   5.838  0.4738  0.5696 -0.3055
28738SOL    HW188467   8.414   7.467   5.765 -1.2118  0.4492  0.3887
28738SOL    HW288468   8.391   7.602   5.828  1.4783  1.2361 -0.2009
28739SOL     OW88469   4.407   0.916   5.274  0.0836  0.5215 -0.6145
28739SOL    HW188470   4.366   0.861   5.207 -1.3372 -2.5893  2.5266
28739SOL    HW288471   4.501   0.899   5.263 -0.2457 -1.8000 -0.4483
28740SOL     OW88472   4.819   5.434   7.048 -0.1440  0.0974  0.0272
28740SOL    HW188473   4.767   5.451   6.969 -1.2098 -0.9365  0.4697
28740SOL    HW288474   4.903   5.403   7.015 -0.6050 -0.4056 -0.7265
28741SOL     OW88475  10.137   4.387   7.424 -0.2295 -0.2947 -0.1549
28741SOL    HW188476  10.231   4.368   7.424 -0.1573  0.0387  0.4472
28741SOL    HW288477  10.127   4.462   7.365 -0.3759 -1.5038 -1.7050
28742SOL     OW88478   1.726   1.650   1.467 -0.5925 -0.3374  0.6218
28742SOL    HW188479   1.731   1.597   1.388  1.3945  0.1718  0.3435
28742SOL    HW288480   1.760   1.594   1.536 -0.0784  0.0008  0.6482
28743SOL     OW88481   0.347   6.123   2.263 -0.2394  0.3385  0.3959
28743SOL    HW188482   0.421   6.074   2.301 -0.8015 -0.7705  0.0956
28743SOL    HW288483   0.270   6.075   2.291 -0.7850  0.7475 -0.3772
28744SOL     OW88484   7.228   8.205   8.213  0.4647  0.1254  0.6991
28744SOL    HW188485   7.277   8.137   8.258  1.6599  0.4028 -0.1194
28744SOL    HW288486   7.252   8.286   8.257  0.3871  0.2097  0.5894
28745SOL     OW88487   0.662   0.698   3.584 -0.2009 -0.3938 -0.3798
28745SOL    HW188488   0.751   0.663   3.576 -0.3194 -0.6217 -0.7434
28745SOL    HW288489   0.673   0.793   3.577  0.2916 -0.2083  2.0728
28746SOL     OW88490   3.279   6.342   6.130 -0.1889 -0.0857  0.3328
28746SOL    HW188491   3.260   6.251   6.105 -2.4420 -0.0442  1.6440
28746SOL    HW288492   3.239   6.352   6.216 -1.8003  2.7305 -0.6118
28747SOL     OW88493  10.257   9.045   4.414  0.0957 -0.3980  0.3188
28747SOL    HW188494  10.235   8.952   4.401 -0.0936 -0.4497  0.9478
28747SOL    HW288495  10.211   9.069   4.495  2.0375 -0.4096  1.5103
28748SOL     OW88496   9.920   1.183   6.934 -0.0158  0.2393 -0.2804
28748SOL    HW188497   9.918   1.219   6.845 -0.4853  0.5405 -0.1491
28748SOL    HW288498   9.989   1.116   6.931  1.1750  1.4246 -0.4166
28749SOL     OW88499   3.044   6.648   0.461  0.1524 -0.7300  0.0573
28749SOL    HW188500   3.084   6.637   0.546  1.4600 -1.4454 -0.6265
28749SOL    HW288501   3.094   6.592   0.402 -1.6302 -1.4077 -0.9207
28750SOL     OW88502   1.860   6.342   9.964  0.0620 -0.5596 -0.1731
28750SOL    HW188503   1.850   6.326  10.058 -0.3301  2.1817  0.3170
28750SOL    HW288504   1.951   6.318   9.946  0.6667  0.4774  1.3056
28751SOL     OW88505   9.950   4.459   4.819  0.0580  0.9499  0.0239
28751SOL    HW188506   9.900   4.463   4.738  0.4820 -0.2135 -0.3126
28751SOL    HW288507  10.026   4.404   4.798  0.0814  0.4711  1.2554
28752SOL     OW88508   1.515   0.478   3.316 -0.2793  0.3120 -0.3004
28752SOL    HW188509   1.535   0.504   3.406  1.6791  2.4263 -1.2684
28752SOL    HW288510   1.543   0.386   3.311  2.5779  1.0507  0.4504
28753SOL     OW88511   6.252   2.744  10.288 -0.4752 -0.2031 -0.0575
28753SOL    HW188512   6.323   2.772  10.346 -0.7819  1.1567 -0.3124
28753SOL    HW288513   6.290   2.672  10.237  0.9948  1.0174 -0.7551
28754SOL     OW88514   7.912   6.833   8.334 -0.4602 -0.5386 -0.1917
28754SOL    HW188515   7.830   6.882   8.339  0.1081  0.3894  0.2032
28754SOL    HW288516   7.904   6.766   8.402 -1.2205 -0.9873 -0.7064
28755SOL     OW88517   3.231   1.935   1.614  0.3818  0.1954  0.6227
28755SOL    HW188518   3.322   1.964   1.609  0.1800  0.6994 -0.4475
28755SOL    HW288519   3.182   2.000   1.565 -0.5101 -0.2882  0.8447
28756SOL     OW88520   8.958   9.923   4.857  0.3965 -0.1031  0.2945
28756SOL    HW188521   9.017   9.851   4.877 -0.4323 -0.5898  1.0748
28756SOL    HW288522   8.948   9.969   4.940  1.4870  1.3788 -0.3479
28757SOL     OW88523   3.875  10.049   7.977  0.1159  0.3540  0.1713
28757SOL    HW188524   3.790  10.037   8.019  0.1464  0.1789  0.1850
28757SOL    HW288525   3.928  10.096   8.041  0.1201  0.2064  0.2752
28758SOL     OW88526   8.151   4.027   1.828 -0.2205  0.2508  0.4029
28758SOL    HW188527   8.140   3.935   1.851  2.8455 -0.2627  0.2995
28758SOL    HW288528   8.150   4.029   1.733 -0.5461  0.3680  0.4084
28759SOL     OW88529   9.007   4.060   4.334  0.3315  0.1961 -0.1745
28759SOL    HW188530   9.071   4.026   4.396  0.7514  0.1019 -0.6466
28759SOL    HW288531   8.979   3.983   4.285  0.7733  0.4163 -0.7867
28760SOL     OW88532   5.987   3.581  10.652  0.3887 -0.0081  0.5742
28760SOL    HW188533   6.029   3.603  10.569 -2.8049 -1.5490 -1.6827
28760SOL    HW288534   6.046   3.518  10.693  1.3394 -0.4121 -1.3096
28761SOL     OW88535  10.614   2.560   3.866  0.0191  0.2218  0.3130
28761SOL    HW188536  10.565   2.551   3.948 -0.5386 -1.6143 -0.1682
28761SOL    HW288537  10.700   2.591   3.893 -0.7073  1.3522  1.4005
28762SOL     OW88538   5.554   0.118   3.300  0.8844 -0.2952 -0.2786
28762SOL    HW188539   5.613   0.185   3.265  0.9382  0.2004  0.7231
28762SOL    HW288540   5.606   0.037   3.297  1.3036 -0.0299 -0.2250
28763SOL     OW88541   2.821   1.468   9.634  0.0511 -0.2983 -0.3513
28763SOL    HW188542   2.875   1.531   9.681  0.5501 -1.6910  1.0262
28763SOL    HW288543   2.793   1.406   9.701 -2.7250 -0.0231 -1.1451
28764SOL     OW88544   0.172   2.631  10.120  0.1561 -0.2396 -0.5406
28764SOL    HW188545   0.110   2.569  10.081  0.0331 -0.9285  0.6913
28764SOL    HW288546   0.231   2.575  10.171  0.5327  0.6025 -0.0489
28765SOL     OW88547   2.905   2.653   6.678 -0.3063 -0.2319 -0.1391
28765SOL    HW188548   2.867   2.632   6.592  1.0362 -0.5414 -0.6847
28765SOL    HW288549   2.875   2.583   6.735  0.6086 -1.2931 -0.9139
28766SOL     OW88550   3.178   3.687   9.879 -0.1970 -0.1078 -0.2277
28766SOL    HW188551   3.100   3.678   9.935 -0.0752 -2.2894 -0.3117
28766SOL    HW288552   3.238   3.619   9.910  1.5283  1.2518 -0.4509
28767SOL     OW88553   2.872   2.328  10.495 -0.7618  0.0939  0.4959
28767SOL    HW188554   2.829   2.288  10.570  0.1465  1.1690  1.6329
28767SOL    HW288555   2.836   2.416  10.491 -1.7359 -0.3464 -1.1330
28768SOL     OW88556   7.728   3.082   5.577 -0.1472 -0.4491  0.0685
28768SOL    HW188557   7.768   3.154   5.527  0.2351 -1.3037 -0.8940
28768SOL    HW288558   7.792   3.062   5.645  0.5288 -0.9920 -0.7064
28769SOL     OW88559   8.448   0.814   2.483  0.1336  0.2536 -0.0626
28769SOL    HW188560   8.542   0.799   2.475  0.1402  1.2342 -2.4391
28769SOL    HW288561   8.437   0.908   2.471 -1.2586 -0.0369 -1.4139
28770SOL     OW88562   7.136   4.996  10.174  0.4312 -0.3949  0.8654
28770SOL    HW188563   7.201   5.059  10.143 -0.9909  0.1970 -1.0728
28770SOL    HW288564   7.114   4.944  10.097  0.0386 -1.9047  1.9600
28771SOL     OW88565  10.072   6.120   9.829 -0.3913 -0.1403 -0.2735
28771SOL    HW188566  10.042   6.031   9.809  1.5344 -0.8260 -0.2933
28771SOL    HW288567  10.104   6.154   9.746 -1.1655  0.6067 -0.2747
28772SOL     OW88568   8.877   2.000   3.251 -0.0806  0.0034  0.1980
28772SOL    HW188569   8.861   2.057   3.326  0.5286  0.3145  0.0980
28772SOL    HW288570   8.920   2.057   3.187 -0.7132 -0.2189 -0.4436
28773SOL     OW88571   9.196   0.541   7.982  0.1090 -0.1970 -0.5138
28773SOL    HW188572   9.188   0.597   7.905 -1.0580  1.0786  0.4910
28773SOL    HW288573   9.112   0.496   7.988  0.3677 -0.6490 -0.2677
28774SOL     OW88574   6.717   7.184   7.866 -0.2655 -0.5640  0.7805
28774SOL    HW188575   6.661   7.109   7.844 -0.8902  0.5850 -2.0042
28774SOL    HW288576   6.785   7.183   7.799 -1.4481  2.4406 -0.6523
28775SOL     OW88577   1.243   0.623   6.634  0.4000 -0.3299 -0.1541
28775SOL    HW188578   1.217   0.549   6.579 -0.4990  0.2608 -0.5507
28775SOL    HW288579   1.169   0.635   6.694  0.7017  0.0064  0.1570
28776SOL     OW88580   9.458   8.423   4.841  0.0051 -0.9438 -0.3863
28776SOL    HW188581   9.524   8.492   4.845  0.7002 -1.5513 -1.1571
28776SOL    HW288582   9.375   8.469   4.856  0.3744  0.1701 -1.5493
28777SOL     OW88583  10.648   9.585   5.994  0.0837 -0.0607  0.4011
28777SOL    HW188584  10.608   9.588   5.907  0.6514 -0.5644  0.1135
28777SOL    HW288585  10.594   9.642   6.047  0.5663  1.4057 -0.6272
28778SOL     OW88586   8.456   5.688   5.064 -0.2998  0.0938 -0.3476
28778SOL    HW188587   8.424   5.763   5.015  0.0973  0.2310 -0.3969
28778SOL    HW288588   8.453   5.615   5.001 -0.6504  0.0736 -0.3091
28779SOL     OW88589   6.623   8.604  10.020  0.4371 -0.6180 -0.0064
28779SOL    HW188590   6.538   8.561  10.016  0.0549  0.0726  0.5916
28779SOL    HW288591   6.633   8.631  10.111 -0.4890  2.7914 -0.7452
28780SOL     OW88592   3.265   4.629   0.928  0.5249 -0.4337  0.1023
28780SOL    HW188593   3.337   4.576   0.963  1.4322  0.4044 -0.4783
28780SOL    HW288594   3.294   4.719   0.937 -1.3144  0.0693  1.7692
28781SOL     OW88595   0.574   7.547   4.547  0.0133 -0.9189  0.4816
28781SOL    HW188596   0.585   7.621   4.487  0.6578 -0.7724  0.7665
28781SOL    HW288597   0.480   7.542   4.563 -0.0812 -0.4682  0.0758
28782SOL     OW88598   3.015   8.201   3.208  0.2204 -0.4544 -0.3116
28782SOL    HW188599   3.042   8.174   3.120  0.8026 -1.7406  0.2327
28782SOL    HW288600   3.068   8.147   3.266 -0.4578  0.0879  0.8280
28783SOL     OW88601   0.160   6.555  10.357  0.0513 -0.1217  0.3548
28783SOL    HW188602   0.091   6.572  10.421  0.6658  0.8661  0.7856
28783SOL    HW288603   0.223   6.626  10.370 -0.0174  0.3851 -1.6548
28784SOL     OW88604   9.726   5.012   0.384  0.1097 -0.2362 -0.1275
28784SOL    HW188605   9.639   4.992   0.352  0.0298  0.4967 -0.3678
28784SOL    HW288606   9.756   5.086   0.331  1.7536 -1.8325 -1.5491
28785SOL     OW88607   6.626  10.144   2.752 -0.8084  0.3465  0.4775
28785SOL    HW188608   6.586  10.182   2.830  0.2196  1.3943  0.5283
28785SOL    HW288609   6.694  10.207   2.727 -0.3314 -0.5490 -0.5746
28786SOL     OW88610   0.446   5.589   3.119  0.1379 -0.1954  0.2793
28786SOL    HW188611   0.376   5.554   3.063  0.2939  0.7306 -0.5240
28786SOL    HW288612   0.524   5.586   3.064  0.9818 -2.0628  1.4641
28787SOL     OW88613   6.586   2.597   7.165 -0.6733  0.0034  0.2762
28787SOL    HW188614   6.569   2.508   7.133  0.7216 -0.0162 -0.4905
28787SOL    HW288615   6.555   2.596   7.256 -3.5653 -0.3203 -0.6143
28788SOL     OW88616  10.587   8.776   8.473  0.5798  0.3439  0.0956
28788SOL    HW188617  10.609   8.781   8.380 -2.8819 -1.7057 -1.0251
28788SOL    HW288618  10.535   8.855   8.490  0.6001  0.3599  0.0827
28789SOL     OW88619   2.554   7.083   2.082  0.3649  0.0730 -0.4444
28789SOL    HW188620   2.584   7.132   2.158 -0.4435 -1.3296  0.8089
28789SOL    HW288621   2.571   7.142   2.008  1.9430  1.1308  0.6968
28790SOL     OW88622   3.063   6.919   0.039 -0.7703  0.2919 -0.2410
28790SOL    HW188623   3.100   6.833   0.057 -0.5031  0.4101 -0.2321
28790SOL    HW288624   3.109   6.979   0.097  0.1629  0.6923 -1.3601
28791SOL     OW88625   6.433   3.456   9.363  0.1251  0.1969  0.1698
28791SOL    HW188626   6.517   3.424   9.395  0.8671  1.3422 -0.5129
28791SOL    HW288627   6.383   3.377   9.342  1.2489 -0.5125  0.0673
28792SOL     OW88628   7.513   6.998   9.591  0.1127 -0.2377 -0.0416
28792SOL    HW188629   7.418   7.006   9.588  0.1931  0.4825 -1.4236
28792SOL    HW288630   7.544   7.085   9.618  0.4512  0.1701 -1.6754
28793SOL     OW88631   9.065   1.791   3.978  0.3425 -0.1228  0.4351
28793SOL    HW188632   9.032   1.880   3.965  2.3148  0.9862  2.3496
28793SOL    HW288633   9.082   1.759   3.889 -1.5328  0.8888 -0.3597
28794SOL     OW88634   4.435   9.706   8.338  0.1547 -0.4044 -0.0921
28794SOL    HW188635   4.462   9.701   8.247  1.2267  1.5537  0.0685
28794SOL    HW288636   4.346   9.742   8.336  0.1582 -0.4140 -0.3643
28795SOL     OW88637   4.227   5.883   3.249  1.0521  0.2261 -0.1656
28795SOL    HW188638   4.277   5.900   3.329  1.7659  0.4532 -0.6549
28795SOL    HW288639   4.151   5.833   3.279  1.2129  0.4654  0.6819
28796SOL     OW88640   5.254   7.019   5.582 -0.3902 -0.2161  0.4316
28796SOL    HW188641   5.179   7.075   5.561  1.3005  2.3574  0.9655
28796SOL    HW288642   5.230   6.979   5.665 -0.5347  1.8932  1.4619
28797SOL     OW88643  10.184   7.128   7.328 -0.2140  0.0249 -0.2469
28797SOL    HW188644  10.255   7.188   7.350  0.2612 -0.6006 -0.0567
28797SOL    HW288645  10.213   7.084   7.248  0.5090 -1.6577  0.9112
28798SOL     OW88646   6.134   2.378   1.023  0.0310 -1.1212  0.1949
28798SOL    HW188647   6.136   2.318   1.097  2.1292 -1.0800  0.2148
28798SOL    HW288648   6.121   2.465   1.062  1.2920 -1.0803  0.5477
28799SOL     OW88649   0.513   6.688   3.281  0.4585 -0.1682 -0.0974
28799SOL    HW188650   0.471   6.624   3.223 -1.1417  0.9003 -0.1717
28799SOL    HW288651   0.522   6.642   3.364 -0.6012 -0.5162 -0.1664
28800SOL     OW88652   4.364   3.469   0.806  0.0790 -0.0785 -0.6394
28800SOL    HW188653   4.443   3.434   0.847  0.1933 -0.8272 -1.4814
28800SOL    HW288654   4.292   3.427   0.853  0.1510  0.8749  0.3706
28801SOL     OW88655   8.063  10.628   4.978 -0.2024  0.8187 -0.0002
28801SOL    HW188656   7.994  10.602   4.917 -0.0272  0.5812 -0.0948
28801SOL    HW288657   8.143  10.627   4.925  0.7775 -3.7361  1.1777
28802SOL     OW88658   6.772   9.236  10.177  0.4551 -0.0143 -0.3494
28802SOL    HW188659   6.714   9.272  10.243 -0.0735  1.1226 -1.3905
28802SOL    HW288660   6.728   9.157  10.147  0.0097  0.2123 -0.3090
28803SOL     OW88661   5.693   2.052   1.493 -0.1874 -0.1252 -0.1033
28803SOL    HW188662   5.606   2.088   1.480 -0.1000 -0.7323 -3.0488
28803SOL    HW288663   5.683   1.992   1.567 -1.6056  1.6838  1.2670
28804SOL     OW88664   9.795   9.738   9.589  0.2827  0.8852  0.1406
28804SOL    HW188665   9.703   9.713   9.586  0.7579 -1.0083 -0.0913
28804SOL    HW288666   9.801   9.800   9.662 -1.1915  1.2410  0.0013
28805SOL     OW88667   0.650   3.507   8.654  0.3886 -0.3891 -0.2710
28805SOL    HW188668   0.639   3.576   8.720 -1.4874 -1.1762  0.2995
28805SOL    HW288669   0.744   3.488   8.656  0.4591 -0.1577  1.9822
28806SOL     OW88670  10.576   8.766   7.959  0.1780 -0.0001 -0.0796
28806SOL    HW188671  10.578   8.698   7.893 -0.9703 -0.0942 -0.0323
28806SOL    HW288672  10.629   8.837   7.922 -0.2424 -0.1472 -0.9831
28807SOL     OW88673   5.035   0.810   7.275 -0.0406 -0.4760 -0.2951
28807SOL    HW188674   4.971   0.878   7.252  0.4410  0.6955  1.5900
28807SOL    HW288675   5.016   0.738   7.215 -1.6341  0.7013 -1.2937
28808SOL     OW88676   8.221   7.665   4.994 -0.2458 -0.8339  0.0347
28808SOL    HW188677   8.303   7.623   4.968  0.0398  0.4096 -1.1351
28808SOL    HW288678   8.187   7.609   5.064  0.1280 -2.9908 -1.4224
28809SOL     OW88679   0.748   6.137   7.271 -0.2463 -0.3708 -0.7587
28809SOL    HW188680   0.780   6.217   7.312 -2.7307  0.2514  0.1441
28809SOL    HW288681   0.820   6.109   7.213  0.3097  3.0938 -1.9802
28810SOL     OW88682   2.085   9.726   6.024  0.6519 -0.4962  0.8580
28810SOL    HW188683   2.163   9.692   5.981  0.1798 -0.8910  0.2950
28810SOL    HW288684   2.029   9.757   5.953  0.3726 -0.0434  1.2637
28811SOL     OW88685   0.767   7.176   5.017  0.4770 -0.2088  0.1190
28811SOL    HW188686   0.789   7.213   4.931  1.6629 -0.7249  0.1831
28811SOL    HW288687   0.760   7.082   5.001 -2.6810 -0.0277 -0.0773
28812SOL     OW88688   7.726   3.267   6.936  0.8480 -0.0775  0.2835
28812SOL    HW188689   7.778   3.199   6.892  0.6415 -1.0257  1.4350
28812SOL    HW288690   7.647   3.275   6.882  0.6394 -1.1512  0.3914
28813SOL     OW88691   4.282   9.885   3.016  0.0249  0.0493  0.1038
28813SOL    HW188692   4.212   9.949   3.031  1.7093  1.5864  2.0690
28813SOL    HW288693   4.360   9.938   3.000  0.9910 -1.5995 -0.9669
28814SOL     OW88694   4.589   1.577   4.679  0.1872  0.7907 -0.2114
28814SOL    HW188695   4.546   1.652   4.637 -1.3725 -0.1812 -0.4372
28814SOL    HW288696   4.529   1.550   4.748 -1.3377 -2.6156 -2.5747
28815SOL     OW88697   3.097   2.129   8.206  0.5484  0.2595  0.1999
28815SOL    HW188698   3.054   2.178   8.275  0.0239  0.9606 -0.6082
28815SOL    HW288699   3.081   2.037   8.228  0.1055  0.4803  0.8205
28816SOL     OW88700   0.895   2.166   3.737  0.8951 -0.1955  0.3494
28816SOL    HW188701   0.829   2.158   3.668  0.3686 -2.9256  1.0323
28816SOL    HW288702   0.977   2.183   3.690  0.3141 -0.5606 -0.8441
28817SOL     OW88703   8.759   7.470   1.995  0.2218  0.3427  0.0940
28817SOL    HW188704   8.793   7.488   1.907 -2.1425  0.8740 -0.7782
28817SOL    HW288705   8.771   7.552   2.043 -0.5628  0.7950 -0.4661
28818SOL     OW88706   9.903   8.964   7.058 -0.1030  0.2674  0.4468
28818SOL    HW188707   9.878   9.039   7.113 -0.7939 -0.3013  0.9291
28818SOL    HW288708   9.859   8.890   7.098 -0.5019 -0.1929 -0.8075
28819SOL     OW88709   2.387   8.959  10.513  0.3063 -0.2442  0.0371
28819SOL    HW188710   2.341   8.959  10.596  0.3268 -0.8302  0.0530
28819SOL    HW288711   2.420   8.870  10.504 -0.3611 -0.4039 -0.9709
28820SOL     OW88712   1.817   8.812   5.115 -0.1862  0.5875  0.0844
28820SOL    HW188713   1.888   8.856   5.069 -0.7179  0.7176 -0.6333
28820SOL    HW288714   1.858   8.773   5.192  0.2865  2.3894  0.7810
28821SOL     OW88715   7.358   5.549   5.593 -0.1383  0.0890 -0.2749
28821SOL    HW188716   7.288   5.483   5.594  0.6206 -0.7390 -0.4964
28821SOL    HW288717   7.363   5.577   5.502 -1.6961  1.8368  0.1246
28822SOL     OW88718   4.289   4.568   1.808  0.1410  0.3903  0.1338
28822SOL    HW188719   4.356   4.621   1.765 -1.9471  0.4612 -3.5222
28822SOL    HW288720   4.326   4.546   1.893  4.4059  1.0598 -1.2889
28823SOL     OW88721   4.111   4.103   7.819  0.1849  0.4503 -0.2590
28823SOL    HW188722   4.149   4.186   7.789 -2.2159  3.3291  3.7503
28823SOL    HW288723   4.164   4.079   7.894 -1.0311  0.0958  0.5020
28824SOL     OW88724   4.747   9.842   4.685  0.1280  0.0087  0.2776
28824SOL    HW188725   4.793   9.798   4.613  0.4240  0.9865 -0.1475
28824SOL    HW288726   4.677   9.781   4.709 -1.3513  0.5439 -2.3014
28825SOL     OW88727   6.109   7.056   4.393  0.2316 -0.4956 -0.1476
28825SOL    HW188728   6.085   7.055   4.300  0.6288 -0.2379 -0.2526
28825SOL    HW288729   6.204   7.053   4.393  0.2089 -1.5199  0.2741
28826SOL     OW88730   8.323   4.871   7.649 -0.0980 -0.0719  0.1677
28826SOL    HW188731   8.330   4.963   7.676 -0.3761 -0.7104  2.7215
28826SOL    HW288732   8.414   4.844   7.635 -0.0024  0.5246 -0.4353
28827SOL     OW88733   3.812   3.934   2.062  0.3782 -0.3519  0.0216
28827SOL    HW188734   3.807   3.986   2.142  2.1361  1.9238 -1.2313
28827SOL    HW288735   3.903   3.943   2.033  0.1249 -2.1931 -1.5538
28828SOL     OW88736   6.735   1.748   9.238  0.2629 -0.2782  0.1765
28828SOL    HW188737   6.771   1.828   9.200 -2.7636  0.0912 -2.2594
28828SOL    HW288738   6.674   1.779   9.305  1.5026 -0.7508  1.5811
28829SOL     OW88739   8.980   5.534   4.169  0.4293 -0.7055 -0.0897
28829SOL    HW188740   9.006   5.540   4.077 -0.0880 -1.9889 -0.3411
28829SOL    HW288741   8.890   5.566   4.170  0.6035 -0.2061  0.0708
28830SOL     OW88742   7.637   8.773   5.028 -0.5666 -0.1183  0.8249
28830SOL    HW188743   7.560   8.718   5.042  0.0044 -1.1002  0.1923
28830SOL    HW288744   7.677   8.739   4.948  1.0568 -0.2495  1.6619
28831SOL     OW88745   3.796   4.580   1.706  0.1023  0.1797 -0.4659
28831SOL    HW188746   3.772   4.661   1.751 -0.9222  0.4133 -1.3925
28831SOL    HW288747   3.870   4.545   1.756 -0.8846  0.5151  1.2786
28832SOL     OW88748  10.471   4.255   7.997  0.1852  0.4621  0.3016
28832SOL    HW188749  10.501   4.289   7.913  0.3895  1.4246  0.7471
28832SOL    HW288750  10.551   4.242   8.048  0.0112  0.7463  0.6550
28833SOL     OW88751   6.030   8.246   0.078  0.1696  0.0337 -0.3603
28833SOL    HW188752   6.106   8.224   0.024 -0.5272 -3.2026 -0.2204
28833SOL    HW288753   6.065   8.247   0.168  0.1017 -1.5486 -0.2849
28834SOL     OW88754   6.493   3.821   1.710 -0.6247 -0.0993  0.1420
28834SOL    HW188755   6.543   3.747   1.674 -0.5680  0.1060 -0.2006
28834SOL    HW288756   6.551   3.896   1.700 -0.1504 -0.2124  1.6663
28835SOL     OW88757   6.612   4.451   1.012  0.5492 -0.4310  0.4921
28835SOL    HW188758   6.525   4.490   1.022  0.3717 -0.2091 -1.5160
28835SOL    HW288759   6.625   4.401   1.092 -1.1099  0.1418  1.1632
28836SOL     OW88760   4.021   1.906   6.904  0.5861 -0.2929  0.1118
28836SOL    HW188761   3.940   1.931   6.948  0.0677 -1.2801 -0.2345
28836SOL    HW288762   4.078   1.874   6.974 -0.8099 -3.3727  0.0274
28837SOL     OW88763   6.714   1.540   1.798  0.2905  0.1712 -0.1270
28837SOL    HW188764   6.661   1.617   1.817  0.4592  0.6737 -1.5753
28837SOL    HW288765   6.769   1.528   1.876 -0.7653  0.6241  0.7050
28838SOL     OW88766   9.966   5.644   0.880 -0.0313  0.0886  0.4976
28838SOL    HW188767   9.970   5.553   0.908 -0.8125 -0.5056 -1.1404
28838SOL    HW288768   9.872   5.662   0.872  0.0529  1.5699  2.3411
28839SOL     OW88769   9.437   6.887   5.414  0.2648 -0.3430  0.5041
28839SOL    HW188770   9.441   6.819   5.482  0.3758  1.4278  2.3543
28839SOL    HW288771   9.356   6.934   5.431  0.5232  0.4234 -0.3024
28840SOL     OW88772   0.855   2.489   1.942 -0.7412 -0.0998 -0.1755
28840SOL    HW188773   0.881   2.475   2.033  1.0525 -0.3961 -0.6978
28840SOL    HW288774   0.892   2.574   1.919  0.3607 -0.8162 -1.1419
28841SOL     OW88775  10.546   5.378   9.290  0.2797  0.0381 -0.0162
28841SOL    HW188776  10.625   5.335   9.257  0.7115  1.4577 -0.9264
28841SOL    HW288777  10.475   5.321   9.262  0.9860 -1.9428  1.9123
28842SOL     OW88778   3.454   3.354   6.121  0.1409 -1.0781 -0.2135
28842SOL    HW188779   3.474   3.307   6.040  3.6966 -2.4798  1.2426
28842SOL    HW288780   3.464   3.289   6.190 -1.2805  0.4048  1.5118
28843SOL     OW88781   2.147  10.104   9.150 -0.5249 -0.6689  0.2293
28843SOL    HW188782   2.097  10.149   9.082  1.5575  0.3009 -0.7400
28843SOL    HW288783   2.097  10.120   9.231 -1.1263  1.3398 -0.4775
28844SOL     OW88784  10.271   3.747   2.434  0.2841 -0.3984  0.4592
28844SOL    HW188785  10.207   3.679   2.411 -2.0320  1.2375  1.6934
28844SOL    HW288786  10.299   3.783   2.350 -2.6802  0.7698 -0.1618
28845SOL     OW88787   0.531   1.695   9.363 -0.6010 -0.1200  0.5514
28845SOL    HW188788   0.581   1.728   9.437  0.0914 -0.9728  0.4777
28845SOL    HW288789   0.476   1.626   9.401 -1.3542  0.4646  0.5394
28846SOL     OW88790   6.598  10.560   8.248 -0.0212  0.1619 -0.0916
28846SOL    HW188791   6.568  10.614   8.321  1.1468 -0.5972  0.9774
28846SOL    HW288792   6.687  10.535   8.271  0.3975 -0.0537 -1.8190
28847SOL     OW88793   0.555   7.463   8.784 -0.7213 -0.4509 -0.0208
28847SOL    HW188794   0.646   7.466   8.812 -0.4694 -0.2542 -0.8416
28847SOL    HW288795   0.509   7.521   8.845  0.0247  0.9853 -0.7889
28848SOL     OW88796   9.724   0.934   6.694 -0.1588  0.2381  0.2836
28848SOL    HW188797   9.693   0.960   6.780  1.0472  0.1556  0.7599
28848SOL    HW288798   9.792   0.998   6.672 -0.4836  0.2876 -0.6268
28849SOL     OW88799   4.065   4.919   7.986  0.2405 -0.2923 -0.0383
28849SOL    HW188800   4.000   4.962   8.042  0.8276  0.7006 -0.0887
28849SOL    HW288801   4.116   4.991   7.950 -0.2162 -0.8848 -1.9818
28850SOL     OW88802   6.174   0.865   9.686  0.0304 -0.1104 -0.0292
28850SOL    HW188803   6.118   0.799   9.646  2.4826 -1.7277 -1.0507
28850SOL    HW288804   6.162   0.853   9.780 -2.1114  0.3892 -0.1814
28851SOL     OW88805  10.618   0.573   6.283  0.8436 -0.2372  0.5140
28851SOL    HW188806  10.640   0.485   6.253 -0.3204 -0.6382  0.8046
28851SOL    HW288807  10.556   0.560   6.355 -0.3340  0.8357 -0.2576
28852SOL     OW88808   8.115   3.750   6.051 -0.7868 -0.4967  0.1755
28852SOL    HW188809   8.203   3.730   6.017 -0.6252 -1.3924  1.0689
28852SOL    HW288810   8.056   3.731   5.978 -0.1079  2.4402 -1.2868
28853SOL     OW88811   5.644   1.325   4.549 -0.0743 -0.3159  0.4175
28853SOL    HW188812   5.715   1.372   4.593  1.0855 -1.0041 -0.6387
28853SOL    HW288813   5.619   1.382   4.477  1.0835 -1.1046 -0.6455
28854SOL     OW88814   8.257   5.997   5.238  0.0875 -0.1878  0.3691
28854SOL    HW188815   8.234   6.019   5.147  1.5469  0.1337  0.0584
28854SOL    HW288816   8.176   5.962   5.275 -0.6991  0.2424 -0.8767
28855SOL     OW88817   4.519   2.016   3.113  0.0574  0.5399  0.1334
28855SOL    HW188818   4.609   2.048   3.102  0.9245 -1.1797  1.5658
28855SOL    HW288819   4.507   1.954   3.042  0.8116 -0.7646  1.0971
28856SOL     OW88820   9.425   9.822   5.567  0.2196 -0.5407 -0.0639
28856SOL    HW188821   9.507   9.872   5.569 -1.2357  2.1107  2.6828
28856SOL    HW288822   9.395   9.829   5.476  1.8010  0.5754 -0.5492
28857SOL     OW88823   2.928   2.758   8.715  0.0627  0.2615 -0.4619
28857SOL    HW188824   2.923   2.812   8.636  0.8477 -1.9598 -2.1243
28857SOL    HW288825   2.912   2.669   8.684 -2.1712 -0.4148  2.3264
28858SOL     OW88826   2.759   8.073   0.439 -0.0179 -0.0478  0.3038
28858SOL    HW188827   2.707   8.048   0.516  2.3415 -1.6114  1.5518
28858SOL    HW288828   2.757   7.995   0.383  0.3760  0.1194  0.0544
28859SOL     OW88829   8.110   1.008   3.666  0.6838 -0.6879 -0.0958
28859SOL    HW188830   8.146   0.920   3.648  0.4949 -0.8666  0.3864
28859SOL    HW288831   8.019   1.003   3.639  1.6273  0.6862 -4.3536
28860SOL     OW88832   4.493   1.269   7.275 -0.0570 -0.1095 -0.4473
28860SOL    HW188833   4.577   1.227   7.295  0.4904  0.0212 -2.3171
28860SOL    HW288834   4.427   1.204   7.302  0.7330 -1.4558 -1.5871
28861SOL     OW88835   9.510   8.980   2.649 -0.0063 -0.3277 -0.0905
28861SOL    HW188836   9.514   8.927   2.570 -1.8706  1.1461 -1.2545
28861SOL    HW288837   9.428   8.954   2.692 -1.6619  2.3055 -1.3458
28862SOL     OW88838   3.833   3.738   2.745  0.1214  0.0447  0.6863
28862SOL    HW188839   3.869   3.696   2.666 -0.7114  0.6042  0.0048
28862SOL    HW288840   3.911   3.768   2.793  0.7457 -1.9608  1.0519
28863SOL     OW88841   2.072   0.206  10.390 -0.3427  0.7553 -0.1056
28863SOL    HW188842   1.998   0.205  10.450 -1.8283  1.8411 -1.8152
28863SOL    HW288843   2.076   0.296  10.358  0.2752  0.1871 -1.7358
28864SOL     OW88844   2.057   0.805   9.838  0.1376  0.0912  0.2501
28864SOL    HW188845   2.102   0.882   9.802 -1.5231  0.0974 -2.0023
28864SOL    HW288846   1.965   0.831   9.844 -0.3572 -1.5029  0.0253
28865SOL     OW88847   1.660   4.605   1.115 -0.5442 -0.3132 -0.1164
28865SOL    HW188848   1.588   4.616   1.053 -0.2850  2.8816  0.0281
28865SOL    HW288849   1.737   4.637   1.069 -0.1316  0.9624  1.3798
28866SOL     OW88850   7.090   9.511   5.377  0.2216  0.3453 -0.2656
28866SOL    HW188851   6.995   9.511   5.390 -0.2281 -0.2266 -3.0646
28866SOL    HW288852   7.107   9.592   5.328  1.2177  0.4921  0.3024
28867SOL     OW88853   4.028   1.937   1.019  0.3186  0.3823 -0.0677
28867SOL    HW188854   4.056   1.896   1.101 -1.0149 -0.9675 -0.2468
28867SOL    HW288855   4.110   1.956   0.973  1.1737  2.1437  1.9644
28868SOL     OW88856   8.305   9.552   0.577  0.4580  0.0950 -0.1037
28868SOL    HW188857   8.378   9.615   0.580  0.1955  0.4352 -0.6640
28868SOL    HW288858   8.233   9.597   0.621 -0.9676  1.8889 -3.7791
28869SOL     OW88859   6.385   5.825   8.597  0.5238  0.5235 -0.3523
28869SOL    HW188860   6.399   5.835   8.691  3.7353 -1.1361 -0.5124
28869SOL    HW288861   6.388   5.730   8.582  2.2187  0.7935 -2.2859
28870SOL     OW88862  10.621   7.270   3.412  0.5531  0.3441 -0.5577
28870SOL    HW188863  10.708   7.247   3.444  0.1433 -1.0013 -0.3169
28870SOL    HW288864  10.563   7.251   3.486 -0.3024 -1.8981 -1.6941
28871SOL     OW88865   5.321   3.081   8.101  0.0238  0.3241  0.8924
28871SOL    HW188866   5.313   3.086   8.006  0.5957 -0.8164  0.7749
28871SOL    HW288867   5.312   3.172   8.130  2.9496  1.1938 -0.4940
28872SOL     OW88868   9.519   7.472   3.937 -0.2774 -0.6865 -0.4396
28872SOL    HW188869   9.522   7.521   4.019  0.2414 -2.3803  0.5879
28872SOL    HW288870   9.437   7.500   3.896  0.0320  1.0734  0.0602
28873SOL     OW88871   9.089   8.495   7.925 -0.1935 -0.1899 -0.5377
28873SOL    HW188872   9.051   8.577   7.892  1.9564  1.0049 -0.2556
28873SOL    HW288873   9.142   8.463   7.852 -0.4558 -0.9637 -0.3929
28874SOL     OW88874   2.508   5.623   3.505 -0.6983  0.4212 -0.2404
28874SOL    HW188875   2.428   5.596   3.548 -1.1135 -0.1099 -1.3128
28874SOL    HW288876   2.485   5.703   3.458 -0.3769  0.7317  0.1208
28875SOL     OW88877   0.981  10.421   9.653  0.2321  0.0333  0.2270
28875SOL    HW188878   1.046  10.440   9.587  0.5363 -1.3507  0.0861
28875SOL    HW288879   0.979  10.498   9.709  1.6126  0.3041 -0.0729
28876SOL     OW88880   8.149   9.006  10.416 -0.3874  0.3111  0.2673
28876SOL    HW188881   8.190   8.985  10.500  0.1886 -1.8940 -0.4969
28876SOL    HW288882   8.095   8.930  10.397 -0.8882  0.9985 -1.1395
28877SOL     OW88883   4.855  10.145   0.752 -0.5129  0.0718 -0.3582
28877SOL    HW188884   4.792  10.162   0.682  0.7423  2.0024 -1.1230
28877SOL    HW288885   4.858  10.227   0.802  1.0564 -0.1034 -0.1001
28878SOL     OW88886  10.078   4.878   3.648 -0.5933 -0.3520  0.2021
28878SOL    HW188887  10.015   4.940   3.612  0.5990  1.6359  1.3195
28878SOL    HW288888  10.161   4.902   3.606 -0.0300 -0.9534  0.9510
28879SOL     OW88889   2.307   1.087   2.993  0.1281 -0.3764 -0.1606
28879SOL    HW188890   2.222   1.119   3.023  0.5054  0.1554  0.3714
28879SOL    HW288891   2.287   1.006   2.946 -0.6317 -0.4464  0.2680
28880SOL     OW88892   6.507   8.180   9.418 -0.2944 -0.8106  0.2199
28880SOL    HW188893   6.554   8.263   9.426 -1.3050 -0.4268  5.1054
28880SOL    HW288894   6.570   8.114   9.446 -1.0045 -0.9197  1.6731
28881SOL     OW88895   1.454   2.768   0.062  0.5705 -0.3494  0.4037
28881SOL    HW188896   1.486   2.790   0.150 -0.1855  0.1943  0.5545
28881SOL    HW288897   1.502   2.688   0.039  1.1960 -0.1860  1.0729
28882SOL     OW88898   0.841  10.647   2.801 -0.0200 -0.5519 -0.1753
28882SOL    HW188899   0.878  10.735   2.798 -0.8146 -0.2052  0.0088
28882SOL    HW288900   0.769  10.649   2.738  0.0334 -1.1044 -0.2540
28883SOL     OW88901   4.766   6.503   4.106  0.3310 -0.1598 -0.3881
28883SOL    HW188902   4.758   6.452   4.186 -0.0604 -0.8088 -0.8307
28883SOL    HW288903   4.700   6.467   4.047  0.8766  0.0434 -1.1445
28884SOL     OW88904   6.002   1.542   2.013 -0.1487 -0.3288 -0.2418
28884SOL    HW188905   5.999   1.531   1.918 -3.7669  0.2861 -0.3431
28884SOL    HW288906   5.948   1.470   2.046 -1.5375  1.2303  1.0463
28885SOL     OW88907   3.832   3.146   6.648  0.3633  0.3830 -0.8520
28885SOL    HW188908   3.875   3.126   6.731  0.5014  0.1957 -0.9690
28885SOL    HW288909   3.785   3.228   6.664  1.6315  1.1794 -1.0303
28886SOL     OW88910   7.028   7.637   6.730  0.0532  0.0103 -0.0244
28886SOL    HW188911   6.956   7.673   6.678  0.0169 -1.4358 -1.0330
28886SOL    HW288912   7.103   7.693   6.709  0.0194 -0.4894 -1.6113
28887SOL     OW88913   4.100   2.462   1.152 -0.0903  0.1822 -0.3644
28887SOL    HW188914   4.173   2.431   1.205  1.1310  0.5727 -1.7587
28887SOL    HW288915   4.139   2.484   1.067 -1.9716 -0.5012 -1.4792
28888SOL     OW88916   2.049   3.755   4.554  0.4277 -0.2594  0.4256
28888SOL    HW188917   2.091   3.751   4.468  0.9388  0.3611  0.6375
28888SOL    HW288918   1.958   3.729   4.538  0.8428 -1.4873 -0.0618
28889SOL     OW88919  10.527   0.182   4.907 -0.1911 -0.5054  0.7465
28889SOL    HW188920  10.489   0.160   4.822 -0.2444  1.1833  0.2982
28889SOL    HW288921  10.452   0.211   4.959 -0.0463 -0.8327  1.1452
28890SOL     OW88922   8.291   9.974  10.607  0.3833 -0.1281 -0.2149
28890SOL    HW188923   8.291   9.963  10.512  0.2969  0.3150 -0.2663
28890SOL    HW288924   8.383   9.982  10.631  0.5352 -1.8058 -0.0708
28891SOL     OW88925   9.022   3.586   1.813  0.0279 -0.0359 -0.4610
28891SOL    HW188926   9.037   3.679   1.831 -0.7873  0.1908 -0.9169
28891SOL    HW288927   9.059   3.541   1.889 -0.5319  0.7255  0.2835
28892SOL     OW88928   2.833   8.369   5.958  0.0942  0.4081 -0.5840
28892SOL    HW188929   2.885   8.433   5.908  0.0771  1.2993  0.4956
28892SOL    HW288930   2.749   8.413   5.971 -0.3248 -0.3200 -0.8136
28893SOL     OW88931   1.239   7.135   0.995 -0.1538 -0.5204  0.1678
28893SOL    HW188932   1.194   7.073   1.053 -0.0645 -0.6154  0.1364
28893SOL    HW288933   1.326   7.145   1.033 -0.3316 -0.0256  0.4560
28894SOL     OW88934   9.742   9.564   5.591 -0.1865 -0.1965  0.1920
28894SOL    HW188935   9.682   9.563   5.516  1.4598 -4.3389 -1.3441
28894SOL    HW288936   9.694   9.517   5.660 -0.4348  0.6666  0.6192
28895SOL     OW88937   8.469   1.129   1.993  0.4915 -0.1362 -0.3480
28895SOL    HW188938   8.425   1.119   2.077  1.6549  1.5971  0.5340
28895SOL    HW288939   8.493   1.040   1.967 -3.2149 -1.1467 -0.7889
28896SOL     OW88940   0.888   0.152   6.501 -0.4261 -0.6482 -0.3964
28896SOL    HW188941   0.879   0.247   6.502 -2.1735 -0.7710  1.3535
28896SOL    HW288942   0.972   0.136   6.459  0.0582  1.6766 -0.4115
28897SOL     OW88943   4.635   7.111   5.179 -0.4765  0.9311  0.7312
28897SOL    HW188944   4.597   7.055   5.112  0.5736  1.2017 -0.1202
28897SOL    HW288945   4.694   7.053   5.228  0.7239  1.2902 -0.2444
28898SOL     OW88946   3.791   4.857   5.922 -0.5756  0.2480 -0.4409
28898SOL    HW188947   3.730   4.919   5.961 -0.5708 -1.3507  2.3623
28898SOL    HW288948   3.840   4.820   5.996 -0.9003 -3.4089 -1.8063
28899SOL     OW88949   8.794   3.359   4.320  0.1207 -0.0342  0.1128
28899SOL    HW188950   8.843   3.363   4.402  1.8830  2.5961 -0.9496
28899SOL    HW288951   8.723   3.422   4.332  1.0290  1.1868 -0.7075
28900SOL     OW88952   2.711   8.108   3.897  0.0320  0.1466 -0.0255
28900SOL    HW188953   2.745   8.125   3.809 -0.9727 -0.4307 -0.5417
28900SOL    HW288954   2.706   8.013   3.903  0.2125  0.1812  0.7040
28901SOL     OW88955   9.307   3.686   8.754  0.3814  0.7866 -0.0270
28901SOL    HW188956   9.213   3.667   8.752  0.5423 -0.0761  0.0932
28901SOL    HW288957   9.323   3.719   8.842  0.4839 -0.7558  0.5606
28902SOL     OW88958   4.253   5.070   8.535 -0.1394  0.1834  0.4392
28902SOL    HW188959   4.173   5.043   8.580  0.2410  0.2464  1.1640
28902SOL    HW288960   4.261   5.164   8.553 -1.3670  0.8412 -1.9320
28903SOL     OW88961   5.256   3.010   5.270 -0.1014  0.0711 -0.1282
28903SOL    HW188962   5.289   3.100   5.270 -1.6909  0.7043  0.9123
28903SOL    HW288963   5.177   3.014   5.324  0.0301 -2.0456  0.2980
28904SOL     OW88964   6.736   3.184   3.830 -0.1514 -0.0198  0.5702
28904SOL    HW188965   6.822   3.194   3.871 -0.8725  2.2995  1.7068
28904SOL    HW288966   6.733   3.254   3.765 -0.4693 -1.3323 -0.8759
28905SOL     OW88967   2.603   5.959   6.787  0.6084 -0.2801  0.3113
28905SOL    HW188968   2.636   5.925   6.870  0.1348 -1.3509  0.0682
28905SOL    HW288969   2.575   5.882   6.738 -2.4391  0.5538  0.5683
28906SOL     OW88970   8.310   5.605   9.861 -0.4033  0.1325  0.1707
28906SOL    HW188971   8.388   5.625   9.912  0.0912 -1.0699 -0.0934
28906SOL    HW288972   8.319   5.659   9.782 -0.3902  0.8096  0.6317
28907SOL     OW88973   6.318   4.983   4.680  0.5391 -0.0054  0.1540
28907SOL    HW188974   6.380   4.923   4.720 -0.4551 -0.3422  1.2361
28907SOL    HW288975   6.240   4.929   4.664  0.9121  0.0600 -2.4080
28908SOL     OW88976   7.765  10.289   8.579  0.7349 -0.1361 -0.2226
28908SOL    HW188977   7.825  10.363   8.589 -0.7842  1.4976 -2.2610
28908SOL    HW288978   7.679  10.323   8.604 -0.1050 -0.9878 -1.7674
28909SOL     OW88979   4.214   3.158   3.339 -0.2528 -0.1960 -0.0894
28909SOL    HW188980   4.200   3.086   3.401  1.1499 -0.3117  0.1297
28909SOL    HW288981   4.139   3.153   3.280 -0.9324 -0.9202  0.7977
28910SOL     OW88982   9.809   5.861   5.622 -0.4760  0.3009 -0.4144
28910SOL    HW188983   9.830   5.935   5.564 -0.9313  0.7600 -0.0081
28910SOL    HW288984   9.738   5.894   5.676 -0.2775 -0.2437  0.1789
28911SOL     OW88985   6.010   7.152   6.850  0.0923 -0.2888  0.3071
28911SOL    HW188986   6.037   7.241   6.826  0.0211 -0.6015 -1.0031
28911SOL    HW288987   6.042   7.141   6.939  1.5419  0.4864 -0.0765
28912SOL     OW88988   5.635   3.245   6.099  0.4791 -0.5801 -0.4148
28912SOL    HW188989   5.650   3.204   6.013 -1.2340  0.1260 -1.0927
28912SOL    HW288990   5.543   3.272   6.097  0.4431 -0.4218  1.6161
28913SOL     OW88991   3.878   3.293  10.431  0.4965  0.4465  0.0064
28913SOL    HW188992   3.906   3.212  10.473 -0.8996 -0.6413 -1.0615
28913SOL    HW288993   3.798   3.317  10.477  0.7764  1.1045  0.1601
28914SOL     OW88994   4.740   7.777   4.514 -0.1887  0.1435  0.4794
28914SOL    HW188995   4.817   7.748   4.563  0.3539  0.1917 -0.3260
28914SOL    HW288996   4.674   7.709   4.530  0.0583  0.0367  1.0686
28915SOL     OW88997  10.002   1.075   9.143 -0.4111 -0.7607  0.4256
28915SOL    HW188998  10.095   1.067   9.122 -0.6555  1.0486 -1.6567
28915SOL    HW288999   9.957   1.055   9.062 -1.6736  1.4148  0.5308
28916SOL     OW89000   8.775   3.659   3.341 -0.7504  0.0753 -0.0298
28916SOL    HW189001   8.770   3.722   3.269  0.0536  0.5359  0.3074
28916SOL    HW289002   8.848   3.602   3.316 -0.8124 -0.0921  0.1704
28917SOL     OW89003   4.364   2.241   0.706 -0.3829  0.0486  0.5038
28917SOL    HW189004   4.451   2.267   0.677 -0.5909  0.6199  0.3667
28917SOL    HW289005   4.310   2.320   0.693 -0.6349  0.1086  1.7925
28918SOL     OW89006   7.963   5.453   7.887  0.1476  0.1932  0.2626
28918SOL    HW189007   7.944   5.506   7.810 -0.0606  0.7087  0.6629
28918SOL    HW289008   7.882   5.406   7.905  1.1671 -2.6294 -1.8736
28919SOL     OW89009   6.639   1.173  10.244 -0.1228  0.0545  0.6230
28919SOL    HW189010   6.603   1.195  10.158 -0.4477 -1.5415  0.3143
28919SOL    HW289011   6.733   1.193  10.235  0.3401 -2.3790 -0.9979
28920SOL     OW89012  10.086   6.079   4.081 -0.4229  0.0649  0.0926
28920SOL    HW189013  10.092   5.993   4.122  1.4019  0.7317  1.3277
28920SOL    HW289014  10.099   6.062   3.987  0.6737 -0.9424  0.4104
28921SOL     OW89015   1.286   8.548   2.986  0.6387  0.0679  0.2292
28921SOL    HW189016   1.235   8.476   3.021  0.3067 -0.2881 -0.9372
28921SOL    HW289017   1.372   8.539   3.027 -0.0054  0.2546  1.6663
28922SOL     OW89018   8.385   6.955   5.381  0.1293 -0.2336 -0.3629
28922SOL    HW189019   8.332   6.878   5.362 -2.6395  1.6601 -0.9185
28922SOL    HW289020   8.426   6.976   5.298 -0.3256 -0.2584 -0.5983
28923SOL     OW89021   4.796   4.093   9.753 -0.3669  0.0453 -0.5199
28923SOL    HW189022   4.870   4.154   9.745  0.9365 -0.7948  3.1506
28923SOL    HW289023   4.719   4.147   9.735  0.9049  2.0301 -0.3816
28924SOL     OW89024   8.188   5.425   0.541  0.3330  0.0297 -0.4172
28924SOL    HW189025   8.268   5.428   0.594 -1.1601  1.9390  1.9598
28924SOL    HW289026   8.127   5.374   0.593 -0.4103 -0.3336 -1.6091
28925SOL     OW89027   7.826   6.582   9.849 -0.5721 -0.0046 -0.6013
28925SOL    HW189028   7.755   6.566   9.912 -0.1071 -1.2493 -0.3660
28925SOL    HW289029   7.780   6.610   9.769 -1.2864 -0.1377 -0.2516
28926SOL     OW89030  10.229   7.871   0.101  0.6510 -0.5503  0.5540
28926SOL    HW189031  10.241   7.855   0.008 -0.4527 -1.1901  0.5041
28926SOL    HW289032  10.298   7.821   0.144  1.0581 -0.3907  0.0892
28927SOL     OW89033   4.932   8.161   0.976  0.3539  0.0381 -0.9649
28927SOL    HW189034   4.849   8.174   1.021 -0.1870 -1.3026 -1.5295
28927SOL    HW289035   4.909   8.116   0.895  1.5723  0.1456 -1.3938
28928SOL     OW89036   8.099   5.654   4.963 -0.1263  0.7316 -0.2548
28928SOL    HW189037   8.139   5.737   4.936  0.6171  0.8012  0.9834
28928SOL    HW289038   8.005   5.673   4.967 -0.0696  1.2097 -1.0044
28929SOL     OW89039   8.964   6.505   1.395  0.0445  0.2558  0.1191
28929SOL    HW189040   8.905   6.556   1.449 -0.9027 -0.0960 -0.5472
28929SOL    HW289041   8.951   6.414   1.423  0.4676  0.2038  0.1542
28930SOL     OW89042   6.666   0.252   1.881 -0.2286  0.0403 -0.1472
28930SOL    HW189043   6.640   0.233   1.971  0.1812 -0.5014 -0.1361
28930SOL    HW289044   6.741   0.312   1.889  0.3860 -0.7174 -0.0931
28931SOL     OW89045   1.080   4.746   3.334  0.6176  0.5572 -0.1344
28931SOL    HW189046   1.033   4.703   3.261 -2.3266  0.9321  1.3825
28931SOL    HW289047   1.093   4.676   3.398  0.9829  0.7325 -0.0182
28932SOL     OW89048   9.616   3.259   5.795 -0.2324  0.0753  0.1491
28932SOL    HW189049   9.643   3.349   5.776  1.0789 -0.4835 -0.7850
28932SOL    HW289050   9.594   3.260   5.888  4.2690  0.4201  1.4395
28933SOL     OW89051   4.006   3.611   4.845 -0.2734 -0.0749 -0.1016
28933SOL    HW189052   4.035   3.682   4.903 -1.0669 -0.6572  1.0624
28933SOL    HW289053   3.983   3.540   4.905 -0.9132 -0.7943 -1.1679
28934SOL     OW89054   3.632   0.912   2.820  0.1957  0.2547 -0.2653
28934SOL    HW189055   3.662   0.908   2.730  0.7384 -1.1202 -0.0451
28934SOL    HW289056   3.712   0.906   2.872 -0.1756  0.2180  0.3134
28935SOL     OW89057   0.939   4.782   1.293  0.4323 -0.0560 -0.3424
28935SOL    HW189058   0.909   4.827   1.372  1.6130  0.1908 -0.0146
28935SOL    HW289059   0.858   4.761   1.245 -0.4019 -1.3782  1.5247
28936SOL     OW89060   9.094   4.536   3.547  0.5544 -0.4069  0.5107
28936SOL    HW189061   9.027   4.491   3.496  1.8138 -3.6364  1.4655
28936SOL    HW289062   9.087   4.499   3.635  2.2783  0.6259  1.1464
28937SOL     OW89063   5.562  10.629   7.643 -0.3654  0.0443  0.1714
28937SOL    HW189064   5.514  10.601   7.565 -0.5358 -0.9888  0.6242
28937SOL    HW289065   5.645  10.581   7.638 -0.8244 -0.9025  1.1718
28938SOL     OW89066   9.442   1.588   4.392  0.0848  0.1547  0.2222
28938SOL    HW189067   9.533   1.616   4.384  0.6552 -1.8339 -0.9373
28938SOL    HW289068   9.414   1.572   4.301 -1.3676  0.5312  0.5761
28939SOL     OW89069   1.358   0.053   9.703  0.4142 -0.3932  0.0494
28939SOL    HW189070   1.412   0.041   9.625 -0.3054 -1.9933 -0.2308
28939SOL    HW289071   1.377  -0.023   9.758 -0.3472 -0.1437  0.6790
28940SOL     OW89072   6.909   1.632   9.583 -0.1682 -0.0313 -0.0104
28940SOL    HW189073   6.914   1.714   9.633 -0.3178  0.4927 -0.8291
28940SOL    HW289074   6.991   1.630   9.533  0.9601 -1.5799  1.7501
28941SOL     OW89075   8.832   3.747   2.083 -0.3347 -0.3383  0.1154
28941SOL    HW189076   8.897   3.798   2.036  1.0082 -2.0825 -0.0322
28941SOL    HW289077   8.881   3.672   2.119 -2.3366 -2.1070 -0.6045
28942SOL     OW89078   8.408   9.786   6.753 -0.1386  0.8233 -0.0436
28942SOL    HW189079   8.330   9.842   6.757 -0.6752  0.0855  0.1268
28942SOL    HW289080   8.473   9.838   6.707  0.9090  3.4119  3.8433
28943SOL     OW89081   3.866   9.667   6.465  0.3625 -0.2894  0.4757
28943SOL    HW189082   3.812   9.712   6.530  0.9705 -0.3419  1.0293
28943SOL    HW289083   3.824   9.582   6.453  0.7699 -0.6619  1.5358
28944SOL     OW89084   9.124   1.270   2.768  0.0715  0.5476  0.2831
28944SOL    HW189085   9.043   1.294   2.723  0.5286  0.2837 -0.7127
28944SOL    HW289086   9.129   1.175   2.760  0.2509  0.5179  0.7338
28945SOL     OW89087   9.865   6.210   6.820  0.7561  0.2593  0.2832
28945SOL    HW189088   9.843   6.123   6.786  0.7768  0.0703  0.7464
28945SOL    HW289089   9.872   6.198   6.914  0.1712  0.8922  0.4205
28946SOL     OW89090   6.944   8.874   6.887 -0.2238  0.3683  0.6980
28946SOL    HW189091   6.985   8.813   6.948 -0.3929  0.3735  0.8199
28946SOL    HW289092   6.874   8.823   6.845  0.1216  0.2631  0.2482
28947SOL     OW89093   8.389   7.642   2.827  0.0908  0.1901  0.3377
28947SOL    HW189094   8.323   7.610   2.766  0.3055 -1.6044  0.9880
28947SOL    HW289095   8.466   7.659   2.773 -0.1862  0.0631 -0.1000
28948SOL     OW89096   9.534   2.498   1.079  0.0691  0.0313  0.2331
28948SOL    HW189097   9.576   2.415   1.100 -0.1633 -0.9594 -2.8055
28948SOL    HW289098   9.591   2.565   1.119  1.0032 -1.4853  1.5548
28949SOL     OW89099   5.490   9.207   6.412  0.4307  0.1808 -0.1979
28949SOL    HW189100   5.468   9.270   6.344  1.2011 -1.6948 -2.3169
28949SOL    HW289101   5.458   9.123   6.378  0.4800 -0.7868  1.9644
28950SOL     OW89102   0.285   7.013   4.491 -0.0126 -0.2104 -0.3354
28950SOL    HW189103   0.236   7.050   4.564 -0.3501 -1.0553 -0.1225
28950SOL    HW289104   0.374   7.001   4.525 -0.3420 -1.2783  0.1823
28951SOL     OW89105   7.626   2.684   6.809 -0.1954  0.1163 -0.2263
28951SOL    HW189106   7.555   2.620   6.819 -2.0173  1.8878 -0.9671
28951SOL    HW289107   7.582   2.762   6.774  1.7650  2.0383  1.3460
28952SOL     OW89108   9.557   3.473   9.118 -0.2674  0.3399  0.0170
28952SOL    HW189109   9.465   3.481   9.095 -0.0948  3.2639  0.0609
28952SOL    HW289110   9.559   3.478   9.214  0.0075  2.1770 -0.0454
28953SOL     OW89111   2.982   6.799   9.661  0.0176 -0.3473 -0.1560
28953SOL    HW189112   2.912   6.754   9.707 -1.1541  0.8503 -0.6893
28953SOL    HW289113   3.019   6.859   9.726 -1.8729  1.6048 -0.7512
28954SOL     OW89114   7.375   4.095   5.693  0.2111  0.2505  0.4097
28954SOL    HW189115   7.329   4.120   5.613  0.0214 -0.6374  0.2227
28954SOL    HW289116   7.320   4.026   5.731  1.3043 -0.7425  0.2578
28955SOL     OW89117   0.388   8.284   5.721 -0.1207  0.1601  0.3144
28955SOL    HW189118   0.294   8.283   5.741 -0.8826  0.1185 -2.7972
28955SOL    HW289119   0.425   8.344   5.786 -1.9515 -1.1460  2.7393
28956SOL     OW89120   3.783   0.240   0.012  0.1111  0.1314 -0.1165
28956SOL    HW189121   3.819   0.317  -0.033  0.0805  0.1502 -0.1084
28956SOL    HW289122   3.858   0.201   0.056  0.3541 -0.4839 -1.0451
28957SOL     OW89123   5.823   8.212   8.059  0.1548  0.0800 -0.7464
28957SOL    HW189124   5.877   8.133   8.066 -1.5812 -1.0740  0.4196
28957SOL    HW289125   5.883   8.279   8.025  2.2349 -1.1874  0.1964
28958SOL     OW89126   6.210   9.235   0.012 -1.0756  0.1534  0.3727
28958SOL    HW189127   6.165   9.271  -0.064  0.0608  0.3798 -0.2155
28958SOL    HW289128   6.173   9.282   0.087 -1.8258  0.3071 -0.0851
28959SOL     OW89129   2.507   3.025   7.095 -1.3685  0.2869  0.2876
28959SOL    HW189130   2.499   2.936   7.130  1.6616  0.1486  0.9925
28959SOL    HW289131   2.600   3.032   7.071 -1.0807  3.7536  1.8171
28960SOL     OW89132   2.442   0.385   9.147  0.1173 -0.4931  0.2175
28960SOL    HW189133   2.356   0.342   9.150 -1.6115  2.5389 -0.7126
28960SOL    HW289134   2.461   0.393   9.053 -0.1013  1.4557  0.3006
28961SOL     OW89135   7.124   9.123   8.136 -0.2962 -0.1774  0.4641
28961SOL    HW189136   7.180   9.104   8.061  1.3477  0.2361  1.5408
28961SOL    HW289137   7.067   9.046   8.143  1.2953 -1.4259  0.3613
28962SOL     OW89138   6.835   7.571   8.859 -0.1700 -0.2903 -0.2727
28962SOL    HW189139   6.747   7.604   8.841 -0.5297 -1.4026 -0.5857
28962SOL    HW289140   6.850   7.504   8.792  0.5784 -0.7192  0.3136
28963SOL     OW89141   5.875   7.947   3.028 -0.3218 -0.0329 -0.1529
28963SOL    HW189142   5.882   8.008   2.954 -0.3729 -2.1586 -1.9867
28963SOL    HW289143   5.933   7.874   3.005 -0.5839 -0.8992  1.7759
28964SOL     OW89144   9.921   1.262   9.324 -0.0066  0.0152  0.7733
28964SOL    HW189145  10.000   1.285   9.373  1.0484  0.0616 -0.8687
28964SOL    HW289146   9.950   1.194   9.263 -0.9020  0.8944 -0.7040
28965SOL     OW89147   7.600   0.364   0.585  0.3069  0.0718 -0.0547
28965SOL    HW189148   7.594   0.444   0.533 -0.7569 -0.3200 -0.5634
28965SOL    HW289149   7.574   0.294   0.525 -2.2704 -0.2596  1.3129
28966SOL     OW89150   8.311   4.788   6.930 -0.3047  0.5605 -0.2802
28966SOL    HW189151   8.300   4.715   6.991 -0.0045  0.9674  0.2729
28966SOL    HW289152   8.402   4.782   6.902 -0.2797  0.7193 -0.2338
28967SOL     OW89153   0.526  10.343   5.895 -0.0551 -0.2036 -0.1247
28967SOL    HW189154   0.477  10.424   5.905 -0.1928 -0.3206  0.1435
28967SOL    HW289155   0.463  10.274   5.917  0.0432 -0.3877 -0.4090
28968SOL     OW89156   0.539   1.908   4.997 -0.1601  0.3208 -0.1752
28968SOL    HW189157   0.562   1.874   4.910  0.8124 -0.5118  0.3882
28968SOL    HW289158   0.619   1.949   5.029 -0.7813  1.4748 -0.0391
28969SOL     OW89159   2.543   2.509   6.449 -0.6835 -0.0474  0.2646
28969SOL    HW189160   2.628   2.474   6.423 -0.0520  1.0272  0.8025
28969SOL    HW289161   2.480   2.442   6.423  0.2521 -0.5412 -0.8033
28970SOL     OW89162   7.018   4.158   2.623  0.0189 -0.2587  0.1800
28970SOL    HW189163   6.996   4.084   2.566 -0.1624 -1.0495  1.2518
28970SOL    HW289164   7.081   4.122   2.685  2.4048  1.2989 -1.1853
28971SOL     OW89165   6.323   1.373   2.852  0.0367 -0.0213  0.2236
28971SOL    HW189166   6.286   1.447   2.899 -0.0589  0.5701 -0.7427
28971SOL    HW289167   6.281   1.296   2.891  1.0429  0.3110  2.0675
28972SOL     OW89168   0.952   9.408  10.293  0.0939  0.1748  0.2149
28972SOL    HW189169   0.977   9.355  10.368  1.8466 -0.2291 -0.6029
28972SOL    HW289170   1.033   9.422  10.245 -0.4477  2.8975 -0.0771
28973SOL     OW89171   5.694  10.058   0.258 -0.1070  0.1775  0.2770
28973SOL    HW189172   5.776  10.030   0.218 -0.6110 -0.3082 -0.4547
28973SOL    HW289173   5.665  10.131   0.204  0.2630  0.9074  1.0500
28974SOL     OW89174   9.851   0.941   8.207  0.2809 -0.5516 -0.0082
28974SOL    HW189175   9.937   0.917   8.243 -0.1678 -2.8166 -0.3264
28974SOL    HW289176   9.788   0.888   8.256 -0.7750 -0.2433 -0.9841
28975SOL     OW89177   6.267   2.621   3.638  0.3900  0.1919 -0.7187
28975SOL    HW189178   6.352   2.613   3.594  0.6371  1.5007 -0.5046
28975SOL    HW289179   6.288   2.644   3.728 -0.1852  1.1678 -0.8151
28976SOL     OW89180   5.059   7.702  10.057 -0.5676  0.1873 -0.0849
28976SOL    HW189181   5.034   7.631   9.999 -0.4961 -0.8701  1.1241
28976SOL    HW289182   5.022   7.678  10.142 -1.2689  2.0245  0.1800
28977SOL     OW89183  10.502   3.884   0.804  0.8134  0.5476  0.3175
28977SOL    HW189184  10.478   3.960   0.751  1.8874  0.7620  0.1036
28977SOL    HW289185  10.504   3.811   0.742  1.5228  0.6934  0.1571
28978SOL     OW89186   8.402   1.889   8.975 -0.2256 -0.1369  0.1660
28978SOL    HW189187   8.314   1.856   8.955  0.2772 -0.7254 -1.1946
28978SOL    HW289188   8.455   1.811   8.989  0.1107  0.2154  0.9098
28979SOL     OW89189   1.275   4.081   4.197  0.2337 -1.0582 -0.3911
28979SOL    HW189190   1.318   4.166   4.190 -1.5266 -0.2372 -2.5792
28979SOL    HW289191   1.330   4.031   4.257  2.2344  1.0573 -0.3175
28980SOL     OW89192  10.335   6.416   9.079 -0.4107  0.1307 -1.1396
28980SOL    HW189193  10.412   6.473   9.081 -0.5977  0.3728 -0.7477
28980SOL    HW289194  10.367   6.332   9.111 -0.6603  0.6733  0.6239
28981SOL     OW89195   1.748   7.203   8.856  0.6674 -0.0602  0.1332
28981SOL    HW189196   1.758   7.218   8.950  1.7292  2.8798 -0.3313
28981SOL    HW289197   1.830   7.160   8.830  1.5370  1.4470  0.2242
28982SOL     OW89198   7.282   3.129   8.354 -0.0464  0.2623 -0.7019
28982SOL    HW189199   7.340   3.108   8.427 -1.1091 -2.3356 -0.4966
28982SOL    HW289200   7.215   3.185   8.392  0.1030 -0.0491  0.0372
28983SOL     OW89201   5.943   7.589   6.914  0.5096  0.2429 -0.2687
28983SOL    HW189202   5.986   7.546   6.987  0.5852 -1.3600 -1.2145
28983SOL    HW289203   5.867   7.633   6.954  1.9218  1.5545  1.1210
28984SOL     OW89204   0.711   0.181   0.806  0.1402 -0.4298 -0.3234
28984SOL    HW189205   0.787   0.127   0.827  0.0186 -0.0816  1.0968
28984SOL    HW289206   0.652   0.169   0.880  0.3850  2.1506  0.3918
28985SOL     OW89207   8.125   3.786   6.705 -0.2204  0.1745  0.0159
28985SOL    HW189208   8.163   3.709   6.661 -1.0920 -0.6306  0.6133
28985SOL    HW289209   8.041   3.799   6.660 -0.3505  0.3907  0.3217
28986SOL     OW89210   6.367   4.969   8.778  0.4210 -0.4966  0.2414
28986SOL    HW189211   6.387   4.955   8.685  0.3754  0.2403  0.1117
28986SOL    HW289212   6.447   4.947   8.824  1.2794  1.4627 -0.1925
28987SOL     OW89213   7.641   4.985   7.515 -0.1644  0.2024  0.3248
28987SOL    HW189214   7.548   4.985   7.534 -0.0147 -0.9129  1.1786
28987SOL    HW289215   7.668   4.893   7.524  1.0498  0.5281  0.3011
28988SOL     OW89216   0.816   8.172   0.091  0.2090  0.9015 -0.5077
28988SOL    HW189217   0.725   8.201   0.092 -0.6475 -1.5179 -1.2866
28988SOL    HW289218   0.839   8.169  -0.002  0.6898  0.4112 -0.3782
28989SOL     OW89219   5.453   5.965   7.292 -0.4571 -0.3106 -0.3300
28989SOL    HW189220   5.494   5.889   7.251 -0.8100 -0.1466 -0.9963
28989SOL    HW289221   5.370   5.931   7.326  0.6592 -0.9108  2.0052
28990SOL     OW89222   1.956   4.367   3.360  0.0125 -0.0610 -0.2745
28990SOL    HW189223   1.910   4.429   3.415  1.0157  1.3637 -0.9600
28990SOL    HW289224   2.049   4.389   3.371  0.3325 -0.8199 -1.2571
28991SOL     OW89225   9.378   6.034   9.689 -0.2954 -0.5269 -0.0293
28991SOL    HW189226   9.419   6.018   9.774 -1.7369 -1.1702  0.5730
28991SOL    HW289227   9.294   5.989   9.694  0.0578 -1.5564 -2.2156
28992SOL     OW89228   7.939   8.848   8.318  0.3030 -0.4360 -0.0986
28992SOL    HW189229   8.007   8.807   8.264  1.6019  0.6063  0.6561
28992SOL    HW289230   7.864   8.790   8.311  1.3930 -1.8419 -0.6835
28993SOL     OW89231   2.752   6.679   9.775 -0.0117 -0.5696 -0.1035
28993SOL    HW189232   2.682   6.649   9.716  0.5303 -2.1743  0.0218
28993SOL    HW289233   2.705   6.711   9.852 -0.6342 -0.9398 -0.3168
28994SOL     OW89234   1.395   5.425   5.664 -0.0208 -0.2067  0.3139
28994SOL    HW189235   1.464   5.486   5.690  0.3062 -0.5133  0.1732
28994SOL    HW289236   1.317   5.455   5.711  0.6086 -0.8706  1.8314
28995SOL     OW89237   3.197   0.864   2.233  0.2369 -0.1052 -0.0696
28995SOL    HW189238   3.253   0.793   2.264 -3.0990 -2.6551  0.6534
28995SOL    HW289239   3.193   0.850   2.138  1.0724  0.3450 -0.1834
28996SOL     OW89240   7.072   5.011   2.792 -0.3227 -0.0287  0.2767
28996SOL    HW189241   6.982   5.041   2.779 -0.2275  0.3684  0.5155
28996SOL    HW289242   7.070   4.964   2.875 -0.2951  0.0395  0.3161
28997SOL     OW89243   3.157   4.953   3.429 -0.3918  0.2863 -0.2865
28997SOL    HW189244   3.199   5.025   3.382 -2.7306  2.6066  0.9321
28997SOL    HW289245   3.080   4.931   3.376 -1.6306  1.1894  1.0462
28998SOL     OW89246   2.352   6.645   7.320  0.4961 -0.3302 -0.2108
28998SOL    HW189247   2.272   6.619   7.366  0.9424  0.1301  0.8439
28998SOL    HW289248   2.396   6.562   7.299 -0.0341 -0.5664 -0.4081
28999SOL     OW89249   3.259  10.606   2.241  0.5492  0.3256  0.1037
28999SOL    HW189250   3.230  10.658   2.167 -0.1562 -0.0804  0.0895
28999SOL    HW289251   3.343  10.644   2.265  1.4292 -0.3194 -1.7100
29000SOL     OW89252   2.705   2.081   7.085  0.1797 -0.5042  0.2042
29000SOL    HW189253   2.652   2.070   7.006  1.4034 -0.8503 -0.5907
29000SOL    HW289254   2.660   2.029   7.151 -0.4800 -0.7791 -0.4482
29001SOL     OW89255   9.568   5.452  10.581  0.0459 -0.0703  0.1240
29001SOL    HW189256   9.642   5.511  10.563  1.4500 -1.8311 -0.1851
29001SOL    HW289257   9.532   5.433  10.494 -1.6544  1.7737  0.3582
29002SOL     OW89258   4.211   8.356   3.719 -0.6796  0.3144 -0.9628
29002SOL    HW189259   4.119   8.356   3.745 -0.2411  1.3536  0.7425
29002SOL    HW289260   4.213   8.408   3.638 -1.5311  0.6369 -0.7898
29003SOL     OW89261   8.795   9.490   1.102  0.0739 -0.1695  0.3440
29003SOL    HW189262   8.865   9.549   1.132  0.5151 -0.4778 -0.0659
29003SOL    HW289263   8.753   9.461   1.183  1.4253 -1.2080  0.7248
29004SOL     OW89264   5.933   8.934   7.502  0.0118  0.7004  0.3260
29004SOL    HW189265   5.844   8.945   7.468 -0.2556  0.5838  0.9725
29004SOL    HW289266   5.988   8.987   7.443 -0.3283 -0.0982 -0.7348
29005SOL     OW89267   4.437   4.177   1.030 -0.4951 -0.3295  0.6138
29005SOL    HW189268   4.355   4.157   0.985 -0.2848  0.5445 -0.2006
29005SOL    HW289269   4.500   4.193   0.959  0.8270 -2.5635  1.2062
29006SOL     OW89270   9.101   7.685   5.716 -0.0390  0.1096  0.2610
29006SOL    HW189271   9.090   7.626   5.791 -0.0915 -0.8712 -0.5031
29006SOL    HW289272   9.054   7.764   5.742 -0.1883 -0.2664  1.2068
29007SOL     OW89273   1.235   5.617   0.776  0.4614 -0.0166  0.2102
29007SOL    HW189274   1.219   5.536   0.727 -0.1529  0.1208  0.1659
29007SOL    HW289275   1.209   5.686   0.715 -0.4399  0.1540  0.7692
29008SOL     OW89276   7.045   1.897   1.616  0.3147  0.1722 -0.6959
29008SOL    HW189277   7.035   1.964   1.684 -0.3659 -0.7496  0.1529
29008SOL    HW289278   6.955   1.871   1.594  0.5651 -0.7898 -0.6534
29009SOL     OW89279   4.968   8.303   0.459  0.2628 -0.3601  0.4248
29009SOL    HW189280   5.017   8.382   0.482 -0.1050 -0.2260  0.7690
29009SOL    HW289281   5.034   8.242   0.428  0.6754 -0.2360  1.0272
29010SOL     OW89282   9.615   6.770   7.049  0.4909 -0.3787 -0.1954
29010SOL    HW189283   9.537   6.748   7.100  1.2859 -0.3714  1.0621
29010SOL    HW289284   9.582   6.822   6.975 -0.8919 -1.9506 -0.7443
29011SOL     OW89285   0.539   1.914   6.352 -0.0747  0.0870  0.0390
29011SOL    HW189286   0.612   1.972   6.375 -0.3887  0.4609  0.1097
29011SOL    HW289287   0.571   1.865   6.276 -0.2813  1.3118 -0.8612
29012SOL     OW89288   2.329   8.082   8.638 -0.4752  0.4067 -0.1769
29012SOL    HW189289   2.387   8.013   8.609  0.0596  1.0189 -0.5839
29012SOL    HW289290   2.322   8.142   8.564  0.7676  1.9035  0.8415
29013SOL     OW89291   7.282  10.545   1.567  0.0906 -0.0263 -0.3917
29013SOL    HW189292   7.195  10.563   1.532  0.6967  0.7884 -1.5594
29013SOL    HW289293   7.317  10.478   1.508  0.7140  0.5566 -0.6948
29014SOL     OW89294   0.943   0.904   6.694  0.3759 -0.0652  0.1537
29014SOL    HW189295   1.031   0.902   6.730  1.1534 -0.2671 -1.6910
29014SOL    HW289296   0.889   0.939   6.765  2.4680  3.4163  0.2349
29015SOL     OW89297   9.563   0.467   9.455  0.4204  0.3823  0.1184
29015SOL    HW189298   9.524   0.446   9.540  0.6621  1.3652  0.4832
29015SOL    HW289299   9.571   0.383   9.411 -1.0997  0.0122  0.4687
29016SOL     OW89300   9.077   2.195   8.055 -0.5147  0.3344 -0.3505
29016SOL    HW189301   8.991   2.200   8.098 -0.7971 -0.3202 -0.8344
29016SOL    HW289302   9.073   2.261   7.986 -0.4276  0.6813 -0.0277
29017SOL     OW89303   0.156   4.390   8.060 -0.3852 -0.3290 -0.1902
29017SOL    HW189304   0.113   4.315   8.101  0.6929 -0.8019  0.1018
29017SOL    HW289305   0.157   4.457   8.129  0.5883 -0.8016  0.2641
29018SOL     OW89306   5.407   4.837   7.454  0.1588 -0.4269 -0.1143
29018SOL    HW189307   5.420   4.795   7.369 -0.2254 -0.3129 -0.2276
29018SOL    HW289308   5.468   4.910   7.454 -0.2746 -0.0626 -0.5365
29019SOL     OW89309   6.807   4.436   2.348  0.4972  0.2001  0.4884
29019SOL    HW189310   6.801   4.396   2.435  2.1454 -1.3135 -0.0417
29019SOL    HW289311   6.901   4.444   2.331  0.2761 -0.8391 -1.6824
29020SOL     OW89312   7.018  10.624   1.499 -0.6321 -0.1872 -0.0651
29020SOL    HW189313   6.972  10.545   1.470  0.5921 -0.3816 -1.6409
29020SOL    HW289314   6.956  10.668   1.557 -1.9939 -1.4519 -0.4938
29021SOL     OW89315   3.261   2.726   8.179  0.0323 -0.1863 -1.1226
29021SOL    HW189316   3.333   2.705   8.238  0.1615  0.6566 -0.9702
29021SOL    HW289317   3.209   2.645   8.174  0.9839 -0.7975 -1.2418
29022SOL     OW89318  10.375   9.205   5.554  0.2029 -0.1285  0.4523
29022SOL    HW189319  10.281   9.192   5.547 -0.0806  0.5352  2.4944
29022SOL    HW289320  10.407   9.201   5.464 -1.8131 -0.0287 -0.2999
29023SOL     OW89321   7.177   6.716   0.121  0.2549  0.2844 -0.0448
29023SOL    HW189322   7.181   6.666   0.203 -1.1553  1.1189  0.5713
29023SOL    HW289323   7.215   6.657   0.056 -0.5893 -1.2644  0.7993
29024SOL     OW89324   3.048   5.091   7.394 -0.0525  0.3919  0.3764
29024SOL    HW189325   3.097   5.167   7.364 -0.0108  0.3251  0.2732
29024SOL    HW289326   3.115   5.035   7.435  0.0064  0.1694 -0.0192
29025SOL     OW89327   6.528   4.807   4.694 -0.2251  0.2480  0.2094
29025SOL    HW189328   6.510   4.720   4.658 -0.2582  0.7859 -1.1172
29025SOL    HW289329   6.621   4.820   4.681  0.0007 -0.0183  1.4275
29026SOL     OW89330   3.840   9.758   9.077 -0.4903 -0.1887  0.3589
29026SOL    HW189331   3.874   9.840   9.113 -0.4877 -0.3553  0.7298
29026SOL    HW289332   3.748   9.756   9.104 -0.3761 -0.5224  0.7179
29027SOL     OW89333   4.869   2.750   5.043 -0.1848  0.1604  0.4031
29027SOL    HW189334   4.786   2.793   5.063  0.5551  1.8152  0.0629
29027SOL    HW289335   4.896   2.710   5.127 -0.7131  0.6807  0.8272
29028SOL     OW89336   4.611   1.758   1.863  0.0373  0.3305  0.0915
29028SOL    HW189337   4.627   1.841   1.907  1.3619 -0.6451  1.5796
29028SOL    HW289338   4.517   1.758   1.845  0.1493  2.5089 -0.7679
29029SOL     OW89339   1.274   7.145   0.230  0.1925  0.7001  0.2753
29029SOL    HW189340   1.239   7.056   0.234 -0.4881  0.9339 -0.1976
29029SOL    HW289341   1.295   7.167   0.321  0.8508 -0.1258  0.3315
29030SOL     OW89342   0.466   8.794   6.483 -1.1192  0.2808 -1.0524
29030SOL    HW189343   0.507   8.778   6.568 -0.6361 -1.2961 -1.5366
29030SOL    HW289344   0.499   8.880   6.456 -0.9779  0.6281  0.1733
29031SOL     OW89345   5.569   6.621   6.242  0.1465  0.0628 -0.7823
29031SOL    HW189346   5.609   6.698   6.284  0.7036 -0.3581 -0.5280
29031SOL    HW289347   5.581   6.637   6.148  3.1057 -1.1284 -0.7309
29032SOL     OW89348   0.628   8.649   1.055 -0.3584  0.5974  0.9835
29032SOL    HW189349   0.703   8.630   0.998 -1.8730  1.4274 -1.4322
29032SOL    HW289350   0.661   8.715   1.117  1.0115  0.6257  0.2604
29033SOL     OW89351   4.759   8.409   1.494 -0.1529  0.2092 -0.7509
29033SOL    HW189352   4.759   8.481   1.431  2.1434  0.1093 -0.9279
29033SOL    HW289353   4.746   8.451   1.579 -1.3543  0.5259 -1.0622
29034SOL     OW89354   3.473   9.260   0.966  0.1238  0.8133  0.0998
29034SOL    HW189355   3.399   9.201   0.980  1.0047 -0.1512  0.7566
29034SOL    HW289356   3.524   9.255   1.046  2.1891 -0.3623 -1.2114
29035SOL     OW89357   0.031   0.140   4.492 -0.0900  0.1755 -0.2050
29035SOL    HW189358   0.006   0.058   4.449 -0.1214  0.1664 -0.1690
29035SOL    HW289359   0.041   0.202   4.420  1.4937 -0.2419 -0.3985
29036SOL     OW89360   2.943   8.512   3.543  0.1696  0.3923 -0.5027
29036SOL    HW189361   2.935   8.607   3.542  0.5544  0.5889  2.8772
29036SOL    HW289362   3.009   8.494   3.610  1.0602 -2.2583 -1.9387
29037SOL     OW89363   8.476   8.327   3.331 -0.3808 -0.4465 -0.2622
29037SOL    HW189364   8.570   8.341   3.341 -0.6514  1.1680  0.3343
29037SOL    HW289365   8.457   8.252   3.388  0.6712 -1.3760 -1.0985
29038SOL     OW89366   8.856   1.140   7.452  0.9055 -0.3453  0.1572
29038SOL    HW189367   8.815   1.111   7.533  2.6209 -0.8889  0.8835
29038SOL    HW289368   8.856   1.063   7.396 -1.9755  0.4872 -1.1900
29039SOL     OW89369   7.961  10.278   8.134 -0.1805  0.3529  0.3439
29039SOL    HW189370   7.943  10.239   8.219 -1.4537  1.1000  0.4411
29039SOL    HW289371   7.984  10.369   8.153 -2.4572  1.1001 -0.1889
29040SOL     OW89372   0.701   9.785   2.051 -0.4664 -0.0165  0.3974
29040SOL    HW189373   0.781   9.756   2.096 -0.8796 -1.0935  0.4489
29040SOL    HW289374   0.660   9.845   2.113  0.1282  0.2820  0.5121
29041SOL     OW89375   4.502   8.119   2.586 -0.0026 -0.0784  0.1238
29041SOL    HW189376   4.567   8.130   2.516 -0.0426 -0.0667  0.0885
29041SOL    HW289377   4.550   8.137   2.666 -0.0128  0.1248  0.0834
29042SOL     OW89378   3.369   5.192   3.564 -0.2732 -0.7633  0.3694
29042SOL    HW189379   3.336   5.153   3.483  1.2909 -1.1126 -0.1348
29042SOL    HW289380   3.463   5.176   3.562  0.3356  2.2671  0.5721
29043SOL     OW89381   2.960   3.698   1.393  0.7342 -0.4284 -0.5700
29043SOL    HW189382   2.902   3.750   1.448  1.0677  0.8533 -1.3969
29043SOL    HW289383   2.908   3.621   1.369 -0.3482  0.3123 -0.6570
29044SOL     OW89384   8.229   1.970   2.297  0.2360 -0.5424 -0.2840
29044SOL    HW189385   8.186   1.953   2.213  0.7166 -0.9550 -0.4537
29044SOL    HW289386   8.308   2.019   2.274 -0.3956  0.7031  0.0740
29045SOL     OW89387   6.032   9.380  10.488  0.0522 -0.2143 -0.5249
29045SOL    HW189388   5.957   9.394  10.430  0.6611 -0.1526 -1.3033
29045SOL    HW289389   6.069   9.467  10.500 -2.2128  0.4772  2.9943
29046SOL     OW89390   7.043   5.854   0.123 -0.5772  0.0435  0.2679
29046SOL    HW189391   7.120   5.884   0.171 -0.7212 -1.4058  1.4797
29046SOL    HW289392   6.972   5.855   0.188 -1.1157 -0.5572 -0.2902
29047SOL     OW89393   1.905   3.347   7.294  0.1192 -0.0910 -0.3519
29047SOL    HW189394   1.992   3.362   7.332  0.1778 -0.0288 -0.5090
29047SOL    HW289395   1.882   3.431   7.254  0.7101 -0.5777 -1.7738
29048SOL     OW89396   8.741  10.386   6.483  0.5017  0.0431  0.9855
29048SOL    HW189397   8.781  10.442   6.549  1.5589 -0.9562  1.2288
29048SOL    HW289398   8.655  10.364   6.518 -0.1780  1.9523  0.6118
29049SOL     OW89399   1.776   9.644   1.918 -0.0582  0.5428 -0.2275
29049SOL    HW189400   1.681   9.655   1.927 -0.1456  0.1875 -0.6719
29049SOL    HW289401   1.786   9.573   1.854  0.5038 -0.0040  0.4607
29050SOL     OW89402   8.893   0.149   7.953 -0.2219  0.5209  0.0283
29050SOL    HW189403   8.974   0.131   8.002 -0.0822  0.8183 -0.0874
29050SOL    HW289404   8.826   0.096   7.996  0.4223 -1.2759 -1.0739
29051SOL     OW89405   2.186   1.654   6.962  0.0828 -0.8871  0.2943
29051SOL    HW189406   2.249   1.664   7.033 -0.6211  0.2877  0.7791
29051SOL    HW289407   2.198   1.731   6.907  1.2243 -2.1909 -1.4073
29052SOL     OW89408   1.335   2.402   1.004 -0.3634  0.2807 -0.1848
29052SOL    HW189409   1.343   2.343   1.079  1.2162 -0.5622 -0.9676
29052SOL    HW289410   1.317   2.488   1.043 -2.3622 -0.5934  0.9980
29053SOL     OW89411   2.446   1.247   3.974 -0.4834  0.0910  0.1718
29053SOL    HW189412   2.480   1.304   3.905  1.4765 -0.8348  0.3128
29053SOL    HW289413   2.369   1.206   3.935  1.1591 -1.2164 -1.9482
29054SOL     OW89414   8.316   0.371   6.849 -0.1975 -0.1442  0.0814
29054SOL    HW189415   8.410   0.388   6.859 -0.0220  0.3782 -1.8520
29054SOL    HW289416   8.273   0.432   6.910  0.7074 -0.2842  0.8738
29055SOL     OW89417   4.074   0.448   8.740  1.1778 -0.0971 -0.2939
29055SOL    HW189418   3.999   0.507   8.728 -0.2120 -1.5813  0.7064
29055SOL    HW289419   4.074   0.393   8.661 -0.0497 -1.4011  0.5787
29056SOL     OW89420  10.451   2.801   0.352 -0.2480  0.4525 -0.5488
29056SOL    HW189421  10.382   2.822   0.415 -1.1590  2.8569 -2.1918
29056SOL    HW289422  10.448   2.706   0.343 -1.6852  0.2753  1.2139
29057SOL     OW89423   7.652   9.025   3.593 -0.3347  0.4277  0.7437
29057SOL    HW189424   7.665   8.937   3.627 -0.9707  0.5448  1.3145
29057SOL    HW289425   7.734   9.071   3.614  0.5544 -0.3935 -0.8063
29058SOL     OW89426  10.240   2.218   9.589 -0.1956  0.3933 -0.0427
29058SOL    HW189427  10.232   2.137   9.639  1.5394  0.8943  1.1604
29058SOL    HW289428  10.150   2.242   9.566 -0.6540 -3.1154 -2.6304
29059SOL     OW89429  10.298   1.784   4.976  0.6553 -0.6494  0.5837
29059SOL    HW189430  10.291   1.863   5.028  0.9660 -0.6897  0.6864
29059SOL    HW289431  10.377   1.796   4.923 -0.5313  0.1244 -1.1127
29060SOL     OW89432   9.306   7.581   4.462 -0.0834  0.5866 -0.1569
29060SOL    HW189433   9.282   7.595   4.553  1.8739 -1.0788  0.6766
29060SOL    HW289434   9.223   7.561   4.418 -0.7972 -0.8191  1.7234
29061SOL     OW89435   4.359   8.665   6.787  0.6284  0.5972 -0.4139
29061SOL    HW189436   4.420   8.723   6.741 -0.6372  0.4766 -2.3707
29061SOL    HW289437   4.310   8.621   6.717 -0.1103 -1.0396  1.0490
29062SOL     OW89438   6.865   9.653   1.089 -0.0260  0.3187 -0.9922
29062SOL    HW189439   6.942   9.626   1.040  0.9659 -1.2272  1.2396
29062SOL    HW289440   6.895   9.727   1.143 -0.0039 -0.3969  0.0086
29063SOL     OW89441   4.743  10.116  10.468  0.2402  0.1622  0.5046
29063SOL    HW189442   4.804  10.176  10.511  1.1784 -0.9080  0.7037
29063SOL    HW289443   4.682  10.174  10.421 -0.0189  1.3185  2.1810
29064SOL     OW89444  10.399  10.003   3.628  0.5817 -0.2126  0.1146
29064SOL    HW189445  10.344   9.933   3.664  1.0756 -0.2192  0.9000
29064SOL    HW289446  10.430   9.968   3.545 -0.6840 -0.1537 -0.4036
29065SOL     OW89447   7.490   0.034   1.434 -0.0510 -0.2510 -0.4494
29065SOL    HW189448   7.496  -0.052   1.477  2.5497 -0.1104 -0.4042
29065SOL    HW289449   7.455   0.092   1.502 -0.0882 -0.9036  0.1000
29066SOL     OW89450   6.719   8.469   5.357  0.4724  0.2639 -0.6264
29066SOL    HW189451   6.640   8.464   5.302  0.6037 -1.5695 -0.6942
29066SOL    HW289452   6.696   8.532   5.425 -1.4757 -0.9781 -0.0415
29067SOL     OW89453   4.594   7.494   6.233 -0.0830  0.1225 -0.2088
29067SOL    HW189454   4.541   7.415   6.225 -0.2097  0.1390  0.4709
29067SOL    HW289455   4.577   7.542   6.151 -0.4654 -0.2650 -0.3610
29068SOL     OW89456   4.119   4.711   9.944  0.5819 -0.0724  0.1558
29068SOL    HW189457   4.100   4.632   9.995 -0.0907 -0.9289 -1.3317
29068SOL    HW289458   4.033   4.749   9.926  0.8007  0.1987 -0.3282
29069SOL     OW89459   3.218   8.141   6.212 -0.1546  0.1294  0.3704
29069SOL    HW189460   3.126   8.166   6.215 -0.3230 -0.5582  1.3900
29069SOL    HW289461   3.218   8.052   6.179 -0.0071 -0.4647  1.8773
29070SOL     OW89462   4.713   8.065   2.295  0.2724 -0.5973  0.0762
29070SOL    HW189463   4.775   8.014   2.346  0.8526  1.2078  1.2613
29070SOL    HW289464   4.636   8.009   2.288  0.7717 -1.5309  1.5617
29071SOL     OW89465  10.221   5.006   0.648  0.0425  0.3274 -0.6738
29071SOL    HW189466  10.220   4.995   0.553 -1.9123  2.8201 -1.0422
29071SOL    HW289467  10.301   4.963   0.676  1.7109  1.1985 -3.6698
29072SOL     OW89468   3.092   0.020   3.660  0.3817  0.4813  0.4173
29072SOL    HW189469   3.019   0.080   3.648  0.7569  0.7892 -0.4162
29072SOL    HW289470   3.142   0.056   3.734  0.3058  0.8837  0.2699
29073SOL     OW89471   7.991   7.451   8.575  0.8035 -0.0739 -0.1284
29073SOL    HW189472   7.999   7.357   8.591 -3.2024 -0.2760  2.0272
29073SOL    HW289473   7.969   7.488   8.660 -4.7581  1.5791 -1.8431
29074SOL     OW89474   3.372   9.133   6.560 -0.0785  0.6593  0.3305
29074SOL    HW189475   3.458   9.144   6.519 -0.4846  1.3878 -0.3683
29074SOL    HW289476   3.363   9.210   6.616 -0.6059  1.0034 -0.2197
29075SOL     OW89477   7.349   8.154   1.446  0.1225 -0.5353  0.5347
29075SOL    HW189478   7.395   8.070   1.457 -0.3224 -0.8696 -0.1190
29075SOL    HW289479   7.345   8.166   1.351 -0.7696 -0.3019  0.5990
29076SOL     OW89480   4.536   2.596   6.344 -0.0992 -0.2886  0.2605
29076SOL    HW189481   4.464   2.570   6.402 -0.2398 -0.1199  0.1621
29076SOL    HW289482   4.547   2.522   6.285 -1.8848  0.6736 -1.3761
29077SOL     OW89483   6.943   2.891   5.841 -0.2970  0.1314 -0.2704
29077SOL    HW189484   6.972   2.804   5.867 -1.0254  0.4154  1.5840
29077SOL    HW289485   6.875   2.915   5.904  0.9771  2.6836  0.2774
29078SOL     OW89486   2.196   6.363   4.867  0.3150 -0.0728  0.3504
29078SOL    HW189487   2.151   6.378   4.950  0.4874  1.3927  0.2171
29078SOL    HW289488   2.242   6.280   4.879 -1.4078 -1.0101  0.9215
29079SOL     OW89489   4.294   1.591   1.133  0.5627 -0.1289  0.4277
29079SOL    HW189490   4.267   1.681   1.152 -1.0271  0.0197 -2.0142
29079SOL    HW289491   4.213   1.541   1.136  0.9759 -0.9266 -0.8751
29080SOL     OW89492   8.902   5.675   1.447 -0.1791  0.0825 -0.3636
29080SOL    HW189493   8.990   5.643   1.427 -0.0026  1.0338 -1.2004
29080SOL    HW289494   8.879   5.731   1.372 -1.8941 -0.9289 -0.6378
29081SOL     OW89495  10.591  10.234   0.159  0.1607 -0.3680  0.3273
29081SOL    HW189496  10.653  10.174   0.199  1.4207  0.3628 -0.4672
29081SOL    HW289497  10.538  10.178   0.101 -0.0508 -1.0150  1.1196
29082SOL     OW89498   2.294   3.488   0.177  0.1544  0.0478  0.0038
29082SOL    HW189499   2.354   3.491   0.251  0.0980  0.4766  0.0308
29082SOL    HW289500   2.233   3.560   0.191  1.2608  1.3170 -1.4039
29083SOL     OW89501   3.028  10.270   9.326 -0.0586  0.0190  0.9677
29083SOL    HW189502   3.063  10.339   9.271 -0.0309  0.3953  1.4441
29083SOL    HW289503   3.092  10.261   9.397  0.1228 -0.7516  0.7197
29084SOL     OW89504   0.859   9.529   3.391  0.5304  0.7570 -0.0498
29084SOL    HW189505   0.802   9.524   3.314 -1.5581  0.7667  1.4218
29084SOL    HW289506   0.931   9.468   3.372 -0.3672  0.1473 -1.6405
29085SOL     OW89507   2.309   9.517   2.193 -0.3153  0.4770  0.3496
29085SOL    HW189508   2.234   9.573   2.216  0.9565  2.4052  0.0431
29085SOL    HW289509   2.364   9.518   2.271  0.6310  1.2488 -0.3030
29086SOL     OW89510   3.137   9.043   3.795 -0.1779 -0.8057 -0.0664
29086SOL    HW189511   3.064   8.986   3.817 -0.6240 -0.8192 -1.4867
29086SOL    HW289512   3.185   8.996   3.728  0.9247 -0.6120  0.5586
29087SOL     OW89513   6.809  10.116   0.343 -0.4222 -0.1802  0.3615
29087SOL    HW189514   6.788  10.198   0.299  0.4851 -0.9445 -1.6091
29087SOL    HW289515   6.811  10.138   0.436 -2.1345  1.5664  0.0462
29088SOL     OW89516   2.119   7.969   2.190 -0.2462  0.2685 -0.3517
29088SOL    HW189517   2.060   8.038   2.158 -0.4731  1.9250  3.1939
29088SOL    HW289518   2.061   7.896   2.211 -1.4858  2.1551  3.8572
29089SOL     OW89519   1.636   9.375   8.750  0.1243 -0.1393  0.1176
29089SOL    HW189520   1.724   9.379   8.788  0.5093  2.1023 -0.8680
29089SOL    HW289521   1.580   9.347   8.823  1.6086 -1.6393  0.7651
29090SOL     OW89522   0.118   1.890   2.085  0.4792  0.4497  0.2331
29090SOL    HW189523   0.201   1.860   2.047  0.3301  0.9739 -0.5343
29090SOL    HW289524   0.091   1.819   2.143  1.1751  0.0235  0.0485
29091SOL     OW89525   8.682   7.770   3.607  0.4590  0.0571  0.4505
29091SOL    HW189526   8.610   7.747   3.549 -1.2865  1.2278  2.0529
29091SOL    HW289527   8.743   7.696   3.600 -1.7588 -1.8845  0.4147
29092SOL     OW89528   7.980   1.736   6.552 -0.3523 -0.6950  0.4102
29092SOL    HW189529   8.006   1.655   6.596  0.1190 -1.6021 -1.4167
29092SOL    HW289530   8.018   1.806   6.605  1.0626 -1.7622  0.8566
29093SOL     OW89531   7.005   8.368   6.580 -0.0596  0.5260 -0.3786
29093SOL    HW189532   6.955   8.293   6.550  1.6045 -0.2802 -1.3003
29093SOL    HW289533   7.027   8.416   6.500  2.2316 -0.2139 -0.2774
29094SOL     OW89534   5.780   2.165   0.680 -0.5978 -0.4718 -0.3328
29094SOL    HW189535   5.848   2.204   0.735 -0.8149  1.4408 -1.3248
29094SOL    HW289536   5.708   2.146   0.740 -0.3891  0.4821  0.2373
29095SOL     OW89537   5.938   5.330   3.891 -0.6563  0.0671  0.5072
29095SOL    HW189538   5.977   5.416   3.880 -0.1708 -0.0837  0.9830
29095SOL    HW289539   6.012   5.273   3.914 -0.4984 -1.0469 -2.4037
29096SOL     OW89540   8.181   7.613   3.460 -0.4830 -0.0372 -0.0265
29096SOL    HW189541   8.232   7.632   3.539 -1.4381  0.5860  0.4681
29096SOL    HW289542   8.115   7.682   3.458 -1.3035 -0.8272 -0.6351
29097SOL     OW89543   3.814   3.674   6.963  0.3570 -0.0273  0.5319
29097SOL    HW189544   3.874   3.748   6.951  1.2360 -0.9125 -0.7561
29097SOL    HW289545   3.793   3.645   6.874  2.6561 -3.3779  0.9316
29098SOL     OW89546   3.386   0.803   1.579 -0.2089  0.0448 -0.5263
29098SOL    HW189547   3.468   0.791   1.531 -0.5197 -1.6442 -0.6719
29098SOL    HW289548   3.356   0.715   1.599 -2.1933  0.5966 -0.8235
29099SOL     OW89549   0.741   6.404  10.562 -0.2505  0.2954  0.0437
29099SOL    HW189550   0.691   6.369  10.635  1.8501  0.5729  1.7241
29099SOL    HW289551   0.731   6.499  10.569  0.3668  0.3455  0.3028
29100SOL     OW89552   3.700   4.902   9.182  0.0399 -0.1027 -0.4190
29100SOL    HW189553   3.723   4.921   9.091  1.0762 -2.1994 -0.6679
29100SOL    HW289554   3.634   4.833   9.176 -1.0309  0.8267  0.4267
29101SOL     OW89555   1.226   9.449   5.385 -0.3205  0.1343 -0.7283
29101SOL    HW189556   1.175   9.383   5.338 -4.0007  1.3061  1.1921
29101SOL    HW289557   1.279   9.399   5.447 -2.5411 -1.1697  0.2549
29102SOL     OW89558   0.711   3.866   2.267 -0.2643 -0.2874 -0.5594
29102SOL    HW189559   0.727   3.800   2.199  2.6462 -0.2446 -0.0791
29102SOL    HW289560   0.664   3.820   2.336  1.5408 -1.9178 -0.3176
29103SOL     OW89561   8.658   3.746  10.071  0.0691 -0.5132 -0.1966
29103SOL    HW189562   8.589   3.709  10.126  0.8147 -0.8737  0.5188
29103SOL    HW289563   8.620   3.747   9.983 -0.3439 -2.0564 -0.0784
29104SOL     OW89564   8.564   8.930   8.324 -0.8970 -0.4762  0.1456
29104SOL    HW189565   8.659   8.925   8.327 -0.7131  1.8322  2.4043
29104SOL    HW289566   8.534   8.853   8.372 -0.1529 -0.8964 -0.0600
29105SOL     OW89567   1.144   7.820  10.634 -0.4333 -0.3394  0.4164
29105SOL    HW189568   1.136   7.732  10.598  1.5852 -0.6283  0.5450
29105SOL    HW289569   1.232   7.822  10.672 -1.2675  0.9909  2.4786
29106SOL     OW89570   9.800   1.485   6.873 -0.1895  0.1984 -0.5560
29106SOL    HW189571   9.763   1.446   6.952 -0.6026  1.6526  0.0088
29106SOL    HW289572   9.833   1.570   6.902  1.0740  0.1098 -1.6440
29107SOL     OW89573   7.379   6.958   1.181  0.3276  0.1596  0.3726
29107SOL    HW189574   7.453   7.016   1.201 -0.2618  1.5891 -1.3355
29107SOL    HW289575   7.415   6.896   1.117  0.5561 -0.4420  1.0683
29108SOL     OW89576   3.993   2.384   8.881 -0.4408 -0.0065 -0.3088
29108SOL    HW189577   4.055   2.374   8.808 -0.8662 -0.8007 -0.5639
29108SOL    HW289578   4.006   2.306   8.935 -1.0556 -0.0607 -0.2343
29109SOL     OW89579   5.717  10.240   7.983  0.3322  0.3099  0.1678
29109SOL    HW189580   5.693  10.233   7.891  0.9577 -1.2832  0.0931
29109SOL    HW289581   5.654  10.182   8.028  0.9157 -0.0391  0.5521
29110SOL     OW89582   0.776  10.309   6.197 -0.3904  0.5205 -0.1542
29110SOL    HW189583   0.752  10.285   6.286 -0.1574  2.0517  0.3357
29110SOL    HW289584   0.761  10.229   6.146 -1.7189 -0.0070  1.0220
29111SOL     OW89585   9.678   6.442   8.027  0.4319  0.5905  0.4597
29111SOL    HW189586   9.693   6.357   8.067 -0.5155  0.5539  0.7482
29111SOL    HW289587   9.664   6.501   8.101 -2.1225  0.3743  0.2388
29112SOL     OW89588   4.834   2.303   7.031 -0.1343  0.4035 -0.2184
29112SOL    HW189589   4.852   2.242   6.959 -0.9665  0.4677 -0.4884
29112SOL    HW289590   4.774   2.257   7.088  0.7743  0.2353  0.6234
29113SOL     OW89591   6.865   2.899   4.522 -0.5574 -0.8938 -0.6780
29113SOL    HW189592   6.850   2.937   4.436 -1.8261 -0.0387 -0.1055
29113SOL    HW289593   6.931   2.955   4.562 -0.2570 -1.0568 -0.9419
29114SOL     OW89594   8.393   4.268   7.531  0.4415  0.0381 -0.1505
29114SOL    HW189595   8.354   4.291   7.447  0.8016  0.7146 -0.1374
29114SOL    HW289596   8.336   4.200   7.566 -0.0657  0.1982 -0.6589
29115SOL     OW89597   7.568   8.613   2.608 -0.9318 -0.6723  0.2240
29115SOL    HW189598   7.552   8.562   2.529  0.2752  0.4039 -0.7728
29115SOL    HW289599   7.533   8.700   2.588 -1.1068 -0.5353  1.0867
29116SOL     OW89600   4.795   3.310   1.394 -0.2742  0.7163 -0.2672
29116SOL    HW189601   4.731   3.370   1.354 -0.9705 -0.1847 -0.5307
29116SOL    HW289602   4.835   3.265   1.319 -0.1249  0.4839 -0.0484
29117SOL     OW89603   1.666   1.338   7.691  0.6406  0.3874  0.6117
29117SOL    HW189604   1.612   1.282   7.747  2.6179 -1.0090  1.2238
29117SOL    HW289605   1.645   1.312   7.602 -1.3290  1.4783  0.7016
29118SOL     OW89606   4.398   8.121   8.219 -0.0235 -0.4192 -0.0246
29118SOL    HW189607   4.375   8.194   8.162 -0.3664 -1.0706 -0.7366
29118SOL    HW289608   4.350   8.046   8.183  0.1933 -0.9634  0.7887
29119SOL     OW89609  10.254   5.642   6.524 -0.5325 -0.0991 -0.0234
29119SOL    HW189610  10.231   5.608   6.438 -0.5062 -1.2090  0.3769
29119SOL    HW289611  10.262   5.736   6.513 -3.6167  0.1962 -0.5683
29120SOL     OW89612   5.013  10.552   5.027 -0.0971 -0.0340 -0.1740
29120SOL    HW189613   4.941  10.510   4.981 -1.3285  2.1401 -0.3730
29120SOL    HW289614   5.047  10.485   5.086 -2.8026 -0.9008  0.5092
29121SOL     OW89615   5.632   8.793   2.946 -0.2202 -0.4583  0.0044
29121SOL    HW189616   5.569   8.811   3.015 -0.0783 -1.1650  0.3260
29121SOL    HW289617   5.662   8.704   2.963  0.3614 -0.3758 -0.5431
29122SOL     OW89618   8.836   4.551   8.798 -0.2500 -0.2381  0.4049
29122SOL    HW189619   8.816   4.594   8.881 -1.0040 -0.0727  0.1429
29122SOL    HW289620   8.890   4.614   8.750  2.9604 -1.5530  2.0202
29123SOL     OW89621   8.599   5.557   4.827  0.1471 -0.4971  0.0047
29123SOL    HW189622   8.550   5.573   4.746 -1.2154 -0.4282  0.8141
29123SOL    HW289623   8.627   5.644   4.856  1.2445 -0.5826 -0.7300
29124SOL     OW89624   9.014   5.417   7.256 -0.0083 -0.4153  0.0148
29124SOL    HW189625   8.944   5.363   7.294  0.9588 -1.3989  0.4740
29124SOL    HW289626   8.968   5.487   7.209 -1.3359 -1.8186 -0.8893
29125SOL     OW89627   2.803   4.934   8.862  0.2263 -0.2273  0.2525
29125SOL    HW189628   2.755   4.851   8.856 -2.5274  0.9220  3.3476
29125SOL    HW289629   2.892   4.908   8.884 -0.7608 -2.4301  2.1225
29126SOL     OW89630   7.834   2.114   0.570  0.4889 -0.3153  0.1767
29126SOL    HW189631   7.819   2.061   0.492  2.3406 -0.0199 -0.4196
29126SOL    HW289632   7.846   2.050   0.640 -1.1328 -0.5822  0.2418
29127SOL     OW89633   8.702   3.244   8.409  0.1202 -0.2249 -0.1767
29127SOL    HW189634   8.655   3.322   8.440  0.2368  0.5764 -1.8552
29127SOL    HW289635   8.648   3.211   8.337  2.1016  0.8475 -2.3058
29128SOL     OW89636   8.458   3.483   7.955  0.1332  0.4271  0.1835
29128SOL    HW189637   8.454   3.570   7.995 -0.2897  0.6261 -0.2786
29128SOL    HW289638   8.367   3.453   7.957 -0.2485  1.2183 -2.3166
29129SOL     OW89639   4.252  10.260   6.935 -0.3190 -0.0203  0.0600
29129SOL    HW189640   4.254  10.218   7.021 -1.5596 -2.6480 -1.0776
29129SOL    HW289641   4.179  10.322   6.940 -1.7287 -1.6148  0.3731
29130SOL     OW89642   3.441   7.219   4.844  0.1955  0.3588 -0.1635
29130SOL    HW189643   3.346   7.204   4.839  0.4079 -1.2469  0.0038
29130SOL    HW289644   3.468   7.169   4.921  1.4700 -0.9513 -1.4184
29131SOL     OW89645   4.637   1.325   8.828  0.3948 -0.0283 -0.8288
29131SOL    HW189646   4.632   1.263   8.901 -0.5436  0.1622 -0.7272
29131SOL    HW289647   4.618   1.272   8.751  2.8372 -0.5576 -1.1559
29132SOL     OW89648   1.299   5.293   2.986 -0.1608  0.0703  0.1997
29132SOL    HW189649   1.251   5.215   3.015  1.0760 -0.6901  0.2683
29132SOL    HW289650   1.307   5.346   3.065 -1.2525  0.4250  0.0942
29133SOL     OW89651   2.413   5.060   0.226  0.0282 -0.3621 -0.1725
29133SOL    HW189652   2.410   5.145   0.184 -1.1599 -0.6647 -0.7608
29133SOL    HW289653   2.323   5.043   0.253  0.1484 -1.5977 -0.4438
29134SOL     OW89654   1.930   0.747   2.802 -0.1475 -0.1802  0.7855
29134SOL    HW189655   1.907   0.839   2.787  0.6944 -0.2662 -1.4951
29134SOL    HW289656   1.847   0.701   2.796 -0.3053  0.2216 -0.4009
29135SOL     OW89657   9.910   8.373   6.375 -0.7668 -0.4160 -0.0915
29135SOL    HW189658   9.848   8.427   6.425  0.7481  1.0322  0.3219
29135SOL    HW289659   9.912   8.289   6.421 -1.3022  0.0372  0.7877
29136SOL     OW89660   6.527   0.702   4.526 -0.3773  0.1647 -0.3719
29136SOL    HW189661   6.433   0.686   4.514 -0.5790 -0.0909  1.3471
29136SOL    HW289662   6.531   0.787   4.569  0.1044 -0.3591  0.6371
29137SOL     OW89663   1.661   0.574   9.783  0.3335  0.9470  0.2329
29137SOL    HW189664   1.630   0.532   9.864  0.1616  1.0740  0.2354
29137SOL    HW289665   1.703   0.504   9.734  0.4918  0.8807  0.4590
29138SOL     OW89666   0.534   1.413   5.444 -0.2392  0.4622 -0.0763
29138SOL    HW189667   0.593   1.388   5.515 -0.3126  0.1505 -0.1246
29138SOL    HW289668   0.590   1.419   5.367 -0.3021 -0.0336 -0.1639
29139SOL     OW89669   2.582   8.736  10.442  0.1295 -0.8739 -0.1457
29139SOL    HW189670   2.644   8.698  10.505 -0.0455  0.2928  0.7708
29139SOL    HW289671   2.499   8.691  10.461 -1.0107  2.2285  3.4167
29140SOL     OW89672   2.319   6.715   9.326 -0.0985  0.4826  0.2288
29140SOL    HW189673   2.265   6.747   9.254  0.9647 -1.8110 -1.7274
29140SOL    HW289674   2.273   6.637   9.358  1.3658 -0.8159 -0.6800
29141SOL     OW89675   0.773   1.222   2.747  0.0304 -0.1667  0.2969
29141SOL    HW189676   0.849   1.237   2.804  0.3303  0.0465 -0.1516
29141SOL    HW289677   0.736   1.139   2.778 -0.5006  0.5093  1.5413
29142SOL     OW89678   0.314   5.796   7.117  0.2192 -0.2709 -0.3971
29142SOL    HW189679   0.369   5.862   7.075  1.8712 -1.7473 -0.6808
29142SOL    HW289680   0.369   5.759   7.186 -0.1738 -2.2025 -1.0479
29143SOL     OW89681  10.363   8.714   3.423  0.1165  0.1446  0.2979
29143SOL    HW189682  10.363   8.723   3.518 -0.2202 -2.2264  0.5718
29143SOL    HW289683  10.292   8.652   3.404  0.4662  0.2276 -1.4578
29144SOL     OW89684   2.308   3.668   2.394  0.5475  0.3237  0.2007
29144SOL    HW189685   2.227   3.633   2.356  0.1766 -0.2488  1.4662
29144SOL    HW289686   2.334   3.738   2.334  1.1485 -1.8503 -2.2739
29145SOL     OW89687   1.692   5.678   3.980  0.1025  0.1720 -0.1065
29145SOL    HW189688   1.661   5.657   3.892  0.5937  0.5473 -0.3749
29145SOL    HW289689   1.777   5.635   3.986  0.6671  1.2317 -0.3005
29146SOL     OW89690   0.264  10.060   6.615  0.3085 -0.1329  0.0159
29146SOL    HW189691   0.308  10.116   6.679 -1.3515  1.8547 -0.4769
29146SOL    HW289692   0.279   9.971   6.647  0.6810  0.7163  2.4133
29147SOL     OW89693   5.535   1.281  10.335  0.4475 -0.0050 -0.0258
29147SOL    HW189694   5.608   1.253  10.391  2.1713  0.2723 -1.9796
29147SOL    HW289695   5.466   1.217  10.351  0.8349  0.0813  2.3660
29148SOL     OW89696   2.150   1.641   5.938 -0.2609  0.0947  0.2162
29148SOL    HW189697   2.242   1.620   5.921  0.1753  1.9737  0.0350
29148SOL    HW289698   2.141   1.637   6.033  0.0971  0.2474  0.2576
29149SOL     OW89699   1.928  10.453   9.495 -0.1020 -0.4405 -0.3068
29149SOL    HW189700   1.889  10.392   9.558  0.9259 -1.7597 -0.8915
29149SOL    HW289701   1.993  10.401   9.448  1.7440  1.4105  0.0239
29150SOL     OW89702   8.656   0.572   2.494 -0.3523  0.0101 -0.0666
29150SOL    HW189703   8.689   0.505   2.433  0.6491 -0.7862  1.2882
29150SOL    HW289704   8.568   0.542   2.518  0.0126 -0.7243  0.3721
29151SOL     OW89705   9.818   1.310   2.765  0.3871 -0.2859 -0.2610
29151SOL    HW189706   9.816   1.348   2.853  1.0005  0.5837 -0.6091
29151SOL    HW289707   9.909   1.317   2.737  0.2771 -0.9316 -0.8131
29152SOL     OW89708   9.997   5.417   8.933  0.4491 -0.0133 -0.2283
29152SOL    HW189709   9.936   5.467   8.880  1.4604  0.9896 -0.4994
29152SOL    HW289710   9.980   5.445   9.023  0.2476 -0.0217 -0.2643
29153SOL     OW89711   3.519   5.248   5.812 -0.2625  0.4613  0.0060
29153SOL    HW189712   3.451   5.306   5.848 -0.7715 -0.5739  0.7797
29153SOL    HW289713   3.484   5.221   5.727  0.3966  1.9726 -0.7831
29154SOL     OW89714   8.911   1.950   6.589  0.1145  0.5564 -0.2327
29154SOL    HW189715   8.825   1.951   6.549 -0.3822 -0.4691  0.7321
29154SOL    HW289716   8.970   1.920   6.520 -0.7639 -1.4370 -0.1976
29155SOL     OW89717   1.646   5.949   1.495  0.6087 -0.0031 -0.5669
29155SOL    HW189718   1.651   5.866   1.446  2.5105  0.2109 -0.8208
29155SOL    HW289719   1.737   5.967   1.521  0.1022  1.5547  0.2545
29156SOL     OW89720   2.289   2.668   4.544 -0.1695 -0.5366  0.9649
29156SOL    HW189721   2.258   2.577   4.539 -1.8971  0.1096 -0.5832
29156SOL    HW289722   2.370   2.668   4.492 -0.3746 -1.0982  0.6358
29157SOL     OW89723   6.769   6.093   3.378 -0.0245 -0.0142 -0.0211
29157SOL    HW189724   6.847   6.139   3.408 -0.4282 -0.2931  1.5416
29157SOL    HW289725   6.796   6.050   3.297  0.8889  1.4110 -0.5119
29158SOL     OW89726  10.645   4.268  10.513 -0.4335 -0.9550 -0.0232
29158SOL    HW189727  10.591   4.304  10.584  0.2030 -0.4540  0.2177
29158SOL    HW289728  10.727   4.244  10.555  0.0482 -0.4206 -0.6278
29159SOL     OW89729   3.171   0.984   1.051 -0.0082 -0.1171  0.1751
29159SOL    HW189730   3.108   1.036   1.100  1.0591  0.7055  0.7358
29159SOL    HW289731   3.121   0.947   0.979 -0.7874  1.8936 -0.3856
29160SOL     OW89732   3.962   4.397   6.867  0.1855 -0.5512 -0.4305
29160SOL    HW189733   3.998   4.328   6.924  0.9071 -0.4662 -0.7827
29160SOL    HW289734   4.033   4.459   6.857 -0.0763 -0.3592 -1.1048
29161SOL     OW89735   8.983   6.693   8.221  0.8381 -0.1185  0.2919
29161SOL    HW189736   8.920   6.632   8.183  1.3948  0.0410 -0.9509
29161SOL    HW289737   9.030   6.641   8.286  0.0463 -0.4884  0.5712
29162SOL     OW89738   4.464   3.870   4.702 -0.7488 -0.3546  0.2251
29162SOL    HW189739   4.520   3.945   4.721 -0.4165 -0.7946  1.0353
29162SOL    HW289740   4.437   3.837   4.788 -2.2788 -0.1451 -0.1450
29163SOL     OW89741   4.579   4.201   0.795  0.1219  0.2100 -0.6750
29163SOL    HW189742   4.602   4.113   0.767 -0.6973 -0.2050 -0.0794
29163SOL    HW289743   4.661   4.240   0.825  0.4751 -0.3704 -0.8903
29164SOL     OW89744   3.030   0.669   0.901 -0.0930 -0.2846 -1.0063
29164SOL    HW189745   3.070   0.603   0.845  0.1843 -0.4358 -0.6326
29164SOL    HW289746   2.936   0.655   0.891 -0.0978  0.6312 -2.5629
29165SOL     OW89747   0.951   7.792   7.994 -0.4174  0.7989 -0.1865
29165SOL    HW189748   0.909   7.857   7.938  0.2219  3.7301  2.4259
29165SOL    HW289749   1.039   7.784   7.957 -0.9296  0.2968 -1.3569
29166SOL     OW89750   4.604  10.094   8.993 -0.1888 -0.6691  0.4580
29166SOL    HW189751   4.689  10.097   9.037  0.0216 -1.7213  0.1562
29166SOL    HW289752   4.584  10.000   8.986 -0.8178 -0.4746 -0.5220
29167SOL     OW89753   7.852   9.566   4.807 -0.1208  0.5021 -0.1614
29167SOL    HW189754   7.947   9.550   4.811  0.0285  1.3571  0.0327
29167SOL    HW289755   7.826   9.532   4.721 -0.1174 -2.0409  0.7655
29168SOL     OW89756   4.708   2.725   4.770  0.5599 -0.4366 -0.0508
29168SOL    HW189757   4.759   2.806   4.773 -1.3531  0.8720 -0.4845
29168SOL    HW289758   4.645   2.734   4.842  0.2343 -1.5002 -0.1812
29169SOL     OW89759  10.323   5.715   3.389 -0.1788  0.1556 -0.9207
29169SOL    HW189760  10.410   5.687   3.418  0.5872  2.3079 -0.9862
29169SOL    HW289761  10.317   5.807   3.416 -2.3684  0.1144 -1.1067
29170SOL     OW89762   2.600   3.812   1.408 -0.1408  0.9109 -0.1872
29170SOL    HW189763   2.511   3.849   1.417 -1.0924 -1.3221  0.2339
29170SOL    HW289764   2.636   3.856   1.331 -1.2482  2.5490  0.1665
29171SOL     OW89765  10.069   1.258   6.622 -0.0696  0.2609 -0.5400
29171SOL    HW189766  10.108   1.172   6.604  2.0201  0.6493  1.7050
29171SOL    HW289767   9.975   1.241   6.624  0.2670 -1.9125 -0.4338
29172SOL     OW89768   4.824   7.963   9.366  0.0555 -0.6016  0.0622
29172SOL    HW189769   4.791   8.053   9.368 -1.8878 -1.1934 -1.8724
29172SOL    HW289770   4.891   7.963   9.299 -0.4921 -0.7329 -0.4959
29173SOL     OW89771   8.642   7.764   5.145  0.3849 -0.6316 -0.0733
29173SOL    HW189772   8.702   7.790   5.215 -1.6272 -0.8007  1.8312
29173SOL    HW289773   8.602   7.683   5.177 -2.2081  0.4474 -0.2987
29174SOL     OW89774   0.727   3.831   3.457 -0.1097 -0.0473 -0.0137
29174SOL    HW189775   0.776   3.908   3.486 -0.5069  0.8496 -1.5930
29174SOL    HW289776   0.677   3.861   3.381 -0.3078 -1.8554 -0.6617
29175SOL     OW89777   2.277   6.735   8.368 -0.3554 -0.1431  0.2838
29175SOL    HW189778   2.194   6.743   8.415 -0.8432 -0.9013 -0.4027
29175SOL    HW289779   2.338   6.699   8.433 -0.2403  1.4833  1.1107
29176SOL     OW89780   3.129   8.429   0.347  0.0713 -0.3095 -0.1507
29176SOL    HW189781   3.221   8.406   0.360  0.2303  0.1124 -0.5249
29176SOL    HW289782   3.080   8.356   0.387  0.5622 -0.4341  0.2338
29177SOL     OW89783   3.882   2.027  10.303 -0.3665  0.5461 -0.0633
29177SOL    HW189784   3.965   1.983  10.322 -0.0471  1.3575  0.4532
29177SOL    HW289785   3.893   2.063  10.215 -0.5742 -0.2526 -0.4279
29178SOL     OW89786   1.469   9.035   9.231  0.1973 -0.2205  0.0554
29178SOL    HW189787   1.426   8.951   9.248  1.1694 -0.5356  1.0318
29178SOL    HW289788   1.450   9.088   9.309 -0.3665  0.4649 -0.5316
29179SOL     OW89789   6.235   1.163   8.385  1.2855 -0.4014 -0.0123
29179SOL    HW189790   6.290   1.085   8.401  2.1867 -0.1033 -1.4856
29179SOL    HW289791   6.200   1.150   8.297 -1.7318 -0.9466  1.1658
29180SOL     OW89792   3.665   8.011   9.354 -0.3813  0.3530 -0.0095
29180SOL    HW189793   3.724   7.943   9.320 -0.2995 -0.5890  1.8612
29180SOL    HW289794   3.577   7.976   9.340 -0.4016  0.5734 -0.4436
29181SOL     OW89795   1.916   4.774   2.005 -0.0916 -0.1536 -0.1589
29181SOL    HW189796   1.957   4.843   2.057  0.8899 -1.7356  1.2847
29181SOL    HW289797   1.847   4.819   1.955  1.8211  2.1923 -0.8693
29182SOL     OW89798   0.973   9.612   6.215 -0.7568 -0.3452  0.1665
29182SOL    HW189799   1.064   9.607   6.186 -0.8495 -2.6786  0.0917
29182SOL    HW289800   0.979   9.641   6.306  0.0011  0.2437 -0.0578
29183SOL     OW89801   3.836   4.331  10.191  0.2844 -0.3280  0.2698
29183SOL    HW189802   3.751   4.371  10.212 -0.2235 -1.0524 -0.3297
29183SOL    HW289803   3.897   4.404  10.190 -0.9854  0.9172 -3.0073
29184SOL     OW89804   1.629  10.136   1.239 -0.3340  0.6047 -0.1070
29184SOL    HW189805   1.659  10.201   1.304  0.6997  1.7060 -1.6118
29184SOL    HW289806   1.701  10.073   1.235 -0.8419 -0.0229  0.5325
29185SOL     OW89807   2.534   6.152   1.562 -0.7645  0.1236  0.2014
29185SOL    HW189808   2.540   6.133   1.469  2.5202 -2.9471  0.8013
29185SOL    HW289809   2.482   6.080   1.598  1.9744 -1.6002  1.1163
29186SOL     OW89810   2.951   6.259   5.543  0.3689 -0.1439 -0.2141
29186SOL    HW189811   3.046   6.247   5.544  0.4541  0.5795  0.9816
29186SOL    HW289812   2.917   6.174   5.514  1.3270 -0.7198  0.3173
29187SOL     OW89813   4.237   9.522   6.631 -0.0646 -0.4922 -0.3442
29187SOL    HW189814   4.304   9.585   6.660  0.9699 -0.9432 -1.6161
29187SOL    HW289815   4.165   9.532   6.693 -0.1578  2.3253 -0.7863
29188SOL     OW89816  10.506   1.159   0.366  0.0506  0.0703 -0.5041
29188SOL    HW189817  10.465   1.122   0.289 -0.7937  0.9399 -0.4907
29188SOL    HW289818  10.588   1.198   0.334  1.5070 -2.5929 -0.3599
29189SOL     OW89819   7.565   2.449   1.115  0.0346 -0.0719 -0.0581
29189SOL    HW189820   7.575   2.407   1.030  1.3080  0.3629 -0.1344
29189SOL    HW289821   7.589   2.541   1.101 -1.4308  0.4159  0.3979
29190SOL     OW89822   6.773   2.964   3.448 -0.1503 -0.1348  0.7334
29190SOL    HW189823   6.831   2.904   3.496  0.1806 -0.3239  0.1152
29190SOL    HW289824   6.685   2.942   3.479  0.0999  0.1135  1.6363
29191SOL     OW89825   6.139   3.918   2.760 -0.4418  0.2502  0.3731
29191SOL    HW189826   6.092   3.864   2.696 -0.2589 -0.3143  0.7096
29191SOL    HW289827   6.082   3.918   2.837  0.2059 -0.6375  0.8677
29192SOL     OW89828   8.748   1.329   5.036  0.3596  0.0882 -0.3905
29192SOL    HW189829   8.786   1.267   4.974  1.8149  1.6464 -1.1406
29192SOL    HW289830   8.785   1.304   5.121  1.7810  0.5143 -0.8495
29193SOL     OW89831   5.067   8.725   2.102 -0.0189  0.1419  0.2251
29193SOL    HW189832   5.014   8.645   2.098  0.7192 -0.3500 -0.0059
29193SOL    HW289833   5.038   8.769   2.182 -0.3031 -0.4580  0.4577
29194SOL     OW89834   6.859   1.980   7.482 -0.0576 -0.2936  0.1036
29194SOL    HW189835   6.912   1.986   7.561  2.3995  0.1232 -1.4786
29194SOL    HW289836   6.871   1.890   7.452 -1.7594 -0.7432  0.6590
29195SOL     OW89837   2.658   8.350   5.251 -0.0467  0.1310 -0.2330
29195SOL    HW189838   2.625   8.323   5.165 -0.9463  0.4715 -0.0103
29195SOL    HW289839   2.742   8.305   5.259  0.1598  0.2602 -1.3757
29196SOL     OW89840   7.885   6.071   5.437  0.1701  0.6054  0.2544
29196SOL    HW189841   7.949   6.142   5.444  1.1185 -0.1922 -0.0974
29196SOL    HW289842   7.880   6.052   5.343  1.4000 -1.0654  0.4807
29197SOL     OW89843   5.655   6.896   2.361 -0.1032 -0.1739  0.7389
29197SOL    HW189844   5.739   6.890   2.314 -0.4330 -2.4169  0.2991
29197SOL    HW289845   5.680   6.912   2.452  0.8282 -0.8781  0.6260
29198SOL     OW89846   4.321   0.294   9.207 -0.3200 -0.0436  0.6748
29198SOL    HW189847   4.246   0.353   9.214 -0.2556  0.1913 -0.4630
29198SOL    HW289848   4.283   0.209   9.187 -0.2885  0.1122 -0.0850
29199SOL     OW89849   7.412   0.467   9.328  0.2716  0.2527 -0.0162
29199SOL    HW189850   7.468   0.487   9.403  0.9706  1.9294 -0.9212
29199SOL    HW289851   7.470   0.473   9.252 -0.4469 -1.2863 -0.7366
29200SOL     OW89852   9.811   1.667   7.259 -0.5662 -0.2074 -0.0181
29200SOL    HW189853   9.821   1.626   7.345  0.6121 -1.6787 -0.7951
29200SOL    HW289854   9.718   1.686   7.251 -0.7299 -0.3540  1.4452
29201SOL     OW89855   0.415   3.299   7.864  0.1005  0.3271  0.0369
29201SOL    HW189856   0.439   3.371   7.921 -0.4641  0.8976 -0.4361
29201SOL    HW289857   0.438   3.220   7.913  1.9876  0.8218  0.0261
29202SOL     OW89858  10.258   6.359   0.315  0.8610  0.2665  0.0624
29202SOL    HW189859  10.297   6.276   0.343 -0.7388 -0.8333 -0.8202
29202SOL    HW289860  10.333   6.418   0.305  2.3979 -1.8231 -1.9008
29203SOL     OW89861   6.985   1.276   2.639 -0.6443 -0.2796 -0.4584
29203SOL    HW189862   6.940   1.197   2.609 -1.6342  0.0788  0.0260
29203SOL    HW289863   6.944   1.347   2.589 -0.2413 -0.0010 -0.3976
29204SOL     OW89864   7.675   1.584   1.411 -0.0935 -0.1368 -0.0622
29204SOL    HW189865   7.763   1.613   1.435 -0.8497  0.9517  1.5889
29204SOL    HW289866   7.632   1.567   1.494 -0.9621 -2.2660 -0.8788
29205SOL     OW89867   7.282   2.940   3.296 -0.5305 -0.1710  0.3549
29205SOL    HW189868   7.202   2.922   3.247 -0.7017  1.5834 -0.0707
29205SOL    HW289869   7.351   2.894   3.247 -0.8029  0.9773 -1.1628
29206SOL     OW89870   4.185   3.694   7.930 -0.4124 -0.7832 -0.1569
29206SOL    HW189871   4.191   3.646   8.012 -1.9275  0.9737  1.0652
29206SOL    HW289872   4.206   3.784   7.953  1.1609 -0.5679 -2.1387
29207SOL     OW89873   1.936   5.473   9.040  0.1371 -0.2683  0.0920
29207SOL    HW189874   2.007   5.422   9.001 -0.7251 -0.8648 -0.7233
29207SOL    HW289875   1.863   5.464   8.979 -0.2200  1.4742  0.2322
29208SOL     OW89876   1.512   5.555   8.521 -0.5020  0.0106 -0.1888
29208SOL    HW189877   1.548   5.619   8.582 -0.7997 -0.1524  0.1624
29208SOL    HW289878   1.444   5.603   8.473 -0.6715 -0.0233  0.0189
29209SOL     OW89879   7.977   0.183  10.225 -0.0700 -0.0895  0.9967
29209SOL    HW189880   8.022   0.157  10.144 -0.9154 -1.4227  0.9168
29209SOL    HW289881   7.884   0.173  10.204 -0.4574  2.4968  1.1856
29210SOL     OW89882   8.427   5.307   6.173  0.2357 -0.3605 -0.3800
29210SOL    HW189883   8.417   5.273   6.262 -0.4169  0.4683 -0.1264
29210SOL    HW289884   8.407   5.400   6.180 -1.0321 -0.5047 -1.6215
29211SOL     OW89885   4.921   9.148   4.788  0.1971  0.2913 -0.3153
29211SOL    HW189886   4.904   9.057   4.767  0.9076 -0.1931  1.0764
29211SOL    HW289887   4.994   9.173   4.731 -0.2282  0.1189 -0.9499
29212SOL     OW89888   4.120  10.095   4.200 -0.3290 -0.3838 -0.1423
29212SOL    HW189889   4.162  10.009   4.193  0.5390 -0.1757  1.8161
29212SOL    HW289890   4.045  10.081   4.257  0.3861  0.3239  0.9994
29213SOL     OW89891   5.170   9.412   4.450  0.0554 -0.1971 -0.2582
29213SOL    HW189892   5.175   9.316   4.445 -2.2511 -0.3258 -0.9096
29213SOL    HW289893   5.094   9.435   4.398  0.9988  2.0961 -0.7371
29214SOL     OW89894   3.994   0.176   1.610  0.3067 -0.0942 -0.3286
29214SOL    HW189895   3.911   0.207   1.577 -0.5139 -0.1070  1.5815
29214SOL    HW289896   4.015   0.100   1.555  0.0926  1.0747 -2.1010
29215SOL     OW89897  10.570   7.815   0.307  0.3226 -0.4302  0.1178
29215SOL    HW189898  10.540   7.866   0.383 -2.9193 -2.4129  0.3553
29215SOL    HW289899  10.539   7.864   0.231 -0.7808 -0.8728  0.2701
29216SOL     OW89900   7.163   0.911   7.822 -0.6568 -0.3670  0.0496
29216SOL    HW189901   7.132   0.860   7.897  0.7715  0.5469  1.3036
29216SOL    HW289902   7.186   0.845   7.756  0.7535 -1.3736  1.4812
29217SOL     OW89903   7.526   2.539   1.655 -0.1208  0.3377 -0.1661
29217SOL    HW189904   7.436   2.564   1.677 -0.0853  0.4183 -0.1112
29217SOL    HW289905   7.521   2.513   1.563 -0.0768  0.9829 -0.3588
29218SOL     OW89906   2.567  10.243   5.596  0.6548 -0.2977  0.6126
29218SOL    HW189907   2.577  10.173   5.532 -0.1307  1.5802 -1.7021
29218SOL    HW289908   2.535  10.199   5.675 -0.6514 -2.4561 -1.0139
29219SOL     OW89909   4.092   0.566   7.394  0.3439 -0.1935  0.3775
29219SOL    HW189910   4.175   0.553   7.348 -0.4097 -1.6590 -0.5962
29219SOL    HW289911   4.033   0.500   7.358 -1.3283  0.9563  0.9080
29220SOL     OW89912   0.986   4.772   8.941  0.0146 -0.1116 -0.1579
29220SOL    HW189913   0.908   4.746   8.894 -1.1823 -0.3081  1.8330
29220SOL    HW289914   1.045   4.697   8.934 -0.5463 -0.5287 -0.4487
29221SOL     OW89915  10.358   2.007  10.321 -0.5725  0.0657 -0.6405
29221SOL    HW189916  10.296   2.001  10.249  0.4604  1.0150 -1.6740
29221SOL    HW289917  10.425   1.941  10.301 -1.1801 -0.8969  0.4187
29222SOL     OW89918   0.138   8.560   3.499  0.1703 -0.3832  0.6070
29222SOL    HW189919   0.180   8.523   3.577  0.4795 -2.4439 -0.4758
29222SOL    HW289920   0.072   8.495   3.475 -0.5529  0.6752 -0.3266
29223SOL     OW89921   7.699   8.998   0.667  0.4855  0.2069 -0.4019
29223SOL    HW189922   7.612   8.957   0.673  0.1574  1.0882  1.5744
29223SOL    HW289923   7.719   8.996   0.573 -1.9816  0.6009 -1.0348
29224SOL     OW89924   3.569  10.315   5.212  0.4438 -0.3324 -0.5327
29224SOL    HW189925   3.624  10.321   5.134  2.5439  0.5234  0.9033
29224SOL    HW289926   3.576  10.401   5.253  1.0834 -1.3488  1.6379
29225SOL     OW89927   2.756   0.722   3.359 -0.6071  0.3634 -0.1032
29225SOL    HW189928   2.718   0.653   3.413 -2.6561  1.2666 -0.2824
29225SOL    HW289929   2.715   0.802   3.392  1.2763  1.4502 -0.2676
29226SOL     OW89930  10.058   3.521   1.440  0.0815  0.0691 -0.2341
29226SOL    HW189931  10.134   3.495   1.493  0.4104 -0.4573 -0.9527
29226SOL    HW289932   9.987   3.530   1.504  0.1846 -1.6855  0.1818
29227SOL     OW89933   6.563   7.466   7.387  0.8796 -0.0940 -0.3489
29227SOL    HW189934   6.509   7.449   7.464  2.4053  0.4089  0.9099
29227SOL    HW289935   6.627   7.395   7.387  0.8716 -0.1053 -1.1820
29228SOL     OW89936   6.375   5.921   3.034 -0.1503  0.1246 -0.0293
29228SOL    HW189937   6.464   5.953   3.014 -0.2988  0.5293 -0.0585
29228SOL    HW289938   6.325   6.001   3.052 -0.2648 -0.1549  0.9595
29229SOL     OW89939   5.844   3.527   8.805 -0.2672 -0.3620 -0.5247
29229SOL    HW189940   5.749   3.523   8.797 -0.2220 -0.6077 -0.9586
29229SOL    HW289941   5.865   3.471   8.879 -0.3852 -1.0415 -1.0001
29230SOL     OW89942   1.012   2.451   4.612 -0.1378 -0.4320  0.1496
29230SOL    HW189943   0.974   2.450   4.524 -1.2654 -0.1518  0.6117
29230SOL    HW289944   1.085   2.389   4.607 -0.9226 -1.3309 -0.6707
29231SOL     OW89945   6.995   9.454   0.933  0.2471 -0.3972 -0.1468
29231SOL    HW189946   7.033   9.368   0.919 -0.2851 -0.7903  0.7636
29231SOL    HW289947   6.900   9.441   0.928  0.1659  0.1688 -0.2293
29232SOL     OW89948  10.486   0.655   9.302 -0.2926 -0.4815 -0.0281
29232SOL    HW189949  10.391   0.650   9.292 -0.5647  1.2671  1.2142
29232SOL    HW289950  10.509   0.739   9.265  1.2602 -2.0887 -3.0573
29233SOL     OW89951   3.207  10.140   4.604  0.2229 -0.5876 -0.5177
29233SOL    HW189952   3.271  10.073   4.629  0.7110  0.3981  1.0151
29233SOL    HW289953   3.213  10.145   4.509  0.5762 -2.3176 -0.6189
29234SOL     OW89954   2.806   4.869   4.277  0.2674 -0.2946 -0.2854
29234SOL    HW189955   2.765   4.817   4.208 -0.8136  0.2209 -0.0626
29234SOL    HW289956   2.750   4.854   4.354  2.4301 -2.2930  1.0349
29235SOL     OW89957   5.945   8.062   0.589 -0.2134  0.0455 -0.4176
29235SOL    HW189958   6.018   8.102   0.637 -0.5795  2.5150 -1.7761
29235SOL    HW289959   5.962   7.968   0.594  2.3141  0.4708  0.4733
29236SOL     OW89960   9.154   1.038   6.197  0.3225 -0.1313  0.5079
29236SOL    HW189961   9.161   1.128   6.228 -0.7852 -0.1014  0.6965
29236SOL    HW289962   9.060   1.019   6.199  0.3760 -0.7237 -1.1315
29237SOL     OW89963   7.376   6.690   7.978  0.0785 -0.1972 -0.3087
29237SOL    HW189964   7.387   6.708   8.072 -0.3113 -0.0822 -0.2837
29237SOL    HW289965   7.411   6.768   7.935 -1.3430  0.5255 -0.2071
29238SOL     OW89966   6.772   0.294   0.036  0.3131  0.2561  0.0611
29238SOL    HW189967   6.789   0.335   0.121 -0.8238  1.6984 -0.3559
29238SOL    HW289968   6.801   0.359  -0.028 -0.7300  0.0579 -0.6360
29239SOL     OW89969   4.858   1.703   4.521  0.2355  0.2566 -0.5299
29239SOL    HW189970   4.824   1.620   4.554 -1.5285  0.4315 -1.7747
29239SOL    HW289971   4.814   1.770   4.573 -0.3523  0.4513 -1.2536
29240SOL     OW89972   2.211   6.113   3.238 -0.3924 -0.2564  0.5470
29240SOL    HW189973   2.277   6.168   3.282 -0.6706 -0.5284  1.3177
29240SOL    HW289974   2.211   6.031   3.287 -0.4363 -0.7145 -0.2093
29241SOL     OW89975   7.183   1.441   4.526 -0.1315  0.0671  0.0254
29241SOL    HW189976   7.149   1.486   4.603 -0.5323 -0.4208  0.1402
29241SOL    HW289977   7.195   1.509   4.461 -1.0271  0.2886  0.0912
29242SOL     OW89978   3.413   1.276   0.530 -1.0758 -0.2153  0.3337
29242SOL    HW189979   3.453   1.219   0.596  2.0348 -0.1848 -1.3130
29242SOL    HW289980   3.454   1.361   0.544 -0.5919 -0.1270 -1.3476
29243SOL     OW89981   3.767   0.872   5.900 -0.0550  0.0209 -0.0561
29243SOL    HW189982   3.726   0.881   5.814 -3.1785  1.7912  1.4287
29243SOL    HW289983   3.842   0.930   5.897 -0.1659  0.1418 -1.5118
29244SOL     OW89984  10.080   4.188   4.090 -0.4789 -0.5954 -0.2355
29244SOL    HW189985  10.100   4.281   4.096 -0.4506 -0.5903 -0.3951
29244SOL    HW289986  10.137   4.156   4.020 -0.6652 -0.6812 -0.3497
29245SOL     OW89987   0.006   2.035   0.107 -0.2467  0.5570 -0.1268
29245SOL    HW189988   0.055   1.964   0.066 -0.4136 -0.2132  0.9565
29245SOL    HW289989  -0.036   2.081   0.034 -1.3694 -1.3820 -0.7865
29246SOL     OW89990   4.518   3.631   6.295 -0.1948  0.1989 -0.0797
29246SOL    HW189991   4.530   3.726   6.289 -0.4037  0.3891  1.8985
29246SOL    HW289992   4.596   3.594   6.252 -0.5173  1.2068 -1.6314
29247SOL     OW89993   4.406   7.673   7.195  0.0491  0.3742  0.2268
29247SOL    HW189994   4.354   7.752   7.210 -0.2808 -0.0563  1.4936
29247SOL    HW289995   4.402   7.659   7.101  0.0932  1.8461 -0.0230
29248SOL     OW89996   3.948   2.191   8.596 -0.7291 -1.1038  1.0891
29248SOL    HW189997   4.026   2.223   8.641 -0.3376 -1.2943  0.5421
29248SOL    HW289998   3.975   2.178   8.506 -1.7511  0.1068  0.5808
29249SOL     OW89999   1.408   9.916   7.064 -0.0700  0.1342 -0.3643
29249SOL    HW190000   1.381   9.863   6.989  0.7129 -1.2270  0.2883
29249SOL    HW290001   1.360   9.879   7.138  0.3012  0.4998  0.0636
29250SOL     OW90002   4.599   6.775   0.033  0.6875 -0.2760 -0.1647
29250SOL    HW190003   4.650   6.733  -0.036  0.4326 -1.3288  0.2761
29250SOL    HW290004   4.524   6.813  -0.012  1.4728  0.6667 -0.7192
29251SOL     OW90005   0.477   4.850   0.921 -0.3211 -0.3402  0.0733
29251SOL    HW190006   0.465   4.792   0.846  1.4923  0.7506 -1.1322
29251SOL    HW290007   0.394   4.897   0.928 -1.0335 -1.4964 -0.2872
29252SOL     OW90008   1.309   5.076   5.657  0.0356 -0.1324  0.2381
29252SOL    HW190009   1.278   5.005   5.601  0.1464 -0.7544  0.9438
29252SOL    HW290010   1.356   5.135   5.598 -0.9118 -0.1156 -0.5295
29253SOL     OW90011   7.574   8.618   7.779 -0.0157 -0.5207  0.1090
29253SOL    HW190012   7.566   8.712   7.762 -0.0913 -0.6081 -0.3481
29253SOL    HW290013   7.558   8.577   7.695  1.6977 -0.8687 -0.0863
29254SOL     OW90014   2.823   7.162   4.154  0.2412 -0.0580 -0.6404
29254SOL    HW190015   2.749   7.222   4.162 -0.3334 -0.6570 -1.3046
29254SOL    HW290016   2.890   7.198   4.213 -0.2214  1.0182 -0.7548
29255SOL     OW90017   9.422   2.022   8.454 -0.7068 -0.1066  0.1411
29255SOL    HW190018   9.465   2.098   8.494  0.7888 -0.5607 -0.5095
29255SOL    HW290019   9.424   1.955   8.522 -0.7841  0.0088  0.2579
29256SOL     OW90020   9.226   3.636   0.535  0.0512 -0.0581  0.0632
29256SOL    HW190021   9.261   3.703   0.477  0.4847 -1.5435 -1.4828
29256SOL    HW290022   9.140   3.668   0.560  0.5108  1.3677 -0.0952
29257SOL     OW90023   4.673   4.731   6.953 -0.4126  0.2670  0.1576
29257SOL    HW190024   4.649   4.753   7.043  0.6640  1.9638  0.0752
29257SOL    HW290025   4.760   4.768   6.941  0.2314 -1.4634 -1.0565
29258SOL     OW90026   1.936   4.558   3.966  0.1991  0.4231  0.4757
29258SOL    HW190027   1.900   4.475   3.936 -0.6713  0.6028  0.9961
29258SOL    HW290028   1.876   4.624   3.933 -1.1223  0.5926  3.0047
29259SOL     OW90029   5.064   7.524   2.302 -0.3358  0.1285  0.4928
29259SOL    HW190030   5.144   7.541   2.350  0.6058  2.6985 -1.7076
29259SOL    HW290031   5.046   7.606   2.256 -3.4475 -0.8203 -0.2348
29260SOL     OW90032   6.019   2.875   1.359  0.1146 -0.1740  0.0947
29260SOL    HW190033   5.948   2.937   1.343 -0.1657 -1.1495 -2.9595
29260SOL    HW290034   5.996   2.833   1.442 -2.5938 -0.0694 -0.5089
29261SOL     OW90035   4.828   7.679   1.653  0.8941 -0.1562 -0.1732
29261SOL    HW190036   4.774   7.618   1.704  0.2391 -1.4042 -2.2297
29261SOL    HW290037   4.917   7.667   1.687  0.5599 -1.3111  0.3398
29262SOL     OW90038   1.930   0.165   2.177  0.1146  0.3039 -0.1286
29262SOL    HW190039   1.933   0.094   2.242  0.5078 -0.3164 -0.8098
29262SOL    HW290040   1.841   0.161   2.142 -1.2162  2.6784  2.5439
29263SOL     OW90041   9.695  10.038   1.796 -0.1475  0.5344  0.6745
29263SOL    HW190042   9.698  10.133   1.809 -1.3765  0.6223  0.4319
29263SOL    HW290043   9.649  10.026   1.712  0.9537 -0.2485  0.1569
29264SOL     OW90044   6.395   8.066  10.355 -0.5724 -0.0875  0.0300
29264SOL    HW190045   6.425   8.110  10.276  1.7795  1.3516  1.5837
29264SOL    HW290046   6.342   8.132  10.401 -0.5673 -0.3423  0.4083
29265SOL     OW90047   9.229   4.725   7.085  0.5093 -0.2899  0.2379
29265SOL    HW190048   9.226   4.688   6.997  1.1667 -1.4665  0.6953
29265SOL    HW290049   9.262   4.814   7.072 -0.5738 -0.0151 -0.8212
29266SOL     OW90050   6.394   4.900   4.357  0.0169 -0.4187  0.0440
29266SOL    HW190051   6.310   4.938   4.333 -0.8131 -1.5001  1.0952
29266SOL    HW290052   6.377   4.806   4.362  1.8771 -0.9606 -2.0390
29267SOL     OW90053   1.890   6.390   7.979  0.4134 -0.0124 -0.1498
29267SOL    HW190054   1.878   6.296   7.965  3.7255 -0.4079 -1.1976
29267SOL    HW290055   1.895   6.427   7.891 -0.6873  1.1781  0.2552
29268SOL     OW90056   7.519   5.595   7.092  0.1083 -0.3033 -0.2410
29268SOL    HW190057   7.565   5.677   7.107  1.1926 -0.6190 -1.6695
29268SOL    HW290058   7.479   5.605   7.006 -0.9368 -0.7697  0.1651
29269SOL     OW90059   7.743   8.047   3.194  0.0273 -0.0361 -0.1663
29269SOL    HW190060   7.779   8.132   3.167  0.3132 -0.2735 -0.5366
29269SOL    HW290061   7.800   7.982   3.153 -0.5754 -0.4163 -0.4213
29270SOL     OW90062   2.220   0.711   4.701 -0.3059  0.2254 -0.6678
29270SOL    HW190063   2.187   0.720   4.790 -0.0876  1.4357 -0.6836
29270SOL    HW290064   2.305   0.755   4.703 -1.1062  1.9204 -1.8872
29271SOL     OW90065  10.536   9.227   4.331  0.4818  0.3890  0.3302
29271SOL    HW190066  10.593   9.156   4.363  0.9699  0.8128  0.4170
29271SOL    HW290067  10.471   9.238   4.400  0.1581 -0.2455  0.1353
29272SOL     OW90068   9.816   9.123   4.697 -0.3488 -0.3575 -0.0017
29272SOL    HW190069   9.771   9.069   4.762 -0.6693 -0.5575 -0.3869
29272SOL    HW290070   9.794   9.213   4.721  0.0587 -0.3926  0.5490
29273SOL     OW90071   8.408   1.996   1.965 -0.7745  0.3301  0.3815
29273SOL    HW190072   8.407   2.058   1.892  3.2277  1.1206  0.7493
29273SOL    HW290073   8.430   2.049   2.042 -0.0319 -1.1143  1.2212
29274SOL     OW90074   6.805   6.269  10.468  0.1068 -0.1268  0.1856
29274SOL    HW190075   6.832   6.192  10.517 -1.5379 -0.6003  0.4098
29274SOL    HW290076   6.883   6.324  10.463  0.8916 -1.1113  1.3479
29275SOL     OW90077   0.048   0.120   3.891  0.4611  0.5848  0.3991
29275SOL    HW190078   0.003   0.051   3.939 -2.0218  1.0345 -1.1277
29275SOL    HW290079   0.138   0.086   3.881 -0.5784 -2.3533 -0.1308
29276SOL     OW90080   4.233   9.590   4.989  0.5358 -0.0338  0.2416
29276SOL    HW190081   4.215   9.549   4.904 -0.2985 -0.7920  0.7678
29276SOL    HW290082   4.278   9.521   5.039 -0.0545 -0.0065  0.8203
29277SOL     OW90083   1.195   6.837   9.781 -0.0482  0.1606 -0.2435
29277SOL    HW190084   1.109   6.795   9.783 -0.9307  1.9025  0.2595
29277SOL    HW290085   1.256   6.767   9.805 -1.3535 -1.0162 -0.2179
29278SOL     OW90086   6.620   7.349   0.894  0.0439  0.5059 -0.1585
29278SOL    HW190087   6.623   7.385   0.983  0.0537  0.0057  0.0512
29278SOL    HW290088   6.630   7.425   0.837  0.9560  0.7359  0.2818
29279SOL     OW90089   6.009   2.507   4.645  0.9388  0.0597  0.1897
29279SOL    HW190090   6.033   2.592   4.608 -0.2577  0.8959  1.2809
29279SOL    HW290091   6.069   2.496   4.719  0.4018  0.4723  0.7000
29280SOL     OW90092   2.982   0.890   4.481 -0.2324 -0.4407 -0.1702
29280SOL    HW190093   2.911   0.941   4.443 -0.0555 -0.3547 -0.3933
29280SOL    HW290094   3.055   0.952   4.487  0.1964 -0.8302 -1.0812
29281SOL     OW90095   5.672   9.633   1.343  0.3545  0.1807  0.4183
29281SOL    HW190096   5.737   9.628   1.414 -0.4166 -0.8508  1.0751
29281SOL    HW290097   5.593   9.668   1.385 -0.0145 -0.1413 -0.0006
29282SOL     OW90098   1.136   2.740   4.721 -0.1243 -0.2051 -0.0401
29282SOL    HW190099   1.219   2.725   4.766  0.1163 -0.4485 -0.5574
29282SOL    HW290100   1.128   2.666   4.661 -0.9492 -0.4400  0.3451
29283SOL     OW90101   4.519   8.424   6.787  0.4776 -0.2281  0.1726
29283SOL    HW190102   4.593   8.452   6.733  0.1027  1.2105  0.3597
29283SOL    HW290103   4.486   8.505   6.826  0.6577 -1.1689  2.4689
29284SOL     OW90104   5.461   2.842   7.896 -0.0885  0.3546 -0.5347
29284SOL    HW190105   5.405   2.906   7.851  0.1676  1.1168  0.2081
29284SOL    HW290106   5.540   2.837   7.843  0.2091  1.2433 -0.1870
29285SOL     OW90107   5.229   9.955   2.481  0.5188 -0.3411 -0.1294
29285SOL    HW190108   5.165   9.947   2.410 -0.3613  0.0818  0.6066
29285SOL    HW290109   5.177   9.968   2.560  1.4996 -0.4215  0.5538
29286SOL     OW90110   9.909   2.250   2.441 -0.1479 -0.1001  1.1559
29286SOL    HW190111   9.877   2.340   2.434 -0.1477 -0.0724  1.4586
29286SOL    HW290112   9.963   2.250   2.520  0.0618 -0.3055  1.0148
29287SOL     OW90113   9.915   9.516   2.219 -0.0014  0.2261 -0.0335
29287SOL    HW190114   9.957   9.520   2.133  2.7379  1.5925  1.2379
29287SOL    HW290115   9.937   9.429   2.253  1.5755  0.7796  0.4500
29288SOL     OW90116   5.582   7.218   4.034  0.1117 -0.0911  0.5731
29288SOL    HW190117   5.511   7.242   4.093 -0.1081  0.5446  0.0577
29288SOL    HW290118   5.637   7.159   4.086 -1.4787 -1.6739  0.5560
29289SOL     OW90119   3.543   6.471   6.133  0.2169  0.5657  0.2244
29289SOL    HW190120   3.456   6.466   6.172 -0.4485  1.1878 -1.1251
29289SOL    HW290121   3.547   6.397   6.073 -0.3841  1.9389 -1.5955
29290SOL     OW90122   3.941   7.339   3.214  0.2668 -0.6842 -0.0837
29290SOL    HW190123   3.896   7.363   3.295  0.3926 -0.7650  0.0117
29290SOL    HW290124   3.905   7.398   3.148  0.0729 -0.7038  0.0059
29291SOL     OW90125   0.929   6.609   3.102  0.1645  0.3679 -0.0411
29291SOL    HW190126   0.955   6.524   3.136  2.9641  0.7247 -0.9486
29291SOL    HW290127   0.835   6.602   3.086  0.2846 -2.4978  0.0114
29292SOL     OW90128   3.145   4.904   2.685  0.0388  0.0246 -0.6430
29292SOL    HW190129   3.203   4.908   2.762 -0.1770  1.7127 -0.5236
29292SOL    HW290130   3.117   4.813   2.681  1.2113 -0.4184  0.4191
29293SOL     OW90131   1.501   5.494   6.536  0.0241  0.1686 -0.1872
29293SOL    HW190132   1.596   5.505   6.539 -0.0367  0.7755 -0.4926
29293SOL    HW290133   1.469   5.545   6.611  0.0752 -1.7019  1.1948
29294SOL     OW90134   9.613   5.389   3.617  0.0874  0.5536 -0.3086
29294SOL    HW190135   9.584   5.401   3.707  1.0723 -1.8740  0.4087
29294SOL    HW290136   9.677   5.459   3.602  1.0473  0.0885  1.4265
29295SOL     OW90137   5.287   9.363   7.533 -0.0139  0.6086 -0.2102
29295SOL    HW190138   5.240   9.330   7.457 -0.5142  0.5971  0.1016
29295SOL    HW290139   5.244   9.323   7.609  0.0308  1.1593  0.1157
29296SOL     OW90140   3.942   2.295   3.300  0.1869  0.3623 -0.2392
29296SOL    HW190141   3.926   2.230   3.231 -3.7222 -1.2710  1.8776
29296SOL    HW290142   3.924   2.379   3.258 -0.1280 -0.3774 -1.6732
29297SOL     OW90143   9.529   4.136   3.270  0.3310  0.1799 -0.6771
29297SOL    HW190144   9.478   4.066   3.310 -0.2074  1.8286  1.6993
29297SOL    HW290145   9.620   4.107   3.279  0.1208 -0.1817  0.3942
29298SOL     OW90146   5.005   5.374   2.684 -0.2492 -0.0899 -0.0151
29298SOL    HW190147   5.032   5.356   2.594 -0.2746  2.2647 -0.5687
29298SOL    HW290148   5.085   5.360   2.736 -0.4072 -2.1304 -0.2497
29299SOL     OW90149   8.973   4.393   9.671  0.3041  0.3142  0.0753
29299SOL    HW190150   8.905   4.354   9.616  0.3509  0.7136 -0.2759
29299SOL    HW290151   8.926   4.448   9.734  0.2039 -0.7380  0.9382
29300SOL     OW90152   1.827   6.324   9.509  0.1171 -0.4472 -0.2349
29300SOL    HW190153   1.897   6.264   9.538  1.5879  0.8463 -0.9472
29300SOL    HW290154   1.749   6.269   9.506  0.6657 -1.5234  2.4392
29301SOL     OW90155   7.089   9.766   1.846 -0.5632 -0.1783  0.5955
29301SOL    HW190156   7.108   9.784   1.937 -0.7258  2.4620  0.1919
29301SOL    HW290157   6.993   9.761   1.842 -0.8554  3.1894  0.1654
29302SOL     OW90158   1.605   7.980   9.234  0.1757 -0.2937  0.0851
29302SOL    HW190159   1.679   8.030   9.269  0.1557 -0.8663  0.9713
29302SOL    HW290160   1.643   7.898   9.203 -0.3808 -1.7094  2.9032
29303SOL     OW90161   4.221   6.131   2.902  0.7546  0.1027 -0.0345
29303SOL    HW190162   4.316   6.129   2.894  0.9893  1.3051  1.7976
29303SOL    HW290163   4.199   6.047   2.943  1.2422  0.4537  0.9985
29304SOL     OW90164   4.717   3.007   6.601 -0.2311 -0.4506  0.4571
29304SOL    HW190165   4.640   2.975   6.554  1.2398 -3.7806  0.0293
29304SOL    HW290166   4.726   2.948   6.676  1.6399  0.0908  0.7238
29305SOL     OW90167   5.645   4.725   2.984 -0.0242  0.3606 -0.0390
29305SOL    HW190168   5.579   4.793   2.995  1.0763  1.4201  0.2294
29305SOL    HW290169   5.715   4.767   2.935  0.0217 -1.0496 -1.2825
29306SOL     OW90170   9.902   2.004   1.756  0.1302 -0.0135 -0.9552
29306SOL    HW190171   9.994   2.004   1.732  0.4684 -1.0482  0.1725
29306SOL    HW290172   9.868   1.922   1.720 -0.2706  0.2060 -1.0849
29307SOL     OW90173   8.568   1.406   8.600 -0.5762 -0.4343 -0.0568
29307SOL    HW190174   8.492   1.460   8.576  0.1621  0.3403 -0.7209
29307SOL    HW290175   8.634   1.427   8.534  0.4500 -0.5898  0.8847
29308SOL     OW90176   1.759   1.958   0.010 -0.0454 -0.4859 -0.1772
29308SOL    HW190177   1.778   1.999  -0.075  0.3969  1.5851  0.8765
29308SOL    HW290178   1.711   1.878  -0.013  0.2302 -0.0844 -2.3856
29309SOL     OW90179   5.704   7.939   7.109 -0.3525  0.5583  0.6988
29309SOL    HW190180   5.689   7.937   7.203 -0.8016  2.4543  0.7114
29309SOL    HW290181   5.798   7.959   7.100 -0.3170  0.4102  0.7447
29310SOL     OW90182  10.407   2.387  10.066  0.1628  0.1428 -0.5806
29310SOL    HW190183  10.315   2.413  10.059  0.4328  1.1904 -0.4780
29310SOL    HW290184  10.419   2.323   9.996 -1.5793 -2.9688  1.7487
29311SOL     OW90185   7.541   3.192   1.986 -0.3376  0.1479  0.7208
29311SOL    HW190186   7.505   3.262   2.041 -0.6916 -0.1718  0.8988
29311SOL    HW290187   7.636   3.200   1.995 -0.3423  1.1479  0.0764
29312SOL     OW90188   5.992   7.992   3.968 -0.5377 -0.6356 -0.4676
29312SOL    HW190189   6.075   8.028   3.936  0.5662 -1.5461  1.2363
29312SOL    HW290190   6.015   7.941   4.045 -2.9116  0.7146  1.2971
29313SOL     OW90191   6.751   2.780   3.051  0.4070 -0.1472  0.5681
29313SOL    HW190192   6.796   2.745   2.974  1.3298  0.4259  0.8204
29313SOL    HW290193   6.715   2.703   3.096  1.2373 -0.6418  0.4038
29314SOL     OW90194   7.882   6.435   0.605  0.4433  0.3942  0.3125
29314SOL    HW190195   7.851   6.360   0.554  2.3617 -0.5501  0.4860
29314SOL    HW290196   7.812   6.500   0.596 -0.7636 -0.9921 -0.7436
29315SOL     OW90197   4.833   1.132  10.025 -0.1212  0.1781  0.0571
29315SOL    HW190198   4.886   1.059  10.057 -2.0240 -0.8780  0.9871
29315SOL    HW290199   4.804   1.178  10.104 -0.9517  0.4465 -0.3911
29316SOL     OW90200   6.089   3.415   5.840 -0.4980  0.0442 -0.1502
29316SOL    HW190201   6.031   3.339   5.830 -0.2879 -0.3003  1.0638
29316SOL    HW290202   6.093   3.430   5.934  0.1137  1.0707 -0.3226
29317SOL     OW90203   7.800   9.125   1.491 -0.1945 -0.5220  0.2299
29317SOL    HW190204   7.717   9.079   1.477 -0.8558 -0.0412  2.2890
29317SOL    HW290205   7.814   9.173   1.409 -1.8790 -0.7364 -0.2290
29318SOL     OW90206   5.051   1.509   9.735 -0.2332 -0.2032 -0.2970
29318SOL    HW190207   5.013   1.578   9.680  1.1874  0.7382 -0.1513
29318SOL    HW290208   5.086   1.556   9.811 -1.0349 -1.3428  0.8049
29319SOL     OW90209   9.532   1.643   9.993  0.5088  0.0518 -0.5459
29319SOL    HW190210   9.579   1.638  10.076 -2.6076  0.4306  1.4316
29319SOL    HW290211   9.472   1.568   9.995 -0.5011  0.7863 -1.8455
29320SOL     OW90212   2.423   9.942   4.967  0.5891  0.0585  0.2050
29320SOL    HW190213   2.364   9.966   4.896  0.9142  0.2299 -0.0077
29320SOL    HW290214   2.510   9.967   4.936  0.6509  0.8519  0.9783
29321SOL     OW90215   7.978   9.604   4.463 -0.4616  0.3041 -0.1655
29321SOL    HW190216   7.961   9.553   4.384  0.2815  0.2580 -0.3098
29321SOL    HW290217   8.039   9.550   4.513 -1.2669  0.1391  0.6544
29322SOL     OW90218   0.351   4.142   0.337 -0.0081 -0.3996 -0.3808
29322SOL    HW190219   0.405   4.178   0.266 -0.1609 -0.7106 -0.6550
29322SOL    HW290220   0.268   4.190   0.331 -0.0904 -0.5606 -0.5343
29323SOL     OW90221   6.327   2.561   1.971  0.3671  0.2825 -0.2317
29323SOL    HW190222   6.384   2.554   1.895 -0.3694 -0.4798 -0.7317
29323SOL    HW290223   6.238   2.560   1.934 -0.0076 -0.3907  0.6480
29324SOL     OW90224   7.894   9.575   8.417 -0.2322  0.3779 -0.0922
29324SOL    HW190225   7.903   9.542   8.327 -1.3764 -0.2405  0.0033
29324SOL    HW290226   7.813   9.536   8.449 -0.5592  1.6761  0.7454
29325SOL     OW90227   9.586   8.364   9.546 -0.1329  0.3832 -0.0946
29325SOL    HW190228   9.592   8.410   9.462 -0.4839  1.0352  0.2190
29325SOL    HW290229   9.504   8.396   9.584 -0.0246  0.0244  0.4546
29326SOL     OW90230   5.863   4.258   4.033 -0.3871 -0.7000  0.0096
29326SOL    HW190231   5.915   4.189   3.992  1.0610 -0.9868  2.1877
29326SOL    HW290232   5.773   4.226   4.029 -0.0775 -1.4617 -1.3906
29327SOL     OW90233   6.367   1.314   9.825 -0.0788 -0.5443 -0.4658
29327SOL    HW190234   6.365   1.232   9.776 -1.9474 -1.3867  0.9098
29327SOL    HW290235   6.436   1.301   9.890 -1.2604 -1.6297  0.6331
29328SOL     OW90236   7.025   2.096   1.789 -0.0311 -0.3099  0.1458
29328SOL    HW190237   7.037   2.114   1.882  1.7461 -1.4597  0.1768
29328SOL    HW290238   7.010   2.183   1.750  0.8312  0.3745  1.2706
29329SOL     OW90239   5.119   0.131   4.119 -0.0381 -0.0610  0.0315
29329SOL    HW190240   5.060   0.056   4.115  0.3920 -0.5946  2.3023
29329SOL    HW290241   5.066   0.201   4.158  0.0410  0.3476 -0.5687
29330SOL     OW90242   4.692   5.708   2.274 -0.2406  0.4055 -0.3412
29330SOL    HW190243   4.642   5.752   2.343 -1.3803  1.1519 -1.5924
29330SOL    HW290244   4.691   5.770   2.200  1.1576 -0.2543 -0.9649
29331SOL     OW90245  10.641   6.635   9.318  0.1358 -0.0160  0.4683
29331SOL    HW190246  10.722   6.591   9.293 -1.2861 -1.9471 -1.0927
29331SOL    HW290247  10.587   6.565   9.356 -0.6197  1.3320  1.9614
29332SOL     OW90248   7.907   1.739   5.822 -0.3122  0.0047  0.1796
29332SOL    HW190249   7.952   1.662   5.859  2.1706  1.5843  0.6365
29332SOL    HW290250   7.871   1.784   5.899  0.9833  0.9440  0.2464
29333SOL     OW90251  10.028   4.482   5.896 -0.6853 -0.2084  0.4026
29333SOL    HW190252  10.052   4.555   5.952 -1.2948  1.3811 -1.3081
29333SOL    HW290253   9.935   4.467   5.915 -0.6771 -0.2551  0.4087
29334SOL     OW90254   6.751   7.933   9.732  0.5139 -0.0121  0.2250
29334SOL    HW190255   6.811   7.971   9.797  0.9267 -1.2527  0.5999
29334SOL    HW290256   6.735   8.004   9.670  1.9898  0.4997  0.3881
29335SOL     OW90257   0.773   5.120   0.077 -1.3000  0.3038  0.7029
29335SOL    HW190258   0.806   5.153   0.160 -1.2569  0.9162  0.4471
29335SOL    HW290259   0.833   5.050   0.053  0.7236  2.3114 -0.4573
29336SOL     OW90260   3.864   7.163  10.413  0.2433  0.1417 -0.3907
29336SOL    HW190261   3.874   7.083  10.363  3.1352  1.0584 -1.4924
29336SOL    HW290262   3.809   7.220  10.359 -0.6439 -0.5454 -0.2376
29337SOL     OW90263   9.271   5.836   2.980  0.1570 -0.1774 -0.0213
29337SOL    HW190264   9.192   5.814   2.931  0.2103 -0.2192 -0.0895
29337SOL    HW290265   9.251   5.918   3.023 -0.0713 -0.3914  0.2860
29338SOL     OW90266   0.849   6.799   6.883 -1.0135 -0.7348  0.1181
29338SOL    HW190267   0.873   6.875   6.829  0.7189 -1.6237 -0.4184
29338SOL    HW290268   0.802   6.838   6.957  0.2647  0.9370  0.1220
29339SOL     OW90269   8.908   7.663   9.100  0.6154  0.4277 -0.2985
29339SOL    HW190270   8.928   7.600   9.031 -0.6846  0.8678 -1.0996
29339SOL    HW290271   8.970   7.641   9.170  0.3439 -1.6032 -0.6277
29340SOL     OW90272   6.070   5.462   4.418  0.0861  0.2216 -0.0192
29340SOL    HW190273   6.074   5.511   4.336  1.4462  0.7019  0.3174
29340SOL    HW290274   6.034   5.525   4.481  0.2554  0.2645  0.0360
29341SOL     OW90275   6.782  10.153  10.059  0.4279 -0.1646 -0.4040
29341SOL    HW190276   6.734  10.235  10.062 -0.6244 -0.7166 -1.4851
29341SOL    HW290277   6.850  10.162  10.126 -0.0235  1.3508 -0.1287
29342SOL     OW90278   9.216   9.769   8.915  0.0611 -0.4503 -0.0662
29342SOL    HW190279   9.120   9.762   8.914  0.0611 -0.4473 -0.1950
29342SOL    HW290280   9.246   9.679   8.903  0.0665 -0.3459 -0.9451
29343SOL     OW90281   5.978   7.014   6.619  0.3128 -0.4515  0.0984
29343SOL    HW190282   5.886   7.035   6.607 -0.1371 -1.5679  1.3666
29343SOL    HW290283   6.002   7.056   6.701  0.5567 -1.2897  0.4637
29344SOL     OW90284   6.926   6.151   5.028  0.0667 -0.0936 -0.6483
29344SOL    HW190285   6.899   6.178   4.940 -1.0445 -1.6797 -0.8391
29344SOL    HW290286   6.921   6.056   5.026 -0.5609 -0.1422  1.2972
29345SOL     OW90287   4.414   0.297   5.930 -0.1543  0.0394  0.4691
29345SOL    HW190288   4.462   0.257   5.857 -0.1405 -2.1622  1.6253
29345SOL    HW290289   4.410   0.229   5.997 -2.6686  1.0373  1.4337
29346SOL     OW90290   8.136   6.515   8.564  0.6449 -0.1618  0.2207
29346SOL    HW190291   8.179   6.471   8.491  0.0372  1.0659 -0.9167
29346SOL    HW290292   8.208   6.549   8.618  1.1370  0.7894 -0.9892
29347SOL     OW90293   9.583   4.702   8.642 -0.1590  0.1948  0.1324
29347SOL    HW190294   9.668   4.738   8.668  0.3994  0.7694 -2.1917
29347SOL    HW290295   9.604   4.639   8.573 -1.4808 -1.4537  1.1606
29348SOL     OW90296   0.219  10.333   1.286 -0.3840  0.1412  0.3507
29348SOL    HW190297   0.186  10.355   1.199 -1.7945 -1.4928  0.4135
29348SOL    HW290298   0.225  10.238   1.286 -1.0826  0.0491  2.2470
29349SOL     OW90299   9.671   8.212   1.842  0.3101 -0.2995 -0.0784
29349SOL    HW190300   9.648   8.301   1.815  0.1437 -0.4183 -0.3263
29349SOL    HW290301   9.755   8.222   1.887 -0.8895  0.3887  2.1880
29350SOL     OW90302   8.192   7.259   6.247  0.1959 -0.0083 -0.1477
29350SOL    HW190303   8.209   7.169   6.218 -0.4719  0.4563 -2.0948
29350SOL    HW290304   8.269   7.308   6.217 -0.0413  0.3083 -0.2358
29351SOL     OW90305   1.631   9.030   3.193  0.4522  0.0534  0.0731
29351SOL    HW190306   1.725   9.039   3.208  0.5481  0.0790 -0.5099
29351SOL    HW290307   1.601   8.969   3.261  0.3252  2.3209  2.1853
29352SOL     OW90308   4.668   9.399   2.420 -0.0679  0.2467 -0.1722
29352SOL    HW190309   4.576   9.422   2.435 -0.0846 -0.4675  0.9935
29352SOL    HW290310   4.672   9.375   2.328 -0.6473  2.0568 -0.7057
29353SOL     OW90311   6.306   3.733   0.721 -0.4656 -0.7415 -0.2055
29353SOL    HW190312   6.383   3.732   0.665  0.3368  1.8080  0.7335
29353SOL    HW290313   6.336   3.771   0.803 -2.0923 -2.4292  1.2594
29354SOL     OW90314   0.552   4.395   0.391 -0.1198 -0.2665 -0.3178
29354SOL    HW190315   0.461   4.423   0.396 -0.0151 -0.0546  0.5062
29354SOL    HW290316   0.551   4.305   0.423 -0.0843 -0.3877 -0.6459
29355SOL     OW90317  10.500   3.589   7.965 -0.8031 -0.6371 -0.3558
29355SOL    HW190318  10.538   3.501   7.955  2.3631  0.6027 -0.4272
29355SOL    HW290319  10.489   3.620   7.875 -0.8568 -0.5404 -0.3153
29356SOL     OW90320   0.760   3.068   4.624  0.0893  0.6010  0.7423
29356SOL    HW190321   0.849   3.035   4.630 -0.1222 -0.0464  0.4852
29356SOL    HW290322   0.707   2.990   4.608 -0.3864  1.1071 -0.2571
29357SOL     OW90323   4.413   8.722   7.037 -0.5155 -0.6428 -0.0382
29357SOL    HW190324   4.374   8.692   6.955  0.5771 -0.3101 -0.6992
29357SOL    HW290325   4.468   8.796   7.013  0.5376 -1.0965  0.8460
29358SOL     OW90326   6.102   6.067   4.013  0.0454  0.1126 -0.1027
29358SOL    HW190327   6.184   6.055   3.966 -0.4204  1.8210 -1.4774
29358SOL    HW290328   6.123   6.130   4.082 -0.2303  1.1481 -0.9340
29359SOL     OW90329   5.831   9.510   5.172  0.1439 -0.2564  0.0375
29359SOL    HW190330   5.777   9.555   5.237  1.6375  2.5198 -0.4968
29359SOL    HW290331   5.769   9.460   5.119 -1.8782  2.3912 -0.2619
29360SOL     OW90332   4.971   7.768   4.338  0.5278  0.0639 -0.3439
29360SOL    HW190333   4.928   7.682   4.340 -2.0071  1.2496  0.5760
29360SOL    HW290334   4.902   7.830   4.364  2.8868  2.1338  1.4914
29361SOL     OW90335   7.276   4.943   4.031  0.2026  0.8815  0.0764
29361SOL    HW190336   7.336   4.928   4.104  2.3572  0.5969 -1.6589
29361SOL    HW290337   7.245   5.033   4.045 -0.9112  0.2307  2.2879
29362SOL     OW90338  10.003   6.461   7.600 -0.0012  0.3403  0.2368
29362SOL    HW190339  10.069   6.513   7.645  0.5767  0.1945 -0.4309
29362SOL    HW290340  10.036   6.371   7.604 -0.1062  0.2800 -0.1854
29363SOL     OW90341  10.473   2.498   5.252 -0.1955 -0.3288 -0.5328
29363SOL    HW190342  10.538   2.543   5.305  0.9811 -1.7651 -0.6931
29363SOL    HW290343  10.392   2.549   5.265  1.1876  2.2301 -1.3036
29364SOL     OW90344   2.037   9.832   2.586  0.4637 -0.0772 -0.8444
29364SOL    HW190345   2.084   9.862   2.509  0.1634 -0.3358 -1.1297
29364SOL    HW290346   2.093   9.764   2.623  1.8756  1.7495  0.6313
29365SOL     OW90347   6.266   8.085   9.920  0.7794  0.1682  0.2850
29365SOL    HW190348   6.297   8.111  10.007  2.3548  2.1398 -0.7678
29365SOL    HW290349   6.311   8.003   9.901  0.5831 -0.1622  1.2441
29366SOL     OW90350   9.172   1.646   5.175 -0.2035  0.1081 -0.1507
29366SOL    HW190351   9.087   1.618   5.141 -0.1521 -0.0708 -0.1325
29366SOL    HW290352   9.216   1.564   5.198  0.5837  0.0952 -1.6169
29367SOL     OW90353   7.082   8.570   6.374  0.2757  0.0568  0.1443
29367SOL    HW190354   7.102   8.663   6.378  0.0222  0.1552 -0.6570
29367SOL    HW290355   6.991   8.567   6.344 -0.1919 -0.4239  1.5339
29368SOL     OW90356   5.921   3.887   0.413  0.4672 -0.1590 -0.6134
29368SOL    HW190357   5.985   3.848   0.473 -0.1593 -0.1111  0.0989
29368SOL    HW290358   5.889   3.814   0.361 -0.2055 -0.5092  0.2583
29369SOL     OW90359   8.187   5.607   7.991 -0.4735 -0.1053 -0.8601
29369SOL    HW190360   8.133   5.686   8.004 -0.4923 -0.4901  2.1589
29369SOL    HW290361   8.126   5.543   7.953 -1.8233 -0.0471  1.0388
29370SOL     OW90362   7.410   4.800   6.567  0.5665  0.6380  0.2935
29370SOL    HW190363   7.316   4.784   6.580  0.6283 -0.8753 -0.8134
29370SOL    HW290364   7.453   4.740   6.629  0.7817 -1.8706 -2.0914
29371SOL     OW90365  10.339   6.135   4.461  0.3417  0.3878  0.1395
29371SOL    HW190366  10.346   6.184   4.380 -0.4202  0.0993 -0.1079
29371SOL    HW290367  10.361   6.045   4.437  0.3053  0.3368  0.2942
29372SOL     OW90368   9.903   6.214   4.678  0.5399 -0.0370 -0.1705
29372SOL    HW190369   9.908   6.265   4.759  1.6814  0.3272 -0.4494
29372SOL    HW290370   9.994   6.202   4.652  0.3365 -2.4309  0.0099
29373SOL     OW90371  10.161   4.472   8.266 -0.0544  0.5671  0.1210
29373SOL    HW190372  10.145   4.491   8.359 -2.4118 -0.1246 -0.0789
29373SOL    HW290373  10.156   4.557   8.223  0.2395  0.7893  0.5116
29374SOL     OW90374   8.346   5.120   1.696 -0.4730  0.2069  0.0666
29374SOL    HW190375   8.382   5.031   1.699  0.7885  0.6849 -0.2977
29374SOL    HW290376   8.372   5.153   1.610 -0.7088  1.0179  0.2978
29375SOL     OW90377   2.078   3.071   4.695 -0.2843  0.1350  0.4476
29375SOL    HW190378   2.108   2.986   4.664  1.9537  0.9374  0.2553
29375SOL    HW290379   2.078   3.062   4.791  1.7917  0.4410  0.5188
29376SOL     OW90380   7.372   9.590   4.195  0.1605 -0.8072 -0.6114
29376SOL    HW190381   7.455   9.587   4.147  0.3606  1.8238 -0.5688
29376SOL    HW290382   7.309   9.546   4.137  1.4857 -2.6625 -0.7252
29377SOL     OW90383   5.713   5.700   2.203  0.0850 -0.2435  0.7140
29377SOL    HW190384   5.661   5.775   2.232 -0.2652 -0.4196  0.5506
29377SOL    HW290385   5.650   5.629   2.196  0.4673 -0.6346  1.1652
29378SOL     OW90386   0.976   8.447   7.916  0.2051  0.3097 -0.0468
29378SOL    HW190387   0.990   8.383   7.845 -0.2855  0.0097  0.1223
29378SOL    HW290388   0.948   8.394   7.990  0.7914  0.6161  0.4060
29379SOL     OW90389   1.504   0.371   8.501 -0.5665 -0.4389  0.2471
29379SOL    HW190390   1.587   0.324   8.504 -0.7832 -0.8421 -0.1032
29379SOL    HW290391   1.524   0.451   8.452  0.1167  0.4871  1.9270
29380SOL     OW90392  10.455   2.807   4.994  0.2245  0.1681  0.3278
29380SOL    HW190393  10.512   2.843   4.925 -1.8773  0.0052 -1.6298
29380SOL    HW290394  10.508   2.810   5.073  2.6125  0.8568 -1.1844
29381SOL     OW90395   8.301  10.132   3.208  0.2016 -0.5119  0.2799
29381SOL    HW190396   8.269  10.078   3.281 -1.4458  0.6375  0.4705
29381SOL    HW290397   8.232  10.197   3.195  1.2375  0.3376 -1.2275
29382SOL     OW90398   5.586   7.214   3.393  0.6437 -0.3774  0.8342
29382SOL    HW190399   5.569   7.205   3.299  0.2406 -0.6122  0.9265
29382SOL    HW290400   5.546   7.136   3.432  0.6169 -0.1695  1.2246
29383SOL     OW90401   8.576   5.849   4.322 -0.1894  0.2558 -0.0204
29383SOL    HW190402   8.551   5.760   4.345 -0.9243  0.7490  1.2254
29383SOL    HW290403   8.494   5.891   4.294 -0.4331  1.2665  1.9896
29384SOL     OW90404   6.554   0.980   4.845  0.3406 -0.0669 -0.2112
29384SOL    HW190405   6.545   1.055   4.787  1.5952 -1.0042 -1.7063
29384SOL    HW290406   6.477   0.926   4.828  0.2906  0.0694 -0.4174
29385SOL     OW90407   4.806   0.847   6.147  0.1873 -0.0790  0.3883
29385SOL    HW190408   4.822   0.941   6.141  1.3839 -0.2910 -0.0772
29385SOL    HW290409   4.780   0.832   6.238  1.9952  0.4530  1.0417
29386SOL     OW90410   1.467   6.000   2.813 -0.1318  0.1554  0.1388
29386SOL    HW190411   1.509   5.973   2.731  0.6681  1.5700  0.0531
29386SOL    HW290412   1.440   6.090   2.797 -1.4188 -0.0690  0.9049
29387SOL     OW90413   3.352   5.216   8.212  0.1165 -0.1467 -0.4934
29387SOL    HW190414   3.306   5.148   8.262 -1.8469  1.1176 -0.4404
29387SOL    HW290415   3.391   5.272   8.280 -0.0762 -0.0564 -0.4541
29388SOL     OW90416   8.831   6.603   6.248 -0.6004 -0.2997 -0.2366
29388SOL    HW190417   8.921   6.630   6.266  0.2028 -2.0381 -1.4261
29388SOL    HW290418   8.814   6.636   6.160 -0.9083 -0.4952 -0.2515
29389SOL     OW90419   3.677   5.400   8.469 -0.1370  0.2599  0.1866
29389SOL    HW190420   3.769   5.424   8.460 -0.1687  0.6484  0.8182
29389SOL    HW290421   3.675   5.306   8.455 -0.0226  0.5970 -2.4431
29390SOL     OW90422   0.408  10.055   8.732 -0.4783 -0.6161 -0.2780
29390SOL    HW190423   0.492  10.031   8.693 -1.1268 -3.2104 -0.2115
29390SOL    HW290424   0.357   9.975   8.731 -2.2038  0.3707  1.6827
29391SOL     OW90425   6.172   7.007   5.484  0.0264  0.2752 -0.3067
29391SOL    HW190426   6.112   6.950   5.533  0.7268 -0.2172 -0.0010
29391SOL    HW290427   6.165   6.977   5.394  0.1468 -0.0902 -0.1988
29392SOL     OW90428   2.849   6.943   8.318  0.6194  0.0511  0.1847
29392SOL    HW190429   2.901   6.864   8.300  1.2639  0.4415  0.2894
29392SOL    HW290430   2.772   6.911   8.365  0.1159 -0.6963 -1.1057
29393SOL     OW90431   9.967   9.237   0.343  0.1529  0.2949 -0.1963
29393SOL    HW190432   9.952   9.270   0.432 -0.3657 -0.8928  0.1824
29393SOL    HW290433   9.925   9.151   0.343 -1.1641  0.8877 -2.0546
29394SOL     OW90434   5.475   1.517   0.550 -0.5782  0.1616  0.0798
29394SOL    HW190435   5.459   1.500   0.642  0.6903  0.5186  0.3971
29394SOL    HW290436   5.399   1.481   0.504 -0.3434 -1.7189  1.0977
29395SOL     OW90437   7.186   3.016   5.693  0.0383 -0.7002 -0.3357
29395SOL    HW190438   7.260   3.058   5.736 -0.6814  0.1099  0.1426
29395SOL    HW290439   7.219   2.993   5.606  0.3568  1.2990 -0.8149
29396SOL     OW90440   4.518   0.773   0.073 -0.6936 -0.2159 -0.1518
29396SOL    HW190441   4.553   0.722   0.000 -0.1598  2.5799 -2.0364
29396SOL    HW290442   4.423   0.771   0.060 -0.5941  0.4465 -1.1327
29397SOL     OW90443   5.391   4.543   9.060  0.3377 -0.2408 -0.4967
29397SOL    HW190444   5.356   4.631   9.048  0.4507 -0.3765 -2.0213
29397SOL    HW290445   5.325   4.485   9.022  0.7484 -0.7375 -0.4661
29398SOL     OW90446   1.447   6.010   5.205 -0.0187  0.2671 -0.4060
29398SOL    HW190447   1.454   6.007   5.300 -0.8855  1.7953 -0.2744
29398SOL    HW290448   1.378   5.947   5.184 -0.8808  1.0237  0.1147
29399SOL     OW90449  10.299   0.691   7.130  0.9439  0.4881 -0.4523
29399SOL    HW190450  10.204   0.680   7.121  0.8317  2.3079 -1.9601
29399SOL    HW290451  10.314   0.698   7.224 -0.5544  1.2096 -0.2477
29400SOL     OW90452   9.836   7.561   3.534 -0.1758  0.3477 -0.5052
29400SOL    HW190453   9.823   7.633   3.473  1.6897  0.6913 -0.5630
29400SOL    HW290454   9.785   7.586   3.612  1.5239  2.4714  0.0175
29401SOL     OW90455   2.019   1.236   0.874 -0.2027  0.5131 -0.6752
29401SOL    HW190456   1.927   1.213   0.860 -1.0065  2.7893  0.3312
29401SOL    HW290457   2.051   1.263   0.788 -0.1676 -1.1770 -1.2163
29402SOL     OW90458   8.613   0.990   8.332  0.2183  0.1596  0.3987
29402SOL    HW190459   8.679   1.001   8.264  1.1912  0.7772  1.3977
29402SOL    HW290460   8.558   0.918   8.301  1.0553 -0.0385 -0.6959
29403SOL     OW90461   8.853   9.748   5.421 -0.0565  0.4847 -0.2661
29403SOL    HW190462   8.816   9.710   5.501 -0.6188 -0.6910 -1.0526
29403SOL    HW290463   8.825   9.840   5.423 -1.8295 -0.0242 -0.1287
29404SOL     OW90464   7.918   0.206   0.017 -0.4563  0.4195  0.0124
29404SOL    HW190465   7.822   0.201   0.021 -0.4630 -0.7302 -1.0615
29404SOL    HW290466   7.937   0.236  -0.072  0.1921 -1.0420 -0.3743
29405SOL     OW90467   5.623   9.779   1.777 -0.5729 -0.0803 -0.3112
29405SOL    HW190468   5.616   9.847   1.844  0.9710 -0.2112  0.0168
29405SOL    HW290469   5.619   9.697   1.827 -0.0283 -0.1874 -0.4420
29406SOL     OW90470   8.417   1.831   1.115  0.5582 -0.3564  0.0092
29406SOL    HW190471   8.385   1.770   1.181 -1.9236  1.2192  0.4124
29406SOL    HW290472   8.463   1.898   1.165  1.3349 -0.7072 -0.2139
29407SOL     OW90473   9.301   1.118   0.926 -0.2479  0.0066 -0.0095
29407SOL    HW190474   9.329   1.155   0.842 -1.8183  0.8546 -0.1946
29407SOL    HW290475   9.379   1.125   0.982  1.0609 -1.2398 -1.5617
29408SOL     OW90476   9.677   5.021   3.563  0.2163  0.1414 -0.4378
29408SOL    HW190477   9.734   4.947   3.542 -2.3291 -2.2553  0.3812
29408SOL    HW290478   9.699   5.044   3.653 -0.3844 -1.1576  0.0794
29409SOL     OW90479   0.976   5.141   5.429 -1.2105  0.2626  0.2677
29409SOL    HW190480   0.888   5.142   5.468 -2.3401 -1.8117 -1.9767
29409SOL    HW290481   1.002   5.233   5.428 -3.6637  1.0478  0.3790
29410SOL     OW90482   9.202   6.072   3.122 -0.8078  0.1293 -0.5953
29410SOL    HW190483   9.120   6.100   3.081 -0.7876  0.0925 -0.6603
29410SOL    HW290484   9.244   6.154   3.150 -2.4194  0.0571  2.4834
29411SOL     OW90485   7.235   7.001   8.657 -0.5394 -0.1184 -0.0183
29411SOL    HW190486   7.304   7.007   8.591  0.2417 -1.3581  0.6423
29411SOL    HW290487   7.282   7.002   8.741 -1.3954 -0.0585  0.4696
29412SOL     OW90488   6.169   8.764   6.626  0.1496 -0.1463 -0.0339
29412SOL    HW190489   6.099   8.810   6.580  0.9406 -1.4648 -2.7170
29412SOL    HW290490   6.243   8.825   6.623  0.3348 -0.4006 -0.9848
29413SOL     OW90491   5.603   2.762   3.132  0.5251  0.6050  0.5543
29413SOL    HW190492   5.539   2.804   3.188 -1.1620  0.7768 -1.3968
29413SOL    HW290493   5.626   2.681   3.178 -0.5288  0.8945  1.6397
29414SOL     OW90494   9.247   9.253   3.045 -0.3476 -0.3267  0.1330
29414SOL    HW190495   9.275   9.336   3.007 -1.1115 -0.2371 -0.2583
29414SOL    HW290496   9.215   9.201   2.970  1.4852 -1.5682  0.1457
29415SOL     OW90497   4.261   5.008   5.751  0.3344 -0.3654  0.4180
29415SOL    HW190498   4.223   5.061   5.681  0.7486 -0.0746  0.4140
29415SOL    HW290499   4.250   5.062   5.830  0.8625 -0.2235  0.3940
29416SOL     OW90500   3.977   8.150   8.426 -0.2525  0.0388  0.1192
29416SOL    HW190501   3.965   8.103   8.343  0.8177 -0.9811  0.5153
29416SOL    HW290502   4.072   8.166   8.430 -0.1403 -0.9099  1.6718
29417SOL     OW90503   4.106   9.605   5.980  0.1623 -0.0864  0.0805
29417SOL    HW190504   4.167   9.670   6.015 -0.7757  0.4200  0.8300
29417SOL    HW290505   4.044   9.656   5.927  0.4361 -0.6024 -0.7367
29418SOL     OW90506   3.680   9.929   1.230 -0.3153  0.1419  0.4821
29418SOL    HW190507   3.753   9.982   1.262  0.4635 -0.9945  0.6372
29418SOL    HW290508   3.721   9.851   1.192 -1.3928  0.0274 -0.4895
29419SOL     OW90509   0.782   8.543   9.458  0.0253  0.0818  0.4661
29419SOL    HW190510   0.692   8.536   9.490 -0.1917 -2.7151 -0.5420
29419SOL    HW290511   0.830   8.474   9.505  0.9137 -0.5091 -1.2196
29420SOL     OW90512   0.813   6.487   8.065  0.0410  0.5572 -0.2727
29420SOL    HW190513   0.724   6.507   8.095  0.2573  1.5496 -0.2588
29420SOL    HW290514   0.801   6.454   7.976 -0.3746  0.2759 -0.1150
29421SOL     OW90515   6.403   4.869   8.536  0.0548 -0.1549 -0.3034
29421SOL    HW190516   6.422   4.779   8.561 -1.4309 -0.8109 -1.3872
29421SOL    HW290517   6.347   4.861   8.459  0.0179  1.7046 -0.5111
29422SOL     OW90518   2.768   3.033   4.216 -0.5507  0.1098  0.2404
29422SOL    HW190519   2.721   3.102   4.263  0.4879  1.3082 -0.4219
29422SOL    HW290520   2.809   2.980   4.284 -0.5539  0.7281  0.7269
29423SOL     OW90521   0.652   0.828   1.320  0.2444  0.8345 -0.3909
29423SOL    HW190522   0.579   0.880   1.288 -0.8853 -0.0364  0.6709
29423SOL    HW290523   0.648   0.747   1.269  1.2771  1.2898 -1.2228
29424SOL     OW90524   6.372  10.566   3.108  0.3441 -0.2765 -0.7889
29424SOL    HW190525   6.438  10.500   3.129 -0.7376 -0.8004  1.2753
29424SOL    HW290526   6.414  10.649   3.129  0.7656 -0.5174 -0.6668
29425SOL     OW90527   6.912   4.282   3.966  0.0105  0.8340  0.4736
29425SOL    HW190528   7.002   4.308   3.948  0.2294  0.3338  0.8100
29425SOL    HW290529   6.919   4.192   4.000 -0.8526 -0.3138 -2.1310
29426SOL     OW90530   5.449   1.762   5.051 -0.2261 -0.0500 -0.2314
29426SOL    HW190531   5.428   1.669   5.046 -0.1353 -0.1060  0.4475
29426SOL    HW290532   5.411   1.792   5.134  3.0531 -0.3367  1.5032
29427SOL     OW90533   8.045  10.591   2.069  0.5556  0.3339 -0.3739
29427SOL    HW190534   7.985  10.518   2.085  1.1354  0.2765  1.7924
29427SOL    HW290535   7.988  10.666   2.053 -0.0535 -0.1679 -0.6205
29428SOL     OW90536   2.706   1.205   5.913  0.8925 -0.1762  0.1926
29428SOL    HW190537   2.667   1.185   5.998  0.0028  1.9707  0.3309
29428SOL    HW290538   2.660   1.147   5.851 -0.8097  0.5709  0.7123
29429SOL     OW90539   7.373   0.184   5.847  0.7358 -0.2826  0.3743
29429SOL    HW190540   7.326   0.192   5.764  2.1487 -0.1607 -0.4322
29429SOL    HW290541   7.465   0.199   5.825  1.3334 -1.7153  1.7109
29430SOL     OW90542   9.009   7.304   7.232 -0.0404  0.6993  0.4255
29430SOL    HW190543   8.949   7.335   7.300 -0.0727  2.0999 -0.2076
29430SOL    HW290544   8.954   7.294   7.154 -0.5036 -3.1376  1.0630
29431SOL     OW90545   7.589   3.316   8.192 -0.1939 -0.6562  0.0588
29431SOL    HW190546   7.639   3.242   8.158 -0.7109 -0.2890 -1.6183
29431SOL    HW290547   7.547   3.354   8.115  1.1682  2.2635  0.6062
29432SOL     OW90548   4.529   2.333   5.022  0.1327  0.5294 -0.3983
29432SOL    HW190549   4.551   2.286   4.942  1.2326  1.0562 -0.4191
29432SOL    HW290550   4.480   2.270   5.075  0.1800 -0.1050 -1.1006
29433SOL     OW90551   7.767   3.650   2.144  0.2071 -0.4698  0.1261
29433SOL    HW190552   7.822   3.727   2.133  0.9549 -0.6056  2.2790
29433SOL    HW290553   7.677   3.682   2.132  0.5732  0.4434 -0.2585
29434SOL     OW90554   9.771   8.289   4.677 -0.0620  0.2286 -0.1432
29434SOL    HW190555   9.845   8.240   4.639  0.4754  1.1267 -0.2846
29434SOL    HW290556   9.795   8.301   4.769  0.8866  2.1267 -0.5847
29435SOL     OW90557   6.198   8.688   9.834 -0.2034  0.4678 -0.5071
29435SOL    HW190558   6.158   8.640   9.762  0.6087 -1.3554  0.2048
29435SOL    HW290559   6.207   8.778   9.801  1.9585 -0.6838 -3.4213
29436SOL     OW90560   6.474   0.172   4.310  0.0047 -0.6947 -0.3174
29436SOL    HW190561   6.494   0.089   4.266 -1.0454  1.0746 -4.7347
29436SOL    HW290562   6.380   0.169   4.327  0.1786 -0.8466  0.6687
29437SOL     OW90563   9.721   4.547   6.790 -0.3170 -0.1294 -0.1882
29437SOL    HW190564   9.808   4.574   6.818  0.0394 -0.5529 -0.8540
29437SOL    HW290565   9.667   4.551   6.869  0.4178 -0.2920  0.3256
29438SOL     OW90566   7.844  10.504   0.147  0.2023  0.0695  0.5053
29438SOL    HW190567   7.763  10.547   0.118  2.5536  3.3105 -2.0175
29438SOL    HW290568   7.849  10.522   0.240 -1.6445  0.2817  0.6075
29439SOL     OW90569   1.251   9.175   3.325  0.0534  0.5316  0.6164
29439SOL    HW190570   1.265   9.098   3.380  1.3070 -0.3773 -0.9131
29439SOL    HW290571   1.235   9.140   3.237 -1.7474  1.9461  0.3068
29440SOL     OW90572   8.224   1.301   1.990 -0.6615  0.1368  0.1760
29440SOL    HW190573   8.288   1.232   2.003  1.3615  0.9443 -3.9299
29440SOL    HW290574   8.142   1.255   1.969 -0.0883 -0.9573  0.2992
29441SOL     OW90575   1.536   8.494   3.120 -0.4294 -0.1844  0.7191
29441SOL    HW190576   1.614   8.455   3.081 -0.5748 -0.5950  0.8356
29441SOL    HW290577   1.551   8.589   3.115 -0.2778 -0.2442  0.0194
29442SOL     OW90578  10.590   5.469   8.139 -0.0500  0.3410 -0.1460
29442SOL    HW190579  10.613   5.470   8.046  0.4694 -1.5556 -0.0919
29442SOL    HW290580  10.510   5.417   8.144 -0.4276  0.9571  0.4109
29443SOL     OW90581   8.520   9.670   3.466  0.2540 -0.7112  0.7459
29443SOL    HW190582   8.439   9.704   3.427  0.7105 -0.3607  0.0923
29443SOL    HW290583   8.492   9.593   3.515 -0.5084 -0.4783  0.6943
29444SOL     OW90584   6.328   1.799   8.817  0.4379 -0.0348 -0.0416
29444SOL    HW190585   6.417   1.780   8.849  0.3656 -0.4257 -0.0619
29444SOL    HW290586   6.272   1.783   8.892  0.3247 -0.3797 -0.1990
29445SOL     OW90587  10.117   7.956   2.483 -0.0695 -0.3338  0.0236
29445SOL    HW190588  10.200   7.911   2.464  0.3688 -0.1180  1.2857
29445SOL    HW290589  10.127   7.984   2.574 -0.4715  2.0082 -0.6059
29446SOL     OW90590   3.004   3.862   7.031 -0.1671 -0.4748  0.1290
29446SOL    HW190591   2.960   3.871   7.116  2.6207  1.6289  1.5033
29446SOL    HW290592   3.074   3.798   7.047  1.0976  0.7817 -0.2078
29447SOL     OW90593   0.633   4.811   3.799  0.3458  0.1912  0.1026
29447SOL    HW190594   0.630   4.900   3.763 -0.7104 -0.6320 -2.0929
29447SOL    HW290595   0.541   4.786   3.806  0.5837 -0.2326  2.1245
29448SOL     OW90596   2.012   7.007   9.572 -0.1878  0.2522  0.7408
29448SOL    HW190597   1.984   6.918   9.550 -0.1797  1.2117 -4.5515
29448SOL    HW290598   2.100   7.014   9.535  0.4830  2.0654  2.4984
29449SOL     OW90599   5.244   3.068   2.507 -0.4903  0.1682 -0.4181
29449SOL    HW190600   5.237   3.075   2.603  1.6819 -2.5592  0.0665
29449SOL    HW290601   5.290   3.148   2.481  2.5049 -0.7844  1.4290
29450SOL     OW90602   3.415   5.603   6.950  0.3111 -0.3122 -0.0176
29450SOL    HW190603   3.411   5.660   6.873 -0.7879  0.3965  0.5317
29450SOL    HW290604   3.502   5.619   6.987  0.3171  0.4221 -0.3252
29451SOL     OW90605   4.395   0.707   1.997 -0.2223 -0.0021 -0.0412
29451SOL    HW190606   4.368   0.625   1.956 -0.3044  0.1879 -0.3691
29451SOL    HW290607   4.472   0.684   2.049  0.4046 -0.0724 -0.9944
29452SOL     OW90608   1.842   9.254   1.510 -0.5000 -0.1534 -0.1155
29452SOL    HW190609   1.792   9.310   1.569 -0.1030 -0.3741  0.4343
29452SOL    HW290610   1.794   9.258   1.427 -1.8141 -0.8652  0.5800
29453SOL     OW90611   7.447   3.247   7.942  0.0522 -0.1447  0.2419
29453SOL    HW190612   7.369   3.207   7.980 -1.4453  0.3790 -2.1193
29453SOL    HW290613   7.481   3.182   7.881 -0.0945  0.6332 -0.6913
29454SOL     OW90614   0.602   8.531   0.694 -0.0270  0.7294  0.1774
29454SOL    HW190615   0.555   8.523   0.777  1.4050 -0.8023  0.8956
29454SOL    HW290616   0.648   8.448   0.684 -1.3354  0.2073 -2.9420
29455SOL     OW90617   5.149   9.971   3.466  0.7404 -0.2536  0.4255
29455SOL    HW190618   5.138   9.980   3.371 -0.7980  0.4117  0.6383
29455SOL    HW290619   5.066   9.935   3.497 -0.7073  3.8314  2.0279
29456SOL     OW90620   1.928   1.550   0.105 -0.1603 -0.0275 -0.5912
29456SOL    HW190621   1.952   1.501   0.183  0.3917 -0.1337 -0.8268
29456SOL    HW290622   1.878   1.625   0.138  2.0150  1.2110  0.0659
29457SOL     OW90623   4.254   1.805   2.735 -0.1453  1.0949  0.0711
29457SOL    HW190624   4.188   1.830   2.800 -0.7183 -0.1434  0.0017
29457SOL    HW290625   4.245   1.710   2.727  2.2449  0.7529  0.6790
29458SOL     OW90626   9.248   5.612   8.173  0.1008 -0.0904 -0.0373
29458SOL    HW190627   9.175   5.672   8.188  0.2072 -0.1390  0.6701
29458SOL    HW290628   9.241   5.590   8.080 -1.3791 -0.8702  0.2181
29459SOL     OW90629   6.213   1.234   3.759 -0.4106 -0.4831  0.1022
29459SOL    HW190630   6.307   1.222   3.744 -0.2670  0.7244 -0.1102
29459SOL    HW290631   6.208   1.311   3.816 -1.2706 -0.5606  0.1451
29460SOL     OW90632   9.918   6.893   5.058 -0.1293 -0.0429  0.0591
29460SOL    HW190633   9.999   6.842   5.050 -0.2882 -0.5154  1.1794
29460SOL    HW290634   9.915   6.917   5.151 -0.6669  1.0044 -0.2184
29461SOL     OW90635   6.960   1.676   1.257  0.5753  0.2857 -0.3922
29461SOL    HW190636   6.993   1.763   1.279  0.3459  0.6970 -1.6031
29461SOL    HW290637   7.035   1.632   1.215  0.6479 -0.0557  0.0891
29462SOL     OW90638   0.984  10.102   7.686  0.3381  0.2585  0.0067
29462SOL    HW190639   0.924  10.107   7.612  0.0385  0.0966  0.2338
29462SOL    HW290640   0.931  10.065   7.757  0.3888  1.1553  0.5382
29463SOL     OW90641  10.342  10.346   4.319 -0.0868 -0.1922 -0.1674
29463SOL    HW190642  10.367  10.353   4.411  3.3138  0.0804 -0.9654
29463SOL    HW290643  10.252  10.378   4.316 -1.1673 -2.3686  3.3422
29464SOL     OW90644   0.788  10.033   3.387  0.1935  0.1314 -0.0640
29464SOL    HW190645   0.716  10.093   3.404  0.2799  0.1095  0.3967
29464SOL    HW290646   0.838  10.075   3.317  0.4155  0.7417  0.4479
29465SOL     OW90647   4.597   4.646  10.441 -0.1305  0.0874  0.3974
29465SOL    HW190648   4.577   4.647  10.347  1.1455 -2.1283  0.0140
29465SOL    HW290649   4.518   4.678  10.483 -0.3732  2.1551 -1.4487
29466SOL     OW90650   1.694   5.647   4.959 -0.2517 -0.6281 -0.0767
29466SOL    HW190651   1.642   5.692   5.025  0.1803  0.1993 -0.2875
29466SOL    HW290652   1.752   5.715   4.923  1.8454 -1.7397  0.9951
29467SOL     OW90653   2.013   2.554   1.457  0.1282 -0.0957 -0.4952
29467SOL    HW190654   1.956   2.612   1.507  0.5618 -0.4328  0.4140
29467SOL    HW290655   2.003   2.468   1.498 -0.3848 -0.6434 -1.7230
29468SOL     OW90656   1.901   2.565   3.873  0.3555  0.1169 -0.2439
29468SOL    HW190657   1.875   2.592   3.784 -0.4945 -2.1919 -0.7600
29468SOL    HW290658   1.902   2.647   3.923 -0.8500  1.2620 -1.9723
29469SOL     OW90659   7.245   3.344  10.583  0.2998  0.3473 -0.2295
29469SOL    HW190660   7.323   3.290  10.593 -0.2083 -0.0840  1.8675
29469SOL    HW290661   7.209   3.319  10.497  2.2810  0.3780 -1.1146
29470SOL     OW90662   4.454   1.861   1.197 -0.2792  0.0358 -0.4616
29470SOL    HW190663   4.423   1.771   1.212  0.2195 -0.0290  0.2525
29470SOL    HW290664   4.534   1.867   1.249  0.1095  0.6581 -1.1145
29471SOL     OW90665   3.725   7.698   9.271  0.1650  0.4518  0.2904
29471SOL    HW190666   3.671   7.712   9.350 -1.2950  0.1765 -0.6271
29471SOL    HW290667   3.710   7.607   9.247  3.4194 -0.5913  1.6718
29472SOL     OW90668   5.975   5.673   6.274  0.0323  0.6801  0.3455
29472SOL    HW190669   5.925   5.744   6.313 -2.9387 -2.4433  2.8913
29472SOL    HW290670   5.926   5.648   6.196  0.9834  1.2134 -0.4580
29473SOL     OW90671   2.025   4.940   1.654  0.2791  0.0289  0.0172
29473SOL    HW190672   1.941   4.902   1.627 -1.3714  1.6795  2.4074
29473SOL    HW290673   2.080   4.864   1.675 -0.8708 -1.0783 -0.8247
29474SOL     OW90674   4.502   6.228   7.972 -0.1313 -0.2169  0.0175
29474SOL    HW190675   4.532   6.150   7.926 -0.4163 -0.5087  0.3231
29474SOL    HW290676   4.484   6.292   7.903 -0.9154 -0.7700 -0.2962
29475SOL     OW90677   3.970   0.305   4.707  0.1018 -0.1552  0.0136
29475SOL    HW190678   3.970   0.287   4.613  1.6722  0.8910 -0.2346
29475SOL    HW290679   4.055   0.271   4.738 -1.0081 -1.8826  1.3895
29476SOL     OW90680   4.717   7.373  10.591  0.4625 -0.1207 -0.5791
29476SOL    HW190681   4.800   7.417  10.605 -0.1025  0.6321  0.5719
29476SOL    HW290682   4.722   7.339  10.501  2.2237 -0.6252 -0.3193
29477SOL     OW90683   1.457   2.197   3.615  0.4184 -0.0299  0.2257
29477SOL    HW190684   1.466   2.200   3.710 -0.3856 -1.3631  0.3712
29477SOL    HW290685   1.515   2.125   3.588 -0.0865 -0.2993 -0.1702
29478SOL     OW90686  10.126  10.088   9.920  0.0158 -0.2552  0.4972
29478SOL    HW190687  10.158  10.015   9.973 -1.4409 -1.4144 -0.1224
29478SOL    HW290688  10.178  10.163   9.947  0.1904 -1.0863  2.6318
29479SOL     OW90689   7.507   3.033   5.428  0.9140 -0.5080 -1.5407
29479SOL    HW190690   7.449   3.080   5.367 -0.2655 -0.8785 -0.7473
29479SOL    HW290691   7.557   3.102   5.471  0.2551 -0.0799 -1.4395
29480SOL     OW90692   8.972   7.225   4.778 -0.3771 -0.1187  0.0468
29480SOL    HW190693   8.961   7.301   4.835 -0.0428 -0.3128  0.3732
29480SOL    HW290694   8.942   7.255   4.692 -1.8261 -0.1247  0.5308
29481SOL     OW90695   7.456   5.983   6.117  0.0356  0.0825 -0.4565
29481SOL    HW190696   7.421   6.054   6.171 -0.2764  0.3144 -0.9572
29481SOL    HW290697   7.417   5.904   6.154 -1.1129  0.3432 -1.0569
29482SOL     OW90698   9.899   7.433   0.698  0.2534 -0.5063 -0.2057
29482SOL    HW190699   9.921   7.508   0.753  1.8516  0.3492 -1.8989
29482SOL    HW290700   9.806   7.417   0.714 -0.5894  2.8658 -0.9605
29483SOL     OW90701   6.219   3.466  10.255 -0.0118 -0.2748  0.1785
29483SOL    HW190702   6.259   3.400  10.198 -0.8811 -1.7765  1.2571
29483SOL    HW290703   6.272   3.545  10.240  1.5848 -1.4156 -0.5263
29484SOL     OW90704   7.264   8.469   4.858  0.2117 -0.2777 -0.2887
29484SOL    HW190705   7.205   8.495   4.929 -0.4231  0.4757 -1.0810
29484SOL    HW290706   7.236   8.521   4.783  1.5417 -0.3057 -0.8246
29485SOL     OW90707   2.164   8.012   6.222 -0.0895  0.0295 -0.5531
29485SOL    HW190708   2.078   8.042   6.251  0.7957  1.0248  1.2144
29485SOL    HW290709   2.221   8.024   6.298  1.4748 -1.2853 -1.4378
29486SOL     OW90710   4.966   3.170   9.005  0.2400  0.0519 -0.2359
29486SOL    HW190711   5.054   3.206   9.014  0.6212 -0.8263 -0.3846
29486SOL    HW290712   4.911   3.246   8.983  0.7662  0.7817  0.9096
29487SOL     OW90713   1.397   1.426   9.036 -0.2229 -0.0311 -0.2720
29487SOL    HW190714   1.475   1.482   9.036 -0.6491  0.9755 -4.7147
29487SOL    HW290715   1.324   1.488   9.038 -0.7136 -0.3677 -3.1034
29488SOL     OW90716   1.055   7.752   5.418 -0.1235  0.0351 -0.1140
29488SOL    HW190717   1.021   7.735   5.506  1.1136  0.8701  0.5489
29488SOL    HW290718   0.978   7.775   5.366 -0.7226  0.7351  1.0563
29489SOL     OW90719   5.129   7.441   8.311  0.5152 -0.0225  0.1703
29489SOL    HW190720   5.208   7.424   8.260 -0.3890  2.4123 -2.3581
29489SOL    HW290721   5.160   7.460   8.399  2.5913 -0.6241 -0.3851
29490SOL     OW90722   5.440   0.842   0.337 -0.0689  0.4760 -0.4265
29490SOL    HW190723   5.426   0.834   0.432  0.6405 -0.5949 -0.3972
29490SOL    HW290724   5.519   0.895   0.329  0.5009 -0.3343 -0.3673
29491SOL     OW90725   0.526   8.682   6.848  0.5382 -0.0111 -0.2185
29491SOL    HW190726   0.600   8.684   6.789  0.1915 -0.2891 -0.6737
29491SOL    HW290727   0.450   8.696   6.791  0.1722 -0.6668  0.0960
29492SOL     OW90728   0.366   4.818   9.686 -0.6686  0.7051 -0.4498
29492SOL    HW190729   0.371   4.840   9.779 -3.1630  2.2939 -0.6054
29492SOL    HW290730   0.406   4.731   9.679 -1.8580 -0.1500  2.3700
29493SOL     OW90731   9.927   1.783   9.356  0.1018  0.1122 -0.6371
29493SOL    HW190732   9.899   1.691   9.353 -0.6322  0.3562 -2.8292
29493SOL    HW290733   9.981   1.794   9.278  0.7896  1.3961 -0.0169
29494SOL     OW90734   2.857   6.505   5.611 -0.0977  0.2741  0.9331
29494SOL    HW190735   2.894   6.418   5.595 -1.1487 -0.2973  1.5046
29494SOL    HW290736   2.889   6.558   5.538 -0.0987 -0.7949  0.1272
29495SOL     OW90737   5.051   2.311   8.968 -0.0926 -0.1501 -0.1061
29495SOL    HW190738   5.056   2.376   8.898 -0.5997  0.4430  0.3956
29495SOL    HW290739   5.140   2.277   8.976  0.2339  0.6589 -0.2112
29496SOL     OW90740   1.334   1.097   6.855  0.0309  0.1956 -0.1739
29496SOL    HW190741   1.290   1.117   6.938  0.4663  1.5550 -0.2475
29496SOL    HW290742   1.424   1.079   6.879  0.7335  2.8273 -0.4954
29497SOL     OW90743   2.127   7.006   9.003  0.7348  0.6545  0.8742
29497SOL    HW190744   2.066   7.031   9.073 -1.6741  1.3866 -1.3074
29497SOL    HW290745   2.189   7.078   8.999 -0.8906  2.0965  0.3727
29498SOL     OW90746   9.630   5.062   6.424  0.3546  0.4015  0.5033
29498SOL    HW190747   9.552   5.101   6.385 -0.7538 -0.3789  1.8579
29498SOL    HW290748   9.636   4.975   6.383  1.3844  0.9894 -0.6656
29499SOL     OW90749   9.354   4.242   8.632  0.1334  0.2254  0.9649
29499SOL    HW190750   9.440   4.205   8.611  0.0866  0.5115  0.2427
29499SOL    HW290751   9.343   4.314   8.571 -1.3820 -0.9057 -0.1992
29500SOL     OW90752   6.335   4.691   5.870  0.3219 -0.4600 -0.3141
29500SOL    HW190753   6.318   4.781   5.896 -0.7236 -0.1319 -2.0016
29500SOL    HW290754   6.331   4.641   5.951 -1.7803  0.6435  0.3242
29501SOL     OW90755   6.111   8.847   4.070  0.3888 -0.3137 -0.3807
29501SOL    HW190756   6.197   8.866   4.033  0.9850 -0.1134  1.0550
29501SOL    HW290757   6.127   8.837   4.164 -1.2464  0.2834 -0.0109
29502SOL     OW90758   0.065   4.490   8.986  0.0925  0.7987 -0.3465
29502SOL    HW190759   0.106   4.406   8.969 -2.8828 -0.8564 -0.0493
29502SOL    HW290760   0.083   4.508   9.079 -0.7601 -0.4655  0.0824
29503SOL     OW90761   7.267  10.165   9.263  0.6124 -0.1209 -0.3093
29503SOL    HW190762   7.243  10.085   9.310 -0.0433  1.1155  1.5971
29503SOL    HW290763   7.217  10.234   9.307  0.2645  1.1992 -2.6274
29504SOL     OW90764   2.689   2.397   3.748  0.8181 -0.6309 -0.8945
29504SOL    HW190765   2.676   2.419   3.656 -2.3147 -1.1016 -0.6799
29504SOL    HW290766   2.721   2.478   3.788 -0.7601  0.5643 -1.9122
29505SOL     OW90767   5.640   7.141   3.121 -0.1624  0.1589  0.0922
29505SOL    HW190768   5.586   7.090   3.061  0.4968  0.2137 -0.5633
29505SOL    HW290769   5.696   7.077   3.165 -1.6248 -0.0608  1.7395
29506SOL     OW90770   7.835   7.675   6.369  0.1870  0.2583 -0.4377
29506SOL    HW190771   7.891   7.752   6.372 -0.2626  0.5672  0.4050
29506SOL    HW290772   7.869   7.619   6.439  0.4242 -0.2592 -0.9556
29507SOL     OW90773   7.687   3.968   3.184 -0.1136  0.4078 -0.6654
29507SOL    HW190774   7.735   3.970   3.267  0.5254 -0.0262 -1.0055
29507SOL    HW290775   7.743   4.017   3.123 -0.2555  0.1759 -0.9895
29508SOL     OW90776   9.698   5.924   6.913 -0.3655 -0.0730 -0.6777
29508SOL    HW190777   9.789   5.926   6.884 -0.6158 -1.4197 -1.6399
29508SOL    HW290778   9.663   5.843   6.877 -2.5117  1.3567 -2.0738
29509SOL     OW90779   3.653   4.616   1.324  0.0547 -0.1056  0.1783
29509SOL    HW190780   3.738   4.645   1.356 -0.3385  1.5519 -0.1942
29509SOL    HW290781   3.627   4.682   1.259 -0.2850 -2.0539 -1.7852
29510SOL     OW90782   3.515   5.539   8.092  0.4450 -1.0664  0.4605
29510SOL    HW190783   3.594   5.504   8.131  0.7669  0.9180  1.7411
29510SOL    HW290784   3.481   5.601   8.158 -1.2223 -0.6105 -0.7549
29511SOL     OW90785   0.229   7.797   6.519 -0.3168  0.1685  0.1209
29511SOL    HW190786   0.325   7.802   6.511 -0.2478 -1.4274 -0.3374
29511SOL    HW290787   0.197   7.800   6.429 -0.6411 -0.1013  0.2230
29512SOL     OW90788   1.827   5.374   6.431  0.0895 -0.1485  0.1717
29512SOL    HW190789   1.921   5.391   6.439  0.2805 -0.4031 -1.2670
29512SOL    HW290790   1.807   5.396   6.340 -1.2179 -0.2455  0.4262
29513SOL     OW90791   1.505   0.272   2.141 -0.2079  0.5773 -0.6086
29513SOL    HW190792   1.559   0.195   2.125 -0.0563  0.6088 -0.2663
29513SOL    HW290793   1.538   0.307   2.224 -0.4547  0.8550 -0.6268
29514SOL     OW90794   7.707   8.127   8.768 -0.0276  0.0949 -0.7568
29514SOL    HW190795   7.677   8.083   8.688  1.7339 -0.7572 -0.9894
29514SOL    HW290796   7.773   8.190   8.738 -0.6036  1.0173 -0.1355
29515SOL     OW90797  10.634   6.598   5.418 -0.1582  0.0624  0.3372
29515SOL    HW190798  10.653   6.692   5.425 -3.0375  0.7490 -0.0069
29515SOL    HW290799  10.592   6.588   5.333  0.7164 -1.7268  0.0574
29516SOL     OW90800   0.359   0.372   0.460  0.3374  0.2278 -0.1211
29516SOL    HW190801   0.422   0.430   0.417 -1.3541  1.0710 -1.6366
29516SOL    HW290802   0.275   0.417   0.448 -0.7856 -1.6837  0.2711
29517SOL     OW90803   6.551   9.027   4.802  0.1117 -0.0629 -0.3198
29517SOL    HW190804   6.482   9.079   4.763  0.6681  0.2396 -0.9128
29517SOL    HW290805   6.506   8.970   4.865 -0.6906 -0.0156 -0.8478
29518SOL     OW90806   3.655   6.805   6.437 -0.1691  0.1845 -0.4146
29518SOL    HW190807   3.638   6.794   6.343  1.9880  1.8703 -1.0911
29518SOL    HW290808   3.637   6.898   6.453  0.0435  0.0355  0.7229
29519SOL     OW90809   4.571   4.455   1.064 -0.5032 -0.2060  0.0010
29519SOL    HW190810   4.567   4.378   1.121 -1.4374 -0.5812 -0.5408
29519SOL    HW290811   4.662   4.482   1.066 -0.0540 -1.6189 -0.1533
29520SOL     OW90812   2.255   0.116   7.597 -0.2529 -0.3255  0.3180
29520SOL    HW190813   2.347   0.141   7.610 -0.2516  0.2878 -0.6807
29520SOL    HW290814   2.246   0.111   7.501 -1.3099 -0.1646  0.4007
29521SOL     OW90815   9.865   1.674   6.149  0.4737 -0.7009 -0.0709
29521SOL    HW190816   9.895   1.644   6.063 -0.4282  0.4452 -0.8103
29521SOL    HW290817   9.932   1.737   6.177 -0.0691  0.1841 -0.7127
29522SOL     OW90818   1.898  10.361   7.716 -0.0452 -0.4559 -0.0006
29522SOL    HW190819   1.902  10.271   7.685  1.6590 -0.2224 -0.5455
29522SOL    HW290820   1.940  10.413   7.648  0.1346  0.5902  0.8664
29523SOL     OW90821   7.983   2.820   6.858 -0.3369  0.1407 -0.1610
29523SOL    HW190822   7.964   2.786   6.945 -0.2819 -0.4173 -0.3667
29523SOL    HW290823   8.071   2.857   6.866  0.1634 -0.9994 -0.2898
29524SOL     OW90824   9.992   2.910   1.733  0.0477  0.1578  0.0956
29524SOL    HW190825  10.006   2.983   1.794 -0.8961 -0.7687  1.4732
29524SOL    HW290826   9.925   2.856   1.775  1.4600 -2.0921 -0.3618
29525SOL     OW90827   0.387   9.713   7.511  0.3063 -0.5022 -0.2873
29525SOL    HW190828   0.297   9.688   7.489 -0.1853  0.1357  0.9391
29525SOL    HW290829   0.428   9.631   7.540 -0.1794 -0.6029  0.1191
29526SOL     OW90830  10.118   7.572   7.780  0.4506 -0.2091  0.2002
29526SOL    HW190831  10.094   7.582   7.688  0.8178 -2.3260 -0.1711
29526SOL    HW290832  10.213   7.569   7.781  0.4698  0.3688  0.7264
29527SOL     OW90833   0.928   5.994   2.235  0.0804 -0.1013 -0.4553
29527SOL    HW190834   0.928   5.995   2.139 -1.1446  0.0833 -0.4786
29527SOL    HW290835   1.005   5.942   2.259  0.2285 -0.4103 -1.5483
29528SOL     OW90836   7.541   5.653   2.664 -0.5637 -0.1272  0.0782
29528SOL    HW190837   7.453   5.617   2.653 -0.9145 -0.3298  2.7662
29528SOL    HW290838   7.577   5.606   2.740  2.0766 -0.3716 -1.2080
29529SOL     OW90839   8.401   3.205   0.177  0.6419  0.2979 -0.4603
29529SOL    HW190840   8.352   3.252   0.245  0.3531 -2.2135  1.1947
29529SOL    HW290841   8.481   3.177   0.221 -0.3771 -3.0089 -0.4217
29530SOL     OW90842   0.584   2.533   5.277 -0.3183 -0.2006 -0.0243
29530SOL    HW190843   0.579   2.619   5.234  1.0674 -0.1191 -0.0709
29530SOL    HW290844   0.665   2.495   5.244 -0.6284 -1.2953  0.4440
29531SOL     OW90845   0.320   5.357   3.691 -0.4957 -0.0337  0.0811
29531SOL    HW190846   0.390   5.341   3.628 -1.1240 -1.6355 -0.2772
29531SOL    HW290847   0.275   5.272   3.699  0.1558 -0.1959  3.4751
29532SOL     OW90848   6.295  10.105   4.968  0.2554 -0.1444 -0.0626
29532SOL    HW190849   6.317  10.038   4.902 -0.1825 -0.5870  0.2330
29532SOL    HW290850   6.361  10.093   5.036  0.1414 -0.3135  0.0179
29533SOL     OW90851   0.342   0.136   1.227  0.1653  0.4289  0.2282
29533SOL    HW190852   0.353   0.046   1.194  0.0708 -0.0549  1.4837
29533SOL    HW290853   0.276   0.129   1.295  1.0580  1.2316  1.2005
29534SOL     OW90854   6.087   0.288   3.515 -0.3545 -0.2804 -0.1543
29534SOL    HW190855   6.150   0.270   3.445 -0.0410  1.1417 -0.2846
29534SOL    HW290856   6.102   0.380   3.537 -2.9025  0.3192 -0.6826
29535SOL     OW90857   9.895   3.611   8.713  0.2292 -0.2722  0.6448
29535SOL    HW190858   9.914   3.535   8.658  0.7292 -0.0038  0.4365
29535SOL    HW290859   9.827   3.581   8.774 -0.1709 -0.6373  0.0270
29536SOL     OW90860   3.752   0.519   1.525  0.1082  0.0673 -0.1462
29536SOL    HW190861   3.832   0.540   1.574  0.3264 -0.1988 -0.3823
29536SOL    HW290862   3.776   0.535   1.433 -0.9560  2.7526 -0.0450
29537SOL     OW90863   3.067   3.026   2.136  0.5036 -0.3089  0.4247
29537SOL    HW190864   3.100   3.088   2.201 -2.3221  2.3982 -0.4997
29537SOL    HW290865   3.140   3.014   2.075  1.3198  1.7036  0.9458
29538SOL     OW90866   9.580   7.898   3.058  0.0775  0.0741  0.0531
29538SOL    HW190867   9.536   7.902   3.142  0.3037 -1.1018  0.2366
29538SOL    HW290868   9.673   7.889   3.079  0.3137  1.3091 -0.3353
29539SOL     OW90869   2.191   3.874   8.050  0.0597 -0.0068 -0.2293
29539SOL    HW190870   2.224   3.834   7.969 -0.7385 -2.1768  0.4427
29539SOL    HW290871   2.262   3.930   8.080  1.7060 -1.7360 -0.7191
29540SOL     OW90872   9.078   6.660   5.186  0.6895 -0.0197  0.3493
29540SOL    HW190873   9.144   6.594   5.210  1.2899  0.2608 -0.4789
29540SOL    HW290874   9.035   6.623   5.109  0.5110  0.2200  0.3333
29541SOL     OW90875   3.283   1.582   7.914  0.3658  0.2106  0.7577
29541SOL    HW190876   3.339   1.659   7.920 -0.7937  1.0385  1.3186
29541SOL    HW290877   3.292   1.553   7.823  0.7976  1.0132  0.5351
29542SOL     OW90878  10.632   3.629   9.589  0.3472 -0.0394 -0.3931
29542SOL    HW190879  10.690   3.609   9.662  0.5114  0.6216 -0.3355
29542SOL    HW290880  10.595   3.714   9.610 -2.3726 -1.3730  0.6450
29543SOL     OW90881   2.615   3.882   3.373  0.2035 -0.1687 -0.5943
29543SOL    HW190882   2.655   3.833   3.300 -0.1016  1.3949 -1.8596
29543SOL    HW290883   2.628   3.974   3.350 -2.4550  0.3923 -0.1445
29544SOL     OW90884   0.506   5.896   7.806 -0.2019  0.0095 -0.6098
29544SOL    HW190885   0.570   5.950   7.854 -0.3213 -0.3753 -0.0194
29544SOL    HW290886   0.539   5.807   7.815 -1.7503 -0.4259  1.2066
29545SOL     OW90887   8.413   1.510   9.253 -0.1146 -0.9815 -0.6435
29545SOL    HW190888   8.369   1.546   9.175 -0.7895  1.0988  0.6224
29545SOL    HW290889   8.343   1.468   9.302  0.1109 -1.3551 -0.6429
29546SOL     OW90890   2.349  10.544   4.484 -0.1010 -0.1415 -0.2536
29546SOL    HW190891   2.417  10.479   4.466 -0.8998 -1.4086  1.0785
29546SOL    HW290892   2.267  10.497   4.467 -0.7031  0.4663  0.8838
29547SOL     OW90893   1.272   5.213   7.648 -0.1787  0.2276  0.3577
29547SOL    HW190894   1.201   5.270   7.679 -0.2098  0.0049  0.7032
29547SOL    HW290895   1.331   5.271   7.601  1.1872  1.0581  2.9649
29548SOL     OW90896  10.387   4.792   1.260 -0.0593  0.6071 -0.3593
29548SOL    HW190897  10.380   4.881   1.292  0.1725  0.8857 -1.0572
29548SOL    HW290898  10.464   4.793   1.202 -0.8061  0.2816 -1.3905
29549SOL     OW90899   9.162   2.894   9.227 -0.1430  0.6061  0.4050
29549SOL    HW190900   9.221   2.966   9.203 -0.4604  1.3013  1.5908
29549SOL    HW290901   9.108   2.881   9.150  1.1406  0.3792 -0.4851
29550SOL     OW90902   4.566   3.454   1.018 -0.3773 -0.3153  0.2421
29550SOL    HW190903   4.613   3.474   1.099 -0.6388  2.3492 -0.1920
29550SOL    HW290904   4.535   3.364   1.031  1.7311 -0.9001  2.0074
29551SOL     OW90905   2.566   5.443   2.532 -0.3975 -0.2119  0.2105
29551SOL    HW190906   2.546   5.406   2.446 -0.8806  1.5813 -0.4912
29551SOL    HW290907   2.484   5.438   2.581 -0.0505 -1.5039  0.7234
29552SOL     OW90908   9.296   1.354   5.220  0.4101  0.0535 -0.2476
29552SOL    HW190909   9.363   1.332   5.284  0.9273  0.0986 -0.7611
29552SOL    HW290910   9.221   1.383   5.272  0.8350  0.1246  0.3310
29553SOL     OW90911   3.199   9.555   8.137  0.1086 -0.1763 -0.2130
29553SOL    HW190912   3.217   9.632   8.190  0.5464  0.1624 -0.8519
29553SOL    HW290913   3.244   9.571   8.054  0.2171 -1.1171 -0.3492
29554SOL     OW90914   7.464   7.555   5.717  0.3150  0.2345 -0.1244
29554SOL    HW190915   7.444   7.468   5.752  0.4224 -0.1119 -0.8890
29554SOL    HW290916   7.382   7.583   5.675 -0.0707  1.0072  1.1038
29555SOL     OW90917   8.132   1.418   1.673  0.0678  0.0626  0.4277
29555SOL    HW190918   8.038   1.404   1.660 -0.0943  1.0271  0.4714
29555SOL    HW290919   8.137   1.482   1.744  0.7999 -0.8648  1.2394
29556SOL     OW90920   6.122   7.413   4.344 -0.2561 -0.3254  0.4328
29556SOL    HW190921   6.162   7.380   4.263  2.8015  1.7692  0.9273
29556SOL    HW290922   6.028   7.412   4.326  0.2891  0.1909 -3.2421
29557SOL     OW90923   4.371   0.572   4.064 -0.5098 -0.5232  1.0650
29557SOL    HW190924   4.453   0.527   4.049 -0.7001 -0.5955  0.2276
29557SOL    HW290925   4.305   0.517   4.022 -0.8549  0.0684  0.8246
29558SOL     OW90926   2.428   3.693   3.703  0.1645  0.2721  0.2550
29558SOL    HW190927   2.397   3.615   3.750 -0.4853  1.4567  1.8974
29558SOL    HW290928   2.370   3.699   3.627  0.1481 -0.7595  0.1615
29559SOL     OW90929  10.469   8.728   5.370 -0.1558 -0.2877  0.2465
29559SOL    HW190930  10.448   8.769   5.286 -0.1531 -1.1042 -0.1583
29559SOL    HW290931  10.556   8.761   5.392 -0.1742 -0.0411 -0.0487
29560SOL     OW90932   8.635   0.859   0.736 -0.0370  0.5443 -0.1051
29560SOL    HW190933   8.610   0.797   0.668 -0.0787 -0.2302  0.6013
29560SOL    HW290934   8.726   0.836   0.757 -0.3808  0.0463  0.8765
29561SOL     OW90935   5.624   2.861   5.159 -0.7105 -0.5340  0.7055
29561SOL    HW190936   5.618   2.767   5.142  0.5374 -0.5000 -0.0367
29561SOL    HW290937   5.534   2.893   5.147 -0.8425 -1.3532 -0.7567
29562SOL     OW90938   2.529   1.021   0.630 -0.1511  0.2343 -0.1394
29562SOL    HW190939   2.504   0.946   0.577 -0.6933  0.7547 -0.6387
29562SOL    HW290940   2.478   1.011   0.711 -0.4901  0.2432 -0.3484
29563SOL     OW90941   5.909   0.653   4.976  0.3795  0.0252 -0.2783
29563SOL    HW190942   5.891   0.747   4.981  1.5761  0.2682 -0.0860
29563SOL    HW290943   5.834   0.612   5.018 -0.5447  0.8413 -1.0702
29564SOL     OW90944   2.600   9.877   4.645 -0.2752  0.4445  0.5425
29564SOL    HW190945   2.656   9.800   4.633  0.1217  0.5573  1.5683
29564SOL    HW290946   2.630   9.915   4.727 -1.7889  0.5831  1.0519
29565SOL     OW90947   7.705   9.065   2.964  0.8471 -0.4850  0.2838
29565SOL    HW190948   7.792   9.053   3.002  1.4938 -0.0172 -0.9825
29565SOL    HW290949   7.656   8.988   2.991  1.7447 -0.8948  0.7818
29566SOL     OW90950   1.066   0.030   1.662 -0.0399  0.6754 -0.2910
29566SOL    HW190951   1.006   0.064   1.596 -0.6478  1.4786  0.6448
29566SOL    HW290952   1.146   0.081   1.650 -0.6543  1.8809  0.5366
29567SOL     OW90953   2.783   7.013   4.817  0.4698 -0.4211  0.3820
29567SOL    HW190954   2.839   7.046   4.746  0.6735  0.1633  0.8034
29567SOL    HW290955   2.772   6.920   4.798  1.2687 -0.4592  0.0752
29568SOL     OW90956   2.742   4.077   7.826  0.1540 -0.0199  0.2766
29568SOL    HW190957   2.708   4.135   7.758 -0.8339  0.6337  1.2799
29568SOL    HW290958   2.765   4.136   7.898  1.9237 -0.6183  0.2309
29569SOL     OW90959   7.964   2.967   8.242 -0.2498  0.5269  0.3129
29569SOL    HW190960   8.007   2.945   8.159 -1.7756  0.1006 -0.3925
29569SOL    HW290961   7.935   3.057   8.231 -0.3661  0.5019  0.4211
29570SOL     OW90962   0.847   1.583   9.495 -0.0342  0.0989  0.7103
29570SOL    HW190963   0.831   1.502   9.447 -0.3837  0.7005 -0.2194
29570SOL    HW290964   0.921   1.563   9.552  0.0791 -0.7796  0.2720
29571SOL     OW90965   0.294  10.035   1.288 -0.2314  0.0554 -0.3750
29571SOL    HW190966   0.233  10.017   1.359  1.6955 -0.5302  1.2197
29571SOL    HW290967   0.293   9.955   1.235  0.0642 -0.4387  0.3519
29572SOL     OW90968   4.909   6.658   3.924  0.4520  0.2401 -0.1124
29572SOL    HW190969   4.842   6.696   3.867 -0.0332 -0.6336 -0.1431
29572SOL    HW290970   4.863   6.590   3.974  1.3773 -0.6331 -0.3948
29573SOL     OW90971   9.511   8.179   4.686  0.4024  0.0666 -0.2148
29573SOL    HW190972   9.454   8.255   4.695  2.6730  1.9042 -0.1864
29573SOL    HW290973   9.595   8.209   4.721  1.0394 -2.9761  1.2019
29574SOL     OW90974   1.731   7.733   2.978 -0.0093 -0.3923 -0.2475
29574SOL    HW190975   1.661   7.710   2.917  0.1326 -0.6720 -0.3093
29574SOL    HW290976   1.731   7.662   3.042  1.5334 -1.4721 -1.3776
29575SOL     OW90977   0.541  10.457   7.130 -0.5151  0.1298  0.6132
29575SOL    HW190978   0.496  10.384   7.173 -1.3487  0.5284  0.4346
29575SOL    HW290979   0.504  10.535   7.172  1.5460  0.4551  1.9968
29576SOL     OW90980  10.497   4.289   2.874  0.1223 -0.1770 -0.5539
29576SOL    HW190981  10.412   4.309   2.912  0.3453 -1.3086  0.6106
29576SOL    HW290982  10.482   4.213   2.819  0.9299 -2.7162  2.4479
29577SOL     OW90983   4.094   4.239   5.760 -0.3612  0.2604 -0.7128
29577SOL    HW190984   4.124   4.316   5.809  1.2864  0.7241 -2.3619
29577SOL    HW290985   4.005   4.262   5.733 -0.9573  0.3811  1.1611
29578SOL     OW90986   7.212   8.349   8.553  0.9112 -0.4735 -0.0585
29578SOL    HW190987   7.182   8.391   8.633 -0.3102  0.5517 -1.0123
29578SOL    HW290988   7.299   8.384   8.537  0.1241  1.3575 -0.5482
29579SOL     OW90989   3.818   7.663   8.426  0.0386 -0.5017  0.2272
29579SOL    HW190990   3.753   7.660   8.356 -0.1121  0.4427  0.3237
29579SOL    HW290991   3.766   7.665   8.507  0.2116 -1.8356  0.3937
29580SOL     OW90992   8.702   7.844   5.426 -0.0034  0.2292  0.5669
29580SOL    HW190993   8.609   7.866   5.425  0.0520  0.5228 -1.1365
29580SOL    HW290994   8.727   7.848   5.518 -1.4075  1.3366  0.9264
29581SOL     OW90995   6.318   4.659   4.051  0.6238 -0.3958 -0.3532
29581SOL    HW190996   6.374   4.593   4.010 -0.0492 -0.0292 -1.9493
29581SOL    HW290997   6.378   4.729   4.077  1.1969 -1.1133  0.2843
29582SOL     OW90998   0.533   7.180   8.979 -0.3378 -0.5284 -0.1205
29582SOL    HW190999   0.567   7.245   8.918  1.3905  0.0718  1.3511
29582SOL    HW291000   0.501   7.232   9.053 -1.1256 -1.2806  0.0778
29583SOL     OW91001   4.383   4.266   8.892  0.2750 -0.5371  0.1005
29583SOL    HW191002   4.436   4.187   8.886  0.1837 -0.5774 -0.1827
29583SOL    HW291003   4.298   4.237   8.925  0.6892 -0.3546  1.3507
29584SOL     OW91004   8.288   0.434   4.292 -0.3601  0.1938 -0.4586
29584SOL    HW191005   8.252   0.365   4.236 -1.2373  1.1695 -1.1162
29584SOL    HW291006   8.251   0.515   4.258 -0.1266  0.9127  0.9246
29585SOL     OW91007   4.539   8.592   1.699 -0.3721  0.3888  0.4807
29585SOL    HW191008   4.632   8.615   1.706 -0.4097  0.1671  2.0855
29585SOL    HW291009   4.528   8.521   1.762 -1.4385 -0.2506 -0.3965
29586SOL     OW91010   8.989   8.594   5.174  0.0173 -0.0516  0.4743
29586SOL    HW191011   9.047   8.517   5.174 -1.1538 -0.9728  1.4973
29586SOL    HW291012   8.906   8.561   5.209 -0.8758  1.4298 -0.1912
29587SOL     OW91013   5.127  10.514   0.735 -0.6525  0.1603 -0.2979
29587SOL    HW191014   5.096  10.493   0.823 -1.2408 -0.4922 -0.6472
29587SOL    HW291015   5.151  10.607   0.739  0.2581 -0.0988  0.8037
29588SOL     OW91016   9.675   7.729  10.083 -0.7624  0.3050 -0.2035
29588SOL    HW191017   9.735   7.739  10.157 -0.1874 -0.3884 -0.5632
29588SOL    HW291018   9.618   7.806  10.088 -1.6474 -0.4231  1.7837
29589SOL     OW91019   3.792   5.911   6.343  0.2937 -0.5476  0.1763
29589SOL    HW191020   3.703   5.875   6.339  0.4449 -0.8545 -0.7327
29589SOL    HW291021   3.831   5.867   6.418  0.3199 -1.9855 -0.6303
29590SOL     OW91022   8.035   7.963   0.801 -0.2238  0.0305  0.3104
29590SOL    HW191023   8.031   7.983   0.895  0.6752 -0.4859  0.4757
29590SOL    HW291024   8.123   7.991   0.775 -0.9666  1.5251 -0.7253
29591SOL     OW91025   2.993   5.209  10.366  0.0661  0.8617  1.0115
29591SOL    HW191026   3.082   5.199  10.331 -0.8658 -0.7955 -1.1488
29591SOL    HW291027   2.988   5.146  10.437 -0.6114 -2.4971 -1.7559
29592SOL     OW91028   6.650   3.025   9.287 -0.4841  0.6368  0.2280
29592SOL    HW191029   6.675   3.080   9.213  0.0469  0.1257  0.0225
29592SOL    HW291030   6.585   2.965   9.253 -2.5247  2.3296  0.8921
29593SOL     OW91031   2.095   8.098   1.900  0.9883  0.4121  0.0017
29593SOL    HW191032   2.088   8.188   1.870  2.4587  0.7613  0.6073
29593SOL    HW291033   2.177   8.096   1.951  0.3291 -0.9435  1.0859
29594SOL     OW91034   0.660   2.268   2.331 -0.1843 -0.0784  0.4130
29594SOL    HW191035   0.684   2.181   2.297  0.6931 -0.1663  1.2122
29594SOL    HW291036   0.568   2.260   2.354 -0.2880 -0.5941 -0.1580
29595SOL     OW91037   3.074   4.946   8.952  0.3429 -0.1617 -0.5161
29595SOL    HW191038   3.134   4.963   9.025 -1.2274 -0.5890  0.9068
29595SOL    HW291039   3.032   5.030   8.936 -0.6568 -0.4879  0.3259
29596SOL     OW91040   2.643  10.612   5.857 -0.3101  0.3595  0.5542
29596SOL    HW191041   2.698  10.621   5.780 -2.3356  0.4231 -0.9807
29596SOL    HW291042   2.641  10.700   5.896  0.5292  0.3880  0.5379
29597SOL     OW91043   4.127   5.518   1.473  0.5285 -0.1865 -0.1752
29597SOL    HW191044   4.150   5.426   1.488  1.1117 -0.3673 -1.9675
29597SOL    HW291045   4.058   5.515   1.407 -0.5225  0.6311  0.8418
29598SOL     OW91046   2.517  10.415   0.298  0.1839  0.0085 -0.2149
29598SOL    HW191047   2.583  10.460   0.351 -0.7500  1.2723 -0.0767
29598SOL    HW291048   2.490  10.480   0.233 -1.9774  0.0682  0.6524
29599SOL     OW91049   8.301   6.061   2.462 -0.5879 -0.6369 -0.4355
29599SOL    HW191050   8.217   6.089   2.425  0.0324  0.4174 -1.1186
29599SOL    HW291051   8.279   5.991   2.524 -1.9817 -0.2241 -0.4404
29600SOL     OW91052   0.869   0.525   7.322  0.2254 -0.3573  0.0373
29600SOL    HW191053   0.861   0.434   7.348  0.6001 -0.0853  1.1739
29600SOL    HW291054   0.779   0.557   7.315  0.1052 -0.6927  0.0823
29601SOL     OW91055   0.255   9.845   1.103  0.1457  0.3059 -0.0946
29601SOL    HW191056   0.237   9.879   1.016 -0.5360  0.0864 -0.0490
29601SOL    HW291057   0.215   9.757   1.103  0.3679  0.2005  0.3451
29602SOL     OW91058   2.729   5.972   2.398 -0.3818 -0.4128  0.5597
29602SOL    HW191059   2.769   6.058   2.391 -1.9833  0.4458  1.2955
29602SOL    HW291060   2.730   5.952   2.492 -1.0765 -0.6500  0.5251
29603SOL     OW91061   6.730   9.530   9.929 -0.1949  0.7017 -0.0264
29603SOL    HW191062   6.769   9.606   9.886 -0.6844  0.8711 -0.1777
29603SOL    HW291063   6.792   9.459   9.914 -1.4183  0.1296 -3.1041
29604SOL     OW91064  10.240   0.944   4.335  0.3011  0.5751  0.3902
29604SOL    HW191065  10.299   1.019   4.330  1.7140 -0.5614 -1.0514
29604SOL    HW291066  10.229   0.915   4.244  0.5302 -1.4932  0.9578
29605SOL     OW91067   0.612   4.677   2.498 -0.3130 -0.2498  0.5923
29605SOL    HW191068   0.677   4.652   2.563 -0.5145 -0.4339  0.7222
29605SOL    HW291069   0.529   4.643   2.531 -0.3518 -0.7266  0.0357
29606SOL     OW91070   0.651   2.233   4.332  0.3990  0.3974  0.1220
29606SOL    HW191071   0.589   2.185   4.388 -0.0441  2.4782  1.5348
29606SOL    HW291072   0.598   2.267   4.260  0.5607 -0.4946 -0.4366
29607SOL     OW91073   0.198   8.340   2.131 -0.4144 -0.4384 -0.1067
29607SOL    HW191074   0.115   8.337   2.084 -1.5376 -1.0520  1.7761
29607SOL    HW291075   0.173   8.362   2.221  1.3845 -1.2923  0.6501
29608SOL     OW91076   2.576   8.587   7.289  0.2584 -0.0872  0.1334
29608SOL    HW191077   2.519   8.660   7.266  0.6396 -0.1460 -1.0618
29608SOL    HW291078   2.658   8.628   7.316 -0.2322 -0.0124  1.6163
29609SOL     OW91079   2.772   5.142   1.043 -0.6116  0.3446 -0.0380
29609SOL    HW191080   2.840   5.208   1.049  1.0561 -1.2627 -0.2428
29609SOL    HW291081   2.809   5.065   1.088 -2.4327 -0.4764  0.1446
29610SOL     OW91082   3.730   9.124   9.786 -0.2296  0.4687  0.1639
29610SOL    HW191083   3.722   9.030   9.770 -0.8029  0.5386  0.0141
29610SOL    HW291084   3.721   9.134   9.880 -1.2471  0.4727  0.0721
29611SOL     OW91085   8.121   9.907   0.314 -0.0811 -0.8325  0.6631
29611SOL    HW191086   8.031   9.934   0.296  0.6301  0.8310 -0.6045
29611SOL    HW291087   8.119   9.811   0.304 -2.1906 -1.1703  3.0808
29612SOL     OW91088  10.318   3.195   6.073  0.2532  0.0779 -0.0524
29612SOL    HW191089  10.294   3.261   6.137 -2.0329 -1.0956  0.4221
29612SOL    HW291090  10.361   3.126   6.123 -2.8099 -1.5062  0.6326
29613SOL     OW91091   2.581   9.721   7.377 -0.0993  0.0277  0.4063
29613SOL    HW191092   2.672   9.702   7.356  0.0167  0.9284  0.0342
29613SOL    HW291093   2.581   9.813   7.404 -1.0868  0.4544 -0.9094
29614SOL     OW91094   7.472   3.558   7.982  0.1695  0.4286  0.3152
29614SOL    HW191095   7.561   3.572   7.950  0.7025  1.7867  2.2217
29614SOL    HW291096   7.458   3.464   7.976  2.0655  0.0875  0.8069
29615SOL     OW91097   8.185   1.204   9.696 -0.6078 -0.6662 -0.0657
29615SOL    HW191098   8.214   1.178   9.608 -0.0209  0.3719 -0.2062
29615SOL    HW291099   8.106   1.256   9.680 -2.1931 -2.8525  0.2621
29616SOL     OW91100   5.241   9.034   5.022 -0.9442 -0.1900  0.3190
29616SOL    HW191101   5.147   9.044   5.037 -1.0576 -0.9907  0.1777
29616SOL    HW291102   5.266   8.961   5.078 -0.8488 -1.4627 -1.3091
29617SOL     OW91103   2.836   7.666   7.626 -0.8328  0.0249 -0.0897
29617SOL    HW191104   2.904   7.602   7.648 -0.9461 -0.8740 -2.0996
29617SOL    HW291105   2.858   7.743   7.677 -0.2490 -1.3484  1.8508
29618SOL     OW91106   0.724   3.957   1.236 -0.1534  0.5361 -0.3654
29618SOL    HW191107   0.634   3.932   1.214  0.7909 -3.9296 -0.0760
29618SOL    HW291108   0.721   3.980   1.329 -1.0733  0.8873 -0.4755
29619SOL     OW91109   8.597   9.997   3.294  0.2100  0.3860  0.0101
29619SOL    HW191110   8.563   9.972   3.379 -1.5195  2.0680 -0.1235
29619SOL    HW291111   8.525  10.044   3.252  1.5696  1.0476 -1.7063
29620SOL     OW91112   5.250   1.957   4.321 -0.6750  0.9517  0.0041
29620SOL    HW191113   5.299   2.029   4.282 -0.1150 -0.1386 -1.3992
29620SOL    HW291114   5.245   1.979   4.414  1.5084  1.6475  0.0072
29621SOL     OW91115   6.800   6.799   6.843  0.3451  0.0684 -0.5288
29621SOL    HW191116   6.894   6.801   6.860  0.2107  0.2933  0.2343
29621SOL    HW291117   6.770   6.889   6.859 -0.3251 -0.4311  1.2568
29622SOL     OW91118   2.034  10.417   3.241 -0.3303 -0.0532  0.0775
29622SOL    HW191119   2.115  10.366   3.240 -0.4714 -0.2830 -0.8459
29622SOL    HW291120   1.986  10.387   3.163 -1.2780  0.1160  0.5820
29623SOL     OW91121   4.686   5.995   5.168  0.4087 -0.1883  0.1837
29623SOL    HW191122   4.601   6.019   5.205  0.0851 -1.0977  0.0442
29623SOL    HW291123   4.719   5.928   5.228  0.2009 -1.1601 -0.7769
29624SOL     OW91124   4.718   9.455   7.192 -0.0231  0.1175  0.0990
29624SOL    HW191125   4.808   9.437   7.165 -0.3969  0.0891 -1.1880
29624SOL    HW291126   4.677   9.369   7.196  0.2080  0.0584  1.4773
29625SOL     OW91127  10.535   6.753   4.263  0.1634  0.1625  0.1213
29625SOL    HW191128  10.547   6.840   4.227 -1.9870  1.3540  2.0363
29625SOL    HW291129  10.460   6.717   4.215  2.1905 -1.5683 -2.0425
29626SOL     OW91130   9.305   7.849   6.415 -0.3066 -0.4031  0.5458
29626SOL    HW191131   9.337   7.832   6.504 -0.6656  0.6101  0.8848
29626SOL    HW291132   9.235   7.785   6.402 -1.5459  0.6552  1.7379
29627SOL     OW91133   3.826   3.878   5.948  0.4594 -0.3103 -0.4638
29627SOL    HW191134   3.853   3.969   5.947  2.0012 -0.5618  3.1232
29627SOL    HW291135   3.789   3.865   6.036 -1.6028 -2.6799 -1.5532
29628SOL     OW91136   0.318   6.541   3.083 -0.1524  0.1326 -0.5761
29628SOL    HW191137   0.271   6.599   3.143  0.2606  1.1287 -1.1952
29628SOL    HW291138   0.250   6.492   3.038 -0.4720 -0.7373  0.7786
29629SOL     OW91139   0.310   8.950   8.545 -0.5773  0.0651 -0.2823
29629SOL    HW191140   0.255   9.018   8.506 -1.5119 -0.0622  0.7768
29629SOL    HW291141   0.288   8.952   8.638 -0.2279 -1.3324 -0.1562
29630SOL     OW91142   3.912   3.437   1.476  0.5234 -0.5511 -0.5135
29630SOL    HW191143   3.871   3.515   1.512 -2.0878 -2.1482  0.2406
29630SOL    HW291144   3.930   3.458   1.385  0.4152  1.0823 -0.1786
29631SOL     OW91145   2.775   3.082   7.031  0.8835 -0.3372  0.2893
29631SOL    HW191146   2.843   3.110   7.093  0.9279  1.1749 -0.4004
29631SOL    HW291147   2.800   2.993   7.007  0.3606 -1.3542  3.1202
29632SOL     OW91148   5.385   1.309   6.091  0.2467 -0.7292  0.2235
29632SOL    HW191149   5.405   1.395   6.128 -0.3159  0.1944 -1.5248
29632SOL    HW291150   5.295   1.316   6.060  0.3993 -1.7486 -0.5158
29633SOL     OW91151   0.002  10.584   1.281 -0.4147 -0.2256  0.0691
29633SOL    HW191152   0.054  10.529   1.339 -0.1220 -0.5166 -0.4576
29633SOL    HW291153  -0.001  10.669   1.324 -0.0145 -0.3793  0.4014
29634SOL     OW91154   4.623   4.067   5.210  0.1055 -0.2844 -0.7398
29634SOL    HW191155   4.538   4.029   5.231 -0.6265  1.0015 -1.2096
29634SOL    HW291156   4.683   4.032   5.276 -1.3334  0.7738  1.2522
29635SOL     OW91157   8.280   5.320   2.364 -0.3251 -0.7631 -0.1951
29635SOL    HW191158   8.209   5.358   2.311 -0.3452  0.7981  0.8849
29635SOL    HW291159   8.313   5.393   2.416  2.2565 -1.3890 -0.8060
29636SOL     OW91160  10.407   6.952   8.510  0.2016  0.2641 -0.1278
29636SOL    HW191161  10.347   6.881   8.488 -2.1013  1.4588  1.8193
29636SOL    HW291162  10.392   7.018   8.442 -1.6721  1.0386  0.9602
29637SOL     OW91163   1.001   2.462   6.399  0.6767  0.5643  0.5273
29637SOL    HW191164   0.947   2.504   6.333 -0.5362  1.0848  1.7860
29637SOL    HW291165   1.091   2.488   6.378  0.4310 -0.0907 -1.4455
29638SOL     OW91166   3.282   4.102  10.619  0.1592 -0.0785  0.0260
29638SOL    HW191167   3.230   4.071  10.694  1.4198 -0.0135  0.9513
29638SOL    HW291168   3.373   4.087  10.645  0.5977 -2.2405 -2.4735
29639SOL     OW91169   3.007   2.899   6.542  0.8482  0.0083  0.0859
29639SOL    HW191170   3.089   2.888   6.590 -0.4020 -2.6592  1.8523
29639SOL    HW291171   2.960   2.817   6.556 -1.5285  0.8695 -2.0856
29640SOL     OW91172   2.059   0.898   0.214 -0.5375 -0.3770 -0.3073
29640SOL    HW191173   2.072   0.804   0.204 -0.2355 -0.2360 -1.3000
29640SOL    HW291174   1.984   0.918   0.158 -0.1581  0.0904 -0.6496
29641SOL     OW91175   4.125   8.202   5.662 -0.2821  0.2914  0.3586
29641SOL    HW191176   4.088   8.119   5.633 -0.3083  0.8547 -1.3522
29641SOL    HW291177   4.190   8.178   5.729  0.5207 -1.2219 -0.8967
29642SOL     OW91178   1.706   7.161   5.184  0.4352 -0.2345  0.6918
29642SOL    HW191179   1.615   7.192   5.182  0.1454 -0.4582  4.2737
29642SOL    HW291180   1.703   7.076   5.141 -0.8513  0.1433 -0.0373
29643SOL     OW91181   7.674   1.322   5.496  0.0253  0.3064 -0.0526
29643SOL    HW191182   7.746   1.385   5.492  0.0066  0.3553  0.3414
29643SOL    HW291183   7.693   1.260   5.425  0.4474  0.3243  0.0409
29644SOL     OW91184   8.930   0.473   3.459  0.8947  0.2202 -0.0224
29644SOL    HW191185   8.866   0.416   3.501  1.1177  0.2473  0.3538
29644SOL    HW291186   8.947   0.432   3.374  1.5669 -0.6429  0.5140
29645SOL     OW91187   7.583   5.054   0.107 -1.0622 -0.0444 -0.6044
29645SOL    HW191188   7.635   5.133   0.116 -1.4740  0.0401  1.4720
29645SOL    HW291189   7.643   4.983   0.128 -1.5571  0.0008  1.0580
29646SOL     OW91190   5.306   3.739   8.820 -0.2535  0.4746  1.0117
29646SOL    HW191191   5.297   3.651   8.857 -1.0655 -0.7354 -1.8207
29646SOL    HW291192   5.225   3.753   8.770  0.9244  1.7469 -0.6551
29647SOL     OW91193   7.169   4.370  10.229 -0.4048 -0.7240 -0.0812
29647SOL    HW191194   7.082   4.359  10.267 -0.0915 -1.1532  0.5209
29647SOL    HW291195   7.181   4.465  10.223 -0.6998 -0.6613  0.3169
29648SOL     OW91196   6.111   3.920   4.168 -0.0652 -0.0898  0.0483
29648SOL    HW191197   6.145   3.850   4.113  0.5350 -0.0211  0.3302
29648SOL    HW291198   6.019   3.896   4.183  0.5588 -1.7642  1.5918
29649SOL     OW91199   7.132   7.792   6.334 -0.4693  0.2278  0.4592
29649SOL    HW191200   7.175   7.841   6.264  1.2129 -2.2018 -0.3149
29649SOL    HW291201   7.117   7.705   6.298 -3.3123  0.0499  1.7913
29650SOL     OW91202   5.774  10.262   4.182  0.1909 -0.2443 -0.0499
29650SOL    HW191203   5.743  10.245   4.271  1.2556  0.5435  0.4921
29650SOL    HW291204   5.828  10.186   4.160 -0.5884 -0.7392 -0.2792
29651SOL     OW91205   0.262   5.859   5.574 -0.0133 -0.5870  0.7362
29651SOL    HW191206   0.301   5.942   5.548 -2.2853  0.6991  1.2179
29651SOL    HW291207   0.257   5.809   5.492 -0.0636  0.3642  0.1375
29652SOL     OW91208   2.927   4.995   9.507  0.0455  0.0977 -0.0361
29652SOL    HW191209   2.952   4.915   9.554  1.7605  0.4761 -0.2131
29652SOL    HW291210   2.934   4.971   9.414  2.2398  0.8445 -0.1300
29653SOL     OW91211   5.835   7.763   4.847 -0.0202 -0.1502  0.1959
29653SOL    HW191212   5.849   7.708   4.925 -0.2295 -0.5297 -0.0271
29653SOL    HW291213   5.791   7.841   4.880 -1.1153 -0.7957  0.3164
29654SOL     OW91214   1.155   6.104   4.904  0.7563  0.3923  0.0636
29654SOL    HW191215   1.131   6.122   4.995 -1.0290  0.3842 -0.3723
29654SOL    HW291216   1.201   6.183   4.875  0.7344  0.6648  0.7574
29655SOL     OW91217   1.631   2.267   0.843 -0.4088 -0.4128 -0.3579
29655SOL    HW191218   1.620   2.318   0.762  2.2508 -0.5922 -0.9066
29655SOL    HW291219   1.646   2.332   0.911  1.1547 -0.3445 -0.7337
29656SOL     OW91220   7.473   5.975   4.370 -0.4420  0.5772  0.0211
29656SOL    HW191221   7.387   6.011   4.349 -0.5247 -0.1796 -1.0524
29656SOL    HW291222   7.503   6.026   4.445 -2.0777  0.4547  0.8013
29657SOL     OW91223   6.552  10.540   8.564 -0.0512  0.4859  0.0166
29657SOL    HW191224   6.540  10.445   8.554 -0.8186  0.7980 -2.8500
29657SOL    HW291225   6.643  10.549   8.592  0.1486 -1.1015 -0.0144
29658SOL     OW91226   6.613  10.567   2.881 -0.1543  0.1910  0.2649
29658SOL    HW191227   6.540  10.629   2.878 -1.2595 -1.0777 -0.0027
29658SOL    HW291228   6.636  10.561   2.973 -0.6046  0.3614  0.3893
29659SOL     OW91229   7.298   5.471   9.701 -0.0465 -0.2923  0.1486
29659SOL    HW191230   7.224   5.512   9.747 -0.0183 -1.1377  0.9845
29659SOL    HW291231   7.375   5.508   9.743 -0.0176 -1.4905  1.2473
29660SOL     OW91232   2.476   2.813   6.774  0.2542  0.1664  0.2128
29660SOL    HW191233   2.414   2.873   6.816  1.1223  1.1412  0.1434
29660SOL    HW291234   2.447   2.807   6.684  0.9117  1.5521 -0.1127
29661SOL     OW91235   4.288   1.958   3.622  0.5143  0.0311 -0.6712
29661SOL    HW191236   4.305   1.945   3.528  2.6906  0.4203 -0.3752
29661SOL    HW291237   4.194   1.978   3.626  0.9144  3.3539 -3.1889
29662SOL     OW91238   3.497   1.890   5.929  0.1777  0.1325  0.4399
29662SOL    HW191239   3.433   1.914   5.996  0.6899  1.1346  0.5918
29662SOL    HW291240   3.478   1.798   5.910 -1.7271  0.5734 -0.0047
29663SOL     OW91241   9.175   9.081   8.880 -0.2487  0.0978  0.9325
29663SOL    HW191242   9.222   9.014   8.832 -0.9171  1.1680 -1.3783
29663SOL    HW291243   9.180   9.159   8.824 -2.9193  0.8354  1.5660
29664SOL     OW91244   3.814   1.598   6.063  0.4532  0.2743 -0.1977
29664SOL    HW191245   3.830   1.639   6.148 -1.0734  0.8981 -0.1818
29664SOL    HW291246   3.745   1.535   6.079  0.7281 -0.1946 -0.8265
29665SOL     OW91247   3.890   4.845   9.885 -0.0954 -0.0457  0.1500
29665SOL    HW191248   3.813   4.860   9.941  0.4230  0.8236  0.6445
29665SOL    HW291249   3.894   4.922   9.828  0.5612  0.0479  0.3153
29666SOL     OW91250   8.109   1.332   3.267  0.0372 -0.4416 -0.3688
29666SOL    HW191251   8.153   1.286   3.195  3.1773 -1.0155  1.7466
29666SOL    HW291252   8.035   1.276   3.289  1.0885 -2.1361 -0.8824
29667SOL     OW91253   5.910   8.601   4.272  0.2491 -0.1774  0.4598
29667SOL    HW191254   5.892   8.518   4.316  2.3523 -1.5061 -0.9628
29667SOL    HW291255   5.991   8.633   4.313 -0.2374  0.9014  0.6188
29668SOL     OW91256   3.419   6.646   6.961  0.4719  0.2775  0.2038
29668SOL    HW191257   3.371   6.654   7.044 -0.5083 -1.5361 -0.1216
29668SOL    HW291258   3.350   6.630   6.896  1.4088 -1.7967 -0.3811
29669SOL     OW91259   6.500   0.773   0.471  0.5652  0.0627  0.2779
29669SOL    HW191260   6.446   0.822   0.532  2.2266  2.7056 -0.2397
29669SOL    HW291261   6.473   0.803   0.384  0.7449 -0.9261 -0.1403
29670SOL     OW91262   4.806   5.391   5.050  0.2641  0.2987  0.0821
29670SOL    HW191263   4.801   5.485   5.066 -0.8511 -0.0110  1.8149
29670SOL    HW291264   4.825   5.353   5.135 -0.1409 -1.1035 -0.4238
29671SOL     OW91265   4.335   8.736   4.297  0.3328 -0.1393 -0.3746
29671SOL    HW191266   4.274   8.689   4.241  2.0499 -0.0941 -2.3670
29671SOL    HW291267   4.290   8.818   4.318 -1.5087 -1.3846  0.7911
29672SOL     OW91268   2.658  10.293   6.217  0.3892 -0.4536  0.3989
29672SOL    HW191269   2.586  10.272   6.158  0.5481 -1.2905  0.4905
29672SOL    HW291270   2.627  10.370   6.267  0.4901  0.6328 -1.1490
29673SOL     OW91271   0.520   2.737   1.099 -0.1364  0.5496 -0.4116
29673SOL    HW191272   0.613   2.717   1.087  0.1868  2.1197 -0.7015
29673SOL    HW291273   0.484   2.737   1.011 -0.6429 -1.0011 -0.2278
29674SOL     OW91274   4.508   3.844   8.307  0.0263  0.6418 -0.6990
29674SOL    HW191275   4.544   3.775   8.362  0.9799  1.4940 -0.2045
29674SOL    HW291276   4.452   3.799   8.244 -0.0676 -0.4791  0.1592
29675SOL     OW91277  10.376   6.114   6.096  0.3175  0.2719 -1.0235
29675SOL    HW191278  10.446   6.054   6.122 -1.2866 -1.0477  0.5457
29675SOL    HW291279  10.307   6.056   6.062 -0.0145  1.5420 -2.6504
29676SOL     OW91280   0.258   3.561   0.628 -0.4809  0.0871  0.2967
29676SOL    HW191281   0.183   3.592   0.576 -0.0933  0.5636  0.0137
29676SOL    HW291282   0.286   3.481   0.583 -1.3792 -0.6081  0.9308
29677SOL     OW91283   2.981   4.887   5.375 -0.3713  0.2125 -0.0007
29677SOL    HW191284   3.010   4.863   5.287  0.7873  1.0881  0.1069
29677SOL    HW291285   2.962   4.804   5.418  1.3879 -0.4016 -0.3150
29678SOL     OW91286  10.460   6.158   9.638 -0.2160  0.0031  0.1436
29678SOL    HW191287  10.510   6.149   9.556 -1.7115  0.3448 -0.8460
29678SOL    HW291288  10.370   6.174   9.609 -0.7753  0.1367  1.8754
29679SOL     OW91289   0.003   2.335   6.320  0.1581 -0.3182  0.0011
29679SOL    HW191290   0.040   2.328   6.408  0.2347 -0.1056 -0.0141
29679SOL    HW291291  -0.087   2.363   6.333  0.3419  0.2915 -0.0137
29680SOL     OW91292   5.056   9.003   3.638 -0.3984  0.2174 -0.4383
29680SOL    HW191293   5.036   8.989   3.731  0.3804 -1.2863 -0.4689
29680SOL    HW291294   4.993   9.070   3.610 -0.5749  0.7779  1.1834
29681SOL     OW91295   8.010   9.374   5.713  0.0719 -0.4499 -0.5561
29681SOL    HW191296   8.043   9.454   5.674  2.1531 -0.5593  0.8272
29681SOL    HW291297   7.983   9.399   5.801 -1.6078 -0.8281 -0.9166
29682SOL     OW91298   2.832   6.854   6.575 -0.2535  0.3335 -0.8566
29682SOL    HW191299   2.750   6.895   6.550 -1.5503 -1.4728  0.2460
29682SOL    HW291300   2.880   6.843   6.493 -1.4356  0.7101 -1.6141
29683SOL     OW91301   2.722   7.958   2.544  0.2617 -0.5128  0.3571
29683SOL    HW191302   2.766   8.021   2.602  0.6656  1.4706 -1.9463
29683SOL    HW291303   2.640   8.001   2.520 -0.3046 -1.6820  0.1086
29684SOL     OW91304   0.239   1.399   7.630  0.5897  0.3287 -0.1200
29684SOL    HW191305   0.181   1.472   7.608 -1.2511 -1.4798 -1.6428
29684SOL    HW291306   0.303   1.396   7.560 -0.7707 -0.8902 -1.3699
29685SOL     OW91307   9.879   2.950   7.061 -0.2385 -0.0614 -1.0110
29685SOL    HW191308   9.852   2.985   6.975 -0.6503 -0.3792 -1.0158
29685SOL    HW291309   9.809   2.889   7.084  0.1279 -0.3556 -0.6791
29686SOL     OW91310   2.423   9.579   6.753  0.3299  0.0180 -0.1037
29686SOL    HW191311   2.388   9.663   6.724 -0.3265 -0.4814 -0.8083
29686SOL    HW291312   2.475   9.548   6.679  0.4081 -0.2903  0.0774
29687SOL     OW91313   7.793   1.245   8.174  0.1293 -0.3649  0.3868
29687SOL    HW191314   7.809   1.206   8.260  0.9128 -1.1356 -0.0913
29687SOL    HW291315   7.811   1.175   8.112 -1.0200 -0.0020 -0.3989
29688SOL     OW91316   1.585  10.447   5.457 -0.3055 -0.6146  0.1136
29688SOL    HW191317   1.558  10.465   5.367 -1.1436 -1.3441  0.2089
29688SOL    HW291318   1.530  10.504   5.510  1.0190  0.7260  0.1397
29689SOL     OW91319   9.125   0.207   1.419  0.5480 -0.2730 -0.2922
29689SOL    HW191320   9.163   0.161   1.344 -0.6402 -0.6454 -0.6955
29689SOL    HW291321   9.091   0.137   1.475 -0.6786  0.0770 -0.5791
29690SOL     OW91322   6.520   2.390   2.426  0.0264 -0.7675 -0.0323
29690SOL    HW191323   6.586   2.460   2.421 -1.5253  0.9361  1.7938
29690SOL    HW291324   6.484   2.385   2.337  1.1164 -0.2251 -0.5199
29691SOL     OW91325   8.912   7.423   4.572  0.5549 -0.2372  0.4941
29691SOL    HW191326   8.817   7.412   4.573  0.4372  0.6321  0.0773
29691SOL    HW291327   8.928   7.505   4.618  1.0515 -0.0773  0.0534
29692SOL     OW91328   8.534   9.303   8.772  0.2256 -0.3683  0.0101
29692SOL    HW191329   8.478   9.250   8.715 -0.2683 -0.2805  0.4036
29692SOL    HW291330   8.485   9.309   8.854  0.4848  0.3130  0.1210
29693SOL     OW91331   5.734   8.186   6.170  0.2576 -0.2666  0.6595
29693SOL    HW191332   5.772   8.264   6.129 -1.0031  0.5481  0.9943
29693SOL    HW291333   5.678   8.221   6.239 -0.6375 -1.4566  0.5507
29694SOL     OW91334   0.232   9.502   5.912 -0.1393 -0.1487 -0.4819
29694SOL    HW191335   0.162   9.552   5.953 -0.8767 -2.3016  1.1041
29694SOL    HW291336   0.292   9.481   5.983 -0.2877 -2.0984 -0.8490
29695SOL     OW91337   1.419   1.299   2.940 -0.2467  0.3087 -0.4248
29695SOL    HW191338   1.501   1.255   2.917  0.4525  0.6239  1.3040
29695SOL    HW291339   1.357   1.228   2.954  0.0203  0.0210 -0.6627
29696SOL     OW91340   6.881   0.453   0.561  0.7311  0.2465 -0.4151
29696SOL    HW191341   6.974   0.468   0.580  0.5270  0.6943  0.2813
29696SOL    HW291342   6.842   0.540   0.562  0.1806  0.0025 -0.0058
29697SOL     OW91343   9.088   2.039   9.069 -0.1091  0.6055  0.4699
29697SOL    HW191344   9.156   2.103   9.049 -0.5065  0.7129 -0.6010
29697SOL    HW291345   9.065   2.000   8.984  0.9406 -1.8219  1.2110
29698SOL     OW91346   1.048   6.087   5.171  1.0431 -0.2220  0.1964
29698SOL    HW191347   1.103   6.161   5.196  0.4895  0.2915 -0.0752
29698SOL    HW291348   1.079   6.014   5.224  1.0475  0.4101  1.0780
29699SOL     OW91349   1.279   0.120   7.334  0.5171  0.4491  0.0487
29699SOL    HW191350   1.188   0.099   7.315  0.2966 -0.5048  1.9400
29699SOL    HW291351   1.312   0.158   7.253 -1.1305 -0.6007 -1.1736
29700SOL     OW91352   1.024   4.439   7.509  0.3653 -0.5030 -0.4729
29700SOL    HW191353   0.994   4.512   7.455  0.9104 -0.6766 -1.0207
29700SOL    HW291354   1.017   4.471   7.599 -1.6568 -0.6055 -0.5498
29701SOL     OW91355   8.598  10.512   6.269 -0.3871  0.0432  0.7772
29701SOL    HW191356   8.654  10.442   6.304  0.2902 -0.9041 -1.9235
29701SOL    HW291357   8.657  10.566   6.217 -1.4975  0.6211  0.0675
29702SOL     OW91358   3.213   8.633   7.370 -0.3572 -0.0775  0.2394
29702SOL    HW191359   3.280   8.594   7.314  0.9466 -2.5934  3.2389
29702SOL    HW291360   3.134   8.581   7.352 -0.4463  0.3067 -0.5025
29703SOL     OW91361   4.488   9.361   8.483 -0.0200  0.5551  0.5488
29703SOL    HW191362   4.432   9.363   8.406 -0.0313  2.4610  0.5477
29703SOL    HW291363   4.574   9.389   8.452  0.3803 -0.2236  0.9389
29704SOL     OW91364   4.102   1.128   7.146 -0.9701  0.3223 -0.3740
29704SOL    HW191365   4.185   1.093   7.180 -0.5778 -1.0418 -2.5569
29704SOL    HW291366   4.035   1.073   7.187 -0.5703 -0.6966 -1.0594
29705SOL     OW91367  10.196  10.511   3.091  0.5024  0.0351 -0.4768
29705SOL    HW191368  10.286  10.486   3.069 -0.0600 -1.5423 -1.1267
29705SOL    HW291369  10.193  10.507   3.187  0.8990 -0.8233 -0.4890
29706SOL     OW91370   3.988   1.994   0.659 -0.2139  0.2763 -0.1217
29706SOL    HW191371   4.082   2.010   0.658 -0.3240  0.9294 -1.0955
29706SOL    HW291372   3.980   1.899   0.663  0.4848  0.2149 -0.0600
29707SOL     OW91373   0.269   6.397   8.789 -0.0815 -0.0228 -0.1341
29707SOL    HW191374   0.225   6.480   8.773 -0.8379 -0.5579 -0.9404
29707SOL    HW291375   0.337   6.392   8.722  0.1276  0.0604  0.0713
29708SOL     OW91376   4.913   0.950   9.473 -0.1201  0.0826 -1.0562
29708SOL    HW191377   4.898   0.961   9.567 -0.7550 -0.8192 -1.0369
29708SOL    HW291378   4.844   1.003   9.432 -0.3058 -0.1117 -1.0009
29709SOL     OW91379   6.209   2.566   6.032 -0.0017  0.2077  0.6174
29709SOL    HW191380   6.126   2.534   5.998  0.5167  2.1084 -2.9465
29709SOL    HW291381   6.272   2.498   6.008 -0.2558 -0.4481  1.7734
29710SOL     OW91382   1.381  10.143  10.090  0.0315  0.0563 -0.0573
29710SOL    HW191383   1.378  10.190  10.007 -0.7678  0.3352  0.1203
29710SOL    HW291384   1.447  10.075  10.076  0.3274  0.4636 -0.7198
29711SOL     OW91385  10.062   9.926   6.730 -0.3193  0.1716  0.1779
29711SOL    HW191386  10.030  10.007   6.689  0.0186  1.5085  2.3501
29711SOL    HW291387  10.035   9.935   6.822 -0.5085 -2.3458  0.4264
29712SOL     OW91388   7.733   9.983   0.526  0.6536 -0.1144 -0.0031
29712SOL    HW191389   7.715  10.039   0.450  0.7818  0.1806  0.1814
29712SOL    HW291390   7.682   9.904   0.510  1.0020 -0.2205 -0.5960
29713SOL     OW91391   4.685   1.746   3.993 -0.3989  0.1781  0.7642
29713SOL    HW191392   4.633   1.826   3.998 -1.7307 -0.7119  2.5825
29713SOL    HW291393   4.622   1.676   4.009  1.4397 -0.9129  4.2975
29714SOL     OW91394   2.746   7.384   7.139 -0.9762  0.2642  0.4870
29714SOL    HW191395   2.753   7.341   7.053 -1.6709 -1.6124  1.2991
29714SOL    HW291396   2.660   7.426   7.137 -0.6905  0.8439  0.0209
29715SOL     OW91397   4.635   1.896   2.618  0.0034 -0.0104  0.0640
29715SOL    HW191398   4.600   1.877   2.531  0.2936  1.0275 -0.2858
29715SOL    HW291399   4.718   1.941   2.602  1.7137 -2.6204  0.8750
29716SOL     OW91400   1.773   9.897   1.240  0.4777  0.1965  0.0740
29716SOL    HW191401   1.781   9.874   1.147 -3.2140 -0.2955 -0.2883
29716SOL    HW291402   1.769   9.813   1.285 -0.1646  0.3735  0.3528
29717SOL     OW91403   3.639   2.825   8.812 -0.3870  0.2398  0.1061
29717SOL    HW191404   3.692   2.787   8.742 -0.5652 -0.4355  0.3295
29717SOL    HW291405   3.696   2.823   8.889 -0.2511  0.8231  0.0268
29718SOL     OW91406   9.630   2.254   4.062 -0.7573  0.2688  0.3984
29718SOL    HW191407   9.559   2.255   4.126 -1.1728 -0.1846 -0.0469
29718SOL    HW291408   9.595   2.204   3.988  0.7093 -1.7854  0.9831
29719SOL     OW91409   8.451   4.329   4.903  0.4129 -0.4217  0.4742
29719SOL    HW191410   8.423   4.239   4.921  0.0654 -0.6261 -0.9568
29719SOL    HW291411   8.544   4.321   4.881 -0.0629 -0.7565 -1.6208
29720SOL     OW91412  10.320   7.096   8.287  0.2443 -0.0830  0.3971
29720SOL    HW191413  10.373   7.048   8.225  1.8180 -2.5844  3.4009
29720SOL    HW291414  10.337   7.188   8.268  2.7818 -0.7863 -1.1109
29721SOL     OW91415   2.559   2.762   8.599 -0.1669  0.3160  0.5377
29721SOL    HW191416   2.543   2.808   8.516 -2.0772 -1.8383 -0.4260
29721SOL    HW291417   2.586   2.674   8.572  0.4150 -0.0514  2.2323
29722SOL     OW91418   3.679   3.527   5.772 -0.0520 -0.0392  0.8819
29722SOL    HW191419   3.694   3.433   5.759  0.1632  0.1944 -0.7921
29722SOL    HW291420   3.685   3.539   5.867  0.5140 -1.6112  1.0849
29723SOL     OW91421   5.331   4.892   4.621  0.1247 -0.5629  0.2452
29723SOL    HW191422   5.409   4.867   4.671 -0.8843 -0.9690  1.6729
29723SOL    HW291423   5.363   4.957   4.558  1.2023  1.1885  2.4542
29724SOL     OW91424   9.757   0.238   0.758 -0.0567 -0.4533 -0.0365
29724SOL    HW191425   9.780   0.258   0.849  0.3035  1.6047 -0.5333
29724SOL    HW291426   9.836   0.197   0.722  0.0827 -0.5387  0.3605
29725SOL     OW91427   9.645   6.255   5.384  0.1419  0.2310 -0.0599
29725SOL    HW191428   9.707   6.310   5.430  0.5783 -0.0236 -0.3388
29725SOL    HW291429   9.659   6.274   5.291 -0.4000  0.3898 -0.1136
29726SOL     OW91430  10.406   8.688  10.563 -0.0954 -0.0204  0.5399
29726SOL    HW191431  10.409   8.773  10.519  1.0690 -0.0108  0.5918
29726SOL    HW291432  10.420   8.625  10.493 -0.1138 -0.1133  0.6206
29727SOL     OW91433   1.566   6.034   0.288  0.2835  0.0685 -0.3966
29727SOL    HW191434   1.494   5.984   0.250 -0.6762  2.1682 -1.4802
29727SOL    HW291435   1.546   6.038   0.381  0.8870 -2.2903 -0.1041
29728SOL     OW91436   7.727   3.623   2.720  0.5198  0.0670 -0.6385
29728SOL    HW191437   7.780   3.653   2.646  1.2245 -1.4716 -0.8042
29728SOL    HW291438   7.778   3.645   2.797  0.9068 -0.4445 -0.7438
29729SOL     OW91439   0.378   3.696   0.307 -0.3397  0.5458  0.0393
29729SOL    HW191440   0.341   3.618   0.265 -1.3288  1.3102 -0.5695
29729SOL    HW291441   0.456   3.664   0.352 -1.8428 -1.2107  1.6093
29730SOL     OW91442  10.385   8.926  10.449  0.0039 -0.0058  0.4385
29730SOL    HW191443  10.443   8.955  10.379  0.4609  1.6572  1.4419
29730SOL    HW291444  10.305   8.977  10.437 -0.5455 -0.9130  0.1737
29731SOL     OW91445   5.594   9.549   6.932  0.5468 -0.5912 -0.3082
29731SOL    HW191446   5.658   9.569   6.864  0.0619 -0.1562 -0.6458
29731SOL    HW291447   5.619   9.462   6.965  0.3084 -1.1845 -1.6162
29732SOL     OW91448   2.791   2.857   9.699 -0.3910  0.2915 -0.0666
29732SOL    HW191449   2.738   2.871   9.778 -0.5711  0.3167 -0.1909
29732SOL    HW291450   2.881   2.854   9.731 -0.2894  2.0875 -0.0597
29733SOL     OW91451   6.005   5.711   3.278 -0.2422  0.0056 -0.2193
29733SOL    HW191452   6.040   5.752   3.199 -0.6784  1.0925  0.1218
29733SOL    HW291453   5.956   5.782   3.321  0.4595 -0.4030  1.3141
29734SOL     OW91454   9.480   1.162   9.422 -0.3952 -0.0552 -0.5597
29734SOL    HW191455   9.449   1.073   9.406 -1.4225  0.3068 -0.5932
29734SOL    HW291456   9.535   1.182   9.346 -2.1299  0.2234 -1.7825
29735SOL     OW91457   7.039   1.505   8.767  0.7010  0.2169 -0.1019
29735SOL    HW191458   7.063   1.504   8.674  0.8812  0.5330 -0.0575
29735SOL    HW291459   6.948   1.475   8.768  0.5941  0.5302 -0.4120
29736SOL     OW91460   8.829   1.253   4.201  0.0991  0.0706 -0.0595
29736SOL    HW191461   8.887   1.305   4.145  1.1951 -1.5972 -0.5531
29736SOL    HW291462   8.749   1.242   4.150  0.3050  0.2930 -0.4323
29737SOL     OW91463   4.259   0.694   0.070  0.1430  0.0933 -0.2235
29737SOL    HW191464   4.281   0.640   0.146  1.6648  0.7412 -0.1499
29737SOL    HW291465   4.175   0.660   0.039 -0.1761 -0.6284  1.3304
29738SOL     OW91466   0.561   6.460   5.980  0.2572  0.0274 -0.3275
29738SOL    HW191467   0.491   6.495   5.924  0.6757  0.1448 -0.7870
29738SOL    HW291468   0.545   6.366   5.982 -1.0033  0.2295  1.0910
29739SOL     OW91469   1.383   8.984   8.568  0.4562 -0.1715  0.5430
29739SOL    HW191470   1.477   8.997   8.579  0.4618  0.0647  0.2351
29739SOL    HW291471   1.344   9.019   8.649  0.6458 -0.4425  0.7515
29740SOL     OW91472   2.335   0.316   2.953 -0.3078 -0.2777 -0.4130
29740SOL    HW191473   2.351   0.293   2.862  0.3506  2.0376 -0.9401
29740SOL    HW291474   2.388   0.394   2.968 -0.3464 -0.6350  1.9909
29741SOL     OW91475   2.516   2.645   6.997 -1.0820  0.0015  0.0415
29741SOL    HW191476   2.525   2.711   6.929  1.8798  2.0932  2.1670
29741SOL    HW291477   2.541   2.563   6.955  0.9034  1.2635 -1.4066
29742SOL     OW91478   6.973   6.560  10.088 -0.3283 -0.1121  0.1872
29742SOL    HW191479   6.886   6.526  10.110  0.2478 -0.5529  1.9562
29742SOL    HW291480   6.994   6.620  10.160 -0.2645  2.1324 -1.5642
29743SOL     OW91481   7.786   3.976   6.401  0.2815 -0.3082  0.1701
29743SOL    HW191482   7.855   3.988   6.336  0.3896 -2.4269 -0.1873
29743SOL    HW291483   7.745   4.062   6.409  0.4172  0.0847 -2.5144
29744SOL     OW91484  10.339   1.537  10.447  0.2396  0.1076 -0.3855
29744SOL    HW191485  10.402   1.569  10.512 -0.6676 -0.3682  0.7709
29744SOL    HW291486  10.317   1.449  10.476 -2.1934  0.8239  0.2269
29745SOL     OW91487   7.579   4.134   0.760 -0.0466 -0.2060 -0.0535
29745SOL    HW191488   7.653   4.139   0.700 -0.3815 -0.9498 -0.5390
29745SOL    HW291489   7.567   4.224   0.790  1.7216 -0.2357  0.8661
29746SOL     OW91490   3.178   3.883   2.579  0.0987 -0.0185 -0.6611
29746SOL    HW191491   3.210   3.874   2.668 -0.6168  2.0194 -0.1570
29746SOL    HW291492   3.136   3.798   2.560 -1.0652  0.0028  1.5043
29747SOL     OW91493   6.652   2.407   5.670 -0.0804 -0.0929 -0.3950
29747SOL    HW191494   6.606   2.334   5.629 -1.9860  0.6298  0.3323
29747SOL    HW291495   6.664   2.380   5.761  2.2954 -0.8473 -0.8644
29748SOL     OW91496   9.006   3.905   6.999 -0.1070  0.5326 -0.5114
29748SOL    HW191497   9.007   3.823   7.049  2.9515  1.8882  1.9628
29748SOL    HW291498   9.050   3.884   6.917  0.2808 -0.3873 -0.0758
29749SOL     OW91499   6.709   3.488   3.857 -0.0298  0.1451  0.0040
29749SOL    HW191500   6.644   3.506   3.789  0.7653 -0.3213 -0.8976
29749SOL    HW291501   6.791   3.474   3.810  0.2128 -1.9280  0.9146
29750SOL     OW91502   5.237   9.539   3.102 -0.5803  0.2378  0.3862
29750SOL    HW191503   5.172   9.470   3.093 -0.1666 -0.0917 -0.0940
29750SOL    HW291504   5.320   9.493   3.115 -0.4473  0.6545  1.0582
29751SOL     OW91505   8.159   2.305   9.161 -0.2992 -0.5294  0.6225
29751SOL    HW191506   8.234   2.246   9.157 -0.2502 -0.4019 -0.9982
29751SOL    HW291507   8.174   2.359   9.238  1.1683 -0.6325  0.4267
29752SOL     OW91508  10.471   0.137   3.228  0.0665 -0.4945  0.2589
29752SOL    HW191509  10.425   0.053   3.230 -0.1238 -0.4206 -0.5725
29752SOL    HW291510  10.539   0.127   3.162 -0.3331  0.1807 -0.2796
29753SOL     OW91511   4.702   5.039   1.672  0.1954 -0.5465  0.0240
29753SOL    HW191512   4.673   4.961   1.626 -1.8667  0.4588 -0.4931
29753SOL    HW291513   4.657   5.036   1.757  0.9976 -0.4872  0.4606
29754SOL     OW91514   8.979   6.765   0.397 -0.0364 -1.0349  0.5589
29754SOL    HW191515   8.948   6.674   0.396 -0.2648 -0.9522 -0.4577
29754SOL    HW291516   8.937   6.804   0.474 -0.5051 -1.5958  0.5926
29755SOL     OW91517   2.206   5.027   6.963  0.4679 -0.0953  0.4077
29755SOL    HW191518   2.184   5.067   6.879 -0.8565  1.0582  1.2530
29755SOL    HW291519   2.205   5.099   7.025 -2.9176 -1.4465  2.1697
29756SOL     OW91520   8.900   6.667   5.537 -0.4350  0.1051  0.1088
29756SOL    HW191521   8.853   6.596   5.581 -1.8787  0.6401 -0.5015
29756SOL    HW291522   8.981   6.627   5.507 -0.2313 -0.7179  1.6764
29757SOL     OW91523   3.876   9.989   3.585  0.3521  0.1892  0.3613
29757SOL    HW191524   3.959  10.016   3.546  0.0388 -0.2693 -0.6681
29757SOL    HW291525   3.898   9.963   3.674  0.9901  1.8876  0.7361
29758SOL     OW91526   5.046   7.788   3.924 -0.1942 -0.1066  0.3799
29758SOL    HW191527   4.952   7.808   3.930 -0.3929 -0.8270 -0.1873
29758SOL    HW291528   5.072   7.819   3.838 -0.9927 -3.9343 -1.4940
29759SOL     OW91529   0.616   5.538   4.020 -0.3038 -0.5949 -0.0795
29759SOL    HW191530   0.551   5.468   4.014 -1.1804  0.1997 -0.0596
29759SOL    HW291531   0.692   5.503   3.973 -1.1893 -1.0425 -1.2385
29760SOL     OW91532   6.227   0.237   9.715 -0.3240  0.2143 -0.3512
29760SOL    HW191533   6.262   0.325   9.729 -0.3863  0.3004 -0.7187
29760SOL    HW291534   6.178   0.243   9.633  1.3897 -0.6605 -1.4947
29761SOL     OW91535   5.212   2.820   8.459  0.4593 -0.5702 -0.5822
29761SOL    HW191536   5.289   2.851   8.412  0.2512  0.0626 -0.5157
29761SOL    HW291537   5.143   2.882   8.436  0.4567  0.0389  0.8831
29762SOL     OW91538   3.438   9.230   0.512 -0.6161  0.4143 -0.1986
29762SOL    HW191539   3.503   9.292   0.547 -1.4001  1.0895  0.0942
29762SOL    HW291540   3.367   9.231   0.576 -1.1503  0.0825 -0.7776
29763SOL     OW91541   1.744   3.230   9.758 -0.3711  0.0137  0.1044
29763SOL    HW191542   1.700   3.146   9.767 -0.0766 -0.0235  1.6264
29763SOL    HW291543   1.696   3.288   9.817 -0.2629  0.7791 -0.5560
29764SOL     OW91544   0.057   8.722  10.224  0.2930  0.4936  0.0843
29764SOL    HW191545   0.035   8.645  10.277 -0.4788  0.5164 -0.1735
29764SOL    HW291546   0.138   8.756  10.261 -1.6553  2.2426  3.1571
29765SOL     OW91547  10.291  10.080   8.085 -0.4309  0.2248  0.0431
29765SOL    HW191548  10.279  10.121   8.170 -1.4459 -0.1506  0.0894
29765SOL    HW291549  10.330   9.994   8.104 -1.3986 -0.1943  0.2102
29766SOL     OW91550   4.651   0.187   2.016 -0.0783 -0.1972  0.2752
29766SOL    HW191551   4.711   0.178   1.942  1.3305 -1.6514  1.5118
29766SOL    HW291552   4.689   0.256   2.070 -0.7711  0.4386 -0.0336
29767SOL     OW91553   1.302   6.016   5.620 -0.2139  0.5067 -0.4914
29767SOL    HW191554   1.250   5.941   5.650 -0.3501  0.8667  0.2072
29767SOL    HW291555   1.245   6.092   5.634  1.2828  1.2472  2.6935
29768SOL     OW91556   5.415   2.444   8.571 -0.3789  0.2046  0.1288
29768SOL    HW191557   5.323   2.416   8.566 -1.0481  2.3060 -0.5850
29768SOL    HW291558   5.438   2.466   8.480  0.6241  0.3107  0.3981
29769SOL     OW91559   5.896   8.979   2.197 -0.2245  0.5274 -0.1239
29769SOL    HW191560   5.889   8.899   2.248  2.6077 -0.6674 -1.4098
29769SOL    HW291561   5.884   8.951   2.107  2.0792  1.2348 -0.7135
29770SOL     OW91562   8.835   7.226   0.960 -0.3971  0.2164  0.7400
29770SOL    HW191563   8.784   7.307   0.970  0.5392  0.6756  2.0090
29770SOL    HW291564   8.842   7.192   1.049  0.8651 -0.2353  0.4838
29771SOL     OW91565  10.185   3.818   4.240 -0.3074  0.0237  0.0556
29771SOL    HW191566  10.157   3.875   4.168 -0.0150  0.4051  0.2394
29771SOL    HW291567  10.169   3.870   4.318  2.6112  1.0176  0.0903
29772SOL     OW91568   1.787   0.759   3.603  0.5882 -0.3727  0.2131
29772SOL    HW191569   1.856   0.786   3.664  0.3044  0.5746  0.1334
29772SOL    HW291570   1.768   0.668   3.627  1.9902 -0.7203  0.1055
29773SOL     OW91571   7.477   9.954   1.559 -0.2727  0.0809 -0.3898
29773SOL    HW191572   7.469   9.918   1.647  0.5556 -1.6182 -0.9638
29773SOL    HW291573   7.557  10.007   1.561 -0.1791 -0.0698 -0.1525
29774SOL     OW91574   1.503   8.702   5.963  0.4593  0.3053 -0.1159
29774SOL    HW191575   1.475   8.650   5.887  1.6263  0.9937 -1.0587
29774SOL    HW291576   1.422   8.738   5.998 -0.2868 -1.3696  0.0101
29775SOL     OW91577   2.944   1.843   9.178 -0.0668 -0.2301  0.1872
29775SOL    HW191578   2.891   1.763   9.173  2.4312 -1.9415 -1.1844
29775SOL    HW291579   2.922   1.891   9.098 -0.5685 -0.2063  0.3331
29776SOL     OW91580   0.448   1.272   2.081  0.2793 -0.0604 -0.3439
29776SOL    HW191581   0.464   1.220   2.160  0.3968  1.9264  0.9887
29776SOL    HW291582   0.374   1.228   2.039 -0.1695 -0.8300  1.1696
29777SOL     OW91583   3.360   7.865   7.442  0.3775 -0.5621  0.6218
29777SOL    HW191584   3.397   7.952   7.460  0.4521 -0.3442 -0.5132
29777SOL    HW291585   3.317   7.874   7.357 -1.6562 -1.0215  1.5398
29778SOL     OW91586   4.095   0.871  10.445 -0.4280 -0.0115  0.0744
29778SOL    HW191587   4.029   0.927  10.405  0.9392 -0.9598 -3.9934
29778SOL    HW291588   4.051   0.787  10.458 -0.6661  0.0440 -0.3735
29779SOL     OW91589   4.881   2.338   2.874 -0.8619 -0.7515 -0.6073
29779SOL    HW191590   4.967   2.331   2.832 -1.1789  0.7800 -1.5718
29779SOL    HW291591   4.890   2.408   2.938 -1.7845  0.5999 -1.8731
29780SOL     OW91592  10.358   0.370   2.903  0.0481  0.8146  0.8289
29780SOL    HW191593  10.307   0.291   2.916  0.6271  0.4693  1.0412
29780SOL    HW291594  10.363   0.410   2.990 -0.1124  1.0062  0.7515
29781SOL     OW91595   1.321   2.607   9.315 -0.8032 -0.7070 -0.2632
29781SOL    HW191596   1.320   2.619   9.410 -3.4619  1.0141 -0.3851
29781SOL    HW291597   1.229   2.589   9.292 -0.3727 -0.3395 -2.5707
29782SOL     OW91598   9.131   9.973   3.640  0.6166 -0.5680  0.2935
29782SOL    HW191599   9.139  10.000   3.732  0.5738  0.1528  0.0973
29782SOL    HW291600   9.097  10.051   3.596  2.0993 -0.3896 -0.6026
29783SOL     OW91601   9.433   2.586   6.220  0.5092  0.3233 -0.2245
29783SOL    HW191602   9.462   2.535   6.144  1.6853  2.2089 -1.1259
29783SOL    HW291603   9.343   2.611   6.199 -0.6135 -2.4918  0.8931
29784SOL     OW91604   8.522   2.673   4.768 -0.3729  0.2373  0.1445
29784SOL    HW191605   8.595   2.638   4.717  1.0808  1.6722  1.1407
29784SOL    HW291606   8.478   2.734   4.709 -1.1502 -1.0579 -0.6464
29785SOL     OW91607   6.171   4.120   6.961 -0.1107  0.5485 -0.0342
29785SOL    HW191608   6.152   4.197   6.907 -0.0404 -0.0844 -0.9855
29785SOL    HW291609   6.215   4.060   6.901  0.2543 -0.0461  0.8243
29786SOL     OW91610   9.031   9.482   5.926  0.5431  0.2421  0.3350
29786SOL    HW191611   8.974   9.406   5.944  0.3990  0.5792  1.3708
29786SOL    HW291612   8.971   9.557   5.929  1.0735  0.6331  1.7341
29787SOL     OW91613   0.979   7.465   0.067 -0.1805  0.0008 -0.2057
29787SOL    HW191614   0.957   7.446   0.158 -1.2845 -0.1490 -0.4938
29787SOL    HW291615   1.074   7.451   0.062 -0.1827 -0.4427  0.8085
29788SOL     OW91616   8.361   8.159   2.031  0.1590 -0.0242  0.1296
29788SOL    HW191617   8.419   8.106   2.087  0.8448 -0.1980 -0.7286
29788SOL    HW291618   8.337   8.233   2.086 -0.0898 -0.7627  1.0459
29789SOL     OW91619   4.457   0.532   3.345  0.2499  0.0362 -0.6544
29789SOL    HW191620   4.516   0.565   3.278 -0.9752  0.4842 -1.5571
29789SOL    HW291621   4.379   0.503   3.296 -0.2817 -0.5334  0.4823
29790SOL     OW91622   0.847   7.099  10.158 -0.4320  0.0256  0.0167
29790SOL    HW191623   0.902   7.031  10.198  0.4483  0.1493 -0.9580
29790SOL    HW291624   0.800   7.138  10.232 -0.2114 -0.9730  0.7090
29791SOL     OW91625   6.511   0.947   7.176  0.1168 -0.4627  0.3354
29791SOL    HW191626   6.577   0.920   7.241  1.1953  1.9209  0.3414
29791SOL    HW291627   6.486   1.035   7.203 -1.3653 -0.4188 -1.0349
29792SOL     OW91628   8.803   8.802   5.504  0.6299  0.0463  0.4392
29792SOL    HW191629   8.762   8.721   5.535  0.9504 -0.1385  0.3870
29792SOL    HW291630   8.784   8.866   5.572  0.4731 -0.1050  0.5378
29793SOL     OW91631   7.927   2.244   1.112  0.4476  0.3039  0.0698
29793SOL    HW191632   7.848   2.194   1.090  1.5406 -0.6114 -2.1131
29793SOL    HW291633   7.937   2.231   1.206 -1.5972 -0.1286  0.2912
29794SOL     OW91634   2.002   3.447   8.607  0.3086  0.7886  0.0268
29794SOL    HW191635   1.993   3.362   8.566  0.8306  1.4404 -1.5134
29794SOL    HW291636   2.096   3.465   8.603  0.2743  1.1991  0.8544
29795SOL     OW91637   1.844   5.701   0.345 -0.0361 -0.3738 -0.1710
29795SOL    HW191638   1.902   5.668   0.413  0.1415  0.1585 -0.0560
29795SOL    HW291639   1.756   5.692   0.382  0.0775  0.1646  0.2455
29796SOL     OW91640   1.503   4.287   9.670 -0.3067  0.2402  0.5163
29796SOL    HW191641   1.490   4.204   9.716  0.8324 -0.3346 -0.1689
29796SOL    HW291642   1.424   4.338   9.691 -1.7598 -1.5557 -0.2718
29797SOL     OW91643   3.596   0.609   0.753 -0.0521 -0.5336  0.0319
29797SOL    HW191644   3.516   0.641   0.796  0.1839 -1.1255  0.9527
29797SOL    HW291645   3.624   0.682   0.698 -0.2999  0.3194  0.9908
29798SOL     OW91646   0.861   4.647   5.060 -0.3574  0.7455  0.3678
29798SOL    HW191647   0.903   4.575   5.013  0.3714  0.6443  1.1502
29798SOL    HW291648   0.774   4.653   5.021  0.4270  1.1182 -1.4672
29799SOL     OW91649   9.944   6.393   2.505  0.5503 -0.1690  0.1323
29799SOL    HW191650   9.907   6.406   2.417 -0.3173  0.0515  0.5186
29799SOL    HW291651   9.885   6.330   2.547  0.1408  0.7729  1.0286
29800SOL     OW91652   4.607   4.846   1.489  0.0478  0.2400 -0.0208
29800SOL    HW191653   4.637   4.768   1.443 -0.7800 -1.7783  2.6290
29800SOL    HW291654   4.513   4.834   1.500  0.0168  1.2425  1.0588
29801SOL     OW91655   1.789   8.771   5.452 -0.0266  0.2450 -0.6318
29801SOL    HW191656   1.793   8.865   5.439 -0.2492  0.3714  0.1469
29801SOL    HW291657   1.852   8.754   5.522 -0.8521 -0.0125  0.0629
29802SOL     OW91658   2.148   6.959   6.218 -0.4795  0.4945 -0.0110
29802SOL    HW191659   2.075   7.013   6.189 -1.0298 -0.1129  0.2346
29802SOL    HW291660   2.130   6.873   6.181 -0.6124 -0.0126  1.1835
29803SOL     OW91661   9.803   8.471   8.650  0.3998  0.8357 -0.0100
29803SOL    HW191662   9.781   8.377   8.653  0.7233  0.7047 -1.1392
29803SOL    HW291663   9.745   8.506   8.582  1.6424  1.0593 -0.9863
29804SOL     OW91664   3.495   1.659   4.385  0.4144 -0.5075 -0.1489
29804SOL    HW191665   3.435   1.726   4.351  0.6964 -1.5636 -3.0395
29804SOL    HW291666   3.574   1.708   4.410 -0.8189  0.6424  1.6739
29805SOL     OW91667   4.932   2.109   5.410  0.2759 -0.1865 -0.8201
29805SOL    HW191668   4.876   2.038   5.377 -0.2304  0.1224 -0.6324
29805SOL    HW291669   4.876   2.158   5.470  1.0592 -0.4863  0.1834
29806SOL     OW91670   0.443   6.866   2.648 -0.1132  0.7435 -0.1613
29806SOL    HW191671   0.404   6.858   2.735 -0.5725  1.3834 -0.3014
29806SOL    HW291672   0.435   6.959   2.626  0.8819  0.7704 -0.4858
29807SOL     OW91673   3.023   4.622   4.315 -0.1750 -0.1124  0.1134
29807SOL    HW191674   2.933   4.654   4.306 -0.4929 -1.3187 -1.4529
29807SOL    HW291675   3.072   4.697   4.348 -1.4026  1.1495 -0.8013
29808SOL     OW91676   1.440   7.793  10.367 -0.1815 -0.1808 -0.1910
29808SOL    HW191677   1.507   7.847  10.325  0.9220 -0.4670  1.1396
29808SOL    HW291678   1.472   7.704  10.359  0.1470 -0.2338  1.3455
29809SOL     OW91679   8.518   4.308   9.600  0.2577 -0.1500 -0.4603
29809SOL    HW191680   8.479   4.390   9.630  0.1157  0.5391 -2.3705
29809SOL    HW291681   8.453   4.241   9.620  0.0203  0.3222  0.3837
29810SOL     OW91682   0.293   5.891   2.050  0.2115  1.0845 -0.1693
29810SOL    HW191683   0.266   5.922   1.964  0.0803  1.3696 -0.0265
29810SOL    HW291684   0.212   5.860   2.091  0.4004  0.1578 -0.4674
29811SOL     OW91685   8.702   4.977   5.641 -0.6465  0.0898  0.1787
29811SOL    HW191686   8.791   4.994   5.672 -0.9459  2.6302 -0.1553
29811SOL    HW291687   8.714   4.922   5.563  0.5368 -0.4454  0.7077
29812SOL     OW91688   2.990   8.219   0.455 -0.5632  0.2860 -0.8191
29812SOL    HW191689   2.913   8.164   0.439 -0.5319 -0.9560  2.4198
29812SOL    HW291690   3.054   8.160   0.494  1.3481  1.7059 -1.6487
29813SOL     OW91691   8.213   5.828   1.658  0.2515 -0.5910  0.4479
29813SOL    HW191692   8.306   5.826   1.639  0.2173 -1.5553  0.3414
29813SOL    HW291693   8.191   5.921   1.664  0.7382 -0.2831 -1.8303
29814SOL     OW91694   0.796   7.619   8.265  0.2065 -0.1430  0.0465
29814SOL    HW191695   0.807   7.680   8.191  2.2985  1.3145  1.4529
29814SOL    HW291696   0.782   7.675   8.341 -0.3548 -1.5475  1.0214
29815SOL     OW91697   4.746   1.112   4.378  0.7326 -0.3792 -0.3402
29815SOL    HW191698   4.681   1.153   4.321  0.1666  0.2639  0.7509
29815SOL    HW291699   4.805   1.184   4.402  0.0598 -0.3003  1.1324
29816SOL     OW91700   1.518   8.413   2.114  0.0596 -0.7725  0.7592
29816SOL    HW191701   1.529   8.392   2.206 -0.2142 -0.6120  0.8299
29816SOL    HW291702   1.455   8.485   2.113 -0.6963 -1.4171  0.3983
29817SOL     OW91703   2.176   7.750   2.751  0.4186  0.7447 -0.3410
29817SOL    HW191704   2.114   7.748   2.823 -0.5904  1.1902 -1.1730
29817SOL    HW291705   2.122   7.763   2.673  1.4285 -0.1892 -1.2378
29818SOL     OW91706   0.701   2.581   6.050  0.0547  0.2419 -0.6681
29818SOL    HW191707   0.711   2.671   6.080  1.9057 -0.2377  0.3139
29818SOL    HW291708   0.680   2.531   6.130 -0.4373 -0.2686 -1.1088
29819SOL     OW91709   0.744   7.084   2.771  0.2059 -0.0631 -0.2235
29819SOL    HW191710   0.777   7.169   2.743  0.1220 -0.1479 -0.5906
29819SOL    HW291711   0.649   7.091   2.761  0.3128 -0.8375 -2.1384
29820SOL     OW91712   2.846   5.953   3.075  0.2459  0.0174 -0.2607
29820SOL    HW191713   2.904   5.950   2.999 -0.3603  1.6837 -0.8444
29820SOL    HW291714   2.758   5.954   3.037 -0.0577  1.2912  0.4094
29821SOL     OW91715   9.385   2.770   5.495 -0.0317 -0.5123  0.1249
29821SOL    HW191716   9.355   2.684   5.467 -2.6377  1.1242 -2.7501
29821SOL    HW291717   9.435   2.804   5.421  0.0618  0.8627  0.7815
29822SOL     OW91718   8.810   1.786   2.812  0.1262  0.1414 -0.1243
29822SOL    HW191719   8.874   1.851   2.841 -1.2030  0.7971  1.5243
29822SOL    HW291720   8.859   1.704   2.805  0.6733 -0.0310  3.9006
29823SOL     OW91721   5.298   3.899   9.989 -0.5831  0.0050  0.7430
29823SOL    HW191722   5.237   3.972   9.982  0.5168  0.8486 -0.2777
29823SOL    HW291723   5.375   3.935  10.032  0.4451 -0.2192 -0.8589
29824SOL     OW91724   9.675   6.619   8.223  0.1733  0.2215 -0.0857
29824SOL    HW191725   9.728   6.696   8.241  1.5732 -0.9720  1.1896
29824SOL    HW291726   9.662   6.578   8.309 -1.3678 -0.4481 -0.6002
29825SOL     OW91727   5.007   3.307   9.775  1.3684  0.7901 -0.0220
29825SOL    HW191728   5.005   3.213   9.758  0.1091  0.2031  2.7435
29825SOL    HW291729   5.099   3.328   9.786  1.6515 -0.1110 -0.5843
29826SOL     OW91730   1.504   4.765   8.788 -0.6205 -0.1859  0.0961
29826SOL    HW191731   1.442   4.834   8.812 -0.3243  0.3770 -0.7020
29826SOL    HW291732   1.486   4.747   8.696  0.2720 -0.1389 -0.1004
29827SOL     OW91733   5.497   8.672   5.476 -0.1465  0.4135  0.1624
29827SOL    HW191734   5.543   8.724   5.542 -1.3191  1.7525 -0.0186
29827SOL    HW291735   5.418   8.641   5.521 -0.2413  0.1231 -0.2006
29828SOL     OW91736  10.542   6.915   1.372  0.4265 -0.6635  0.1766
29828SOL    HW191737  10.580   6.841   1.420  1.1606  0.0845  0.7763
29828SOL    HW291738  10.475   6.950   1.432  0.3769 -0.5815  0.0730
29829SOL     OW91739  10.377  10.578   3.647  0.5628  0.0458 -0.1706
29829SOL    HW191740  10.464  10.544   3.666  0.3340 -0.1925  0.4954
29829SOL    HW291741  10.342  10.603   3.733 -0.1942 -0.2752 -0.3762
29830SOL     OW91742   9.416   8.066   0.002  0.2099  0.1043  0.0425
29830SOL    HW191743   9.484   8.132  -0.013  0.9021 -0.7081 -0.5351
29830SOL    HW291744   9.342   8.115   0.037  1.0711  1.0308  0.6376
29831SOL     OW91745  10.402   9.218   2.343 -0.7973 -0.3941 -0.3922
29831SOL    HW191746  10.491   9.209   2.311 -0.7857 -1.9642 -0.0285
29831SOL    HW291747  10.359   9.135   2.318 -2.0932  0.2532 -0.4044
29832SOL     OW91748   8.931   0.130   8.980  0.5925 -0.3307  0.4225
29832SOL    HW191749   8.937   0.111   9.074  1.1124 -0.7855  0.3065
29832SOL    HW291750   8.857   0.189   8.972  1.4812  0.9716  1.3277
29833SOL     OW91751   6.827  10.500   8.355 -0.0231  0.1692  0.7355
29833SOL    HW191752   6.895  10.493   8.423  0.6904  0.2758  0.0452
29833SOL    HW291753   6.854  10.576   8.303 -0.4035 -0.0969  0.1488
29834SOL     OW91754   2.340   8.961   6.157 -0.2559  0.3520 -0.0292
29834SOL    HW191755   2.336   9.056   6.166 -0.4146  0.5482 -1.9252
29834SOL    HW291756   2.251   8.931   6.175 -0.3575  0.6151 -0.0903
29835SOL     OW91757   5.855   2.035   7.133 -0.0163  0.0336 -0.2062
29835SOL    HW191758   5.929   2.095   7.146  0.5434 -0.8618  0.9460
29835SOL    HW291759   5.888   1.971   7.071 -0.5685  0.8048 -1.3306
29836SOL     OW91760   0.082   2.291   9.541 -0.1176 -0.2080  0.5600
29836SOL    HW191761   0.133   2.339   9.607  0.2244 -0.9060  0.8125
29836SOL    HW291762  -0.008   2.319   9.557  0.0026 -0.1139  1.1093
29837SOL     OW91763  10.439   1.037  10.354  0.0424  0.6609  0.8296
29837SOL    HW191764  10.421   0.963  10.295  0.5203  0.2623  1.1793
29837SOL    HW291765  10.365   1.097  10.340 -0.6216 -0.1191  0.9300
29838SOL     OW91766   2.042   6.633   7.403  0.6260 -0.0241  0.2191
29838SOL    HW191767   1.951   6.602   7.404  0.9201 -1.0594 -1.3263
29838SOL    HW291768   2.035   6.728   7.412 -0.4920 -0.2211  1.8171
29839SOL     OW91769   9.877   7.386   6.042  0.1905  0.7636 -0.3397
29839SOL    HW191770   9.960   7.340   6.034  1.4936  3.2315 -2.2864
29839SOL    HW291771   9.835   7.376   5.956 -2.6367 -2.1457  1.1597
29840SOL     OW91772   3.801   0.434   6.058 -0.0426  0.5809 -0.1282
29840SOL    HW191773   3.721   0.437   6.111 -0.8220  2.0500 -1.3389
29840SOL    HW291774   3.863   0.490   6.106 -0.5201  1.3446 -0.3827
29841SOL     OW91775   9.854   6.941   1.375  0.0403 -0.4956  0.0508
29841SOL    HW191776   9.786   6.981   1.321 -0.0007 -2.0793 -1.1648
29841SOL    HW291777   9.823   6.949   1.465 -1.1821 -0.1512 -0.3934
29842SOL     OW91778   8.614   9.534   7.638 -0.2619 -0.0973  0.0223
29842SOL    HW191779   8.556   9.580   7.577 -0.7599  1.2883  1.4932
29842SOL    HW291780   8.559   9.514   7.714  1.4583  2.8288  2.2495
29843SOL     OW91781   9.511   2.846   5.272  0.2278 -0.3068  0.5646
29843SOL    HW191782   9.504   2.762   5.226 -1.1738  0.1907 -0.1983
29843SOL    HW291783   9.489   2.911   5.205 -0.4688  0.5464  1.5910
29844SOL     OW91784   1.747   2.097   8.004  0.3961  0.3144 -0.3528
29844SOL    HW191785   1.728   2.011   7.968 -0.5175 -0.0610  0.9524
29844SOL    HW291786   1.714   2.158   7.939 -0.0522 -0.3313 -0.7352
29845SOL     OW91787   6.542   1.706   6.085 -0.3975  0.5631  0.3190
29845SOL    HW191788   6.585   1.689   6.169  0.5090 -0.8337 -0.4043
29845SOL    HW291789   6.598   1.771   6.042 -0.1359  0.2885  0.2432
29846SOL     OW91790   7.875   8.679   0.449 -0.7304 -0.1850 -0.4989
29846SOL    HW191791   7.852   8.586   0.449  0.0017 -0.4050 -2.1408
29846SOL    HW291792   7.814   8.718   0.387 -1.2102  0.5076  0.3856
29847SOL     OW91793   4.783   7.417   2.457  0.0825 -0.5119  0.0164
29847SOL    HW191794   4.746   7.437   2.370 -0.8304  0.3192  0.5755
29847SOL    HW291795   4.844   7.346   2.441 -1.0141 -1.2382 -1.1195
29848SOL     OW91796  10.055   4.252   6.631  0.2383 -0.2522  0.0744
29848SOL    HW191797   9.995   4.185   6.596 -0.2878  0.6021 -0.6935
29848SOL    HW291798  10.056   4.320   6.564  0.2146  0.8427  1.1684
29849SOL     OW91799   0.519   7.450   5.572 -0.6605  0.4818  0.8034
29849SOL    HW191800   0.439   7.400   5.553  0.5848 -1.3232  0.0239
29849SOL    HW291801   0.567   7.395   5.634  1.0592  0.3474 -0.5790
29850SOL     OW91802   9.321   9.458   1.738 -0.3571  0.8749 -0.8236
29850SOL    HW191803   9.393   9.455   1.675 -0.7391 -1.7290 -1.2442
29850SOL    HW291804   9.325   9.373   1.783 -3.4315  0.3955 -1.2107
29851SOL     OW91805   9.082   5.324   4.745  0.4234  0.3859  0.2582
29851SOL    HW191806   9.044   5.395   4.796 -0.8862  0.8847 -1.3155
29851SOL    HW291807   9.157   5.364   4.701 -0.5204  0.9434 -0.9037
29852SOL     OW91808   9.744   7.764   5.875  0.2194  0.3556 -0.4172
29852SOL    HW191809   9.657   7.753   5.838 -0.8178 -0.2028  1.9650
29852SOL    HW291810   9.734   7.835   5.939  1.4959  0.2168 -0.0327
29853SOL     OW91811   4.943   0.334   4.198 -0.7376 -0.0934  0.5817
29853SOL    HW191812   4.882   0.310   4.128  1.3986 -1.9011 -0.7762
29853SOL    HW291813   4.970   0.423   4.177 -0.1212 -0.6160 -0.9283
29854SOL     OW91814  10.392  10.205  10.610 -0.3180 -0.1161  0.0181
29854SOL    HW191815  10.366  10.116  10.634  0.5584 -0.3681  0.0547
29854SOL    HW291816  10.405  10.202  10.516 -0.3698 -0.0034  0.0067
29855SOL     OW91817   7.364   5.458   6.288  0.7034 -0.2287 -0.3970
29855SOL    HW191818   7.396   5.368   6.290 -0.2293 -0.5489  0.6385
29855SOL    HW291819   7.280   5.455   6.334  0.7319  1.1972 -0.2192
29856SOL     OW91820   6.103   3.888   5.653  0.1870 -0.1198 -0.3853
29856SOL    HW191821   6.041   3.822   5.683  2.6406 -2.0723  0.6884
29856SOL    HW291822   6.102   3.880   5.558 -1.7951  0.5384 -0.4692
29857SOL     OW91823   5.031   4.635   3.873  0.1278  0.2132  0.2196
29857SOL    HW191824   4.960   4.584   3.912  1.0993 -1.9445 -0.6369
29857SOL    HW291825   5.006   4.644   3.781 -0.2800  1.8004  0.4675
29858SOL     OW91826   0.460   7.931   3.467  0.5157 -0.0500  0.0941
29858SOL    HW191827   0.534   7.946   3.525 -0.0010 -1.7032  1.2639
29858SOL    HW291828   0.480   7.847   3.424 -0.4406 -0.2774  0.0718
29859SOL     OW91829   1.258   8.620   4.582 -1.0395  0.1565 -0.7082
29859SOL    HW191830   1.240   8.539   4.535  0.1207 -0.2549 -0.4710
29859SOL    HW291831   1.266   8.594   4.674 -2.0177  0.7597 -0.4377
29860SOL     OW91832  10.601   9.750   7.511 -0.7384  0.1385 -0.4754
29860SOL    HW191833  10.625   9.762   7.603  0.8953  0.3773 -0.9061
29860SOL    HW291834  10.505   9.746   7.512 -0.7312 -0.5219  1.3076
29861SOL     OW91835   6.981   7.009   6.988  0.2732 -0.3495  0.6270
29861SOL    HW191836   6.998   7.065   7.064 -1.3084  0.7898  0.2095
29861SOL    HW291837   7.067   6.992   6.950  0.8130  2.5137  0.3312
29862SOL     OW91838   7.295   0.144   7.207 -0.1133  0.0501  0.2954
29862SOL    HW191839   7.264   0.094   7.132 -0.8613 -1.1601  1.3716
29862SOL    HW291840   7.248   0.108   7.282  0.5208  1.2983  1.3510
29863SOL     OW91841   2.826   5.517   2.189 -0.0242  0.1565 -0.5397
29863SOL    HW191842   2.915   5.526   2.154 -0.5697  1.2891 -1.7530
29863SOL    HW291843   2.771   5.514   2.111 -1.1565  0.8670  0.2099
29864SOL     OW91844   2.798  10.626   0.346 -0.0356 -0.2238 -0.2792
29864SOL    HW191845   2.789  10.720   0.328  0.1164 -0.1283  0.1454
29864SOL    HW291846   2.770  10.616   0.437 -0.8892 -0.7274 -0.5814
29865SOL     OW91847   5.127   4.667   7.096 -0.8239 -0.4274 -0.6739
29865SOL    HW191848   5.206   4.717   7.116 -2.2950  1.1107  1.9572
29865SOL    HW291849   5.090   4.709   7.018 -0.5678  0.7987 -0.1537
29866SOL     OW91850   6.791   1.922  10.130 -0.7690 -0.0429 -0.0631
29866SOL    HW191851   6.759   1.904  10.042  1.0846  0.4723 -0.9114
29866SOL    HW291852   6.754   2.008  10.152 -0.9887 -0.0266 -0.4932
29867SOL     OW91853   0.595   7.441   6.832  0.4622 -0.1021  0.4188
29867SOL    HW191854   0.615   7.517   6.887  1.8335 -0.0345 -0.1320
29867SOL    HW291855   0.639   7.368   6.876 -1.4415 -0.7708  1.3434
29868SOL     OW91856   3.559   1.703   7.728  0.3271  0.0264 -0.0875
29868SOL    HW191857   3.503   1.731   7.800 -0.0072 -0.4023 -0.1749
29868SOL    HW291858   3.516   1.625   7.694  0.7703 -0.0786 -0.4096
29869SOL     OW91859   8.781  10.194   7.076 -0.2025  0.5336 -0.3467
29869SOL    HW191860   8.855  10.134   7.077 -3.2149 -3.7205 -2.0891
29869SOL    HW291861   8.748  10.193   7.166  1.0202  1.4383  0.1364
29870SOL     OW91862   3.179   2.524   8.474 -0.2331  0.3896  0.1315
29870SOL    HW191863   3.152   2.527   8.566 -0.9987  0.6172 -0.0987
29870SOL    HW291864   3.141   2.443   8.440  0.9551 -0.2567  0.2826
29871SOL     OW91865   2.397   2.627  10.419  0.6820  0.0529  0.1364
29871SOL    HW191866   2.437   2.685  10.483  0.6999  1.6245 -1.2423
29871SOL    HW291867   2.346   2.565  10.472  1.4517  0.6886  1.6904
29872SOL     OW91868   7.146   2.585   9.412  0.0725 -0.1124 -0.0258
29872SOL    HW191869   7.163   2.497   9.378 -0.0986 -0.5511  0.9768
29872SOL    HW291870   7.069   2.615   9.365 -1.1573 -1.3650  1.0679
29873SOL     OW91871   3.052   3.232   4.028 -0.0212 -0.0935  0.4804
29873SOL    HW191872   3.053   3.300   4.096  1.1616  1.1702 -0.7310
29873SOL    HW291873   2.977   3.255   3.973  1.4966  1.5013 -1.0619
29874SOL     OW91874   1.409   4.974   8.946 -0.5104 -0.5238 -0.2627
29874SOL    HW191875   1.314   4.980   8.955 -0.6432 -0.6417 -1.3985
29874SOL    HW291876   1.438   4.925   9.024 -1.4079 -0.7144 -0.0408
29875SOL     OW91877   8.964   8.046   7.524 -0.2017 -0.3732  0.0037
29875SOL    HW191878   9.021   7.990   7.576  0.3266 -1.5308 -1.7261
29875SOL    HW291879   9.022   8.083   7.457 -1.2132 -0.4425 -0.9271
29876SOL     OW91880   4.987  10.330   2.456 -0.0480 -0.7356 -0.4805
29876SOL    HW191881   5.076  10.365   2.449 -0.0459 -0.6458 -0.0484
29876SOL    HW291882   4.932  10.407   2.472 -0.1625 -0.8213 -0.4616
29877SOL     OW91883   5.704   3.706   5.483  0.2242 -0.5794  0.1020
29877SOL    HW191884   5.698   3.800   5.495 -2.3351 -0.8317  1.4052
29877SOL    HW291885   5.781   3.680   5.532 -1.8345  0.2939  4.2364
29878SOL     OW91886   9.425   2.103   5.764 -0.1688  0.9312  0.2707
29878SOL    HW191887   9.432   2.197   5.750 -0.1756  1.3386  2.6013
29878SOL    HW291888   9.349   2.092   5.821  1.0408 -0.2256  1.7543
29879SOL     OW91889   6.476   5.121   7.212 -0.6689 -0.1137 -0.9466
29879SOL    HW191890   6.491   5.092   7.122  0.7523  0.7806 -1.0271
29879SOL    HW291891   6.385   5.097   7.230 -1.0254 -0.1952 -2.6663
29880SOL     OW91892   8.525   2.410   9.059  0.3772 -0.0144  0.0116
29880SOL    HW191893   8.467   2.360   9.001  1.7941 -1.5224 -0.2033
29880SOL    HW291894   8.473   2.485   9.087 -1.7077 -1.3220 -0.0927
29881SOL     OW91895   9.335   8.027   6.021 -0.1119  0.4688  0.5511
29881SOL    HW191896   9.378   8.110   6.001  0.2546 -0.0465 -0.9075
29881SOL    HW291897   9.406   7.969   6.048 -0.2334  0.3564  0.6278
29882SOL     OW91898   2.075   5.530   9.724  0.0654  0.1985  0.2420
29882SOL    HW191899   1.999   5.589   9.723 -0.1203  0.0332  1.6881
29882SOL    HW291900   2.039   5.446   9.753  0.5858 -0.2174 -0.3221
29883SOL     OW91901   0.949   1.751   1.220 -0.2207 -0.1580 -0.0827
29883SOL    HW191902   1.014   1.804   1.266 -0.5815 -0.3499  0.6671
29883SOL    HW291903   0.866   1.797   1.235 -0.1727  0.5507 -1.7330
29884SOL     OW91904  10.613   8.123  10.506 -0.1034 -0.2064 -0.0031
29884SOL    HW191905  10.519   8.124  10.491  0.0255  0.1358 -0.8119
29884SOL    HW291906  10.625   8.165  10.591 -0.7637 -1.2772  0.6479
29885SOL     OW91907   7.927   2.377   9.969 -0.7855 -0.9497  0.2695
29885SOL    HW191908   7.948   2.339   9.884 -0.3339 -0.9098  0.3580
29885SOL    HW291909   7.832   2.374   9.975 -0.8480 -0.5375 -0.4297
29886SOL     OW91910   5.067   9.633   6.247 -0.5317  0.5911  0.1059
29886SOL    HW191911   5.147   9.669   6.284 -0.3946 -0.2562  0.6742
29886SOL    HW291912   5.017   9.709   6.217 -0.2359  1.2388  1.2193
29887SOL     OW91913   6.881   3.205   5.316 -0.8306  0.0539  0.2528
29887SOL    HW191914   6.893   3.172   5.405  0.9999  1.7096  0.6943
29887SOL    HW291915   6.927   3.141   5.261  0.9966  0.7687  0.8844
29888SOL     OW91916   6.424   8.182   0.368 -0.2272  0.3597 -0.2733
29888SOL    HW191917   6.388   8.236   0.439 -2.0186 -0.5964 -0.3943
29888SOL    HW291918   6.384   8.217   0.288 -0.8493 -0.6387 -0.4241
29889SOL     OW91919   6.666   1.224   9.616 -0.2344  0.0069 -0.6400
29889SOL    HW191920   6.729   1.275   9.667 -0.8830  0.8856 -0.6841
29889SOL    HW291921   6.581   1.242   9.657 -0.5234 -0.7496 -0.8898
29890SOL     OW91922   2.038  10.065   3.495  0.3650 -0.3457  0.3937
29890SOL    HW191923   2.092   9.987   3.507  0.5010 -0.6519 -1.8648
29890SOL    HW291924   1.955  10.031   3.462  0.9317  0.5086 -2.0583
29891SOL     OW91925   4.923   4.538   4.649 -0.9976 -0.0785  0.8445
29891SOL    HW191926   4.961   4.567   4.732 -3.1893  1.7439  1.3358
29891SOL    HW291927   4.957   4.601   4.585 -1.7004  0.4428  0.9653
29892SOL     OW91928   3.542  10.307   4.895  0.1272 -0.5718  0.4086
29892SOL    HW191929   3.482  10.333   4.825  0.8741 -0.4856 -0.2160
29892SOL    HW291930   3.629  10.316   4.856  0.5426 -0.7860  1.2679
29893SOL     OW91931   3.063   0.017   7.180 -0.6673  0.6143 -0.1027
29893SOL    HW191932   3.056   0.078   7.254  0.1273  0.0614  0.4495
29893SOL    HW291933   3.014  -0.060   7.208 -0.5063  0.4713 -0.2109
29894SOL     OW91934   8.472   4.136   8.183  0.1357  0.0190 -0.7532
29894SOL    HW191935   8.433   4.219   8.155  1.7173 -0.0060 -3.3333
29894SOL    HW291936   8.561   4.159   8.211 -0.1794 -0.5324  0.8526
29895SOL     OW91937   1.457   6.072   4.617  0.2002 -0.3618 -0.1110
29895SOL    HW191938   1.453   6.110   4.705 -0.6929  0.5336 -0.5122
29895SOL    HW291939   1.401   6.129   4.564 -0.6327 -1.8570 -0.9067
29896SOL     OW91940   8.304   7.692   8.337 -0.6744 -0.0688 -0.1558
29896SOL    HW191941   8.323   7.612   8.387 -0.2870  1.5583  2.4953
29896SOL    HW291942   8.209   7.703   8.345 -0.3215  1.9345  3.3778
29897SOL     OW91943   2.691   6.709  10.040 -0.2305 -0.5629  0.1513
29897SOL    HW191944   2.677   6.680  10.131  1.2816  1.4518  1.1035
29897SOL    HW291945   2.776   6.752  10.042 -0.1697 -0.4456 -2.2662
29898SOL     OW91946   1.828   6.843   1.593 -0.5637  0.3680 -0.2269
29898SOL    HW191947   1.807   6.785   1.667 -0.1291  1.2053  0.5713
29898SOL    HW291948   1.783   6.803   1.518 -0.9072 -0.5720  0.4545
29899SOL     OW91949   7.701   3.080   3.783 -0.3867 -0.0911  0.3351
29899SOL    HW191950   7.781   3.076   3.835 -2.5012  0.2408  3.9273
29899SOL    HW291951   7.709   3.007   3.722  2.5396 -0.1526  0.6228
29900SOL     OW91952  10.235   4.732   1.518  0.1261 -0.7026  0.2177
29900SOL    HW191953  10.165   4.790   1.546  0.9520  0.8073 -0.7112
29900SOL    HW291954  10.254   4.759   1.428  3.1152  0.2370  1.0006
29901SOL     OW91955   3.428   3.458   4.681 -0.0010 -0.1869  0.0348
29901SOL    HW191956   3.486   3.404   4.734 -0.5250  0.3810  1.2145
29901SOL    HW291957   3.341   3.420   4.695 -0.6504  1.9176  2.2381
29902SOL     OW91958   2.889   2.958   2.333 -0.5462  0.4126 -0.5426
29902SOL    HW191959   2.930   2.990   2.253 -2.2613 -3.0929 -3.0894
29902SOL    HW291960   2.946   2.990   2.403  3.4411  0.3103 -3.3835
29903SOL     OW91961   8.931   3.239   8.007  0.0846  0.4029 -0.5181
29903SOL    HW191962   9.026   3.249   8.009  0.1935 -0.4999 -0.4183
29903SOL    HW291963   8.901   3.305   7.945  0.6154  1.7674  0.6283
29904SOL     OW91964   4.957   9.246   9.869 -0.4433 -0.0468 -0.5370
29904SOL    HW191965   4.913   9.175   9.823 -1.0799 -0.0433  0.0371
29904SOL    HW291966   4.942   9.227   9.962  0.1559  0.3513 -0.3511
29905SOL     OW91967   2.078   4.900   3.217  0.2318  0.2597  0.3963
29905SOL    HW191968   2.106   4.811   3.197 -1.7753 -0.6757  1.4717
29905SOL    HW291969   1.985   4.902   3.191 -0.1501  1.5726  1.7562
29906SOL     OW91970   9.889   5.180   6.493 -0.2716 -0.5601 -0.0200
29906SOL    HW191971   9.796   5.165   6.479 -0.3702 -0.4545  0.4840
29906SOL    HW291972   9.892   5.238   6.569  0.1551  0.7023 -0.9802
29907SOL     OW91973   9.145   7.008   4.707 -0.1695 -0.4446  0.2368
29907SOL    HW191974   9.087   7.075   4.744 -1.5899 -2.0510  1.1170
29907SOL    HW291975   9.131   6.932   4.763  0.4955 -1.8386 -1.4009
29908SOL     OW91976   5.772   4.205   6.697  0.2771  0.1264 -0.2839
29908SOL    HW191977   5.707   4.135   6.700  0.7197 -0.4266 -2.2453
29908SOL    HW291978   5.842   4.171   6.641  0.3274  2.2712 -1.6522
29909SOL     OW91979   5.151   6.042   2.584 -0.2668 -0.1717 -0.0652
29909SOL    HW191980   5.140   6.135   2.567 -1.1729 -0.3032 -0.2360
29909SOL    HW291981   5.208   6.011   2.514 -1.7300 -0.1686 -1.2874
29910SOL     OW91982  10.328   5.725   8.404 -0.3160 -0.1786  0.2791
29910SOL    HW191983  10.302   5.792   8.340 -0.1536 -1.5177 -1.2692
29910SOL    HW291984  10.419   5.706   8.382 -0.2367 -0.6191  0.9730
29911SOL     OW91985   3.910   8.137   7.704 -0.0654 -0.5788  0.0743
29911SOL    HW191986   3.875   8.192   7.774 -0.0639 -0.5252  0.0334
29911SOL    HW291987   3.878   8.177   7.623 -0.0248 -0.6107  0.0422
29912SOL     OW91988   7.731   0.136   3.176  0.4748 -0.0463 -0.1487
29912SOL    HW191989   7.767   0.054   3.211 -2.2308 -1.0367  0.5503
29912SOL    HW291990   7.749   0.201   3.243  1.6468 -0.2789 -0.2056
29913SOL     OW91991   6.338   4.156   4.042 -0.4557 -0.3767 -0.2855
29913SOL    HW191992   6.390   4.089   4.086 -2.5158 -1.3895  0.7694
29913SOL    HW291993   6.284   4.107   3.980 -0.5427  0.5537 -0.9563
29914SOL     OW91994   3.963   5.809   9.095  0.8744  0.2353  0.0837
29914SOL    HW191995   3.947   5.900   9.071  1.4625  0.0223 -1.1632
29914SOL    HW291996   3.913   5.797   9.176 -0.4736  1.2109 -0.5656
29915SOL     OW91997   4.129   7.624   2.060 -0.2987  0.1209  0.3227
29915SOL    HW191998   4.160   7.647   2.148  1.0659 -1.0801  0.2085
29915SOL    HW291999   4.056   7.563   2.076 -0.5849  0.5402  0.6213
29916SOL     OW92000   8.360   2.009   8.660  0.0225 -0.0243 -0.2385
29916SOL    HW192001   8.289   1.944   8.664  0.1902 -0.2433 -0.7335
29916SOL    HW292002   8.342   2.059   8.581  0.3509  0.0008 -0.2983
29917SOL     OW92003   0.948   3.042   6.564  0.1296  0.4227 -0.0841
29917SOL    HW192004   0.908   3.129   6.554  1.7368  1.2317  0.3225
29917SOL    HW292005   0.989   3.044   6.650 -2.0606 -1.7299  1.1549
29918SOL     OW92006  10.369   9.692   1.541 -0.2822 -0.0875  0.5263
29918SOL    HW192007  10.333   9.652   1.620 -1.2079 -1.4423 -0.5387
29918SOL    HW292008  10.368   9.622   1.475  1.2051  0.7831 -0.4811
29919SOL     OW92009   7.779   5.109   2.288  0.1948  0.4454  0.0110
29919SOL    HW192010   7.779   5.054   2.366  0.4721 -0.3878 -0.5695
29919SOL    HW292011   7.716   5.068   2.229  1.9354 -0.5438 -1.2859
29920SOL     OW92012   0.745   8.500   4.088 -0.1994  0.3713 -0.2967
29920SOL    HW192013   0.806   8.539   4.151 -0.2943  0.7187 -0.4177
29920SOL    HW292014   0.743   8.562   4.015 -0.6537  0.3337 -0.3192
29921SOL     OW92015   8.117   0.194   2.549 -0.1740  0.0488 -0.6459
29921SOL    HW192016   8.096   0.165   2.638 -0.6433  0.9762 -0.4395
29921SOL    HW292017   8.067   0.275   2.538  1.6735  1.2093 -0.9275
29922SOL     OW92018   9.102   4.267   0.180  0.0126 -0.1540 -0.0490
29922SOL    HW192019   9.145   4.320   0.247 -0.1721  1.6083 -1.2840
29922SOL    HW292020   9.119   4.176   0.208  2.5456  0.4756  0.7450
29923SOL     OW92021   8.208   7.255   2.928  0.1609 -0.2602  0.5444
29923SOL    HW192022   8.249   7.235   2.844 -0.0272 -1.3370  0.6925
29923SOL    HW292023   8.127   7.205   2.927 -0.1460  0.2160  1.1169
29924SOL     OW92024   5.753   4.292   6.247 -0.5027 -0.2924  0.1205
29924SOL    HW192025   5.821   4.243   6.292 -1.8297 -2.3668  0.0165
29924SOL    HW292026   5.709   4.341   6.316  0.5271  0.3799  0.3146
29925SOL     OW92027   3.666   8.409   6.010  0.5627  0.2793 -0.6368
29925SOL    HW192028   3.610   8.332   5.999  0.6667  0.4269 -2.5623
29925SOL    HW292029   3.744   8.376   6.055 -1.1976  0.1771  2.6145
29926SOL     OW92030   3.017   5.862   8.103  0.2267  0.4976  0.2820
29926SOL    HW192031   3.080   5.801   8.065  0.8741  1.0119  0.5254
29926SOL    HW292032   3.030   5.854   8.197 -0.4320  0.2304  0.3563
29927SOL     OW92033   3.377   9.223  10.557  0.2949  0.2907  0.0793
29927SOL    HW192034   3.445   9.160  10.534  0.8017  0.9574 -0.3018
29927SOL    HW292035   3.417   9.277  10.625  0.3274  0.9958 -0.4923
29928SOL     OW92036   5.313   1.423   0.360 -0.4527  0.0723 -0.0704
29928SOL    HW192037   5.238   1.385   0.314 -1.0074  0.8387  0.1806
29928SOL    HW292038   5.388   1.402   0.304 -0.8023 -0.9555 -0.1801
29929SOL     OW92039   4.520   8.994  10.615  0.0278 -0.0647 -0.1333
29929SOL    HW192040   4.467   8.916  10.633  0.7631 -0.4644  0.3826
29929SOL    HW292041   4.462   9.068  10.635 -0.1478 -0.4943  1.0032
29930SOL     OW92042   9.945   5.570   6.531  0.2365 -0.4136  1.2137
29930SOL    HW192043  10.017   5.612   6.578  1.6008 -0.4382 -0.7161
29930SOL    HW292044   9.932   5.624   6.453  0.4356 -2.2108 -0.1370
29931SOL     OW92045   5.611   8.370   6.317 -0.1470  0.2817  0.1474
29931SOL    HW192046   5.670   8.440   6.344  0.8313 -0.6467  0.4622
29931SOL    HW292047   5.533   8.383   6.371  0.0930  1.0030  0.3336
29932SOL     OW92048   3.444   9.762   7.457  0.2847 -0.1791  0.2371
29932SOL    HW192049   3.480   9.841   7.418 -0.7697  1.0207  1.5823
29932SOL    HW292050   3.476   9.764   7.548 -0.2872 -0.9296  0.4671
29933SOL     OW92051   7.791   3.249   8.972  0.2284 -0.4707  0.0196
29933SOL    HW192052   7.860   3.303   8.932 -0.8649  0.5151 -0.5797
29933SOL    HW292053   7.824   3.231   9.060  1.3742 -0.2441 -0.3402
29934SOL     OW92054   4.361   5.998   8.470 -0.0367 -0.1829 -0.4833
29934SOL    HW192055   4.366   6.055   8.547  0.5360 -1.4382  0.4494
29934SOL    HW292056   4.267   5.994   8.450 -0.0282  1.6537 -1.0393
29935SOL     OW92057   8.687   9.603   8.007  0.0473  0.2591 -0.0631
29935SOL    HW192058   8.689   9.673   7.942 -0.8232  0.4036  0.0508
29935SOL    HW292059   8.753   9.629   8.072 -0.6043  1.2407  0.2328
29936SOL     OW92060   9.513   8.314   6.541  0.0182  0.1304 -0.3319
29936SOL    HW192061   9.590   8.366   6.565  0.6474 -0.4201 -1.1212
29936SOL    HW292062   9.545   8.252   6.475 -1.1141 -0.0603 -0.7229
29937SOL     OW92063   2.390   9.367   2.901 -0.3468  0.0824 -0.9255
29937SOL    HW192064   2.475   9.330   2.921 -0.7585 -0.2305  0.2893
29937SOL    HW292065   2.350   9.305   2.840 -0.8723 -1.3127  0.7836
29938SOL     OW92066   4.305   1.875   6.281  0.1634  0.4269  0.1254
29938SOL    HW192067   4.371   1.940   6.256 -0.8659  1.2329 -0.5820
29938SOL    HW292068   4.307   1.810   6.211 -1.1367  1.4945 -0.9626
29939SOL     OW92069   7.337   5.006   4.968 -0.0252 -0.7921  1.1992
29939SOL    HW192070   7.392   5.053   4.906  0.2936 -2.5467  0.0829
29939SOL    HW292071   7.373   5.029   5.054  0.5232  0.4403  0.6655
29940SOL     OW92072   0.234   3.641   5.929 -0.2154  0.2214 -0.7245
29940SOL    HW192073   0.161   3.674   5.981  1.1536  0.4442  1.1873
29940SOL    HW292074   0.224   3.546   5.932  0.9385  0.0981  1.8066
29941SOL     OW92075   7.745   6.223   7.107  0.3577  0.2620 -0.1141
29941SOL    HW192076   7.751   6.147   7.164 -2.4252 -1.1885 -1.5583
29941SOL    HW292077   7.775   6.191   7.021  3.2672  2.0554  0.0923
29942SOL     OW92078   6.319   3.884   3.419 -0.0105  0.6934 -0.1829
29942SOL    HW192079   6.413   3.881   3.401 -0.1239  0.9196 -0.8490
29942SOL    HW292080   6.307   3.962   3.472 -0.0940  1.8963 -1.8981
29943SOL     OW92081   1.521   0.444   4.308 -0.6925 -0.2565  0.4129
29943SOL    HW192082   1.580   0.501   4.358 -2.0663  0.2290  1.5452
29943SOL    HW292083   1.473   0.502   4.250 -0.5649 -0.5524  0.0068
29944SOL     OW92084   9.180   3.961   4.525  0.0070 -0.1507  0.1538
29944SOL    HW192085   9.265   3.987   4.490  0.0294 -0.7930 -0.2924
29944SOL    HW292086   9.199   3.887   4.582 -0.2526 -0.2876  0.0652
29945SOL     OW92087   6.624   1.897   0.576  0.1982 -0.2123 -0.2127
29945SOL    HW192088   6.661   1.983   0.595  1.5730 -0.3970 -1.8477
29945SOL    HW292089   6.638   1.847   0.657 -0.3213  0.9568  0.6470
29946SOL     OW92090   1.663   9.588   2.824  0.7112  0.1008  0.3586
29946SOL    HW192091   1.581   9.561   2.782  1.2811  1.1819 -1.5626
29946SOL    HW292092   1.711   9.507   2.836 -0.9539 -0.6727  2.3425
29947SOL     OW92093   0.310   1.974   8.793 -0.8749  0.5917  0.0909
29947SOL    HW192094   0.403   1.949   8.793 -0.9440  0.3260  0.4150
29947SOL    HW292095   0.311   2.069   8.779 -0.5223  0.6727  0.6240
29948SOL     OW92096   8.334   7.946   1.339 -0.6854 -0.3291 -0.1318
29948SOL    HW192097   8.280   7.974   1.413  0.2231  0.1716  0.3596
29948SOL    HW292098   8.273   7.943   1.265 -1.8698 -1.9626  0.8274
29949SOL     OW92099   1.737   7.556   2.116 -0.2363 -0.0191 -0.5468
29949SOL    HW192100   1.744   7.643   2.077 -0.5137  0.3840  0.2689
29949SOL    HW292101   1.712   7.499   2.044 -0.3326  0.6331 -1.0350
29950SOL     OW92102   6.753   5.814   1.610 -0.2782  0.2424  0.2927
29950SOL    HW192103   6.811   5.796   1.683 -0.4240  0.5225  0.4806
29950SOL    HW292104   6.807   5.800   1.532  0.0841  0.6399  0.4680
29951SOL     OW92105   6.814   4.004   7.744  0.6958  0.2702  0.3443
29951SOL    HW192106   6.776   3.932   7.794 -0.6645 -0.2693 -1.3525
29951SOL    HW292107   6.892   4.029   7.793  0.1525 -1.0783  1.9921
29952SOL     OW92108   6.984  10.023   0.169 -0.0799 -0.7559 -0.5876
29952SOL    HW192109   6.994  10.112   0.136  0.5773 -0.1523  1.1138
29952SOL    HW292110   6.912  10.028   0.232  1.2199 -0.9421  0.9809
29953SOL     OW92111   0.056   3.532   7.266 -0.1083 -0.4693  0.2671
29953SOL    HW192112   0.141   3.511   7.307  1.0047 -1.2145 -2.2366
29953SOL    HW292113   0.043   3.625   7.285  1.7169 -0.1156 -0.0101
29954SOL     OW92114   1.735   8.701   3.788  0.2515 -0.3832 -0.5519
29954SOL    HW192115   1.815   8.752   3.799  0.3242 -0.6207  0.0099
29954SOL    HW292116   1.704   8.684   3.877 -0.4709 -0.2240 -0.7626
29955SOL     OW92117   2.404   8.679   2.817 -0.2082 -0.8618  0.2256
29955SOL    HW192118   2.425   8.717   2.732 -1.9816 -2.0510 -0.8019
29955SOL    HW292119   2.349   8.744   2.860  2.1891  0.5824  1.3492
29956SOL     OW92120   3.254   4.180   5.904 -0.3179 -0.5591  0.0132
29956SOL    HW192121   3.267   4.128   5.825  4.3977  0.1726  0.0278
29956SOL    HW292122   3.299   4.262   5.887  1.0673 -0.4512  3.4655
29957SOL     OW92123   7.944   7.336   3.521 -0.2762  0.2632 -0.0610
29957SOL    HW192124   7.867   7.289   3.552  0.5015  0.1565  1.8117
29957SOL    HW292125   7.961   7.402   3.588 -0.5528  2.4273 -1.9687
29958SOL     OW92126   4.658   7.547   4.679 -0.4170 -0.0779 -0.5242
29958SOL    HW192127   4.733   7.554   4.737  0.2558 -0.2978 -1.3570
29958SOL    HW292128   4.589   7.507   4.733  0.3011 -0.5890  0.0262
29959SOL     OW92129   9.125   6.718   9.410  0.0173 -0.0376  0.4706
29959SOL    HW192130   9.150   6.627   9.425  0.8188 -0.1106 -1.1097
29959SOL    HW292131   9.092   6.719   9.320  1.6925  1.5399 -0.1942
29960SOL     OW92132   9.848   2.380   2.943  0.3900 -0.3240  0.2028
29960SOL    HW192133   9.833   2.445   3.012 -2.0517  0.1443 -0.6573
29960SOL    HW292134   9.813   2.421   2.864 -1.8766 -2.8547 -0.2689
29961SOL     OW92135  10.411   1.594   9.389  0.6719 -0.1329 -0.4785
29961SOL    HW192136  10.427   1.686   9.369 -0.1913 -0.2317 -1.7309
29961SOL    HW292137  10.453   1.580   9.474 -0.8512  1.9255  0.7200
29962SOL     OW92138   4.265   2.701   7.468 -0.3179 -0.1173 -0.1943
29962SOL    HW192139   4.185   2.652   7.448 -0.0817  0.3630 -2.6212
29962SOL    HW292140   4.308   2.650   7.537 -0.7673 -2.5669 -1.6319
29963SOL     OW92141   3.668   8.606   9.732  0.4523 -0.3166 -0.3405
29963SOL    HW192142   3.694   8.514   9.726  0.0297 -0.4573 -0.0331
29963SOL    HW292143   3.578   8.608   9.698  0.7403  0.1157 -1.1073
29964SOL     OW92144   2.200   3.885   6.781  0.0085  0.2832  0.0303
29964SOL    HW192145   2.141   3.945   6.736  1.5916  2.7102  1.0029
29964SOL    HW292146   2.188   3.904   6.874  0.1370 -1.3891  0.4294
29965SOL     OW92147   7.401   6.879   1.483 -0.0185  0.1192  0.4040
29965SOL    HW192148   7.420   6.787   1.466  2.2724  0.3680  1.2808
29965SOL    HW292149   7.337   6.903   1.416 -1.7749 -2.4337  0.9978
29966SOL     OW92150   8.121   0.859   4.325 -0.5764  0.0761  0.0314
29966SOL    HW192151   8.159   0.857   4.413 -0.4375  0.3437 -0.0218
29966SOL    HW292152   8.120   0.768   4.297  0.7036  0.1297 -0.2529
29967SOL     OW92153  10.642   4.347   1.503 -0.2311  0.7977 -0.1321
29967SOL    HW192154  10.709   4.303   1.449  0.2685  0.2298  0.9084
29967SOL    HW292155  10.640   4.437   1.470  2.5174  1.4113  1.0748
29968SOL     OW92156   2.656   0.707   9.480 -0.2925 -0.6673  0.4679
29968SOL    HW192157   2.684   0.689   9.390 -0.6578  1.3894 -0.1162
29968SOL    HW292158   2.562   0.689   9.479 -0.3136 -0.5584  0.4017
29969SOL     OW92159   2.336   1.270   3.593  0.0651  0.1500 -0.2163
29969SOL    HW192160   2.291   1.245   3.512  0.3626  1.5511 -0.8430
29969SOL    HW292161   2.266   1.297   3.652 -0.0451  0.7956 -0.6320
29970SOL     OW92162   5.971   2.900   9.558 -0.3441  0.1061 -0.0112
29970SOL    HW192163   5.890   2.890   9.608 -0.3897 -0.8641 -0.2627
29970SOL    HW292164   6.036   2.852   9.609  0.0203  0.6503  0.0439
29971SOL     OW92165   8.588   2.263   7.049 -0.0324  0.4769 -0.7057
29971SOL    HW192166   8.577   2.175   7.086 -0.2950  1.2445  1.1851
29971SOL    HW292167   8.511   2.275   6.993  0.1588 -0.5930 -1.2260
29972SOL     OW92168   1.827   0.261   4.305 -0.3559 -0.3681 -0.1279
29972SOL    HW192169   1.902   0.319   4.316  1.5920 -2.4932 -1.2926
29972SOL    HW292170   1.805   0.267   4.212 -1.0934 -0.4185  0.0345
29973SOL     OW92171   0.285   9.183   1.145  0.4933  0.8972 -0.5915
29973SOL    HW192172   0.312   9.224   1.063 -1.2701  2.5293 -0.4214
29973SOL    HW292173   0.193   9.159   1.130  0.4479  0.3054  0.5652
29974SOL     OW92174   8.897   3.759   5.507 -0.7897  0.3545 -0.0735
29974SOL    HW192175   8.912   3.713   5.590 -0.7416 -1.1016 -0.8655
29974SOL    HW292176   8.927   3.849   5.524  0.0850 -0.1474  1.1946
29975SOL     OW92177   5.032   3.038   9.692  0.0788  0.4671 -0.3702
29975SOL    HW192178   4.999   3.032   9.782 -0.5483  1.7047 -0.4983
29975SOL    HW292179   5.120   3.001   9.696  0.0079  0.3920  0.7259
29976SOL     OW92180   1.175   0.652   0.233  0.0233  0.0408  0.0406
29976SOL    HW192181   1.216   0.614   0.311 -1.9290 -0.8709  0.6957
29976SOL    HW292182   1.208   0.598   0.160 -0.8201 -1.4078  0.6834
29977SOL     OW92183   8.766   1.819   1.515 -0.0513  0.5575 -0.1684
29977SOL    HW192184   8.681   1.832   1.558  1.6035  1.8071  3.0327
29977SOL    HW292185   8.810   1.754   1.570  1.0925 -0.0846 -1.7860
29978SOL     OW92186   2.617   9.268   0.330  0.3903 -0.1839  0.2024
29978SOL    HW192187   2.705   9.280   0.294  0.6787  0.2469  1.0075
29978SOL    HW292188   2.565   9.237   0.257  1.0303  0.3369 -0.4956
29979SOL     OW92189   3.680   8.910   8.297  0.2389  0.3505 -0.7213
29979SOL    HW192190   3.586   8.926   8.305  0.3943  0.8378  0.3656
29979SOL    HW292191   3.716   8.995   8.269  0.3361  0.0855 -1.4342
29980SOL     OW92192   5.586   3.758   9.743 -0.3369 -0.3564  0.3764
29980SOL    HW192193   5.495   3.764   9.716 -0.1801  0.7763  0.0360
29980SOL    HW292194   5.583   3.725   9.832 -0.9836 -1.9611 -0.2166
29981SOL     OW92195   0.700   2.869   7.876 -0.1178  0.0027  0.2600
29981SOL    HW192196   0.748   2.842   7.954 -0.9000 -1.8794  0.1296
29981SOL    HW292197   0.649   2.793   7.851 -0.1515  0.6701 -1.9218
29982SOL     OW92198   7.614   1.409   0.589  0.1379  0.6531  0.0378
29982SOL    HW192199   7.626   1.441   0.500  1.1867  0.6553  0.1725
29982SOL    HW292200   7.526   1.371   0.589  0.0928  0.7406 -0.9663
29983SOL     OW92201   1.733   5.848   3.531 -0.0566 -0.1133 -0.1102
29983SOL    HW192202   1.694   5.897   3.458 -0.4917 -0.0311  0.1785
29983SOL    HW292203   1.811   5.899   3.554 -0.0179 -0.0402 -0.3978
29984SOL     OW92204   8.208   7.644   0.682 -0.3007 -0.4063  0.1012
29984SOL    HW192205   8.222   7.680   0.770  1.3717 -0.2830 -0.1745
29984SOL    HW292206   8.288   7.668   0.634 -1.3753 -0.0664 -1.5885
29985SOL     OW92207   3.469   6.778   0.063  0.8711 -0.2433  0.3001
29985SOL    HW192208   3.479   6.683   0.055  1.5800 -0.1830  0.3432
29985SOL    HW292209   3.403   6.791   0.130 -1.3239 -0.7251 -1.6500
29986SOL     OW92210   9.499   8.181   3.694 -0.5133 -0.1851 -0.3357
29986SOL    HW192211   9.532   8.267   3.720  2.0153 -1.1704  0.0597
29986SOL    HW292212   9.513   8.126   3.771  0.0657 -1.4508 -1.3136
29987SOL     OW92213   2.529   5.743   0.114 -0.2548 -0.2218  0.6504
29987SOL    HW192214   2.479   5.756   0.034  0.2750 -0.6369  0.2462
29987SOL    HW292215   2.620   5.751   0.087 -0.0269 -1.4393  1.0032
29988SOL     OW92216   2.366   8.584   4.370  0.0634  0.2885 -0.1717
29988SOL    HW192217   2.409   8.503   4.342  2.0513  0.9080  0.9253
29988SOL    HW292218   2.346   8.569   4.463 -1.5618  0.2621 -0.5048
29989SOL     OW92219   1.436   1.885   2.087  0.1926 -0.1917  0.7543
29989SOL    HW192220   1.438   1.802   2.040  1.6932 -0.4902  1.3022
29989SOL    HW292221   1.354   1.926   2.059  0.7525 -0.5888 -1.6788
29990SOL     OW92222   1.931   7.622   7.181 -0.3205  0.1438 -0.5202
29990SOL    HW192223   2.020   7.587   7.178 -0.0815  0.6144  0.6285
29990SOL    HW292224   1.877   7.553   7.141  0.7234  0.5189 -2.6782
29991SOL     OW92225   7.354   1.982   8.298  0.3421 -0.1897  0.7146
29991SOL    HW192226   7.342   2.042   8.371  1.2957  0.7537  0.1238
29991SOL    HW292227   7.441   2.002   8.264 -0.2343 -0.3134 -0.9345
29992SOL     OW92228   7.717   0.236   4.500 -0.0695  0.3494  0.1386
29992SOL    HW192229   7.764   0.202   4.577  0.5398  0.3680 -0.2228
29992SOL    HW292230   7.755   0.188   4.426 -0.6876  0.2977 -0.1459
29993SOL     OW92231   1.834   5.699   1.805 -0.0189  0.5029  0.8723
29993SOL    HW192232   1.842   5.604   1.815  0.4424  0.7284  3.2484
29993SOL    HW292233   1.755   5.722   1.854 -0.4725  1.3062 -0.1910
29994SOL     OW92234   5.359   8.138   2.076 -0.0882  0.2443  0.1963
29994SOL    HW192235   5.287   8.194   2.046  0.7520  1.0096 -0.4545
29994SOL    HW292236   5.367   8.071   2.009  1.0381  1.2891 -0.7719
29995SOL     OW92237  10.258   9.074   6.299  0.0195 -0.1362  0.2004
29995SOL    HW192238  10.184   9.041   6.248  0.5850  0.3410 -0.9446
29995SOL    HW292239  10.312   8.996   6.316 -0.9656 -0.5757  1.4712
29996SOL     OW92240   6.854   3.209  10.407  0.2367 -0.3724  0.3999
29996SOL    HW192241   6.861   3.297  10.445 -0.5700  0.2306 -0.8062
29996SOL    HW292242   6.840   3.224  10.314 -0.0502 -1.7878  0.1950
29997SOL     OW92243  10.245   6.042   7.218 -0.1453 -0.3607 -0.5914
29997SOL    HW192244  10.169   6.051   7.275 -0.9179 -0.1733 -1.6258
29997SOL    HW292245  10.288   6.127   7.221 -0.3146 -0.2787 -0.4700
29998SOL     OW92246   3.607   9.612   6.104  0.0470 -0.6778 -0.4901
29998SOL    HW192247   3.596   9.650   6.191  1.0750 -1.5807  0.0675
29998SOL    HW292248   3.621   9.687   6.046 -1.0756 -0.0394  0.0365
29999SOL     OW92249   4.161   0.997   5.597  0.3478 -0.1499 -0.0949
29999SOL    HW192250   4.202   0.945   5.667  1.3988 -0.2249 -0.7332
29999SOL    HW292251   4.177   1.088   5.623 -1.0139 -0.1272  0.7475
30000SOL     OW92252   7.724   9.369   7.528  0.2508 -0.5054  0.1782
30000SOL    HW192253   7.735   9.282   7.567 -1.9638 -0.8577  0.1016
30000SOL    HW292254   7.778   9.426   7.582  0.3456 -1.6326  1.3194
30001SOL     OW92255   9.392   6.859   8.134  0.2805  0.3106 -0.3564
30001SOL    HW192256   9.483   6.889   8.141  0.3455  0.2363 -0.8456
30001SOL    HW292257   9.374   6.817   8.218  1.2843 -1.3104 -0.9117
30002SOL     OW92258   6.333   4.277   7.355 -0.3307 -0.1946 -0.3745
30002SOL    HW192259   6.414   4.248   7.313  0.5247 -0.9385  1.6516
30002SOL    HW292260   6.288   4.196   7.379 -0.1928  0.1502  1.1626
30003SOL     OW92261   1.178   4.872   4.819 -0.4987  0.5422 -0.3205
30003SOL    HW192262   1.104   4.886   4.879  0.5621  1.2475  0.8756
30003SOL    HW292263   1.204   4.960   4.792 -1.2226  0.2237 -2.2205
30004SOL     OW92264   2.108   7.168   3.782  0.0854  0.0424 -0.0241
30004SOL    HW192265   2.086   7.076   3.794 -1.3351  0.0832 -1.7349
30004SOL    HW292266   2.027   7.207   3.749 -0.4141  2.6433  3.6557
30005SOL     OW92267   6.310   8.540   0.084 -0.2591  0.6599 -0.5298
30005SOL    HW192268   6.364   8.588   0.020  1.6791  1.1208  1.3400
30005SOL    HW292269   6.328   8.584   0.167 -3.6572  0.8563  0.2180
30006SOL     OW92270   2.215   6.937   7.741  0.0512  0.3297  0.1755
30006SOL    HW192271   2.164   6.856   7.740 -1.5701  1.3108 -0.2607
30006SOL    HW292272   2.198   6.975   7.827  1.3382 -0.0995  0.6315
30007SOL     OW92273   1.907   5.641  10.020  0.3563  0.3891  0.4654
30007SOL    HW192274   1.976   5.575  10.009 -1.4807 -1.4327 -1.0023
30007SOL    HW292275   1.869   5.621  10.106 -0.4005 -0.7193 -0.1088
30008SOL     OW92276   1.795   6.625   5.852  0.7871  0.0209  0.0286
30008SOL    HW192277   1.757   6.617   5.939 -2.6606 -0.5786 -1.3862
30008SOL    HW292278   1.885   6.594   5.862  0.0750 -1.4169  3.0429
30009SOL     OW92279   4.247   8.788   0.011  0.3960 -0.1871  0.0085
30009SOL    HW192280   4.225   8.791   0.104  0.2982  0.0282 -0.0222
30009SOL    HW292281   4.337   8.755   0.008  0.3295 -0.3846  0.1696
30010SOL     OW92282   3.740   9.770   8.267 -0.1459  0.3308 -0.8836
30010SOL    HW192283   3.801   9.787   8.339 -1.4671  0.7020  0.1846
30010SOL    HW292284   3.654   9.786   8.304 -1.0810 -2.2685 -1.7544
30011SOL     OW92285   1.855   8.159   5.048 -0.4084  0.1211  0.0385
30011SOL    HW192286   1.775   8.210   5.062 -0.4177 -0.1194  0.9062
30011SOL    HW292287   1.829   8.092   4.984 -1.2370 -0.6513  1.1324
30012SOL     OW92288   7.504   9.829   3.263  0.2003 -0.1037  0.0647
30012SOL    HW192289   7.470   9.752   3.308 -0.7480 -0.0416 -0.5151
30012SOL    HW292290   7.499   9.899   3.328  0.7120 -0.4392  0.4744
30013SOL     OW92291   0.993   2.950   4.590  0.1294 -0.3146 -0.3322
30013SOL    HW192292   1.035   2.880   4.639  1.0345 -0.0939 -0.7526
30013SOL    HW292293   1.064   3.012   4.572 -0.4233  0.1733 -0.8925
30014SOL     OW92294   5.298   2.246   8.860 -0.0893  0.5080 -0.0093
30014SOL    HW192295   5.305   2.313   8.792  0.9252  0.5492  0.1075
30014SOL    HW292296   5.389   2.226   8.882 -0.3907 -0.5987  0.2688
30015SOL     OW92297   1.528   8.180   5.916  0.3536 -0.2430  0.1017
30015SOL    HW192298   1.505   8.216   6.002 -1.0684  0.7725 -0.6731
30015SOL    HW292299   1.609   8.224   5.893  0.0840  0.4142  0.3823
30016SOL     OW92300   4.640   6.738   4.916 -0.0550 -0.2692  0.1385
30016SOL    HW192301   4.642   6.681   4.839 -0.3349  2.8379 -2.4127
30016SOL    HW292302   4.731   6.765   4.927  0.0050 -0.8104  1.0365
30017SOL     OW92303   4.419   2.818  10.531 -0.4055 -0.6606  0.3392
30017SOL    HW192304   4.341   2.850  10.485 -0.6625  0.3043  1.3814
30017SOL    HW292305   4.447   2.893  10.584  1.7178 -0.7155 -0.6166
30018SOL     OW92306   5.893   4.560   9.854 -0.2464 -0.1937 -0.5368
30018SOL    HW192307   5.857   4.495   9.914  1.7200 -0.1806  0.7687
30018SOL    HW292308   5.818   4.614   9.828 -1.6195 -1.9423 -0.3342
30019SOL     OW92309   2.226   0.353   7.056  0.4349  0.5485 -0.1735
30019SOL    HW192310   2.212   0.435   7.103 -1.7387  0.6914 -0.9570
30019SOL    HW292311   2.167   0.291   7.098  1.9998 -0.6227  0.3544
30020SOL     OW92312   6.577   9.348   0.230  0.5025  0.0158  0.4420
30020SOL    HW192313   6.609   9.258   0.236 -1.7243 -0.8945 -0.1586
30020SOL    HW292314   6.655   9.402   0.237  2.0639 -1.9964 -0.4532
30021SOL     OW92315   2.659   3.116   1.473 -0.2124  0.1020  0.4969
30021SOL    HW192316   2.705   3.158   1.545 -0.6377  0.5710  0.5003
30021SOL    HW292317   2.632   3.031   1.508  1.8683 -0.8159  0.0517
30022SOL     OW92318   5.510   1.348   4.165 -0.4277 -0.0449  0.5451
30022SOL    HW192319   5.535   1.430   4.209  0.4002  2.3163 -3.7781
30022SOL    HW292320   5.594   1.310   4.137 -0.9576 -0.7438 -0.1241
30023SOL     OW92321   7.083   5.055   4.999  0.4506  0.6326 -0.2492
30023SOL    HW192322   7.170   5.015   4.990 -0.8584 -2.1727 -1.4382
30023SOL    HW292323   7.066   5.095   4.915  0.0364 -0.0752 -0.5091
30024SOL     OW92324   3.499   4.453   1.017  0.6642 -0.0254 -0.2432
30024SOL    HW192325   3.572   4.503   0.979  0.3410 -0.0919 -0.9516
30024SOL    HW292326   3.511   4.364   0.985 -0.4664  0.2308 -1.4622
30025SOL     OW92327   8.265   0.499   1.073  0.2814 -0.0389 -0.1748
30025SOL    HW192328   8.322   0.574   1.059  1.2701 -0.5182  1.0987
30025SOL    HW292329   8.322   0.423   1.066 -0.4159 -0.5954  0.0155
30026SOL     OW92330   7.590   0.952   4.240  0.6265  0.7252  0.0450
30026SOL    HW192331   7.517   0.961   4.301  1.0126 -2.0060  1.0747
30026SOL    HW292332   7.659   0.910   4.291  2.0727  1.0702 -1.5284
30027SOL     OW92333   4.153   6.975   7.642 -0.1582  0.5711 -0.0439
30027SOL    HW192334   4.200   6.946   7.564 -0.0389 -0.7332  0.4848
30027SOL    HW292335   4.147   7.070   7.632  0.1100  0.4636 -1.4879
30028SOL     OW92336   3.170   0.502  10.637 -0.3543  0.0910  0.0708
30028SOL    HW192337   3.112   0.559  10.688  1.2884  2.5766 -0.6933
30028SOL    HW292338   3.120   0.480  10.559 -1.4676 -0.6009  0.9455
30029SOL     OW92339   6.966  10.443   9.471 -0.7135  0.3764 -0.1994
30029SOL    HW192340   6.901  10.443   9.542 -0.1830 -2.5364  0.4233
30029SOL    HW292341   6.980  10.350   9.452  1.5827  0.9920 -1.9123
30030SOL     OW92342   6.533   7.566   5.135 -0.6820  0.4671  0.2505
30030SOL    HW192343   6.471   7.513   5.085  0.3456 -1.9015  1.3141
30030SOL    HW292344   6.573   7.624   5.070 -1.2551 -0.6775 -1.1754
30031SOL     OW92345   0.411   6.485   5.563  0.1452  0.2022  0.2621
30031SOL    HW192346   0.371   6.494   5.649 -0.5453 -0.3142  0.0141
30031SOL    HW292347   0.412   6.391   5.547 -1.6039  0.3485 -1.1006
30032SOL     OW92348  10.267   5.806   4.066 -0.3849  0.4459  0.2399
30032SOL    HW192349  10.184   5.800   4.113  0.2584  0.3242  1.4016
30032SOL    HW292350  10.250   5.761   3.983 -0.7277 -2.1061  1.5775
30033SOL     OW92351   2.330   1.319   7.232  0.6682  0.2411  0.7754
30033SOL    HW192352   2.244   1.357   7.218  0.9299  0.0933 -1.6057
30033SOL    HW292353   2.371   1.376   7.298 -0.7706  1.0308  1.0329
30034SOL     OW92354   8.496   5.524   2.146 -0.0453 -0.2889 -0.5553
30034SOL    HW192355   8.458   5.437   2.133  1.4868 -0.7620 -2.3818
30034SOL    HW292356   8.453   5.558   2.225 -1.6924 -2.1166 -0.5934
30035SOL     OW92357   1.529   4.500   1.604  0.1930  0.0314 -0.1088
30035SOL    HW192358   1.569   4.414   1.591 -1.1791 -0.8303  1.0850
30035SOL    HW292359   1.435   4.483   1.608 -0.1182  1.5933  0.1282
30036SOL     OW92360   6.738   0.726   0.614 -0.8907 -0.3542 -0.0844
30036SOL    HW192361   6.657   0.741   0.566 -0.4005  0.5409 -0.6751
30036SOL    HW292362   6.712   0.678   0.692 -2.2464  1.3982  0.6119
30037SOL     OW92363   6.448  10.541  10.015 -0.1086  0.5901  0.6585
30037SOL    HW192364   6.494  10.514  10.095  0.3800  0.0598  0.2143
30037SOL    HW292365   6.399  10.463   9.988 -3.7832  1.9266  2.7352
30038SOL     OW92366   7.125   6.287   0.520  0.0917  0.4646  0.5361
30038SOL    HW192367   7.191   6.218   0.532  0.0344  0.8705  3.9945
30038SOL    HW292368   7.155   6.359   0.575 -3.4809  0.4211  2.8537
30039SOL     OW92369   9.558   1.546   2.642  0.0491 -0.2914 -0.1761
30039SOL    HW192370   9.628   1.500   2.596 -1.0517 -1.2876 -0.8979
30039SOL    HW292371   9.484   1.486   2.640 -0.7880  0.6734  0.7160
30040SOL     OW92372   9.694   2.393   2.544 -0.3383 -0.1099  0.8922
30040SOL    HW192373   9.643   2.314   2.562 -0.4660 -0.5321 -1.1354
30040SOL    HW292374   9.637   2.465   2.573 -1.3103 -0.6537  0.3856
30041SOL     OW92375   2.213   8.878   0.818 -0.2629  0.0424  0.0439
30041SOL    HW192376   2.148   8.838   0.760  0.0673  0.4621 -0.6167
30041SOL    HW292377   2.170   8.878   0.904 -0.4521 -1.2775 -0.0380
30042SOL     OW92378   3.646   3.575  10.014  0.2042 -0.2339  0.2752
30042SOL    HW192379   3.703   3.647  10.039  0.3494  0.6368 -2.2933
30042SOL    HW292380   3.584   3.567  10.086  2.6075 -0.2497  2.4761
30043SOL     OW92381   6.803  10.160   3.552 -0.2741  0.4714 -0.3217
30043SOL    HW192382   6.759  10.088   3.598 -0.9942 -0.9832 -3.0907
30043SOL    HW292383   6.734  10.226   3.540 -0.3411  0.4265 -0.1892
30044SOL     OW92384   4.885   9.215   7.853 -0.1908  0.0375 -0.4117
30044SOL    HW192385   4.906   9.254   7.769 -0.6731 -0.0928 -0.5924
30044SOL    HW292386   4.952   9.148   7.866 -1.8365 -2.0426 -2.1041
30045SOL     OW92387   8.040   8.738   4.245 -0.3185  0.1829 -0.8093
30045SOL    HW192388   8.089   8.679   4.187 -1.4035 -0.6648 -0.8971
30045SOL    HW292389   8.055   8.825   4.209 -0.0087 -0.2138 -1.6590
30046SOL     OW92390   3.178   5.830   7.128  0.5940  0.0795  0.1044
30046SOL    HW192391   3.213   5.871   7.049  0.6979  0.5837  0.4100
30046SOL    HW292392   3.230   5.866   7.199  0.1816 -0.0066  0.4545
30047SOL     OW92393   5.473   2.061   6.524  0.8564 -0.0267  0.4679
30047SOL    HW192394   5.534   2.132   6.504  0.7552  0.1461  0.7660
30047SOL    HW292395   5.497   1.991   6.463  0.2731  0.6424 -0.5590
30048SOL     OW92396   1.449   5.482   6.275 -0.0173  0.6127 -0.6949
30048SOL    HW192397   1.454   5.390   6.247 -0.0761  0.8665 -1.5534
30048SOL    HW292398   1.448   5.477   6.371  1.6275 -0.2071 -0.6747
30049SOL     OW92399   9.931   8.191   6.899  0.0409 -0.5039  0.2026
30049SOL    HW192400   9.957   8.234   6.818  0.0989  1.2650  1.0987
30049SOL    HW292401   9.997   8.123   6.913  0.3956 -0.3996 -0.8917
30050SOL     OW92402   1.513   0.609   3.077  0.5503  0.1857  0.1932
30050SOL    HW192403   1.485   0.700   3.081  0.7412  0.2881 -0.6318
30050SOL    HW292404   1.507   0.578   3.168 -1.5960  0.3910  0.1801
30051SOL     OW92405   0.832   4.807   7.695  0.0926 -0.0672 -0.5795
30051SOL    HW192406   0.767   4.751   7.652 -0.7200  0.3825  0.0422
30051SOL    HW292407   0.912   4.755   7.693 -0.4332 -0.8972 -0.7974
30052SOL     OW92408   9.435   0.532   1.267  0.1752  0.1795 -0.2874
30052SOL    HW192409   9.470   0.450   1.304 -1.3803 -0.6836 -0.6145
30052SOL    HW292410   9.513   0.581   1.239  1.2578 -0.2998  1.6924
30053SOL     OW92411   4.381   2.316   4.241  0.1771  1.1128  0.0206
30053SOL    HW192412   4.346   2.285   4.158  0.1700  1.4783 -0.1147
30053SOL    HW292413   4.411   2.406   4.223 -0.7652  1.5686  0.6699
30054SOL     OW92414   0.649   1.072   0.518  0.3040  0.2343 -0.1560
30054SOL    HW192415   0.700   1.057   0.438  0.1018  4.1656 -1.2073
30054SOL    HW292416   0.564   1.105   0.487 -0.5157 -0.0130  1.6789
30055SOL     OW92417   1.635   3.786   2.476 -0.1626 -0.2301 -0.4493
30055SOL    HW192418   1.564   3.750   2.529  0.2505  0.3668  0.5126
30055SOL    HW292419   1.599   3.865   2.437 -1.0802 -1.5975 -2.5860
30056SOL     OW92420   2.305   0.347   1.649  0.2301 -0.1628 -0.1684
30056SOL    HW192421   2.343   0.294   1.580  1.2783 -0.1706  0.4008
30056SOL    HW292422   2.376   0.361   1.712 -0.8084 -0.5468  1.1473
30057SOL     OW92423   1.955   6.962   5.227 -0.4499 -0.1557  0.5678
30057SOL    HW192424   1.882   6.900   5.236 -0.6503 -0.6718 -3.2879
30057SOL    HW292425   2.027   6.920   5.273 -1.1059 -2.3704 -0.3020
30058SOL     OW92426   1.435   0.832   1.938  0.2850  0.1189 -0.4916
30058SOL    HW192427   1.513   0.844   1.885  0.4493  0.1722 -0.2410
30058SOL    HW292428   1.374   0.784   1.882  1.5404 -2.5365  0.2384
30059SOL     OW92429   6.138   6.863   7.257 -0.4841  0.2696 -0.0086
30059SOL    HW192430   6.130   6.767   7.251  1.1486 -0.0464  1.9641
30059SOL    HW292431   6.101   6.885   7.342 -0.9636  1.4571 -0.4940
30060SOL     OW92432   3.076   9.249   9.326  0.0813 -0.7011 -0.6802
30060SOL    HW192433   3.132   9.326   9.312 -0.5522  0.0940  0.9076
30060SOL    HW292434   3.137   9.179   9.347  0.5478  0.0342  0.5344
30061SOL     OW92435   6.077   2.328   4.026  0.0487  0.6905  0.2163
30061SOL    HW192436   5.997   2.283   4.054 -0.4904  1.4056 -0.1733
30061SOL    HW292437   6.047   2.402   3.974  0.9876 -0.7122 -2.5547
30062SOL     OW92438   3.422  10.367   2.286  0.0519 -0.6144 -0.9256
30062SOL    HW192439   3.338  10.403   2.258 -0.8727 -0.9703  1.2445
30062SOL    HW292440   3.421  10.277   2.254  0.2306 -0.2406 -2.0572
30063SOL     OW92441  10.441   9.980   6.315  0.1788  0.1253  0.0342
30063SOL    HW192442  10.478  10.047   6.257 -1.3722 -0.3178 -1.5602
30063SOL    HW292443  10.452  10.016   6.403  1.1051  1.5963 -0.6422
30064SOL     OW92444   8.726   1.112   7.096 -0.4447  0.3476  0.1724
30064SOL    HW192445   8.800   1.075   7.144 -0.6376 -1.1518 -0.6463
30064SOL    HW292446   8.759   1.197   7.064  0.4718  0.2896  0.9208
30065SOL     OW92447   0.969   2.740   7.486  0.1888  0.1616 -0.0751
30065SOL    HW192448   0.913   2.695   7.549  0.3407  1.8373  1.3391
30065SOL    HW292449   0.907   2.785   7.428  0.0593  0.1964  0.0892
30066SOL     OW92450   9.542   8.790   7.256  0.1222  0.0032 -0.1462
30066SOL    HW192451   9.597   8.762   7.329 -0.7798 -0.2390  0.4595
30066SOL    HW292452   9.530   8.884   7.269  0.4625  0.0762 -0.3383
30067SOL     OW92453   2.939   7.418   2.479  0.1542  0.2933 -0.2262
30067SOL    HW192454   2.888   7.430   2.559 -1.5513 -1.8292 -0.8951
30067SOL    HW292455   2.879   7.441   2.408  0.7120 -0.4875 -0.9775
30068SOL     OW92456   8.265   7.593   9.762 -0.1043  0.2698  0.1502
30068SOL    HW192457   8.197   7.532   9.732 -3.3482  3.1633  0.9080
30068SOL    HW292458   8.298   7.554   9.843 -1.5019 -0.8686  0.2168
30069SOL     OW92459   0.172   4.195   9.832 -0.2822 -0.4514 -0.4394
30069SOL    HW192460   0.149   4.111   9.872  1.7450 -0.7143  0.2419
30069SOL    HW292461   0.165   4.179   9.738 -0.4679 -1.2039 -0.3063
30070SOL     OW92462   1.028   9.931  10.369  0.1038  0.1278 -0.0465
30070SOL    HW192463   1.093  10.001  10.372  1.1814 -0.8763  1.7676
30070SOL    HW292464   0.954   9.964  10.420  1.0169 -0.3948  1.6735
30071SOL     OW92465   8.675   2.153   1.131  0.3384  0.2015 -0.3570
30071SOL    HW192466   8.728   2.205   1.191 -0.7394 -0.2444  1.0305
30071SOL    HW292467   8.624   2.095   1.187 -0.0859 -0.8489 -1.7554
30072SOL     OW92468   4.329   8.428   9.923 -0.0310  0.1785 -0.0736
30072SOL    HW192469   4.322   8.335   9.903 -1.6318  0.0297  0.9894
30072SOL    HW292470   4.386   8.431  10.000 -0.1135  0.0636 -0.0077
30073SOL     OW92471   9.110   2.515   1.971 -0.3386 -0.0352  1.1772
30073SOL    HW192472   9.093   2.603   1.937 -1.0501 -0.3454  0.7037
30073SOL    HW292473   9.205   2.508   1.972 -0.2533 -0.2551 -1.4499
30074SOL     OW92474   6.937   5.669   6.882 -0.7060 -0.0791  0.3806
30074SOL    HW192475   6.957   5.590   6.932 -0.1898 -0.9523 -1.1107
30074SOL    HW292476   6.843   5.682   6.894 -0.9466 -1.3699  0.0669
30075SOL     OW92477   3.585   8.080   8.616 -0.6536 -0.0083  0.1393
30075SOL    HW192478   3.555   7.992   8.639 -2.8067  0.7455  0.4838
30075SOL    HW292479   3.523   8.110   8.550  1.7299  0.2461 -2.1249
30076SOL     OW92480   6.743   8.926  10.608  0.5183  0.3906  0.5367
30076SOL    HW192481   6.669   8.932  10.548 -1.3277 -0.5191  2.5800
30076SOL    HW292482   6.819   8.951  10.555 -0.9755 -0.3287 -2.1188
30077SOL     OW92483   7.230   5.703   1.366  0.3588  0.1826  0.0714
30077SOL    HW192484   7.224   5.724   1.273  1.7513 -1.3121 -0.4122
30077SOL    HW292485   7.299   5.760   1.398  2.2436 -1.5563 -0.6353
30078SOL     OW92486   8.363   9.536   9.070 -0.6027  0.4192 -0.7750
30078SOL    HW192487   8.305   9.471   9.029 -3.0975  1.8808  0.2282
30078SOL    HW292488   8.350   9.523   9.164 -0.1827  1.5577 -0.5544
30079SOL     OW92489   7.713   8.263   1.844  0.1587  0.2565  0.4552
30079SOL    HW192490   7.796   8.244   1.800 -0.0079 -1.9603  0.9788
30079SOL    HW292491   7.655   8.295   1.775  0.8310 -0.1305 -0.2969
30080SOL     OW92492   7.532   4.293   0.375 -0.5176 -0.9755 -0.0149
30080SOL    HW192493   7.574   4.378   0.364 -1.1361 -0.5591  0.7287
30080SOL    HW292494   7.604   4.231   0.384 -0.0142 -0.8136 -2.2998
30081SOL     OW92495   3.518   0.032   8.928  0.0980 -0.0294  0.3987
30081SOL    HW192496   3.503   0.022   8.834 -3.7261  0.3392  0.8066
30081SOL    HW292497   3.525   0.127   8.941  0.1756 -0.0540  0.5401
30082SOL     OW92498   6.233   1.309   2.326 -0.2361  0.2954  0.1891
30082SOL    HW192499   6.245   1.241   2.259  0.5334  1.7960 -1.2555
30082SOL    HW292500   6.228   1.260   2.408  2.0323 -1.4381 -0.5881
30083SOL     OW92501   6.557   7.856   6.407  0.0555  0.1442 -1.1767
30083SOL    HW192502   6.580   7.780   6.460  0.0610  1.5791  0.9851
30083SOL    HW292503   6.477   7.891   6.447  0.9361  2.1946 -1.0968
30084SOL     OW92504   4.594   3.998   0.138  0.4153  0.9147 -0.1931
30084SOL    HW192505   4.647   3.981   0.216  1.5335 -1.2947 -1.3618
30084SOL    HW292506   4.656   3.994   0.065 -1.1048 -0.4753 -1.4993
30085SOL     OW92507   6.232  10.068   3.223  0.0383 -0.2372  0.1021
30085SOL    HW192508   6.187  10.080   3.306  2.0216  2.0791  0.9783
30085SOL    HW292509   6.286   9.990   3.235 -1.3627 -1.2130  0.1433
30086SOL     OW92510  10.487  10.013   0.860  0.4738  0.4205 -0.4803
30086SOL    HW192511  10.415  10.073   0.881 -0.2038 -0.3964 -0.4362
30086SOL    HW292512  10.461   9.973   0.777  0.7023 -0.1480 -0.2808
30087SOL     OW92513   9.156   1.708   7.419 -0.2155  0.1801 -0.7261
30087SOL    HW192514   9.069   1.670   7.435 -1.0670  2.1650 -0.3427
30087SOL    HW292515   9.195   1.714   7.507 -0.9361  2.0452 -0.4964
30088SOL     OW92516   5.390   0.650   9.782 -0.0399 -0.1290  0.6110
30088SOL    HW192517   5.374   0.684   9.694  2.1466  0.7506  0.4916
30088SOL    HW292518   5.415   0.559   9.769  0.3173  0.0106  0.2995
30089SOL     OW92519   1.652  10.003   5.775 -0.8284 -0.2565  0.1396
30089SOL    HW192520   1.688  10.066   5.837 -1.0284 -1.1724  1.2257
30089SOL    HW292521   1.612  10.056   5.706 -0.7535  0.7862  0.8891
30090SOL     OW92522   1.987   2.683   6.949  0.4015  0.1447  0.2385
30090SOL    HW192523   1.995   2.777   6.930  1.4885  0.3137  1.4019
30090SOL    HW292524   2.066   2.662   6.999  1.2243 -1.8782 -1.7834
30091SOL     OW92525   0.020   8.160   8.177 -0.1007  0.5419  0.4022
30091SOL    HW192526   0.064   8.076   8.165 -0.4581 -0.0374  2.6972
30091SOL    HW292527  -0.040   8.167   8.103 -0.2450 -1.3578  0.2988
30092SOL     OW92528   6.823   5.088   2.762 -0.2476 -0.4562 -0.0872
30092SOL    HW192529   6.748   5.057   2.812  1.5291 -0.0216  3.1606
30092SOL    HW292530   6.793   5.170   2.722 -2.1567 -1.4892 -0.8857
30093SOL     OW92531   7.227  10.038   2.638 -0.3606 -0.1296  0.3619
30093SOL    HW192532   7.134  10.038   2.615 -0.4822 -1.5411  0.7319
30093SOL    HW292533   7.268  10.096   2.574 -1.0156 -2.0892 -1.9771
30094SOL     OW92534   0.311   2.664   9.552  0.2725 -0.0900  0.5594
30094SOL    HW192535   0.289   2.667   9.645 -1.4968  0.4254  0.1711
30094SOL    HW292536   0.383   2.726   9.542 -0.4939  0.9592  1.3648
30095SOL     OW92537   3.676   3.725   1.929  0.2432 -0.5998  0.0878
30095SOL    HW192538   3.755   3.778   1.928  0.0141 -0.2104  1.2669
30095SOL    HW292539   3.632   3.748   2.011 -1.8416  0.2644 -1.1858
30096SOL     OW92540   4.322   7.212   9.900  0.3048  0.1141  0.0210
30096SOL    HW192541   4.343   7.122   9.877  1.3734  0.2378  0.5018
30096SOL    HW292542   4.355   7.264   9.827 -1.0774  0.0612 -0.6689
30097SOL     OW92543   2.745   2.550   9.504  0.2349 -0.2875  0.2578
30097SOL    HW192544   2.840   2.563   9.504  0.2466 -0.3546  1.0344
30097SOL    HW292545   2.709   2.638   9.489  0.4193 -0.3337 -0.5174
30098SOL     OW92546   1.993   5.360   2.157 -0.0630  0.1402  0.2576
30098SOL    HW192547   1.927   5.312   2.107  2.3435 -0.5357 -2.4991
30098SOL    HW292548   2.071   5.306   2.152  1.3202  1.8890  1.5984
30099SOL     OW92549   8.219   8.403   1.764 -0.2189 -0.0621  0.6937
30099SOL    HW192550   8.294   8.346   1.782  1.4749  2.1820  1.2622
30099SOL    HW292551   8.255   8.492   1.768 -2.9213  1.1300  0.9815
30100SOL     OW92552   6.825   3.649   0.648 -0.4690 -0.1036 -0.1351
30100SOL    HW192553   6.797   3.581   0.586 -0.5310  0.2053 -0.4516
30100SOL    HW292554   6.899   3.610   0.694  0.5443  0.1873 -1.4529
30101SOL     OW92555   3.338   4.663   9.859  0.0754 -0.4474 -0.0188
30101SOL    HW192556   3.373   4.576   9.841 -2.6869 -1.6276 -0.1825
30101SOL    HW292557   3.347   4.673   9.954  0.5286 -0.8472 -0.0136
30102SOL     OW92558   3.963  10.323   9.239 -0.0099  0.0419 -0.0395
30102SOL    HW192559   4.019  10.359   9.170  1.1209 -1.8678 -0.1964
30102SOL    HW292560   3.881  10.302   9.194  0.4360 -0.4416 -0.6605
30103SOL     OW92561   6.968   5.963   9.171 -0.7272 -0.2722  0.1026
30103SOL    HW192562   6.945   6.050   9.203 -1.0459 -0.7109  1.1047
30103SOL    HW292563   6.940   5.904   9.241  1.5707 -1.0020  0.4792
30104SOL     OW92564   3.277   4.967   6.187  0.5599  0.3762  0.6775
30104SOL    HW192565   3.241   5.028   6.123  1.6882  1.0703  0.6731
30104SOL    HW292566   3.310   5.022   6.258  2.1481 -0.1635  0.3974
30105SOL     OW92567   6.373   4.243   8.153 -0.5499 -0.2319 -0.2449
30105SOL    HW192568   6.294   4.297   8.157 -0.1390  0.3716 -0.1764
30105SOL    HW292569   6.341   4.156   8.129 -1.2464 -0.0200 -0.1153
30106SOL     OW92570   1.387   3.598   6.541  0.1866  0.0538 -0.4087
30106SOL    HW192571   1.376   3.692   6.528  2.1343  0.5174  0.9240
30106SOL    HW292572   1.480   3.582   6.528  0.2671 -1.3207  1.3660
30107SOL     OW92573   0.903   5.705   1.662 -0.2950 -0.3709  0.4551
30107SOL    HW192574   0.886   5.683   1.570 -0.5489  1.7626 -0.0654
30107SOL    HW292575   0.817   5.720   1.700 -0.1171  1.8032  0.1549
30108SOL     OW92576   3.780   2.555   1.026 -0.4679 -0.2682 -1.0014
30108SOL    HW192577   3.770   2.615   0.952  1.0125  0.2630 -0.7941
30108SOL    HW292578   3.715   2.584   1.090  0.9316  1.8568 -0.4543
30109SOL     OW92579   2.051   9.671   6.958 -0.4225 -0.0133  0.3170
30109SOL    HW192580   2.131   9.679   7.009  0.4564 -2.7979 -0.4176
30109SOL    HW292581   1.980   9.687   7.020  0.6637  0.8632  1.3626
30110SOL     OW92582   3.216   4.300   3.590  0.2093 -0.0583  0.0990
30110SOL    HW192583   3.302   4.337   3.569 -0.3883  0.7329 -1.0096
30110SOL    HW292584   3.153   4.358   3.548 -0.8094 -1.6759 -0.7292
30111SOL     OW92585   1.065   3.242   9.730 -0.0206  0.6029 -0.1280
30111SOL    HW192586   1.055   3.263   9.637  1.0582  2.0094  0.0388
30111SOL    HW292587   1.160   3.230   9.741 -0.1372  0.5220  0.8015
30112SOL     OW92588   0.588   9.986   6.320  0.2183  0.1699 -0.0318
30112SOL    HW192589   0.631  10.054   6.268  1.3670  1.0257  1.8985
30112SOL    HW292590   0.546  10.034   6.391 -1.0282 -0.9744  0.0434
30113SOL     OW92591   4.055   7.789   8.417 -0.6526  0.2740  0.3710
30113SOL    HW192592   4.081   7.788   8.325  0.4316  0.7901  0.6643
30113SOL    HW292593   3.980   7.729   8.421  1.0948 -2.1406 -0.3221
30114SOL     OW92594   7.529   1.176   9.654  0.0195  0.2259 -0.0714
30114SOL    HW192595   7.589   1.167   9.728 -0.0284 -0.0856 -0.0673
30114SOL    HW292596   7.583   1.160   9.577 -0.2404 -1.0361 -0.0229
30115SOL     OW92597   0.336   7.119   6.040 -0.5870 -0.0596  0.1508
30115SOL    HW192598   0.394   7.051   6.073  0.0965  1.1687  1.5914
30115SOL    HW292599   0.323   7.178   6.115 -3.5893 -0.2077 -0.1382
30116SOL     OW92600   2.774   6.410  10.421  0.0802  0.3350 -0.0679
30116SOL    HW192601   2.699   6.422  10.479  0.9854  0.1870  1.1980
30116SOL    HW292602   2.763   6.475  10.352 -0.2267  1.6503  1.1706
30117SOL     OW92603   7.368   3.349   1.021 -0.1365  0.1863  0.2899
30117SOL    HW192604   7.328   3.411   1.081  1.4760 -0.7335  2.4490
30117SOL    HW292605   7.457   3.382   1.007 -0.1825 -0.1210 -0.8530
30118SOL     OW92606   5.848   6.285   6.269 -0.0829  0.3866  0.6352
30118SOL    HW192607   5.776   6.323   6.319  0.2425  0.0561  1.3652
30118SOL    HW292608   5.806   6.252   6.189 -0.6853  0.5059  0.8952
30119SOL     OW92609   5.035   3.437   0.101 -0.0381 -0.4577 -0.7096
30119SOL    HW192610   5.117   3.466   0.141  0.7054 -1.1539 -1.6713
30119SOL    HW292611   5.019   3.350   0.137 -1.2917  0.3369  0.7755
30120SOL     OW92612   5.644   6.198   7.876  0.2743 -0.4078  0.1617
30120SOL    HW192613   5.565   6.151   7.906  1.0080 -1.5098  0.4387
30120SOL    HW292614   5.680   6.236   7.956  0.1974 -0.1623  0.0806
30121SOL     OW92615   2.239   7.942   8.866 -0.2099 -0.1387  0.2541
30121SOL    HW192616   2.275   7.989   8.791 -0.5040 -0.9949 -0.4291
30121SOL    HW292617   2.151   7.978   8.877 -0.6622 -0.9273 -0.6447
30122SOL     OW92618   0.335   8.425   4.493 -0.0446  0.4189 -0.0707
30122SOL    HW192619   0.259   8.482   4.479 -0.7647 -0.0524  1.6305
30122SOL    HW292620   0.369   8.450   4.579  0.9377 -0.2577 -0.2456
30123SOL     OW92621   3.412   5.008   1.871 -0.0250  0.2987 -0.3303
30123SOL    HW192622   3.361   5.074   1.918  0.4104 -0.1714  0.8257
30123SOL    HW292623   3.364   4.994   1.789 -0.4789  1.5536 -0.2878
30124SOL     OW92624   2.423   8.509   8.593 -0.1876 -0.1848  0.3693
30124SOL    HW192625   2.385   8.568   8.527 -1.3373 -0.9039  0.3393
30124SOL    HW292626   2.399   8.422   8.562 -0.2438 -0.5647  1.4413
30125SOL     OW92627  10.116   8.532   9.952 -0.5242 -0.0646 -0.9472
30125SOL    HW192628  10.047   8.598   9.945 -0.1772  0.4556  0.2641
30125SOL    HW292629  10.197   8.582   9.949 -0.2564 -0.1138  2.0649
30126SOL     OW92630   0.181   5.419   0.011  0.1053  0.1713  0.0702
30126SOL    HW192631   0.152   5.491  -0.045  0.9713 -0.2729 -0.9885
30126SOL    HW292632   0.206   5.461   0.093  1.7836  1.2651 -0.9473
30127SOL     OW92633   3.114   9.411   8.323  0.1063 -0.8941  0.7051
30127SOL    HW192634   3.044   9.355   8.287 -0.4892 -1.6391  2.8777
30127SOL    HW292635   3.127   9.478   8.256 -1.7488 -1.5209 -0.3697
30128SOL     OW92636   8.079   0.650   2.758 -0.0273 -0.4874 -0.1403
30128SOL    HW192637   8.075   0.676   2.850 -0.8956 -1.7662  0.1999
30128SOL    HW292638   8.022   0.713   2.713  1.3999  0.9461 -0.0336
30129SOL     OW92639   7.527   5.364   4.073 -0.1020  0.2477  0.2874
30129SOL    HW192640   7.582   5.441   4.088  0.6068  0.2215 -1.8227
30129SOL    HW292641   7.518   5.360   3.978  1.9348 -3.6472  0.0648
30130SOL     OW92642   1.016   1.534   1.470  0.3071 -0.3328  0.4548
30130SOL    HW192643   1.019   1.627   1.446  2.5975 -0.2919  0.7175
30130SOL    HW292644   0.946   1.498   1.415  1.0928  1.0507 -1.5768
30131SOL     OW92645   6.538   2.564   1.828 -0.0773  0.2527  0.1552
30131SOL    HW192646   6.527   2.561   1.733 -0.3241 -1.5500  0.2034
30131SOL    HW292647   6.622   2.521   1.844  0.6342  1.7736  0.6916
30132SOL     OW92648   8.014   4.324   1.595  0.0446 -0.1340  0.0812
30132SOL    HW192649   8.028   4.378   1.673 -0.6463  0.3890 -0.1414
30132SOL    HW292650   7.934   4.360   1.555  1.3584  0.7779 -1.8641
30133SOL     OW92651   1.548   5.552   8.084  0.3248 -0.2376  0.2107
30133SOL    HW192652   1.583   5.571   7.997  2.1450  0.5470  1.0626
30133SOL    HW292653   1.619   5.507   8.129 -0.7311 -0.9862  1.1964
30134SOL     OW92654  10.503   9.435   1.696 -0.2994 -0.1120 -0.1447
30134SOL    HW192655  10.505   9.359   1.638 -1.3332  0.1136 -0.5008
30134SOL    HW292656  10.457   9.405   1.774 -1.3179  0.3041 -0.5587
30135SOL     OW92657   3.007   0.426   4.383 -0.1513 -0.1603  0.3010
30135SOL    HW192658   3.023   0.412   4.476  0.6855  1.8792  0.5145
30135SOL    HW292659   3.087   0.468   4.351 -1.2316  1.1293 -0.8480
30136SOL     OW92660   0.178   2.151   9.331  0.2488 -0.1638  0.0707
30136SOL    HW192661   0.199   2.226   9.275 -0.8795 -0.5519 -0.9257
30136SOL    HW292662   0.135   2.189   9.408 -0.2828  0.2376 -0.4115
30137SOL     OW92663   8.571   1.986   3.909 -1.2036  0.2424 -0.2436
30137SOL    HW192664   8.561   1.965   4.002  2.6809 -1.7859 -0.1008
30137SOL    HW292665   8.547   1.905   3.864  1.1089 -0.3095 -0.6068
30138SOL     OW92666   3.725   7.146   1.060 -0.3055  0.2054  0.0478
30138SOL    HW192667   3.714   7.228   1.107  0.8838  0.3135  0.1677
30138SOL    HW292668   3.658   7.148   0.991 -0.7817  0.9197  0.5227
30139SOL     OW92669   7.426   6.971   4.827  0.2130 -0.0775  0.1367
30139SOL    HW192670   7.516   6.994   4.803  0.3012 -0.1989  0.3450
30139SOL    HW292671   7.429   6.876   4.842  0.3297  0.0993  1.3144
30140SOL     OW92672  10.560   8.977   1.409  0.3507 -0.3108  0.7565
30140SOL    HW192673  10.496   8.975   1.337 -0.3381  1.3228  1.2629
30140SOL    HW292674  10.643   8.955   1.368  0.3634  2.5793 -1.0461
30141SOL     OW92675   5.781   3.485   5.227  0.3402  0.6117  0.0538
30141SOL    HW192676   5.859   3.534   5.251  0.3492 -0.0128  1.3731
30141SOL    HW292677   5.757   3.437   5.306 -0.9861  0.2607 -0.5316
30142SOL     OW92678   1.222   9.849   1.604  0.5819  0.2924  0.0574
30142SOL    HW192679   1.180   9.921   1.556 -1.3371 -0.4134  0.5780
30142SOL    HW292680   1.252   9.790   1.535 -1.6929 -0.4616 -0.3863
30143SOL     OW92681   5.650   0.854   3.531 -0.2677  0.1176 -0.0408
30143SOL    HW192682   5.634   0.819   3.619 -0.5006 -1.7936 -0.8014
30143SOL    HW292683   5.685   0.942   3.547  2.2115 -1.0854  2.1033
30144SOL     OW92684   8.658   9.408   4.502 -0.2769  0.0474  0.2743
30144SOL    HW192685   8.731   9.467   4.517 -0.3121 -0.2337  1.6228
30144SOL    HW292686   8.656   9.397   4.406  0.4134  1.3259  0.0931
30145SOL     OW92687   3.303   1.843   4.341  0.8344  0.1573 -0.1238
30145SOL    HW192688   3.302   1.908   4.270 -0.8202  0.7932  0.4170
30145SOL    HW292689   3.275   1.893   4.418 -0.3270 -1.1709  0.3400
30146SOL     OW92690   2.113   4.265   8.585 -0.1960  0.2571 -0.3597
30146SOL    HW192691   2.179   4.197   8.601 -0.4434 -0.2680 -1.5049
30146SOL    HW292692   2.103   4.267   8.490 -1.2477  0.8985 -0.2455
30147SOL     OW92693   9.437   2.718   2.402  0.1984  0.0852  0.0895
30147SOL    HW192694   9.513   2.737   2.347  0.4903  0.9018  0.7605
30147SOL    HW292695   9.392   2.802   2.411 -1.4292 -0.5863 -1.2122
30148SOL     OW92696   8.984   0.037   0.919 -0.3158  0.0696 -0.0529
30148SOL    HW192697   8.945  -0.039   0.962 -0.7245 -0.6896 -1.6835
30148SOL    HW292698   9.077   0.019   0.917 -0.6283 -1.8042 -2.8797
30149SOL     OW92699   6.717   8.233   2.233 -0.0155 -0.2736 -0.2075
30149SOL    HW192700   6.714   8.203   2.324  0.7058 -0.0237 -0.0938
30149SOL    HW292701   6.704   8.327   2.238 -0.2424 -0.2936 -0.3912
30150SOL     OW92702   1.994   1.670   8.552  0.0840 -0.0601 -0.2520
30150SOL    HW192703   1.932   1.634   8.489  1.7666  0.0118 -2.0313
30150SOL    HW292704   1.982   1.617   8.631 -2.9856  0.6892 -0.1072
30151SOL     OW92705   7.306   0.872   3.496 -0.5865 -0.2505 -0.0403
30151SOL    HW192706   7.249   0.863   3.573  0.3453 -0.4816  0.6379
30151SOL    HW292707   7.249   0.852   3.422 -1.9088  1.5028  0.4401
30152SOL     OW92708   7.487   8.759   3.435 -0.1945 -0.2492 -0.0907
30152SOL    HW192709   7.566   8.807   3.461  0.0332 -1.6265  1.9838
30152SOL    HW292710   7.519   8.681   3.390 -0.2664 -1.2216  1.4596
30153SOL     OW92711   7.490   3.361   6.792  0.4248 -0.1875 -0.8569
30153SOL    HW192712   7.507   3.366   6.698 -1.1021  1.1897 -1.1137
30153SOL    HW292713   7.411   3.308   6.799  0.5783 -0.3531 -0.3450
30154SOL     OW92714   6.604   3.004   8.002 -0.0419 -0.5141 -0.4993
30154SOL    HW192715   6.649   3.063   7.941 -0.4119 -0.5400 -0.8018
30154SOL    HW292716   6.519   3.046   8.016 -0.0582 -0.6443 -0.2021
30155SOL     OW92717   9.599   5.883   8.130  0.0492 -0.2717 -0.3518
30155SOL    HW192718   9.592   5.810   8.068  1.3988  0.0827 -0.9711
30155SOL    HW292719   9.569   5.959   8.081 -1.5303 -0.4156  0.3530
30156SOL     OW92720   0.273   1.993   1.803 -0.5001  0.1508  0.4626
30156SOL    HW192721   0.322   2.051   1.861 -0.9779  0.7338  0.2968
30156SOL    HW292722   0.185   1.990   1.841 -0.2961 -1.0551  0.8812
30157SOL     OW92723   6.956   9.862   8.338  0.0739 -0.5057 -0.5416
30157SOL    HW192724   7.032   9.884   8.391 -0.2957 -1.1550  0.2864
30157SOL    HW292725   6.957   9.925   8.266 -1.7143  3.2038  2.3891
30158SOL     OW92726   0.915   8.745  10.076  0.3244 -0.1170 -0.3256
30158SOL    HW192727   1.006   8.755  10.105  0.1455  1.6052 -0.2577
30158SOL    HW292728   0.920   8.679  10.006  1.5369 -0.4198  0.0107
30159SOL     OW92729   5.505   1.165   0.862 -0.0059  0.0918 -0.2628
30159SOL    HW192730   5.467   1.147   0.776 -0.9327 -0.3777  0.2217
30159SOL    HW292731   5.429   1.185   0.918  0.5264 -0.1816  0.5771
30160SOL     OW92732   9.912   4.153   9.621 -0.6312 -0.1383  0.2619
30160SOL    HW192733   9.834   4.100   9.603  0.1826 -0.6802 -2.0358
30160SOL    HW292734   9.901   4.230   9.565 -0.3556  0.6731  1.3039
30161SOL     OW92735   8.377   8.613   9.850  1.2469 -0.3744  0.1595
30161SOL    HW192736   8.363   8.528   9.808 -2.3087  0.5789 -0.9816
30161SOL    HW292737   8.383   8.592   9.943 -0.5865 -1.8934  0.0213
30162SOL     OW92738  10.590   0.160   0.876  0.2316  0.5740 -0.3082
30162SOL    HW192739  10.557   0.241   0.914 -0.9921 -0.8822  1.9474
30162SOL    HW292740  10.686   0.167   0.882  0.1428  1.8227 -0.1662
30163SOL     OW92741   9.352   4.650   2.939 -0.5200  0.3370  0.1336
30163SOL    HW192742   9.436   4.633   2.981  0.1549  0.9287 -0.9439
30163SOL    HW292743   9.296   4.577   2.967 -0.0513  0.6023  1.8672
30164SOL     OW92744   3.883   2.137   3.090 -0.0006 -0.2088  0.2643
30164SOL    HW192745   3.916   2.180   3.011  0.1910 -0.3443  0.2697
30164SOL    HW292746   3.849   2.053   3.060 -0.1291 -0.1667  0.2928
30165SOL     OW92747   7.627   9.383   0.016 -0.1771 -0.7393 -0.0461
30165SOL    HW192748   7.565   9.354  -0.050 -0.8058  1.4693 -0.5208
30165SOL    HW292749   7.690   9.436  -0.033 -0.2147  0.2876  0.9806
30166SOL     OW92750   4.676   0.590   8.759 -0.2156  0.6394  0.2057
30166SOL    HW192751   4.731   0.573   8.682  0.1396 -0.5652  0.7136
30166SOL    HW292752   4.617   0.661   8.731  0.9285  1.2707 -0.6654
30167SOL     OW92753   1.563   6.799   8.317 -0.1080  0.3273 -0.5453
30167SOL    HW192754   1.641   6.763   8.359 -1.3509 -0.5289  1.1361
30167SOL    HW292755   1.597   6.860   8.251  1.9977 -1.5058 -1.2669
30168SOL     OW92756   7.473   1.888   5.805  0.3698 -0.8248  0.6520
30168SOL    HW192757   7.563   1.902   5.834  0.6661  1.4129 -1.1183
30168SOL    HW292758   7.482   1.851   5.718 -0.4200 -0.4703  0.4156
30169SOL     OW92759   4.175   2.310   3.755 -0.6692  0.0419  0.0211
30169SOL    HW192760   4.151   2.258   3.678  0.3221 -0.9355  0.3397
30169SOL    HW292761   4.092   2.339   3.792 -1.3347 -2.1910  0.4154
30170SOL     OW92762   8.403   6.665  10.128  0.0150  0.3094  0.5369
30170SOL    HW192763   8.430   6.647  10.038  0.5668 -0.9759  0.9306
30170SOL    HW292764   8.391   6.760  10.131 -0.1328  0.3580 -0.9152
30171SOL     OW92765   0.493   8.347   4.783 -0.2479  0.4144  0.1845
30171SOL    HW192766   0.586   8.353   4.757 -0.4670  0.2263 -0.6888
30171SOL    HW292767   0.495   8.305   4.869  0.3882 -1.4530 -0.6845
30172SOL     OW92768   8.122   5.221   5.682 -0.6384  0.5336  0.2128
30172SOL    HW192769   8.052   5.204   5.620 -0.7424  0.6779  0.2900
30172SOL    HW292770   8.112   5.314   5.705  0.3264  0.8809 -0.7102
30173SOL     OW92771   3.996   7.891   6.753 -1.0592 -0.2974 -0.0276
30173SOL    HW192772   3.943   7.813   6.737 -0.2464 -0.8055 -0.3064
30173SOL    HW292773   4.022   7.921   6.666 -0.9844  0.0236  0.1009
30174SOL     OW92774   0.235   9.279   3.563 -0.2248 -0.6514 -0.7994
30174SOL    HW192775   0.232   9.219   3.638 -0.1514 -0.3700 -0.5701
30174SOL    HW292776   0.144   9.300   3.544 -0.3121 -1.5969 -1.4983
30175SOL     OW92777   6.655   0.167   0.765 -0.7037  0.0310  0.4185
30175SOL    HW192778   6.560   0.158   0.757 -0.5918 -1.0115  0.1209
30175SOL    HW292779   6.688   0.078   0.754  0.3888  0.5399 -0.6545
30176SOL     OW92780   1.055   3.962   4.636 -0.1561  0.0379 -0.1991
30176SOL    HW192781   0.960   3.967   4.647 -0.1157 -0.9457  0.7473
30176SOL    HW292782   1.091   3.983   4.722  0.5227  1.1527 -0.7384
30177SOL     OW92783   6.640   5.435   6.682 -0.5085  0.8875  0.4869
30177SOL    HW192784   6.574   5.435   6.752 -0.6751  2.5449  0.3774
30177SOL    HW292785   6.588   5.442   6.602 -0.2688  0.2678  0.2792
30178SOL     OW92786   9.460   9.236   3.260 -0.3193  0.0540  0.0700
30178SOL    HW192787   9.502   9.154   3.233 -0.0474 -0.2505  1.3456
30178SOL    HW292788   9.404   9.260   3.186  0.0863 -0.9437 -0.5806
30179SOL     OW92789   4.261   3.753   7.655 -0.2617  0.1607  0.3577
30179SOL    HW192790   4.180   3.734   7.608  0.8387 -0.1922 -1.5141
30179SOL    HW292791   4.250   3.712   7.741 -3.2491  2.6808  1.3847
30180SOL     OW92792   4.187   6.917   3.185  0.1091 -0.4014 -0.1685
30180SOL    HW192793   4.148   6.989   3.135  1.0825  0.8552  0.7770
30180SOL    HW292794   4.277   6.913   3.152  0.2105 -0.8268  0.1644
30181SOL     OW92795   4.430   7.080   5.385 -0.7098  0.7097 -0.3725
30181SOL    HW192796   4.441   6.985   5.375  0.3805  0.5028  2.0249
30181SOL    HW292797   4.496   7.118   5.326  2.0164 -0.2128  1.8607
30182SOL     OW92798  10.170   6.339   9.305 -0.1406 -0.5734  0.1670
30182SOL    HW192799  10.127   6.424   9.314  1.2189  0.0076  1.6760
30182SOL    HW292800  10.236   6.353   9.236  2.8765  0.9464  3.0646
30183SOL     OW92801   3.454   5.099   4.575  0.9063  0.1194 -0.1760
30183SOL    HW192802   3.361   5.102   4.553  1.0751  0.9433 -0.8656
30183SOL    HW292803   3.457   5.073   4.667 -0.0230  0.4054 -0.0543
30184SOL     OW92804  10.533   6.631   6.563  0.2651 -0.2509 -0.0842
30184SOL    HW192805  10.459   6.642   6.504  0.5487 -0.7727 -0.5463
30184SOL    HW292806  10.513   6.551   6.612  0.4483 -0.3021 -0.0939
30185SOL     OW92807   0.472   3.331   0.111  0.1811  0.3979  0.1265
30185SOL    HW192808   0.542   3.311   0.172 -0.5485 -1.6727  0.3504
30185SOL    HW292809   0.404   3.372   0.165  0.6395  1.1442  0.1561
30186SOL     OW92810   1.362   3.533   5.197 -0.1587  0.7435 -0.0258
30186SOL    HW192811   1.448   3.565   5.170 -0.6111  2.2813  0.2605
30186SOL    HW292812   1.359   3.443   5.165  1.2759  0.8850 -0.6503
30187SOL     OW92813   5.711   8.875   2.691 -0.1614  0.1113  0.0418
30187SOL    HW192814   5.800   8.841   2.682 -0.5346 -1.2690  1.1753
30187SOL    HW292815   5.681   8.842   2.776 -2.1196 -0.3255 -0.7635
30188SOL     OW92816   2.885   2.205   3.761  0.1260 -0.3344 -0.2026
30188SOL    HW192817   2.819   2.275   3.763  0.9655  0.5443 -1.5419
30188SOL    HW292818   2.836   2.128   3.734 -0.5759  0.0280 -0.0095
30189SOL     OW92819   4.797   2.029   1.732  0.2642 -0.0347 -0.2279
30189SOL    HW192820   4.787   2.123   1.721  0.1396 -0.1727 -1.5273
30189SOL    HW292821   4.750   2.008   1.812  0.9145  1.1078  0.4779
30190SOL     OW92822   4.154   5.194   1.001  0.6825 -0.2524 -0.3576
30190SOL    HW192823   4.157   5.218   1.094  0.7500  0.3549 -0.5134
30190SOL    HW292824   4.135   5.100   1.002  0.7603 -0.2707  0.2715
30191SOL     OW92825   6.309   9.003  10.601 -0.1026  0.7138  0.1580
30191SOL    HW192826   6.325   8.974  10.691 -2.5867  0.9627  0.7675
30191SOL    HW292827   6.287   9.096  10.610  3.4573  1.8542 -1.2533
30192SOL     OW92828   8.028   5.511   8.320  0.1810  0.7351 -0.3237
30192SOL    HW192829   8.071   5.590   8.352  1.2194  0.6369 -1.4080
30192SOL    HW292830   7.935   5.534   8.317  0.0898  0.9203  2.1378
30193SOL     OW92831   8.668   7.596   7.417  0.0616  0.5476  0.6097
30193SOL    HW192832   8.614   7.561   7.347  0.4366  1.1219  0.0154
30193SOL    HW292833   8.645   7.544   7.494  0.8834 -1.2510 -0.3082
30194SOL     OW92834   4.711   8.365   4.401  0.2223  0.9648 -0.8228
30194SOL    HW192835   4.620   8.391   4.383 -0.6530 -0.1250  1.5487
30194SOL    HW292836   4.717   8.363   4.496  3.0828  1.9815 -0.8840
30195SOL     OW92837   4.748   2.115   2.964  0.0383  0.0873 -0.6559
30195SOL    HW192838   4.792   2.158   2.891  0.2060 -0.5843 -0.9583
30195SOL    HW292839   4.806   2.127   3.038  0.9733 -1.1686 -1.1448
30196SOL     OW92840   5.775   7.469   7.265  0.7594  0.0015  0.2683
30196SOL    HW192841   5.743   7.535   7.202  0.3482  0.1326  0.6120
30196SOL    HW292842   5.710   7.399   7.261  0.1058  0.5158  1.3788
30197SOL     OW92843   0.679   0.153   7.209 -0.5301 -0.5579  0.2030
30197SOL    HW192844   0.748   0.100   7.170 -0.1918 -0.7248  1.0222
30197SOL    HW292845   0.610   0.155   7.142 -0.0622 -1.0389 -0.3028
30198SOL     OW92846   2.455   4.903   6.152 -0.3624  0.0181 -0.5373
30198SOL    HW192847   2.506   4.871   6.077 -1.2656 -0.2527 -1.0432
30198SOL    HW292848   2.365   4.906   6.121 -0.4496  2.2472 -0.2283
30199SOL     OW92849   3.053   5.309   9.820  0.6387 -0.2250 -0.2590
30199SOL    HW192850   3.124   5.343   9.874 -0.9927  0.4290  1.5851
30199SOL    HW292851   3.053   5.215   9.837  1.0237 -0.2274 -0.2581
30200SOL     OW92852   0.063   6.982   6.938 -0.4789  0.1648 -0.0283
30200SOL    HW192853   0.037   7.036   6.863 -0.1933  1.4982  0.8048
30200SOL    HW292854   0.104   7.044   6.999 -0.4324 -0.9488  1.1035
30201SOL     OW92855   5.450  10.472   3.730  0.1515 -0.0163 -0.6714
30201SOL    HW192856   5.361  10.438   3.744  0.0744  0.5204  0.2795
30201SOL    HW292857   5.495  10.403   3.682 -0.5732 -0.6176 -0.5133
30202SOL     OW92858   9.198   4.264   9.350 -0.5727  0.3354  0.0677
30202SOL    HW192859   9.273   4.319   9.371  0.3843 -1.2688  1.0522
30202SOL    HW292860   9.186   4.209   9.428 -0.0737 -2.3843 -1.6409
30203SOL     OW92861   9.082   0.948   5.363  0.3398 -0.1844  0.3826
30203SOL    HW192862   9.031   0.976   5.287 -0.5389 -2.7126 -0.0596
30203SOL    HW292863   9.153   1.012   5.369 -0.0607  0.5962 -2.0021
30204SOL     OW92864   4.040   9.243  10.328 -0.1414 -0.0752 -0.1902
30204SOL    HW192865   4.119   9.201  10.361 -0.5564 -1.3688 -0.7791
30204SOL    HW292866   4.053   9.249  10.233 -0.4105  0.4578 -0.2030
30205SOL     OW92867   0.760   9.555   8.533 -0.0142 -0.1967 -0.1972
30205SOL    HW192868   0.775   9.522   8.622  1.5830 -0.1557 -0.4251
30205SOL    HW292869   0.722   9.481   8.486  0.7214 -0.7723  0.0902
30206SOL     OW92870   8.751   4.389   0.995  0.6152 -0.1447 -0.5506
30206SOL    HW192871   8.796   4.416   1.075  0.6364 -1.5579 -0.0576
30206SOL    HW292872   8.800   4.432   0.925  2.0047 -0.6688  0.0551
30207SOL     OW92873   6.477   8.037   8.786  0.0401 -0.2279 -0.2236
30207SOL    HW192874   6.392   7.996   8.795 -0.4379  1.0002  1.2713
30207SOL    HW292875   6.524   8.014   8.866  0.3553  0.7612 -0.1074
30208SOL     OW92876   7.463   4.567   8.589 -0.2850 -0.0840  0.2405
30208SOL    HW192877   7.373   4.547   8.613 -1.0757  0.5744 -1.9309
30208SOL    HW292878   7.459   4.655   8.552  1.2931  0.0179  0.2366
30209SOL     OW92879   9.019   8.889   4.043 -0.4904 -0.2398  0.3053
30209SOL    HW192880   9.047   8.812   4.093  2.1940  0.7931  0.5785
30209SOL    HW292881   9.005   8.856   3.954  0.5905 -1.0863  0.4205
30210SOL     OW92882  10.282   8.817   9.186  0.4109  0.2751  0.6255
30210SOL    HW192883  10.358   8.873   9.177 -0.8500  1.8708 -0.6340
30210SOL    HW292884  10.269   8.779   9.098 -0.5136  0.4202  0.6837
30211SOL     OW92885   8.068   6.223   8.959  0.1667  0.2500  0.0184
30211SOL    HW192886   8.105   6.156   8.902  2.0786  2.3326 -1.3595
30211SOL    HW292887   7.974   6.224   8.938  0.3486 -0.9850 -0.9469
30212SOL     OW92888   6.811   4.491   2.724 -0.2012  0.2614  0.1227
30212SOL    HW192889   6.801   4.406   2.679  1.1315 -0.3612  0.9299
30212SOL    HW292890   6.738   4.543   2.693 -2.0645 -1.7514  0.8739
30213SOL     OW92891   1.714   0.620  10.464 -0.5171 -0.5403 -0.6510
30213SOL    HW192892   1.723   0.575  10.548  1.4361  0.4735 -0.2607
30213SOL    HW292893   1.643   0.683  10.478 -0.8458 -1.0394 -0.0626
30214SOL     OW92894   5.201   4.575   7.432 -0.4106 -0.4712  0.3154
30214SOL    HW192895   5.192   4.499   7.489 -0.1151 -1.4356 -0.9093
30214SOL    HW292896   5.241   4.542   7.352  1.1848  1.2481  0.3274
30215SOL     OW92897   1.416   6.911   5.379  0.1475  0.3510  0.4378
30215SOL    HW192898   1.371   6.961   5.311  1.9828  0.9223 -0.4233
30215SOL    HW292899   1.501   6.954   5.388 -0.4357  1.0352  4.0003
30216SOL     OW92900   9.975   0.710   3.167  0.0105 -0.8489  0.0434
30216SOL    HW192901  10.039   0.667   3.223  0.4509 -0.3799 -0.0925
30216SOL    HW292902   9.978   0.802   3.193 -0.4902 -0.7936 -0.0781
30217SOL     OW92903   8.760   5.243   7.893 -0.0986 -0.2392  1.0172
30217SOL    HW192904   8.726   5.159   7.925  0.1321 -1.0855 -0.8183
30217SOL    HW292905   8.716   5.256   7.809  1.6050  0.2604  0.1397
30218SOL     OW92906   6.119   1.582   8.324 -0.3112  0.0583 -0.2351
30218SOL    HW192907   6.207   1.574   8.286 -0.1597 -0.4865  0.1976
30218SOL    HW292908   6.119   1.667   8.367  1.0618 -1.0445  2.2409
30219SOL     OW92909   5.094   3.399   4.171 -0.4472  0.4308 -0.2377
30219SOL    HW192910   5.043   3.433   4.244  0.5127  0.1807  0.5795
30219SOL    HW292911   5.064   3.448   4.095 -1.5818  0.5781  0.2943
30220SOL     OW92912   5.542   8.152   9.549  0.7730  0.1557 -0.3494
30220SOL    HW192913   5.617   8.184   9.598  0.4128 -0.4875  0.6512
30220SOL    HW292914   5.500   8.090   9.608 -1.3394  1.5111 -0.3115
30221SOL     OW92915   7.718   7.295   6.371  0.2538  0.1431  0.2029
30221SOL    HW192916   7.697   7.359   6.439 -1.2567  3.0622 -2.7367
30221SOL    HW292917   7.814   7.295   6.368  0.3614  0.0539  2.1456
30222SOL     OW92918   4.493   0.331   5.270  0.3256  0.1325 -0.3820
30222SOL    HW192919   4.419   0.270   5.278  2.2373 -2.1928  0.8403
30222SOL    HW292920   4.543   0.298   5.196  1.0064  0.6732 -0.1709
30223SOL     OW92921   3.809   5.727   4.058  0.3414 -0.0259  0.4072
30223SOL    HW192922   3.822   5.702   4.149  0.6737  0.4168  0.4868
30223SOL    HW292923   3.883   5.688   4.012  0.7626  0.6294  0.5038
30224SOL     OW92924   1.819   7.603   4.697  0.7235  0.1974 -0.2954
30224SOL    HW192925   1.894   7.653   4.665 -0.4765  1.4004 -1.3716
30224SOL    HW292926   1.831   7.600   4.792  2.3205  0.0136 -0.4786
30225SOL     OW92927   2.424   4.734   2.620  0.6380 -0.0336  0.3365
30225SOL    HW192928   2.463   4.775   2.543 -0.1579  0.2921  0.0964
30225SOL    HW292929   2.498   4.695   2.667  0.9733 -1.5331 -1.3468
30226SOL     OW92930   2.777   8.692   6.775  0.4822 -0.0377 -0.1050
30226SOL    HW192931   2.820   8.618   6.732 -0.4157 -0.0994 -0.9371
30226SOL    HW292932   2.716   8.652   6.837  0.7023  0.0263  0.1541
30227SOL     OW92933   0.301   2.415   1.220  0.5139  0.3841  0.3699
30227SOL    HW192934   0.359   2.483   1.252  1.2171 -0.1957  0.3619
30227SOL    HW292935   0.216   2.458   1.211  0.6917  0.9805  1.3788
30228SOL     OW92936   1.054   1.121   0.442  0.1597  0.3731 -0.5087
30228SOL    HW192937   1.130   1.118   0.384  0.4916 -0.9984 -0.0228
30228SOL    HW292938   1.061   1.042   0.496 -1.5397  0.2885 -0.3641
30229SOL     OW92939   5.558   3.085   6.801  0.2892  0.0438 -0.0309
30229SOL    HW192940   5.554   3.007   6.745 -0.7807 -0.6350  0.9456
30229SOL    HW292941   5.519   3.154   6.748  1.5381  0.0269 -1.0291
30230SOL     OW92942   2.824   5.034   5.691 -0.3132 -0.0532  0.0061
30230SOL    HW192943   2.891   5.098   5.669  0.9433 -0.9320  1.1310
30230SOL    HW292944   2.872   4.953   5.705 -1.7033 -0.8860  0.1161
30231SOL     OW92945   4.468   7.795  10.137  0.3463  0.2171 -0.0963
30231SOL    HW192946   4.395   7.825  10.190 -0.7246  0.3929 -1.6045
30231SOL    HW292947   4.469   7.700  10.150 -0.7664  0.0940 -0.7750
30232SOL     OW92948   4.786   6.982   6.616 -0.4766  0.0225 -0.0987
30232SOL    HW192949   4.783   6.934   6.533 -0.3294 -1.2978  0.6259
30232SOL    HW292950   4.862   6.946   6.662  0.9193  2.4428 -0.3546
30233SOL     OW92951   6.160  10.495   8.381 -0.6726  0.3184  0.3850
30233SOL    HW192952   6.157  10.508   8.476 -0.6970  1.3060  0.2536
30233SOL    HW292953   6.074  10.521   8.350 -0.1571  1.5147 -0.0824
30234SOL     OW92954   9.120   2.972   6.746 -0.0139 -0.1518  0.1311
30234SOL    HW192955   9.097   2.880   6.754  1.0462 -0.4652 -0.3007
30234SOL    HW292956   9.036   3.017   6.741 -0.5522 -1.0318  0.8855
30235SOL     OW92957   3.989   4.964   4.692 -0.2938 -0.3181  0.0612
30235SOL    HW192958   4.060   5.004   4.740 -1.0022  2.4620 -1.0035
30235SOL    HW292959   4.025   4.948   4.604 -0.4400 -0.7276  0.0708
30236SOL     OW92960   9.727   4.807   1.985  0.3622  0.0469 -0.0412
30236SOL    HW192961   9.708   4.890   2.028  0.0973  0.5371 -1.0673
30236SOL    HW292962   9.798   4.769   2.037 -0.3139  0.3448  1.1359
30237SOL     OW92963  10.579   4.318   4.461  0.1747 -0.4281  0.1514
30237SOL    HW192964  10.587   4.276   4.547 -2.2002 -0.4702  0.4356
30237SOL    HW292965  10.604   4.409   4.475  0.4670 -0.5954  0.7242
30238SOL     OW92966   6.317   8.340   1.786  0.4084  0.7469 -0.0792
30238SOL    HW192967   6.240   8.398   1.783  0.2682  0.6906  1.5309
30238SOL    HW292968   6.341   8.328   1.695 -0.7725  1.7435 -0.5561
30239SOL     OW92969   4.364   8.556   6.039  0.5206 -0.0555 -0.1155
30239SOL    HW192970   4.273   8.559   6.011  0.8146  2.2031 -1.0407
30239SOL    HW292971   4.407   8.501   5.973 -0.0552 -0.6201 -0.0239
30240SOL     OW92972   8.428   0.114   5.882 -0.2192 -0.2374  0.4345
30240SOL    HW192973   8.520   0.100   5.904 -0.0004  2.6541  1.8305
30240SOL    HW292974   8.430   0.176   5.809 -0.9328  2.4698  2.5537
30241SOL     OW92975   9.000  10.180   1.003  0.1332 -0.5499  0.0223
30241SOL    HW192976   8.907  10.160   0.989 -1.1058 -0.2196  5.4766
30241SOL    HW292977   9.003  10.276   1.008  1.3654 -0.3917 -2.4415
30242SOL     OW92978   9.950   1.221   7.617 -0.0369  0.2876 -0.1550
30242SOL    HW192979   9.886   1.219   7.546 -2.0045  0.5045  1.5298
30242SOL    HW292980   9.953   1.312   7.645 -0.0587  0.0330  0.7042
30243SOL     OW92981   9.328   6.327  10.375  0.3814  0.2592 -0.3412
30243SOL    HW192982   9.386   6.372  10.313 -0.4700  0.7468 -0.8095
30243SOL    HW292983   9.347   6.367  10.459  0.8338  0.3035 -0.4613
30244SOL     OW92984   0.261   8.079   8.991  0.5823 -0.0200 -0.3214
30244SOL    HW192985   0.325   8.111   8.928  1.5387  1.4327  1.2870
30244SOL    HW292986   0.191   8.040   8.938  1.0236  1.6898 -2.2650
30245SOL     OW92987   2.652   3.911   7.543  0.2562 -0.0473  0.8098
30245SOL    HW192988   2.652   3.867   7.458 -0.7360  0.9580  0.2599
30245SOL    HW292989   2.679   3.844   7.605  0.6817 -0.8903 -0.2519
30246SOL     OW92990   7.510   7.903   4.283  0.4075 -0.2581  0.0039
30246SOL    HW192991   7.535   7.877   4.194  1.5582 -0.1319  0.2653
30246SOL    HW292992   7.566   7.978   4.302  1.3411 -1.2618  1.4068
30247SOL     OW92993   9.555   0.077   0.756  0.0052  0.0279  0.4146
30247SOL    HW192994   9.478   0.123   0.723  1.4908 -0.2520 -4.2415
30247SOL    HW292995   9.622   0.144   0.763  0.8650 -0.5443 -1.6110
30248SOL     OW92996   4.342   1.509   0.812  0.3691 -0.0533  0.3093
30248SOL    HW192997   4.368   1.422   0.780  1.6220 -0.4221  2.1328
30248SOL    HW292998   4.326   1.496   0.906 -0.5429  1.4763  0.3992
30249SOL     OW92999   8.029   4.073  10.090  0.4128  0.0095  0.4173
30249SOL    HW193000   7.963   4.034  10.147 -1.5765 -0.7174 -2.2120
30249SOL    HW293001   8.029   4.166  10.112  1.1196 -0.4963  2.8524
30250SOL     OW93002   4.961   9.159   8.799 -0.0625  0.2348 -0.0822
30250SOL    HW193003   4.974   9.104   8.876  0.6414  2.1748  1.2809
30250SOL    HW293004   4.954   9.248   8.835  2.3526  1.4674 -2.3687
30251SOL     OW93005   0.114   3.672   5.378 -0.1278 -0.0269 -0.4740
30251SOL    HW193006   0.148   3.648   5.292 -0.4337 -0.3664 -0.5050
30251SOL    HW293007   0.155   3.756   5.398  3.1213 -1.7620  0.8350
30252SOL     OW93008   8.604   1.650   2.116 -0.5387 -0.2104  0.2937
30252SOL    HW193009   8.511   1.632   2.132 -1.0527  1.5298 -0.4053
30252SOL    HW293010   8.620   1.734   2.159  0.2866  0.2825 -0.9101
30253SOL     OW93011   0.021   2.952   0.408  0.5956  0.2512  0.0151
30253SOL    HW193012   0.082   2.881   0.387  1.7979  1.0576  0.6475
30253SOL    HW293013  -0.063   2.923   0.373  0.7937 -2.0010  1.2084
30254SOL     OW93014   4.239   7.020   3.597  0.4479  0.1038 -0.3160
30254SOL    HW193015   4.199   7.024   3.684 -0.3684 -0.0538 -0.6769
30254SOL    HW293016   4.301   7.093   3.596  0.6770 -0.0605  0.4954
30255SOL     OW93017   8.523   0.789   1.220  0.1397  0.3348 -0.1588
30255SOL    HW193018   8.617   0.797   1.204  0.1687  1.7136  0.5460
30255SOL    HW293019   8.486   0.763   1.136  1.0864  0.2710 -0.5687
30256SOL     OW93020   4.020   6.576   8.121 -0.4970  0.2929 -0.4847
30256SOL    HW193021   4.034   6.670   8.110 -2.4644  0.6857  0.0714
30256SOL    HW293022   4.071   6.554   8.200  1.2592  0.5234 -1.5024
30257SOL     OW93023   4.833   0.431   6.948  0.7696  0.4197  0.7043
30257SOL    HW193024   4.851   0.338   6.940  3.0712  0.4528  3.7189
30257SOL    HW293025   4.737   0.438   6.941  0.3875 -2.3665  1.8785
30258SOL     OW93026   0.773   0.054  10.043 -0.4269  0.2982  0.0401
30258SOL    HW193027   0.840  -0.014  10.034 -0.7681 -0.0553  0.1768
30258SOL    HW293028   0.823   0.135  10.056 -0.0281  0.0154  0.2733
30259SOL     OW93029   0.957   0.973   6.408 -0.4119 -0.6085  0.3601
30259SOL    HW193030   1.045   1.011   6.412 -1.7945  2.8556  1.8165
30259SOL    HW293031   0.934   0.955   6.499 -1.8661  0.3666  0.2213
30260SOL     OW93032   7.419   5.503   7.461 -0.1041 -0.5265  0.4927
30260SOL    HW193033   7.493   5.459   7.503  1.6869  0.8165 -1.1170
30260SOL    HW293034   7.406   5.455   7.379  1.8796  1.7700 -1.2881
30261SOL     OW93035   6.097   7.806   1.934  0.2740 -0.2617 -0.1635
30261SOL    HW193036   6.182   7.839   1.905  1.1099  0.5989  2.9187
30261SOL    HW293037   6.118   7.742   2.003 -1.5356  0.1747  0.8608
30262SOL     OW93038   7.833   8.552   0.796 -0.3212 -0.4968  0.4241
30262SOL    HW193039   7.804   8.496   0.724  0.9134 -0.6812  0.0524
30262SOL    HW293040   7.856   8.635   0.753  1.1680 -0.8610  0.4702
30263SOL     OW93041   8.000   0.173   3.402  0.5211  0.1581 -0.3522
30263SOL    HW193042   8.054   0.189   3.479 -0.4358  0.4008  0.2827
30263SOL    HW293043   7.926   0.233   3.412  0.4619  0.3098 -1.5448
30264SOL     OW93044   4.154   3.683   2.690  0.3567  0.5977  0.0845
30264SOL    HW193045   4.176   3.602   2.737  0.5802  0.0140 -0.9919
30264SOL    HW293046   4.072   3.663   2.645  0.2284  1.0943  0.0995
30265SOL     OW93047   3.143   7.052   7.360 -0.0177  0.1128  0.5404
30265SOL    HW193048   3.225   7.087   7.325  0.1136  1.0005  1.6796
30265SOL    HW293049   3.158   6.957   7.363 -0.1487 -0.0544 -1.9929
30266SOL     OW93050   4.150   8.111   5.010  0.0973  0.0881  0.3896
30266SOL    HW193051   4.109   8.148   5.088  0.0512 -1.1039  0.9544
30266SOL    HW293052   4.105   8.152   4.936 -1.7974 -0.8286  0.9891
30267SOL     OW93053  10.370   9.472   0.530 -0.0087  0.5599 -0.0095
30267SOL    HW193054  10.383   9.487   0.436 -0.3409  1.1614  0.0381
30267SOL    HW293055  10.365   9.376   0.539 -0.8874  0.5265 -0.7303
30268SOL     OW93056   7.222  10.256   3.789  0.4584  0.2805  0.1990
30268SOL    HW193057   7.146  10.204   3.815  0.3530  0.9389  1.2721
30268SOL    HW293058   7.280  10.194   3.744  0.1850 -0.6825  1.1332
30269SOL     OW93059   9.297   2.636   9.235 -0.5790 -0.2327 -0.4266
30269SOL    HW193060   9.287   2.731   9.237  1.4485  0.0308 -0.9230
30269SOL    HW293061   9.293   2.614   9.142  1.5039 -0.2659 -0.5572
30270SOL     OW93062   2.123   2.779   0.502 -0.1024  0.0341 -0.2515
30270SOL    HW193063   2.157   2.706   0.554 -0.8900  1.3522  2.2929
30270SOL    HW293064   2.134   2.855   0.558 -2.8027  1.2664 -1.2119
30271SOL     OW93065   6.791   6.740   3.557 -0.0157  0.1050  0.0711
30271SOL    HW193066   6.803   6.762   3.464 -1.2781 -0.6272 -0.2943
30271SOL    HW293067   6.763   6.648   3.556 -0.9005  0.3413  1.1089
30272SOL     OW93068   4.710   9.058   7.428 -0.1680 -0.0595  0.2508
30272SOL    HW193069   4.722   9.050   7.523 -0.8691  2.2079  0.5938
30272SOL    HW293070   4.630   9.009   7.410 -0.9213  0.7976  1.1287
30273SOL     OW93071   2.754  10.159   3.685 -0.1755  0.5188 -0.9281
30273SOL    HW193072   2.750  10.196   3.596 -0.3637  1.7467 -0.4268
30273SOL    HW293073   2.663  10.153   3.713 -0.1335 -0.1629 -0.9309
30274SOL     OW93074   3.339   0.938   7.986 -0.4782  0.8164  0.6251
30274SOL    HW193075   3.276   0.996   8.030 -0.1518  1.7429 -0.0823
30274SOL    HW293076   3.405   0.920   8.052 -0.2040  1.8695  0.6576
30275SOL     OW93077   9.876   8.535   1.379  0.3592 -0.3350  0.4304
30275SOL    HW193078   9.795   8.586   1.373  0.6999  0.2879  1.0286
30275SOL    HW293079   9.893   8.529   1.473  0.8316 -0.7575  0.3223
30276SOL     OW93080   6.231   4.421   3.412  0.0081 -0.4952 -0.9376
30276SOL    HW193081   6.298   4.429   3.480  0.6173 -1.2051 -1.4532
30276SOL    HW293082   6.214   4.512   3.385 -1.9701  0.0858  1.7810
30277SOL     OW93083   4.486  10.061   7.751  0.0463 -0.6098 -0.2670
30277SOL    HW193084   4.490  10.018   7.666 -0.3620  1.1338 -1.2180
30277SOL    HW293085   4.393  10.082   7.764  0.3628  1.0362 -0.4248
30278SOL     OW93086   7.709   7.975   5.395 -0.2016 -0.0574  0.2576
30278SOL    HW193087   7.738   7.886   5.416 -0.1932 -0.1802 -0.2619
30278SOL    HW293088   7.789   8.020   5.368 -0.5125 -0.4865 -1.4944
30279SOL     OW93089   2.247   4.845   1.317  0.2895 -0.2535 -0.1640
30279SOL    HW193090   2.247   4.768   1.374  0.5139 -0.1141  0.0263
30279SOL    HW293091   2.170   4.895   1.345  0.6987  0.0849  0.3946
30280SOL     OW93092   4.711   7.833  10.227 -0.0668  0.2048 -0.2613
30280SOL    HW193093   4.740   7.825  10.137  1.2069  1.9427 -0.0505
30280SOL    HW293094   4.615   7.833  10.222 -0.0131  0.2042 -1.5920
30281SOL     OW93095   0.514   0.165   1.031 -0.0865 -0.4517  0.3406
30281SOL    HW193096   0.483   0.164   1.122 -0.3711  0.2209  0.2587
30281SOL    HW293097   0.448   0.216   0.984  0.6064  0.1104 -0.0363
30282SOL     OW93098   4.336   7.959   2.330 -0.4748  0.0985  0.1202
30282SOL    HW193099   4.348   8.052   2.312 -0.4568  0.7827  3.1735
30282SOL    HW293100   4.408   7.916   2.284  1.3049  1.9255  1.0505
30283SOL     OW93101   4.646   2.866   0.542  0.1188 -0.3899 -0.0345
30283SOL    HW193102   4.699   2.927   0.491  2.8008 -2.8793 -0.5060
30283SOL    HW293103   4.628   2.794   0.482 -0.7106 -1.2648  1.2153
30284SOL     OW93104  10.508   8.487   8.882  0.3028  0.2078  0.2562
30284SOL    HW193105  10.471   8.498   8.795  0.8113 -1.7161 -0.2544
30284SOL    HW293106  10.538   8.574   8.907  0.5030  0.7261 -1.6549
30285SOL     OW93107   4.972   0.053   5.610 -0.1042 -0.6445  0.1430
30285SOL    HW193108   4.983   0.036   5.516 -1.1159 -4.8384  0.5983
30285SOL    HW293109   5.060   0.041   5.646  0.1687  0.3809 -0.1394
30286SOL     OW93110   6.995   5.535   1.545  1.0986  0.2830 -0.3374
30286SOL    HW193111   7.017   5.595   1.616  1.0555 -0.3921  0.2553
30286SOL    HW293112   7.015   5.584   1.465  0.8490  1.1674  0.1313
30287SOL     OW93113   7.926   9.657   8.001  0.0788 -0.0430 -0.1569
30287SOL    HW193114   7.930   9.583   8.062 -1.4032 -0.7852 -0.9105
30287SOL    HW293115   7.904   9.732   8.057 -0.7165 -0.6080  0.3206
30288SOL     OW93116   2.459   3.346   4.753  0.7737 -0.1507 -0.2573
30288SOL    HW193117   2.478   3.430   4.710 -0.2864 -0.5432 -1.5768
30288SOL    HW293118   2.544   3.313   4.781  1.1155  1.9362  1.4519
30289SOL     OW93119   2.881   3.461   2.206  0.4975 -0.1018 -0.0079
30289SOL    HW193120   2.802   3.515   2.212 -0.3487 -1.3150  0.0442
30289SOL    HW293121   2.909   3.448   2.296  1.8474  1.8135 -0.0767
30290SOL     OW93122   3.529   0.740   4.053  0.4719 -0.1747  0.3412
30290SOL    HW193123   3.531   0.706   3.963 -1.5267 -1.6480  0.7845
30290SOL    HW293124   3.621   0.758   4.073  0.9643  0.3278 -2.0197
30291SOL     OW93125   8.838   7.237   8.132 -0.8614 -0.0345 -0.5316
30291SOL    HW193126   8.793   7.305   8.082 -1.0384  0.0294 -0.2825
30291SOL    HW293127   8.771   7.200   8.189 -0.2475  1.0946  0.9558
30292SOL     OW93128   2.640   8.270   6.418  1.0250 -0.3175  0.1973
30292SOL    HW193129   2.560   8.270   6.471  1.8661  0.9907  1.5262
30292SOL    HW293130   2.627   8.341   6.355  1.5118  0.5476  1.0476
30293SOL     OW93131   3.960   0.992   8.679 -0.2765 -0.5868  0.6269
30293SOL    HW193132   4.001   1.066   8.635 -1.1617 -0.2835  0.2980
30293SOL    HW293133   3.990   0.915   8.631  0.5743 -0.4425  0.9143
30294SOL     OW93134   0.180   8.600   3.882  0.2338 -0.3569  0.0798
30294SOL    HW193135   0.203   8.595   3.974  0.7828 -1.6533 -0.1028
30294SOL    HW293136   0.158   8.510   3.857  1.4744 -0.2933 -1.3894
30295SOL     OW93137   2.772   1.158   8.413 -0.2428  0.1709  0.4715
30295SOL    HW193138   2.729   1.244   8.417 -0.6848 -0.0403  0.3885
30295SOL    HW293139   2.776   1.137   8.320 -2.8312 -1.1939  0.5733
30296SOL     OW93140  10.363   7.318   1.104 -0.1961 -0.1309  0.4158
30296SOL    HW193141  10.452   7.343   1.082 -0.4211 -0.3127 -0.7948
30296SOL    HW293142  10.361   7.223   1.091 -0.8723  0.0287 -0.8089
30297SOL     OW93143   5.099   3.224   7.251 -0.6587 -0.2379 -0.0663
30297SOL    HW193144   5.180   3.242   7.204 -1.5843 -0.2651 -1.7624
30297SOL    HW293145   5.040   3.189   7.184 -1.6836 -1.3861  1.3710
30298SOL     OW93146   2.320   9.544   9.526 -0.1712 -0.1413 -0.6773
30298SOL    HW193147   2.369   9.486   9.467  1.9149  1.4018 -0.5680
30298SOL    HW293148   2.355   9.525   9.613 -0.1750  0.5873 -0.5116
30299SOL     OW93149   3.458   2.467   0.242 -0.0057  0.1968 -0.0633
30299SOL    HW193150   3.420   2.385   0.212  1.5858 -0.5472 -0.1399
30299SOL    HW293151   3.440   2.470   0.335  2.8634 -2.0248  0.7190
30300SOL     OW93152   2.050   3.616   1.110  0.0746 -0.5013 -0.4367
30300SOL    HW193153   2.065   3.698   1.062  0.6750  0.0003  0.5773
30300SOL    HW293154   2.056   3.548   1.044  3.2381 -0.0476 -0.7524
30301SOL     OW93155  10.634   3.937   8.799  0.1706  0.1255 -0.1313
30301SOL    HW193156  10.662   4.022   8.765 -0.0301  0.6943  1.0633
30301SOL    HW293157  10.702   3.876   8.770  0.6315  0.7966 -0.5074
30302SOL     OW93158   7.719  10.487   3.164 -0.7009  0.2530  0.3851
30302SOL    HW193159   7.754  10.532   3.241  0.2523 -0.3967  0.3309
30302SOL    HW293160   7.664  10.417   3.200 -2.3579  1.5325  0.4732
30303SOL     OW93161   6.181   1.659   1.433 -0.2935  0.4372 -0.0842
30303SOL    HW193162   6.145   1.571   1.443  0.5937  0.1178  0.3992
30303SOL    HW293163   6.146   1.708   1.508  0.3121  0.1106  0.4205
30304SOL     OW93164   8.499   5.905   5.302 -0.1703 -1.2431  0.4411
30304SOL    HW193165   8.412   5.937   5.278 -0.1538  0.7587  2.5628
30304SOL    HW293166   8.482   5.832   5.362 -0.4243 -0.8817  0.8204
30305SOL     OW93167   4.714   0.099   9.151 -0.1504  0.5406  1.0535
30305SOL    HW193168   4.718   0.090   9.246  0.7083 -0.0593  0.9821
30305SOL    HW293169   4.804   0.122   9.126 -0.1049 -0.3907  0.2991
30306SOL     OW93170   9.130   4.611   7.564 -0.2213  0.8233  0.4674
30306SOL    HW193171   9.173   4.604   7.479  0.4722 -1.1974  0.9405
30306SOL    HW293172   9.037   4.602   7.545 -0.1162  0.9071 -0.1137
30307SOL     OW93173   8.414   3.075   6.737  0.5641 -0.7077 -0.1937
30307SOL    HW193174   8.476   3.147   6.748 -0.4332  0.1512 -0.0272
30307SOL    HW293175   8.465   3.005   6.696  1.4437  0.2639 -0.7977
30308SOL     OW93176   2.309   9.085   9.112 -0.4433 -0.1474 -0.5162
30308SOL    HW193177   2.309   9.169   9.066 -1.0356 -0.2652 -0.7314
30308SOL    HW293178   2.276   9.105   9.200  0.6413  0.0681 -0.1352
30309SOL     OW93179   4.882   0.153   3.731  0.0556  0.1768 -0.2461
30309SOL    HW193180   4.913   0.064   3.748 -0.8227 -0.1769 -0.4506
30309SOL    HW293181   4.881   0.159   3.635 -1.3799 -0.1435 -0.2683
30310SOL     OW93182   8.879   1.347   0.400 -0.2391  0.7387 -0.1631
30310SOL    HW193183   8.939   1.381   0.333  1.6690 -1.1495  0.4622
30310SOL    HW293184   8.925   1.271   0.437 -3.6883 -1.8940 -0.7377
30311SOL     OW93185   6.335   9.561   2.032 -0.7025  0.2070  0.0291
30311SOL    HW193186   6.287   9.639   2.004 -0.4733  0.3172 -0.0699
30311SOL    HW293187   6.334   9.504   1.956 -0.9790  0.0596  0.1435
30312SOL     OW93188   3.444  10.347   4.131 -0.6172  0.1124  0.0320
30312SOL    HW193189   3.437  10.251   4.136 -2.2818  0.1857 -0.3540
30312SOL    HW293190   3.538  10.364   4.124 -0.2532 -1.4622  0.6733
30313SOL     OW93191   7.302   8.520   8.222 -0.2073 -0.3415 -0.0361
30313SOL    HW193192   7.224   8.565   8.254 -1.1955 -1.7502 -0.3561
30313SOL    HW293193   7.304   8.539   8.128  0.9398  1.2553  0.2863
30314SOL     OW93194   4.530   1.577   8.747 -0.3506  0.7285  0.0063
30314SOL    HW193195   4.542   1.484   8.767 -0.3971  0.4979 -0.9839
30314SOL    HW293196   4.435   1.587   8.738 -0.6389  1.5106  2.9707
30315SOL     OW93197   6.474   8.497   7.261  0.6298  0.3088  0.1834
30315SOL    HW193198   6.396   8.528   7.214  0.6478  0.0170 -0.0462
30315SOL    HW293199   6.477   8.403   7.241  0.4882  0.1295  0.9922
30316SOL     OW93200   1.372   2.191  10.583 -0.4037 -0.1015  0.6652
30316SOL    HW193201   1.339   2.278  10.603  1.0937  0.4225  1.0569
30316SOL    HW293202   1.295   2.135  10.580 -1.4119  1.2748  0.1680
30317SOL     OW93203   9.234   0.261   9.811 -0.0580 -0.0905 -0.1916
30317SOL    HW193204   9.140   0.279   9.814 -0.1180 -0.2755 -0.7678
30317SOL    HW293205   9.272   0.319   9.877 -0.5941 -0.1372  0.1621
30318SOL     OW93206   8.100   6.088   1.700  0.3984 -0.5344 -0.3066
30318SOL    HW193207   8.046   6.117   1.626 -0.4784 -0.3399  0.3927
30318SOL    HW293208   8.039   6.085   1.774  1.6763  1.2512  0.8791
30319SOL     OW93209   5.094   8.547   1.762  0.3825  0.8936 -0.4633
30319SOL    HW193210   5.129   8.484   1.825 -0.1599  0.6060 -0.4421
30319SOL    HW293211   5.102   8.504   1.677  1.3099  1.3670 -0.6315
30320SOL     OW93212   2.030   8.385   5.528 -0.3785 -0.1274  0.2331
30320SOL    HW193213   2.089   8.377   5.603 -0.3226 -0.3424  0.1682
30320SOL    HW293214   2.043   8.303   5.479  0.6844  0.6266 -0.8140
30321SOL     OW93215   9.144   9.080  10.111 -0.0603 -0.2702  0.2273
30321SOL    HW193216   9.177   9.169  10.097  0.8968 -0.3175  1.8734
30321SOL    HW293217   9.049   9.089  10.113  0.0051  0.6125 -0.2570
30322SOL     OW93218   6.517   2.530   3.522 -0.1571  0.5065  0.1738
30322SOL    HW193219   6.550   2.439   3.523  1.9340  1.0081 -3.2815
30322SOL    HW293220   6.578   2.578   3.577  0.8762  0.2928 -0.7365
30323SOL     OW93221   2.339   3.491   9.392  0.0084  0.0235 -0.0850
30323SOL    HW193222   2.333   3.467   9.484 -0.9881 -0.2564 -0.2076
30323SOL    HW293223   2.339   3.408   9.345 -0.0915  0.1791 -0.3649
30324SOL     OW93224  10.526   7.681  10.112 -0.0349 -0.2160  0.3734
30324SOL    HW193225  10.613   7.715  10.088 -1.4262  3.4990  0.0214
30324SOL    HW293226  10.492   7.644  10.030 -0.1816  1.7483 -0.5074
30325SOL     OW93227   8.340  10.554   9.052 -0.1534 -0.3219 -0.2241
30325SOL    HW193228   8.261  10.552   8.998 -1.1341  0.5801  1.1242
30325SOL    HW293229   8.314  10.514   9.135  1.4609 -2.1427 -0.4963
30326SOL     OW93230   2.539   5.814   4.729  0.2219 -0.0184 -0.4554
30326SOL    HW193231   2.570   5.724   4.743  1.9232  0.7506  1.2038
30326SOL    HW293232   2.445   5.811   4.749  0.7768 -0.9244  2.5488
30327SOL     OW93233   5.582   6.373   4.348  0.2481 -0.2706  0.0345
30327SOL    HW193234   5.575   6.466   4.325  0.3671  0.0744  1.3462
30327SOL    HW293235   5.621   6.333   4.270 -0.3467  0.6680 -0.7768
30328SOL     OW93236   7.061   5.306  10.147 -0.0352  0.0023 -0.3575
30328SOL    HW193237   7.042   5.380  10.205 -1.4252  0.3576 -1.2125
30328SOL    HW293238   7.141   5.267  10.183  0.6606  1.8304  0.2020
30329SOL     OW93239   9.329   2.486   7.916 -0.0583  0.1972 -0.1138
30329SOL    HW193240   9.334   2.467   8.009  0.2338  0.6858 -0.0264
30329SOL    HW293241   9.352   2.403   7.873 -3.1749 -0.9538  0.1866
30330SOL     OW93242   0.755   3.896   4.630 -0.6632  0.5661  0.2076
30330SOL    HW193243   0.734   3.870   4.540 -2.0305  1.1924  0.3166
30330SOL    HW293244   0.672   3.927   4.666 -0.2384 -0.0573  1.8390
30331SOL     OW93245   0.800   4.473   7.175 -0.4197  0.3907  0.1534
30331SOL    HW193246   0.721   4.513   7.211 -0.4110 -0.2919  0.9559
30331SOL    HW293247   0.801   4.384   7.211  2.0002  1.1246  2.2258
30332SOL     OW93248   6.814  10.101   8.970  0.7215  0.0533  0.3877
30332SOL    HW193249   6.855  10.025   8.930  1.8066  0.7628  0.0998
30332SOL    HW293250   6.884  10.142   9.021 -0.6447 -0.9245  3.2591
30333SOL     OW93251   6.027   8.125   8.384 -0.1208  0.3558  0.0963
30333SOL    HW193252   6.097   8.069   8.351 -0.7387 -0.8745  0.7804
30333SOL    HW293253   5.951   8.103   8.330 -0.7120 -0.4804  1.2250
30334SOL     OW93254   0.944   1.689   2.664  0.0099  0.0866  0.2362
30334SOL    HW193255   0.936   1.652   2.576  0.0261 -3.6027  1.5973
30334SOL    HW293256   0.854   1.713   2.688 -0.1419  0.2134 -0.4394
30335SOL     OW93257   9.968  10.030   4.921 -0.7345  0.1238 -0.1808
30335SOL    HW193258  10.012  10.028   4.836 -1.0718 -1.2120 -0.3412
30335SOL    HW293259   9.937   9.941   4.934 -1.1550  0.4421  1.1092
30336SOL     OW93260   3.103   5.872   8.828 -0.9325  0.5164 -0.0083
30336SOL    HW193261   3.078   5.814   8.899  0.3448 -2.2926 -1.6840
30336SOL    HW293262   3.183   5.915   8.860 -1.1663  0.3888  0.7778
30337SOL     OW93263   2.405   6.544   4.538 -0.6158 -0.7897  0.5709
30337SOL    HW193264   2.454   6.563   4.617 -0.9688  1.4357  0.3014
30337SOL    HW293265   2.423   6.451   4.520  3.6156 -0.1238  0.3957
30338SOL     OW93266   4.273   7.975   7.962 -0.1683 -0.2827  0.0615
30338SOL    HW193267   4.197   7.960   7.906  0.1790  1.0578 -0.7942
30338SOL    HW293268   4.342   7.919   7.926 -0.4741 -0.8156  0.2922
30339SOL     OW93269   8.642   7.155   8.295 -1.1851  0.0388 -0.4748
30339SOL    HW193270   8.568   7.096   8.284 -1.9933  0.9448 -0.0232
30339SOL    HW293271   8.609   7.241   8.268 -0.2456  0.4253 -0.4521
30340SOL     OW93272  10.582   5.542   8.632 -0.4106  0.1498  0.0447
30340SOL    HW193273  10.572   5.629   8.594 -0.0782  0.9086  1.6378
30340SOL    HW293274  10.526   5.542   8.709  1.7758  0.0148  1.7491
30341SOL     OW93275   0.661   9.450   4.834 -0.4767 -0.4016  0.2995
30341SOL    HW193276   0.681   9.541   4.855  0.1464 -0.3964 -0.2666
30341SOL    HW293277   0.671   9.444   4.738  1.7485 -1.5662  0.5393
30342SOL     OW93278   6.746   7.035   1.474 -0.3524  0.4350  0.5237
30342SOL    HW193279   6.657   7.052   1.506 -0.2164  0.9310  0.6428
30342SOL    HW293280   6.733   7.007   1.383 -0.9015 -2.8969  1.5126
30343SOL     OW93281   1.143   4.180   7.891  0.5820  0.1383 -0.4135
30343SOL    HW193282   1.175   4.117   7.955 -0.7193 -0.0640  0.0600
30343SOL    HW293283   1.072   4.226   7.935  1.5568  2.0348 -0.7148
30344SOL     OW93284   3.549  10.517   9.501 -0.5839 -0.4233 -0.4126
30344SOL    HW193285   3.492  10.472   9.438 -0.1242 -1.2468 -0.2523
30344SOL    HW293286   3.636  10.510   9.463 -0.2690 -1.1374  0.4260
30345SOL     OW93287   7.692   7.701   4.432 -0.6445 -0.3123  0.5130
30345SOL    HW193288   7.714   7.681   4.523 -0.1976 -0.6590  0.3329
30345SOL    HW293289   7.648   7.786   4.436  0.7534  0.4308  0.8926
30346SOL     OW93290   1.697   3.668   4.199  0.2290  0.0787 -0.2767
30346SOL    HW193291   1.612   3.699   4.230  0.6933  1.5807 -0.4237
30346SOL    HW293292   1.693   3.677   4.104 -0.2349 -1.9993 -0.4907
30347SOL     OW93293   3.991  10.394   2.194  0.1133  0.3219  0.5928
30347SOL    HW193294   3.901  10.388   2.163 -0.0139  0.1740  0.9902
30347SOL    HW293295   3.986  10.446   2.274  0.0548 -1.5771  1.8846
30348SOL     OW93296   4.820   6.074   5.844 -0.3666 -0.3428  0.0539
30348SOL    HW193297   4.876   6.136   5.890 -1.2047 -0.6698  1.5950
30348SOL    HW293298   4.768   6.127   5.784  0.7188  0.1008 -0.5146
30349SOL     OW93299   5.338   4.978   8.881 -0.1270 -0.0806  0.1825
30349SOL    HW193300   5.309   4.915   8.947  0.4831 -0.5528 -0.0007
30349SOL    HW293301   5.357   4.925   8.804  2.7306 -0.0281  0.7342
30350SOL     OW93302   6.909   1.817   6.628 -0.0353  0.7497  0.2777
30350SOL    HW193303   6.817   1.829   6.651 -0.5581 -1.3928 -0.5078
30350SOL    HW293304   6.921   1.723   6.621  1.7499  1.0321 -1.5264
30351SOL     OW93305   8.606   8.042   0.971 -0.2280 -0.0454  0.4827
30351SOL    HW193306   8.697   8.070   0.975  0.4572 -1.7060 -1.5739
30351SOL    HW293307   8.568   8.072   1.053  2.5957 -0.7313  2.1687
30352SOL     OW93308   9.677   7.121   2.538 -0.2438 -0.0771 -0.0414
30352SOL    HW193309   9.697   7.157   2.624  0.4028  0.9875 -0.6194
30352SOL    HW293310   9.606   7.176   2.504  0.6978  0.6473 -0.9010
30353SOL     OW93311   3.564   8.551   8.914  0.5858  0.2522 -0.1320
30353SOL    HW193312   3.550   8.457   8.905  0.9941 -0.1095  2.2343
30353SOL    HW293313   3.515   8.591   8.842 -0.7628 -1.6856 -0.3409
30354SOL     OW93314   9.226   8.135   6.399  0.5664 -0.0626 -0.2519
30354SOL    HW193315   9.255   8.046   6.381  1.4007  0.3214 -0.8583
30354SOL    HW293316   9.229   8.142   6.495  1.9364 -0.2346 -0.2632
30355SOL     OW93317   3.243   9.102   4.613 -0.2962  0.2470 -0.7389
30355SOL    HW193318   3.170   9.051   4.648  0.9492 -0.1764  1.3778
30355SOL    HW293319   3.278   9.048   4.542 -0.3858 -0.7994 -0.0078
30356SOL     OW93320   1.206   3.111   4.919  0.0475  0.3697 -0.3956
30356SOL    HW193321   1.236   3.049   4.851 -1.2635  0.8890 -1.5035
30356SOL    HW293322   1.134   3.066   4.962  0.3321  0.3805  0.0996
30357SOL     OW93323   2.374   8.087   1.639 -0.4427  0.4390  0.0961
30357SOL    HW193324   2.454   8.055   1.680 -0.4170  0.0670 -0.2363
30357SOL    HW293325   2.386   8.182   1.634  0.6477  0.2556 -1.3335
30358SOL     OW93326   5.509   2.386   6.338  0.4532 -0.9794 -0.0146
30358SOL    HW193327   5.547   2.469   6.367 -1.0084 -0.8153  1.6302
30358SOL    HW293328   5.559   2.361   6.261  0.7974  1.5321 -0.6626
30359SOL     OW93329   8.679   2.582   3.088 -0.0677 -0.0696 -0.1483
30359SOL    HW193330   8.607   2.614   3.143  0.2566 -0.2543  0.3821
30359SOL    HW293331   8.635   2.542   3.012 -0.5248 -0.2584  0.2125
30360SOL     OW93332   5.758   6.721   7.896 -0.4166  0.0040 -0.1853
30360SOL    HW193333   5.839   6.673   7.882 -0.0522  0.7724 -0.8046
30360SOL    HW293334   5.690   6.653   7.902  0.1367 -0.5951 -0.6259
30361SOL     OW93335   0.336   0.085   1.958  0.6053 -0.0693  0.0662
30361SOL    HW193336   0.383   0.074   2.040 -0.5311 -2.0886  0.5031
30361SOL    HW293337   0.249   0.049   1.975 -1.2176  3.5620 -0.6943
30362SOL     OW93338   0.645   7.444   9.597 -0.0860 -0.2019  0.1804
30362SOL    HW193339   0.701   7.452   9.520 -0.9236 -0.9049 -0.5376
30362SOL    HW293340   0.698   7.397   9.661  0.5056  0.0925 -0.0833
30363SOL     OW93341   6.509   8.325   7.658  0.3285 -0.5980 -0.1941
30363SOL    HW193342   6.417   8.329   7.681  0.1919 -0.9943 -0.6584
30363SOL    HW293343   6.555   8.330   7.742 -0.1035 -0.2015  0.0224
30364SOL     OW93344  10.173   3.704   7.926  0.1647  0.0720  0.1142
30364SOL    HW193345  10.082   3.691   7.953 -0.2764  1.7469 -0.4316
30364SOL    HW293346  10.195   3.625   7.877 -0.9793 -0.3873  0.3155
30365SOL     OW93347   9.674   8.513   2.509  0.0974  0.3304 -0.0572
30365SOL    HW193348   9.709   8.437   2.555 -2.1282  0.4399  1.9843
30365SOL    HW293349   9.707   8.588   2.559 -0.1890  0.5755 -0.2355
30366SOL     OW93350   3.616  10.343   3.713  0.5961 -0.0627  0.5480
30366SOL    HW193351   3.550  10.397   3.756  1.5759  0.0534  1.9681
30366SOL    HW293352   3.570  10.303   3.639 -0.4317  1.8234  0.1166
30367SOL     OW93353   0.693   1.392   3.398  0.1409  0.0200 -0.3817
30367SOL    HW193354   0.688   1.447   3.320 -1.1607  0.7252  0.1508
30367SOL    HW293355   0.701   1.455   3.470  1.0725 -0.6092  0.0687
30368SOL     OW93356   9.335   2.413   0.928  0.8412  0.0900  0.0613
30368SOL    HW193357   9.314   2.333   0.978 -0.3923  1.2505  1.4877
30368SOL    HW293358   9.412   2.449   0.972  0.2345  0.6858  0.6649
30369SOL     OW93359   4.338   5.695   1.401 -0.0147  0.0011 -0.0816
30369SOL    HW193360   4.263   5.641   1.424  0.2963  0.2288  1.5887
30369SOL    HW293361   4.308   5.745   1.325 -1.0604 -0.9124 -0.3029
30370SOL     OW93362   6.272   1.207   2.629 -0.3177  0.5923  0.5188
30370SOL    HW193363   6.363   1.199   2.600 -0.1648  1.7403  0.6637
30370SOL    HW293364   6.277   1.262   2.707 -1.0067 -0.3903  1.2916
30371SOL     OW93365   6.777   2.770  10.020 -0.2268 -0.5195 -0.6925
30371SOL    HW193366   6.744   2.852  10.057 -1.7057 -0.6318 -1.6771
30371SOL    HW293367   6.842   2.798   9.956  1.7908 -0.2958  1.3485
30372SOL     OW93368   9.937   7.146   7.015 -0.1910  0.8871 -0.5396
30372SOL    HW193369   9.939   7.107   7.103  2.2314  1.3976 -0.3196
30372SOL    HW293370   9.870   7.214   7.021 -2.4195 -1.2043 -0.1006
30373SOL     OW93371   1.932   4.364   1.698  0.8161 -0.2374  0.4952
30373SOL    HW193372   1.929   4.406   1.612 -0.5956 -0.7890  0.2458
30373SOL    HW293373   1.962   4.432   1.757  0.4932  0.5399 -0.2220
30374SOL     OW93374   7.239  10.304   5.837 -0.7215 -0.4305 -0.0107
30374SOL    HW193375   7.317  10.286   5.784 -0.5618 -2.9685  0.9257
30374SOL    HW293376   7.179  10.232   5.816 -2.0733  0.4545  0.6601
30375SOL     OW93377   4.917   7.297   9.384 -0.4486  0.5923  0.2699
30375SOL    HW193378   4.917   7.214   9.336 -0.4249 -0.3671  1.8691
30375SOL    HW293379   4.882   7.361   9.321  0.4286 -0.4165 -1.3032
30376SOL     OW93380   9.217   8.173   9.479 -0.2850  0.4319  0.2739
30376SOL    HW193381   9.202   8.184   9.385 -1.5499 -1.4684  0.2141
30376SOL    HW293382   9.182   8.253   9.518  1.4019  1.8396 -0.9197
30377SOL     OW93383   1.150   5.016   3.324  0.1472  0.0993  0.0935
30377SOL    HW193384   1.205   5.042   3.398  1.4750 -0.4731 -0.6658
30377SOL    HW293385   1.132   4.924   3.339  0.2926  0.0210 -0.2198
30378SOL     OW93386   0.175   6.743   7.775  0.3802 -0.1777  0.3371
30378SOL    HW193387   0.095   6.781   7.812 -1.0599 -2.7067  0.0151
30378SOL    HW293388   0.160   6.742   7.681  1.9275  1.6226  0.0035
30379SOL     OW93389   4.847   7.932   8.145  0.9101 -0.4590 -0.3749
30379SOL    HW193390   4.938   7.904   8.153  0.7057 -1.3914 -1.0969
30379SOL    HW293391   4.838   8.004   8.206  1.5523 -1.7999  1.3826
30380SOL     OW93392   8.265   2.750   3.017  0.4648  0.1321  0.3350
30380SOL    HW193393   8.235   2.674   2.968 -0.2921  0.2847  0.5476
30380SOL    HW293394   8.249   2.824   2.958  3.1384 -0.0302 -0.7371
30381SOL     OW93395   4.982   5.631   3.251  0.2509 -0.4317  0.6575
30381SOL    HW193396   5.053   5.689   3.279 -0.9715  0.9875  0.9690
30381SOL    HW293397   5.009   5.600   3.164  0.8498  0.7902  0.3886
30382SOL     OW93398   7.980   0.415   1.978 -0.5163  0.4916 -0.3867
30382SOL    HW193399   7.951   0.324   1.988  1.0670 -0.0908 -0.8217
30382SOL    HW293400   7.958   0.437   1.888 -2.1455  1.0250  0.1192
30383SOL     OW93401   2.226  10.514   1.388  0.0285 -0.2400  0.0471
30383SOL    HW193402   2.202  10.604   1.369  0.4053  0.0116  0.7485
30383SOL    HW293403   2.304  10.498   1.334 -0.6561 -0.5060 -0.9018
30384SOL     OW93404   8.327   1.538   2.089 -0.3229 -0.1543 -0.2561
30384SOL    HW193405   8.279   1.460   2.062  0.9197 -0.3747 -1.9216
30384SOL    HW293406   8.323   1.596   2.013  2.8274 -0.5782 -0.8875
30385SOL     OW93407   4.291   9.142   5.236  0.5839  0.9012 -0.1910
30385SOL    HW193408   4.336   9.177   5.313  0.9389 -0.4353  0.2432
30385SOL    HW293409   4.328   9.054   5.225 -0.6261  0.4631 -0.9242
30386SOL     OW93410   8.292   5.519   3.379  0.3062 -0.0914 -0.2516
30386SOL    HW193411   8.206   5.511   3.419  0.6235 -1.6591  0.1578
30386SOL    HW293412   8.334   5.434   3.393  1.2901  0.0674 -1.9150
30387SOL     OW93413   8.419   1.082   0.176 -0.0285 -0.1602 -0.3929
30387SOL    HW193414   8.423   1.006   0.235  0.0521  1.3613  1.6401
30387SOL    HW293415   8.393   1.044   0.092 -1.3771 -2.2739  0.8604
30388SOL     OW93416   5.653   3.191   3.905 -0.2029 -0.2873 -0.0613
30388SOL    HW193417   5.621   3.255   3.968  0.1254  0.4049 -0.5839
30388SOL    HW293418   5.707   3.131   3.956  0.4630  0.5497  0.2400
30389SOL     OW93419   8.606   0.871   7.390  0.5313 -0.1892 -0.4001
30389SOL    HW193420   8.690   0.865   7.435  1.7026  3.3353 -1.7622
30389SOL    HW293421   8.623   0.835   7.302  0.1672 -0.7928 -0.2323
30390SOL     OW93422   0.623   3.597   6.613 -0.0968 -0.3041 -0.5080
30390SOL    HW193423   0.579   3.681   6.626  0.6496  0.0158 -0.0281
30390SOL    HW293424   0.696   3.597   6.674 -0.2357 -1.4213 -0.3122
30391SOL     OW93425   1.008   3.154   8.112 -1.2166 -0.1956 -0.5833
30391SOL    HW193426   1.022   3.072   8.160  0.4358 -0.0657 -0.7642
30391SOL    HW293427   1.080   3.158   8.049 -1.9883  0.7964 -1.4426
30392SOL     OW93428   6.621   1.354   0.758  0.0839 -0.1445  0.2042
30392SOL    HW193429   6.692   1.392   0.707 -0.2922 -1.0938 -1.0527
30392SOL    HW293430   6.664   1.290   0.815  0.2127 -1.0001 -0.8309
30393SOL     OW93431   2.801   0.251   0.353 -0.0838 -0.0329  0.0428
30393SOL    HW193432   2.879   0.289   0.312  0.0848  0.8814  1.1330
30393SOL    HW293433   2.830   0.227   0.441 -0.7645 -0.7159  0.0919
30394SOL     OW93434   6.982   4.765   2.601  0.0512 -0.2372  0.0606
30394SOL    HW193435   6.911   4.822   2.572  0.1228 -0.3077 -0.2617
30394SOL    HW293436   6.941   4.703   2.660  0.0228  0.3214  0.6353
30395SOL     OW93437   2.650   6.271   7.242  0.3214  0.0784  0.0771
30395SOL    HW193438   2.745   6.258   7.249  0.3830  0.3383 -0.2659
30395SOL    HW293439   2.620   6.197   7.190  0.6796  1.2728 -1.9228
30396SOL     OW93440  10.132   2.418   5.754  0.2700 -0.6021  0.2415
30396SOL    HW193441  10.163   2.448   5.668 -0.8354  1.2504  0.4301
30396SOL    HW293442  10.040   2.396   5.739 -0.6544  2.0508  1.3657
30397SOL     OW93443   3.882   3.767   8.499 -0.1877 -0.0314 -0.3375
30397SOL    HW193444   3.858   3.859   8.504 -0.9386 -0.2439  0.2367
30397SOL    HW293445   3.870   3.735   8.588 -1.6898 -1.0910 -0.8772
30398SOL     OW93446   9.922   3.490   9.787  0.0025 -0.1815  0.0952
30398SOL    HW193447   9.961   3.537   9.861 -0.0793 -0.8296  0.5588
30398SOL    HW293448   9.980   3.509   9.713  0.9192 -0.7184  0.6637
30399SOL     OW93449   1.519   3.423   8.755 -0.6448  0.3029  0.3899
30399SOL    HW193450   1.572   3.465   8.823 -0.2958  1.0047 -0.3038
30399SOL    HW293451   1.533   3.477   8.677 -3.4008  1.2861  0.4723
30400SOL     OW93452   3.154   0.499   2.205  0.2712  0.5381 -0.0960
30400SOL    HW193453   3.228   0.450   2.169 -0.1078  0.2145 -0.4292
30400SOL    HW293454   3.141   0.462   2.292 -0.7925 -0.8077 -0.7941
30401SOL     OW93455   1.236  10.458  10.513  0.2836 -0.2421 -0.3861
30401SOL    HW193456   1.254  10.390  10.448 -0.6857 -1.2424  0.3484
30401SOL    HW293457   1.308  10.451  10.576 -0.3702 -1.3636  0.2755
30402SOL     OW93458   4.683   7.832   7.313  0.4178  0.0733  0.7987
30402SOL    HW193459   4.625   7.764   7.280  1.3481 -0.0890 -0.6014
30402SOL    HW293460   4.726   7.793   7.389  1.2861 -1.1046 -0.2599
30403SOL     OW93461   6.617  10.644   2.367 -0.2408  0.2808  0.3419
30403SOL    HW193462   6.676  10.570   2.378 -0.2786  0.3401  0.9986
30403SOL    HW293463   6.616  10.661   2.273  0.2232 -0.1786  0.2527
30404SOL     OW93464  10.057  10.508   6.506  0.0937 -0.3284  0.4376
30404SOL    HW193465  10.086  10.419   6.528 -0.7734 -0.7419 -0.0370
30404SOL    HW293466  10.135  10.551   6.471  0.2538 -1.2746 -0.4097
30405SOL     OW93467   2.928   7.529   6.451  0.3957  0.1896 -0.1769
30405SOL    HW193468   2.882   7.446   6.462 -1.3570  0.9288 -1.4030
30405SOL    HW293469   2.928   7.544   6.357  1.2134  1.2993 -0.0229
30406SOL     OW93470   6.147   2.863   4.258 -0.0352 -0.4440  0.4822
30406SOL    HW193471   6.193   2.944   4.237  0.2388 -0.9024 -0.8144
30406SOL    HW293472   6.095   2.844   4.180  1.3200 -2.4682 -0.0337
30407SOL     OW93473   1.693   0.246   9.687  0.6934  0.2797  0.6267
30407SOL    HW193474   1.754   0.230   9.615 -1.4895  0.2668 -1.3540
30407SOL    HW293475   1.676   0.159   9.724  0.7870  0.0996  0.2532
30408SOL     OW93476   9.675   2.760   2.276  0.4453  0.3933 -0.0558
30408SOL    HW193477   9.738   2.700   2.317 -1.2994 -0.4907  1.4548
30408SOL    HW293478   9.658   2.721   2.191 -0.0453 -0.8450  0.5862
30409SOL     OW93479   1.576   8.319   2.750 -0.0155  0.7077 -0.9092
30409SOL    HW193480   1.542   8.230   2.761 -0.5018  1.0765  0.7599
30409SOL    HW293481   1.497   8.374   2.746  0.2889  1.3951  1.3812
30410SOL     OW93482   9.958   2.114   8.829 -0.1400  0.4132  0.2228
30410SOL    HW193483   9.899   2.040   8.850 -1.5606  2.0481  2.5739
30410SOL    HW293484  10.032   2.074   8.785 -1.5674 -2.2068 -0.0160
30411SOL     OW93485   5.920   0.952   7.225  0.2167  0.0831 -0.4434
30411SOL    HW193486   5.959   0.979   7.143  0.4419  1.1059 -0.0158
30411SOL    HW293487   5.837   1.000   7.229  0.4796  0.5117  0.1839
30412SOL     OW93488   1.070   1.349   8.831  0.1143  0.5149 -0.4264
30412SOL    HW193489   1.075   1.429   8.779 -0.6153  0.8001 -0.0835
30412SOL    HW293490   1.002   1.368   8.896 -1.3384 -0.9733 -1.4134
30413SOL     OW93491   9.156   3.585   6.643  0.1285  0.0929 -0.7509
30413SOL    HW193492   9.236   3.614   6.688 -0.9072 -0.2030  1.4229
30413SOL    HW293493   9.187   3.545   6.562  2.1479  0.4325 -0.2018
30414SOL     OW93494  10.634   3.904   3.899 -0.1403 -0.0252  0.7578
30414SOL    HW193495  10.576   3.873   3.969 -3.2169  0.9960 -1.1640
30414SOL    HW293496  10.637   3.999   3.911  0.7362 -0.0105  0.4783
30415SOL     OW93497   5.559   2.078   8.433 -0.0150 -0.2987 -0.0752
30415SOL    HW193498   5.543   2.115   8.347 -1.1871  0.0369  0.2656
30415SOL    HW293499   5.484   2.020   8.449 -0.0841  0.0332  0.9159
30416SOL     OW93500   5.841   8.225   2.125 -0.6771 -0.3192  0.1426
30416SOL    HW193501   5.840   8.207   2.031  0.3105  0.2884  0.0006
30416SOL    HW293502   5.826   8.139   2.165  1.0487 -1.0181 -0.5647
30417SOL     OW93503   6.098   3.691   7.476  0.6372  0.4363  0.1942
30417SOL    HW193504   6.165   3.723   7.416 -1.5683  1.3296 -1.9793
30417SOL    HW293505   6.050   3.625   7.426 -0.5302  0.2959  1.4348
30418SOL     OW93506   6.478   2.004   9.046 -0.1150 -0.3176  0.0354
30418SOL    HW193507   6.566   1.970   9.060  0.4515  1.3302  0.7802
30418SOL    HW293508   6.452   2.040   9.131 -0.3914  1.5820 -0.7955
30419SOL     OW93509   9.920  10.110   5.529 -0.5590 -0.2373 -0.0052
30419SOL    HW193510   9.884  10.191   5.493  1.8856  0.4290 -1.1748
30419SOL    HW293511   9.964  10.068   5.455 -1.5598 -2.5706  0.6197
30420SOL     OW93512   0.627   1.905   0.882 -0.8951  0.0182 -0.0270
30420SOL    HW193513   0.670   1.827   0.847  0.4642  0.7242  0.0014
30420SOL    HW293514   0.546   1.872   0.922 -0.3670 -1.3620 -0.0419
30421SOL     OW93515   7.822   0.865   5.477  0.2966 -0.8439  0.2473
30421SOL    HW193516   7.728   0.853   5.487  0.1743 -0.2096 -0.0936
30421SOL    HW293517   7.838   0.956   5.504  0.5723 -0.4344 -1.2047
30422SOL     OW93518   2.928   9.610  10.587  0.2533  0.3507  0.2901
30422SOL    HW193519   2.902   9.693  10.547  1.9036  1.5377  1.5433
30422SOL    HW293520   2.947   9.632  10.678 -1.8146 -1.9518  1.3900
30423SOL     OW93521   2.250   5.099   4.051 -0.3102 -0.1376  0.2999
30423SOL    HW193522   2.243   5.162   3.980  0.4592  0.1120  0.4303
30423SOL    HW293523   2.325   5.044   4.027 -1.6789 -1.7700 -0.3908
30424SOL     OW93524   1.717   6.452   2.299  0.1883 -0.1110 -0.6024
30424SOL    HW193525   1.752   6.487   2.217  2.9252  1.9090  1.2731
30424SOL    HW293526   1.793   6.439   2.355 -1.6693 -0.1733  2.1130
30425SOL     OW93527   0.926   0.467   1.251  0.6797  0.4528  0.2110
30425SOL    HW193528   0.982   0.499   1.322 -1.0058  0.2610  1.7052
30425SOL    HW293529   0.924   0.372   1.264 -1.9577  0.6351  1.8195
30426SOL     OW93530   1.504   6.857   6.049 -0.2575  0.0440  0.0746
30426SOL    HW193531   1.584   6.806   6.061  0.7201  1.5746  0.3932
30426SOL    HW293532   1.446   6.801   5.998  1.2052 -0.9131 -0.5835
30427SOL     OW93533   0.167   3.880   4.842 -0.3817  0.1536  0.0462
30427SOL    HW193534   0.093   3.855   4.898 -0.8999 -2.4619 -1.6172
30427SOL    HW293535   0.243   3.837   4.882 -0.1754  0.9355  0.4946
30428SOL     OW93536   7.543   9.663   8.691 -0.1805 -1.0781  0.0745
30428SOL    HW193537   7.529   9.722   8.617 -2.4201  0.8064  1.8425
30428SOL    HW293538   7.566   9.579   8.651  1.3146  0.4794 -2.6098
30429SOL     OW93539   0.220   1.744   4.867 -0.1229 -0.3330 -0.3198
30429SOL    HW193540   0.289   1.709   4.810  0.6174 -0.2935  0.5341
30429SOL    HW293541   0.260   1.747   4.954 -1.6101 -1.5477  0.4663
30430SOL     OW93542   6.356   0.554  10.294 -0.0967  0.9897 -0.0052
30430SOL    HW193543   6.432   0.508  10.330  1.1584  2.2763 -0.9364
30430SOL    HW293544   6.363   0.542  10.200 -1.9767 -0.2343 -0.0398
30431SOL     OW93545   5.953   7.517   2.877 -0.2986  0.0920  0.1273
30431SOL    HW193546   5.975   7.474   2.960  0.8062 -1.7385 -1.0395
30431SOL    HW293547   5.968   7.450   2.811 -0.7608  1.6285 -1.6154
30432SOL     OW93548  10.553   0.927   7.730 -0.3363  0.2503 -0.5868
30432SOL    HW193549  10.504   0.868   7.788 -2.0184  0.9724 -1.2189
30432SOL    HW293550  10.643   0.895   7.735 -0.8302 -1.0777  0.6928
30433SOL     OW93551   4.637   8.023   4.469 -0.0800 -0.0517 -0.1080
30433SOL    HW193552   4.678   7.941   4.496 -0.0382 -0.0382 -0.1304
30433SOL    HW293553   4.641   8.079   4.546  0.0298 -0.0170 -0.1384
30434SOL     OW93554   4.508   8.138   4.740  0.0721  0.7642  1.0281
30434SOL    HW193555   4.437   8.090   4.698  0.9802  0.0949  0.2020
30434SOL    HW293556   4.489   8.133   4.834 -1.2292  1.0513  0.8037
30435SOL     OW93557   2.451   9.309   8.480 -0.5316  0.8250 -0.1030
30435SOL    HW193558   2.483   9.261   8.403 -0.7871 -0.0538  0.3354
30435SOL    HW293559   2.455   9.246   8.552 -0.4637  1.5886  0.5791
30436SOL     OW93560   8.441   0.809   6.336  0.5068  0.1682 -0.0166
30436SOL    HW193561   8.407   0.750   6.403  0.8065 -0.4159 -0.3706
30436SOL    HW293562   8.423   0.765   6.253  1.3750  0.2276 -0.2502
30437SOL     OW93563   7.861   7.345   5.560 -0.0895 -0.2547 -0.1638
30437SOL    HW193564   7.894   7.307   5.641  0.5478  0.4745 -0.0583
30437SOL    HW293565   7.845   7.437   5.582 -1.8062 -0.4703 -0.3389
30438SOL     OW93566   0.182   8.969   0.914  0.4035  0.0514  0.1829
30438SOL    HW193567   0.259   8.935   0.958  0.5963 -0.1889 -0.3419
30438SOL    HW293568   0.215   9.012   0.835 -0.0097 -0.1722 -0.1182
30439SOL     OW93569   4.769   6.777   1.904 -0.4013  0.2985 -0.1232
30439SOL    HW193570   4.757   6.830   1.983 -0.6152 -0.9340  0.6933
30439SOL    HW293571   4.864   6.769   1.894 -0.3634  1.0102 -0.3861
30440SOL     OW93572  10.255   2.786   7.477 -0.5652 -0.4303 -0.1886
30440SOL    HW193573  10.336   2.838   7.474  0.2905 -1.6780  0.4226
30440SOL    HW293574  10.283   2.697   7.456 -1.1762 -1.5025  3.0081
30441SOL     OW93575   2.890   4.764   7.225  0.5538  0.1566  0.2840
30441SOL    HW193576   2.962   4.733   7.280  2.5018  0.6983 -1.8138
30441SOL    HW293577   2.883   4.857   7.245  0.3315  0.0821  0.5675
30442SOL     OW93578   2.080   3.764   6.217 -0.1558  0.0953  0.0964
30442SOL    HW193579   2.081   3.857   6.238  0.4719 -0.3409  2.2066
30442SOL    HW293580   2.171   3.742   6.199 -0.0345 -0.4061  1.2081
30443SOL     OW93581   1.582   2.368   9.888  0.4664  0.0193  0.5096
30443SOL    HW193582   1.532   2.425   9.946 -1.8563 -1.0166 -0.3824
30443SOL    HW293583   1.634   2.313   9.947  0.7433  1.2370  1.4454
30444SOL     OW93584   6.511   4.025   6.535 -0.3077  0.3045 -0.0653
30444SOL    HW193585   6.589   4.072   6.566  0.2284 -2.1888  2.9045
30444SOL    HW293586   6.524   4.016   6.441  1.2330  2.9451 -0.1993
30445SOL     OW93587   1.041   5.423   4.151  0.2338 -0.3566  0.3145
30445SOL    HW193588   1.106   5.362   4.187  0.5908 -0.5782 -0.6804
30445SOL    HW293589   1.016   5.478   4.226  0.7335 -0.9939  0.9668
30446SOL     OW93590   0.874   5.398   3.940  0.1713  0.9283  0.1671
30446SOL    HW193591   0.922   5.426   3.862  2.5889 -1.4414  0.6350
30446SOL    HW293592   0.925   5.432   4.013 -0.4662  0.7170  0.7176
30447SOL     OW93593   6.162   5.738   8.386 -0.4263 -0.1808 -0.1119
30447SOL    HW193594   6.078   5.774   8.413 -1.4630 -1.9131 -0.8273
30447SOL    HW293595   6.182   5.672   8.452 -0.0256 -0.3417 -0.3914
30448SOL     OW93596   1.730   7.167  10.134  0.4766  0.1436  0.1479
30448SOL    HW193597   1.657   7.229  10.130  1.2876  1.1820  0.7490
30448SOL    HW293598   1.758   7.169  10.225 -0.8326 -2.7927  0.7164
30449SOL     OW93599   9.546   2.268   0.057  0.1517 -0.3265  0.2090
30449SOL    HW193600   9.587   2.330   0.117 -1.5774 -0.4540  1.6006
30449SOL    HW293601   9.475   2.317   0.016  2.2729  0.2696 -3.1174
30450SOL     OW93602   7.461   9.584   8.933  0.2298 -0.3989 -0.3697
30450SOL    HW193603   7.492   9.625   8.852  1.0733  0.3067  0.2857
30450SOL    HW293604   7.411   9.508   8.904  1.7835 -1.0414 -1.5214
30451SOL     OW93605   0.250  10.232   6.260 -0.1501  0.2170  0.2908
30451SOL    HW193606   0.288  10.304   6.310  2.2228 -0.9769  0.3453
30451SOL    HW293607   0.268  10.154   6.313 -0.0684 -0.7475 -1.0910
30452SOL     OW93608   4.352   2.183   8.459  0.5123 -0.3290  0.1028
30452SOL    HW193609   4.320   2.100   8.497  0.4059  0.3773  1.6391
30452SOL    HW293610   4.340   2.172   8.365  1.5196 -2.4938  0.1615
30453SOL     OW93611   2.877  10.465   2.994  0.5472 -0.1863  0.5966
30453SOL    HW193612   2.882  10.413   2.914 -0.1480 -0.1393  0.5193
30453SOL    HW293613   2.872  10.556   2.964  0.9028 -0.1244  0.7142
30454SOL     OW93614   4.066   6.949   9.461 -0.0371 -0.2604 -0.0749
30454SOL    HW193615   4.012   6.912   9.391 -1.8250  0.9090  0.6004
30454SOL    HW293616   4.031   7.038   9.474  2.7206  0.9487 -0.2394
30455SOL     OW93617   1.757   1.317   2.638  0.3408 -0.1610  0.0570
30455SOL    HW193618   1.823   1.248   2.636  1.0033  0.4724 -0.7503
30455SOL    HW293619   1.754   1.351   2.549 -0.9223 -0.0136  0.1296
30456SOL     OW93620   0.222   6.470   5.351  0.1165 -0.5542 -0.0302
30456SOL    HW193621   0.298   6.467   5.409 -1.1712 -3.9808  1.7631
30456SOL    HW293622   0.156   6.518   5.401 -0.2194 -1.3681  0.3260
30457SOL     OW93623   7.354   4.080   1.835  0.0037 -0.1505  0.0521
30457SOL    HW193624   7.315   3.997   1.860 -1.3433 -0.1443 -1.7971
30457SOL    HW293625   7.442   4.079   1.874 -1.0795 -1.0506  2.6461
30458SOL     OW93626   7.783   7.704   8.904  0.0272  0.4042  0.0581
30458SOL    HW193627   7.787   7.677   8.996 -0.2531 -1.6495 -0.4684
30458SOL    HW293628   7.875   7.709   8.877  0.1000 -0.1161  0.1827
30459SOL     OW93629   1.706   8.912  10.025 -0.5253  0.1550  0.1496
30459SOL    HW193630   1.789   8.886   9.985  1.5612  4.3792  1.1838
30459SOL    HW293631   1.698   8.855  10.101 -0.0047 -2.0469 -1.3514
30460SOL     OW93632   7.681   2.550  10.255 -0.4163 -0.2345 -0.1539
30460SOL    HW193633   7.653   2.528  10.344  0.9128 -1.0859  0.0860
30460SOL    HW293634   7.677   2.645  10.251  2.8003  0.1461  2.0424
30461SOL     OW93635   4.245   8.249   5.418  0.0791  0.1802 -0.1283
30461SOL    HW193636   4.266   8.157   5.400 -0.3391  0.2630 -1.1399
30461SOL    HW293637   4.198   8.247   5.501  0.6868 -0.4347  0.2150
30462SOL     OW93638   8.740   0.299   1.825 -0.0172  0.1280 -0.4855
30462SOL    HW193639   8.694   0.244   1.762  0.4403  0.8040 -1.4220
30462SOL    HW293640   8.672   0.328   1.886 -0.6959  0.4686 -1.3921
30463SOL     OW93641   2.139   0.028   9.523  0.1769  0.2382  0.1560
30463SOL    HW193642   2.071   0.006   9.587  0.0563  2.7517  0.9833
30463SOL    HW293643   2.130  -0.039   9.455 -1.0069 -1.3459  1.7780
30464SOL     OW93644   1.039   0.788   1.682 -0.0233  0.6640 -0.1440
30464SOL    HW193645   1.022   0.794   1.588  0.6108  0.8366 -0.2512
30464SOL    HW293646   1.011   0.873   1.716 -1.3785  0.1738  0.0147
30465SOL     OW93647   4.251   5.437   6.735 -0.1758  0.1457 -0.0273
30465SOL    HW193648   4.272   5.456   6.644 -0.7495 -0.5359 -0.3092
30465SOL    HW293649   4.173   5.382   6.731 -1.8947  2.3300  0.9659
30466SOL     OW93650  10.588   5.767   6.319  0.0838  0.4231  1.0571
30466SOL    HW193651  10.636   5.771   6.236  0.1856 -1.7339  0.9508
30466SOL    HW293652  10.502   5.804   6.299  0.5394  1.1033  0.3303
30467SOL     OW93653   2.207   5.669   3.532 -0.1997 -0.5558  0.1927
30467SOL    HW193654   2.236   5.734   3.468 -0.1307 -1.4691 -0.7204
30467SOL    HW293655   2.150   5.718   3.591  2.1047  1.0155  1.2834
30468SOL     OW93656   0.084   8.316   4.876 -0.5199 -0.5527 -0.0213
30468SOL    HW193657   0.008   8.358   4.835  1.4804  1.2763 -2.1267
30468SOL    HW293658   0.074   8.334   4.969 -3.5140 -1.9274  0.0447
30469SOL     OW93659   5.960   2.918   9.996  0.0391 -0.5384 -0.1245
30469SOL    HW193660   6.053   2.924   9.973 -0.1792 -0.6383 -1.0661
30469SOL    HW293661   5.914   2.945   9.917 -0.7349  0.2029  0.5608
30470SOL     OW93662   8.959   1.457   1.125 -0.1242 -0.2391 -0.0939
30470SOL    HW193663   8.896   1.438   1.055 -2.0406 -0.9814  1.7145
30470SOL    HW293664   8.904   1.485   1.199  1.7606 -0.1174  1.3265
30471SOL     OW93665   5.970   8.059   3.558 -0.1744 -0.3304  0.0321
30471SOL    HW193666   5.963   8.032   3.466 -2.6868 -1.0884  0.3858
30471SOL    HW293667   6.056   8.027   3.585  0.5262 -0.3136 -1.9648
30472SOL     OW93668   7.091   2.491   1.864 -0.6043 -0.3455 -0.0880
30472SOL    HW193669   7.126   2.579   1.867 -0.0647 -0.5334 -0.7222
30472SOL    HW293670   7.133   2.445   1.937 -0.1779 -0.3351 -0.3287
30473SOL     OW93671   6.061  10.221   3.679  0.8224 -0.0667  0.1964
30473SOL    HW193672   5.973  10.194   3.706  0.5475  2.0616  1.6576
30473SOL    HW293673   6.116  10.202   3.755  0.8895  1.9630  0.7038
30474SOL     OW93674   1.446   6.549   6.219 -0.1759 -0.2772 -0.1551
30474SOL    HW193675   1.369   6.562   6.164  0.7384  1.3392 -1.1447
30474SOL    HW293676   1.428   6.600   6.298  0.6056  1.7067 -1.1901
30475SOL     OW93677   0.665   2.836   6.808  0.3261 -0.1502 -0.1637
30475SOL    HW193678   0.697   2.796   6.889  0.4351 -0.0519 -0.1569
30475SOL    HW293679   0.670   2.930   6.824  0.6569 -0.1253 -0.4029
30476SOL     OW93680   9.011   5.670   5.957  0.2931 -0.4115  0.5888
30476SOL    HW193681   9.017   5.721   5.876  1.5562 -0.2514  0.7578
30476SOL    HW293682   8.977   5.731   6.022 -0.0677 -0.3451  0.3393
30477SOL     OW93683   6.722   0.400   9.953  0.0580  0.0127  0.2317
30477SOL    HW193684   6.800   0.411  10.008  0.5263  2.6149 -0.8273
30477SOL    HW293685   6.754   0.403   9.863 -1.2051  1.0620 -0.2312
30478SOL     OW93686   1.402   8.024   7.967 -0.1413  0.9285  0.4163
30478SOL    HW193687   1.429   7.965   8.038 -0.6607  1.3032  0.9412
30478SOL    HW293688   1.477   8.027   7.908  0.0743  0.1202  0.6267
30479SOL     OW93689   2.406   4.797  10.203  0.6760  0.0839  0.5243
30479SOL    HW193690   2.432   4.707  10.219  0.4466  0.0539  0.7254
30479SOL    HW293691   2.488   4.843  10.184  0.6812 -0.3964 -0.6987
30480SOL     OW93692   2.227   7.943   1.274  0.7410 -0.5195 -0.2208
30480SOL    HW193693   2.155   7.915   1.217  1.0781  0.2004 -1.0210
30480SOL    HW293694   2.305   7.907   1.233  0.9194 -0.5527  0.1515
30481SOL     OW93695   5.493   8.090   6.041 -0.2165  0.2548  0.4064
30481SOL    HW193696   5.492   8.178   6.004  0.5123 -0.4834 -1.5220
30481SOL    HW293697   5.578   8.083   6.084  1.0132 -0.4121 -1.9764
30482SOL     OW93698   6.425   6.759   9.159 -0.0349 -0.2649  0.2860
30482SOL    HW193699   6.382   6.776   9.075 -0.8671  1.0599  0.9453
30482SOL    HW293700   6.475   6.838   9.178  1.4914 -1.1770  0.2928
30483SOL     OW93701   2.715   7.268   4.759  0.4569  0.0571  0.1439
30483SOL    HW193702   2.731   7.177   4.784 -0.0968  0.0956  0.6318
30483SOL    HW293703   2.670   7.262   4.675  0.3178 -0.1196  0.2312
30484SOL     OW93704   4.390   1.733   2.125 -0.1962  0.1448 -0.4275
30484SOL    HW193705   4.438   1.681   2.061  1.1753  0.7821  0.0389
30484SOL    HW293706   4.406   1.689   2.209  1.6796  1.6793  0.1063
30485SOL     OW93707   4.324   4.427   8.577 -0.2087  0.3146  0.1613
30485SOL    HW193708   4.240   4.404   8.618  0.3353 -0.4035  0.9105
30485SOL    HW293709   4.300   4.466   8.493 -1.2965  0.2251  0.4155
30486SOL     OW93710   0.928   2.456   0.491  0.7488  0.5774  0.3884
30486SOL    HW193711   0.862   2.389   0.472 -0.2153  1.6217 -0.0580
30486SOL    HW293712   0.895   2.501   0.568  3.0835 -1.5741  2.8674
30487SOL     OW93713   8.496   8.933   5.553 -0.1992 -0.0703  0.3856
30487SOL    HW193714   8.545   8.951   5.473  0.9816 -0.1365  1.0852
30487SOL    HW293715   8.496   9.016   5.601 -1.7227  0.2410 -0.0826
30488SOL     OW93716   9.038   5.843   8.156  0.4209  0.5382  0.0809
30488SOL    HW193717   9.061   5.907   8.088  3.3149  1.3869  1.6541
30488SOL    HW293718   9.054   5.889   8.239 -1.8732 -0.8094  1.3807
30489SOL     OW93719   3.763   8.406   7.677  1.0828 -0.2088  0.0511
30489SOL    HW193720   3.753   8.381   7.769  0.2602  0.6379  0.2111
30489SOL    HW293721   3.832   8.473   7.678  0.0592  0.8734  0.2752
30490SOL     OW93722   8.924   2.311   7.108 -0.0987 -0.2813  0.7723
30490SOL    HW193723   8.873   2.243   7.065  0.0543  0.3123 -0.3744
30490SOL    HW293724   8.864   2.348   7.174 -0.7784 -0.3330  0.1867
30491SOL     OW93725   1.400   1.174   9.199  0.0167 -0.4404 -0.2888
30491SOL    HW193726   1.393   1.251   9.143  0.2879  0.1582  0.4864
30491SOL    HW293727   1.337   1.112   9.162 -0.4354  0.2643 -0.7307
30492SOL     OW93728   1.739  10.257   9.958  0.0328  0.0148  0.0324
30492SOL    HW193729   1.673  10.196   9.924 -0.2057 -0.1838  0.8262
30492SOL    HW293730   1.820  10.233   9.913 -0.3271 -0.0778 -0.5742
30493SOL     OW93731   3.396  10.137   8.306 -0.1079 -0.4265  0.4586
30493SOL    HW193732   3.357  10.203   8.364 -0.6322  0.6524 -1.0530
30493SOL    HW293733   3.354  10.153   8.221 -0.7123 -3.1342  0.1687
30494SOL     OW93734   6.971   4.883   3.016  0.7177  0.2987  0.1038
30494SOL    HW193735   6.942   4.968   3.049  1.7134  1.1636 -1.1436
30494SOL    HW293736   6.896   4.851   2.965  0.1145  0.1315  1.0813
30495SOL     OW93737   0.908   3.580   9.259  0.0143  0.7138  0.1795
30495SOL    HW193738   0.836   3.625   9.215  0.7891  0.1533 -1.7938
30495SOL    HW293739   0.947   3.648   9.315 -0.7277  1.6222 -0.3639
30496SOL     OW93740   3.470   0.678   2.840 -1.2980 -0.2134  0.1885
30496SOL    HW193741   3.532   0.611   2.871 -0.8622  0.9930  2.1146
30496SOL    HW293742   3.522   0.758   2.835 -2.1924  0.3424 -0.4514
30497SOL     OW93743   8.037   2.758   0.985 -0.6248  0.7118  0.5937
30497SOL    HW193744   8.131   2.775   0.993 -0.6169  0.1986  1.8939
30497SOL    HW293745   8.025   2.670   1.019 -1.7909  1.4184  2.1800
30498SOL     OW93746   1.437   8.054   0.911  0.3597  0.0733 -0.2159
30498SOL    HW193747   1.510   8.056   0.850 -0.4980  0.7663 -1.2580
30498SOL    HW293748   1.461   8.114   0.981  1.3485 -0.7187  0.1502
30499SOL     OW93749   1.010   2.749   1.235  0.0269 -0.0290 -0.5643
30499SOL    HW193750   1.102   2.723   1.236  0.3997  1.2430 -0.7894
30499SOL    HW293751   0.999   2.802   1.314 -0.8501 -1.2405  0.1647
30500SOL     OW93752   8.331   2.264   4.755  0.3149  0.4282 -0.1149
30500SOL    HW193753   8.403   2.289   4.813 -0.5913 -1.2709  1.8902
30500SOL    HW293754   8.324   2.336   4.693  1.8245  2.0301  1.4562
30501SOL     OW93755   4.938   2.674   5.296  0.6991  0.2946  0.0536
30501SOL    HW193756   5.026   2.705   5.279  1.2734  0.0243  2.1998
30501SOL    HW293757   4.946   2.579   5.301 -0.1846  0.0624 -1.9434
30502SOL     OW93758   6.908   8.952   4.513  0.2013 -0.0467  0.0054
30502SOL    HW193759   6.909   9.018   4.443  1.4002 -2.0876 -2.0323
30502SOL    HW293760   6.972   8.984   4.577 -1.7184  2.4261  0.8599
30503SOL     OW93761   1.944   4.006   3.021  0.1490 -0.2816  0.3559
30503SOL    HW193762   1.905   3.918   3.022  1.3396 -0.8273  1.6456
30503SOL    HW293763   1.900   4.052   3.093 -0.1037  0.0261  0.0090
30504SOL     OW93764   0.955   6.336   0.826  0.4611 -0.4370 -0.0169
30504SOL    HW193765   0.902   6.257   0.830 -0.9601  0.4427 -0.6725
30504SOL    HW293766   0.984   6.341   0.735  1.1750 -0.5980  0.1998
30505SOL     OW93767   2.565   4.732   4.824  0.2766  0.6335 -0.1886
30505SOL    HW193768   2.580   4.820   4.857 -1.0701  0.2864  1.4905
30505SOL    HW293769   2.491   4.741   4.764  1.3897  0.9232 -1.5709
30506SOL     OW93770   0.124   3.785   2.732  0.4700 -0.1411  0.2929
30506SOL    HW193771   0.118   3.789   2.637  1.2236  0.2602  0.2548
30506SOL    HW293772   0.079   3.863   2.763  0.2365 -0.2649  0.2676
30507SOL     OW93773   8.645   1.585   4.810  0.0903 -0.0693 -0.2532
30507SOL    HW193774   8.555   1.585   4.778 -0.9606 -0.6231  2.4873
30507SOL    HW293775   8.669   1.678   4.812 -1.7109  0.4381  2.1713
30508SOL     OW93776   8.437   3.397   1.539  0.0446 -0.1644  0.0964
30508SOL    HW193777   8.357   3.355   1.507  0.2410 -0.2041 -0.3516
30508SOL    HW293778   8.406   3.473   1.589 -0.2412  0.5394 -1.1193
30509SOL     OW93779   0.087  10.238   3.357  0.3108 -0.0317  0.1700
30509SOL    HW193780   0.172  10.280   3.353 -0.3299  1.2944  0.1491
30509SOL    HW293781   0.096  10.173   3.428  1.5841 -0.5390 -0.4338
30510SOL     OW93782   4.294   6.400   4.187 -0.2748 -0.0532 -0.2446
30510SOL    HW193783   4.260   6.450   4.113 -2.2545 -0.1993  0.4923
30510SOL    HW293784   4.339   6.465   4.242  0.2738  0.2441 -1.0387
30511SOL     OW93785   6.957   4.447   4.787  0.7776  0.4177 -0.0167
30511SOL    HW193786   7.035   4.482   4.745  0.5054  0.3302 -0.6064
30511SOL    HW293787   6.941   4.363   4.743 -1.0320  1.5140 -1.6524
30512SOL     OW93788   8.882   6.945   6.733 -0.1416  0.1571 -0.3227
30512SOL    HW193789   8.946   6.874   6.739 -1.2152 -0.8427 -0.3153
30512SOL    HW293790   8.801   6.908   6.769 -1.0577  0.9931 -1.4270
30513SOL     OW93791   9.993   1.369   8.618  0.1631  0.7595  0.0655
30513SOL    HW193792   9.960   1.337   8.534  1.1339 -1.1097  0.3595
30513SOL    HW293793  10.087   1.381   8.604  0.3639  0.2818  0.9083
30514SOL     OW93794   4.191   1.057   2.345 -0.3908 -0.2744  0.0069
30514SOL    HW193795   4.205   1.070   2.251 -0.6818 -0.7162 -0.1029
30514SOL    HW293796   4.180   1.145   2.380 -1.7407 -0.1710 -0.6142
30515SOL     OW93797   6.708   1.244   4.352  0.2864 -0.1724 -0.0819
30515SOL    HW193798   6.789   1.295   4.352 -0.0229  0.4224  2.3278
30515SOL    HW293799   6.732   1.160   4.314  1.6541  0.5287 -0.8241
30516SOL     OW93800   5.902   1.128   2.367 -1.1372 -0.7815  0.3151
30516SOL    HW193801   5.966   1.102   2.433  0.4683  1.2943 -0.3012
30516SOL    HW293802   5.918   1.222   2.355 -1.9138 -0.9318 -2.4358
30517SOL     OW93803   6.777   9.487   5.136 -0.4668  0.0507 -0.1567
30517SOL    HW193804   6.750   9.579   5.134 -1.3101 -0.1184  1.3632
30517SOL    HW293805   6.719   9.443   5.074 -1.9731  0.1311  1.1354
30518SOL     OW93806   0.973  10.446   3.264  0.1038  0.0257 -0.5493
30518SOL    HW193807   0.878  10.446   3.267  0.1112 -0.8889  0.9136
30518SOL    HW293808   1.000  10.419   3.352  1.6816 -2.0574 -1.5714
30519SOL     OW93809   3.137   7.789  10.541 -0.7440  0.2232 -0.8942
30519SOL    HW193810   3.147   7.699  10.573 -0.2731  0.6874  0.3602
30519SOL    HW293811   3.044   7.799  10.523 -0.9232 -0.2918 -0.2864
30520SOL     OW93812   1.814   2.255   5.668  0.3896  0.5080  0.4899
30520SOL    HW193813   1.802   2.165   5.698  0.1673  0.1454 -0.6450
30520SOL    HW293814   1.903   2.257   5.634 -0.0187  0.3449 -0.6542
30521SOL     OW93815   5.361   9.440   7.236 -0.1088 -0.2828 -0.3775
30521SOL    HW193816   5.456   9.454   7.233 -0.3721  2.3523  0.9095
30521SOL    HW293817   5.328   9.480   7.155 -0.1087 -2.0686 -1.3176
30522SOL     OW93818   0.920   3.182   6.958 -0.2120  0.7173 -0.1827
30522SOL    HW193819   0.893   3.252   7.017  1.8853  2.1061 -0.7436
30522SOL    HW293820   0.964   3.118   7.014 -0.1383  0.9760  0.0560
30523SOL     OW93821   4.437   0.830   6.526  0.2494  0.3124 -0.2542
30523SOL    HW193822   4.395   0.905   6.486  0.1449 -0.2160 -1.1558
30523SOL    HW293823   4.381   0.756   6.503  1.8684 -0.4768 -1.8627
30524SOL     OW93824   9.705   3.841   8.640  0.4018 -0.3903 -0.2111
30524SOL    HW193825   9.770   3.776   8.668 -1.0426 -1.8534 -0.0606
30524SOL    HW293826   9.668   3.803   8.560 -0.0369  0.5702 -0.4665
30525SOL     OW93827   6.738   1.908   5.481 -0.7864  0.0231 -0.3268
30525SOL    HW193828   6.729   1.814   5.497 -2.6298  0.4342  1.3727
30525SOL    HW293829   6.803   1.937   5.545  1.1956 -0.3295 -2.0742
30526SOL     OW93830  10.192   9.124  10.514 -0.3240  0.1879  0.2610
30526SOL    HW193831  10.110   9.075  10.524 -0.9264  1.0679 -0.2248
30526SOL    HW293832  10.165   9.216  10.513  0.7072  0.5035  0.3974
30527SOL     OW93833   7.342   8.196   7.483  0.6024 -0.1583 -0.1937
30527SOL    HW193834   7.280   8.225   7.416  0.0778  1.0982  0.8010
30527SOL    HW293835   7.299   8.215   7.566  1.1104 -1.9742  0.5397
30528SOL     OW93836   0.569   1.531   7.033  0.2183  0.0754 -0.4063
30528SOL    HW193837   0.486   1.551   6.991  0.8729  0.8176 -1.4003
30528SOL    HW293838   0.606   1.460   6.980  0.5818  0.3016 -0.4597
30529SOL     OW93839   6.594   7.341   5.627 -0.8209  0.3800 -0.9444
30529SOL    HW193840   6.637   7.285   5.691  1.6317  1.7634 -1.2786
30529SOL    HW293841   6.597   7.292   5.545  2.4309  1.3579 -1.5258
30530SOL     OW93842   3.321   6.966   8.914 -0.0800 -0.9174 -0.4337
30530SOL    HW193843   3.326   7.060   8.931  3.6143 -0.8239 -1.3554
30530SOL    HW293844   3.334   6.926   9.000  0.9751 -0.5595 -0.4183
30531SOL     OW93845  10.406   0.266  10.546  0.4141  0.3664  0.0847
30531SOL    HW193846  10.408   0.214  10.466 -2.1043  0.1636  0.0891
30531SOL    HW293847  10.445   0.350  10.521  0.7932 -0.1191 -1.0169
30532SOL     OW93848  10.178   2.515   6.095 -0.4531  0.1743  0.4671
30532SOL    HW193849  10.184   2.473   6.181 -1.0928  1.9547  1.4252
30532SOL    HW293850  10.267   2.544   6.076 -0.4112  0.2376  0.7640
30533SOL     OW93851   1.662   1.276   7.394  0.3956 -0.0633 -0.3917
30533SOL    HW193852   1.597   1.344   7.375 -0.6338 -0.8361  0.2379
30533SOL    HW293853   1.611   1.204   7.430  1.6956 -0.4342  0.7908
30534SOL     OW93854   5.256   8.560   0.678  0.0655  0.1480 -0.1090
30534SOL    HW193855   5.351   8.573   0.673  0.0936 -0.3320 -1.5310
30534SOL    HW293856   5.232   8.532   0.589 -1.1796 -1.1848  0.6054
30535SOL     OW93857   7.221   8.301   1.727 -0.3939 -0.3071 -0.0641
30535SOL    HW193858   7.297   8.294   1.784 -0.3013  0.1878 -0.1194
30535SOL    HW293859   7.179   8.383   1.753 -1.2375 -0.8627  0.3628
30536SOL     OW93860   7.650   2.588   4.726  0.0994 -0.4154 -0.3540
30536SOL    HW193861   7.620   2.554   4.810 -0.0944 -0.3768 -0.4060
30536SOL    HW293862   7.730   2.636   4.747 -0.3637  0.2468 -0.0682
30537SOL     OW93863   4.454   1.053   9.775  0.5299 -0.2827  0.0612
30537SOL    HW193864   4.434   1.106   9.697  3.8571  0.4716 -0.4211
30537SOL    HW293865   4.406   1.096   9.846  0.3519  1.2534 -0.9467
30538SOL     OW93866   3.699   4.103   1.242 -0.3259 -0.4192  0.4816
30538SOL    HW193867   3.693   4.194   1.270  0.3077 -0.5190  0.9443
30538SOL    HW293868   3.740   4.058   1.315  2.0364 -0.5563 -0.8170
30539SOL     OW93869   1.981   5.406   4.190  0.0977 -0.0070  0.2404
30539SOL    HW193870   2.074   5.426   4.187 -0.3410  2.8081  1.6605
30539SOL    HW293871   1.976   5.312   4.205  2.5888 -0.7566 -2.7067
30540SOL     OW93872   9.805   7.988   1.970 -0.3470  0.4168  0.6936
30540SOL    HW193873   9.822   7.929   1.897  0.5601  0.6194  0.7333
30540SOL    HW293874   9.855   8.067   1.949 -1.9199  1.3721  0.3991
30541SOL     OW93875   2.521   7.253   7.647 -0.0925 -0.6621 -0.1586
30541SOL    HW193876   2.471   7.266   7.728  0.7709  0.8365  0.1738
30541SOL    HW293877   2.456   7.224   7.583 -1.6042  1.8679  0.0648
30542SOL     OW93878   6.372   9.925   3.671 -1.0199  0.1015 -0.4126
30542SOL    HW193879   6.458   9.900   3.636 -0.8310  0.4905 -0.2327
30542SOL    HW293880   6.345   9.851   3.724 -0.4748  0.2655  0.1006
30543SOL     OW93881   9.710   1.426   3.406 -0.1355  0.1936  0.2085
30543SOL    HW193882   9.636   1.464   3.359  0.1334 -0.6792 -0.9967
30543SOL    HW293883   9.679   1.415   3.495 -0.4298  2.5901  0.4686
30544SOL     OW93884   6.888   2.198   0.390 -0.6787  0.4812  0.2372
30544SOL    HW193885   6.818   2.247   0.433  0.3630 -0.2595  2.9648
30544SOL    HW293886   6.892   2.115   0.437  1.8631  0.4109  0.0369
30545SOL     OW93887   8.341   9.763   0.986  0.0388 -0.4652 -0.4422
30545SOL    HW193888   8.395   9.757   1.065  0.5357 -2.3488 -0.8808
30545SOL    HW293889   8.402   9.786   0.916  0.0784 -1.3884 -0.7230
30546SOL     OW93890   0.316   0.197   7.262 -0.0723 -0.4337  0.0653
30546SOL    HW193891   0.361   0.193   7.347 -1.5610 -0.5701  0.8665
30546SOL    HW293892   0.372   0.255   7.209  0.6110  0.0825  1.3035
30547SOL     OW93893   0.025   8.942   2.705 -0.0673 -0.3299  0.0041
30547SOL    HW193894  -0.065   8.944   2.673  0.1211 -0.6905 -0.5419
30547SOL    HW293895   0.070   9.009   2.654  0.5804 -1.8887 -1.5499
30548SOL     OW93896   0.772   7.399   7.684 -0.5362  0.1942  0.4409
30548SOL    HW193897   0.789   7.490   7.708 -1.7037  0.4112  0.5254
30548SOL    HW293898   0.679   7.398   7.659  0.0114 -0.4765 -1.8651
30549SOL     OW93899   7.531   9.045   7.056  0.3112  0.0503 -0.1096
30549SOL    HW193900   7.437   9.034   7.040 -0.4096  1.7684  2.3576
30549SOL    HW293901   7.536   9.115   7.121  3.4453  1.3602 -1.5748
30550SOL     OW93902   8.317   1.468   7.154  0.0900 -0.1651  0.2058
30550SOL    HW193903   8.279   1.420   7.080 -1.6567  2.1146 -0.5192
30550SOL    HW293904   8.367   1.539   7.114  0.1978  0.3337  1.1832
30551SOL     OW93905   4.066   1.633   8.052  0.3692 -0.3514 -0.2139
30551SOL    HW193906   4.093   1.678   7.972 -0.7598  1.1601  0.2095
30551SOL    HW293907   4.148   1.607   8.094  1.3161  3.8255  0.9096
30552SOL     OW93908   1.336   8.124  10.119  0.3723 -0.0901 -0.1366
30552SOL    HW193909   1.425   8.137  10.086  1.0411 -2.5116  0.5515
30552SOL    HW293910   1.293   8.069  10.054 -0.4743  0.5849 -0.1725
30553SOL     OW93911   8.394   2.251   5.821  0.0908 -0.1302  0.0434
30553SOL    HW193912   8.326   2.313   5.847  0.6893  0.9324 -0.8349
30553SOL    HW293913   8.477   2.297   5.838  0.5326 -0.3404 -1.3954
30554SOL     OW93914   0.756   5.991   4.294 -0.1784  0.3008 -0.5054
30554SOL    HW193915   0.820   5.978   4.364 -0.1494  4.6854  0.6050
30554SOL    HW293916   0.671   5.981   4.336 -0.1896 -0.4080 -0.6940
30555SOL     OW93917   3.654   1.900   9.392  0.6830 -0.4892  0.1959
30555SOL    HW193918   3.594   1.975   9.398  1.0875 -0.2110  0.9077
30555SOL    HW293919   3.606   1.827   9.430  0.4443 -0.4958 -0.1124
30556SOL     OW93920   8.243   9.912   7.474 -0.6560 -0.4293  0.0806
30556SOL    HW193921   8.186   9.836   7.486 -0.3412 -0.6837 -0.0240
30556SOL    HW293922   8.182   9.985   7.458 -0.9806 -0.5551  0.7010
30557SOL     OW93923   4.823   9.748   6.571  0.3188 -0.0198 -0.1863
30557SOL    HW193924   4.792   9.666   6.609 -1.8854  0.4253 -0.8635
30557SOL    HW293925   4.746   9.805   6.571  1.6647  1.9206 -0.1500
30558SOL     OW93926   5.074  10.178   2.895 -0.4317 -0.5186  0.9268
30558SOL    HW193927   5.162  10.169   2.931  0.7222  1.3012 -1.1886
30558SOL    HW293928   5.031  10.243   2.951  0.5572  0.5973  0.4448
30559SOL     OW93929   6.010   7.280   8.130 -0.0032 -0.1856 -0.8701
30559SOL    HW193930   6.092   7.319   8.100 -0.4707 -0.4524 -2.5978
30559SOL    HW293931   6.034   7.190   8.153 -0.0167 -0.7020 -2.6978
30560SOL     OW93932   9.392   4.393   5.382  0.6233  0.3469  0.2680
30560SOL    HW193933   9.413   4.475   5.338 -1.0392  0.8926  0.4188
30560SOL    HW293934   9.376   4.330   5.311  0.0160  0.6715  0.1115
30561SOL     OW93935   0.349   5.914   8.406  0.1158 -0.4367 -0.0282
30561SOL    HW193936   0.290   5.967   8.351  1.2651 -1.0201 -1.9186
30561SOL    HW293937   0.319   5.931   8.495 -0.1762  2.6679 -0.5845
30562SOL     OW93938   3.192   3.605   1.958 -0.1213 -0.2616  0.0922
30562SOL    HW193939   3.245   3.635   2.032  1.7212 -2.9733 -0.0231
30562SOL    HW293940   3.152   3.524   1.989 -0.1110 -0.9281 -1.5761
30563SOL     OW93941  10.177   4.125  10.526 -0.3812  1.3154 -0.0575
30563SOL    HW193942  10.241   4.104  10.458 -0.8404  0.6995 -0.3106
30563SOL    HW293943  10.120   4.048  10.529 -0.1264  1.1605  1.3093
30564SOL     OW93944   1.086   9.196   5.455  0.1963  0.1505 -0.0432
30564SOL    HW193945   1.150   9.140   5.410  0.0131 -1.1989  1.3057
30564SOL    HW293946   1.033   9.233   5.384 -0.6854 -2.6239 -0.9706
30565SOL     OW93947   5.499   1.533   9.317  0.1706  0.2229 -0.2113
30565SOL    HW193948   5.532   1.533   9.407  1.7982  0.6732 -0.7736
30565SOL    HW293949   5.539   1.610   9.277  1.2480 -1.1542 -1.9211
30566SOL     OW93950   0.262   0.715   2.491  0.2369  0.5607 -0.1073
30566SOL    HW193951   0.206   0.667   2.552  0.0839  1.3334  0.3759
30566SOL    HW293952   0.224   0.803   2.489  0.9942  0.8844 -0.3565
30567SOL     OW93953   2.756   6.430   4.260 -0.9355 -0.2651 -0.4430
30567SOL    HW193954   2.676   6.483   4.261 -0.8538 -0.1221 -1.1052
30567SOL    HW293955   2.749   6.379   4.179  0.1955  0.5909 -1.1133
30568SOL     OW93956   2.503   2.826  10.632  0.6574  0.0364 -0.1188
30568SOL    HW193957   2.444   2.888  10.589  1.7703  2.0090  1.0709
30568SOL    HW293958   2.590   2.847  10.598  1.4101  0.9094  2.1448
30569SOL     OW93959  10.146   7.871   0.606  0.3005  0.1256 -0.1181
30569SOL    HW193960  10.130   7.788   0.651 -1.6005  0.5641  0.0881
30569SOL    HW293961  10.121   7.855   0.515 -1.6788  0.8866  0.2510
30570SOL     OW93962  10.168   9.980   6.228 -0.2085 -0.1201 -0.4545
30570SOL    HW193963  10.133   9.891   6.235  0.1939 -0.2481  0.0733
30570SOL    HW293964  10.260   9.970   6.253  0.1418  0.2456 -1.5649
30571SOL     OW93965   3.373   3.966   0.286  0.1155 -0.0571  0.1089
30571SOL    HW193966   3.372   4.056   0.316 -1.8215  0.2851 -0.8643
30571SOL    HW293967   3.462   3.953   0.252  0.4093  1.4897  0.2153
30572SOL     OW93968   8.663   6.441   0.337  0.2596 -0.0299  0.1425
30572SOL    HW193969   8.649   6.365   0.393 -1.0786 -0.1922 -0.3664
30572SOL    HW293970   8.608   6.509   0.376 -1.5250 -0.4398 -1.4796
30573SOL     OW93971   6.872   3.491   1.396  0.3213 -0.0771 -0.6196
30573SOL    HW193972   6.961   3.524   1.403 -0.8320  3.0637  0.8782
30573SOL    HW293973   6.832   3.543   1.327 -0.7280 -0.5136 -0.3641
30574SOL     OW93974   7.843   2.650   7.450 -0.1963  0.1368 -0.1650
30574SOL    HW193975   7.903   2.709   7.496  0.3914 -0.5942  0.0264
30574SOL    HW293976   7.855   2.565   7.492  0.6649 -0.6537 -1.9038
30575SOL     OW93977   0.227   0.616   8.621 -0.1496  0.2688 -0.2406
30575SOL    HW193978   0.193   0.546   8.565 -0.2491  0.2544 -0.1609
30575SOL    HW293979   0.169   0.617   8.696  0.1178  0.1396 -0.0313
30576SOL     OW93980   3.176   1.450   9.389 -0.2091 -0.0724  0.3067
30576SOL    HW193981   3.090   1.411   9.408 -1.0472  1.1122 -0.9269
30576SOL    HW293982   3.157   1.539   9.359  1.2790 -0.4348 -1.9904
30577SOL     OW93983   5.473  10.145   1.036  0.1275  0.1123 -0.1990
30577SOL    HW193984   5.468  10.238   1.058 -1.2218  0.6038 -2.2353
30577SOL    HW293985   5.398  10.106   1.079 -0.1562  0.2680 -0.5464
30578SOL     OW93986   5.315   1.716   0.011  0.3885 -0.1815  0.0162
30578SOL    HW193987   5.321   1.716   0.106  1.5086  0.1887 -0.0441
30578SOL    HW293988   5.276   1.801  -0.010 -0.5088 -0.5456  0.1673
30579SOL     OW93989   9.317   0.100  10.617  0.5483 -0.2736  0.0469
30579SOL    HW193990   9.374   0.092  10.540  0.7541 -1.2249  0.2807
30579SOL    HW293991   9.374   0.135  10.685  0.7638 -0.8568  0.1732
30580SOL     OW93992   0.211   5.117   5.631 -0.6008 -0.5516 -0.2802
30580SOL    HW193993   0.128   5.161   5.653 -1.0584 -1.8149  0.6260
30580SOL    HW293994   0.273   5.189   5.619 -2.1406  0.5564 -2.6046
30581SOL     OW93995   1.662   6.595   6.084 -0.6894  0.1837  0.8753
30581SOL    HW193996   1.727   6.624   6.149  0.3875  1.1223 -0.5539
30581SOL    HW293997   1.580   6.594   6.132  0.5552 -2.8778  3.2821
30582SOL     OW93998   8.124  10.405   5.157  0.1631  0.6575 -0.0140
30582SOL    HW193999   8.219  10.397   5.162  0.6192  2.0744 -3.4392
30582SOL    HW294000   8.109  10.479   5.098 -3.1152  1.1397  1.2094
30583SOL     OW94001   0.711   6.235   5.418 -0.1016 -0.1641  0.1485
30583SOL    HW194002   0.800   6.214   5.392 -0.7873 -0.5695 -2.2036
30583SOL    HW294003   0.701   6.200   5.506  1.3481 -2.2098 -0.4496
30584SOL     OW94004   6.991   8.537   0.882 -0.2693 -0.0589  0.1378
30584SOL    HW194005   6.905   8.514   0.847  0.6104 -1.2236 -1.4176
30584SOL    HW294006   7.042   8.564   0.805  0.0288  3.2624  1.3317
30585SOL     OW94007  10.556   3.389   2.739 -0.3778  0.3678 -0.0322
30585SOL    HW194008  10.558   3.376   2.644 -3.4653 -1.3150 -0.0300
30585SOL    HW294009  10.644   3.367   2.768  0.0830 -1.2663 -2.3328
30586SOL     OW94010   8.546   3.733   9.810  0.1948 -0.0757 -0.2798
30586SOL    HW194011   8.615   3.771   9.756 -0.6359  0.9644 -0.6339
30586SOL    HW294012   8.488   3.689   9.748  1.7745 -3.1542  0.1906
30587SOL     OW94013   3.182   6.485   5.214  0.3558  0.0560  0.2643
30587SOL    HW194014   3.185   6.542   5.137  1.1228 -1.6721 -1.0764
30587SOL    HW294015   3.097   6.441   5.207  0.3130  0.0970  0.5465
30588SOL     OW94016   1.781   1.077   0.473 -0.1352 -0.0295 -0.7075
30588SOL    HW194017   1.842   1.132   0.423 -0.8291  1.3683 -0.0595
30588SOL    HW294018   1.837   1.009   0.512  0.9543  0.9635 -0.4819
30589SOL     OW94019   3.366   6.223   3.838 -0.0270 -0.1000  0.2566
30589SOL    HW194020   3.445   6.174   3.816 -0.4812 -0.0948 -1.5588
30589SOL    HW294021   3.397   6.312   3.856  0.3427  0.0228 -0.9244
30590SOL     OW94022   2.437   1.076   2.381  0.6116 -0.0578  0.4173
30590SOL    HW194023   2.459   0.984   2.398 -1.2846 -0.5965  0.1264
30590SOL    HW294024   2.442   1.084   2.286 -0.2252 -0.1507  0.3575
30591SOL     OW94025   9.279   7.058   5.225  0.3235 -0.1580  0.3088
30591SOL    HW194026   9.216   7.080   5.156  1.1155  0.3990 -0.2552
30591SOL    HW294027   9.225   7.038   5.301 -0.5480 -0.1303 -0.2901
30592SOL     OW94028  10.541   2.909   1.876 -0.7162 -0.3157 -0.1705
30592SOL    HW194029  10.470   2.859   1.836 -1.0693  1.4633 -1.9944
30592SOL    HW294030  10.501   2.994   1.897  0.6201  0.4051 -0.4065
30593SOL     OW94031   0.737   7.967   8.367  0.3221 -0.0819 -0.1228
30593SOL    HW194032   0.763   7.911   8.440  0.3047  1.3218  1.0042
30593SOL    HW294033   0.819   7.996   8.329  0.3786  0.6789  0.5458
30594SOL     OW94034   9.238   0.085   9.129 -0.0028  0.1522 -0.1319
30594SOL    HW194035   9.233   0.165   9.076  1.7559  0.6619  0.3918
30594SOL    HW294036   9.259   0.016   9.066  1.0699  0.5787 -0.2622
30595SOL     OW94037   4.065   5.446   5.627 -0.3201  0.0766 -0.4260
30595SOL    HW194038   4.109   5.418   5.707 -2.3907 -1.1373  0.3711
30595SOL    HW294039   4.061   5.541   5.633  2.3807  0.2747 -0.6975
30596SOL     OW94040   0.393   9.419   8.741 -0.5809  0.0284 -0.2798
30596SOL    HW194041   0.368   9.409   8.650 -0.7843  2.1884 -0.4985
30596SOL    HW294042   0.362   9.506   8.766 -1.7008 -0.9902  2.2475
30597SOL     OW94043   8.227   4.848   9.893  0.8097 -0.4086  0.0409
30597SOL    HW194044   8.207   4.850   9.799 -0.1806 -1.1463  0.2214
30597SOL    HW294045   8.144   4.868   9.935  1.5775  1.5117  0.7678
30598SOL     OW94046   6.363   2.839   7.350  0.5165 -1.1666 -0.0526
30598SOL    HW194047   6.360   2.788   7.269  1.9434 -2.9482  0.9491
30598SOL    HW294048   6.274   2.837   7.384  0.1321 -1.2738 -1.0512
30599SOL     OW94049   4.669   3.038   5.433 -0.2198  0.3742 -0.0645
30599SOL    HW194050   4.659   2.958   5.382  0.0859 -0.2706  0.8557
30599SOL    HW294051   4.718   3.011   5.511 -0.5852  1.3418  0.5244
30600SOL     OW94052   4.906   1.729   1.950 -0.3088 -0.0335 -0.2608
30600SOL    HW194053   4.951   1.703   1.869  0.7404 -2.4612  0.9975
30600SOL    HW294054   4.941   1.816   1.970  1.6068 -0.5990 -0.9366
30601SOL     OW94055   2.225   6.631   0.010  0.1227 -0.3676 -0.1879
30601SOL    HW194056   2.196   6.596  -0.074 -1.4243 -0.9059  0.5267
30601SOL    HW294057   2.209   6.561   0.073 -2.2000  1.1975  1.1388
30602SOL     OW94058   4.299   8.482   9.344  0.4806 -0.4423 -0.1443
30602SOL    HW194059   4.287   8.407   9.285 -0.2086  0.3360 -1.0268
30602SOL    HW294060   4.311   8.443   9.430 -0.3920 -1.5624 -0.5047
30603SOL     OW94061   7.931   7.629   9.811  0.1617  0.1554 -0.4539
30603SOL    HW194062   7.863   7.665   9.754 -1.0355 -1.1914  0.0655
30603SOL    HW294063   7.978   7.566   9.757  1.4543  1.5264 -0.9974
30604SOL     OW94064   0.640   4.507   9.993 -0.4469 -0.0544 -0.1712
30604SOL    HW194065   0.733   4.505  10.018 -0.8614 -1.8032  1.4034
30604SOL    HW294066   0.613   4.597  10.011  1.0127  0.5901 -1.0082
30605SOL     OW94067   3.878   5.921   8.280 -0.1079  0.2445 -0.4080
30605SOL    HW194068   3.937   5.930   8.205  2.0842  0.7763  1.2743
30605SOL    HW294069   3.803   5.977   8.259  0.5621  0.5615 -2.0786
30606SOL     OW94070   8.163  10.344  10.435  0.2229  0.1027  0.4255
30606SOL    HW194071   8.118  10.406  10.492  0.7986  0.5418  0.4116
30606SOL    HW294072   8.169  10.389  10.351  0.1860 -0.1839  0.2662
30607SOL     OW94073   8.657   6.166   2.175  0.0865 -0.2343  0.1969
30607SOL    HW194074   8.697   6.127   2.253  0.4427  0.4280  0.3643
30607SOL    HW294075   8.577   6.207   2.208  0.4021  0.3272  0.2909
30608SOL     OW94076   9.306   8.262   5.365 -0.9347  0.0769  0.3218
30608SOL    HW194077   9.353   8.179   5.366 -2.5287 -0.8809 -0.1785
30608SOL    HW294078   9.373   8.328   5.347 -0.0094 -1.3841 -2.0299
30609SOL     OW94079   9.900   3.038   5.729 -0.0994 -0.3383  0.2164
30609SOL    HW194080   9.991   3.068   5.721 -0.2521  1.2158  3.1310
30609SOL    HW294081   9.848   3.110   5.692 -0.2256 -1.3397 -1.6985
30610SOL     OW94082   0.200   5.643   8.368  0.6615 -0.7357  0.3329
30610SOL    HW194083   0.275   5.699   8.388  2.0796 -2.3489 -0.2336
30610SOL    HW294084   0.220   5.560   8.411 -0.6323 -1.3249 -0.1641
30611SOL     OW94085   5.228  10.617   4.819  0.8704 -0.2928  0.1275
30611SOL    HW194086   5.179  10.570   4.751  2.1824 -1.2511 -0.1999
30611SOL    HW294087   5.181  10.596   4.900 -0.9972  1.2466 -0.4578
30612SOL     OW94088   8.086   7.453   4.569 -0.2021  0.4911 -0.2299
30612SOL    HW194089   8.166   7.482   4.611  1.1222 -0.1534 -2.1493
30612SOL    HW294090   8.077   7.510   4.493  0.7379 -1.9328 -2.3015
30613SOL     OW94091   9.742   6.364   0.238  0.4943  0.3971 -0.0558
30613SOL    HW194092   9.732   6.302   0.166 -0.1718 -2.0602  1.9864
30613SOL    HW294093   9.832   6.394   0.232 -0.0195  1.6123 -2.8609
30614SOL     OW94094   6.785   4.478   9.975 -0.3248 -0.7666 -0.0521
30614SOL    HW194095   6.767   4.393   9.936  1.7899 -0.2772 -2.3076
30614SOL    HW294096   6.809   4.459  10.066 -0.3869 -2.4960 -0.3780
30615SOL     OW94097   2.868   3.913   5.002  0.2729 -0.3661  0.7029
30615SOL    HW194098   2.841   3.976   5.069 -0.1109  0.1702  0.0682
30615SOL    HW294099   2.898   3.968   4.929  0.0999 -0.9288  0.2015
30616SOL     OW94100   1.488  10.237   4.727 -0.4701  0.1360 -0.5965
30616SOL    HW194101   1.575  10.275   4.742 -1.1460  0.8308  2.1526
30616SOL    HW294102   1.442  10.301   4.673 -0.5936  1.8824  1.4458
30617SOL     OW94103   9.261   8.649   5.672  0.5156 -0.0298  0.2230
30617SOL    HW194104   9.217   8.571   5.638  0.3637 -0.1439  0.6735
30617SOL    HW294105   9.354   8.627   5.669  0.4266 -0.6382  1.3162
30618SOL     OW94106   9.782   5.206   1.952  0.2271 -0.0480 -0.3545
30618SOL    HW194107   9.709   5.148   1.973  0.4600 -0.2480 -0.0959
30618SOL    HW294108   9.856   5.148   1.936  0.1851  0.1266 -1.2207
30619SOL     OW94109   0.107  10.191   0.820  0.1203  0.1807 -0.4351
30619SOL    HW194110   0.180  10.165   0.765  0.6362 -1.2462  0.8704
30619SOL    HW294111   0.056  10.111   0.833 -1.3234  1.0040 -0.7643
30620SOL     OW94112  10.507   8.647   7.727  0.5327  0.3065 -0.6518
30620SOL    HW194113  10.462   8.660   7.644 -1.9543 -1.1587  0.3390
30620SOL    HW294114  10.553   8.564   7.717  0.8611  0.5064 -0.8046
30621SOL     OW94115   3.205   7.191   4.058  0.2605  0.2543 -0.1963
30621SOL    HW194116   3.270   7.125   4.032  0.1578  0.1640 -0.2220
30621SOL    HW294117   3.145   7.196   3.984 -1.5158 -1.8456  0.9760
30622SOL     OW94118   7.360   9.711  10.096  0.4682 -0.3277 -0.6538
30622SOL    HW194119   7.439   9.742  10.052  1.0387 -0.2111  0.4178
30622SOL    HW294120   7.384   9.625  10.131 -0.2169 -0.7513 -1.2078
30623SOL     OW94121   0.296   1.485   5.608  0.3147  0.1777 -0.1409
30623SOL    HW194122   0.312   1.574   5.574 -0.8013  0.8023  0.8893
30623SOL    HW294123   0.361   1.431   5.563  1.8346  1.7074  0.0659
30624SOL     OW94124  10.155   9.088   3.352  0.5370  0.5862 -0.0457
30624SOL    HW194125  10.236   9.069   3.400 -0.1364  2.4176  1.9616
30624SOL    HW294126  10.180   9.153   3.286  1.1386 -0.7224 -1.1619
30625SOL     OW94127   6.038   6.582   6.543 -0.2345 -0.4975  0.3860
30625SOL    HW194128   6.050   6.520   6.471  0.8147 -1.6436  1.5101
30625SOL    HW294129   6.121   6.582   6.589 -0.3125  1.5280  0.6225
30626SOL     OW94130   7.664   9.436   9.062  0.6359 -0.0953 -0.9476
30626SOL    HW194131   7.592   9.468   9.008  0.1422  0.8613  0.2480
30626SOL    HW294132   7.662   9.490   9.140  1.0355 -1.7589  0.2643
30627SOL     OW94133   4.000   8.996   5.330  0.8577 -0.4592  0.0129
30627SOL    HW194134   3.932   8.989   5.263  0.1567 -0.0017  0.6645
30627SOL    HW294135   4.042   9.081   5.313 -1.1328  0.9716  1.7860
30628SOL     OW94136   4.919   6.026   7.450  0.2873 -0.0576 -0.4220
30628SOL    HW194137   4.923   5.991   7.539  0.6619 -0.0424 -0.4345
30628SOL    HW294138   4.827   6.014   7.425  0.2012 -0.1551 -0.0727
30629SOL     OW94139   4.897   7.609   5.514  0.3136 -0.0238  0.0685
30629SOL    HW194140   4.891   7.547   5.587  1.3754  0.0441  0.2371
30629SOL    HW294141   4.856   7.689   5.548 -1.7443 -0.8091 -0.4091
30630SOL     OW94142   0.680   6.522   3.832 -0.2559 -0.0351 -0.0292
30630SOL    HW194143   0.683   6.429   3.811 -2.9177  0.1095 -1.5920
30630SOL    HW294144   0.609   6.531   3.896 -0.8582  0.9915 -0.7939
30631SOL     OW94145   0.227   0.475   6.422  0.5638  0.4582  0.7933
30631SOL    HW194146   0.305   0.530   6.434  0.7087  0.1564  1.2789
30631SOL    HW294147   0.163   0.533   6.381  1.3969  0.4218 -0.6600
30632SOL     OW94148   8.422   5.307   1.152 -0.5033 -0.3081 -0.1175
30632SOL    HW194149   8.507   5.300   1.109 -0.0552  0.0511  0.6927
30632SOL    HW294150   8.382   5.385   1.113  0.2431  0.4949  0.6823
30633SOL     OW94151   1.292   0.223   8.531 -0.3292  0.5218 -0.5216
30633SOL    HW194152   1.305   0.204   8.624 -0.5029 -1.1888 -0.8228
30633SOL    HW294153   1.353   0.295   8.513 -0.8631  1.4177  1.0818
30634SOL     OW94154   8.223   3.160   0.636 -0.5779  0.2351  0.0814
30634SOL    HW194155   8.289   3.150   0.705 -0.0053 -0.4951 -0.5627
30634SOL    HW294156   8.165   3.085   0.646 -0.8720  0.4676  0.1580
30635SOL     OW94157   2.510   4.142   4.814 -0.3620  0.2126 -0.0503
30635SOL    HW194158   2.440   4.203   4.791  0.7915  1.2624 -0.9532
30635SOL    HW294159   2.567   4.142   4.737  0.0919 -1.4110  0.2607
30636SOL     OW94160   4.928   5.236   1.029  0.3551  0.0172  0.0878
30636SOL    HW194161   4.985   5.242   0.953  2.4441 -0.5370  1.5397
30636SOL    HW294162   4.935   5.145   1.058  0.0006  0.3274  1.2169
30637SOL     OW94163   9.109   2.222   5.320 -0.0296  0.1171 -0.1284
30637SOL    HW194164   9.155   2.229   5.236  1.1216  0.3673  0.5109
30637SOL    HW294165   9.020   2.251   5.300 -0.1064 -0.9187 -1.5225
30638SOL     OW94166   9.044   8.768   4.410 -0.5706  0.9898  0.4374
30638SOL    HW194167   9.009   8.774   4.499 -0.2726  0.1620  0.6207
30638SOL    HW294168   9.137   8.790   4.419  0.2777 -2.2022  0.9379
30639SOL     OW94169   0.584   5.486   6.298 -0.5329  0.0655 -0.3063
30639SOL    HW194170   0.530   5.476   6.220 -0.5553  2.4150 -0.6648
30639SOL    HW294171   0.661   5.535   6.268  1.3883 -2.3104  0.3978
30640SOL     OW94172   4.339   0.058   0.662 -0.1402 -0.2673 -0.0508
30640SOL    HW194173   4.348  -0.028   0.620  0.8705 -0.5579  0.7193
30640SOL    HW294174   4.318   0.037   0.753 -0.3179  0.3163  0.0437
30641SOL     OW94175   9.705   4.432  10.079  0.3143 -0.2594 -0.4911
30641SOL    HW194176   9.793   4.423  10.115 -0.2464  1.0903  1.4253
30641SOL    HW294177   9.667   4.344  10.085  0.9057 -0.4606  0.4526
30642SOL     OW94178   4.078   8.438   8.213 -0.1057 -0.2723 -0.0305
30642SOL    HW194179   4.054   8.352   8.179 -0.8098 -0.3407  0.6009
30642SOL    HW294180   4.037   8.442   8.300 -0.7384  0.9849 -0.3470
30643SOL     OW94181   2.698   1.824   3.016  0.2284 -0.0887  0.3199
30643SOL    HW194182   2.660   1.742   2.984  1.0071  0.1828 -1.4573
30643SOL    HW294183   2.790   1.819   2.989 -0.0427  2.0062 -1.2821
30644SOL     OW94184   4.896   4.644   4.158  0.5590  0.3275 -0.5912
30644SOL    HW194185   4.842   4.592   4.099 -0.0192  1.0895 -0.7406
30644SOL    HW294186   4.986   4.619   4.136  0.2923 -0.8728 -0.4120
30645SOL     OW94187   3.273   0.972   4.643  0.2960 -0.2910  0.5770
30645SOL    HW194188   3.215   0.923   4.702 -0.3064 -0.4789 -0.1526
30645SOL    HW294189   3.360   0.956   4.678  0.0182 -1.0285  0.9772
30646SOL     OW94190   1.969   2.379   0.996  0.4379 -0.1039  0.1992
30646SOL    HW194191   2.043   2.355   0.939  0.4983 -0.8709  0.5897
30646SOL    HW294192   1.935   2.295   1.028  1.5467  0.3510  2.7711
30647SOL     OW94193   9.187   0.730   1.973 -0.6353  0.0477 -0.3531
30647SOL    HW194194   9.190   0.636   1.959 -0.9022  0.2039 -1.5161
30647SOL    HW294195   9.204   0.769   1.887  0.3957  1.0789  0.2726
30648SOL     OW94196   4.954   9.359   8.620  0.0066 -0.2479 -0.3248
30648SOL    HW194197   5.028   9.368   8.560  1.2140 -0.0536  1.1164
30648SOL    HW294198   4.969   9.275   8.663 -0.9562 -0.4836 -0.4360
30649SOL     OW94199   1.429   8.023   4.190 -0.0274 -0.3249 -0.6824
30649SOL    HW194200   1.348   7.983   4.224 -1.1760  1.5587 -1.0530
30649SOL    HW294201   1.407   8.116   4.180  2.1895  0.2230 -0.8638
30650SOL     OW94202   1.600   4.911   5.738  0.3156  0.0984  0.0986
30650SOL    HW194203   1.616   5.005   5.732  1.3702 -0.1122 -0.7226
30650SOL    HW294204   1.581   4.884   5.648 -0.5805 -0.3812  0.4203
30651SOL     OW94205   8.221   2.104   0.392 -0.7238  0.1750  0.2817
30651SOL    HW194206   8.246   2.177   0.448 -1.0970  0.4002  0.1625
30651SOL    HW294207   8.141   2.134   0.348 -0.3712  0.0580 -0.4632
30652SOL     OW94208   3.723   2.198   6.700 -0.3173  0.2463  0.4230
30652SOL    HW194209   3.677   2.281   6.714 -0.6091  0.0683  0.5160
30652SOL    HW294210   3.655   2.137   6.674  0.0811  0.3654 -0.9946
30653SOL     OW94211   5.652   5.149   6.241 -0.2398 -0.4242 -0.5579
30653SOL    HW194212   5.713   5.221   6.226  0.1675 -0.6060  0.1544
30653SOL    HW294213   5.692   5.074   6.198  0.2202 -0.6187  0.1797
30654SOL     OW94214   0.716   7.353   3.611 -0.5851 -0.1394 -0.8130
30654SOL    HW194215   0.713   7.261   3.584 -0.5596 -0.0008 -1.2934
30654SOL    HW294216   0.698   7.351   3.705  3.1378 -1.0075  0.0341
30655SOL     OW94217   7.328   1.384   0.612 -0.0789  0.1188 -0.0095
30655SOL    HW194218   7.259   1.319   0.602 -0.6508  0.6036  0.6837
30655SOL    HW294219   7.302   1.435   0.689  1.6645 -0.4661  1.0419
30656SOL     OW94220   7.248   6.338   0.034  0.6358  0.5138 -0.5884
30656SOL    HW194221   7.273   6.408  -0.027  2.1673  0.3042 -0.2317
30656SOL    HW294222   7.325   6.282   0.039  0.6376  0.6334  1.7049
30657SOL     OW94223   3.407   3.327   2.749 -0.2633  0.2719  0.1906
30657SOL    HW194224   3.417   3.327   2.653 -0.2683  0.8697  0.1859
30657SOL    HW294225   3.380   3.417   2.770 -0.3999  0.1050  0.7402
30658SOL     OW94226   2.307   7.296   7.444 -0.1861 -0.0451 -0.0508
30658SOL    HW194227   2.302   7.392   7.437  1.2965  0.1994  1.6852
30658SOL    HW294228   2.309   7.266   7.353 -1.6913  1.4835 -0.6410
30659SOL     OW94229   2.714   6.737   1.480  0.1872  0.2743 -0.0358
30659SOL    HW194230   2.710   6.777   1.567 -0.0386  0.2610 -0.0376
30659SOL    HW294231   2.664   6.797   1.425  0.0718  0.1262 -0.0927
30660SOL     OW94232   5.758   8.896   4.019  0.0208 -0.2819 -0.3524
30660SOL    HW194233   5.809   8.815   4.011  0.8082  0.1738 -0.0404
30660SOL    HW294234   5.684   8.872   4.075  0.8974 -0.5009  0.7527
30661SOL     OW94235  10.333   3.901   7.738  0.7410  0.2873 -0.6818
30661SOL    HW194236  10.387   3.825   7.714 -0.3102 -0.6829 -0.0794
30661SOL    HW294237  10.266   3.905   7.670  0.6234  0.4917 -0.5552
30662SOL     OW94238   7.671   5.827   9.470 -0.2653 -0.4365 -0.0735
30662SOL    HW194239   7.588   5.848   9.514  0.5171 -1.6997  2.1883
30662SOL    HW294240   7.731   5.895   9.498 -0.1562 -0.3394 -0.5339
30663SOL     OW94241   7.258   9.320   1.818 -0.4734  0.0227  0.4703
30663SOL    HW194242   7.255   9.383   1.891  0.1050  0.3047  0.2586
30663SOL    HW294243   7.259   9.375   1.740 -0.5318 -0.2671  0.2667
30664SOL     OW94244   6.374   4.811   6.573  0.4620  0.0549  0.6665
30664SOL    HW194245   6.356   4.721   6.547  0.3702  0.0651  0.6957
30664SOL    HW294246   6.359   4.812   6.668 -2.8060  0.8873  0.2495
30665SOL     OW94247   3.687   9.793   4.567  0.5400  0.0201 -0.2124
30665SOL    HW194248   3.658   9.798   4.658  0.1381  0.9393 -0.3827
30665SOL    HW294249   3.777   9.761   4.573  0.2803 -0.6164  0.4591
30666SOL     OW94250   7.635   6.515  10.031  0.0519  0.1782 -0.7574
30666SOL    HW194251   7.605   6.424  10.030  2.1708 -0.6189  0.2993
30666SOL    HW294252   7.567   6.563  10.078 -0.2362 -1.2431  0.3451
30667SOL     OW94253   0.385   0.174   4.467 -0.2536 -0.9452  0.6328
30667SOL    HW194254   0.421   0.229   4.536 -0.5288 -2.6483  2.2386
30667SOL    HW294255   0.381   0.230   4.390  0.6345  0.8643  1.8418
30668SOL     OW94256   5.913   5.099   5.034  0.6427  0.3562 -0.0960
30668SOL    HW194257   5.891   5.141   5.117 -0.3407 -2.5974  1.3032
30668SOL    HW294258   5.853   5.138   4.970 -0.9748  0.3345  1.3451
30669SOL     OW94259   0.882   3.239   8.730 -0.4322 -0.0104 -0.1998
30669SOL    HW194260   0.828   3.245   8.651 -1.2939  0.9576  0.4445
30669SOL    HW294261   0.972   3.250   8.698 -0.7049 -0.4085 -1.1367
30670SOL     OW94262   6.306   7.815   2.785  0.0206 -0.1718  0.7805
30670SOL    HW194263   6.395   7.786   2.808  0.1927 -1.5092 -1.3802
30670SOL    HW294264   6.312   7.911   2.787  0.8044 -0.1847  3.0201
30671SOL     OW94265   5.860   3.131   2.328 -0.1299 -0.2707  0.0438
30671SOL    HW194266   5.906   3.086   2.257  1.7358 -0.4306  1.3008
30671SOL    HW294267   5.778   3.082   2.338 -0.5294 -0.1362 -2.0706
30672SOL     OW94268   7.894   8.509   6.965 -0.2050 -0.2876 -0.2746
30672SOL    HW194269   7.872   8.504   7.059 -1.1618 -0.3324 -0.4850
30672SOL    HW294270   7.810   8.495   6.921  0.0802  0.5948 -1.1255
30673SOL     OW94271   6.692   3.288   9.190  0.3374 -0.4541  0.1818
30673SOL    HW194272   6.746   3.365   9.176 -0.0235 -0.1144  0.6274
30673SOL    HW294273   6.738   3.238   9.257  0.3437 -0.4042  0.2147
30674SOL     OW94274   9.315   7.242   2.515  0.0449 -0.0853 -0.5734
30674SOL    HW194275   9.238   7.247   2.458 -1.1318 -2.7901  0.5983
30674SOL    HW294276   9.357   7.159   2.492 -1.4509 -2.2217  3.3949
30675SOL     OW94277   3.045   9.475   6.017 -0.3752  0.4017  0.1993
30675SOL    HW194278   3.024   9.568   6.016 -2.3715 -0.0087 -0.7092
30675SOL    HW294279   3.102   9.462   5.941 -1.5966  0.6108 -0.7934
30676SOL     OW94280   3.204   1.808   7.089  0.1715  0.8295 -0.1950
30676SOL    HW194281   3.298   1.822   7.082  0.2887  0.4342  0.4552
30676SOL    HW294282   3.184   1.823   7.181 -0.0093 -1.2817  0.1652
30677SOL     OW94283   7.855   2.042   2.529  0.0300  0.0808 -0.0047
30677SOL    HW194284   7.930   2.089   2.494 -1.7562  2.7791 -0.4914
30677SOL    HW294285   7.845   1.966   2.471  1.0146  0.9269 -1.3296
30678SOL     OW94286   8.214   0.592   6.975  0.0101 -0.5713  0.0509
30678SOL    HW194287   8.167   0.563   7.053 -2.9579  2.2802 -0.4352
30678SOL    HW294288   8.145   0.620   6.914  2.2829  1.5265 -1.7887
30679SOL     OW94289   7.393   1.587   2.153 -0.2393 -0.1594 -0.6894
30679SOL    HW194290   7.374   1.509   2.102 -1.3023  0.1042 -0.7246
30679SOL    HW294291   7.339   1.578   2.232  1.2728 -0.4960  0.3558
30680SOL     OW94292   1.456   9.882   3.042  0.9070 -0.2519 -0.7419
30680SOL    HW194293   1.491   9.795   3.061  1.4726  0.0162 -0.5359
30680SOL    HW294294   1.469   9.893   2.947  3.3363  0.6590 -0.3768
30681SOL     OW94295   1.475   5.097   5.932 -0.1045 -0.3210  0.0523
30681SOL    HW194296   1.488   5.078   5.839 -0.3513  0.6729 -0.1966
30681SOL    HW294297   1.391   5.142   5.935  0.0210 -0.1282  0.7326
30682SOL     OW94298   5.587   2.871   8.129  0.0783  0.0115 -0.1552
30682SOL    HW194299   5.645   2.946   8.127 -0.0231  0.1074  0.3236
30682SOL    HW294300   5.534   2.879   8.050  0.0342  0.4679 -0.0801
30683SOL     OW94301   1.629   8.850   3.413  0.3827 -0.5599 -0.0929
30683SOL    HW194302   1.609   8.877   3.503 -1.2363  1.4976 -0.9912
30683SOL    HW294303   1.592   8.762   3.406 -0.9988 -0.0831  0.7854
30684SOL     OW94304   5.440   2.697   7.641 -0.0902 -0.4240 -0.3578
30684SOL    HW194305   5.515   2.755   7.655  0.7319 -1.2223 -1.2891
30684SOL    HW294306   5.443   2.635   7.714  0.7773 -1.0778 -0.9359
30685SOL     OW94307   9.786   9.090   3.814  0.0190  0.0790  0.1133
30685SOL    HW194308   9.779   9.100   3.909 -0.8288  1.0136 -0.0360
30685SOL    HW294309   9.730   9.016   3.793 -2.2629  1.7406  0.0189
30686SOL     OW94310   9.865   4.604   8.964 -0.3328 -0.5490 -0.0851
30686SOL    HW194311   9.816   4.686   8.965 -1.2702 -1.0436 -1.5286
30686SOL    HW294312   9.955   4.629   8.983 -0.8591  0.5938  1.0584
30687SOL     OW94313   2.863   0.587   2.407 -0.1878 -0.4107  0.4368
30687SOL    HW194314   2.904   0.669   2.378 -0.7074 -0.1717  0.3691
30687SOL    HW294315   2.937   0.532   2.433  0.1186  0.4817  1.5625
30688SOL     OW94316   7.282   4.106   7.971 -0.1989  0.1408  0.0606
30688SOL    HW194317   7.368   4.068   7.957  0.3164  1.2394  0.0842
30688SOL    HW294318   7.294   4.165   8.046 -1.3551 -0.8327  1.0507
30689SOL     OW94319  10.114   9.710   4.562 -0.3995  0.3155 -0.2281
30689SOL    HW194320  10.173   9.777   4.527 -0.6155 -0.5718 -2.4580
30689SOL    HW294321  10.172   9.639   4.590 -0.2927 -1.0630 -3.5037
30690SOL     OW94322   3.119   8.021   5.897  0.5424 -0.3420 -0.1708
30690SOL    HW194323   3.043   8.077   5.882  0.4460 -0.8851 -1.8342
30690SOL    HW294324   3.192   8.082   5.905  0.1726  0.1010 -0.0923
30691SOL     OW94325   9.250   8.468   8.801 -0.4431  0.4121 -0.1554
30691SOL    HW194326   9.344   8.448   8.795 -0.5582 -0.5137  0.8527
30691SOL    HW294327   9.211   8.421   8.727 -0.1187  0.7956 -0.5742
30692SOL     OW94328   1.619   9.991  10.347 -0.1599 -1.0321  0.4341
30692SOL    HW194329   1.554   9.922  10.361 -1.0541 -0.6057 -1.4056
30692SOL    HW294330   1.662   9.966  10.265 -0.1332  0.3152  0.0280
30693SOL     OW94331   3.931   4.383   1.289  0.1037 -0.4126  0.5453
30693SOL    HW194332   3.840   4.355   1.297 -0.0014 -0.7558 -1.3171
30693SOL    HW294333   3.957   4.407   1.378 -1.8942  0.0023  1.0701
30694SOL     OW94334   8.114   6.217   0.365 -0.1758 -0.0181  0.6837
30694SOL    HW194335   8.201   6.250   0.341 -0.2818 -1.8022 -2.7291
30694SOL    HW294336   8.129   6.163   0.442  1.6834  0.1345  0.4733
30695SOL     OW94337   2.798   8.855   2.628  0.1030 -0.2400 -0.0586
30695SOL    HW194338   2.769   8.946   2.631  1.0043  0.0512 -0.0182
30695SOL    HW294339   2.856   8.850   2.552  1.3859 -0.3597  0.8805
30696SOL     OW94340   4.077   5.876   5.182  0.0304  0.1340  0.3795
30696SOL    HW194341   4.082   5.803   5.245 -0.4274 -1.0587 -0.9211
30696SOL    HW294342   4.068   5.834   5.097  1.6333  1.6988 -0.6308
30697SOL     OW94343   9.481   0.383   9.704  0.0558  0.0407 -0.1241
30697SOL    HW194344   9.397   0.339   9.720 -0.1727  0.5892  0.2443
30697SOL    HW294345   9.545   0.330   9.750  0.2589 -1.5998 -2.1704
30698SOL     OW94346   5.162   0.475   8.210 -0.2698 -0.7457  0.0327
30698SOL    HW194347   5.253   0.503   8.206 -0.5224  0.1276  0.2217
30698SOL    HW294348   5.164   0.383   8.182  0.3575 -0.0863 -2.3372
30699SOL     OW94349   3.939   5.362   4.094 -0.1262 -0.5809 -0.2385
30699SOL    HW194350   3.849   5.338   4.113 -0.6077  0.1797 -1.4226
30699SOL    HW294351   3.987   5.279   4.094 -1.1132 -1.1684 -1.0634
30700SOL     OW94352   0.366   4.004   0.725 -0.0246 -0.5602 -0.1654
30700SOL    HW194353   0.312   3.958   0.789  1.0764 -1.0605  0.4440
30700SOL    HW294354   0.350   3.959   0.642 -1.4385  0.0702 -0.2555
30701SOL     OW94355   8.563   9.193   7.352 -0.4294  0.2735  0.0022
30701SOL    HW194356   8.498   9.122   7.355 -1.7317  1.4180 -0.1301
30701SOL    HW294357   8.514   9.269   7.319  1.4484  0.7147 -1.9762
30702SOL     OW94358   7.724   4.876   8.269  0.1899 -0.2413  0.3543
30702SOL    HW194359   7.791   4.926   8.224 -0.2909  0.3495  0.2680
30702SOL    HW294360   7.716   4.919   8.355  0.1296 -0.4880  0.4727
30703SOL     OW94361   9.615   8.458   0.399 -0.3250 -0.4765  0.0212
30703SOL    HW194362   9.600   8.543   0.441  0.8726  0.4788 -1.3807
30703SOL    HW294363   9.558   8.458   0.323 -0.4446 -1.0166  0.1045
30704SOL     OW94364  10.265   1.301   7.796 -0.1062  1.0972  0.5118
30704SOL    HW194365  10.294   1.313   7.705 -0.4870 -2.4267 -0.2173
30704SOL    HW294366  10.341   1.261   7.840 -1.2459 -1.2865  0.4963
30705SOL     OW94367   6.065   9.207   3.823  0.0416 -0.1829 -0.7398
30705SOL    HW194368   6.101   9.207   3.912  2.1151 -0.0254 -1.5067
30705SOL    HW294369   6.018   9.123   3.816 -1.2783  0.3824  0.8767
30706SOL     OW94370   0.987   9.611   7.459 -0.2238  0.4303 -0.0593
30706SOL    HW194371   1.047   9.663   7.512  1.2101  2.6328 -3.5188
30706SOL    HW294372   0.904   9.658   7.464 -0.9875 -0.9832  2.3437
30707SOL     OW94373   3.698   2.916   6.560  0.0261 -0.0934 -0.0541
30707SOL    HW194374   3.748   2.848   6.604 -0.1791  0.6717  1.4414
30707SOL    HW294375   3.743   2.997   6.583  0.0700  0.3189 -1.5227
30708SOL     OW94376   5.275   2.846   9.113 -0.3673  0.1276 -0.6956
30708SOL    HW194377   5.222   2.892   9.179 -2.2485 -2.4762 -0.2366
30708SOL    HW294378   5.239   2.757   9.111  2.1375 -0.9676 -2.5400
30709SOL     OW94379   4.856   3.443   1.625  0.7091 -0.3086  0.2863
30709SOL    HW194380   4.770   3.482   1.637  0.5778 -1.1474  2.6753
30709SOL    HW294381   4.853   3.403   1.538 -1.1099  0.0848  0.1335
30710SOL     OW94382   6.182   2.055   1.392 -0.3514  0.0208 -0.3089
30710SOL    HW194383   6.219   1.974   1.357  0.9836  0.2481  0.5277
30710SOL    HW294384   6.239   2.079   1.464 -1.5738  0.9392  0.3997
30711SOL     OW94385  10.198   6.063   3.839  0.3909 -0.4534 -0.4869
30711SOL    HW194386  10.284   6.096   3.814  0.1573  0.4421 -0.1167
30711SOL    HW294387  10.202   5.970   3.816  2.0074 -0.8005  0.9352
30712SOL     OW94388   7.131   0.648   2.288  0.7409  0.1655 -0.0145
30712SOL    HW194389   7.170   0.610   2.367 -0.4810 -0.7739  0.1701
30712SOL    HW294390   7.042   0.673   2.315  1.0519  1.9851 -0.4928
30713SOL     OW94391   4.816   2.629   3.902 -0.5532 -0.5572 -0.2792
30713SOL    HW194392   4.786   2.715   3.875 -0.9371 -0.6142 -0.0350
30713SOL    HW294393   4.838   2.639   3.994 -1.2019 -0.8772 -0.0870
30714SOL     OW94394   9.570   9.418   8.471 -0.0212 -0.6251  0.6195
30714SOL    HW194395   9.475   9.424   8.485 -0.1616 -2.9403  1.0517
30714SOL    HW294396   9.585   9.469   8.391 -1.4325  0.6892  1.1276
30715SOL     OW94397   9.567   0.160   3.767  0.0144  0.0139 -0.0843
30715SOL    HW194398   9.495   0.205   3.811  0.1075  1.0957 -0.9793
30715SOL    HW294399   9.622   0.127   3.838 -0.0966  1.2775  0.6208
30716SOL     OW94400   2.720   1.113   3.072  0.0229 -0.2502 -0.6135
30716SOL    HW194401   2.685   1.155   3.150  0.2066 -0.7424 -0.2660
30716SOL    HW294402   2.815   1.125   3.078  0.1070 -1.0203 -0.3302
30717SOL     OW94403   4.862   1.115  10.621  0.2552  0.7972 -0.3302
30717SOL    HW194404   4.934   1.062  10.655 -0.2478  0.9941  1.1312
30717SOL    HW294405   4.863   1.099  10.527  1.2203 -0.4175 -0.1453
30718SOL     OW94406   1.294   7.966   8.872  0.1060 -0.3875  0.3760
30718SOL    HW194407   1.271   7.874   8.891  2.4076 -1.0874  0.0595
30718SOL    HW294408   1.231   7.992   8.805  0.3397 -2.2655 -0.6620
30719SOL     OW94409   8.090   8.983   6.999  0.0352  0.3264 -0.7158
30719SOL    HW194410   8.054   8.905   7.041  1.3725  1.1079  2.1949
30719SOL    HW294411   8.173   8.954   6.962 -0.0524  0.0940 -0.7291
30720SOL     OW94412   3.685   6.718   3.861 -0.8385 -0.3240 -0.4830
30720SOL    HW194413   3.759   6.703   3.803 -0.7185  0.7507 -0.6287
30720SOL    HW294414   3.621   6.764   3.807 -0.1577  2.0091  0.5343
30721SOL     OW94415   7.669   5.317   1.471 -0.2478 -0.5295  0.2631
30721SOL    HW194416   7.616   5.329   1.393 -1.1065  1.1117  1.0385
30721SOL    HW294417   7.640   5.386   1.531  1.1560 -1.0335  1.6099
30722SOL     OW94418   1.975   7.585   9.281  0.1225 -0.3133  0.8572
30722SOL    HW194419   2.065   7.618   9.273  0.5450 -1.5689  0.3429
30722SOL    HW294420   1.941   7.631   9.358  1.4821 -0.4460  1.5763
30723SOL     OW94421   0.123   7.642   0.629 -0.1482 -0.3611  0.0127
30723SOL    HW194422   0.165   7.658   0.545 -1.4943 -1.1792 -0.8603
30723SOL    HW294423   0.145   7.718   0.682  0.9607  0.0383 -0.9805
30724SOL     OW94424   5.656   6.229   3.589 -0.6019  0.1408  0.1706
30724SOL    HW194425   5.713   6.153   3.580 -1.6584 -0.5709 -0.8389
30724SOL    HW294426   5.714   6.304   3.577  0.5452 -0.4610  1.6122
30725SOL     OW94427   2.826   5.379   9.700 -0.7138 -0.0926  0.8761
30725SOL    HW194428   2.917   5.350   9.695 -1.1309 -1.4528  0.7302
30725SOL    HW294429   2.785   5.346   9.620 -1.5459 -0.3062  1.3740
30726SOL     OW94430   1.009   9.034   9.189 -0.4827 -0.1661 -0.3073
30726SOL    HW194431   1.034   9.126   9.199  1.4780 -0.6577 -0.3134
30726SOL    HW294432   0.951   9.017   9.263  0.7836  0.5521  0.8983
30727SOL     OW94433   6.065   0.372   6.357 -0.1509  0.2339 -0.0585
30727SOL    HW194434   6.096   0.281   6.354  0.2638  0.3875 -2.5720
30727SOL    HW294435   6.135   0.422   6.315 -0.9091  1.5480  0.2132
30728SOL     OW94436   9.763   9.489  10.121 -0.5245 -0.1483 -0.1616
30728SOL    HW194437   9.819   9.540  10.062  1.4427 -1.7345  0.2258
30728SOL    HW294438   9.674   9.519  10.101  0.1864  0.4485 -2.8696
30729SOL     OW94439   5.592   2.649   4.189  0.9167 -0.3136  0.5635
30729SOL    HW194440   5.575   2.573   4.244 -0.8675 -0.9219 -0.7294
30729SOL    HW294441   5.596   2.614   4.100 -0.1373  1.0934 -0.0844
30730SOL     OW94442   0.199   7.233   3.540  0.3352 -0.1257 -0.2400
30730SOL    HW194443   0.215   7.321   3.573  1.2657 -0.7584  1.1082
30730SOL    HW294444   0.247   7.229   3.458 -1.7121  1.3683 -1.6227
30731SOL     OW94445   1.190   8.910   3.523 -0.3773  0.3770  0.5853
30731SOL    HW194446   1.151   8.960   3.595  0.0466  0.0599  1.0350
30731SOL    HW294447   1.246   8.845   3.566 -0.4760 -0.1084 -0.0163
30732SOL     OW94448   1.593   9.571  10.219  0.7603  0.0852 -0.2088
30732SOL    HW194449   1.578   9.511  10.292  0.3409 -0.4351 -0.7145
30732SOL    HW294450   1.641   9.644  10.258 -1.2018  0.7918  1.0260
30733SOL     OW94451   2.215   7.354   6.148 -0.0291  0.5374 -0.0460
30733SOL    HW194452   2.260   7.436   6.169  1.4276  0.0106 -0.9371
30733SOL    HW294453   2.271   7.286   6.186 -1.8919 -0.0467  1.8557
30734SOL     OW94454   8.787   4.726   4.596 -0.7172  0.1460 -0.0054
30734SOL    HW194455   8.800   4.634   4.573 -1.2595  0.0557  0.0424
30734SOL    HW294456   8.874   4.756   4.622 -0.6361 -0.4976  0.4999
30735SOL     OW94457   9.321   3.359   2.696  0.5210  0.6532 -0.0418
30735SOL    HW194458   9.322   3.333   2.788 -1.7711 -0.7304 -0.3081
30735SOL    HW294459   9.402   3.408   2.684  0.5355  1.5934  2.8965
30736SOL     OW94460   0.001   3.988   1.365 -0.5605  0.1825 -0.6327
30736SOL    HW194461   0.090   3.953   1.364 -0.9500 -0.8204 -0.9102
30736SOL    HW294462   0.009   4.073   1.321  0.5591  0.9082  0.8636
30737SOL     OW94463   9.784   2.120   5.156 -0.1044  0.0006  0.2372
30737SOL    HW194464   9.813   2.064   5.084  1.6987 -0.0481  0.9235
30737SOL    HW294465   9.720   2.068   5.204 -0.8625 -0.1962 -0.9731
30738SOL     OW94466   1.567   1.912   0.396  0.5491  0.5101 -0.1672
30738SOL    HW194467   1.506   1.847   0.361  1.7931 -0.7520 -0.1068
30738SOL    HW294468   1.561   1.986   0.335 -1.5063  0.7198  0.2211
30739SOL     OW94469   3.540   0.693   8.547 -0.2884 -0.1696 -0.7388
30739SOL    HW194470   3.459   0.725   8.586  0.4960 -0.9522  1.7262
30739SOL    HW294471   3.535   0.598   8.556  1.1622 -0.1929  0.0833
30740SOL     OW94472   5.354   8.984   7.370  0.2001  0.3977 -0.0418
30740SOL    HW194473   5.387   8.948   7.288  0.9376  0.0597  0.3902
30740SOL    HW294474   5.386   9.074   7.371 -1.0408  0.8742 -0.7881
30741SOL     OW94475   0.569  10.418   1.541 -0.3889 -0.0283 -0.0305
30741SOL    HW194476   0.525  10.343   1.501 -0.7044  0.0539  0.1655
30741SOL    HW294477   0.657  10.385   1.563 -0.4677 -0.2896 -0.1033
30742SOL     OW94478   9.895   1.676   6.650 -0.4204  0.0110  0.1018
30742SOL    HW194479   9.891   1.698   6.743  0.3653 -0.4648  0.2505
30742SOL    HW294480   9.851   1.592   6.643  0.6094 -0.5542  0.2455
30743SOL     OW94481   8.597   2.114   1.595  0.3253 -0.1565  0.0754
30743SOL    HW194482   8.656   2.086   1.666 -0.7795 -0.3330  0.9435
30743SOL    HW294483   8.534   2.043   1.586  0.1583  0.0896 -0.7527
30744SOL     OW94484   9.244   2.051   5.488 -0.3096 -0.3891  0.6597
30744SOL    HW194485   9.177   2.110   5.454 -1.6760 -0.1242  3.4792
30744SOL    HW294486   9.327   2.089   5.459 -1.2371  1.7404  0.6098
30745SOL     OW94487   3.987   4.381   7.846  0.0484 -0.4212  0.1683
30745SOL    HW194488   3.967   4.305   7.901 -0.2114 -0.2953  0.2521
30745SOL    HW294489   4.004   4.452   7.908  2.1635 -0.8378  0.1399
30746SOL     OW94490   0.395  10.404   7.755 -0.3557 -0.0099 -0.3135
30746SOL    HW194491   0.306  10.432   7.737 -0.8607 -1.4710 -0.2333
30746SOL    HW294492   0.434  10.389   7.669 -0.5113 -0.3058 -0.3341
30747SOL     OW94493   3.283   5.140   3.281 -0.3120 -0.0646 -0.3338
30747SOL    HW194494   3.282   5.234   3.298  1.0774 -0.5827  3.4419
30747SOL    HW294495   3.372   5.122   3.252  0.0699 -0.4794  1.0584
30748SOL     OW94496  10.598   0.493   5.435 -0.3262  0.1479  0.5594
30748SOL    HW194497  10.593   0.442   5.354  0.5920  2.1090 -0.8170
30748SOL    HW294498  10.595   0.428   5.505  1.7240 -1.8709 -1.1009
30749SOL     OW94499   8.159   7.617   6.438 -0.2022  0.9009  0.6619
30749SOL    HW194500   8.240   7.566   6.435  1.1568  2.9567 -0.0332
30749SOL    HW294501   8.149   7.641   6.530 -0.9563 -0.7233  1.0240
30750SOL     OW94502   4.005   4.718   6.055 -0.0261 -0.0498  0.8117
30750SOL    HW194503   4.064   4.738   5.982 -1.4365 -2.0295 -1.0086
30750SOL    HW294504   4.063   4.687   6.125  1.2660  0.5865  0.0684
30751SOL     OW94505   8.960   5.659   2.627  0.2247 -0.1216 -0.0870
30751SOL    HW194506   8.962   5.714   2.548  1.5501  1.6503  1.0870
30751SOL    HW294507   8.933   5.573   2.596  0.0780  0.6794 -2.3653
30752SOL     OW94508   0.027   9.288   7.062 -0.2415  0.2419 -0.5526
30752SOL    HW194509   0.005   9.381   7.064 -2.5145 -0.1412 -2.8047
30752SOL    HW294510   0.079   9.277   6.983  0.2659 -0.3862 -0.1494
30753SOL     OW94511   5.642   0.617   5.089 -0.6920  0.2046 -0.2768
30753SOL    HW194512   5.591   0.633   5.011 -2.3955 -0.1990  0.7116
30753SOL    HW294513   5.649   0.522   5.095 -0.4002  0.2366 -0.0532
30754SOL     OW94514   9.161   9.756   9.285 -0.2689 -0.1281  0.0617
30754SOL    HW194515   9.238   9.809   9.265 -1.3214  1.6772  0.5630
30754SOL    HW294516   9.193   9.665   9.281  1.9904  0.5604  0.7706
30755SOL     OW94517   4.927   9.011   1.022 -0.2672  0.0602 -0.1176
30755SOL    HW194518   5.010   9.015   0.975 -0.3432 -2.1690 -0.5312
30755SOL    HW294519   4.862   9.040   0.958 -0.0464 -0.2655 -0.4934
30756SOL     OW94520   4.438   0.986   3.268 -0.9914  0.2119  0.4022
30756SOL    HW194521   4.517   0.982   3.321 -1.2920  2.5956  1.1063
30756SOL    HW294522   4.368   0.958   3.328 -0.8354 -1.1580 -0.0071
30757SOL     OW94523   5.013   8.994   5.285  0.1485 -0.1083  0.0661
30757SOL    HW194524   4.975   9.071   5.328  0.8294  0.5075 -0.4080
30757SOL    HW294525   4.944   8.963   5.226 -0.6723 -0.7577  1.3051
30758SOL     OW94526   3.859   6.991   0.016  0.1984 -0.3256 -0.3624
30758SOL    HW194527   3.787   6.997   0.078  0.4387 -1.8485  0.0918
30758SOL    HW294528   3.854   7.073  -0.034 -1.5667 -0.1996 -0.0499
30759SOL     OW94529   0.718   7.737   0.857 -0.1956 -0.4894 -0.3946
30759SOL    HW194530   0.773   7.815   0.861  1.8542 -1.8982  0.4385
30759SOL    HW294531   0.756   7.678   0.922 -1.5091 -2.2954 -1.1980
30760SOL     OW94532   8.120   7.383   7.982  0.2970  0.6639  0.4227
30760SOL    HW194533   8.137   7.298   7.941  2.2188  0.8627  0.7213
30760SOL    HW294534   8.121   7.445   7.909  0.7147  0.6509  0.4164
30761SOL     OW94535   6.231  10.351   1.547 -0.0332  0.3114  0.5025
30761SOL    HW194536   6.150  10.302   1.560  0.3671 -0.1508  1.3634
30761SOL    HW294537   6.218  10.398   1.464 -0.6238 -0.8609 -0.0976
30762SOL     OW94538   9.537   7.024   6.481 -0.5934 -0.8075 -0.0093
30762SOL    HW194539   9.613   6.974   6.510 -0.5538 -0.7067  0.0620
30762SOL    HW294540   9.518   6.990   6.394  1.1588  0.9959 -1.1617
30763SOL     OW94541   7.642   0.572  10.465  0.2104  0.4243 -0.0146
30763SOL    HW194542   7.578   0.534  10.405  0.2752 -0.5444  0.5180
30763SOL    HW294543   7.590   0.625  10.525  0.2199  2.1277 -1.4076
30764SOL     OW94544   9.257   5.460   6.115 -0.4795 -0.3312 -0.1532
30764SOL    HW194545   9.299   5.531   6.162 -0.6535  0.5793 -1.3269
30764SOL    HW294546   9.320   5.388   6.117  0.1305  0.2094  0.1346
30765SOL     OW94547   0.485   0.700   0.635 -0.0509  0.2604 -0.8733
30765SOL    HW194548   0.415   0.649   0.675  0.2446  1.1368  0.8735
30765SOL    HW294549   0.564   0.647   0.646 -0.0397  0.3271 -0.6115
30766SOL     OW94550   6.385  10.025   7.593 -0.8222 -0.1367  0.6430
30766SOL    HW194551   6.404  10.016   7.500 -1.4553  0.3586  0.4573
30766SOL    HW294552   6.311   9.966   7.608 -0.2043 -0.8191  1.0036
30767SOL     OW94553   5.326   5.302   3.661 -0.6938 -0.3134  0.0884
30767SOL    HW194554   5.376   5.335   3.736 -3.1921 -0.2183  1.8295
30767SOL    HW294555   5.391   5.253   3.609  0.8191 -2.0665  3.3054
30768SOL     OW94556   8.610   3.622   8.701  0.0479  0.1736  0.1576
30768SOL    HW194557   8.572   3.558   8.640 -1.4778  2.1644 -1.1032
30768SOL    HW294558   8.691   3.650   8.658 -0.2169  0.4261 -0.1752
30769SOL     OW94559   7.513   4.568   8.913 -0.1579  0.5587  0.2195
30769SOL    HW194560   7.539   4.660   8.913 -1.4522  0.9473 -0.1660
30769SOL    HW294561   7.476   4.553   8.826  0.2059 -0.3818  0.2140
30770SOL     OW94562   0.669   7.274   5.756  0.1108  0.3118  0.2605
30770SOL    HW194563   0.722   7.326   5.817  0.7627 -0.0958  0.0496
30770SOL    HW294564   0.705   7.186   5.762 -0.9168 -0.1107  0.5330
30771SOL     OW94565   2.172   0.272   8.318 -0.0902  0.0872 -0.7539
30771SOL    HW194566   2.135   0.185   8.334 -0.3411  0.5537  1.5140
30771SOL    HW294567   2.096   0.330   8.310  0.0728  0.4213 -0.0184
30772SOL     OW94568   8.990   0.444   1.339  0.1463 -0.1022  0.2832
30772SOL    HW194569   9.040   0.487   1.270  0.5476  3.9354  2.7351
30772SOL    HW294570   9.049   0.375   1.372  0.1216 -1.7979 -2.8200
30773SOL     OW94571   4.394   7.619   1.701 -0.4329 -0.1787 -0.2889
30773SOL    HW194572   4.463   7.667   1.746 -0.3242 -0.8555  0.2812
30773SOL    HW294573   4.319   7.678   1.702 -0.1816  0.1368  0.0481
30774SOL     OW94574   5.996   5.161   9.766 -0.0771 -0.1272 -0.2810
30774SOL    HW194575   6.022   5.157   9.674  1.5619  2.1919 -0.0198
30774SOL    HW294576   5.974   5.254   9.780  1.0795 -0.1304  1.9813
30775SOL     OW94577   1.101   0.707   7.687  0.0083 -0.2791 -0.0242
30775SOL    HW194578   1.026   0.668   7.733 -0.4263  0.6750  0.1002
30775SOL    HW294579   1.114   0.651   7.611  0.7347 -1.8952  1.2103
30776SOL     OW94580   7.553   8.275   0.074 -0.0761 -0.5591  0.7063
30776SOL    HW194581   7.553   8.181   0.060  0.4743 -0.2537 -1.9749
30776SOL    HW294582   7.646   8.299   0.077 -0.1790  0.0285 -0.1849
30777SOL     OW94583   2.300  10.118   1.512  0.0026  0.1643 -0.6443
30777SOL    HW194584   2.261  10.051   1.568  1.5323 -0.2718 -0.0551
30777SOL    HW294585   2.225  10.158   1.467 -1.0385 -1.1752 -0.1783
30778SOL     OW94586   9.707   2.309   9.230  0.8750 -0.1485 -0.2818
30778SOL    HW194587   9.649   2.320   9.155 -0.0834  0.2199  0.4879
30778SOL    HW294588   9.721   2.398   9.264  0.6935 -0.3787  0.4143
30779SOL     OW94589   1.493   6.185   5.747 -0.7981 -0.5294 -0.0051
30779SOL    HW194590   1.448   6.105   5.720 -0.7377 -0.2388 -1.0230
30779SOL    HW294591   1.422   6.247   5.765 -0.8333 -0.5745  0.0122
30780SOL     OW94592   8.512   8.369   2.884  0.4193  0.5934  0.1674
30780SOL    HW194593   8.546   8.447   2.841 -1.0036  1.4701  0.5274
30780SOL    HW294594   8.429   8.351   2.840  1.0372 -1.1587 -0.3691
30781SOL     OW94595   9.554   6.269   2.244  0.4474 -0.5012 -0.3477
30781SOL    HW194596   9.477   6.291   2.190  0.5553  1.4722  0.2268
30781SOL    HW294597   9.519   6.216   2.315 -0.5451  0.8536  0.2282
30782SOL     OW94598   7.565   3.559   1.231 -0.5677  0.0550 -0.2831
30782SOL    HW194599   7.564   3.472   1.272 -0.9194  0.4217  0.5057
30782SOL    HW294600   7.572   3.540   1.137 -2.0159 -0.8954 -0.2527
30783SOL     OW94601   0.402  10.333   9.254  0.4163  0.3965  0.0170
30783SOL    HW194602   0.379  10.248   9.217  0.6793  0.1826  0.3381
30783SOL    HW294603   0.490  10.321   9.289  0.5332  0.8577 -0.1102
30784SOL     OW94604   7.541   0.334   4.874  0.4413  0.2161  1.0432
30784SOL    HW194605   7.595   0.262   4.842 -0.4603  0.3656 -1.0204
30784SOL    HW294606   7.452   0.298   4.874 -0.1318  1.4522 -0.7149
30785SOL     OW94607   6.399   9.357   7.684 -0.6183 -0.3709  0.1175
30785SOL    HW194608   6.429   9.303   7.610 -0.8930 -0.9400  0.4210
30785SOL    HW294609   6.413   9.302   7.761 -0.0326  0.3404  0.5378
30786SOL     OW94610   0.514   5.824   1.128 -0.4696  0.2417  0.2188
30786SOL    HW194611   0.462   5.826   1.209  1.5857 -2.2383  1.7240
30786SOL    HW294612   0.600   5.856   1.154 -0.1420  0.7209 -1.3535
30787SOL     OW94613   6.260   1.348   4.179 -0.0252 -0.5924 -0.0138
30787SOL    HW194614   6.267   1.258   4.149  1.4212 -0.2358 -0.7913
30787SOL    HW294615   6.326   1.356   4.248  0.3071  0.0405 -0.3961
30788SOL     OW94616   0.273   8.345   6.620  0.2737  0.1079 -0.7873
30788SOL    HW194617   0.228   8.364   6.703  0.6190  0.9599 -0.7846
30788SOL    HW294618   0.304   8.430   6.590  1.6355 -0.4265 -0.9430
30789SOL     OW94619   8.649   2.564   8.401  0.1253  0.2145 -0.6163
30789SOL    HW194620   8.682   2.648   8.369  1.1133 -0.2872 -0.9535
30789SOL    HW294621   8.689   2.498   8.343  1.4751 -0.6740  1.2534
30790SOL     OW94622   4.902   1.045   1.545  0.5686  0.1827 -0.2388
30790SOL    HW194623   4.857   1.129   1.535 -0.7421 -0.5747 -1.0590
30790SOL    HW294624   4.893   1.024   1.638  1.6783  1.3328  0.1566
30791SOL     OW94625   6.883   3.802   5.465 -0.6781  0.2048 -0.0081
30791SOL    HW194626   6.884   3.719   5.417 -0.3815  0.7799 -1.0304
30791SOL    HW294627   6.932   3.862   5.409  2.6075  0.1190  2.4666
30792SOL     OW94628   3.447   3.015   6.970  0.2690 -0.2635  0.0026
30792SOL    HW194629   3.385   3.069   6.922 -0.4440  0.5272  1.7572
30792SOL    HW294630   3.470   3.066   7.047  2.0009 -1.1611  0.1466
30793SOL     OW94631  10.308   8.148   6.333  0.1851 -0.0377  0.9459
30793SOL    HW194632  10.345   8.116   6.251 -2.3138 -0.1741 -0.1964
30793SOL    HW294633  10.256   8.224   6.308 -1.4831 -0.7116  2.2048
30794SOL     OW94634   3.345   9.214   5.495  0.4884 -0.3975  0.0919
30794SOL    HW194635   3.380   9.212   5.406  1.1530 -2.0188  0.3547
30794SOL    HW294636   3.283   9.287   5.495  0.6191 -0.2520 -1.6404
30795SOL     OW94637   3.008   8.714   2.920 -0.0342  0.3192  0.3710
30795SOL    HW194638   3.072   8.771   2.877 -2.2661  1.5969 -1.4569
30795SOL    HW294639   2.957   8.773   2.976 -1.4906 -0.0786 -0.4812
30796SOL     OW94640   2.158   3.202   0.320 -0.1933 -0.1186 -0.0050
30796SOL    HW194641   2.210   3.121   0.324 -0.5424 -0.3535 -0.1611
30796SOL    HW294642   2.215   3.266   0.279  0.9135  0.3514  2.1479
30797SOL     OW94643   0.891   8.827   4.871  0.0549 -0.1786  0.0277
30797SOL    HW194644   0.870   8.733   4.872 -1.1952  0.0052 -2.4687
30797SOL    HW294645   0.986   8.830   4.884 -0.0476 -1.6619  1.5243
30798SOL     OW94646   6.448   1.354   8.926 -0.0821  0.4073 -0.2538
30798SOL    HW194647   6.512   1.409   8.971  1.2620 -0.2786 -1.2725
30798SOL    HW294648   6.368   1.408   8.924  1.4197  2.7923 -2.0222
30799SOL     OW94649   4.357   3.448   6.102  0.0736 -0.5635 -0.2340
30799SOL    HW194650   4.405   3.519   6.143  1.1338 -1.2602 -0.2378
30799SOL    HW294651   4.275   3.442   6.152  0.8384 -0.6419  1.0339
30800SOL     OW94652   3.135   5.868   6.374  0.9667  0.4579  0.0979
30800SOL    HW194653   3.070   5.800   6.390  2.3899 -0.7738  0.8766
30800SOL    HW294654   3.178   5.842   6.293  1.7569  0.2051  0.5859
30801SOL     OW94655   2.220   0.509   3.591  0.0567  0.1658  0.0174
30801SOL    HW194656   2.181   0.422   3.598 -0.4894  0.3954 -0.1137
30801SOL    HW294657   2.313   0.495   3.605 -0.1246 -0.3377  0.7856
30802SOL     OW94658   5.796  10.183   8.971  0.4407  0.5843 -0.1325
30802SOL    HW194659   5.846  10.222   9.043  0.3113 -1.0047  0.8548
30802SOL    HW294660   5.860  10.132   8.923  0.1808  0.2212 -0.0947
30803SOL     OW94661   7.418   6.292   6.129  0.1917  0.1468 -0.0139
30803SOL    HW194662   7.479   6.332   6.192  0.4018 -1.3482  0.7805
30803SOL    HW294663   7.469   6.283   6.049  0.3564  0.8054  0.0115
30804SOL     OW94664   5.728   6.587   5.492  0.3817 -0.4079 -0.0129
30804SOL    HW194665   5.721   6.527   5.566  1.5124  1.1909  1.4789
30804SOL    HW294666   5.813   6.569   5.454 -0.2756 -1.3544 -1.0907
30805SOL     OW94667   1.270   3.798   2.086 -0.6514 -0.3301  0.3942
30805SOL    HW194668   1.299   3.875   2.038  0.8029 -1.3611 -0.4350
30805SOL    HW294669   1.270   3.825   2.178 -0.4788  0.7380  0.0849
30806SOL     OW94670   1.967   8.547   6.731  0.2578 -0.2397 -0.5924
30806SOL    HW194671   2.041   8.488   6.747  1.3414  0.8396 -1.4499
30806SOL    HW294672   1.983   8.583   6.644 -0.3891  1.2735 -0.1161
30807SOL     OW94673   8.866   4.447   4.389  0.2308  0.0733  0.5665
30807SOL    HW194674   8.840   4.403   4.309  3.2556  0.6362 -0.8743
30807SOL    HW294675   8.947   4.404   4.416  0.8316  1.7624  1.6727
30808SOL     OW94676   3.541   9.939   8.955 -0.1908 -0.2586 -0.1461
30808SOL    HW194677   3.574   9.881   8.887 -0.2332 -1.6624  0.9923
30808SOL    HW294678   3.519   9.881   9.028 -0.4034  1.1663  0.9721
30809SOL     OW94679   9.780   2.721   8.297 -0.0153 -0.2698 -0.1565
30809SOL    HW194680   9.744   2.754   8.380 -0.3246  2.0081 -1.1482
30809SOL    HW294681   9.707   2.674   8.257 -1.1428  1.9540 -0.8698
30810SOL     OW94682   0.109   8.585   1.793  0.3990  0.1342 -0.1782
30810SOL    HW194683   0.180   8.581   1.856  0.4584  1.1301 -0.1633
30810SOL    HW294684   0.145   8.545   1.714  0.5282 -0.5558  0.2212
30811SOL     OW94685   9.067   4.117   8.837  0.2815  0.4567 -0.6699
30811SOL    HW194686   8.976   4.147   8.843 -0.0808 -0.2848 -2.1191
30811SOL    HW294687   9.100   4.123   8.927 -1.0065  1.2942 -0.2226
30812SOL     OW94688   2.534   6.419  10.561  0.2165  0.4900 -0.0522
30812SOL    HW194689   2.465   6.362  10.595 -1.7261  1.3735 -2.2244
30812SOL    HW294690   2.490   6.503  10.547  2.0752  1.4597 -0.3685
30813SOL     OW94691   0.330   3.565   5.601 -0.2377  0.2704 -0.4176
30813SOL    HW194692   0.358   3.498   5.663  0.4537  0.5187 -0.4580
30813SOL    HW294693   0.235   3.554   5.596 -0.2653  0.0409  0.4425
30814SOL     OW94694   9.706   6.160   5.840  0.1379  0.0357  0.1189
30814SOL    HW194695   9.748   6.112   5.911  1.3315  0.5857 -0.1898
30814SOL    HW294696   9.778   6.206   5.797 -0.8267  1.1909 -0.2932
30815SOL     OW94697   3.004   3.360   1.566  0.0915 -0.6994  0.1703
30815SOL    HW194698   3.055   3.335   1.489  0.0394 -1.8169  0.4834
30815SOL    HW294699   3.066   3.406   1.622 -0.1573  1.2455 -1.0397
30816SOL     OW94700   6.320   2.271   1.714  0.0150 -0.2058  0.0465
30816SOL    HW194701   6.307   2.180   1.687 -1.0877 -0.0594  0.0376
30816SOL    HW294702   6.407   2.273   1.753 -0.0991 -1.3418  0.3706
30817SOL     OW94703   1.214   8.192   0.808 -0.3151 -0.3319  1.0686
30817SOL    HW194704   1.179   8.217   0.894  1.7416  0.3540  1.7621
30817SOL    HW294705   1.283   8.129   0.828 -0.3900 -0.8378 -0.1668
30818SOL     OW94706   0.581   8.110   9.727 -0.3457  0.3915  0.2115
30818SOL    HW194707   0.535   8.070   9.801 -2.1492  0.3795 -0.8652
30818SOL    HW294708   0.592   8.040   9.663 -0.2985  0.7857 -0.2240
30819SOL     OW94709   1.756   7.760   0.397 -0.3874 -0.1725 -0.0599
30819SOL    HW194710   1.813   7.810   0.338 -0.0684  1.7419  1.7661
30819SOL    HW294711   1.815   7.725   0.464 -0.9665 -0.8083  0.1327
30820SOL     OW94712   7.659   8.585   8.069  0.7945 -0.3071 -0.5365
30820SOL    HW194713   7.649   8.593   7.974 -0.2982  0.3867 -0.3743
30820SOL    HW294714   7.701   8.667   8.096  0.2579 -0.1024 -0.3111
30821SOL     OW94715   9.981   6.644   8.902  0.1364  0.5653 -0.1153
30821SOL    HW194716  10.059   6.671   8.951 -0.2818 -0.8507  1.4032
30821SOL    HW294717   9.981   6.549   8.907  0.2466  0.2865 -3.2524
30822SOL     OW94718   9.056   4.129   3.383 -0.0727 -0.3907 -0.3368
30822SOL    HW194719   9.121   4.177   3.332 -0.7507  1.7022  0.6738
30822SOL    HW294720   8.972   4.149   3.341 -0.6109  1.1464  1.3410
30823SOL     OW94721   1.951   2.326   7.219  0.1789  0.4968 -1.0409
30823SOL    HW194722   1.907   2.259   7.168 -3.1421  0.5427  1.3917
30823SOL    HW294723   2.018   2.279   7.269 -1.3802 -0.9204 -0.1835
30824SOL     OW94724   2.772   8.243   2.157  0.0888 -0.0745  0.0720
30824SOL    HW194725   2.785   8.216   2.248  0.7558 -1.1809 -0.3285
30824SOL    HW294726   2.707   8.313   2.162  0.2996  0.0569  1.4160
30825SOL     OW94727   6.904   9.811   4.405 -0.5772  0.0598  0.1756
30825SOL    HW194728   6.908   9.814   4.501 -0.7914  0.5817  0.1739
30825SOL    HW294729   6.932   9.898   4.378  0.9510 -0.5549 -0.3000
30826SOL     OW94730   6.286   7.877   3.693  0.3086  0.1470 -0.3170
30826SOL    HW194731   6.260   7.824   3.769 -1.8753 -0.2227 -1.2554
30826SOL    HW294732   6.303   7.813   3.624 -1.2114  0.5661 -1.1261
30827SOL     OW94733   4.858   8.544  10.441  0.0044  0.0874  0.1312
30827SOL    HW194734   4.948   8.541  10.409  0.5353  0.9422  1.4375
30827SOL    HW294735   4.816   8.612  10.388  0.1597 -0.2214 -0.3947
30828SOL     OW94736   4.262   0.328   0.071 -0.2141  0.7778 -0.3728
30828SOL    HW194737   4.294   0.408   0.029 -1.4587  1.6161  0.2079
30828SOL    HW294738   4.202   0.290   0.007  0.6922  0.0725 -0.8156
30829SOL     OW94739   6.792   7.823   8.391  0.5972 -0.0130 -0.3295
30829SOL    HW194740   6.743   7.847   8.469  0.4723 -0.0735 -0.3880
30829SOL    HW294741   6.845   7.748   8.417  0.5208 -0.0618 -0.3157
30830SOL     OW94742  10.530   9.625   4.744 -0.1466 -0.2751 -0.1945
30830SOL    HW194743  10.502   9.712   4.769  0.3403 -0.4664  1.0788
30830SOL    HW294744  10.450   9.580   4.718 -0.4231  0.4876 -0.6876
30831SOL     OW94745   7.336   8.615   6.004  0.0783  0.0871 -0.2113
30831SOL    HW194746   7.385   8.593   5.926  0.5519 -2.9854  0.7999
30831SOL    HW294747   7.250   8.574   5.991 -0.2074  0.4636  0.4124
30832SOL     OW94748   2.334   7.086   3.531  0.3024 -0.2597  0.0644
30832SOL    HW194749   2.380   7.006   3.509 -0.1282 -0.7360  0.8495
30832SOL    HW294750   2.318   7.079   3.625  0.8081  1.0307  0.2726
30833SOL     OW94751   5.763   8.584   3.997 -0.1346  0.0582  0.4342
30833SOL    HW194752   5.806   8.508   3.958  1.0443  1.2639 -0.7173
30833SOL    HW294753   5.802   8.591   4.085 -1.3149 -1.4705  1.1318
30834SOL     OW94754  10.458  10.544   8.487  0.3621  0.0160  0.6534
30834SOL    HW194755  10.546  10.554   8.450  0.9609 -2.3508  1.2370
30834SOL    HW294756  10.473  10.515   8.577 -0.9705 -1.3047  0.4930
30835SOL     OW94757   6.220   2.308   3.736 -0.2035 -0.1861  0.6166
30835SOL    HW194758   6.202   2.387   3.685 -0.4401 -1.9465 -2.2914
30835SOL    HW294759   6.134   2.279   3.766 -0.2887 -0.0854  0.4728
30836SOL     OW94760   4.680   9.426   9.786 -0.5240 -0.2045 -0.4915
30836SOL    HW194761   4.627   9.360   9.832 -0.8234  0.2836 -0.1249
30836SOL    HW294762   4.759   9.379   9.759  0.1513 -0.2613  1.4437
30837SOL     OW94763   6.362   7.794   7.073 -0.2770 -0.0637 -0.0257
30837SOL    HW194764   6.381   7.720   7.016 -0.6144  0.7493 -1.2121
30837SOL    HW294765   6.294   7.844   7.028 -0.9357  0.3204  1.3308
30838SOL     OW94766   1.228   7.789   1.730 -0.5172 -0.4302 -0.0270
30838SOL    HW194767   1.232   7.775   1.636 -2.5230  0.4560 -0.2699
30838SOL    HW294768   1.285   7.864   1.746  0.3851 -1.0107 -0.3922
30839SOL     OW94769   8.293   9.916   8.477 -0.0302 -0.3753  0.1141
30839SOL    HW194770   8.382   9.897   8.448  0.1021 -1.4190  1.1428
30839SOL    HW294771   8.249   9.831   8.478 -1.5002  0.2802 -1.7406
30840SOL     OW94772   5.143   4.192  10.515  0.0149 -0.2271  0.0426
30840SOL    HW194773   5.225   4.194  10.564  0.7139  0.8481 -1.0988
30840SOL    HW294774   5.097   4.271  10.543  0.3577  0.3230 -0.8731
30841SOL     OW94775   5.114   4.475   6.109 -0.1135 -0.2197  0.1379
30841SOL    HW194776   5.122   4.546   6.046  0.2818 -0.3204  0.0718
30841SOL    HW294777   5.052   4.414   6.070  0.6802 -0.6351 -0.4884
30842SOL     OW94778   5.604   9.101   9.051  0.1730  0.8573  0.4591
30842SOL    HW194779   5.666   9.089   8.980  0.0473  1.0419  0.3173
30842SOL    HW294780   5.540   9.030   9.038  1.0212 -0.0981  1.3293
30843SOL     OW94781   0.960   6.949   7.772  0.2413 -0.3934 -0.0135
30843SOL    HW194782   0.959   6.984   7.861  1.3931 -1.0162  0.2751
30843SOL    HW294783   1.024   7.003   7.726  0.4084 -0.7168 -0.1669
30844SOL     OW94784   6.746   4.702   2.896  0.0414 -0.5719  0.0069
30844SOL    HW194785   6.788   4.619   2.873  0.7632 -0.2041  0.0049
30844SOL    HW294786   6.702   4.684   2.980  0.0692 -0.9927 -0.0668
30845SOL     OW94787   7.286  10.394   0.020  0.2597 -0.5537 -0.4605
30845SOL    HW194788   7.296  10.389   0.115  1.3857  1.1325 -0.4590
30845SOL    HW294789   7.301  10.305  -0.010  3.5050 -0.5132  0.6626
30846SOL     OW94790   4.846   0.894   3.281  0.3010 -0.0782  0.0507
30846SOL    HW194791   4.866   0.962   3.217  0.1324 -0.2721 -0.2069
30846SOL    HW294792   4.776   0.933   3.335  0.2741 -0.0093 -0.0330
30847SOL     OW94793  10.488   1.778   0.496 -0.3197  0.2121 -0.3881
30847SOL    HW194794  10.571   1.805   0.456  0.4103 -0.8802  0.3720
30847SOL    HW294795  10.444   1.861   0.517  1.0968  0.8267  0.2839
30848SOL     OW94796   0.730   6.325   4.096  0.1171  0.2482  0.0859
30848SOL    HW194797   0.676   6.382   4.150 -0.1281 -1.2713  1.5070
30848SOL    HW294798   0.690   6.239   4.104  2.7806 -0.9787  1.3358
30849SOL     OW94799   5.283   7.509   5.410  0.2132  0.7466 -0.3044
30849SOL    HW194800   5.309   7.470   5.326  1.7710  0.2359  0.3869
30849SOL    HW294801   5.198   7.551   5.391  1.1699  1.8752 -2.4986
30850SOL     OW94802   9.602   4.177  10.053 -0.0654  0.5977 -0.8905
30850SOL    HW194803   9.624   4.122  10.129 -2.7354 -0.5275 -0.8104
30850SOL    HW294804   9.612   4.119   9.978 -0.5893  0.6841 -1.0341
30851SOL     OW94805   9.489   9.683   1.052  0.2832 -0.5066  0.5193
30851SOL    HW194806   9.433   9.639   0.988  1.6668 -0.7926 -0.5328
30851SOL    HW294807   9.542   9.743   1.000  0.2900  0.4786  1.6186
30852SOL     OW94808   1.323   0.975   0.391 -0.2295  0.0840  0.2461
30852SOL    HW194809   1.381   1.050   0.406 -1.2500  0.8005  0.7464
30852SOL    HW294810   1.322   0.929   0.475  1.0263 -0.9810 -0.2870
30853SOL     OW94811   6.581   4.589   1.643 -0.2687 -0.2969 -0.1334
30853SOL    HW194812   6.568   4.657   1.709 -0.3719  1.2441 -1.6777
30853SOL    HW294813   6.513   4.524   1.662 -0.5881  0.3386  0.9943
30854SOL     OW94814   9.395   7.944   4.652 -0.0159 -0.3872 -0.1259
30854SOL    HW194815   9.413   8.038   4.654  1.7530 -0.7032  0.6082
30854SOL    HW294816   9.409   7.919   4.560 -1.1586  0.1620 -0.4635
30855SOL     OW94817   1.278   5.263   1.504  0.4848 -0.8925  0.1390
30855SOL    HW194818   1.224   5.265   1.583 -0.3993  1.3634 -0.4424
30855SOL    HW294819   1.227   5.212   1.441 -0.1758 -0.2547  0.1458
30856SOL     OW94820   5.569  10.452   3.113 -1.2955  0.3232  0.1844
30856SOL    HW194821   5.597  10.454   3.021  0.3220  0.8175  0.6743
30856SOL    HW294822   5.639  10.495   3.161 -1.4137 -1.2228  1.8470
30857SOL     OW94823   0.726   4.923   6.468 -0.1052  0.2246 -0.6048
30857SOL    HW194824   0.713   4.834   6.434  1.0685  0.1550 -0.9333
30857SOL    HW294825   0.814   4.947   6.438  0.1802  0.9289  0.7466
30858SOL     OW94826   2.675   7.104   8.129 -0.2701  0.0675 -0.5817
30858SOL    HW194827   2.720   7.051   8.195 -3.2899 -3.2492 -0.9300
30858SOL    HW294828   2.699   7.064   8.045 -0.9354  0.5964 -1.0356
30859SOL     OW94829   7.346   0.905   7.131  0.4691 -0.0202  0.1116
30859SOL    HW194830   7.295   0.837   7.089  0.1096  0.2738  0.0676
30859SOL    HW294831   7.316   0.905   7.222 -1.9577  2.2835 -0.5776
30860SOL     OW94832   9.183   9.893  10.386  0.5532  0.6458  0.7384
30860SOL    HW194833   9.267   9.937  10.397  1.7011 -1.7888  2.6156
30860SOL    HW294834   9.148   9.886  10.475 -1.2294  0.7868  0.0923
30861SOL     OW94835   1.959   5.448   0.921 -0.0447 -0.0300 -0.0102
30861SOL    HW194836   1.959   5.410   1.009  0.5942  0.5288  0.2356
30861SOL    HW294837   2.044   5.492   0.913  0.4256 -1.0990 -1.3578
30862SOL     OW94838   0.075   4.516   5.366 -0.0704  0.3821  0.3037
30862SOL    HW194839   0.161   4.476   5.352  0.1762  0.5115  1.3601
30862SOL    HW294840   0.029   4.504   5.282 -0.2412 -2.6468  0.7110
30863SOL     OW94841   4.502   7.156   8.967 -0.0447  0.4160 -0.0123
30863SOL    HW194842   4.571   7.131   8.906 -0.2301  1.8886 -0.8721
30863SOL    HW294843   4.519   7.249   8.985 -2.0512  0.9306 -0.6055
30864SOL     OW94844   9.042   6.241   9.634  0.4200 -0.0050 -0.1986
30864SOL    HW194845   9.064   6.158   9.591 -0.9801 -0.8854  0.7338
30864SOL    HW294846   8.949   6.252   9.618  0.7180  1.7953 -0.9266
30865SOL     OW94847   7.995   8.309   2.794  0.2422  0.4950  0.5345
30865SOL    HW194848   7.910   8.265   2.803  1.1239 -1.1433  1.2433
30865SOL    HW294849   7.991   8.381   2.857 -0.2612 -0.1875  1.3099
30866SOL     OW94850   2.748   2.394   7.872 -0.0880 -0.1237 -0.5990
30866SOL    HW194851   2.694   2.334   7.922 -2.8217  1.3304 -1.5975
30866SOL    HW294852   2.710   2.394   7.784 -0.0408  2.7431 -0.7225
30867SOL     OW94853   8.147   4.801   6.715 -0.1304 -0.3585 -0.4708
30867SOL    HW194854   8.197   4.857   6.656  0.4491  1.2975  1.4679
30867SOL    HW294855   8.202   4.792   6.792 -1.3099 -1.5550  0.2876
30868SOL     OW94856  10.654   1.484   1.438  0.5347 -0.2674 -0.3940
30868SOL    HW194857  10.603   1.478   1.358 -1.3431 -0.7233  0.7854
30868SOL    HW294858  10.633   1.571   1.473  0.9938 -0.2527 -0.1411
30869SOL     OW94859   2.073   5.401   5.839 -0.1642  0.3918  0.2399
30869SOL    HW194860   2.148   5.370   5.788  0.5351 -0.0001  1.4740
30869SOL    HW294861   2.052   5.328   5.897 -1.0385  0.7785  0.4237
30870SOL     OW94862   5.131   9.965   7.164 -0.5508 -0.0594  0.0598
30870SOL    HW194863   5.129   9.874   7.134  0.4936  0.0449 -0.3731
30870SOL    HW294864   5.170  10.014   7.091  0.2801  0.4873  0.8402
30871SOL     OW94865   7.760   4.790   0.853  0.4818 -0.1128 -0.3023
30871SOL    HW194866   7.676   4.815   0.814  0.4821 -1.6899 -1.3633
30871SOL    HW294867   7.761   4.835   0.938 -0.6180  1.3757 -1.0365
30872SOL     OW94868   8.606   0.731   4.071  0.6233 -0.4401  0.5362
30872SOL    HW194869   8.648   0.814   4.093  1.8299 -0.9196  0.1348
30872SOL    HW294870   8.576   0.696   4.155  1.8190 -0.4916  0.9554
30873SOL     OW94871   8.692   7.852   4.163  0.1697  0.3584 -0.1184
30873SOL    HW194872   8.653   7.769   4.191 -1.0278  1.5178  1.9466
30873SOL    HW294873   8.698   7.845   4.068 -0.4427 -1.8392 -0.0599
30874SOL     OW94874   9.650   6.629   0.715  0.2819  0.2864 -0.1355
30874SOL    HW194875   9.720   6.586   0.665  1.5411 -1.1950  2.6891
30874SOL    HW294876   9.689   6.711   0.743  0.1269  0.4152 -0.2986
30875SOL     OW94877   9.587   6.197   3.636 -0.0655 -0.0927 -0.2368
30875SOL    HW194878   9.546   6.204   3.722  1.4346  0.2195  0.4722
30875SOL    HW294879   9.661   6.138   3.649 -0.6075 -1.1398 -1.6348
30876SOL     OW94880  10.098   9.452   6.385 -0.3459 -0.1905  0.0504
30876SOL    HW194881  10.093   9.361   6.354 -0.7066 -0.1915  0.1019
30876SOL    HW294882  10.035   9.455   6.458 -2.2407  0.7303 -1.5392
30877SOL     OW94883   3.188   2.297   0.865  0.2764 -0.2027 -0.1324
30877SOL    HW194884   3.157   2.385   0.844  0.9090 -0.0622 -0.4952
30877SOL    HW294885   3.115   2.240   0.842 -0.0858  0.2080 -0.0282
30878SOL     OW94886   6.207   8.715   7.061  0.2205  0.0717 -0.0336
30878SOL    HW194887   6.290   8.755   7.033 -0.0789 -0.7365 -2.1908
30878SOL    HW294888   6.142   8.749   7.000 -0.5957 -1.2429  0.0717
30879SOL     OW94889   5.909   6.442   3.784 -0.1249  0.4316  0.3363
30879SOL    HW194890   5.969   6.420   3.713  2.2764  1.7742  1.7930
30879SOL    HW294891   5.904   6.362   3.837  1.2917  0.5822  0.7497
30880SOL     OW94892   2.055   1.851   8.739  0.0365  0.5385  0.1276
30880SOL    HW194893   2.040   1.788   8.810  1.0092  1.0558  0.8209
30880SOL    HW294894   2.053   1.799   8.659  3.4477 -0.8985  0.8437
30881SOL     OW94895   8.414   8.220   1.751 -0.0887 -0.0661 -0.1473
30881SOL    HW194896   8.410   8.180   1.838 -0.0572 -1.1669 -0.6351
30881SOL    HW294897   8.498   8.266   1.750 -1.2683  2.3171  1.3583
30882SOL     OW94898   2.005   1.707   7.272 -0.0052 -0.2889 -0.2353
30882SOL    HW194899   1.985   1.796   7.302  0.4356 -1.1335  3.0352
30882SOL    HW294900   2.100   1.708   7.256 -0.2316  0.1511 -1.6927
30883SOL     OW94901   0.064   3.694   7.569 -0.2569  0.2015 -0.4598
30883SOL    HW194902   0.022   3.735   7.493  1.6793 -0.7787 -2.1784
30883SOL    HW294903   0.152   3.672   7.538 -0.0039 -1.9105  1.4900
30884SOL     OW94904   5.799   4.442   9.060 -0.2951  0.3200 -0.4094
30884SOL    HW194905   5.722   4.474   9.107 -0.6761  0.5916 -1.1965
30884SOL    HW294906   5.774   4.447   8.968  0.2608 -0.6686 -0.6194
30885SOL     OW94907   8.726  10.375   3.654  0.0086  0.1276  0.3285
30885SOL    HW194908   8.740  10.433   3.579 -0.3702 -0.1404  0.0511
30885SOL    HW294909   8.654  10.317   3.627 -0.4941  0.3807  1.0949
30886SOL     OW94910   9.373   1.009   7.322  0.1791  0.4035  0.7008
30886SOL    HW194911   9.299   0.959   7.287  0.3249  1.3415 -1.1084
30886SOL    HW294912   9.342   1.043   7.406 -1.1866  0.1848  0.3144
30887SOL     OW94913   2.254   0.357   7.738  0.0807 -0.1479  0.0617
30887SOL    HW194914   2.167   0.392   7.724 -0.7071 -0.7975  2.6658
30887SOL    HW294915   2.248   0.265   7.714  0.4878  0.1271 -1.1455
30888SOL     OW94916   9.774   8.404   9.839  0.3238 -0.2977 -0.3201
30888SOL    HW194917   9.719   8.327   9.856 -0.4154 -0.1894 -1.9604
30888SOL    HW294918   9.716   8.464   9.791  1.9027 -0.2730 -2.3467
30889SOL     OW94919   1.655   1.259   1.175  0.6679  0.0978 -0.0061
30889SOL    HW194920   1.626   1.279   1.264  0.6308  0.2764 -0.0579
30889SOL    HW294921   1.741   1.300   1.168  0.2659  0.9311 -0.3690
30890SOL     OW94922   7.739   3.498   9.975 -0.6145  0.3413 -0.0344
30890SOL    HW194923   7.761   3.412  10.008  0.8758  0.8284  0.3119
30890SOL    HW294924   7.745   3.556  10.051  0.5598  1.0861 -0.6473
30891SOL     OW94925   1.202   5.907   3.938 -0.1032  0.4486 -0.2752
30891SOL    HW194926   1.183   5.992   3.979  0.0576  0.4336 -0.1704
30891SOL    HW294927   1.178   5.842   4.004 -1.4960  0.3594 -0.8425
30892SOL     OW94928   5.909   4.344   8.391 -0.2857 -0.0300  0.0990
30892SOL    HW194929   5.940   4.256   8.413  1.1804  0.6869  1.0325
30892SOL    HW294930   5.969   4.374   8.323 -0.3497  0.5157  0.2806
30893SOL     OW94931  10.281   5.373   2.251 -0.3670  0.1014  0.0684
30893SOL    HW194932  10.241   5.286   2.258  0.8451 -0.3982  1.3040
30893SOL    HW294933  10.295   5.400   2.342  1.9361  0.2917 -0.2926
30894SOL     OW94934   9.128   5.938   8.398  0.4976 -0.0132 -0.1991
30894SOL    HW194935   9.167   5.880   8.463  1.0200  2.7967  2.2410
30894SOL    HW294936   9.036   5.945   8.423  0.2039 -0.5361 -1.0936
30895SOL     OW94937   7.857   5.862   0.354 -0.7675  0.5513  0.1464
30895SOL    HW194938   7.884   5.866   0.446  0.4429  1.1833 -0.2063
30895SOL    HW294939   7.774   5.909   0.351 -0.5990  0.9088  0.8520
30896SOL     OW94940   6.399   6.056   4.441 -0.1019  0.3960  0.6888
30896SOL    HW194941   6.400   5.999   4.518 -0.8346 -0.2004  0.2684
30896SOL    HW294942   6.308   6.055   4.411  0.2020  0.5045 -0.2719
30897SOL     OW94943  10.625   3.269   1.258 -0.6275  0.3494  0.4093
30897SOL    HW194944  10.588   3.351   1.224 -0.9493 -0.1266 -0.4232
30897SOL    HW294945  10.688   3.242   1.192  0.5802  0.6796  1.3908
30898SOL     OW94946   6.157   3.105   2.999  0.3722  0.6347 -0.2087
30898SOL    HW194947   6.242   3.063   3.007  0.3275  0.6876  0.6858
30898SOL    HW294948   6.125   3.111   3.089  0.2450  2.3010 -0.3260
30899SOL     OW94949   7.600   0.578   3.381  0.5966 -0.6799  0.1243
30899SOL    HW194950   7.594   0.646   3.314 -1.2758 -0.4097  0.5204
30899SOL    HW294951   7.509   0.557   3.402  1.1503 -1.8851  1.4595
30900SOL     OW94952   9.635   4.170   0.997 -0.4141  0.3444  0.4430
30900SOL    HW194953   9.611   4.262   0.981  0.9336  0.4111 -1.5973
30900SOL    HW294954   9.580   4.120   0.936 -1.9833 -0.3724  2.3567
30901SOL     OW94955  10.187   5.512   5.345 -0.6457 -0.0495 -0.1577
30901SOL    HW194956  10.103   5.540   5.307 -0.3239  0.2724 -0.6512
30901SOL    HW294957  10.234   5.474   5.271 -0.3670 -0.2615  0.1279
30902SOL     OW94958   4.965   5.328   7.734 -0.1833  0.1475  0.0676
30902SOL    HW194959   5.060   5.329   7.719 -0.4015 -0.3129 -1.5858
30902SOL    HW294960   4.929   5.375   7.660 -1.2110  1.3731  1.3075
30903SOL     OW94961   8.659   9.502   1.351  0.6068  0.3862 -0.3315
30903SOL    HW194962   8.688   9.481   1.440 -0.9429  1.9017  0.5973
30903SOL    HW294963   8.605   9.427   1.326 -0.0749  0.5324  0.5985
30904SOL     OW94964   5.561   3.797   1.594 -0.6468 -0.4344  0.3953
30904SOL    HW194965   5.578   3.767   1.505  1.2328 -0.5514  0.7508
30904SOL    HW294966   5.613   3.739   1.649  2.0465  2.4676  1.2172
30905SOL     OW94967   6.010   4.659   8.060 -0.5641  0.1778  0.0558
30905SOL    HW194968   5.950   4.585   8.048  0.6780 -0.5696 -2.2185
30905SOL    HW294969   5.955   4.737   8.050 -1.2609 -0.4879 -1.7077
30906SOL     OW94970   6.467   0.982   8.760  0.0355 -0.1949 -0.1913
30906SOL    HW194971   6.379   1.019   8.773  0.2335  0.2295 -0.0251
30906SOL    HW294972   6.517   1.054   8.722  0.9404  0.3651  1.8683
30907SOL     OW94973   0.963   0.055   4.680 -0.1843  0.1267 -0.7368
30907SOL    HW194974   0.884   0.035   4.729 -0.4870  1.5973 -0.5745
30907SOL    HW294975   0.954   0.006   4.598  0.2935 -2.2938  0.5857
30908SOL     OW94976   8.171   8.229  10.546  0.5103 -0.1850 -0.3211
30908SOL    HW194977   8.087   8.192  10.519  1.0234  0.0276 -2.3980
30908SOL    HW294978   8.148   8.306  10.599 -0.6341  0.3305 -1.5078
30909SOL     OW94979   4.553   5.531   3.498  0.2912 -0.5365  0.2041
30909SOL    HW194980   4.606   5.602   3.462  1.2117 -0.6932  1.2301
30909SOL    HW294981   4.587   5.452   3.455 -0.3859 -0.4412 -0.5433
30910SOL     OW94982   2.837   5.265   3.100  0.1074 -0.1926  0.2446
30910SOL    HW194983   2.851   5.288   3.008 -1.0574  2.1795  0.5863
30910SOL    HW294984   2.744   5.241   3.104  0.4219 -1.4250  0.6325
30911SOL     OW94985  10.479   2.917   9.156 -0.3958  0.4047  0.3673
30911SOL    HW194986  10.486   2.822   9.142 -0.4455  0.2198  1.4604
30911SOL    HW294987  10.420   2.925   9.231 -2.1653  1.4020 -1.0608
30912SOL     OW94988   6.393   4.923   1.138 -0.0848 -0.0996 -0.6313
30912SOL    HW194989   6.418   5.002   1.186 -0.2473 -0.0908 -0.5585
30912SOL    HW294990   6.308   4.899   1.175  0.8172 -1.3838  0.6630
30913SOL     OW94991   7.852   1.559   5.116 -0.4132  0.3271  0.6690
30913SOL    HW194992   7.898   1.638   5.143 -0.8255  0.9620 -0.3858
30913SOL    HW294993   7.917   1.490   5.121  0.7767  1.2504 -1.0910
30914SOL     OW94994   6.126   3.326   7.901  0.0799  0.0510 -0.1778
30914SOL    HW194995   6.036   3.333   7.869  0.9485  3.7888 -2.4550
30914SOL    HW294996   6.169   3.267   7.838 -0.7039 -1.9289  1.0459
30915SOL     OW94997   9.075   6.556   8.904 -0.3241 -0.7726  0.2788
30915SOL    HW194998   9.128   6.490   8.948  0.4019 -0.5503 -0.2487
30915SOL    HW294999   9.052   6.619   8.973 -0.1364 -1.0158  0.5629
30916SOL     OW95000   4.332   9.477  10.080 -0.4486 -0.1082  0.5169
30916SOL    HW195001   4.306   9.566  10.057 -0.0884 -0.2298 -0.4170
30916SOL    HW295002   4.377   9.486  10.164  0.2564  0.7156  0.0703
30917SOL     OW95003   7.500   6.580   0.299  0.2083 -0.3228  0.3566
30917SOL    HW195004   7.425   6.602   0.354  0.5323  0.6852  0.4065
30917SOL    HW295005   7.512   6.656   0.243  1.6740 -0.1464  0.8830
30918SOL     OW95006   0.148   0.347   7.441  0.0654  0.1231 -0.0793
30918SOL    HW195007   0.218   0.304   7.392  1.7618 -0.5115  2.6379
30918SOL    HW295008   0.165   0.440   7.430 -0.3273  0.0268 -1.6290
30919SOL     OW95009   6.275   2.028   3.185 -0.3961 -0.5378 -0.2082
30919SOL    HW195010   6.330   2.045   3.262 -1.3633  1.2384  0.1438
30919SOL    HW295011   6.332   2.045   3.110  0.2729 -1.3201  0.1131
30920SOL     OW95012   7.171   3.684   8.665 -0.1510  0.5416  0.0996
30920SOL    HW195013   7.155   3.653   8.755  0.2651 -0.1670 -0.0648
30920SOL    HW295014   7.265   3.695   8.660  0.0721 -1.3390 -0.8328
30921SOL     OW95015  10.012   3.728  10.616  0.4536 -0.8608 -0.0487
30921SOL    HW195016   9.967   3.649  10.647  0.1236 -0.5354  0.3071
30921SOL    HW295017   9.952   3.766  10.552 -1.0480  1.0134  2.3237
30922SOL     OW95018   4.176   7.554   4.563 -0.1400  0.1514 -0.3474
30922SOL    HW195019   4.157   7.504   4.642  0.2431 -0.1741 -0.4582
30922SOL    HW295020   4.229   7.495   4.509  0.8529  0.8912 -0.2106
30923SOL     OW95021   9.921  10.593   1.242  0.7553 -0.0667  0.5021
30923SOL    HW195022   9.987  10.599   1.173 -0.3696  1.1978 -0.5025
30923SOL    HW295023   9.838  10.613   1.198  0.2482  3.1334  2.5757
30924SOL     OW95024   9.910   1.224   4.524 -0.7710  0.2085 -0.1366
30924SOL    HW195025   9.974   1.293   4.542  0.6647 -1.2285  0.5736
30924SOL    HW295026   9.876   1.244   4.437 -0.3672  1.7660  0.0371
30925SOL     OW95027   6.773   9.517   7.714  0.2832 -0.3720  0.2821
30925SOL    HW195028   6.771   9.570   7.634 -1.3723  0.1798  0.6365
30925SOL    HW295029   6.736   9.432   7.686  0.8338 -0.5931  0.2099
30926SOL     OW95030   0.179   6.075   9.696  0.1760 -0.2524 -0.3843
30926SOL    HW195031   0.122   6.130   9.642  0.2213 -0.2956 -0.4761
30926SOL    HW295032   0.245   6.041   9.635 -0.1988 -0.8861 -0.4436
30927SOL     OW95033   5.439   0.346   0.102  0.3505 -0.2940 -0.6339
30927SOL    HW195034   5.375   0.329   0.033 -0.5529  2.8583 -0.6822
30927SOL    HW295035   5.523   0.351   0.056 -0.1302  0.9112 -1.4166
30928SOL     OW95036   6.855   2.439   1.451 -0.4451 -0.0984  0.4391
30928SOL    HW195037   6.871   2.532   1.468 -0.7052 -0.3392  2.1718
30928SOL    HW295038   6.895   2.393   1.525 -0.6624 -1.3461 -0.1846
30929SOL     OW95039   8.315   8.716   3.156 -0.5997  0.3427 -0.2787
30929SOL    HW195040   8.284   8.637   3.112 -0.3192 -0.5451  1.0591
30929SOL    HW295041   8.280   8.709   3.245 -0.1281  1.4637  0.0103
30930SOL     OW95042   5.101   5.918   6.629  0.4073 -0.0257  0.1522
30930SOL    HW195043   5.040   5.897   6.701  1.7328  0.8499  1.5847
30930SOL    HW295044   5.079   6.008   6.605  0.4679 -0.0619 -0.0399
30931SOL     OW95045   7.400   9.057   9.768 -0.6119  0.2587 -0.4718
30931SOL    HW195046   7.405   9.151   9.786 -0.5709  0.3279 -0.8336
30931SOL    HW295047   7.485   9.034   9.732 -0.6778  0.1148 -0.5378
30932SOL     OW95048  10.238   5.242   1.448 -0.3039  0.4323 -0.2630
30932SOL    HW195049  10.170   5.266   1.511 -0.5679 -0.7466 -0.0649
30932SOL    HW295050  10.190   5.201   1.376  0.1665 -0.0872 -0.2877
30933SOL     OW95051   0.097   9.494   2.927 -0.2996 -0.0258 -0.0086
30933SOL    HW195052   0.051   9.453   3.000 -0.5591 -0.5361 -0.4502
30933SOL    HW295053   0.189   9.497   2.955 -0.2849 -0.8482  0.0586
30934SOL     OW95054   2.984   2.057   5.055  0.2796  0.3908 -0.6156
30934SOL    HW195055   3.000   2.126   4.990 -0.7109 -0.0720 -1.3794
30934SOL    HW295056   3.071   2.026   5.079  0.6747  0.8619 -1.4085
30935SOL     OW95057   6.573   9.723   0.192  0.2307  0.6588 -0.4739
30935SOL    HW195058   6.658   9.678   0.200  0.0322  0.5136  1.3697
30935SOL    HW295059   6.596   9.816   0.191  0.4350  0.6121 -0.3477
30936SOL     OW95060   9.992   6.374   0.133 -0.1539 -0.1681 -0.4178
30936SOL    HW195061  10.074   6.385   0.181 -0.9326  0.1802  0.8785
30936SOL    HW295062  10.002   6.431   0.057  0.6155  0.2505 -0.0187
30937SOL     OW95063   8.794   2.565   9.514 -0.3388  0.1379 -0.5573
30937SOL    HW195064   8.882   2.534   9.492  0.0487 -0.5123  1.6431
30937SOL    HW295065   8.742   2.485   9.522 -0.4893  0.3403  0.6324
30938SOL     OW95066   9.998   1.735   3.251 -0.0175 -0.8796 -0.5569
30938SOL    HW195067   9.999   1.821   3.293 -0.1477 -0.7218 -0.8705
30938SOL    HW295068  10.087   1.724   3.217  0.9811 -2.2459  2.1983
30939SOL     OW95069   6.626   6.484   8.744 -0.1142  0.6310  0.1743
30939SOL    HW195070   6.601   6.512   8.832 -0.8690 -0.6953  0.4169
30939SOL    HW295071   6.712   6.443   8.755  0.3996  1.6419  0.0425
30940SOL     OW95072   7.305   8.779   0.861 -0.6645 -0.1617  0.8075
30940SOL    HW195073   7.232   8.828   0.901 -0.8248 -1.8466  2.8008
30940SOL    HW295074   7.365   8.762   0.934  1.7419  1.0780 -0.7636
30941SOL     OW95075   7.500   9.663   2.212 -0.0028  0.2394  0.2830
30941SOL    HW195076   7.521   9.576   2.246 -0.2237  0.0420 -0.0856
30941SOL    HW295077   7.501   9.719   2.289 -1.1527 -0.3184  0.7178
30942SOL     OW95078   9.379   6.952   9.322 -1.2096  0.2234  0.6760
30942SOL    HW195079   9.385   6.965   9.417  1.0975 -1.5902  0.8666
30942SOL    HW295080   9.425   7.026   9.284 -1.5476  0.5985  0.9923
30943SOL     OW95081   0.679   3.230   9.664  0.3920 -0.4442 -0.2743
30943SOL    HW195082   0.710   3.279   9.588  0.1929  0.7026  0.3616
30943SOL    HW295083   0.584   3.241   9.662  0.5058  1.0403  1.0698
30944SOL     OW95084   3.326   6.452   0.811 -0.2493 -0.7871 -0.5367
30944SOL    HW195085   3.353   6.365   0.780  3.8632  0.5357 -1.3132
30944SOL    HW295086   3.395   6.478   0.872 -1.7533  1.6554  0.2480
30945SOL     OW95087   0.045   8.683   9.933 -0.0152 -0.2419 -0.0277
30945SOL    HW195088   0.030   8.773   9.961  2.4099  0.0850  0.4388
30945SOL    HW295089   0.068   8.690   9.841 -3.1244 -0.8182 -0.9709
30946SOL     OW95090   1.795   3.710   0.555  0.0461  0.2650  0.2098
30946SOL    HW195091   1.730   3.757   0.607  0.1617  0.0021  0.5986
30946SOL    HW295092   1.863   3.775   0.538  0.2143  0.2420  0.7592
30947SOL     OW95093   9.987   1.688   1.341 -0.0398 -0.2605 -0.1792
30947SOL    HW195094   9.963   1.626   1.273 -0.2389 -0.7721  0.3527
30947SOL    HW295095  10.082   1.682   1.348  0.0547  0.3044 -0.8927
30948SOL     OW95096   9.097   6.669   7.887  0.2116 -0.0253  0.2863
30948SOL    HW195097   9.169   6.670   7.950  1.4453 -1.6346 -1.0278
30948SOL    HW295098   9.118   6.598   7.827 -2.5094 -0.5697 -0.1398
30949SOL     OW95099   5.742   0.439   8.877  0.3963 -0.1521  0.1960
30949SOL    HW195100   5.740   0.462   8.784 -0.4116  0.9607  0.4653
30949SOL    HW295101   5.741   0.343   8.878 -1.9722 -0.2234 -0.9520
30950SOL     OW95102   1.910   0.480   7.978  0.4689 -0.2829 -0.1280
30950SOL    HW195103   1.894   0.401   8.029  1.9263 -0.5787 -0.1129
30950SOL    HW295104   1.923   0.549   8.044  0.5153 -0.2909 -0.1290
30951SOL     OW95105   6.698   0.330   8.102 -0.1003 -0.5850 -0.2891
30951SOL    HW195106   6.694   0.406   8.160  0.4172 -0.1247 -0.8400
30951SOL    HW295107   6.736   0.364   8.021 -1.2022 -1.1256 -1.0504
30952SOL     OW95108  10.423   4.322   8.724 -0.0922 -0.4253 -0.2115
30952SOL    HW195109  10.436   4.228   8.733 -0.4479 -0.7294 -2.3207
30952SOL    HW295110  10.408   4.335   8.630  0.8535  1.8411 -0.1077
30953SOL     OW95111   2.380   9.227   6.668 -0.0827 -0.0194 -0.5022
30953SOL    HW195112   2.434   9.305   6.659  1.0903 -0.3434  2.5664
30953SOL    HW295113   2.290   9.260   6.678 -0.3469  0.6004 -3.8082
30954SOL     OW95114   7.121   4.810   1.301 -0.2193  0.0657  0.5417
30954SOL    HW195115   7.085   4.844   1.383 -0.0452  1.2439  0.1441
30954SOL    HW295116   7.211   4.843   1.299 -0.0899 -0.3108  0.0791
30955SOL     OW95117   5.723   4.713   8.676 -0.1372 -0.4634 -0.2791
30955SOL    HW195118   5.763   4.645   8.730 -0.6090 -1.2735 -0.9223
30955SOL    HW295119   5.749   4.690   8.586 -0.5852  0.0077 -0.5352
30956SOL     OW95120   4.538   7.435   9.112  0.1061 -0.7701 -0.0830
30956SOL    HW195121   4.452   7.444   9.152 -0.0041 -1.1613 -0.2216
30956SOL    HW295122   4.596   7.411   9.184  0.8749  2.9899  0.7581
30957SOL     OW95123   4.721   3.238   6.321  0.5013  0.3830  0.6830
30957SOL    HW195124   4.654   3.232   6.254  0.3935  0.0726  0.8168
30957SOL    HW295125   4.704   3.165   6.380  1.6436 -0.3967  0.0918
30958SOL     OW95126   9.975   3.026   6.482 -0.2512  0.4188 -0.1316
30958SOL    HW195127  10.009   3.044   6.570 -0.8271  1.1370 -0.0448
30958SOL    HW295128  10.053   3.003   6.431  0.2455  1.1030  0.2944
30959SOL     OW95129   7.593   3.823   5.968  0.2882 -0.5490 -0.4564
30959SOL    HW195130   7.688   3.835   5.969  0.2613 -0.3423 -0.4183
30959SOL    HW295131   7.563   3.877   5.895  0.1082  0.0548  0.0632
30960SOL     OW95132   0.368   3.167   4.029 -0.0532  0.2469 -0.3124
30960SOL    HW195133   0.291   3.113   4.012  0.2533 -0.2625 -0.0940
30960SOL    HW295134   0.396   3.142   4.117 -0.7986  1.8485  0.4327
30961SOL     OW95135   0.112   6.833   9.972 -0.1388  0.6035 -0.1520
30961SOL    HW195136   0.178   6.868  10.032  0.6795  1.8063 -1.6811
30961SOL    HW295137   0.091   6.747  10.007  0.3292  1.2357  1.8243
30962SOL     OW95138   2.566   0.526  10.454 -0.5884 -0.5493  0.0726
30962SOL    HW195139   2.651   0.529  10.498 -0.6064  2.6805  0.1487
30962SOL    HW295140   2.508   0.484  10.517  0.2157  0.5295  1.6090
30963SOL     OW95141   8.115   8.411  10.068 -0.2450 -0.2431 -0.2423
30963SOL    HW195142   8.077   8.336  10.022 -1.8094 -0.3645  1.1293
30963SOL    HW295143   8.049   8.434  10.133  2.3041 -0.8600  2.8070
30964SOL     OW95144   7.797   0.119   4.237 -0.0470  0.0555  0.6457
30964SOL    HW195145   7.729   0.119   4.170 -0.9660  0.6652  1.5451
30964SOL    HW295146   7.866   0.173   4.202 -0.5754  0.4727  0.2353
30965SOL     OW95147   8.030   6.099   6.013 -0.0595  0.3237  0.5849
30965SOL    HW195148   8.023   6.148   5.931 -0.8444 -0.8794 -0.0927
30965SOL    HW295149   7.940   6.072   6.032  0.3863 -1.1514  0.7251
30966SOL     OW95150   7.886   7.529   0.865  0.2083 -0.2805 -0.1247
30966SOL    HW195151   7.958   7.580   0.902  0.2170 -0.1670 -0.2963
30966SOL    HW295152   7.903   7.528   0.771 -0.3753  0.3236 -0.2462
30967SOL     OW95153   6.402   5.541   5.520 -0.2102 -0.2179 -0.4221
30967SOL    HW195154   6.379   5.453   5.551  0.1909 -0.4259 -0.7068
30967SOL    HW295155   6.393   5.536   5.425 -0.3718  0.1039 -0.4224
30968SOL     OW95156   2.036   3.151   6.265  0.6527 -0.6843  0.1818
30968SOL    HW195157   2.127   3.149   6.294  0.9235  0.0166 -0.5654
30968SOL    HW295158   2.025   3.071   6.213  1.5495  0.3264 -1.6753
30969SOL     OW95159   9.326   6.975   2.844  0.8780  0.3482  0.3884
30969SOL    HW195160   9.405   7.001   2.891 -0.1474  1.8037  1.3872
30969SOL    HW295161   9.281   7.057   2.824  1.1160 -0.1922 -2.9886
30970SOL     OW95162   7.381  10.243   4.383 -0.9923  0.2361  0.3865
30970SOL    HW195163   7.406  10.209   4.297 -0.6811 -0.5928  0.7825
30970SOL    HW295164   7.457  10.224   4.439 -1.6511 -0.3682  1.1191
30971SOL     OW95165   9.774   3.649   1.208  0.6690 -0.2816 -0.3408
30971SOL    HW195166   9.806   3.576   1.155 -1.9643 -0.2460 -2.2112
30971SOL    HW295167   9.791   3.727   1.155  0.0260  0.0144 -0.1238
30972SOL     OW95168   9.163   8.016   6.771  0.4856 -0.2017 -0.2296
30972SOL    HW195169   9.126   8.065   6.845 -0.9720  1.5295 -1.9923
30972SOL    HW295170   9.240   8.068   6.745 -1.8052  2.2133 -2.9466
30973SOL     OW95171   9.015   6.661   2.625 -0.6281  0.6619  0.3087
30973SOL    HW195172   9.016   6.615   2.541 -1.2068  0.4063  0.4408
30973SOL    HW295173   9.005   6.592   2.690  1.5585  0.6703  0.7273
30974SOL     OW95174  10.564   0.468   0.633 -0.3276  0.2211  0.5946
30974SOL    HW195175  10.512   0.524   0.691 -0.1549  0.0515  0.9131
30974SOL    HW295176  10.648   0.457   0.678  0.0771  0.6816 -0.0178
30975SOL     OW95177   8.208   1.743   3.795  0.3982 -0.6999  0.2490
30975SOL    HW195178   8.234   1.748   3.703 -0.9777 -1.6129 -0.2148
30975SOL    HW295179   8.249   1.820   3.835  1.0652 -0.3140 -1.1008
30976SOL     OW95180   0.240   7.037   2.960 -0.0910  0.2520  0.4608
30976SOL    HW195181   0.243   6.968   3.026 -2.0771 -0.3897 -0.0504
30976SOL    HW295182   0.169   7.010   2.901  0.2430  1.8665 -0.7292
30977SOL     OW95183   0.922   8.843   4.080 -0.0732 -0.4689  0.4314
30977SOL    HW195184   0.866   8.811   4.009 -0.6216  0.3518  0.4866
30977SOL    HW295185   0.895   8.793   4.157  1.8985 -2.8621 -0.2856
30978SOL     OW95186   7.112   2.900   0.122  0.3458 -0.8873  0.0391
30978SOL    HW195187   7.086   2.929   0.034 -0.1238  1.4738  0.8838
30978SOL    HW295188   7.029   2.883   0.167  0.5153 -0.5256  0.4944
30979SOL     OW95189   7.692   1.967   7.754 -0.7871  0.0397  0.2081
30979SOL    HW195190   7.599   1.951   7.768 -0.8307  0.0656 -0.0490
30979SOL    HW295191   7.735   1.927   7.830 -0.9997 -0.0584  0.2770
30980SOL     OW95192   8.710   3.314   7.012 -0.2859 -0.3356  0.4160
30980SOL    HW195193   8.695   3.408   7.027  0.1426 -0.3295  0.8337
30980SOL    HW295194   8.801   3.308   6.984 -0.9161 -0.4137 -1.7809
30981SOL     OW95195   6.831   1.592   3.969 -0.1591  0.4897 -0.1164
30981SOL    HW195196   6.772   1.520   3.946  0.2673 -0.5803  1.9953
30981SOL    HW295197   6.772   1.666   3.987 -1.0887 -0.9175  3.2767
30982SOL     OW95198   2.882   2.486   7.341  0.3084 -0.0831 -0.2098
30982SOL    HW195199   2.928   2.534   7.272 -0.1295  1.6420  0.6197
30982SOL    HW295200   2.952   2.456   7.399  0.5234  1.9709  0.7030
30983SOL     OW95201   1.419   4.398   0.008 -0.2716 -0.2142 -0.0938
30983SOL    HW195202   1.334   4.375  -0.028 -0.5511  0.7220 -0.0554
30983SOL    HW295203   1.401   4.467   0.071  0.7770  2.0072 -2.0621
30984SOL     OW95204   9.554   9.823   4.041  0.5633 -0.8308 -0.1267
30984SOL    HW195205   9.578   9.815   4.133 -0.0092 -0.7165  0.0360
30984SOL    HW295206   9.478   9.765   4.031  0.8509 -1.1243 -0.6112
30985SOL     OW95207  10.475   4.489   4.689  0.2810 -0.0448 -0.0934
30985SOL    HW195208  10.511   4.542   4.760  1.9053  0.6285 -1.3614
30985SOL    HW295209  10.446   4.552   4.624 -0.9199 -0.6621 -0.1827
30986SOL     OW95210   1.265   7.231   5.522  0.4155  0.4027  0.1968
30986SOL    HW195211   1.258   7.322   5.551  2.3148  0.3678  0.8903
30986SOL    HW295212   1.350   7.226   5.479  0.5068 -1.1257  0.5088
30987SOL     OW95213   6.600   5.058   3.125  0.3657 -0.3398  0.1922
30987SOL    HW195214   6.583   5.058   3.031 -0.9059  0.7528  0.3989
30987SOL    HW295215   6.691   5.086   3.133  1.3657 -3.0087 -0.7982
30988SOL     OW95216   3.581   7.063   5.049  0.1179 -0.6582  0.5430
30988SOL    HW195217   3.644   7.134   5.065  0.6733 -1.1541  0.5748
30988SOL    HW295218   3.621   7.011   4.979 -0.7124 -0.4288 -0.1232
30989SOL     OW95219   5.745   3.807   4.391 -0.1957 -0.0921  0.2760
30989SOL    HW195220   5.728   3.887   4.441 -1.8585  0.0764 -0.4864
30989SOL    HW295221   5.668   3.796   4.336  0.4882 -1.6325 -0.4507
30990SOL     OW95222   3.443   4.815   7.448  0.2294  0.0780  0.5377
30990SOL    HW195223   3.493   4.755   7.503  2.8543 -1.1719 -2.8847
30990SOL    HW295224   3.490   4.898   7.452  0.6241 -0.1121 -0.0268
30991SOL     OW95225   0.881   5.865   6.285 -0.7371  0.0906 -0.8032
30991SOL    HW195226   0.917   5.913   6.360 -1.3287 -2.3187  1.1929
30991SOL    HW295227   0.812   5.921   6.251 -2.8550 -0.0565  2.7308
30992SOL     OW95228   4.449   6.104   5.251  0.2429  0.4967 -0.5799
30992SOL    HW195229   4.363   6.096   5.294 -0.0021  2.9328 -0.4656
30992SOL    HW295230   4.432   6.157   5.173  1.7581  1.9215 -0.0112
30993SOL     OW95231   1.505   6.533   8.246  0.0781  0.7041  0.0597
30993SOL    HW195232   1.533   6.621   8.272  0.7224  0.2768  0.8648
30993SOL    HW295233   1.413   6.543   8.222 -0.0532  1.4683  0.8237
30994SOL     OW95234   3.413   5.052   1.357 -0.3107 -0.7589  0.1424
30994SOL    HW195235   3.358   4.978   1.382  0.8053 -1.0376  1.9526
30994SOL    HW295236   3.385   5.124   1.414 -0.8753  0.0268 -1.0879
30995SOL     OW95237   6.637   7.191   5.392  0.2810 -0.4994  0.2719
30995SOL    HW195238   6.627   7.199   5.297  1.4597  0.2476  0.1916
30995SOL    HW295239   6.573   7.125   5.417  0.1826 -0.9559 -1.0875
30996SOL     OW95240   0.017   0.392   2.873  0.5636 -0.1368 -0.4158
30996SOL    HW195241   0.055   0.314   2.832  0.5254  1.1777 -3.1975
30996SOL    HW295242  -0.077   0.378   2.868  0.5665 -0.2561 -0.1584
30997SOL     OW95243  10.083   8.221   7.421  0.0234 -0.0531 -0.1910
30997SOL    HW195244  10.085   8.175   7.336 -0.8331 -2.5957  1.0477
30997SOL    HW295245   9.990   8.223   7.444  0.3905 -1.1195  1.5115
30998SOL     OW95246   5.113   6.874   1.786  0.0060 -0.1459  0.4348
30998SOL    HW195247   5.097   6.943   1.850  1.8769  0.8992 -0.1384
30998SOL    HW295248   5.175   6.815   1.829  0.0940 -0.2666  0.1455
30999SOL     OW95249   3.822   0.531  10.107 -0.3557  0.2041  0.0926
30999SOL    HW195250   3.731   0.517  10.132 -1.1315  0.6270 -2.2675
30999SOL    HW295251   3.821   0.533  10.012  1.8784  1.7579  0.0159
31000SOL     OW95252   1.124   2.829   3.526 -0.2434 -0.6655 -0.2405
31000SOL    HW195253   1.157   2.779   3.451 -0.1886 -0.3464 -0.4317
31000SOL    HW295254   1.084   2.763   3.583  0.3095 -0.9998 -0.2294
31001SOL     OW95255   4.354  10.029   6.801  0.4493  0.0777 -0.4054
31001SOL    HW195256   4.317  10.086   6.868  0.3756 -0.5530  0.1029
31001SOL    HW295257   4.440  10.067   6.782  0.8223 -0.1935  0.6485
31002SOL     OW95258   9.721   5.136   0.646 -0.8649 -0.9122 -0.1542
31002SOL    HW195259   9.801   5.107   0.689  0.0947  1.9004  0.2164
31002SOL    HW295260   9.715   5.084   0.566  1.3642 -1.2094 -0.1775
31003SOL     OW95261   5.779   5.059   5.796  0.2655  0.3345 -0.6148
31003SOL    HW195262   5.853   5.056   5.736  0.1826  0.2774 -0.7158
31003SOL    HW295263   5.742   5.146   5.784  2.4574  1.7569  2.0466
31004SOL     OW95264   9.494   0.597   6.698  0.2123 -0.0415  0.6989
31004SOL    HW195265   9.434   0.604   6.772  0.7196  0.0536  1.1046
31004SOL    HW295266   9.540   0.515   6.712  0.6088  0.1833  0.7151
31005SOL     OW95267   6.328   3.084   0.761  0.2237 -0.2297  0.5538
31005SOL    HW195268   6.269   3.062   0.833 -0.0724 -1.3841 -0.0227
31005SOL    HW295269   6.356   3.174   0.779 -3.2439  1.1393 -0.2005
31006SOL     OW95270   5.115   6.927   6.349 -0.0405 -1.0387 -0.1885
31006SOL    HW195271   5.078   6.888   6.270 -0.2710 -0.7787 -0.2132
31006SOL    HW295272   5.077   6.875   6.421  0.4356 -1.4921 -0.2580
31007SOL     OW95273   1.624   1.870   2.278 -0.8179  0.2288 -0.4333
31007SOL    HW195274   1.685   1.941   2.258 -0.3435 -0.2306 -0.6680
31007SOL    HW295275   1.555   1.877   2.212 -0.6318  0.3104 -0.6186
31008SOL     OW95276   8.371   3.541   5.592  0.0866  0.0246 -0.3320
31008SOL    HW195277   8.302   3.521   5.528  0.0362 -0.7565 -0.0384
31008SOL    HW295278   8.358   3.634   5.612 -1.5589 -0.3442  0.4962
31009SOL     OW95279   2.093   6.896   1.063  0.3155  0.5871 -0.3827
31009SOL    HW195280   2.118   6.808   1.035 -2.6775 -0.6767  0.4408
31009SOL    HW295281   2.077   6.888   1.157  1.3197  2.4211 -0.0001
31010SOL     OW95282   0.268   0.849   0.031 -0.4143 -0.4156 -0.5657
31010SOL    HW195283   0.270   0.828  -0.063 -1.9988  0.6241 -0.8778
31010SOL    HW295284   0.175   0.844   0.054 -0.3007  1.3710  0.4421
31011SOL     OW95285   3.587   5.440   3.396  0.6382  0.1341  0.3974
31011SOL    HW195286   3.680   5.461   3.405  0.8634 -0.9709  0.7643
31011SOL    HW295287   3.566   5.389   3.474 -0.0306 -0.4625 -0.1625
31012SOL     OW95288   0.175   7.340   1.289  0.2295 -0.4863  0.0159
31012SOL    HW195289   0.088   7.342   1.331  0.2435 -1.2152  0.0921
31012SOL    HW295290   0.161   7.292   1.207  0.7144 -1.3314  0.4120
31013SOL     OW95291   5.597   3.765   9.334 -0.0452  0.0622  0.1622
31013SOL    HW195292   5.628   3.724   9.253  1.8001  0.8913  0.4053
31013SOL    HW295293   5.553   3.845   9.304 -1.8802 -1.0178 -0.1707
31014SOL     OW95294   5.410   6.615   5.883 -0.2882  0.3852  1.0855
31014SOL    HW195295   5.443   6.555   5.816 -1.3817  0.0044  0.8584
31014SOL    HW295296   5.322   6.582   5.903 -0.6660  1.5413  1.4143
31015SOL     OW95297   9.447   8.559   0.765 -0.0583  0.2364 -0.0122
31015SOL    HW195298   9.502   8.635   0.744  0.6622 -0.9735 -3.0353
31015SOL    HW295299   9.373   8.566   0.705 -0.8194 -0.6491  0.7966
31016SOL     OW95300  10.081   8.789   5.894 -0.0731  0.0811  0.0839
31016SOL    HW195301  10.148   8.826   5.951  0.1851  1.7534 -1.2043
31016SOL    HW295302  10.116   8.705   5.866  1.3553  0.7630 -0.2704
31017SOL     OW95303   5.906   9.017   4.854 -0.3048  0.2941  0.0860
31017SOL    HW195304   5.959   9.012   4.933  0.0192 -0.9009 -0.1913
31017SOL    HW295305   5.923   8.935   4.807 -3.3484 -0.7776  0.5911
31018SOL     OW95306   4.387   3.807   4.205 -0.6479  0.4645 -0.0833
31018SOL    HW195307   4.349   3.805   4.293  1.5736  1.0070  0.9730
31018SOL    HW295308   4.473   3.766   4.216 -0.3388  0.5297 -2.0194
31019SOL     OW95309   4.655   6.240   1.399 -0.0431 -0.1942  0.6586
31019SOL    HW195310   4.710   6.268   1.326 -0.9973  1.3124  0.4813
31019SOL    HW295311   4.694   6.283   1.475  0.1739 -0.7096  0.8430
31020SOL     OW95312   9.754   6.851   1.620  0.4582 -0.3278  0.1055
31020SOL    HW195313   9.667   6.877   1.650  0.4710 -1.5239  1.2626
31020SOL    HW295314   9.760   6.758   1.639  1.8368 -0.3685 -0.3668
31021SOL     OW95315   4.118   0.366   7.632  0.2590  0.6801 -0.0786
31021SOL    HW195316   4.188   0.320   7.677  0.0683 -0.2930 -0.7404
31021SOL    HW295317   4.151   0.455   7.619  1.0939  0.4142  0.2150
31022SOL     OW95318   7.509   2.942   8.128 -0.4370  0.0832 -0.0317
31022SOL    HW195319   7.438   3.005   8.117  0.4616  1.2923  0.8108
31022SOL    HW295320   7.569   2.961   8.056 -0.4269 -0.1942 -0.0998
31023SOL     OW95321   2.891  10.429   8.581  0.0515 -0.3087  0.2267
31023SOL    HW195322   2.895  10.485   8.504 -3.0976  2.7749  1.9849
31023SOL    HW295323   2.947  10.472   8.645 -0.2973 -0.7050  0.8095
31024SOL     OW95324   6.729   9.547   7.253 -0.1305  0.1051  0.2680
31024SOL    HW195325   6.706   9.455   7.264 -0.6600  0.1124 -0.6809
31024SOL    HW295326   6.653   9.595   7.285  0.6132  0.2707  1.9058
31025SOL     OW95327   0.386   3.295   2.451 -0.2455  0.1436 -0.3150
31025SOL    HW195328   0.346   3.213   2.422 -1.3028  0.5887 -0.1634
31025SOL    HW295329   0.449   3.269   2.519 -0.4034 -0.5562 -0.4313
31026SOL     OW95330   3.478   7.881   2.923  0.2327 -0.0389  0.5153
31026SOL    HW195331   3.424   7.844   2.853  0.1603 -0.9540  1.0458
31026SOL    HW295332   3.565   7.845   2.906  0.5830  1.0114 -0.0264
31027SOL     OW95333   6.841   7.890   4.406 -0.0868 -0.1129 -0.2413
31027SOL    HW195334   6.859   7.800   4.380 -0.7462 -0.2901 -0.0915
31027SOL    HW295335   6.791   7.926   4.332 -1.7308 -0.5357  0.6267
31028SOL     OW95336   2.555   6.631   6.512  0.3649 -0.1876  0.3759
31028SOL    HW195337   2.623   6.565   6.528  0.4333 -0.1055  0.4186
31028SOL    HW295338   2.532   6.619   6.420  1.4046  0.6992 -0.0231
31029SOL     OW95339   8.026   9.316   2.325  0.3866  0.1104 -0.1009
31029SOL    HW195340   7.969   9.388   2.353  0.7554  0.6636 -0.7145
31029SOL    HW295341   8.021   9.252   2.396  1.2151  1.4045  1.1902
31030SOL     OW95342   1.722   9.356   5.500 -0.1183 -0.2935  0.5170
31030SOL    HW195343   1.668   9.431   5.475 -0.3296  0.1549  2.1414
31030SOL    HW295344   1.767   9.330   5.420  0.9409  2.3803  0.1660
31031SOL     OW95345   7.597   6.701   3.207 -0.5120 -0.4163  0.0304
31031SOL    HW195346   7.682   6.736   3.179 -0.9519  0.3579 -0.4009
31031SOL    HW295347   7.534   6.747   3.151 -1.3578  0.4359  1.6245
31032SOL     OW95348  10.215  10.170  10.341 -0.0686 -0.5909 -0.1027
31032SOL    HW195349  10.151  10.149  10.272 -1.0043 -1.1298  0.9045
31032SOL    HW295350  10.298  10.174  10.295 -0.6246 -1.2712 -1.2267
31033SOL     OW95351   8.122   4.826  10.342  0.4161  0.0863  0.0658
31033SOL    HW195352   8.146   4.733  10.345  3.1809  0.7145  2.7194
31033SOL    HW295353   8.200   4.870  10.309  1.0194  1.7602  3.2875
31034SOL     OW95354   0.085   8.346   3.831 -0.3051  0.4831 -0.1065
31034SOL    HW195355   0.082   8.268   3.887  0.2752  1.6540  1.6688
31034SOL    HW295356  -0.005   8.360   3.804 -0.2937 -1.2962 -1.2222
31035SOL     OW95357   5.674   4.196   8.263 -0.2554  0.4475  0.0697
31035SOL    HW195358   5.655   4.248   8.185 -0.1284  1.4342  0.6736
31035SOL    HW295359   5.769   4.204   8.275 -0.1780 -0.2550 -0.0541
31036SOL     OW95360   4.972   8.744   3.524 -0.2936  0.7562  0.0867
31036SOL    HW195361   4.984   8.687   3.600 -1.0563 -0.5362 -0.7226
31036SOL    HW295362   4.971   8.833   3.560 -1.3075  0.1460  1.6842
31037SOL     OW95363   2.372   9.969   8.414 -0.1065 -0.5592 -0.0782
31037SOL    HW195364   2.366   9.986   8.508  2.0423 -0.0225  0.0116
31037SOL    HW295365   2.394   9.876   8.408  0.8510 -0.3577  0.0398
31038SOL     OW95366   2.180   9.037   5.264 -0.0010 -0.1157  0.1515
31038SOL    HW195367   2.185   9.132   5.281 -1.7069 -0.1823  1.2543
31038SOL    HW295368   2.135   9.030   5.180  1.8953  0.0622 -0.9232
31039SOL     OW95369   4.021   2.297   4.693  0.0574  0.0259  0.1848
31039SOL    HW195370   3.989   2.295   4.603  1.1975  0.6967 -0.2475
31039SOL    HW295371   3.950   2.336   4.743  1.1434  4.2316 -1.2076
31040SOL     OW95372   2.387   5.659  10.134 -0.3163  1.0850  0.0381
31040SOL    HW195373   2.478   5.631  10.141 -1.1224 -1.8183  0.0424
31040SOL    HW295374   2.361   5.635  10.046 -1.4408  0.6182  0.4835
31041SOL     OW95375   0.891   5.724   8.901 -0.5802  0.0651  0.8232
31041SOL    HW195376   0.914   5.772   8.822  1.1279 -0.8675  0.6943
31041SOL    HW295377   0.831   5.655   8.871 -0.5367  0.1788  0.4688
31042SOL     OW95378  10.206   0.261   5.767  0.3205  0.6400  0.0589
31042SOL    HW195379  10.184   0.189   5.707  1.8388 -0.4988  0.7883
31042SOL    HW295380  10.227   0.334   5.710 -0.2865  0.2062 -0.7408
31043SOL     OW95381   9.187   8.570   1.132  0.0880 -0.2463  0.1381
31043SOL    HW195382   9.220   8.500   1.188  0.2258  0.0656  0.4512
31043SOL    HW295383   9.180   8.646   1.190 -0.8493 -0.2172 -0.0048
31044SOL     OW95384   2.272   1.956   5.142  0.4846  1.0621  0.1012
31044SOL    HW195385   2.356   1.913   5.157  0.4735  0.7882 -0.5820
31044SOL    HW295386   2.221   1.893   5.091 -0.2245  1.1355  0.6885
31045SOL     OW95387   8.584   0.406   6.897  0.5149 -0.3250  0.0651
31045SOL    HW195388   8.615   0.470   6.833  1.2285 -2.2883 -1.6894
31045SOL    HW295389   8.663   0.375   6.941  0.4150 -1.1608 -0.3056
31046SOL     OW95390   9.741   1.671   8.472  0.3090  0.3287  0.9766
31046SOL    HW195391   9.698   1.593   8.508  1.6481 -0.1666  1.5995
31046SOL    HW295392   9.811   1.690   8.535  1.6698  0.4406 -0.5233
31047SOL     OW95393   1.616   2.005   3.577  0.0607  0.6927  0.7363
31047SOL    HW195394   1.622   1.910   3.587 -0.4937  0.7362  1.6056
31047SOL    HW295395   1.690   2.028   3.520 -0.2422 -0.3368 -0.0947
31048SOL     OW95396   2.195   5.899   7.274 -0.2654 -0.0206 -0.3896
31048SOL    HW195397   2.189   5.883   7.368 -0.6065  2.2872  0.0317
31048SOL    HW295398   2.288   5.899   7.255 -0.1973 -0.5469 -0.0797
31049SOL     OW95399   8.427   8.211   4.720  0.4609 -0.0001 -0.5515
31049SOL    HW195400   8.450   8.237   4.809  0.0288  0.2271 -0.5010
31049SOL    HW295401   8.510   8.209   4.673  0.5985  0.7381 -0.3565
31050SOL     OW95402   2.773  10.343   9.875  0.0962  0.2125 -0.1138
31050SOL    HW195403   2.687  10.382   9.858 -0.3948 -0.8639 -0.1366
31050SOL    HW295404   2.799  10.306   9.791  1.2152  1.7043 -0.4639
31051SOL     OW95405   2.353   5.489   3.202  0.5362  0.1406  0.4476
31051SOL    HW195406   2.301   5.463   3.127  0.1553 -0.3327  0.8635
31051SOL    HW295407   2.334   5.582   3.215  2.8873  1.0458 -1.8490
31052SOL     OW95408   0.106   7.866   7.344 -0.2397 -0.2328 -0.0021
31052SOL    HW195409   0.071   7.924   7.411  1.0482  1.5432 -0.7774
31052SOL    HW295410   0.169   7.811   7.390  0.5436  0.8842  0.3141
31053SOL     OW95411  10.316   0.692   4.400 -0.4270  0.1409  0.3105
31053SOL    HW195412  10.289   0.783   4.385 -3.2365 -0.7688 -0.8397
31053SOL    HW295413  10.314   0.682   4.495  3.1055  2.0427  0.7485
31054SOL     OW95414   3.565   3.780   4.017 -0.2750 -0.0670 -0.1648
31054SOL    HW195415   3.628   3.708   4.003 -0.0720  0.0047  0.3877
31054SOL    HW295416   3.534   3.801   3.929  0.7755  0.1685 -0.4864
31055SOL     OW95417   9.575   1.180   9.671 -0.0616 -0.0995 -0.5034
31055SOL    HW195418   9.561   1.205   9.579 -0.5576  0.2446 -0.3413
31055SOL    HW295419   9.670   1.178   9.681  0.1085 -2.7940 -1.7211
31056SOL     OW95420   1.234   5.554   4.502  0.2563 -0.1117 -0.1673
31056SOL    HW195421   1.227   5.489   4.432  0.8062  0.9358 -1.2286
31056SOL    HW295422   1.184   5.517   4.574  1.7855 -2.4150 -0.1953
31057SOL     OW95423   4.793  10.536   2.368 -0.2284 -0.3376 -0.2588
31057SOL    HW195424   4.740  10.485   2.307 -1.1317 -0.1078  0.3204
31057SOL    HW295425   4.861  10.576   2.313 -0.6846 -0.5940 -1.0217
31058SOL     OW95426   2.218   7.271   2.408 -0.0779  0.5142  0.6535
31058SOL    HW195427   2.284   7.331   2.375 -1.3396  0.9682 -1.2359
31058SOL    HW295428   2.258   7.184   2.403  0.8405  0.9234  0.8776
31059SOL     OW95429   6.671   4.091   6.877 -0.4258  0.2036  0.0908
31059SOL    HW195430   6.720   4.033   6.818 -0.1695  0.5310 -0.0214
31059SOL    HW295431   6.722   4.091   6.958 -0.0515  0.8094 -0.1372
31060SOL     OW95432   1.273   7.875   5.550  0.1950  0.0506 -0.4296
31060SOL    HW195433   1.358   7.836   5.528 -0.0126 -1.9244  1.8836
31060SOL    HW295434   1.209   7.820   5.503  0.0098 -1.3593  1.3669
31061SOL     OW95435   8.768   9.722   4.759  0.0708 -0.2578 -0.2601
31061SOL    HW195436   8.734   9.666   4.828 -1.1304 -1.2032 -1.5658
31061SOL    HW295437   8.814   9.792   4.805  0.5116 -1.6050  1.4467
31062SOL     OW95438   1.324   5.248   8.587  0.3273  0.3835  0.2245
31062SOL    HW195439   1.315   5.160   8.552  0.8662  0.6187 -0.5417
31062SOL    HW295440   1.417   5.267   8.578  0.0978  1.3127 -0.3494
31063SOL     OW95441  10.266   1.589   0.986  0.2395  0.8495  0.4936
31063SOL    HW195442  10.261   1.557   1.076  1.4929 -0.7122  0.0452
31063SOL    HW295443  10.180   1.630   0.970  0.0124  1.1744  2.3749
31064SOL     OW95444   2.731   4.629   5.932 -0.3183  0.7266  0.1874
31064SOL    HW195445   2.706   4.721   5.925  0.6937  1.0628  0.6853
31064SOL    HW295446   2.809   4.631   5.987  0.4073 -0.3160 -0.7718
31065SOL     OW95447   6.716   4.074   4.248  0.1172 -0.1021  0.6395
31065SOL    HW195448   6.625   4.049   4.232  0.1662  0.1135 -0.0361
31065SOL    HW295449   6.751   4.091   4.160  0.6699  0.2896  0.9328
31066SOL     OW95450   9.474   4.065   5.409  0.0705 -0.1211 -0.5458
31066SOL    HW195451   9.520   4.041   5.329  1.5075  0.2536  0.1485
31066SOL    HW295452   9.537   4.116   5.459 -1.4140  1.2105  0.0337
31067SOL     OW95453   3.416   2.649   8.385  0.5449 -0.3384 -0.1374
31067SOL    HW195454   3.466   2.616   8.460 -0.2590 -1.0867  0.0815
31067SOL    HW295455   3.326   2.623   8.403  0.1072  0.7787 -0.6505
31068SOL     OW95456   7.349  10.308   3.145  0.6348 -0.0855 -0.5047
31068SOL    HW195457   7.407  10.310   3.068  0.4002 -1.2036 -0.7194
31068SOL    HW295458   7.262  10.325   3.109  0.2905 -2.1061 -0.7434
31069SOL     OW95459   0.564   8.211   0.148 -0.3155  0.7142 -0.3126
31069SOL    HW195460   0.541   8.137   0.204  0.0963  1.7800  1.3576
31069SOL    HW295461   0.488   8.223   0.092  0.0083 -1.5750 -1.3444
31070SOL     OW95462   3.596   9.020   6.908 -0.0137 -0.6086 -0.1224
31070SOL    HW195463   3.504   9.025   6.936  0.3493 -0.2435  1.0598
31070SOL    HW295464   3.635   8.954   6.964  0.8876  0.5942  0.7266
31071SOL     OW95465   3.196   1.568  10.655 -0.1421  0.0172  0.3625
31071SOL    HW195466   3.120   1.626  10.649 -0.3448 -0.1219  1.3314
31071SOL    HW295467   3.242   1.597  10.734  0.7796  0.0507 -0.1717
31072SOL     OW95468   1.470   3.418   4.141  0.0744  0.2242  0.2912
31072SOL    HW195469   1.516   3.348   4.187  0.1169 -0.1223 -0.2617
31072SOL    HW295470   1.520   3.429   4.059 -0.1072  0.6952  0.2409
31073SOL     OW95471   6.212   0.842   1.342  0.2470 -0.2605 -0.8679
31073SOL    HW195472   6.120   0.819   1.355 -0.1103 -0.0869 -2.7434
31073SOL    HW295473   6.216   0.936   1.359  0.0295 -0.2321 -0.9665
31074SOL     OW95474   4.386   8.127   0.700  0.0614  0.6122  0.4260
31074SOL    HW195475   4.336   8.134   0.782 -0.5383 -0.7827  0.2045
31074SOL    HW295476   4.320   8.121   0.632  0.5404  0.0534  0.0028
31075SOL     OW95477   5.919   0.212   5.054 -0.2287 -0.2281 -0.0264
31075SOL    HW195478   5.892   0.158   4.980 -2.4989 -0.2636  0.7508
31075SOL    HW295479   6.013   0.198   5.062  0.1549  0.0021 -3.0652
31076SOL     OW95480   6.967   3.087   8.434 -0.0643 -0.2733 -0.0257
31076SOL    HW195481   6.972   3.092   8.529 -0.2187  2.0032 -0.0824
31076SOL    HW295482   6.881   3.122   8.412  0.3791  0.2568 -1.0194
31077SOL     OW95483   5.970   9.084   0.147  0.2997 -0.6862  0.1098
31077SOL    HW195484   6.035   9.014   0.146  0.8931 -0.1404 -1.1775
31077SOL    HW295485   6.014   9.157   0.190 -0.0199 -0.8227  0.6738
31078SOL     OW95486   7.781   6.024   6.051 -0.2370 -0.1781  0.0683
31078SOL    HW195487   7.752   5.974   6.127 -0.6816  0.2063  0.1561
31078SOL    HW295488   7.700   6.052   6.008  0.0067  0.2809 -0.1025
31079SOL     OW95489  10.471   2.601   9.381  0.0923  0.0760 -0.1932
31079SOL    HW195490  10.450   2.647   9.462  0.0157  0.8263 -0.6355
31079SOL    HW295491  10.567   2.596   9.381  0.1501  1.0367 -0.5740
31080SOL     OW95492   2.102   5.465  10.195 -0.0085  0.4408  0.0922
31080SOL    HW195493   2.007   5.473  10.202  0.0720  2.9771 -0.5981
31080SOL    HW295494   2.134   5.471  10.285 -0.4345  1.5080  0.1884
31081SOL     OW95495  10.258   6.636   6.530  0.1745 -0.0624 -0.0189
31081SOL    HW195496  10.194   6.565   6.524  0.7142 -0.5177 -0.5020
31081SOL    HW295497  10.217   6.709   6.482  0.0380 -0.3689 -0.3799
31082SOL     OW95498   3.295   6.125   1.005  0.4772  0.5594  0.2439
31082SOL    HW195499   3.251   6.039   0.999  2.1403 -0.9133  4.8038
31082SOL    HW295500   3.225   6.185   1.031 -0.7736  0.9250 -3.2890
31083SOL     OW95501   7.624   5.711   3.715  0.2951 -0.3631  0.0915
31083SOL    HW195502   7.698   5.769   3.697 -0.2243  1.0919  2.2336
31083SOL    HW295503   7.562   5.728   3.644  0.6854  0.8009  0.0062
31084SOL     OW95504   8.138   1.473   2.626 -0.5951 -0.0594 -0.1338
31084SOL    HW195505   8.213   1.527   2.600 -0.5957  1.2045  2.1250
31084SOL    HW295506   8.117   1.422   2.549  0.2616  2.2483 -2.0315
31085SOL     OW95507   6.337   3.178   9.781 -0.8693 -0.5355 -0.0296
31085SOL    HW195508   6.273   3.161   9.712 -0.4107  1.1638 -0.9298
31085SOL    HW295509   6.419   3.196   9.735 -0.4668  0.2690  0.9444
31086SOL     OW95510   6.187   8.516   7.235  0.7461  0.1568  0.0195
31086SOL    HW195511   6.195   8.588   7.173  0.5443 -0.8165 -1.1777
31086SOL    HW295512   6.127   8.548   7.303  0.5690  1.0615 -0.5621
31087SOL     OW95513   5.205   2.073   5.478  0.0087 -0.5115 -0.1716
31087SOL    HW195514   5.199   2.108   5.567  0.5541  0.2270 -0.4132
31087SOL    HW295515   5.115   2.070   5.447 -0.1438 -0.3507  0.2493
31088SOL     OW95516   5.972   1.105   8.745 -0.6048 -0.0476 -0.4320
31088SOL    HW195517   6.019   1.036   8.792 -1.1707  0.2624  0.6228
31088SOL    HW295518   5.902   1.132   8.805 -0.5508  1.2652 -0.9199
31089SOL     OW95519   8.155   3.102   3.478  0.1297 -0.1741  0.3374
31089SOL    HW195520   8.065   3.103   3.512  0.4982  0.5040  1.3634
31089SOL    HW295521   8.145   3.109   3.383 -0.8932  1.0300  0.5046
31090SOL     OW95522   7.179   5.347   2.363  0.1765 -0.2479 -0.1395
31090SOL    HW195523   7.147   5.281   2.425  0.6800 -0.1843  0.1964
31090SOL    HW295524   7.247   5.301   2.313  1.0741  0.2096  0.6094
31091SOL     OW95525   8.799   2.367   1.222  0.3870  0.1770  0.0787
31091SOL    HW195526   8.842   2.354   1.137 -1.2128 -1.8188 -0.5160
31091SOL    HW295527   8.792   2.462   1.231  0.1644  0.4390 -2.2817
31092SOL     OW95528   0.001   1.406   9.806  0.1979 -0.2674 -0.4348
31092SOL    HW195529  -0.047   1.349   9.746  0.9044 -0.5162 -0.7611
31092SOL    HW295530   0.000   1.492   9.762  1.6868 -0.6981 -1.3552
31093SOL     OW95531   6.933   0.400   4.634 -0.3599 -0.1941 -0.3341
31093SOL    HW195532   6.948   0.494   4.637  0.2326 -0.1486 -2.7934
31093SOL    HW295533   6.839   0.390   4.645 -0.2831  0.5455  1.2751
31094SOL     OW95534   3.544   4.800   0.730  0.2805 -0.2680 -0.1340
31094SOL    HW195535   3.557   4.891   0.702 -0.2910 -0.8362 -2.4446
31094SOL    HW295536   3.486   4.806   0.805 -0.0528  1.2710 -0.4830
31095SOL     OW95537   1.455   5.853   3.908 -0.4115  0.0148  0.2819
31095SOL    HW195538   1.457   5.817   3.820 -0.5136 -3.7821  1.6681
31095SOL    HW295539   1.362   5.866   3.926 -0.6910 -2.3673  0.8768
31096SOL     OW95540   7.485   2.046   4.646 -0.5942  0.3313  0.1975
31096SOL    HW195541   7.541   2.121   4.623 -0.6560  0.5289  0.6833
31096SOL    HW295542   7.546   1.973   4.655 -0.6687  0.0089 -1.5816
31097SOL     OW95543   4.452   4.097   5.976  0.1669  0.6613 -0.2203
31097SOL    HW195544   4.356   4.088   5.976 -0.0331  2.4326  0.2774
31097SOL    HW295545   4.482   4.031   5.913 -1.4110  0.3345 -0.6790
31098SOL     OW95546   6.705   2.223   9.820 -0.1007 -0.0033 -0.2842
31098SOL    HW195547   6.723   2.306   9.865  0.6514 -1.1584  1.6228
31098SOL    HW295548   6.762   2.225   9.743 -0.3181  1.3448 -0.4473
31099SOL     OW95549   9.507   8.131   9.352 -0.0509 -0.0196  0.2791
31099SOL    HW195550   9.539   8.171   9.433 -0.0888 -0.6153  0.5918
31099SOL    HW295551   9.415   8.112   9.369  0.2054 -1.1354  0.4958
31100SOL     OW95552   4.415  10.505   5.535  0.4130  0.1852 -0.2163
31100SOL    HW195553   4.382  10.591   5.509  2.5117  0.7105 -1.3899
31100SOL    HW295554   4.447  10.518   5.624  0.1536  0.4627 -0.1611
31101SOL     OW95555   8.398   5.935   7.385 -0.4083 -0.4308  0.2419
31101SOL    HW195556   8.365   6.025   7.387 -2.2032 -1.0168  2.8439
31101SOL    HW295557   8.341   5.890   7.323 -0.9214 -0.2235  0.5576
31102SOL     OW95558   4.103   4.544   5.073  0.4922  0.0399 -0.0153
31102SOL    HW195559   4.159   4.579   5.004 -0.2252 -1.0309 -1.1710
31102SOL    HW295560   4.149   4.467   5.105  0.7900  0.4934  0.6893
31103SOL     OW95561   1.762   5.574   2.160  0.1594 -0.1538  0.2733
31103SOL    HW195562   1.774   5.529   2.077 -1.9771 -0.7977  0.2672
31103SOL    HW295563   1.845   5.562   2.206  0.9819 -0.7222 -1.3116
31104SOL     OW95564   9.624   3.871   6.603  0.5222 -0.8628  0.4762
31104SOL    HW195565   9.692   3.841   6.543  0.7003  0.2156  0.1350
31104SOL    HW295566   9.561   3.916   6.547  0.4060 -0.3383  1.0235
31105SOL     OW95567   0.887   1.565   2.429 -0.4464  0.2888 -0.5930
31105SOL    HW195568   0.894   1.607   2.344 -0.5873  0.0873 -0.7068
31105SOL    HW295569   0.947   1.490   2.424 -0.6544  0.1204 -0.6134
31106SOL     OW95570   1.931   0.495   9.508 -0.0898 -0.0856 -0.2085
31106SOL    HW195571   1.971   0.483   9.422 -0.1801 -0.0526 -0.2551
31106SOL    HW295572   1.856   0.553   9.492  0.0265  0.1058 -0.0703
31107SOL     OW95573   4.695   9.890   4.989 -0.5391  0.3618  0.0658
31107SOL    HW195574   4.652   9.975   4.976 -0.7764  0.5030  1.5816
31107SOL    HW295575   4.738   9.872   4.905 -0.5495  1.9384 -0.3117
31108SOL     OW95576   5.398   4.093   7.304 -0.1204 -0.0811  0.7335
31108SOL    HW195577   5.308   4.126   7.296  0.1342  0.7162  1.0629
31108SOL    HW295578   5.431   4.135   7.383  0.9312  0.5577 -0.0188
31109SOL     OW95579   9.559   5.688   5.987  0.2337  1.1211  0.0832
31109SOL    HW195580   9.609   5.647   5.917 -0.5292 -2.1478  1.2586
31109SOL    HW295581   9.469   5.692   5.954  0.2705  1.7526  0.0410
31110SOL     OW95582   3.348   2.600  10.490 -0.4458 -0.1528  0.3354
31110SOL    HW195583   3.358   2.527  10.430  0.0869  0.5065 -0.4071
31110SOL    HW295584   3.257   2.598  10.517 -0.8062 -0.1877 -0.8583
31111SOL     OW95585   1.933   7.536   5.310 -0.0932  0.2813 -0.2023
31111SOL    HW195586   1.922   7.485   5.229 -0.3663  1.8442 -1.1787
31111SOL    HW295587   1.843   7.557   5.337  0.0390  2.0276 -1.0029
31112SOL     OW95588   6.318   1.833   1.314  0.3047 -0.2950  0.1899
31112SOL    HW195589   6.310   1.798   1.226 -0.9975  0.0189  0.1616
31112SOL    HW295590   6.277   1.767   1.370  1.3096 -0.5889  0.5900
31113SOL     OW95591   7.829   5.438   3.908 -0.1098 -0.3195 -0.6023
31113SOL    HW195592   7.902   5.430   3.970  0.3889 -0.2239 -1.1712
31113SOL    HW295593   7.836   5.527   3.874  0.3601 -0.7611 -1.7025
31114SOL     OW95594   0.626   5.423   3.760 -0.0363 -0.1974  0.3524
31114SOL    HW195595   0.550   5.402   3.815 -0.4365 -0.4180 -0.2633
31114SOL    HW295596   0.622   5.360   3.688  0.2876  0.2786 -0.1002
31115SOL     OW95597   8.930   2.660   5.330  0.1671 -0.1201 -0.5818
31115SOL    HW195598   8.842   2.680   5.365  0.7361 -0.2228  1.0035
31115SOL    HW295599   8.935   2.565   5.331  0.0809 -0.1317 -1.2469
31116SOL     OW95600   1.075   4.539   1.185  0.3540 -0.1654 -0.0751
31116SOL    HW195601   1.031   4.618   1.217 -0.3846 -1.5327  2.6109
31116SOL    HW295602   1.042   4.527   1.097 -0.9660  1.4844  0.1389
31117SOL     OW95603  10.076   4.270   5.106 -0.6550 -0.1234 -0.4033
31117SOL    HW195604  10.048   4.194   5.158  0.1590 -1.3178 -1.6377
31117SOL    HW295605  10.010   4.336   5.124 -0.2267 -0.3284  2.4152
31118SOL     OW95606   3.547   5.683   1.706  0.2277  0.3260 -0.4825
31118SOL    HW195607   3.514   5.617   1.645  1.4654  0.3519 -1.2117
31118SOL    HW295608   3.552   5.764   1.654 -2.0016  1.2359  0.5984
31119SOL     OW95609   7.163   6.330   6.223 -1.2264 -0.3203 -0.2681
31119SOL    HW195610   7.147   6.424   6.232  0.1042 -0.1293  0.4589
31119SOL    HW295611   7.249   6.324   6.180 -0.2657 -1.1357  1.6283
31120SOL     OW95612   6.416  10.277   3.232 -0.4980 -0.0789  1.2042
31120SOL    HW195613   6.363  10.206   3.267 -1.3686  0.8747  1.8873
31120SOL    HW295614   6.495  10.235   3.199 -0.6448 -1.2610  2.3152
31121SOL     OW95615   2.020   0.464   3.884  0.2604 -0.4846  0.2757
31121SOL    HW195616   2.086   0.396   3.877  2.4358  1.5750 -0.5547
31121SOL    HW295617   1.990   0.477   3.794  0.6233  0.3424  0.2684
31122SOL     OW95618   2.297   0.050   5.440  0.4093 -0.5416 -0.2756
31122SOL    HW195619   2.353   0.071   5.366  1.2701  3.5206  1.2897
31122SOL    HW295620   2.216   0.100   5.424 -0.2568 -1.3248  0.5244
31123SOL     OW95621   7.183   0.753   6.047  0.1504  0.1738 -0.6320
31123SOL    HW195622   7.112   0.800   6.091 -0.6667  0.5446 -2.2771
31123SOL    HW295623   7.139   0.700   5.980  1.4652  1.1651 -2.3739
31124SOL     OW95624   8.050   1.362   8.290 -0.0839  0.4098  0.0989
31124SOL    HW195625   8.061   1.425   8.362 -2.0843  2.2395 -1.0841
31124SOL    HW295626   7.961   1.329   8.301  0.3408 -0.9285 -0.3290
31125SOL     OW95627   8.041   7.036   7.615  0.6229 -0.1643  0.5579
31125SOL    HW195628   7.954   7.046   7.576  1.0379  0.6497 -0.2169
31125SOL    HW295629   8.090   6.983   7.552  1.7659  2.4272 -0.9111
31126SOL     OW95630   7.490   8.425   7.602  0.3694  0.0221  0.1504
31126SOL    HW195631   7.501   8.374   7.682 -0.3128 -1.2509 -0.5291
31126SOL    HW295632   7.472   8.360   7.534 -1.5909  1.2152 -0.5713
31127SOL     OW95633   0.150   7.458   2.788  0.0479  0.0657  0.0031
31127SOL    HW195634   0.176   7.486   2.876  1.2485 -0.7205 -0.0745
31127SOL    HW295635   0.055   7.446   2.793 -0.0237  0.9101  0.9273
31128SOL     OW95636   6.263  10.518   2.882 -0.1263  0.3092 -0.0358
31128SOL    HW195637   6.287  10.552   2.968 -1.1399  0.4117  0.2297
31128SOL    HW295638   6.307  10.433   2.876 -1.5940 -0.6222  1.4483
31129SOL     OW95639   0.722   4.527   1.088  0.2662 -0.1258 -0.3091
31129SOL    HW195640   0.748   4.444   1.129 -1.2999 -0.9897 -0.9824
31129SOL    HW295641   0.667   4.500   1.014 -0.9232  1.5471 -0.0771
31130SOL     OW95642   6.688   5.322   5.081  0.1574 -0.3506 -0.4439
31130SOL    HW195643   6.768   5.370   5.105 -0.5229  1.1179 -1.0076
31130SOL    HW295644   6.672   5.347   4.990 -1.2846 -0.1086 -0.1446
31131SOL     OW95645   2.696   8.621   9.168 -0.7205 -0.0810  0.0224
31131SOL    HW195646   2.757   8.652   9.236  0.1244 -0.4648 -0.5404
31131SOL    HW295647   2.645   8.698   9.145 -0.1139  0.3745  0.1677
31132SOL     OW95648   0.736   8.720   3.889  0.1573  0.5447 -0.7849
31132SOL    HW195649   0.641   8.712   3.874 -0.0501 -1.2130  1.1325
31132SOL    HW295650   0.776   8.681   3.811 -0.6553  1.6761 -1.8067
31133SOL     OW95651   8.690   9.520   3.659 -0.3375 -0.1820 -0.2668
31133SOL    HW195652   8.666   9.612   3.668 -1.3171 -0.5502  1.2438
31133SOL    HW295653   8.759   9.507   3.724 -0.0277 -0.4624 -0.6486
31134SOL     OW95654   1.099   4.833   7.201  0.0243 -0.4583 -0.2218
31134SOL    HW195655   1.096   4.830   7.105  1.0086 -0.9725 -0.2423
31134SOL    HW295656   1.162   4.902   7.222 -1.3946  0.8003  0.0914
31135SOL     OW95657  10.111   4.537   2.359  0.2383 -0.4023  0.1626
31135SOL    HW195658  10.084   4.591   2.434  1.7130 -0.5369  0.8168
31135SOL    HW295659  10.070   4.452   2.374  0.6054 -0.4590  0.8768
31136SOL     OW95660   3.549   3.502   4.389 -0.1516  0.2190  0.7596
31136SOL    HW195661   3.585   3.583   4.352 -1.4786  0.3311 -0.3350
31136SOL    HW295662   3.523   3.526   4.477 -0.5104  0.9812  0.4518
31137SOL     OW95663   4.883   7.338   1.631  0.0725 -0.4934  0.1038
31137SOL    HW195664   4.843   7.271   1.575 -0.0308  0.6924 -1.2955
31137SOL    HW295665   4.966   7.359   1.589 -0.6448  1.4379 -0.4741
31138SOL     OW95666   0.489   4.520   5.907  0.2684 -0.1346  0.1618
31138SOL    HW195667   0.415   4.567   5.869 -0.5032  0.4394  2.2521
31138SOL    HW295668   0.459   4.429   5.912 -0.0586 -0.0157  0.4109
31139SOL     OW95669   9.998   9.980   8.612  0.5177  0.3092 -0.1337
31139SOL    HW195670   9.975  10.063   8.654 -0.6167  0.8069 -1.6568
31139SOL    HW295671   9.934   9.918   8.646  1.4582 -0.0028  1.1205
31140SOL     OW95672   5.755   1.229   4.083 -0.2534  0.4964 -0.0029
31140SOL    HW195673   5.823   1.202   4.146  1.0312 -0.8681 -1.8361
31140SOL    HW295674   5.801   1.288   4.023 -0.7588 -0.1070 -1.0161
31141SOL     OW95675   1.564   6.850   6.520  0.1181  1.0028  0.3301
31141SOL    HW195676   1.540   6.899   6.441 -0.5209 -1.6278 -1.2251
31141SOL    HW295677   1.509   6.772   6.517  2.7108 -1.0069  1.3462
31142SOL     OW95678   6.981   7.984   8.282 -0.1021 -1.1582 -0.2111
31142SOL    HW195679   7.045   7.942   8.340 -1.4314 -2.5068  0.3323
31142SOL    HW295680   6.896   7.952   8.312 -1.1330  1.1608 -0.4391
31143SOL     OW95681   4.926   7.723   8.754 -0.0205 -0.5243 -0.7008
31143SOL    HW195682   4.868   7.674   8.813 -0.2210  0.5150 -0.0082
31143SOL    HW295683   5.008   7.674   8.755 -0.8633 -2.0678 -1.7517
31144SOL     OW95684   2.571   1.347   8.566  0.6677 -0.0989 -1.6791
31144SOL    HW195685   2.492   1.376   8.520 -1.1036 -3.2015 -0.8744
31144SOL    HW295686   2.610   1.427   8.599 -2.8428  1.5513 -1.0659
31145SOL     OW95687   7.706   0.253   1.197  0.5854 -0.0072  0.1102
31145SOL    HW195688   7.692   0.347   1.205 -1.1870 -0.3398  1.5686
31145SOL    HW295689   7.746   0.242   1.110 -0.3710  1.9616 -0.6471
31146SOL     OW95690   3.774   8.358   6.488  0.1046 -0.1606  0.2636
31146SOL    HW195691   3.797   8.363   6.395  0.4138  0.7124  0.3754
31146SOL    HW295692   3.769   8.449   6.517 -0.6285 -0.4065  0.9571
31147SOL     OW95693   7.163   6.993   2.207 -0.0919 -0.4892  0.1783
31147SOL    HW195694   7.074   6.970   2.234 -0.4130 -0.0638 -0.4974
31147SOL    HW295695   7.215   6.918   2.232  0.0624  0.6864  4.0058
31148SOL     OW95696   1.604   6.301   6.691 -0.5944 -0.2880  0.0457
31148SOL    HW195697   1.676   6.352   6.653  0.0195 -0.4932  0.8946
31148SOL    HW295698   1.622   6.211   6.662 -0.5742 -0.3190  0.1525
31149SOL     OW95699   0.734   0.919   5.964  0.3998 -0.5296 -0.3375
31149SOL    HW195700   0.710   1.011   5.952  0.5684 -0.6888 -2.1594
31149SOL    HW295701   0.655   0.879   6.002  0.6875  0.5357  1.5195
31150SOL     OW95702   4.943   1.535   5.699 -0.0029 -0.5178 -0.6174
31150SOL    HW195703   5.029   1.547   5.738 -0.8640  2.2058  0.7612
31150SOL    HW295704   4.895   1.615   5.723 -2.6592 -1.5758 -1.9821
31151SOL     OW95705   4.705   9.019   3.286  0.2297 -0.0089  0.1147
31151SOL    HW195706   4.800   9.032   3.287  0.1359  0.8338  1.3526
31151SOL    HW295707   4.669   9.108   3.277 -0.4457 -0.3517 -0.6901
31152SOL     OW95708   6.732   0.962   4.246 -0.3397 -0.0584  0.0779
31152SOL    HW195709   6.735   0.904   4.169  0.6872 -0.5963  0.4989
31152SOL    HW295710   6.793   0.922   4.308 -0.2924  0.9980  0.7365
31153SOL     OW95711   3.105   2.246   4.178  0.6629 -0.8070  0.2495
31153SOL    HW195712   3.041   2.209   4.118  0.0364  0.4776  0.0914
31153SOL    HW295713   3.117   2.336   4.148 -0.1415  0.0822  2.3864
31154SOL     OW95714   6.486   9.494   3.474 -0.2365  0.5724  0.2377
31154SOL    HW195715   6.398   9.515   3.444 -0.5760 -0.9382  0.1010
31154SOL    HW295716   6.526   9.447   3.401 -0.0563 -0.5862  1.0597
31155SOL     OW95717   8.272   1.295   0.023  0.5206 -0.1857 -0.1664
31155SOL    HW195718   8.293   1.218  -0.031  1.5227  0.3070 -0.4953
31155SOL    HW295719   8.348   1.305   0.080  0.3876  0.5523 -0.1122
31156SOL     OW95720   1.332   5.453   5.167  0.1486 -0.1111  0.1218
31156SOL    HW195721   1.295   5.397   5.100 -0.4003 -0.8538  1.0216
31156SOL    HW295722   1.388   5.396   5.219  1.6349  0.7450 -0.4962
31157SOL     OW95723   5.427   6.418   7.676 -0.3624 -0.1861 -0.3107
31157SOL    HW195724   5.469   6.378   7.599  0.8419  1.1645 -0.4007
31157SOL    HW295725   5.333   6.415   7.656 -0.2122 -1.6784 -0.9134
31158SOL     OW95726   5.074   2.274   9.985 -0.2615  0.0051  1.0340
31158SOL    HW195727   5.107   2.313   9.904 -2.0602 -2.1483 -0.8986
31158SOL    HW295728   5.013   2.339  10.020 -1.2356  0.0587 -0.6667
31159SOL     OW95729   5.498   4.305   2.953 -0.2366  0.4092  0.3157
31159SOL    HW195730   5.578   4.354   2.973 -0.3170 -0.1619  2.2410
31159SOL    HW295731   5.521   4.250   2.879  1.0815  0.4681  0.6525
31160SOL     OW95732   8.035   3.374   5.765  0.7981 -0.0822 -0.4107
31160SOL    HW195733   8.055   3.335   5.680  0.1905 -0.0889 -0.5571
31160SOL    HW295734   8.102   3.340   5.824  1.6425  0.4893 -1.0392
31161SOL     OW95735   0.442   6.606   2.840 -0.2070 -0.1931  0.0639
31161SOL    HW195736   0.425   6.607   2.934  2.0215 -0.7641  0.5303
31161SOL    HW295737   0.361   6.637   2.801 -1.6440 -1.1789  2.0837
31162SOL     OW95738   2.322   3.506   0.725  0.0855 -0.0713  0.3323
31162SOL    HW195739   2.269   3.517   0.646 -1.0026 -0.6164  0.9616
31162SOL    HW295740   2.378   3.584   0.727 -1.8818  1.4154  0.5370
31163SOL     OW95741   2.778   3.829   8.774  0.4018 -0.0227  0.1843
31163SOL    HW195742   2.766   3.736   8.754 -0.8573  0.4877 -1.7264
31163SOL    HW295743   2.689   3.863   8.783  0.8569  0.7074  2.6244
31164SOL     OW95744   9.932   1.283  10.243 -0.0972 -0.1410 -0.3971
31164SOL    HW195745   9.930   1.298  10.149  1.5457  1.9482 -0.1684
31164SOL    HW295746   9.889   1.360  10.280 -0.1202 -0.6190  0.5927
31165SOL     OW95747   4.239   3.195   9.872  0.0838 -0.3139 -0.0130
31165SOL    HW195748   4.228   3.108   9.834 -1.7087 -1.4342  2.7625
31165SOL    HW295749   4.284   3.180   9.955 -0.8330  1.2658  0.8349
31166SOL     OW95750  10.004   1.764   5.146  0.3325 -0.2611  0.0564
31166SOL    HW195751   9.941   1.763   5.074  0.4796 -1.3808 -0.0658
31166SOL    HW295752  10.042   1.852   5.143  1.5095 -0.7839 -2.2645
31167SOL     OW95753   3.384   9.729   6.867 -0.2970  0.4264  0.1717
31167SOL    HW195754   3.395   9.669   6.793  1.0072  1.7221 -0.7526
31167SOL    HW295755   3.430   9.686   6.939 -0.1100 -0.0710 -0.2352
31168SOL     OW95756   1.388   2.258   8.912 -0.1943  0.8478  0.1567
31168SOL    HW195757   1.463   2.303   8.872  0.5463 -0.3568  0.1236
31168SOL    HW295758   1.336   2.327   8.951  0.3073  1.8377 -0.8687
31169SOL     OW95759   0.702   2.079   1.467  0.2192  0.3962  0.2573
31169SOL    HW195760   0.657   2.001   1.497 -0.7476  0.9167  0.2208
31169SOL    HW295761   0.633   2.146   1.461  1.0696  1.3349  0.5870
31170SOL     OW95762   1.903   8.351   7.241 -0.3506 -0.4747  0.2191
31170SOL    HW195763   1.927   8.266   7.204  0.2088 -0.3331  0.2399
31170SOL    HW295764   1.987   8.391   7.264 -0.4788  0.7526 -1.2486
31171SOL     OW95765   6.850   0.912   0.356  0.0676  0.1363 -0.2530
31171SOL    HW195766   6.856   0.824   0.318  0.9206  0.5687 -1.1265
31171SOL    HW295767   6.873   0.899   0.448  0.3606 -0.5235 -0.4103
31172SOL     OW95768   8.899   7.884   5.701 -0.7768  0.6828 -0.3831
31172SOL    HW195769   8.900   7.978   5.721  1.3636  0.4335  1.0225
31172SOL    HW295770   8.839   7.846   5.765  0.0341  0.8617  0.5115
31173SOL     OW95771   7.118   1.976   8.179  0.0833  0.2883 -0.1271
31173SOL    HW195772   7.189   1.979   8.243 -0.5983 -0.4151  0.6812
31173SOL    HW295773   7.098   1.883   8.168 -1.2937  0.4979  0.3395
31174SOL     OW95774   8.873   8.688   2.070 -0.3291  0.6208  0.2930
31174SOL    HW195775   8.856   8.602   2.109  1.6141 -0.2043 -0.5712
31174SOL    HW295776   8.949   8.721   2.117 -0.8498  1.7411  0.3809
31175SOL     OW95777  10.036   8.127   4.360 -0.1736 -0.9776  0.4040
31175SOL    HW195778  10.124   8.141   4.325 -0.2738  1.4009  0.9590
31175SOL    HW295779  10.045   8.136   4.455 -0.9635 -1.0897  0.5004
31176SOL     OW95780   0.400   9.669   1.441 -0.6205 -0.0754  0.6899
31176SOL    HW195781   0.320   9.697   1.484 -1.6783 -1.6474 -0.1673
31176SOL    HW295782   0.400   9.574   1.448 -0.2852 -0.3325 -1.7278
31177SOL     OW95783   6.821   2.999   0.390 -0.2738 -0.1083 -0.0975
31177SOL    HW195784   6.773   2.933   0.439 -1.8723 -0.3385 -1.8687
31177SOL    HW295785   6.896   3.020   0.445 -2.0414 -0.2124  2.4920
31178SOL     OW95786   4.257   2.046   8.001 -0.3895 -0.1664  0.0963
31178SOL    HW195787   4.259   2.132   7.959 -0.3997 -0.1949  0.0366
31178SOL    HW295788   4.349   2.019   8.007 -0.4726 -0.8777 -1.3887
31179SOL     OW95789   4.753   8.128   0.440 -0.4048  0.9799 -1.0098
31179SOL    HW195790   4.744   8.111   0.346  0.7125 -1.1037 -0.8131
31179SOL    HW295791   4.826   8.190   0.447  0.0231  0.5386 -1.4922
31180SOL     OW95792   8.789   3.109  10.653 -0.2622  0.5929 -0.0385
31180SOL    HW195793   8.722   3.041  10.651 -0.9972  1.2893  0.2044
31180SOL    HW295794   8.853   3.077  10.717 -0.4897  0.0381 -0.0806
31181SOL     OW95795   3.489   3.256  10.379 -0.1737  0.0608  1.3451
31181SOL    HW195796   3.570   3.268  10.428 -1.6952  0.5739  3.8882
31181SOL    HW295797   3.505   3.178  10.325  2.0766  0.3274  1.5299
31182SOL     OW95798   4.046   2.627   4.431  0.3300  0.0924 -0.3340
31182SOL    HW195799   4.017   2.665   4.348  0.0831 -1.2157 -0.8741
31182SOL    HW295800   3.969   2.630   4.488  1.2446  3.8430  1.0273
31183SOL     OW95801   2.744   1.358   0.578  0.5319 -0.6697  0.5421
31183SOL    HW195802   2.780   1.410   0.506 -0.5401  0.1912  0.5999
31183SOL    HW295803   2.749   1.416   0.654 -0.2749 -0.7942  0.7028
31184SOL     OW95804   7.097   4.496   3.879  0.5298  0.3322 -0.8992
31184SOL    HW195805   7.104   4.587   3.908  0.7490 -0.0498  0.3371
31184SOL    HW295806   7.124   4.445   3.956 -2.8272 -0.8928 -0.3524
31185SOL     OW95807   5.102  10.291   3.265 -0.2511  0.1828  0.4400
31185SOL    HW195808   5.086  10.197   3.255  0.5704  0.0962 -0.2013
31185SOL    HW295809   5.197  10.298   3.273 -0.2744  0.9868  0.0931
31186SOL     OW95810   5.030   3.347   2.528  0.3485  0.3611 -0.4097
31186SOL    HW195811   5.012   3.398   2.449  3.1383  1.4060 -0.4907
31186SOL    HW295812   5.069   3.410   2.588  3.1618 -1.4144 -0.1967
31187SOL     OW95813   4.454   0.219  10.524 -0.5281 -0.2753  0.0643
31187SOL    HW195814   4.521   0.173  10.474  0.8691  1.4294  0.2719
31187SOL    HW295815   4.498   0.246  10.604 -0.8589  2.4525 -0.5723
31188SOL     OW95816   7.090  10.449   8.515 -0.3423  0.3717  0.2827
31188SOL    HW195817   7.107  10.371   8.567 -0.4869  1.3593  1.8959
31188SOL    HW295818   7.177  10.477   8.484 -0.2987 -0.4340 -0.3413
31189SOL     OW95819   5.958   2.473   7.149  0.3372  0.3633  0.1598
31189SOL    HW195820   5.987   2.383   7.161  0.4180 -0.1841 -3.1792
31189SOL    HW295821   5.862   2.467   7.154  0.3753  0.3033  0.9561
31190SOL     OW95822   5.146   0.094   2.566  0.6659  0.1262  0.0083
31190SOL    HW195823   5.086   0.033   2.609  0.5952  0.3977  0.3078
31190SOL    HW295824   5.210   0.116   2.634  1.2819 -0.3876 -0.3967
31191SOL     OW95825   4.782  10.291   1.928 -0.0892 -0.1301  0.0171
31191SOL    HW195826   4.778  10.330   2.016  1.5196  0.7151 -0.2390
31191SOL    HW295827   4.739  10.356   1.872  1.4258  0.7119 -0.2145
31192SOL     OW95828   1.678   7.703   9.110 -0.1240  0.6244  0.0353
31192SOL    HW195829   1.740   7.759   9.063 -1.5936  2.2366 -0.0916
31192SOL    HW295830   1.722   7.619   9.117  1.9719  1.6401 -0.2275
31193SOL     OW95831   9.602   5.716   9.558  0.1678  0.3042 -0.0930
31193SOL    HW195832   9.552   5.637   9.580  0.8972  0.1595  1.1644
31193SOL    HW295833   9.548   5.763   9.495 -0.7494 -0.6954 -0.0691
31194SOL     OW95834   3.940   3.997   1.703 -0.0484 -0.3125  0.0786
31194SOL    HW195835   3.947   3.905   1.679  0.9730 -0.1089 -0.4444
31194SOL    HW295836   3.960   3.999   1.797  0.2626 -0.5785  0.0193
31195SOL     OW95837   0.157   5.165   4.982  0.0414  0.1897 -0.4053
31195SOL    HW195838   0.138   5.223   4.908  0.4684  1.9639  0.8174
31195SOL    HW295839   0.071   5.139   5.015 -0.1592  0.3180 -0.8252
31196SOL     OW95840  10.268   6.698   8.457  0.1981  0.4870 -0.4412
31196SOL    HW195841  10.201   6.653   8.509  0.1969 -0.0132 -0.8667
31196SOL    HW295842  10.323   6.627   8.422  0.4519  0.8410 -0.7691
31197SOL     OW95843   2.698   2.503   1.293 -0.2004  0.4082  0.7139
31197SOL    HW195844   2.643   2.578   1.271 -0.1741  0.0514 -0.6476
31197SOL    HW295845   2.648   2.427   1.264 -0.6789 -0.2278  2.9677
31198SOL     OW95846  10.155   2.667   8.939  0.1561 -0.2036 -0.2339
31198SOL    HW195847  10.081   2.606   8.933 -0.4587  0.4368  0.6254
31198SOL    HW295848  10.158   2.692   9.031  1.5960 -0.3848 -0.2176
31199SOL     OW95849   6.054  10.325   8.853 -0.3876  0.2388 -0.0853
31199SOL    HW195850   6.150  10.323   8.855 -0.3863 -1.2066  2.1987
31199SOL    HW295851   6.029  10.234   8.835 -1.3868  0.8068 -1.8067
31200SOL     OW95852   9.354   9.635   6.849  0.1103 -0.6161  0.0173
31200SOL    HW195853   9.381   9.683   6.771  0.8740  3.8204  2.6346
31200SOL    HW295854   9.422   9.570   6.863  1.2376  0.1418 -1.6602
31201SOL     OW95855   2.930   0.261  10.630 -0.1244  0.3490  0.5539
31201SOL    HW195856   2.956   0.304  10.548 -1.1187  0.9851  0.5448
31201SOL    HW295857   2.975   0.311  10.698 -0.5404  0.8260  0.4844
31202SOL     OW95858   2.943   5.926   6.907  0.4504  0.1397 -0.3223
31202SOL    HW195859   2.938   6.004   6.853  0.3562  0.3548 -0.0026
31202SOL    HW295860   3.026   5.935   6.955 -0.2640  0.7701  0.8260
31203SOL     OW95861   6.251   1.309   1.536 -0.4247  0.4628  0.7360
31203SOL    HW195862   6.267   1.230   1.589 -0.8357  1.3611  2.2706
31203SOL    HW295863   6.338   1.350   1.528  0.0234 -0.7592 -1.1596
31204SOL     OW95864   0.968   3.672  10.182 -0.2510  0.4215  0.0980
31204SOL    HW195865   0.872   3.679  10.188 -0.3178  0.0961 -0.5346
31204SOL    HW295866   1.000   3.750  10.228 -0.8699  1.7071 -1.5074
31205SOL     OW95867   7.326   1.720   0.033 -0.1247  0.2031  0.1097
31205SOL    HW195868   7.301   1.760  -0.050  3.6494  3.3000  0.1559
31205SOL    HW295869   7.280   1.772   0.099 -0.1627  0.3115 -0.0011
31206SOL     OW95870   9.319   1.544   0.768  0.0435 -0.5294  0.5907
31206SOL    HW195871   9.302   1.568   0.859  1.1958 -1.1347  0.9852
31206SOL    HW295872   9.286   1.618   0.717 -2.4867 -1.0746  1.3350
31207SOL     OW95873   8.650   7.292   4.336  0.0994 -0.0250  0.2761
31207SOL    HW195874   8.728   7.348   4.326  0.0814  0.0529  0.5647
31207SOL    HW295875   8.585   7.349   4.378 -0.6683  0.4083 -1.4087
31208SOL     OW95876   1.043   4.525   0.215 -0.5844 -0.1982 -0.0533
31208SOL    HW195877   1.132   4.528   0.249 -0.9480 -0.4464  0.9610
31208SOL    HW295878   1.020   4.432   0.216 -0.9112 -0.1200 -0.1372
31209SOL     OW95879   8.613   8.681   2.882 -0.2307 -0.0896  0.3614
31209SOL    HW195880   8.581   8.752   2.937  0.6253  1.5344 -1.1401
31209SOL    HW295881   8.652   8.724   2.806  1.4003 -2.1044 -0.0666
31210SOL     OW95882   7.747   1.077   9.834 -1.0295  0.1088  0.2041
31210SOL    HW195883   7.757   0.983   9.842 -1.1547  0.0754 -0.0403
31210SOL    HW295884   7.742   1.108   9.925  2.4028  0.2743  0.4749
31211SOL     OW95885   9.804  10.451   4.371  0.0414 -0.3025 -0.4051
31211SOL    HW195886   9.880  10.408   4.409  0.9669  0.6541 -1.1165
31211SOL    HW295887   9.819  10.448   4.276  0.4709  2.1142 -0.4712
31212SOL     OW95888   1.781   6.192   1.282  0.4131  0.0165  0.6323
31212SOL    HW195889   1.750   6.185   1.191  0.8251 -1.1510  0.5615
31212SOL    HW295890   1.722   6.254   1.323 -1.9113 -1.9298  0.4383
31213SOL     OW95891   6.122   7.414   3.097 -0.2636  0.1710 -0.3100
31213SOL    HW195892   6.217   7.426   3.095  0.3805 -3.6500 -0.6274
31213SOL    HW295893   6.106   7.361   3.175 -2.0063 -0.1257 -0.8157
31214SOL     OW95894   9.255   5.737   8.564  0.3398 -0.2617 -0.3795
31214SOL    HW195895   9.203   5.707   8.639 -0.5152  1.4255 -0.2373
31214SOL    HW295896   9.267   5.659   8.510  0.9864 -1.5300  1.4846
31215SOL     OW95897   7.920   2.158   1.366  0.2665  0.5875 -0.5378
31215SOL    HW195898   7.912   2.147   1.461 -1.9982  0.9844 -0.6363
31215SOL    HW295899   7.870   2.085   1.329 -0.5239  1.5115 -1.3726
31216SOL     OW95900   4.444   6.352   7.728 -0.1606  0.0888  0.0838
31216SOL    HW195901   4.362   6.401   7.724  0.0972  0.4494 -1.3988
31216SOL    HW295902   4.439   6.289   7.657  1.1036  0.5729 -0.4776
31217SOL     OW95903   7.973   7.898   6.421 -0.6794  0.3258 -0.1593
31217SOL    HW195904   8.067   7.881   6.406 -0.7957  1.2656 -2.2518
31217SOL    HW295905   7.967   7.914   6.515  0.9656 -1.4420  0.3303
31218SOL     OW95906   6.030   7.042   3.690 -0.2467  0.5833  0.5390
31218SOL    HW195907   6.093   7.040   3.618  1.0542 -1.4506  1.6397
31218SOL    HW295908   5.945   7.029   3.647  0.1116  2.3758 -0.8683
31219SOL     OW95909   4.638   8.957   8.904  0.0846 -0.0143 -0.0069
31219SOL    HW195910   4.597   9.043   8.895  1.5802  0.9004  1.4196
31219SOL    HW295911   4.666   8.953   8.996 -0.1522 -2.1330  0.0276
31220SOL     OW95912   7.554   9.016   7.403 -0.5124  0.3281  0.3853
31220SOL    HW195913   7.522   9.103   7.428 -0.0233  0.8734 -0.8375
31220SOL    HW295914   7.643   9.030   7.372 -0.3332 -0.6541  0.4056
31221SOL     OW95915   9.022   5.031   9.212  0.2627 -0.1354 -0.1247
31221SOL    HW195916   9.099   5.069   9.255  0.3521 -0.8030  0.3168
31221SOL    HW295917   8.993   5.099   9.151  1.3130  0.0602 -0.4367
31222SOL     OW95918   5.229   0.973   4.021  0.0912 -0.4469  0.1077
31222SOL    HW195919   5.251   0.992   3.930  1.7305 -1.8990  0.1547
31222SOL    HW295920   5.229   1.058   4.065  1.6904  0.0436 -0.7665
31223SOL     OW95921   5.107   9.099   4.244 -0.4896  0.1031 -0.0077
31223SOL    HW195922   5.109   9.169   4.179  0.8032 -0.1789 -0.3126
31223SOL    HW295923   5.198   9.068   4.249 -0.0825  1.3798  3.3316
31224SOL     OW95924   9.427   7.439   6.602  0.2690  0.1728 -0.3700
31224SOL    HW195925   9.485   7.446   6.677  2.6666 -1.5235 -1.9066
31224SOL    HW295926   9.367   7.368   6.624 -1.5366  2.0622  1.3071
31225SOL     OW95927   4.446   1.452   0.495  0.0649 -0.0547 -0.0994
31225SOL    HW195928   4.468   1.366   0.460  1.1340  0.9548 -2.0226
31225SOL    HW295929   4.350   1.452   0.500  0.0759 -2.2088  2.3790
31226SOL     OW95930   7.021   1.495   8.294  0.5032 -0.0059 -0.0898
31226SOL    HW195931   7.104   1.453   8.274  1.4542  0.6718  2.1585
31226SOL    HW295932   6.955   1.438   8.253  1.9022 -2.0726  0.3882
31227SOL     OW95933   2.628   2.545   7.432 -0.0993  0.3931 -0.4962
31227SOL    HW195934   2.708   2.515   7.389 -0.3483 -1.0271 -0.0186
31227SOL    HW295935   2.557   2.500   7.387 -0.4364 -0.3338  0.7093
31228SOL     OW95936   9.301   5.090   5.423  0.2598 -0.6424 -0.3660
31228SOL    HW195937   9.374   5.110   5.481 -0.6656  1.7237  0.1088
31228SOL    HW295938   9.272   5.003   5.449  0.6059 -0.1292  1.9755
31229SOL     OW95939   1.511   7.849   5.178  0.1767 -0.0939 -0.4845
31229SOL    HW195940   1.463   7.916   5.227  0.3671 -0.6826  0.5350
31229SOL    HW295941   1.603   7.867   5.198  0.1788 -1.4192  0.8585
31230SOL     OW95942   3.400   2.760   1.587 -0.1911 -0.6124  0.4943
31230SOL    HW195943   3.475   2.820   1.591 -0.1010 -0.7297  0.5603
31230SOL    HW295944   3.346   2.784   1.663  0.1322 -0.9936  0.8512
31231SOL     OW95945   7.278   5.909   3.873  0.5305 -0.3484 -0.1422
31231SOL    HW195946   7.250   5.935   3.786  1.0348  3.4328  0.6379
31231SOL    HW295947   7.371   5.888   3.864  0.4313 -0.5605 -0.6324
31232SOL     OW95948   7.118   3.488   7.361  0.4620 -0.3010  0.1312
31232SOL    HW195949   7.103   3.574   7.400  3.3268  0.4675 -0.2321
31232SOL    HW295950   7.041   3.472   7.306  0.0853  2.2512 -0.1744
31233SOL     OW95951   2.410  10.025   2.697  0.6632 -0.1584 -0.2336
31233SOL    HW195952   2.365  10.101   2.734  0.4339  0.2446 -1.3053
31233SOL    HW295953   2.386   9.953   2.755  0.6857  0.5221  0.6637
31234SOL     OW95954   7.680   3.534   4.960  0.0670 -0.5966  0.5353
31234SOL    HW195955   7.770   3.504   4.972  0.8687  0.5636 -1.8819
31234SOL    HW295956   7.635   3.460   4.920  0.0358 -1.0400  1.3700
31235SOL     OW95957   2.623   5.141   8.255 -0.1815  0.3344 -0.0495
31235SOL    HW195958   2.555   5.203   8.230 -0.4706 -0.7722 -2.2886
31235SOL    HW295959   2.587   5.055   8.233  0.2002 -0.7043  2.9447
31236SOL     OW95960   8.391   6.301   9.616  0.6848  0.3336  0.5523
31236SOL    HW195961   8.479   6.334   9.597  0.3897  0.2833 -1.1068
31236SOL    HW295962   8.391   6.284   9.710  1.9935  1.6739  0.8407
31237SOL     OW95963   9.724   5.933   7.469 -0.7882  0.1399  0.6415
31237SOL    HW195964   9.644   5.983   7.457 -0.8199 -0.2796 -1.3319
31237SOL    HW295965   9.699   5.842   7.453 -0.0090 -0.0426  0.3919
31238SOL     OW95966   2.407   7.460   7.969 -0.6434 -0.3111  0.4717
31238SOL    HW195967   2.369   7.394   7.912  0.3236 -2.2481  1.9687
31238SOL    HW295968   2.471   7.505   7.914 -0.2070 -1.6739 -0.1780
31239SOL     OW95969  10.597   3.270   4.651 -0.1464 -0.2998  0.2567
31239SOL    HW195970  10.524   3.225   4.694 -1.3003  3.0205  2.0816
31239SOL    HW295971  10.670   3.261   4.712 -0.1107 -0.4535  0.1918
31240SOL     OW95972   5.044   8.567   2.536 -0.1278  0.5086  0.1810
31240SOL    HW195973   5.086   8.552   2.620 -0.6666 -2.1239  0.0457
31240SOL    HW295974   5.109   8.540   2.471 -0.7459 -0.2819 -0.1298
31241SOL     OW95975  10.485   1.204   7.879 -0.5492  0.1151 -0.3037
31241SOL    HW195976  10.452   1.114   7.888  1.4939 -0.7634 -1.0330
31241SOL    HW295977  10.568   1.204   7.926  0.0539  1.2939 -1.3161
31242SOL     OW95978   5.448   6.596   8.109 -0.4353 -0.2739 -0.3172
31242SOL    HW195979   5.408   6.514   8.084  0.3197 -1.5843  2.3594
31242SOL    HW295980   5.526   6.571   8.160 -0.8982  1.9998  1.7519
31243SOL     OW95981  10.232   6.871   5.801  0.2339 -0.1783  0.2444
31243SOL    HW195982  10.263   6.956   5.770 -0.1508  0.4634  1.5459
31243SOL    HW295983  10.203   6.887   5.890  1.2027 -1.9330  0.9228
31244SOL     OW95984   9.110   6.824   7.213 -0.3788 -0.0439  0.3982
31244SOL    HW195985   9.018   6.804   7.231  0.2564 -0.8934  3.1882
31244SOL    HW295986   9.129   6.901   7.266  0.5125  0.1411 -0.1689
31245SOL     OW95987   4.229   3.488   4.243 -0.4147 -0.2851  0.2661
31245SOL    HW195988   4.185   3.483   4.158  0.4981  0.3471 -0.2662
31245SOL    HW295989   4.171   3.541   4.297 -0.4780  0.2456 -0.3110
31246SOL     OW95990   0.487   7.681   2.188  0.2206 -0.2386  0.6260
31246SOL    HW195991   0.545   7.667   2.263  1.3381  0.9106  0.0041
31246SOL    HW295992   0.546   7.691   2.113 -0.6920  2.0667  0.1413
31247SOL     OW95993   0.605   4.202   4.678  0.1010  0.3534  0.4209
31247SOL    HW195994   0.576   4.158   4.758 -1.2805  0.4919  0.0234
31247SOL    HW295995   0.531   4.195   4.618  0.6586  1.3143 -0.4248
31248SOL     OW95996   8.664   0.234   4.642  0.3376 -0.2056 -0.0304
31248SOL    HW195997   8.580   0.267   4.609 -0.0453  0.0593  1.1710
31248SOL    HW295998   8.684   0.160   4.585  0.8143  1.5512 -2.2785
31249SOL     OW95999   8.668   1.193   0.086  0.4710  0.3289 -0.9431
31249SOL    HW196000   8.665   1.256   0.015 -1.1478 -0.0670 -1.2914
31249SOL    HW296001   8.577   1.162   0.094  0.9568 -0.9462  0.1039
31250SOL     OW96002   9.470   0.915   5.788 -0.1173  0.8012 -0.6381
31250SOL    HW196003   9.463   1.004   5.754 -1.1122  0.9302 -0.1249
31250SOL    HW296004   9.427   0.918   5.874  1.2269  0.1976  0.1044
31251SOL     OW96005   9.589   5.074   5.364  0.4638  0.6983  0.2381
31251SOL    HW196006   9.657   5.035   5.308 -0.0662 -0.7152  0.5444
31251SOL    HW296007   9.512   5.019   5.350  0.1486  0.6528  1.9196
31252SOL     OW96008   3.713   2.428   8.777  0.0539  0.0426  0.0854
31252SOL    HW196009   3.789   2.408   8.832  0.6427 -0.1830 -0.7736
31252SOL    HW296010   3.750   2.441   8.690 -0.9790 -0.8231 -0.5061
31253SOL     OW96011   4.209   1.116   6.084 -0.3147 -0.1889  0.2435
31253SOL    HW196012   4.229   1.194   6.033 -0.1617 -0.0033  0.5808
31253SOL    HW296013   4.129   1.138   6.132 -0.1063 -0.1223  0.5693
31254SOL     OW96014   6.324   2.052   2.144  0.3775  0.2055 -0.5529
31254SOL    HW196015   6.280   2.054   2.059 -0.1612 -1.5716 -0.3460
31254SOL    HW296016   6.272   2.110   2.200 -0.9948 -0.8899 -0.6549
31255SOL     OW96017   2.158   4.803   3.481  0.5709  1.0003 -0.2682
31255SOL    HW196018   2.161   4.859   3.558 -2.4197 -0.5598  1.1255
31255SOL    HW296019   2.112   4.856   3.415  0.4884  1.2832  0.0145
31256SOL     OW96020   7.141   1.868   3.213 -0.0354 -0.4600 -0.0133
31256SOL    HW196021   7.181   1.850   3.298 -0.3562  0.7689  0.4186
31256SOL    HW296022   7.053   1.830   3.220 -0.7734  1.2715  0.9584
31257SOL     OW96023   9.950   7.691   5.661 -0.3137 -0.7624  0.1313
31257SOL    HW196024   9.908   7.692   5.747 -0.4014  0.8216  0.0904
31257SOL    HW296025  10.043   7.701   5.680 -0.4318  0.7377  0.0175
31258SOL     OW96026   5.220   1.555   5.840 -0.0862  0.1817  0.3600
31258SOL    HW196027   5.277   1.563   5.916 -0.0058 -0.5812  0.3880
31258SOL    HW296028   5.160   1.629   5.846  1.0194  1.1133  0.2272
31259SOL     OW96029   5.128   7.478   3.045 -0.4122 -0.3001  0.0294
31259SOL    HW196030   5.142   7.437   2.959 -0.8611 -0.2716 -0.0584
31259SOL    HW296031   5.054   7.431   3.082  0.3915 -0.9815  0.8347
31260SOL     OW96032   0.723   3.943   0.639 -0.1877 -0.0365  0.2398
31260SOL    HW196033   0.676   3.920   0.720  1.2287  0.4135  1.2277
31260SOL    HW296034   0.804   3.983   0.669  1.3714 -1.7657 -1.3817
31261SOL     OW96035   0.030   3.738   6.095 -0.2589 -0.0181  0.4680
31261SOL    HW196036   0.005   3.831   6.093 -0.6717 -0.0846  1.7523
31261SOL    HW296037  -0.015   3.703   6.172 -0.2617 -1.3393 -0.1090
31262SOL     OW96038   3.234   2.983   4.152  0.0383 -0.1080 -0.3722
31262SOL    HW196039   3.208   2.901   4.111 -0.5087  0.2487 -0.7693
31262SOL    HW296040   3.161   3.043   4.133  0.4877  0.5039 -0.2108
31263SOL     OW96041   7.406   5.787   0.450  0.4046 -0.3473 -0.1948
31263SOL    HW196042   7.482   5.729   0.458  2.2700  1.9317 -0.0538
31263SOL    HW296043   7.379   5.804   0.540  1.0397  0.3851 -0.1285
31264SOL     OW96044   4.733   9.416   8.426  0.1066 -0.1849  0.5444
31264SOL    HW196045   4.754   9.445   8.337  1.3430  2.1362  1.5050
31264SOL    HW296046   4.819   9.401   8.467 -0.4438 -3.6881  0.6979
31265SOL     OW96047   1.982   0.708   7.564 -0.2222  0.2782 -0.3433
31265SOL    HW196048   1.915   0.776   7.559 -2.4530 -1.8441 -1.3353
31265SOL    HW296049   1.955   0.643   7.499  2.1966 -1.2359  0.0335
31266SOL     OW96050   4.234   1.539   7.080  0.2398 -0.2043 -0.0931
31266SOL    HW196051   4.222   1.528   6.986 -0.5185  0.2764 -0.0621
31266SOL    HW296052   4.170   1.480   7.120 -0.7721  0.9702  0.0953
31267SOL     OW96053   9.444   2.111   4.260  0.2155  0.4217  0.1293
31267SOL    HW196054   9.467   2.059   4.183 -0.6804 -0.1141  0.2077
31267SOL    HW296055   9.498   2.074   4.330  1.7610  1.5499 -0.4136
31268SOL     OW96056  10.325   9.017   3.596 -0.0890  0.1014  0.0425
31268SOL    HW196057  10.409   8.974   3.582 -0.0113 -0.0358  0.8669
31268SOL    HW296058  10.263   8.945   3.607 -0.4863  0.1954 -1.4469
31269SOL     OW96059   1.941   5.046   5.133  0.3924  0.4942 -0.7069
31269SOL    HW196060   1.942   5.101   5.055  0.6649  1.2107 -0.2000
31269SOL    HW296061   1.978   5.100   5.202 -1.4911  0.4929  0.3636
31270SOL     OW96062   3.146   7.040   5.572 -0.0412  0.1649 -0.0530
31270SOL    HW196063   3.094   7.078   5.643  0.7782 -0.7405  1.0638
31270SOL    HW296064   3.182   7.116   5.526 -0.4850  0.7742  0.5772
31271SOL     OW96065   0.258   6.770   5.652 -0.3745  0.3443 -0.2347
31271SOL    HW196066   0.259   6.865   5.644  0.7160  0.5780  1.9474
31271SOL    HW296067   0.167   6.746   5.637 -1.1171  1.9814  1.2842
31272SOL     OW96068   2.578   8.882   9.109  0.0958 -0.0288  0.5510
31272SOL    HW196069   2.501   8.877   9.053 -0.5569  1.0997  1.3209
31272SOL    HW296070   2.545   8.911   9.194  1.5088  2.1240  0.4617
31273SOL     OW96071   9.274   1.056   8.414 -0.3020  0.0123  0.2172
31273SOL    HW196072   9.273   1.094   8.501 -1.0218 -0.1685  0.2978
31273SOL    HW296073   9.366   1.049   8.391 -0.1288  0.6570  0.7020
31274SOL     OW96074   8.276   1.576   0.351  0.5894 -0.2752  0.3323
31274SOL    HW196075   8.296   1.483   0.357 -0.1863 -0.6459 -1.8759
31274SOL    HW296076   8.187   1.584   0.385  0.3535 -0.5012 -0.2145
31275SOL     OW96077   5.716  10.384   7.238 -0.1143 -0.3539  0.2607
31275SOL    HW196078   5.672  10.387   7.153 -0.2817 -0.5949  0.3393
31275SOL    HW296079   5.798  10.432   7.224 -0.0699 -0.5280 -0.0750
31276SOL     OW96080   2.073   9.515   1.982 -0.2858  0.5971  0.0215
31276SOL    HW196081   2.018   9.454   2.031 -0.2753  0.3589 -0.2612
31276SOL    HW296082   2.035   9.516   1.894 -0.6943  1.5144  0.2004
31277SOL     OW96083   5.519   1.139   3.766 -0.5361  0.1130 -0.8852
31277SOL    HW196084   5.428   1.108   3.760 -0.9996  1.0005  0.8000
31277SOL    HW296085   5.547   1.110   3.853  0.6005  0.3758 -1.1591
31278SOL     OW96086   3.002   4.281   5.894 -0.1616  0.0822  0.1960
31278SOL    HW196087   2.960   4.203   5.929  1.0819 -0.2302  1.0595
31278SOL    HW296088   3.096   4.262   5.898  0.2123  1.8517  1.0526
31279SOL     OW96089   7.172   5.852   1.016 -0.6526  0.6776 -0.0199
31279SOL    HW196090   7.260   5.815   1.027 -0.8408  0.2618  0.1260
31279SOL    HW296091   7.120   5.779   0.981 -0.8545  1.0243 -0.4476
31280SOL     OW96092   1.103   1.930   9.136 -0.1494 -0.2118  0.0565
31280SOL    HW196093   1.119   1.836   9.142 -0.6321 -0.3058 -0.1392
31280SOL    HW296094   1.022   1.944   9.184 -0.1545  0.0855 -0.0389
31281SOL     OW96095   3.118   3.978   4.475  0.1603 -0.3729 -0.2734
31281SOL    HW196096   3.178   4.043   4.510 -4.0826  2.7805  2.0822
31281SOL    HW296097   3.123   3.905   4.537  0.8089  0.2585  0.4275
31282SOL     OW96098   0.590   3.577   4.617  0.5744  0.1295  0.2350
31282SOL    HW196099   0.605   3.524   4.694  0.8157  0.9737  0.7858
31282SOL    HW296100   0.501   3.556   4.590  0.6302 -0.4655  0.5015
31283SOL     OW96101   1.489   7.031   7.415 -0.4013 -0.1525 -0.8667
31283SOL    HW196102   1.533   7.071   7.340 -0.5812  0.8631 -0.4413
31283SOL    HW296103   1.520   6.940   7.414  2.2845  0.6594 -0.2058
31284SOL     OW96104   7.814   5.362   5.986  0.3525  0.2373 -0.0190
31284SOL    HW196105   7.828   5.299   5.915 -0.0378 -0.3043  0.3725
31284SOL    HW296106   7.744   5.418   5.955 -0.8056 -0.8768  0.4829
31285SOL     OW96107   4.607   1.877   6.027 -0.0313  0.4388 -0.2422
31285SOL    HW196108   4.549   1.836   5.963  0.4542 -0.1059 -0.3515
31285SOL    HW296109   4.598   1.971   6.012 -0.5877  0.3446 -0.5159
31286SOL     OW96110   3.925   1.188   7.695 -0.2763  0.0126 -0.2845
31286SOL    HW196111   3.957   1.183   7.605  0.4563 -2.0015  0.0399
31286SOL    HW296112   3.892   1.100   7.713 -2.3166  0.9357  0.7620
31287SOL     OW96113   0.523   4.762   8.966 -0.3772  0.5444 -0.3052
31287SOL    HW196114   0.535   4.696   9.034  0.8948  2.4219  1.3999
31287SOL    HW296115   0.433   4.750   8.937 -0.4620 -1.3272  0.5538
31288SOL     OW96116   8.789   7.111   3.659  0.2945 -0.5056  0.5475
31288SOL    HW196117   8.831   7.040   3.707  1.7787  0.4193  0.6724
31288SOL    HW296118   8.724   7.146   3.720 -0.9904 -2.1863  0.2241
31289SOL     OW96119   9.112   3.773   4.245  0.0047  0.2308 -0.7035
31289SOL    HW196120   9.203   3.744   4.246 -0.0396 -0.0539  2.0106
31289SOL    HW296121   9.067   3.713   4.305 -1.7946  0.8984 -1.3332
31290SOL     OW96122   3.916   7.317   7.401  0.0596 -0.4874  0.4508
31290SOL    HW196123   3.845   7.261   7.369  0.8797 -1.0755 -0.3839
31290SOL    HW296124   3.981   7.317   7.331 -0.4970  2.6820 -0.2104
31291SOL     OW96125   2.473   9.216   6.408  0.1482 -0.0431 -0.3371
31291SOL    HW196126   2.507   9.216   6.497 -0.1071  1.9025 -0.2100
31291SOL    HW296127   2.549   9.194   6.354  0.7017  0.4533  0.2296
31292SOL     OW96128   5.895   4.819   3.529  0.5645  0.0676  0.5073
31292SOL    HW196129   5.875   4.750   3.466 -1.0969  1.3889 -0.4713
31292SOL    HW296130   5.979   4.792   3.567  1.3541 -1.0475 -1.8349
31293SOL     OW96131   0.237   7.093   8.844 -0.0426  0.1597  0.4817
31293SOL    HW196132   0.225   7.010   8.891 -1.2270  0.2613  0.4001
31293SOL    HW296133   0.319   7.128   8.878 -0.0370 -0.5634  1.2598
31294SOL     OW96134   0.927  10.648   0.121 -0.0447 -0.7082  0.0800
31294SOL    HW196135   0.855  10.668   0.062 -0.3210 -1.0121  0.3151
31294SOL    HW296136   0.922  10.715   0.190 -0.4245 -1.0475  0.3825
31295SOL     OW96137   8.480   5.325   4.473  0.1694 -0.3425 -0.4065
31295SOL    HW196138   8.546   5.311   4.406  0.0568 -1.3101 -0.3244
31295SOL    HW296139   8.414   5.258   4.456 -1.1640  1.0312 -0.9327
31296SOL     OW96140   1.457   6.601  10.151  0.2525 -0.2066 -0.0890
31296SOL    HW196141   1.548   6.600  10.179 -0.0021 -1.3025  0.7301
31296SOL    HW296142   1.417   6.525  10.193 -1.4444  1.1746  0.9430
31297SOL     OW96143   7.218   3.388   5.943  0.0744  0.2217  0.7426
31297SOL    HW196144   7.291   3.400   5.882 -1.6948  1.3375 -1.2906
31297SOL    HW296145   7.232   3.454   6.010  0.7607  0.6346  0.2135
31298SOL     OW96146   0.013   9.133   1.126  0.0441  0.1334  0.4361
31298SOL    HW196147   0.038   9.074   1.054 -1.0943 -0.7801  0.7504
31298SOL    HW296148  -0.075   9.104   1.150  0.4363  0.3685  2.2542
31299SOL     OW96149   9.496   1.760   4.791  0.1401  0.4918  0.7941
31299SOL    HW196150   9.529   1.741   4.703  0.5802  0.4139  0.9734
31299SOL    HW296151   9.481   1.674   4.830 -1.1508  0.5102  0.4031
31300SOL     OW96152   3.083   2.344   5.750  0.0534 -0.0113  0.4744
31300SOL    HW196153   3.109   2.347   5.658  0.1157 -1.1569  0.4317
31300SOL    HW296154   3.166   2.333   5.798 -0.0121  0.2034  0.6383
31301SOL     OW96155   3.128   1.421   4.705 -0.2753  0.5161  0.4210
31301SOL    HW196156   3.174   1.505   4.704  0.5358  0.0883 -0.0154
31301SOL    HW296157   3.037   1.443   4.724 -0.4555  1.6846 -1.5273
31302SOL     OW96158   2.831   5.208   6.257  0.0017 -0.0205 -1.0379
31302SOL    HW196159   2.830   5.112   6.261 -1.5709 -0.0661 -1.8074
31302SOL    HW296160   2.847   5.228   6.165 -2.0697  0.3716 -1.3789
31303SOL     OW96161   4.125   1.131   3.868 -0.0180  0.2934  0.2174
31303SOL    HW196162   4.081   1.183   3.935 -2.0017  1.0423 -1.5286
31303SOL    HW296163   4.116   1.183   3.788 -0.5267 -1.9383 -1.2579
31304SOL     OW96164   6.709   1.605  10.416 -0.1816  0.1861 -0.0850
31304SOL    HW196165   6.684   1.526  10.464  0.6407 -1.1018 -1.6798
31304SOL    HW296166   6.755   1.658  10.481 -1.8613 -0.0268  1.3474
31305SOL     OW96167   0.336  10.273   4.075 -0.8506  0.6997 -0.1794
31305SOL    HW196168   0.346  10.367   4.056  0.2080  0.6849  0.2335
31305SOL    HW296169   0.290  10.271   4.159  2.8058  1.0210  2.0538
31306SOL     OW96170   3.453   1.241   3.462  0.2808  0.4880  0.0263
31306SOL    HW196171   3.447   1.236   3.557 -0.4720  0.2471 -0.0279
31306SOL    HW296172   3.362   1.247   3.432  0.3606 -1.5702 -0.7909
31307SOL     OW96173   7.552  10.084   0.704 -0.2110 -0.1925 -0.5606
31307SOL    HW196174   7.619  10.042   0.649  1.2812  1.5929 -0.2040
31307SOL    HW296175   7.545  10.027   0.780  2.1449  0.3350  0.1560
31308SOL     OW96176   1.665   4.353   7.689 -0.1405  0.1868 -0.0329
31308SOL    HW196177   1.663   4.288   7.618 -0.5676  1.2115 -0.9973
31308SOL    HW296178   1.584   4.337   7.737  0.6196 -1.1655  0.8685
31309SOL     OW96179   1.566   9.915   2.771  0.3237 -0.2644  0.1347
31309SOL    HW196180   1.657   9.907   2.800  0.2431  2.3634  1.4562
31309SOL    HW296181   1.571   9.919   2.676  1.4635 -1.1969  0.1375
31310SOL     OW96182   8.486   3.057   7.703 -0.3458 -0.1062  0.7791
31310SOL    HW196183   8.438   3.013   7.634 -0.4857  0.1564  0.7067
31310SOL    HW296184   8.572   3.075   7.666 -0.5481  0.3880  0.5294
31311SOL     OW96185   2.558   0.371   0.303  0.0514 -0.6452 -0.3562
31311SOL    HW196186   2.505   0.308   0.353 -1.2839 -0.6499 -1.6989
31311SOL    HW296187   2.642   0.327   0.291  0.0188 -1.0980  0.9051
31312SOL     OW96188  10.546   9.795   9.622  0.1187 -0.1814  0.2434
31312SOL    HW196189  10.527   9.710   9.584 -0.1350  0.1380 -0.3621
31312SOL    HW296190  10.546   9.780   9.717  0.6359 -0.9624  0.1302
31313SOL     OW96191   7.427  10.385   7.502 -0.3831  0.2088  0.2817
31313SOL    HW196192   7.358  10.364   7.566  1.6686 -2.0181  1.9675
31313SOL    HW296193   7.494  10.429   7.554  0.2977  0.6077 -0.9157
31314SOL     OW96194   6.385   3.089  10.017 -0.1867  0.1881 -0.5451
31314SOL    HW196195   6.369   3.088   9.922 -1.7370 -1.3544 -0.3279
31314SOL    HW296196   6.477   3.066  10.025 -0.7301 -3.0357 -1.6991
31315SOL     OW96197   8.618   7.298   3.168 -0.2306 -0.7725 -0.4176
31315SOL    HW196198   8.629   7.211   3.207  0.0885 -0.5644 -0.0410
31315SOL    HW296199   8.523   7.310   3.162 -0.2760 -1.0898 -0.3414
31316SOL     OW96200   8.843   5.794   4.355 -0.1785 -0.0992  0.5702
31316SOL    HW196201   8.845   5.773   4.449 -0.0398  2.6365  1.2426
31316SOL    HW296202   8.751   5.783   4.330  0.0686 -2.6318  0.5037
31317SOL     OW96203   0.090   4.613   4.535 -0.4366  0.0700  0.2532
31317SOL    HW196204   0.087   4.694   4.586 -1.2767 -0.5364  1.2135
31317SOL    HW296205   0.155   4.559   4.580 -0.3117 -0.0124 -0.0278
31318SOL     OW96206   3.176   0.394  10.207  0.4403 -0.4886  0.1849
31318SOL    HW196207   3.193   0.377  10.114 -0.2915 -0.6781  0.0794
31318SOL    HW296208   3.194   0.488  10.217  0.2618 -0.4072 -0.2107
31319SOL     OW96209   2.668   4.122   6.594  0.1891 -0.9155 -0.5615
31319SOL    HW196210   2.605   4.071   6.645  0.6276  0.7793  1.8880
31319SOL    HW296211   2.615   4.187   6.548 -0.0597 -1.0801 -0.5082
31320SOL     OW96212   0.998   1.052   2.292 -0.3556  0.3528 -0.3072
31320SOL    HW196213   0.907   1.043   2.266  0.3846  0.7996 -3.3656
31320SOL    HW296214   1.044   0.985   2.243  1.0730  0.4783  0.7857
31321SOL     OW96215   1.624   2.455   1.054 -0.4245  0.2294 -0.0796
31321SOL    HW196216   1.537   2.472   1.090 -0.4039  0.0731  0.0475
31321SOL    HW296217   1.682   2.512   1.104 -0.2783 -0.6223  0.7393
31322SOL     OW96218   9.466   6.536   0.904 -0.1024 -0.0766 -0.2402
31322SOL    HW196219   9.526   6.512   0.975 -0.6865 -0.2434  0.2066
31322SOL    HW296220   9.522   6.549   0.828  0.4141 -1.1058 -0.0460
31323SOL     OW96221   4.131   7.815   4.472 -0.6108  0.2161  0.2424
31323SOL    HW196222   4.167   7.783   4.390 -1.6440 -0.8184  0.1708
31323SOL    HW296223   4.116   7.736   4.524 -2.4879  0.6161  0.3762
31324SOL     OW96224   6.086   1.172   5.243  0.4186 -0.3223 -0.2307
31324SOL    HW196225   6.114   1.098   5.297  1.3463 -0.8432 -1.3853
31324SOL    HW296226   5.997   1.148   5.215  0.5321 -0.7843 -0.2096
31325SOL     OW96227   8.195   7.228   8.465 -0.2279  0.2582  0.0008
31325SOL    HW196228   8.184   7.264   8.377  0.0537 -1.3969 -0.7460
31325SOL    HW296229   8.106   7.226   8.501 -0.1037  3.0701  0.7001
31326SOL     OW96230   6.216   2.072  10.320 -0.3639  0.1059 -0.6650
31326SOL    HW196231   6.234   2.146  10.263 -0.1064 -0.4878 -1.3616
31326SOL    HW296232   6.296   2.061  10.372 -1.0602  1.4676  0.7709
31327SOL     OW96233   0.509   1.429   5.830  0.2233  0.2645  0.5044
31327SOL    HW196234   0.592   1.389   5.803 -0.7564 -2.2963  1.0653
31327SOL    HW296235   0.452   1.420   5.754  0.0351  0.8117  0.5768
31328SOL     OW96236   6.091   4.345   9.466  0.0879 -0.1681 -0.1001
31328SOL    HW196237   6.006   4.371   9.502 -1.3292 -1.4684 -2.2584
31328SOL    HW296238   6.084   4.250   9.455  1.6206 -0.2149 -0.8785
31329SOL     OW96239   4.048   8.947   5.980 -0.9166  0.5129 -0.7302
31329SOL    HW196240   4.036   9.042   5.977 -0.4860  0.6188  0.5746
31329SOL    HW296241   4.118   8.930   5.916 -1.5041  0.9744 -1.5115
31330SOL     OW96242   7.562   4.968   6.243  0.0002 -0.7759  0.0516
31330SOL    HW196243   7.608   4.889   6.270 -0.2785 -1.4928 -1.4773
31330SOL    HW296244   7.615   5.004   6.172 -0.3638 -0.0984  0.1164
31331SOL     OW96245   8.595  10.176   4.032  0.2032  0.1756 -0.6443
31331SOL    HW196246   8.555  10.244   3.977 -0.3316  1.3805  1.1189
31331SOL    HW296247   8.540  10.099   4.019 -1.4628  1.1780  0.0938
31332SOL     OW96248   7.275  10.316   1.371 -0.1687 -0.1769  0.6154
31332SOL    HW196249   7.366  10.301   1.348  0.3017  3.1920 -0.3395
31332SOL    HW296250   7.243  10.376   1.304 -2.8063 -0.4805  1.4876
31333SOL     OW96251   0.575   0.532   3.051  0.5073 -0.0206  0.1006
31333SOL    HW196252   0.484   0.565   3.052  0.7414  0.6373  0.6392
31333SOL    HW296253   0.617   0.576   3.124  1.4858  0.2982 -0.6285
31334SOL     OW96254   7.801   4.240   2.683  0.0778  0.3430  0.3433
31334SOL    HW196255   7.790   4.282   2.598  0.0436 -1.4837 -0.5908
31334SOL    HW296256   7.893   4.216   2.687 -0.1355 -0.4917  0.3733
31335SOL     OW96257   2.130   9.099   2.438 -0.0351 -0.1367 -0.2938
31335SOL    HW196258   2.100   9.046   2.365  0.1251  0.2980 -0.6829
31335SOL    HW296259   2.193   9.160   2.399  0.7991 -0.5502  0.3764
31336SOL     OW96260   7.093   7.699   2.409  0.3664  0.2280 -0.4756
31336SOL    HW196261   7.066   7.762   2.343  2.2980  0.3362 -1.2450
31336SOL    HW296262   7.012   7.667   2.448 -0.7429  1.3426 -1.7970
31337SOL     OW96263   8.853   1.034   9.848  0.2768  0.2577  0.1666
31337SOL    HW196264   8.815   1.105   9.900 -0.9251 -0.6524  0.6042
31337SOL    HW296265   8.947   1.042   9.861  0.0590  0.6075  1.7843
31338SOL     OW96266   3.888   7.167   7.097 -0.7496 -0.3930 -0.0831
31338SOL    HW196267   3.977   7.166   7.132 -1.2368 -0.0894  1.2122
31338SOL    HW296268   3.835   7.126   7.166 -1.6340 -0.4161 -0.7671
31339SOL     OW96269   0.741   7.085   3.632 -0.2052  0.0645  0.0633
31339SOL    HW196270   0.716   7.059   3.720 -1.1307 -0.3550 -0.3021
31339SOL    HW296271   0.808   7.022   3.606  1.1373  1.0667  0.9805
31340SOL     OW96272   5.826   4.171   8.670 -0.3531 -0.1141 -0.0887
31340SOL    HW196273   5.796   4.084   8.697 -0.9791  0.4243  1.0203
31340SOL    HW296274   5.881   4.154   8.593 -1.0671 -1.4145 -0.3534
31341SOL     OW96275  10.254   4.260   0.274  0.0025  0.0151  0.4519
31341SOL    HW196276  10.197   4.336   0.262  0.0392  0.3236  2.0508
31341SOL    HW296277  10.300   4.251   0.190  0.5397  2.2222  0.4495
31342SOL     OW96278   5.623   2.525   4.743  0.3027 -0.1393 -0.2228
31342SOL    HW196279   5.678   2.530   4.665  1.4379  0.1183  0.5742
31342SOL    HW296280   5.582   2.612   4.749 -0.1182 -0.2961 -0.7526
31343SOL     OW96281   3.621   7.031   3.823  0.1427 -0.4887 -0.2571
31343SOL    HW196282   3.591   7.098   3.763  0.4713 -0.5671 -0.5094
31343SOL    HW296283   3.692   6.987   3.777  0.5536 -0.3971  0.2826
31344SOL     OW96284   6.878   4.346   0.308 -0.2170 -0.3915  0.0013
31344SOL    HW196285   6.891   4.399   0.387  1.5192  1.6721 -1.5608
31344SOL    HW296286   6.809   4.284   0.332  0.0774  0.3075  3.0396
31345SOL     OW96287   1.582   4.301  10.397  0.1132  0.1536 -0.3569
31345SOL    HW196288   1.502   4.307  10.344  0.6226  1.8469 -0.9970
31345SOL    HW296289   1.554   4.330  10.484  0.7946  5.5761 -1.5594
31346SOL     OW96290   3.209   5.843   4.564 -0.2830  0.1114 -0.0481
31346SOL    HW196291   3.269   5.781   4.606 -1.0994 -1.3178 -0.9298
31346SOL    HW296292   3.174   5.796   4.489 -0.3400  1.9359 -1.2229
31347SOL     OW96293  10.427   9.839   8.181  0.6363 -0.2558  0.0597
31347SOL    HW196294  10.348   9.815   8.230  1.6837  0.6609  2.3165
31347SOL    HW296295  10.491   9.772   8.203  1.9660  1.6146  2.2626
31348SOL     OW96296   0.146   4.488   7.693 -0.0812  0.1597  0.0497
31348SOL    HW196297   0.224   4.432   7.692  2.1007  2.9818 -0.1514
31348SOL    HW296298   0.132   4.512   7.601 -0.2526  0.8729  0.2550
31349SOL     OW96299   4.701   4.823   0.985  0.3604  0.0228  0.2747
31349SOL    HW196300   4.658   4.787   0.908 -2.3480  0.9405  1.2391
31349SOL    HW296301   4.630   4.836   1.048  2.2496  0.6651  2.4032
31350SOL     OW96302   4.968  10.126   6.673  0.3769  0.2160 -0.7453
31350SOL    HW196303   4.889  10.109   6.622 -0.2001  2.8186 -0.8427
31350SOL    HW296304   4.986  10.043   6.718 -1.2887 -0.9908 -2.1921
31351SOL     OW96305   7.627   8.305   9.755 -0.1848  0.5140 -0.6300
31351SOL    HW196306   7.533   8.310   9.775 -0.6715  1.7461 -2.8573
31351SOL    HW296307   7.670   8.328   9.837 -1.8681  1.4008  0.0605
31352SOL     OW96308   1.012   9.988   6.714  0.1010 -0.4746 -0.0874
31352SOL    HW196309   1.072   9.919   6.742  1.2191  0.3294 -0.4328
31352SOL    HW296310   1.044  10.067   6.757  1.8000  0.7964 -3.3250
31353SOL     OW96311   9.428   6.240   0.537 -0.1286  0.1291 -0.0269
31353SOL    HW196312   9.413   6.164   0.593 -1.8165 -1.7829 -2.7784
31353SOL    HW296313   9.351   6.295   0.550 -1.0913 -0.8764 -1.1624
31354SOL     OW96314   9.642   3.624   0.714 -0.2755 -0.1820 -1.2245
31354SOL    HW196315   9.636   3.539   0.670  0.6255 -0.2673 -1.1973
31354SOL    HW296316   9.600   3.611   0.799 -2.6372  0.1549 -2.2427
31355SOL     OW96317   7.473   1.714   3.295  0.4447 -0.3304  0.2777
31355SOL    HW196318   7.414   1.661   3.243 -1.3983  2.1384 -0.3372
31355SOL    HW296319   7.539   1.746   3.233  1.0329 -1.1395  0.4701
31356SOL     OW96320  10.155   0.765   2.675 -0.5617 -0.0415 -0.5758
31356SOL    HW196321  10.160   0.844   2.729  1.0510  0.0129 -0.7687
31356SOL    HW296322  10.192   0.696   2.729  0.3633 -0.1433 -1.3229
31357SOL     OW96323   7.021   1.621   5.753  0.4733 -0.0167  0.3757
31357SOL    HW196324   7.083   1.666   5.697 -0.1832  0.1687 -0.2191
31357SOL    HW296325   6.960   1.689   5.781 -1.7760 -0.7871 -2.2008
31358SOL     OW96326   9.252   8.874  10.317  0.4111  0.5300 -0.1919
31358SOL    HW196327   9.299   8.931  10.378 -1.5186  2.0631 -0.0391
31358SOL    HW296328   9.249   8.924  10.235  1.3239 -0.6934 -0.9949
31359SOL     OW96329   2.655   9.023  10.584  0.0229  0.0229 -0.2864
31359SOL    HW196330   2.572   8.993  10.546 -0.0676 -1.4807  0.9831
31359SOL    HW296331   2.646   9.118  10.590 -2.8652 -0.2593  2.4351
31360SOL     OW96332  10.227   4.005   3.543 -0.6932  0.0660  0.4476
31360SOL    HW196333  10.213   3.994   3.449 -0.0839 -1.3542  0.5001
31360SOL    HW296334  10.285   4.082   3.549 -3.9062  2.7583 -0.0454
31361SOL     OW96335   7.083   1.936   5.719  0.5496  0.3671  0.0578
31361SOL    HW196336   7.120   1.989   5.790  2.0897 -0.1721 -0.2813
31361SOL    HW296337   7.027   1.996   5.670  0.5623  1.1042  0.9235
31362SOL     OW96338   5.347   2.824   0.194 -0.0624  0.1999  0.0911
31362SOL    HW196339   5.276   2.886   0.208 -1.1714 -0.1692 -3.1078
31362SOL    HW296340   5.358   2.821   0.099  1.4056 -2.9149  0.2326
31363SOL     OW96341   0.040   3.891   5.561 -0.0774  0.6936  0.1936
31363SOL    HW196342   0.004   3.845   5.485 -2.2821  0.0155  1.5604
31363SOL    HW296343  -0.014   3.862   5.635  1.1654  2.2948  1.8253
31364SOL     OW96344   3.629   1.120   7.362  0.2122 -0.5484  0.3545
31364SOL    HW196345   3.594   1.160   7.442  1.2872 -0.5897  0.8666
31364SOL    HW296346   3.674   1.042   7.393 -1.4048 -1.9188 -0.5729
31365SOL     OW96347   3.498   3.655   8.284  0.3221  0.1483 -0.3623
31365SOL    HW196348   3.593   3.647   8.272  0.0253 -0.7577 -2.4845
31365SOL    HW296349   3.481   3.749   8.280  1.1941  0.3808  0.8667
31366SOL     OW96350   8.451   7.815  10.075 -0.0701  0.2416 -0.0448
31366SOL    HW196351   8.491   7.822  10.162 -0.9930  1.5711  0.3184
31366SOL    HW296352   8.476   7.729  10.044 -0.9549 -0.9318  2.2051
31367SOL     OW96353   8.687   4.822   7.464  0.4050  0.4255 -0.4318
31367SOL    HW196354   8.632   4.772   7.524 -0.3739  2.0326  0.2708
31367SOL    HW296355   8.628   4.888   7.426  0.9575 -0.3153 -2.7310
31368SOL     OW96356   1.287   6.546   9.643 -0.2678  0.1502  0.3495
31368SOL    HW196357   1.373   6.559   9.604  0.6164 -0.2702  2.0700
31368SOL    HW296358   1.297   6.573   9.734 -1.0233 -2.9228  1.4730
31369SOL     OW96359   4.849   8.178   3.673 -0.1427 -0.0372 -0.1311
31369SOL    HW196360   4.774   8.228   3.705 -0.1098  0.0870 -0.2492
31369SOL    HW296361   4.892   8.236   3.610 -1.2047 -0.9058 -1.7345
31370SOL     OW96362   1.920   1.765  10.426 -0.1789 -0.3817  0.1738
31370SOL    HW196363   1.895   1.843  10.377 -0.5221 -0.0704  0.8240
31370SOL    HW296364   1.993   1.793  10.481  0.9968 -1.0294 -0.9847
31371SOL     OW96365   9.200   3.015   6.341 -0.4555 -0.1521 -0.5750
31371SOL    HW196366   9.180   3.099   6.381  1.1345 -0.0816  0.1434
31371SOL    HW296367   9.273   3.033   6.283 -1.2614 -0.7107 -1.8105
31372SOL     OW96368   8.353   0.752   5.652  0.5109 -0.7288 -0.1621
31372SOL    HW196369   8.278   0.757   5.593  0.9516 -1.4192 -0.8059
31372SOL    HW296370   8.398   0.835   5.641  0.2417 -0.6058 -0.3256
31373SOL     OW96371   5.530   8.910   4.655  0.3403  0.0422  0.1478
31373SOL    HW196372   5.495   8.957   4.579  1.4526 -1.0144 -1.0736
31373SOL    HW296373   5.456   8.863   4.692  0.0523 -0.6333 -1.2286
31374SOL     OW96374   5.457   0.706  10.320 -0.0162 -0.0967 -0.1272
31374SOL    HW196375   5.506   0.657  10.387 -0.7394  0.2286  0.6496
31374SOL    HW296376   5.477   0.659  10.238  2.0193  0.3425  0.0546
31375SOL     OW96377   8.619   8.685   7.934 -0.3395 -0.1644  0.2244
31375SOL    HW196378   8.591   8.776   7.921  2.8513  0.6688 -2.1822
31375SOL    HW296379   8.690   8.691   7.999  1.0048 -0.5886 -1.1372
31376SOL     OW96380   4.842   2.193   9.803  0.1336 -0.1799  0.2800
31376SOL    HW196381   4.920   2.195   9.858 -0.5361 -1.0056  1.3011
31376SOL    HW296382   4.830   2.100   9.782 -0.1056  0.0310 -0.5683
31377SOL     OW96383   8.927   5.285   9.377  0.2025 -0.2327  0.0603
31377SOL    HW196384   8.937   5.268   9.284  0.2171 -1.7374  0.3083
31377SOL    HW296385   8.845   5.333   9.385 -0.2189 -0.8238 -0.6536
31378SOL     OW96386   0.212   0.793  10.427 -0.3375  0.5191  0.2778
31378SOL    HW196387   0.131   0.748  10.453 -0.9914  1.8431  0.6208
31378SOL    HW296388   0.193   0.828  10.340 -0.3141  1.2321  0.5518
31379SOL     OW96389  10.316   5.085   4.388  0.3708 -0.0497 -0.0364
31379SOL    HW196390  10.243   5.040   4.345  0.1190  0.2727  0.0469
31379SOL    HW296391  10.392   5.031   4.370  0.1845 -0.1595 -0.4924
31380SOL     OW96392   7.803   9.603   8.852  0.4573  0.1681 -0.3867
31380SOL    HW196393   7.737   9.655   8.806 -0.5997  0.2639  1.1461
31380SOL    HW296394   7.783   9.616   8.945  1.5154 -1.2588  0.0794
31381SOL     OW96395   2.776   9.958   0.120 -0.8003 -1.0091 -0.5177
31381SOL    HW196396   2.704  10.021   0.128 -0.3903 -0.4673 -1.0250
31381SOL    HW296397   2.791   9.927   0.209 -0.7181 -0.0551 -0.1905
31382SOL     OW96398   5.401   5.414   2.388 -0.1480 -0.2789 -0.1860
31382SOL    HW196399   5.356   5.498   2.385 -0.7462 -0.6143 -0.6911
31382SOL    HW296400   5.447   5.407   2.305  0.1143 -0.3396 -0.0392
31383SOL     OW96401   2.634   4.922   3.743  0.4271  0.3633 -0.1792
31383SOL    HW196402   2.638   4.827   3.736 -2.7965  0.2122 -2.0115
31383SOL    HW296403   2.706   4.953   3.688  1.7411 -0.9338  0.7155
31384SOL     OW96404   4.997   4.007   2.953  0.1693 -0.1703 -0.5976
31384SOL    HW196405   4.966   4.097   2.942 -0.0931  0.0775  1.7124
31384SOL    HW296406   5.091   4.012   2.938  0.3949  0.8222  0.9937
31385SOL     OW96407   2.927   5.201   2.815 -0.3406  0.2953  0.4231
31385SOL    HW196408   2.993   5.182   2.748  0.6840  0.5714  1.3273
31385SOL    HW296409   2.865   5.260   2.772 -1.4244 -1.8909 -1.2218
31386SOL     OW96410   3.973   9.553   8.950  0.1948 -0.2712 -0.1178
31386SOL    HW196411   3.977   9.478   9.009 -1.4661  0.0994  0.5064
31386SOL    HW296412   3.947   9.626   9.006 -0.2801  0.3331 -1.1035
31387SOL     OW96413   2.144   0.466  10.292  0.0026  0.3177 -0.0756
31387SOL    HW196414   2.131   0.524  10.367  1.4753 -0.1224  0.5611
31387SOL    HW296415   2.229   0.493  10.257  1.1973 -2.0363  0.8192
31388SOL     OW96416   0.436   8.744   7.337 -0.0052 -0.4174  0.3905
31388SOL    HW196417   0.407   8.690   7.263 -0.5910 -0.5027  0.6823
31388SOL    HW296418   0.361   8.798   7.359  0.1154 -0.5030  1.0275
31389SOL     OW96419   4.399   1.893   7.547  0.3488 -0.1518 -0.4123
31389SOL    HW196420   4.430   1.836   7.476  2.2249  2.7100 -2.0705
31389SOL    HW296421   4.470   1.890   7.612  0.4579  0.2710 -0.5094
31390SOL     OW96422   0.058   3.968   2.948  0.0889 -0.5668 -0.0122
31390SOL    HW196423   0.005   4.036   2.904  2.5501  1.4178 -0.1150
31390SOL    HW296424   0.009   3.948   3.027 -0.6105  1.5894  0.1731
31391SOL     OW96425   5.962   5.324   6.653 -0.0900 -0.5469 -0.0557
31391SOL    HW196426   5.956   5.257   6.585  1.6754 -1.1647  0.3327
31391SOL    HW296427   6.002   5.399   6.608 -2.6451  0.5424 -0.6473
31392SOL     OW96428   6.867   8.324   7.005 -0.1470 -0.1575  0.3953
31392SOL    HW196429   6.819   8.311   6.924  1.1140  1.1768 -0.6094
31392SOL    HW296430   6.912   8.241   7.020 -0.7221 -0.5543 -0.0126
31393SOL     OW96431   6.122   0.636   8.110 -0.0451  0.0947  0.1263
31393SOL    HW196432   6.063   0.601   8.043 -0.5349  0.0839  0.5570
31393SOL    HW296433   6.176   0.562   8.137 -0.0029  0.0463 -0.0912
31394SOL     OW96434   5.612   0.593   3.431  0.6730 -0.2971 -0.5339
31394SOL    HW196435   5.606   0.683   3.463 -0.3086 -0.7265  0.5243
31394SOL    HW296436   5.554   0.591   3.355  1.8795  0.3364 -1.5198
31395SOL     OW96437   2.072   2.361   7.573 -0.0770  0.1539  0.2532
31395SOL    HW196438   2.165   2.375   7.592  0.3271  0.9915 -2.0839
31395SOL    HW296439   2.032   2.447   7.584 -0.8371 -0.3816  2.2043
31396SOL     OW96440   7.097   2.226   7.360 -0.3167 -0.1873 -0.0381
31396SOL    HW196441   7.067   2.135   7.357 -1.7673  0.2811 -1.0609
31396SOL    HW296442   7.023   2.274   7.397 -0.0888  0.7491 -0.7632
31397SOL     OW96443   4.988   5.978   3.173 -0.1541  0.4787  0.2022
31397SOL    HW196444   4.962   6.040   3.241  0.3433  1.1801 -0.2371
31397SOL    HW296445   5.063   6.019   3.130 -1.1982  0.5982 -1.5680
31398SOL     OW96446   3.549   6.358   8.964 -0.1074  0.1684 -0.1378
31398SOL    HW196447   3.613   6.325   9.027  0.0695 -0.0114 -0.4041
31398SOL    HW296448   3.490   6.413   9.015 -1.2578 -1.6527  0.6306
31399SOL     OW96449   2.832   5.537   3.749  0.2739 -0.4210  0.4642
31399SOL    HW196450   2.876   5.606   3.799  2.3188 -1.4916  0.2851
31399SOL    HW296451   2.809   5.579   3.665 -1.6857  0.9285  1.5973
31400SOL     OW96452   2.136   0.277   5.320  0.2106 -0.4298  0.5401
31400SOL    HW196453   2.199   0.313   5.258 -0.1036  0.0705  0.5033
31400SOL    HW296454   2.050   0.295   5.281  0.0228 -0.4878  0.9162
31401SOL     OW96455   3.791  10.195   2.408 -0.1898  0.2443 -0.5238
31401SOL    HW196456   3.763  10.134   2.339  0.3080 -2.7527  1.7009
31401SOL    HW296457   3.885  10.181   2.415 -0.3117  0.0629  1.0634
31402SOL     OW96458   2.296   3.806   7.804  0.1308  0.5943  0.5044
31402SOL    HW196459   2.334   3.879   7.756  1.0110 -0.1022  0.1149
31402SOL    HW296460   2.331   3.728   7.761  0.1374 -0.0493  1.6403
31403SOL     OW96461   5.811   1.626   4.093  0.1807 -0.0958  0.1130
31403SOL    HW196462   5.787   1.616   4.001 -0.9088  0.1198  0.3652
31403SOL    HW296463   5.872   1.554   4.109 -0.3925 -0.7441 -0.5199
31404SOL     OW96464   4.063   4.308   4.356 -0.3503 -0.6149 -0.2898
31404SOL    HW196465   4.084   4.358   4.277 -0.2507  0.7769  0.5778
31404SOL    HW296466   4.148   4.291   4.397 -0.4731 -0.3257  0.0950
31405SOL     OW96467   3.677   8.318   9.741  0.0957 -0.2148  0.3286
31405SOL    HW196468   3.664   8.235   9.694 -1.9058  0.0636  0.2857
31405SOL    HW296469   3.617   8.312   9.815 -2.1052  2.2054 -1.1001
31406SOL     OW96470   3.530   6.398   4.880 -0.1261  0.1210 -0.0739
31406SOL    HW196471   3.563   6.408   4.790  1.2619  1.8827  0.5724
31406SOL    HW296472   3.600   6.352   4.926 -0.9653 -1.0629  0.0792
31407SOL     OW96473   6.263   0.177   1.892 -0.1392  0.0061 -0.5183
31407SOL    HW196474   6.334   0.181   1.828 -0.0455  0.7588 -0.3769
31407SOL    HW296475   6.183   0.182   1.838 -0.1000 -1.2104 -0.7032
31408SOL     OW96476   1.761   1.917   2.494 -0.3037  0.1621 -0.2632
31408SOL    HW196477   1.749   1.856   2.567 -0.8825  0.9102  0.2834
31408SOL    HW296478   1.722   1.873   2.419  1.1086 -1.0089 -0.3503
31409SOL     OW96479   4.193   4.348   9.645 -0.1299  0.1788 -0.0483
31409SOL    HW196480   4.167   4.292   9.572  2.4971 -0.1443 -0.8217
31409SOL    HW296481   4.223   4.429   9.604  1.9886 -0.2416  0.5741
31410SOL     OW96482   5.287   2.948   9.647  0.0886 -0.4905 -0.4409
31410SOL    HW196483   5.289   2.855   9.627 -1.0903 -1.1463  2.0401
31410SOL    HW296484   5.375   2.979   9.628  1.0171 -2.5273  0.2522
31411SOL     OW96485   9.081   9.755   6.443  0.1082 -0.5208 -0.1137
31411SOL    HW196486   9.149   9.693   6.468 -0.7896 -1.6522 -0.3939
31411SOL    HW296487   8.999   9.708   6.459 -0.6109  0.7443  0.0467
31412SOL     OW96488  10.218   7.908   4.241  0.0417 -0.8646  0.2237
31412SOL    HW196489  10.193   7.860   4.162  1.5029 -0.7428 -0.3536
31412SOL    HW296490  10.213   7.843   4.311  1.3117 -1.7095 -0.4301
31413SOL     OW96491   0.962   6.587   1.324 -0.1475 -0.6954 -0.0961
31413SOL    HW196492   1.051   6.616   1.302 -0.7706  0.8882 -0.7363
31413SOL    HW296493   0.943   6.631   1.407 -1.4165  1.6103 -1.4936
31414SOL     OW96494   8.837   6.074   5.874 -0.0591 -0.1578  0.2428
31414SOL    HW196495   8.908   6.065   5.938  2.7701 -0.3849 -2.6732
31414SOL    HW296496   8.790   5.990   5.878  2.0272 -1.4100 -0.0761
31415SOL     OW96497   6.352   4.152   8.589  0.1208 -0.6880 -0.6275
31415SOL    HW196498   6.413   4.090   8.630 -1.2272 -1.8234 -0.2699
31415SOL    HW296499   6.288   4.172   8.657  0.2554  0.7655 -0.8869
31416SOL     OW96500   4.511   1.949   3.949  0.5575 -0.3759 -0.6934
31416SOL    HW196501   4.512   2.005   3.871 -0.1701 -1.3255 -1.3982
31416SOL    HW296502   4.564   1.997   4.012 -0.5852  1.4729 -1.0320
31417SOL     OW96503   5.598   7.183   7.759 -0.2306  0.1011 -0.0912
31417SOL    HW196504   5.667   7.225   7.810 -0.4776  0.2890  0.0945
31417SOL    HW296505   5.547   7.134   7.823  0.0084 -0.4190 -0.2976
31418SOL     OW96506   2.710  10.000   6.265 -0.0517 -0.6213  0.6612
31418SOL    HW196507   2.635   9.944   6.282  0.8747 -2.0148  0.2947
31418SOL    HW296508   2.684  10.086   6.300 -2.8022 -0.3503 -1.6097
31419SOL     OW96509   9.794   6.317   6.199 -0.5429 -0.3678 -0.4925
31419SOL    HW196510   9.782   6.399   6.151 -2.2963  0.5169  1.2671
31419SOL    HW296511   9.869   6.274   6.158  1.6689  2.9898 -0.3118
31420SOL     OW96512   5.394   7.646   1.549 -0.7061 -0.2512  0.3932
31420SOL    HW196513   5.343   7.648   1.630 -0.0747 -2.2386  0.8862
31420SOL    HW296514   5.422   7.555   1.541  1.4284  0.4567 -0.7159
31421SOL     OW96515   9.826   1.696   2.329 -0.4582 -0.4030  0.0996
31421SOL    HW196516   9.785   1.751   2.263  0.6593  1.5728  0.9481
31421SOL    HW296517   9.789   1.726   2.412  0.8513 -0.2589  0.6615
31422SOL     OW96518   5.309   8.897   3.671  0.3941  0.2846 -0.1111
31422SOL    HW196519   5.320   8.812   3.629  0.4537  0.4070 -0.3448
31422SOL    HW296520   5.217   8.918   3.659 -0.0935 -0.6514  1.6797
31423SOL     OW96521   8.497   8.278   0.768 -0.0087 -0.1444 -0.3549
31423SOL    HW196522   8.539   8.226   0.836 -1.6971  0.3579  1.1671
31423SOL    HW296523   8.511   8.369   0.795  1.2987  0.1791 -1.9738
31424SOL     OW96524   0.489   5.097   6.252  0.0141  0.5223 -0.0410
31424SOL    HW196525   0.557   5.136   6.307 -1.0301  0.1872  1.5735
31424SOL    HW296526   0.455   5.025   6.305 -0.3868 -0.4605 -1.5673
31425SOL     OW96527   1.342   8.308   7.712 -0.4772  0.0541  0.2057
31425SOL    HW196528   1.250   8.294   7.736 -0.3453  0.2024  0.8307
31425SOL    HW296529   1.367   8.228   7.665 -1.2543  0.5074 -1.0098
31426SOL     OW96530   7.960  10.379   1.317  0.3769  0.0455  0.1469
31426SOL    HW196531   8.055  10.377   1.333  0.4332  1.8390  0.2262
31426SOL    HW296532   7.921  10.388   1.404  0.1127 -0.7112  0.1170
31427SOL     OW96533   0.920   7.264   9.979  0.3702  0.0790  0.5030
31427SOL    HW196534   0.990   7.322  10.008 -0.5921  1.0963  0.8495
31427SOL    HW296535   0.906   7.205  10.053  0.4231  0.2988  0.6908
31428SOL     OW96536   6.915   1.034   3.173 -0.3656 -0.1146  0.3483
31428SOL    HW196537   6.876   0.953   3.140  2.2063 -0.6501 -1.7095
31428SOL    HW296538   6.892   1.035   3.266 -1.4319 -2.6237  0.1901
31429SOL     OW96539   0.060   7.145   5.063  0.0148 -0.0204  0.7285
31429SOL    HW196540  -0.005   7.174   5.000 -0.1879  0.5917  1.2086
31429SOL    HW296541   0.009   7.123   5.141  0.2184 -1.1660  0.5601
31430SOL     OW96542   0.599   9.682   0.130 -0.4958 -0.1850  0.4095
31430SOL    HW196543   0.589   9.743   0.203  0.2241 -0.0506  0.4054
31430SOL    HW296544   0.684   9.642   0.144  0.7517  1.5581 -1.6050
31431SOL     OW96545   9.649   7.600   7.293  0.6641  0.5119 -0.0229
31431SOL    HW196546   9.645   7.556   7.379  1.9285  0.6766  0.1464
31431SOL    HW296547   9.564   7.641   7.283  0.3753  0.2021  1.0133
31432SOL     OW96548   2.974   0.243   8.853  0.2450 -0.1037 -0.1241
31432SOL    HW196549   2.900   0.293   8.818  0.8620 -0.1688 -1.6212
31432SOL    HW296550   3.050   0.277   8.806  1.0542 -0.6194  0.7750
31433SOL     OW96551   8.354   6.245   7.719 -0.4194  0.1519 -0.0249
31433SOL    HW196552   8.298   6.320   7.737 -1.1031 -0.6721  1.4391
31433SOL    HW296553   8.353   6.193   7.799  2.4008  0.0576  0.0806
31434SOL     OW96554   0.436   5.704   8.673  0.1568  0.1480 -0.4398
31434SOL    HW196555   0.449   5.696   8.768 -0.0508 -0.8665 -0.4808
31434SOL    HW296556   0.353   5.658   8.657 -0.1803  0.9491 -1.0205
31435SOL     OW96557  10.064   7.567   9.047  0.2225  0.3415 -0.4135
31435SOL    HW196558  10.093   7.652   9.080  0.0861  0.1887  0.1005
31435SOL    HW296559   9.972   7.580   9.026  0.0256  0.1286  0.3162
31436SOL     OW96560   3.781   8.100   6.258  0.3015  0.1476 -0.2679
31436SOL    HW196561   3.835   8.176   6.279 -1.2558  0.9798  0.8872
31436SOL    HW296562   3.738   8.077   6.340 -2.0740  0.3093 -1.3689
31437SOL     OW96563   1.171   2.762   6.623  0.0966 -0.3539 -0.0407
31437SOL    HW196564   1.251   2.768   6.572 -0.1683  0.5314 -0.3742
31437SOL    HW296565   1.162   2.849   6.664 -1.1067 -0.1656 -0.6565
31438SOL     OW96566   8.573   0.749   1.492 -0.6590 -0.0793  0.1309
31438SOL    HW196567   8.547   0.660   1.517 -1.0034 -0.1239 -0.3741
31438SOL    HW296568   8.554   0.754   1.398 -0.7601  0.5690  0.1808
31439SOL     OW96569   9.981   7.271   5.728 -0.1120 -0.4524 -0.4314
31439SOL    HW196570  10.030   7.267   5.809 -0.1804 -0.1520 -0.3729
31439SOL    HW296571   9.952   7.181   5.712 -0.9126 -0.3557  0.3825
31440SOL     OW96572   4.469  10.353   1.200  0.1399  0.2687 -0.2864
31440SOL    HW196573   4.432  10.407   1.270  0.9898  1.5546 -0.7918
31440SOL    HW296574   4.559  10.338   1.228  0.3509  0.4073 -0.8852
31441SOL     OW96575   2.011   5.018   1.307  0.1047 -0.3400  0.3625
31441SOL    HW196576   2.029   5.072   1.229 -1.0478  1.6146  1.3540
31441SOL    HW296577   1.916   5.004   1.305  0.2080 -1.1804  0.8651
31442SOL     OW96578   2.442   8.798   7.206  0.0877 -0.5287  0.1056
31442SOL    HW196579   2.350   8.775   7.203 -0.0632  0.0983 -0.3590
31442SOL    HW296580   2.444   8.892   7.185  0.8369 -0.5704 -0.0541
31443SOL     OW96581   9.162   0.468   1.886  0.1917 -0.3707 -0.0154
31443SOL    HW196582   9.171   0.411   1.810  1.4226  2.5121 -2.2495
31443SOL    HW296583   9.071   0.495   1.886  0.6848  1.6765 -2.2812
31444SOL     OW96584   5.431   8.472   1.210 -0.2780 -0.1745 -0.0769
31444SOL    HW196585   5.347   8.475   1.255 -0.4456  1.4965 -0.4456
31444SOL    HW296586   5.489   8.526   1.263 -0.0245  0.4241 -0.9325
31445SOL     OW96587   3.613   1.902   4.022  0.1377  0.5952 -0.0958
31445SOL    HW196588   3.661   1.824   4.049 -0.6916 -0.5656 -1.7773
31445SOL    HW296589   3.601   1.953   4.102 -1.5241 -2.2354  1.6018
31446SOL     OW96590   1.869   7.601   6.361 -0.6970  0.0629 -0.1027
31446SOL    HW196591   1.871   7.505   6.352  0.1852  0.1843 -1.4573
31446SOL    HW296592   1.943   7.621   6.419  1.1431  0.1014 -2.3090
31447SOL     OW96593   2.754   1.214   2.786 -0.0924 -0.1069 -0.4067
31447SOL    HW196594   2.720   1.149   2.848  1.3288 -1.5487 -1.0816
31447SOL    HW296595   2.767   1.165   2.705  2.4884  0.6097 -0.5053
31448SOL     OW96596   2.911   8.230   8.341  0.6457  0.7430 -0.2946
31448SOL    HW196597   2.967   8.155   8.364 -0.5214 -0.5868 -1.5173
31448SOL    HW296598   2.916   8.234   8.245  1.1439  2.6414 -0.2220
31449SOL     OW96599   2.883   3.192   7.643  0.3224  0.4220 -0.2422
31449SOL    HW196600   2.852   3.136   7.572  0.9871 -2.0017  1.2394
31449SOL    HW296601   2.978   3.194   7.631  0.6822 -1.7154  1.6183
31450SOL     OW96602   0.828   7.621  10.560 -0.1596 -0.7700  0.1241
31450SOL    HW196603   0.884   7.571  10.619 -1.6303 -1.8939  0.6524
31450SOL    HW296604   0.739   7.606  10.593 -0.7938  1.0077 -0.6062
31451SOL     OW96605   6.431   0.086   8.362  0.5071  0.0810 -0.2124
31451SOL    HW196606   6.339   0.078   8.337 -0.0592  0.0473  1.7218
31451SOL    HW296607   6.447   0.010   8.418  1.0307  1.2920  1.3510
31452SOL     OW96608   5.142   4.929   4.835  0.4568 -0.2860  0.3217
31452SOL    HW196609   5.065   4.929   4.778  0.5506 -1.9685  0.1358
31452SOL    HW296610   5.216   4.929   4.774  0.5633 -0.7411  0.4442
31453SOL     OW96611   1.834   7.191  10.399 -0.2321 -0.4832  0.4176
31453SOL    HW196612   1.892   7.196  10.475 -1.1415  0.4800  1.0717
31453SOL    HW296613   1.776   7.267  10.408  0.6392  0.5929 -2.0744
31454SOL     OW96614   4.075   9.278   5.483 -0.3672 -0.0247 -0.4328
31454SOL    HW196615   4.169   9.265   5.486 -0.4636 -1.5296 -2.3047
31454SOL    HW296616   4.041   9.221   5.552  0.0560 -0.0239 -0.2216
31455SOL     OW96617   9.922   7.440   9.262  0.2982  0.0737  0.2263
31455SOL    HW196618   9.934   7.468   9.353  1.8216 -1.7080  0.6325
31455SOL    HW296619   9.977   7.500   9.212 -1.4290  1.8014  0.2820
31456SOL     OW96620   0.762   2.024   5.094  0.3968 -0.3243  0.0603
31456SOL    HW196621   0.838   2.062   5.139  0.4756 -0.2175 -0.1619
31456SOL    HW296622   0.702   2.097   5.084 -0.6610 -0.8255  2.1267
31457SOL     OW96623   2.041   6.825   2.693  0.4111  0.0700  0.2779
31457SOL    HW196624   1.958   6.777   2.698  0.7717 -0.5370  0.5634
31457SOL    HW296625   2.056   6.858   2.781  1.6026 -1.7994  0.8507
31458SOL     OW96626   9.635   6.640   4.594 -0.1827 -0.1592  0.7521
31458SOL    HW196627   9.703   6.598   4.541  0.2126 -0.5727  1.5623
31458SOL    HW296628   9.620   6.579   4.667 -1.8358 -0.3416  0.2967
31459SOL     OW96629   9.586   1.144   6.392  0.0112  0.6777  0.0011
31459SOL    HW196630   9.550   1.057   6.373 -0.7028  0.9725 -0.0237
31459SOL    HW296631   9.675   1.141   6.357  0.2602 -0.2937  0.6753
31460SOL     OW96632   2.068   0.183   7.218 -0.1599  0.1616  0.1228
31460SOL    HW196633   2.136   0.139   7.270  1.0273  0.6415 -0.9674
31460SOL    HW296634   1.995   0.194   7.278  0.7104 -0.4249  1.3258
31461SOL     OW96635  10.283   3.404   3.297  0.1049  0.2292 -0.3519
31461SOL    HW196636  10.345   3.331   3.304  1.2879  1.3303  1.8357
31461SOL    HW296637  10.337   3.483   3.304 -1.4603  1.2417  1.2976
31462SOL     OW96638   3.690   6.348   6.390 -0.1269 -0.4843 -0.9430
31462SOL    HW196639   3.665   6.414   6.326 -2.3234  0.0247  0.3538
31462SOL    HW296640   3.608   6.305   6.414  0.9680 -2.2515 -0.1952
31463SOL     OW96641   0.210   9.331  10.268 -0.0135  0.6578 -0.4211
31463SOL    HW196642   0.268   9.276  10.215 -0.8429  1.1738 -1.9094
31463SOL    HW296643   0.264   9.406  10.293  0.4446  0.3026 -0.3213
31464SOL     OW96644   3.330   8.195   8.256  0.0677  0.1651  0.3906
31464SOL    HW196645   3.244   8.167   8.225  0.9647 -0.6928 -1.5082
31464SOL    HW296646   3.365   8.118   8.301 -0.0670  0.4477  0.9880
31465SOL     OW96647   7.582   7.512   9.676 -0.4210  0.0521  0.0657
31465SOL    HW196648   7.644   7.582   9.655  1.2186 -1.2849  0.2589
31465SOL    HW296649   7.524   7.550   9.742 -0.5634  1.6917 -0.9330
31466SOL     OW96650   3.171   3.073   7.669 -0.0976 -0.4983  0.0959
31466SOL    HW196651   3.253   3.065   7.719 -0.1374 -1.7307 -0.0126
31466SOL    HW296652   3.120   2.996   7.694 -1.3020  0.3265  0.2711
31467SOL     OW96653   9.070   3.227   6.151  0.5371 -0.1724 -0.3646
31467SOL    HW196654   9.144   3.286   6.168  1.7676 -1.2759 -1.6751
31467SOL    HW296655   9.103   3.164   6.088 -2.0389  0.3180 -2.3883
31468SOL     OW96656   1.815   9.868   3.450  0.1341  0.3818  0.0339
31468SOL    HW196657   1.822   9.775   3.469 -0.1711 -0.5840 -3.7790
31468SOL    HW296658   1.756   9.902   3.517 -0.3373 -2.3034  1.0892
31469SOL     OW96659   1.794   4.227   6.689 -0.2043  0.0509 -0.0714
31469SOL    HW196660   1.765   4.309   6.730  1.9189  1.4294 -1.1835
31469SOL    HW296661   1.746   4.224   6.606 -0.6950 -0.1487  0.2112
31470SOL     OW96662   3.997   5.452   8.180 -0.0220  0.0294  0.0924
31470SOL    HW196663   4.091   5.445   8.163  0.3792  0.4437  1.8803
31470SOL    HW296664   3.986   5.413   8.267 -1.0463  2.3766  1.0891
31471SOL     OW96665   0.653   7.708   9.207 -0.4022 -0.0246 -0.0554
31471SOL    HW196666   0.746   7.683   9.203  0.4112  2.5772  0.2732
31471SOL    HW296667   0.620   7.667   9.286  1.3077  1.2448  1.4168
31472SOL     OW96668   7.158   4.607   9.612 -0.2491  0.0223 -0.0881
31472SOL    HW196669   7.162   4.682   9.553  1.0273  0.9177  1.0909
31472SOL    HW296670   7.148   4.645   9.699 -1.9650 -1.2738  0.3274
31473SOL     OW96671   3.815   9.550   0.395  0.2749 -0.3274  0.5865
31473SOL    HW196672   3.875   9.587   0.459 -0.2441 -0.5335  1.2109
31473SOL    HW296673   3.766   9.483   0.444  0.5558 -1.1952 -0.2709
31474SOL     OW96674   1.499   0.475   1.374  0.0947  0.5387 -0.2159
31474SOL    HW196675   1.584   0.435   1.356  0.3623  0.9924  0.0331
31474SOL    HW296676   1.518   0.568   1.384 -0.6456  0.8801 -1.6929
31475SOL     OW96677   2.102   8.728   5.202 -0.1635 -0.4874  0.4434
31475SOL    HW196678   2.129   8.641   5.174  1.2597 -0.6633  2.1468
31475SOL    HW296679   2.144   8.787   5.139 -1.4006 -0.9983 -0.9140
31476SOL     OW96680   3.605   4.088   7.437  0.1426 -0.2177  0.4931
31476SOL    HW196681   3.576   4.000   7.413  1.1093 -0.7298  1.1625
31476SOL    HW296682   3.549   4.112   7.510 -2.5934  1.2182 -1.8854
31477SOL     OW96683  10.394   3.470   0.933 -0.1921 -0.1383  0.3865
31477SOL    HW196684  10.457   3.408   0.896 -0.3361  0.5500 -1.0527
31477SOL    HW296685  10.430   3.491   1.020  0.0306 -1.9418  0.7710
31478SOL     OW96686   0.659   5.115   9.879 -0.0559  0.2390 -0.4712
31478SOL    HW196687   0.726   5.081   9.939 -1.6700 -0.1131  1.2592
31478SOL    HW296688   0.638   5.202   9.914 -2.0409 -0.5358  0.4598
31479SOL     OW96689   3.126  10.601   7.502 -0.1372 -0.1556  0.3541
31479SOL    HW196690   3.173  10.631   7.580  1.5907 -1.1199 -0.2466
31479SOL    HW296691   3.089  10.680   7.463 -0.1109  0.4670  1.5757
31480SOL     OW96692   3.062   5.677   7.684  0.0741 -0.1610 -0.4333
31480SOL    HW196693   3.060   5.588   7.718 -1.7087  0.0281  0.0317
31480SOL    HW296694   3.091   5.731   7.757 -2.0545  0.0208  0.3446
31481SOL     OW96695   3.139  10.545   0.908  0.6038 -0.4185 -0.2465
31481SOL    HW196696   3.113  10.479   0.843  3.1495 -2.3065  0.4636
31481SOL    HW296697   3.208  10.595   0.866  0.7909 -0.2383  0.2599
31482SOL     OW96698   9.931   6.220   3.123 -0.1191  0.1352 -0.0076
31482SOL    HW196699   9.969   6.260   3.045 -0.0904  1.2448  0.5482
31482SOL    HW296700   9.849   6.267   3.137 -0.0657  0.0393  0.6860
31483SOL     OW96701   5.869  10.356   3.170 -0.1250  0.0275  0.0698
31483SOL    HW196702   5.854  10.443   3.134  0.0740 -0.0245 -0.1458
31483SOL    HW296703   5.964  10.347   3.173 -0.1338  0.1456  0.9020
31484SOL     OW96704   9.352  10.376   6.868  0.4788 -0.2919 -0.1080
31484SOL    HW196705   9.332  10.469   6.859  0.0277 -0.2890  0.8819
31484SOL    HW296706   9.408  10.356   6.792  0.7756  0.8360 -0.1974
31485SOL     OW96707   4.614   2.273   8.561  0.4949 -0.1287  0.1688
31485SOL    HW196708   4.566   2.194   8.537 -0.5263 -0.3992  2.7534
31485SOL    HW296709   4.545   2.337   8.582  1.3061  1.2606 -1.1887
31486SOL     OW96710   1.077   5.741   1.878  0.0186 -0.5595 -0.2745
31486SOL    HW196711   1.017   5.722   1.805 -0.6820 -0.6663  0.3235
31486SOL    HW296712   1.020   5.747   1.955  0.7373 -0.2922  0.2426
31487SOL     OW96713   5.141   3.617   7.872  0.0853 -0.6184 -0.6426
31487SOL    HW196714   5.134   3.710   7.895  2.8425 -0.5319  0.2445
31487SOL    HW296715   5.089   3.572   7.939  2.4529  0.0936  1.8746
31488SOL     OW96716   9.257   6.914  10.210  0.4316 -0.0251  0.0988
31488SOL    HW196717   9.205   6.846  10.252  2.5616 -0.5041  2.1623
31488SOL    HW296718   9.234   6.994  10.257  0.7018 -0.0331  0.2475
31489SOL     OW96719   2.563   6.916   6.508 -0.5216 -0.2078 -0.6004
31489SOL    HW196720   2.475   6.947   6.488 -0.8193  0.5350  1.6860
31489SOL    HW296721   2.551   6.823   6.530 -0.9379  0.1754  0.8561
31490SOL     OW96722   9.632   1.879   0.391  0.5439 -0.5010 -0.1358
31490SOL    HW196723   9.538   1.880   0.373  0.7851 -1.8690 -1.6825
31490SOL    HW296724   9.643   1.813   0.460  0.4852 -1.2500 -0.8299
31491SOL     OW96725   7.893   8.978   5.778  0.0683 -0.1506  0.0256
31491SOL    HW196726   7.984   8.980   5.751 -0.5053 -0.5502 -2.1518
31491SOL    HW296727   7.848   9.038   5.718 -1.1464 -0.2773  0.7670
31492SOL     OW96728   4.923   9.185   6.264  0.5045 -0.0661 -0.1020
31492SOL    HW196729   5.016   9.162   6.262  1.1978  2.3075  0.6573
31492SOL    HW296730   4.917   9.253   6.332 -2.2304 -1.8195  1.5971
31493SOL     OW96731   2.711   9.581   2.927  0.2817  0.2395  0.5380
31493SOL    HW196732   2.762   9.657   2.898 -0.8358  0.8738  0.1768
31493SOL    HW296733   2.712   9.523   2.851 -1.2076  1.1536 -0.2346
31494SOL     OW96734   0.576   2.644   7.791 -0.2755  0.0858 -0.4897
31494SOL    HW196735   0.497   2.688   7.759 -0.7891  0.2578  0.9309
31494SOL    HW296736   0.544   2.584   7.859  0.8238  0.3290  0.2730
31495SOL     OW96737   3.225   4.173   8.346  0.5800  0.1867 -0.1803
31495SOL    HW196738   3.223   4.157   8.252 -1.6743 -0.1047 -0.1204
31495SOL    HW296739   3.223   4.269   8.354 -0.7448  0.1986 -0.4478
31496SOL     OW96740   2.716   9.846   9.196 -0.2013 -0.0778  0.4115
31496SOL    HW196741   2.695   9.773   9.137 -0.6110 -0.6966  1.3066
31496SOL    HW296742   2.640   9.852   9.254 -1.1593  2.4514 -0.9640
31497SOL     OW96743  10.390   5.221  10.032 -0.5072  0.1300  0.0063
31497SOL    HW196744  10.381   5.315  10.044  1.6052  0.2946  0.7981
31497SOL    HW296745  10.405   5.210   9.938 -3.0254  0.2936 -0.4844
31498SOL     OW96746   7.759   0.522   6.717  0.4022  0.1691 -0.0031
31498SOL    HW196747   7.666   0.543   6.721  0.9413  2.7900  0.1080
31498SOL    HW296748   7.775   0.469   6.795 -1.2194 -1.5334 -0.7525
31499SOL     OW96749   9.331   2.468   2.358  0.6591  0.5620  0.1633
31499SOL    HW196750   9.378   2.546   2.387 -0.1620  1.2177 -0.2204
31499SOL    HW296751   9.246   2.501   2.327  1.4684 -0.0264 -3.1007
31500SOL     OW96752   2.168   3.472   3.555 -0.1506  0.1410 -0.0170
31500SOL    HW196753   2.195   3.560   3.527  1.2661  0.2249  1.4213
31500SOL    HW296754   2.193   3.468   3.647  0.0371 -1.8604 -0.1094
31501SOL     OW96755   5.413   2.031   7.030  0.2773 -0.6512  0.7655
31501SOL    HW196756   5.325   2.000   7.047 -0.0853  0.3753  0.8521
31501SOL    HW296757   5.405   2.080   6.948  0.2973  1.2066  1.8111
31502SOL     OW96758   1.939   0.945   6.485 -0.6309  0.2150 -0.2586
31502SOL    HW196759   1.958   1.019   6.426  0.2533 -1.3854 -2.0870
31502SOL    HW296760   2.025   0.917   6.516 -0.9947  0.1693  0.7381
31503SOL     OW96761   8.997   3.603   3.593  0.8036 -0.3774  0.4599
31503SOL    HW196762   8.954   3.622   3.509  0.3738 -0.4872  0.6561
31503SOL    HW296763   8.944   3.650   3.658 -0.2208 -2.1345  0.9474
31504SOL     OW96764   9.615   7.413   8.819  0.2094  0.1521  0.3899
31504SOL    HW196765   9.556   7.473   8.772 -0.0381  1.6960  2.4831
31504SOL    HW296766   9.700   7.424   8.777  0.0628  1.6951  0.4408
31505SOL     OW96767   5.369   5.584   1.929 -0.3637  0.0774  0.3084
31505SOL    HW196768   5.327   5.498   1.929 -1.6865  0.6841  1.5642
31505SOL    HW296769   5.300   5.645   1.954  1.2998  1.0835  2.8801
31506SOL     OW96770   2.623   1.264   2.495  0.2906  0.0108 -0.0658
31506SOL    HW196771   2.564   1.248   2.569 -0.6297  2.2200 -0.2696
31506SOL    HW296772   2.583   1.217   2.422 -1.9046  2.2626 -0.4617
31507SOL     OW96773   7.251   2.293   1.534  0.2739 -0.3620  0.2367
31507SOL    HW196774   7.297   2.309   1.616 -0.0941 -0.3270  0.4393
31507SOL    HW296775   7.315   2.315   1.466  0.3157  0.4069  0.5085
31508SOL     OW96776   7.872   3.084   4.906 -0.2738  0.1060 -0.1113
31508SOL    HW196777   7.906   2.996   4.894 -2.1845 -0.8421  0.9991
31508SOL    HW296778   7.877   3.099   5.001  0.5497  1.4426 -0.3404
31509SOL     OW96779   9.100   7.180   5.749  0.0423  0.2788  0.1646
31509SOL    HW196780   9.194   7.199   5.760 -0.0020  0.2015  0.7000
31509SOL    HW296781   9.058   7.265   5.756  0.2593  0.7090 -2.6132
31510SOL     OW96782   2.118  10.225   6.403 -0.0772  0.1467  0.4758
31510SOL    HW196783   2.074  10.309   6.412 -1.7295 -0.6345  0.0218
31510SOL    HW296784   2.076  10.168   6.468 -0.5571 -0.9409 -0.7520
31511SOL     OW96785   8.796   4.313   6.065 -0.6860 -0.0481  0.6458
31511SOL    HW196786   8.757   4.234   6.101  0.0077 -1.3090 -1.2289
31511SOL    HW296787   8.759   4.384   6.117 -0.5665 -1.6461  3.0467
31512SOL     OW96788   2.941   1.802   5.967 -0.4492 -0.4983 -0.4307
31512SOL    HW196789   2.855   1.814   5.927 -1.1200 -0.7247  0.8718
31512SOL    HW296790   2.967   1.890   5.996  0.1693 -0.2841 -1.5720
31513SOL     OW96791   9.098   1.627   9.121  0.2093  0.2348  0.2810
31513SOL    HW196792   9.029   1.667   9.069  1.3209 -0.4832 -1.8483
31513SOL    HW296793   9.093   1.671   9.206 -0.4812  2.7907 -0.9883
31514SOL     OW96794   8.516   7.560   1.739  0.2456  0.2709 -0.1988
31514SOL    HW196795   8.504   7.491   1.673  0.8885  2.3201 -2.6298
31514SOL    HW296796   8.587   7.528   1.794  0.0384 -1.3264 -0.8050
31515SOL     OW96797   7.629   8.450   8.724 -0.0348 -0.0685 -0.6627
31515SOL    HW196798   7.704   8.391   8.732  0.0114  0.0945  0.2001
31515SOL    HW296799   7.667   8.535   8.703  0.3471  0.7546  2.8514
31516SOL     OW96800   7.297   7.170   1.592 -0.0277  0.1457 -0.2336
31516SOL    HW196801   7.226   7.213   1.544  0.1874 -1.5070 -2.1462
31516SOL    HW296802   7.367   7.236   1.594 -0.7208  0.9062 -0.5374
31517SOL     OW96803   1.202   9.397   5.987  0.3882  0.3668 -0.3864
31517SOL    HW196804   1.177   9.486   5.962 -1.6652  0.6393  2.2733
31517SOL    HW296805   1.120   9.348   5.989  1.6467 -2.3313 -3.8440
31518SOL     OW96806   6.700   7.718   8.170  0.1841  0.3376 -0.2010
31518SOL    HW196807   6.730   7.757   8.253 -1.1357  1.7733 -0.3510
31518SOL    HW296808   6.779   7.678   8.133  0.7132 -0.7539  1.9489
31519SOL     OW96809   7.226   4.407   4.096  0.0625 -0.0059 -0.0840
31519SOL    HW196810   7.260   4.351   4.166 -1.8855  1.0723  1.8457
31519SOL    HW296811   7.296   4.470   4.079  0.2641  0.2694  1.5947
31520SOL     OW96812   2.377   7.390   7.008  0.3420 -0.3885 -0.0603
31520SOL    HW196813   2.425   7.472   7.006 -1.2714  0.5865 -0.7391
31520SOL    HW296814   2.385   7.355   6.918 -0.3005 -0.1610 -0.2088
31521SOL     OW96815   4.035   3.207   8.074 -0.1700 -0.0631 -0.4005
31521SOL    HW196816   4.114   3.173   8.116 -1.0294 -0.6542  0.8146
31521SOL    HW296817   4.066   3.272   8.012  1.2631 -0.2113  0.1390
31522SOL     OW96818  10.127   5.010   0.125  0.5705 -0.3211 -0.0129
31522SOL    HW196819  10.046   4.997   0.076  0.4986 -0.2932  0.0985
31522SOL    HW296820  10.196   5.001   0.059  0.4152  1.1673 -0.3989
31523SOL     OW96821   6.197   3.292   8.520 -0.2810  0.0085 -0.2646
31523SOL    HW196822   6.221   3.384   8.515 -1.3982  0.2210 -2.4444
31523SOL    HW296823   6.106   3.288   8.490 -0.1810 -1.8397 -0.4569
31524SOL     OW96824   8.823   0.282   2.775  0.0203  0.2993  0.2701
31524SOL    HW196825   8.788   0.196   2.798 -1.2510  0.7580  0.1336
31524SOL    HW296826   8.747   0.339   2.775  0.7949  1.3559 -0.0078
31525SOL     OW96827   2.098   4.983   6.445  0.4198 -0.4509  0.1634
31525SOL    HW196828   2.150   5.021   6.374  0.8362 -1.3838 -0.0509
31525SOL    HW296829   2.043   4.918   6.401  0.8337 -1.1839  0.7119
31526SOL     OW96830   2.206   2.738   2.553  0.1987  0.5372  0.0806
31526SOL    HW196831   2.184   2.645   2.549 -0.4692  0.6993 -0.1636
31526SOL    HW296832   2.272   2.750   2.485 -2.0872  0.8593 -2.2069
31527SOL     OW96833   3.392   1.554   5.603  0.4951  0.1791 -0.1959
31527SOL    HW196834   3.431   1.469   5.622 -0.3368 -0.1238  0.2404
31527SOL    HW296835   3.369   1.551   5.511 -1.4830 -0.9259  0.2742
31528SOL     OW96836   9.078   5.096   1.418 -0.3360  0.5101  0.2561
31528SOL    HW196837   9.149   5.118   1.479 -0.7516  1.8753  0.2720
31528SOL    HW296838   9.107   5.133   1.335 -0.6606  0.3421  0.0694
31529SOL     OW96839   1.386   8.945   7.518  0.0893  0.5556  0.0865
31529SOL    HW196840   1.467   8.986   7.548 -0.2734  0.9737  0.5082
31529SOL    HW296841   1.368   8.987   7.434  1.1287 -0.6462 -0.7854
31530SOL     OW96842   0.502   0.288   5.389  0.0316  0.3990 -0.3282
31530SOL    HW196843   0.463   0.280   5.476 -0.9886  0.9125 -0.7166
31530SOL    HW296844   0.588   0.326   5.404  0.3675 -0.6451  0.5492
31531SOL     OW96845   0.847   4.152   0.839  0.0258 -0.5568  0.5127
31531SOL    HW196846   0.754   4.132   0.833 -0.0868  0.2253 -0.5472
31531SOL    HW296847   0.861   4.175   0.931 -0.5486 -1.9339  0.9666
31532SOL     OW96848   2.670   1.636   4.187  0.4499  0.0809 -0.5675
31532SOL    HW196849   2.698   1.649   4.278 -3.0827 -0.6116  0.8096
31532SOL    HW296850   2.698   1.547   4.166  1.5973  0.3663 -0.2913
31533SOL     OW96851   8.879   1.698   1.725  0.3569  0.1901  0.4297
31533SOL    HW196852   8.817   1.640   1.768  0.2078  0.0245 -0.0062
31533SOL    HW296853   8.957   1.644   1.712 -0.5540 -0.6347 -2.0299
31534SOL     OW96854   2.950   8.857   5.699  0.2800 -0.0066 -0.1502
31534SOL    HW196855   2.862   8.884   5.726  0.4173  0.9872 -0.6577
31534SOL    HW296856   2.980   8.927   5.641  0.7412 -1.1674 -1.3552
31535SOL     OW96857   7.594   2.906   0.456  0.1531  0.1655  0.2148
31535SOL    HW196858   7.601   2.984   0.401  1.2443 -0.0903 -0.0318
31535SOL    HW296859   7.513   2.863   0.427  0.4963  0.2566 -0.9051
31536SOL     OW96860   2.000   6.241   1.449  0.2118  0.7357  0.0561
31536SOL    HW196861   2.078   6.194   1.420  1.7536  2.7147  0.7747
31536SOL    HW296862   1.929   6.204   1.398  1.3922 -2.0060  0.2632
31537SOL     OW96863   6.235   6.411   4.414 -0.7075  0.2617 -0.0188
31537SOL    HW196864   6.148   6.394   4.452  0.2750 -2.2889  1.3418
31537SOL    HW296865   6.278   6.469   4.477 -0.1462 -1.5450  1.3323
31538SOL     OW96866   1.150   6.423   6.219  0.1092 -0.2482 -0.0615
31538SOL    HW196867   1.206   6.355   6.182  0.4049 -0.0251 -0.0227
31538SOL    HW296868   1.146   6.401   6.313  1.5856  0.7477  0.2674
31539SOL     OW96869   7.557   8.217   3.485  0.1994  0.0836 -0.6592
31539SOL    HW196870   7.491   8.274   3.525  0.8708 -1.5830  3.2164
31539SOL    HW296871   7.619   8.278   3.445 -0.0037  2.1175  1.8283
31540SOL     OW96872  10.405   4.217   6.546  0.4860 -0.1294 -0.0539
31540SOL    HW196873  10.449   4.294   6.583  0.8394  0.4133 -1.5460
31540SOL    HW296874  10.329   4.254   6.500  0.6356 -0.6720 -0.7452
31541SOL     OW96875   1.013   9.260   6.231 -0.2330 -0.1349  0.4335
31541SOL    HW196876   1.015   9.252   6.136 -0.1071 -0.9560  0.5016
31541SOL    HW296877   0.960   9.339   6.247 -0.5818 -0.2107 -0.3026
31542SOL     OW96878   6.331   3.752   8.715  0.2183 -0.3592 -0.7024
31542SOL    HW196879   6.285   3.830   8.747 -0.9008 -1.6742  1.0677
31542SOL    HW296880   6.273   3.679   8.736  2.1701 -1.8875 -0.3246
31543SOL     OW96881   8.156   6.885   2.245  0.3256  0.9645 -0.2824
31543SOL    HW196882   8.245   6.918   2.230 -0.0140  1.5717 -1.0668
31543SOL    HW296883   8.145   6.816   2.179  0.8250 -0.3596  0.9715
31544SOL     OW96884   4.820   2.404   6.530 -0.2270  0.1133  0.2095
31544SOL    HW196885   4.854   2.415   6.441 -0.6129 -2.1980 -0.2897
31544SOL    HW296886   4.728   2.381   6.517  0.4602 -3.6394  0.8973
31545SOL     OW96887   4.532  10.125   4.968 -0.3266 -0.3529 -0.6102
31545SOL    HW196888   4.490  10.210   4.959 -1.3060 -0.7984 -0.4341
31545SOL    HW296889   4.460  10.064   4.983  0.3984 -1.1343 -0.1603
31546SOL     OW96890   0.937   2.959   6.111  0.7206 -0.0932 -0.5867
31546SOL    HW196891   0.972   3.048   6.104  0.7415 -0.0591 -0.0890
31546SOL    HW296892   0.983   2.910   6.042 -1.2323  0.8785 -2.7122
31547SOL     OW96893  10.067   0.976   6.450 -0.0667  0.1405  0.1984
31547SOL    HW196894  10.000   0.929   6.401  0.0628 -0.9626  1.0473
31547SOL    HW296895  10.132   1.001   6.384 -0.6541  0.0574 -0.4234
31548SOL     OW96896   1.393   4.709   7.195  0.1870 -0.5395  0.5375
31548SOL    HW196897   1.424   4.707   7.285 -0.7896  1.2644  0.9716
31548SOL    HW296898   1.458   4.762   7.148 -0.7762  0.9852  0.8609
31549SOL     OW96899   2.173   6.144   5.954 -0.4960  0.5299  0.9154
31549SOL    HW196900   2.243   6.081   5.969  0.1416  1.3162  1.3666
31549SOL    HW296901   2.171   6.156   5.859  0.5516  1.0932  0.9405
31550SOL     OW96902   5.586   1.814   1.674 -0.1758  0.3177 -0.7986
31550SOL    HW196903   5.603   1.722   1.691  0.0725  0.7166  1.5207
31550SOL    HW296904   5.506   1.815   1.622  0.3280 -1.2079 -1.6543
31551SOL     OW96905   4.496   0.309   4.635 -0.0996 -0.7115  0.2771
31551SOL    HW196906   4.578   0.357   4.647 -0.2490 -0.5989  0.8561
31551SOL    HW296907   4.509   0.262   4.553  0.7051 -1.0236  0.5706
31552SOL     OW96908   6.234   1.956   1.895  0.2712  0.4387  0.0207
31552SOL    HW196909   6.194   1.995   1.817  1.9282  0.1880 -1.0098
31552SOL    HW296910   6.163   1.909   1.938 -0.6422  0.4139 -1.4550
31553SOL     OW96911   1.224   9.587   3.713 -0.0148  0.1396  0.6353
31553SOL    HW196912   1.133   9.560   3.703  0.0471  0.7928 -3.4758
31553SOL    HW296913   1.275   9.512   3.682  0.8768  0.0218  2.2841
31554SOL     OW96914   3.709   2.310   1.966 -0.1168  0.2928  0.6263
31554SOL    HW196915   3.781   2.354   1.922  0.6571 -0.0839  1.4861
31554SOL    HW296916   3.702   2.355   2.051 -1.2603  0.6870  0.3411
31555SOL     OW96917   1.041   4.071   2.459 -0.5007  0.1867 -0.1811
31555SOL    HW196918   0.949   4.056   2.438 -0.7706  0.7041  0.6069
31555SOL    HW296919   1.086   4.056   2.376 -0.9447 -2.7797  0.0320
31556SOL     OW96920   4.040   2.263   9.150 -0.6387 -0.3192  0.0265
31556SOL    HW196921   4.089   2.281   9.230 -1.4140 -0.1206  0.4682
31556SOL    HW296922   3.948   2.275   9.175 -0.8559  0.3813 -1.0535
31557SOL     OW96923   1.092   7.558   7.424  0.5713 -0.0464 -0.3459
31557SOL    HW196924   1.103   7.463   7.422 -0.9922 -0.2874  0.5930
31557SOL    HW296925   1.002   7.572   7.395  0.8185  1.1703 -0.5797
31558SOL     OW96926   5.173   1.939   3.969 -0.4167 -0.1207 -0.3156
31558SOL    HW196927   5.115   1.880   4.016 -0.7578  0.7839  0.4232
31558SOL    HW296928   5.120   2.017   3.951  0.7863  1.1275  1.2171
31559SOL     OW96929   5.121   0.565   4.549  0.2424  0.8448 -0.6233
31559SOL    HW196930   5.088   0.635   4.606 -0.2261  0.8271 -0.8744
31559SOL    HW296931   5.043   0.524   4.512  0.4664 -0.5653  0.3889
31560SOL     OW96932  10.218   2.678  10.124  0.0046  0.3697 -0.0520
31560SOL    HW196933  10.136   2.720  10.100 -1.1429 -0.9204  1.3863
31560SOL    HW296934  10.196   2.585  10.129  1.8907 -0.1652 -0.8801
31561SOL     OW96935   1.867   9.600  10.082  0.5512  0.8913  0.1194
31561SOL    HW196936   1.786   9.558  10.055  0.0402  2.6597 -1.3082
31561SOL    HW296937   1.842   9.653  10.158  0.7594  0.1723  0.7007
31562SOL     OW96938   8.013   0.632   6.781 -0.0362 -0.0598  0.1136
31562SOL    HW196939   7.919   0.634   6.763 -0.0524  0.8007  0.2538
31562SOL    HW296940   8.053   0.603   6.699 -0.3151  1.0693 -0.4310
31563SOL     OW96941   5.711   2.236   5.318 -0.4825  0.2931 -0.1304
31563SOL    HW196942   5.733   2.160   5.372  1.0876  1.0931  0.4158
31563SOL    HW296943   5.719   2.205   5.228  3.2566  0.5054 -0.0090
31564SOL     OW96944   6.628   0.521   1.533  0.3696  0.1585  0.3267
31564SOL    HW196945   6.675   0.560   1.460  0.8343 -0.9950 -0.0061
31564SOL    HW296946   6.696   0.501   1.598 -0.1367  2.1455  1.5918
31565SOL     OW96947   4.927   3.102  10.539 -0.8810  0.5802  0.3632
31565SOL    HW196948   5.018   3.124  10.521 -0.7900  0.2169  0.3731
31565SOL    HW296949   4.884   3.186  10.554 -0.5649  0.7564  0.2759
31566SOL     OW96950   3.425   5.613   2.981  0.2197 -0.5505 -0.0542
31566SOL    HW196951   3.441   5.605   3.075  0.2099  1.1793  0.1257
31566SOL    HW296952   3.365   5.542   2.960 -2.7342  1.1511  1.9845
31567SOL     OW96953   8.538   1.768   2.843 -0.2226 -0.2767  0.0865
31567SOL    HW196954   8.528   1.752   2.937  0.3200  0.0196  0.2042
31567SOL    HW296955   8.633   1.768   2.830 -0.2917 -2.6004 -0.8826
31568SOL     OW96956   0.107   8.548   5.464  0.5366  0.4480 -0.7266
31568SOL    HW196957   0.156   8.522   5.387  2.4591 -0.5099  0.7439
31568SOL    HW296958   0.018   8.516   5.447  0.3154  2.1762 -3.4185
31569SOL     OW96959   5.601   7.161   5.031  0.1090 -0.1997  0.0454
31569SOL    HW196960   5.581   7.254   5.045  0.0867 -0.4078  1.5110
31569SOL    HW296961   5.549   7.137   4.954 -0.9617  0.6575  0.4748
31570SOL     OW96962   2.981   0.479   6.934  0.0245  0.0635 -0.5021
31570SOL    HW196963   2.961   0.405   6.993 -1.6690  0.0056 -1.0836
31570SOL    HW296964   3.038   0.442   6.868  0.0856 -0.4553 -0.1688
31571SOL     OW96965   3.137   4.802   8.090  0.1621  0.2943 -0.4941
31571SOL    HW196966   3.104   4.871   8.032 -1.0268  0.7005  0.6013
31571SOL    HW296967   3.060   4.747   8.107  1.1415 -1.4598 -1.5243
31572SOL     OW96968   0.632   2.793   3.747  0.1744 -0.2470  0.3124
31572SOL    HW196969   0.680   2.866   3.786 -1.6476  1.2718 -0.1318
31572SOL    HW296970   0.559   2.834   3.702  0.0258 -2.2394 -1.4332
31573SOL     OW96971   6.564  10.579   6.414  0.9453  0.4168 -0.2053
31573SOL    HW196972   6.613  10.623   6.344  2.4927  1.0370  1.1971
31573SOL    HW296973   6.554  10.646   6.482  0.2378 -0.4067  0.5277
31574SOL     OW96974   9.388   4.039   8.973 -0.0782 -0.0646  0.0057
31574SOL    HW196975   9.359   3.951   8.997  0.9813 -0.1356  1.1187
31574SOL    HW296976   9.324   4.097   9.014 -1.6749 -0.3045 -2.0045
31575SOL     OW96977   9.968   8.092   5.484  0.4569  0.5389 -0.0267
31575SOL    HW196978  10.015   8.021   5.439  2.4274  1.2195  0.8586
31575SOL    HW296979   9.957   8.060   5.573  3.1246  1.9810  0.9542
31576SOL     OW96980   4.060   0.761   1.546  0.1361 -0.1950  0.2640
31576SOL    HW196981   4.143   0.715   1.539 -0.5067 -1.2390 -0.7465
31576SOL    HW296982   4.034   0.778   1.455 -2.3989 -2.9840  0.3031
31577SOL     OW96983   8.834   3.505  10.034 -0.4589 -0.3230  0.4243
31577SOL    HW196984   8.802   3.593  10.051 -1.3317 -0.5111 -0.1934
31577SOL    HW296985   8.759   3.448  10.050 -0.3509 -0.8061 -0.6653
31578SOL     OW96986   4.040   3.618   4.389  0.2037 -0.7851 -0.1480
31578SOL    HW196987   4.100   3.616   4.464  0.3112  0.3907 -0.1858
31578SOL    HW296988   3.983   3.693   4.406  1.3533  0.6224 -2.0649
31579SOL     OW96989   4.509   8.849   4.971 -0.3936  0.2800 -0.3608
31579SOL    HW196990   4.590   8.803   4.950  0.3621 -0.0064  2.6260
31579SOL    HW296991   4.530   8.942   4.960  0.5110  0.2262  0.7243
31580SOL     OW96992   6.689   2.852   8.571 -0.3098 -0.3003  0.1786
31580SOL    HW196993   6.635   2.917   8.527  1.2983  0.0943 -1.3683
31580SOL    HW296994   6.639   2.771   8.565 -0.6870  0.0163 -1.3210
31581SOL     OW96995   0.788   5.947   3.624  0.5606  0.0463 -0.1062
31581SOL    HW196996   0.848   5.998   3.679  0.1542  0.4691 -0.0489
31581SOL    HW296997   0.772   6.002   3.548  0.0230  0.0616  0.0103
31582SOL     OW96998   1.102   9.333   3.490  0.2644 -0.4160  0.5229
31582SOL    HW196999   1.148   9.303   3.411 -1.3219 -0.8328 -0.2852
31582SOL    HW297000   1.117   9.264   3.554  0.5465 -0.6740  0.1820
31583SOL     OW97001   5.612   3.952   6.683  0.1149  0.1070  0.3635
31583SOL    HW197002   5.560   3.873   6.697  1.0111 -0.6485 -0.4354
31583SOL    HW297003   5.702   3.921   6.674  0.7792  1.3949  1.8988
31584SOL     OW97004  10.078   1.807   4.564 -0.2953  0.5307 -0.1285
31584SOL    HW197005  10.069   1.897   4.596 -1.4278  0.4239 -0.1037
31584SOL    HW297006   9.988   1.776   4.554  0.0807 -0.7178  0.1703
31585SOL     OW97007   1.791   0.932   7.494  0.0890 -0.2356  0.0954
31585SOL    HW197008   1.741   0.974   7.564  0.4972 -0.6041  0.6163
31585SOL    HW297009   1.724   0.900   7.433 -0.2463  0.6311 -0.0101
31586SOL     OW97010   2.667   6.405   2.594 -0.5892  0.5379  0.0791
31586SOL    HW197011   2.730   6.458   2.546  0.8247 -2.3163 -1.4694
31586SOL    HW297012   2.591   6.398   2.536  0.2779 -1.1488 -0.9594
31587SOL     OW97013   9.929   5.098   5.392 -0.4444 -0.8032  0.1339
31587SOL    HW197014   9.889   5.180   5.420 -0.0923  0.3144 -2.3325
31587SOL    HW297015   9.863   5.031   5.413 -0.9153  0.1399  1.7920
31588SOL     OW97016   5.985   4.115   7.673  0.3933  0.1182  0.8349
31588SOL    HW197017   6.016   4.024   7.679  1.5511  0.5932  2.7205
31588SOL    HW297018   5.994   4.150   7.761 -0.2275  2.0293  0.1942
31589SOL     OW97019   9.247   7.656   8.242  0.0331 -0.0189 -0.3635
31589SOL    HW197020   9.304   7.618   8.174  0.8512  0.7493 -0.1211
31589SOL    HW297021   9.165   7.608   8.233  0.9310 -1.6550 -0.2678
31590SOL     OW97022   8.205   3.346   8.621  0.0332 -0.0134  0.3151
31590SOL    HW197023   8.128   3.291   8.635  0.4683 -0.7335 -0.0570
31590SOL    HW297024   8.231   3.328   8.530 -0.5695  1.7815 -0.2513
31591SOL     OW97025   2.594   5.647   5.072 -0.1067  0.5466 -0.0175
31591SOL    HW197026   2.584   5.573   5.132  2.8504  0.2426  0.2484
31591SOL    HW297027   2.574   5.611   4.985 -1.7681  0.3070  0.4314
31592SOL     OW97028   4.493   5.296   1.804 -0.4896 -0.1268 -0.3034
31592SOL    HW197029   4.512   5.242   1.880 -0.9784  0.9670  0.6193
31592SOL    HW297030   4.575   5.298   1.755  0.5944  1.1443  1.4682
31593SOL     OW97031   0.750   5.258   2.045  0.2491  0.1795  0.2454
31593SOL    HW197032   0.757   5.193   2.114 -1.9971 -1.2824 -0.7564
31593SOL    HW297033   0.718   5.208   1.969  0.0438  2.1663 -1.0420
31594SOL     OW97034   9.587   6.359   2.664  0.4321  0.6855  0.6606
31594SOL    HW197035   9.616   6.298   2.732  1.0314  1.4862  1.1588
31594SOL    HW297036   9.493   6.369   2.679 -0.0520 -1.4907 -0.5871
31595SOL     OW97037   4.773   2.388   2.024 -0.0608  0.1673  0.1130
31595SOL    HW197038   4.867   2.400   2.005 -0.1608  0.5761 -0.1636
31595SOL    HW297039   4.734   2.371   1.938 -0.1622 -0.5948  0.3039
31596SOL     OW97040   6.844   6.216   5.545  0.0332  0.0074 -0.0136
31596SOL    HW197041   6.905   6.270   5.596  0.9261  0.7028 -1.6939
31596SOL    HW297042   6.895   6.138   5.522  0.6395  0.9390 -2.0737
31597SOL     OW97043   0.730   8.123   7.161 -0.5864  0.1293 -0.5268
31597SOL    HW197044   0.753   8.200   7.212 -0.6444 -1.1696  1.6008
31597SOL    HW297045   0.776   8.133   7.078  0.8807  1.5483  0.4197
31598SOL     OW97046   4.858   2.113   6.842  0.0912  0.0014  0.2380
31598SOL    HW197047   4.904   2.154   6.768  0.3139  0.3360  0.5604
31598SOL    HW297048   4.765   2.127   6.823  0.1560  0.3780  0.1824
31599SOL     OW97049   4.584   9.135   6.219 -0.2191 -0.2800 -0.1825
31599SOL    HW197050   4.514   9.099   6.165  1.5946 -0.8716 -2.2887
31599SOL    HW297051   4.657   9.073   6.209  0.7939  0.5337  1.5434
31600SOL     OW97052   1.623   4.741   5.150 -0.1781  0.3616 -0.9655
31600SOL    HW197053   1.593   4.654   5.126  0.8478  0.6447 -3.5733
31600SOL    HW297054   1.559   4.801   5.111  1.7509  0.8586 -3.5830
31601SOL     OW97055   0.814   1.220   1.672  0.0169  0.1045 -0.3825
31601SOL    HW197056   0.726   1.185   1.682 -0.4684  1.1399 -0.8676
31601SOL    HW297057   0.830   1.221   1.578  0.1100  0.9356 -0.3671
31602SOL     OW97058   0.277   6.433   7.647  0.1681  0.4788  0.1274
31602SOL    HW197059   0.354   6.380   7.666  0.7265  1.6910  1.3099
31602SOL    HW297060   0.293   6.517   7.688 -1.1386  1.2766 -0.8768
31603SOL     OW97061   2.388   8.514   7.958  0.7721  0.4132 -0.2263
31603SOL    HW197062   2.415   8.536   8.047 -0.0089 -0.1529  0.1649
31603SOL    HW297063   2.357   8.596   7.920  0.0298  0.4413  0.4275
31604SOL     OW97064   7.756   1.441   3.347  0.7355 -0.4339  0.4541
31604SOL    HW197065   7.774   1.443   3.253 -0.3364  0.1268  0.2382
31604SOL    HW297066   7.825   1.495   3.386  0.5326  0.2735 -0.1422
31605SOL     OW97067   7.928   3.052   5.191 -0.0081  0.1299 -0.0029
31605SOL    HW197068   8.013   3.067   5.233  1.1764 -3.0112 -0.9840
31605SOL    HW297069   7.877   3.006   5.257 -0.2864  0.4429 -0.0030
31606SOL     OW97070   2.364   0.102   8.687 -0.1994  0.0051  0.2480
31606SOL    HW197071   2.362   0.054   8.770 -1.2821 -0.8481 -0.2473
31606SOL    HW297072   2.331   0.040   8.623 -0.4855  1.0390 -0.6270
31607SOL     OW97073   4.089   6.863   6.050  0.4069  0.0109 -0.2600
31607SOL    HW197074   4.087   6.770   6.074 -0.8535  0.3651  1.2540
31607SOL    HW297075   3.998   6.883   6.027  0.2176  1.2805  1.3839
31608SOL     OW97076   3.508   2.489   4.539 -0.2079 -0.1369 -0.5737
31608SOL    HW197077   3.460   2.569   4.519 -0.9757 -0.4786 -0.1522
31608SOL    HW297078   3.562   2.512   4.615  0.0825  0.1681 -0.8703
31609SOL     OW97079   9.104   6.748   9.144  0.3195  0.2292 -0.4544
31609SOL    HW197080   9.165   6.819   9.123  0.2235  0.2706 -0.5879
31609SOL    HW297081   9.029   6.762   9.087  0.0407  0.3663 -0.0533
31610SOL     OW97082   1.650   2.008   0.897 -0.2260  0.2685  0.4755
31610SOL    HW197083   1.664   1.976   0.807  0.0138 -0.3704  0.7350
31610SOL    HW297084   1.632   2.102   0.886 -1.8344 -0.0962 -0.3827
31611SOL     OW97085   4.524  10.491   9.351  0.1120  0.2945 -0.4698
31611SOL    HW197086   4.456  10.457   9.409  0.5608 -2.0536 -1.1999
31611SOL    HW297087   4.490  10.476   9.263  1.1456 -0.0020 -0.8293
31612SOL     OW97088   5.877   7.447   1.500  0.2717  0.1939  0.4607
31612SOL    HW197089   5.835   7.483   1.578 -1.5583 -2.3702  0.7996
31612SOL    HW297090   5.901   7.357   1.524 -0.2064 -0.6361 -1.8296
31613SOL     OW97091   6.947   3.676   5.098  0.2880 -0.2742  0.5775
31613SOL    HW197092   6.920   3.593   5.060 -0.2695  0.4469 -0.6729
31613SOL    HW297093   6.880   3.697   5.163  0.4249 -0.7818  0.8880
31614SOL     OW97094   5.983   0.361   9.246 -0.1630 -0.1925 -0.3620
31614SOL    HW197095   6.030   0.425   9.300 -1.4642  1.2940 -0.9247
31614SOL    HW297096   5.891   0.376   9.265 -0.5168 -1.8233 -0.6476
31615SOL     OW97097   0.067   9.257   8.635  0.6671  0.0532 -0.4441
31615SOL    HW197098   0.138   9.319   8.615  0.8736 -0.5850 -1.8485
31615SOL    HW297099   0.096   9.175   8.595  0.9902 -1.3346  2.4430
31616SOL     OW97100   8.505   1.393   7.996 -0.0871 -0.9209 -0.1555
31616SOL    HW197101   8.430   1.449   8.018  1.3673  1.1810 -0.2498
31616SOL    HW297102   8.514   1.400   7.901  1.1439  0.1783  0.0040
31617SOL     OW97103   6.998   0.546   7.416  0.4871 -0.1134  0.0263
31617SOL    HW197104   6.950   0.585   7.489  1.0730 -1.2748  1.0690
31617SOL    HW297105   6.935   0.541   7.345 -0.9503 -1.5450  1.3382
31618SOL     OW97106   0.100   9.435   4.461  0.5405 -0.4657  0.1466
31618SOL    HW197107   0.036   9.441   4.390  2.6182 -0.7626 -1.8601
31618SOL    HW297108   0.055   9.386   4.530 -1.0261 -1.6107 -1.5984
31619SOL     OW97109   6.949  10.182   3.156  0.8295  0.6655 -0.8362
31619SOL    HW197110   7.005  10.106   3.137  2.3995  2.0704 -2.1974
31619SOL    HW297111   7.010  10.252   3.180 -0.5440  1.6177  0.0236
31620SOL     OW97112   4.520   4.834   8.254 -0.5251  0.4048  0.1411
31620SOL    HW197113   4.460   4.819   8.181 -0.7173 -0.4992  0.4713
31620SOL    HW297114   4.549   4.924   8.243 -0.1264  0.1315 -1.3595
31621SOL     OW97115   6.682   8.285   5.920  0.1646 -0.3931 -0.0496
31621SOL    HW197116   6.618   8.215   5.938  1.2985 -1.5249 -0.2415
31621SOL    HW297117   6.687   8.335   6.001 -1.4046  0.1003 -0.2287
31622SOL     OW97118   9.888   1.965   0.682 -0.1320  0.1572  0.1343
31622SOL    HW197119   9.806   1.968   0.732  0.0169 -0.0963  0.3944
31622SOL    HW297120   9.907   2.057   0.662  0.2482  0.3421  1.2687
31623SOL     OW97121   0.443   3.334   3.808  0.1596  0.0312 -0.0732
31623SOL    HW197122   0.379   3.302   3.745 -0.7001  0.2375  0.6682
31623SOL    HW297123   0.413   3.300   3.892  1.1932 -0.1019  0.2502
31624SOL     OW97124   9.622   9.015   0.674  0.4574  0.1239 -0.6349
31624SOL    HW197125   9.603   9.094   0.623  1.7139  0.2159 -1.0018
31624SOL    HW297126   9.661   9.047   0.755 -1.1014 -0.0439  0.2098
31625SOL     OW97127   7.364   8.043   3.998 -0.4510  0.2169 -0.0642
31625SOL    HW197128   7.431   7.981   4.026 -1.5023 -0.5712  0.7982
31625SOL    HW297129   7.413   8.117   3.962  0.8400 -0.7833 -0.4111
31626SOL     OW97130  10.400  10.525   1.723  0.3935 -0.1348 -0.2468
31626SOL    HW197131  10.384  10.438   1.688  1.1988 -0.4070  0.0353
31626SOL    HW297132  10.402  10.582   1.645 -0.5039 -0.2998 -0.3967
31627SOL     OW97133   5.280   0.123   1.549  0.0067 -0.0633 -0.1230
31627SOL    HW197134   5.217   0.064   1.507  1.3516 -1.4321 -0.3134
31627SOL    HW297135   5.308   0.076   1.627  0.1414  0.9307  0.4396
31628SOL     OW97136   5.607   8.078   2.766 -0.1667 -0.3561  0.4181
31628SOL    HW197137   5.568   8.026   2.837  0.4854  0.3748  1.3398
31628SOL    HW297138   5.701   8.080   2.787  0.2558 -1.2273 -1.1961
31629SOL     OW97139   5.748   4.844   7.358  0.2260  0.1016 -0.2862
31629SOL    HW197140   5.702   4.869   7.437 -1.1578 -0.9633 -0.7185
31629SOL    HW297141   5.802   4.769   7.384 -0.2624 -0.2754 -0.3547
31630SOL     OW97142   5.897   1.091   6.992  0.7649 -0.4128  0.5816
31630SOL    HW197143   5.914   1.040   6.913 -1.8465  0.8453 -0.9326
31630SOL    HW297144   5.873   1.178   6.960  2.2561  0.9892  2.9401
31631SOL     OW97145   6.832   1.881   8.084  0.2252 -0.6349 -0.5218
31631SOL    HW197146   6.899   1.814   8.101 -2.7876 -3.5573  1.0441
31631SOL    HW297147   6.817   1.922   8.169  2.3504  2.6059 -1.5469
31632SOL     OW97148   8.707   0.373   3.597 -0.0537  0.4357 -0.3104
31632SOL    HW197149   8.642   0.381   3.667  0.9964  0.3969  0.6823
31632SOL    HW297150   8.723   0.279   3.589  0.6555  0.5044  0.1909
31633SOL     OW97151   1.600   1.047   8.442  0.0877 -0.4482 -0.0174
31633SOL    HW197152   1.687   1.056   8.482 -0.9438 -0.8698  2.4827
31633SOL    HW297153   1.558   1.131   8.458 -0.4719 -0.7415  0.0510
31634SOL     OW97154   9.468   5.537   9.147  0.5888 -0.3930  0.1988
31634SOL    HW197155   9.388   5.485   9.155  1.5370 -2.1751 -1.0831
31634SOL    HW297156   9.536   5.473   9.125  1.7170  1.4346 -2.1204
31635SOL     OW97157   2.851   1.851   3.734  0.0547  0.6530  0.9778
31635SOL    HW197158   2.823   1.848   3.825  0.2516  1.5132  1.0730
31635SOL    HW297159   2.946   1.863   3.739  0.2156 -0.3715  0.6562
31636SOL     OW97160   0.812   0.772  10.067  0.0902 -0.0108 -0.4989
31636SOL    HW197161   0.848   0.697  10.019  0.3487 -0.0489 -0.2505
31636SOL    HW297162   0.810   0.742  10.158  2.1935  1.0090 -0.0508
31637SOL     OW97163   6.081   9.898   2.300 -0.4135 -0.0516 -0.1382
31637SOL    HW197164   6.164   9.922   2.257 -0.6353  1.7892  0.3500
31637SOL    HW297165   6.050   9.980   2.338 -1.6792 -1.0414  1.0552
31638SOL     OW97166  10.223   8.804   9.434 -0.3174 -0.1065 -0.2105
31638SOL    HW197167  10.221   8.823   9.340 -1.1628 -1.2917 -0.4535
31638SOL    HW297168  10.293   8.860   9.468 -1.1311  1.6476 -1.2429
31639SOL     OW97169   6.890   1.704   7.817 -0.5235  0.2192 -0.0690
31639SOL    HW197170   6.908   1.619   7.857  0.9191  0.3008 -0.4755
31639SOL    HW297171   6.834   1.683   7.742 -1.5724 -0.1598  0.7938
31640SOL     OW97172   2.293   5.919  10.201 -0.0781  0.4083 -0.2507
31640SOL    HW197173   2.344   5.838  10.203 -1.5547 -0.5637  0.2228
31640SOL    HW297174   2.222   5.901  10.139 -0.8063  1.0963  0.3611
31641SOL     OW97175   1.919   3.345  10.626 -0.4888 -0.1790  0.2549
31641SOL    HW197176   1.946   3.405  10.696  1.0577 -1.7329  1.0651
31641SOL    HW297177   1.894   3.403  10.553 -1.0887  1.4524  1.6986
31642SOL     OW97178   6.206   1.881   6.857 -0.3361 -0.1748  0.8403
31642SOL    HW197179   6.228   1.930   6.778 -1.6323  2.3233  1.9177
31642SOL    HW297180   6.263   1.804   6.853  0.6492  0.5493 -1.7850
31643SOL     OW97181  10.034   0.060   8.040 -0.3112 -0.2066 -0.4148
31643SOL    HW197182   9.989   0.030   7.960  0.0509  0.2155 -0.7808
31643SOL    HW297183  10.126   0.044   8.023 -0.4084 -2.8675  1.0961
31644SOL     OW97184   2.309   1.476   7.644  0.7264 -0.1430  0.0198
31644SOL    HW197185   2.230   1.499   7.596 -0.3736  0.8073  2.1301
31644SOL    HW297186   2.283   1.481   7.736  2.9968 -0.7761  0.7658
31645SOL     OW97187   3.389   1.304   9.455 -0.1113  0.1599 -0.0337
31645SOL    HW197188   3.342   1.373   9.409 -0.7222 -1.3388 -1.7934
31645SOL    HW297189   3.320   1.246   9.489  0.3479 -1.3838 -1.5640
31646SOL     OW97190   9.408   9.437  10.311  1.0255 -0.0243 -0.1400
31646SOL    HW197191   9.429   9.493  10.236  1.9208  0.3862  0.4051
31646SOL    HW297192   9.329   9.391  10.284  0.5474  1.1343 -0.8005
31647SOL     OW97193   6.541   6.743   6.753  0.3000  0.6753  1.0498
31647SOL    HW197194   6.634   6.761   6.769  0.0765  1.7624  1.1573
31647SOL    HW297195   6.530   6.651   6.780  1.4563  0.3575  0.4995
31648SOL     OW97196   4.060   1.882  10.619  0.3656 -0.1240  0.0760
31648SOL    HW197197   4.033   1.973  10.604 -0.4516 -0.4099 -0.2019
31648SOL    HW297198   4.132   1.869  10.557  0.8207  0.4844  0.4635
31649SOL     OW97199   6.540   6.215   8.304 -1.0147  0.1431 -0.0418
31649SOL    HW197200   6.548   6.135   8.252 -0.4833  0.1171  0.0708
31649SOL    HW297201   6.462   6.202   8.357 -1.9641  0.4473 -1.3189
31650SOL     OW97202   1.299   7.107   1.557 -0.1337  0.4568 -0.0358
31650SOL    HW197203   1.368   7.173   1.545  0.3699  0.0181  0.3610
31650SOL    HW297204   1.248   7.111   1.477 -1.7739  3.1976  1.0285
31651SOL     OW97205   5.769   4.143   3.222 -0.5769  0.1869 -0.1840
31651SOL    HW197206   5.831   4.164   3.152 -2.8788  0.7288 -2.2069
31651SOL    HW297207   5.760   4.225   3.271  0.7054 -0.0759  0.5703
31652SOL     OW97208   8.690   7.363   5.547  0.3405 -0.0029  0.0952
31652SOL    HW197209   8.746   7.395   5.618  2.3430 -0.3989 -1.2073
31652SOL    HW297210   8.640   7.439   5.519 -0.0501  0.2891  1.5259
31653SOL     OW97211   2.893   9.340   3.350 -0.4269 -0.1831 -0.7982
31653SOL    HW197212   2.878   9.246   3.351 -0.0740 -0.2365 -0.2690
31653SOL    HW297213   2.917   9.360   3.259 -0.9356 -0.5325 -1.0070
31654SOL     OW97214   4.909   7.997   6.737 -0.1968 -0.1730 -0.2205
31654SOL    HW197215   4.860   7.940   6.678  0.6142 -1.7510  0.5636
31654SOL    HW297216   5.000   7.970   6.725 -0.0121 -0.5803  1.7516
31655SOL     OW97217   6.436   5.804   7.093  0.8154 -0.1505 -0.1500
31655SOL    HW197218   6.378   5.730   7.111  0.8576 -0.5658 -1.6059
31655SOL    HW297219   6.382   5.881   7.110  0.3549 -0.5157  0.0758
31656SOL     OW97220   2.955  10.340   3.383 -0.1977 -0.2887 -0.5738
31656SOL    HW197221   2.994  10.287   3.452  0.1921 -0.4011 -0.8731
31656SOL    HW297222   2.904  10.278   3.331 -0.6284 -0.1743 -0.2862
31657SOL     OW97223   6.843   5.606   9.447 -0.2279  0.1366  0.2637
31657SOL    HW197224   6.777   5.597   9.516  1.4100  0.2175  1.9052
31657SOL    HW297225   6.871   5.517   9.428  1.2645  0.2454  1.7253
31658SOL     OW97226   6.917   3.500  10.369  0.1420 -0.0156 -0.5336
31658SOL    HW197227   6.849   3.495  10.436 -0.3373  0.0677 -1.0054
31658SOL    HW297228   6.906   3.587  10.331 -1.9317 -1.2793 -3.1213
31659SOL     OW97229   0.583   1.202   7.769  0.3845 -0.1560  0.5483
31659SOL    HW197230   0.665   1.188   7.720 -0.7350 -1.0899 -1.1719
31659SOL    HW297231   0.558   1.291   7.748  0.3823 -0.2500  0.1366
31660SOL     OW97232   3.841   6.702   4.542 -0.2962  0.0226  0.1011
31660SOL    HW197233   3.863   6.638   4.610 -0.9240  0.1616  0.4429
31660SOL    HW297234   3.755   6.735   4.567 -0.5748  0.0116 -0.8210
31661SOL     OW97235   1.513   7.127   0.663  1.2936 -0.0977 -0.6169
31661SOL    HW197236   1.530   7.212   0.705 -0.4876  0.6475 -1.2870
31661SOL    HW297237   1.554   7.063   0.721  0.3586  1.0061  1.3924
31662SOL     OW97238   3.331   9.357   2.498 -0.1953 -0.2049 -0.6449
31662SOL    HW197239   3.281   9.416   2.555  1.6418  0.5672  0.2347
31662SOL    HW297240   3.377   9.415   2.438  1.4847 -0.6906  0.1005
31663SOL     OW97241   2.938   6.765   1.258 -0.3611  0.2983  0.9394
31663SOL    HW197242   3.030   6.787   1.268 -0.4237  0.4864  1.1126
31663SOL    HW297243   2.892   6.829   1.313 -0.6402  0.7023  0.2538
31664SOL     OW97244   4.948   8.008   8.829 -0.2462 -0.0368 -0.3124
31664SOL    HW197245   5.003   8.039   8.901 -1.9805  2.2772  0.1646
31664SOL    HW297246   4.937   7.915   8.845  0.7682  0.1072  1.4830
31665SOL     OW97247   2.216   2.404   6.937  0.1562  0.1967 -0.1225
31665SOL    HW197248   2.210   2.473   7.003 -1.0411  0.3569 -0.3769
31665SOL    HW297249   2.227   2.324   6.987 -1.2029  0.2630  0.3132
31666SOL     OW97250   4.372   8.511   2.464 -0.3921 -0.3583 -0.0594
31666SOL    HW197251   4.445   8.570   2.448 -0.3672  0.2980  2.1359
31666SOL    HW297252   4.298   8.569   2.485 -1.2988 -1.0357 -1.2310
31667SOL     OW97253   1.157   5.896  10.043 -0.3762 -0.2190 -0.1966
31667SOL    HW197254   1.191   5.827   9.987  0.0024  0.6474 -1.0520
31667SOL    HW297255   1.094   5.943   9.988  0.2119  0.8209 -0.0008
31668SOL     OW97256   3.345   4.990   5.901  0.0532 -0.8831  0.4977
31668SOL    HW197257   3.277   5.055   5.889  0.3022 -0.6666  0.2483
31668SOL    HW297258   3.408   5.032   5.960  0.5657 -0.6223 -0.2197
31669SOL     OW97259   8.663   7.105   5.303 -0.4864  0.0650  0.1354
31669SOL    HW197260   8.676   7.011   5.311 -1.6095 -0.1464 -0.2575
31669SOL    HW297261   8.641   7.134   5.392  2.8424  0.5262  0.9277
31670SOL     OW97262   0.026   2.909   2.873  0.1311 -0.0504  0.8347
31670SOL    HW197263   0.005   2.851   2.800 -0.9714 -1.3674  2.1335
31670SOL    HW297264  -0.054   2.910   2.926  0.2607  2.3448  1.0857
31671SOL     OW97265   1.543   6.222   3.999  0.6424 -0.3953 -0.1689
31671SOL    HW197266   1.525   6.162   4.072 -0.6520  0.2727  0.0933
31671SOL    HW297267   1.502   6.180   3.923  0.5665 -0.2998 -0.1806
31672SOL     OW97268   9.955   4.006   4.766 -0.1989 -0.3982 -0.1325
31672SOL    HW197269   9.965   3.915   4.739 -1.1580 -0.5364 -0.0334
31672SOL    HW297270  10.044   4.034   4.789 -0.0837 -1.7024  1.1378
31673SOL     OW97271   0.030   3.528   3.733 -0.2073  0.1494  0.3857
31673SOL    HW197272  -0.022   3.458   3.693 -0.4222  1.5875 -2.0106
31673SOL    HW297273   0.116   3.488   3.748 -0.2782 -0.6177 -1.0647
31674SOL     OW97274   4.147   1.512   3.554  0.6041  0.0764  0.0948
31674SOL    HW197275   4.202   1.561   3.493  0.8606 -0.6716 -0.2771
31674SOL    HW297276   4.209   1.459   3.605  0.3266  0.1428  0.5104
31675SOL     OW97277   0.514   7.321   5.055 -0.2445 -0.1292  0.0640
31675SOL    HW197278   0.531   7.379   5.130 -0.5970 -1.3036  1.0798
31675SOL    HW297279   0.597   7.275   5.042 -0.3303 -0.2788  0.0463
31676SOL     OW97280   2.789   8.938   9.407  0.4779  0.0004 -0.0363
31676SOL    HW197281   2.803   8.912   9.498 -0.1445  1.6406  0.5704
31676SOL    HW297282   2.801   8.857   9.356  0.0567 -1.1071  1.5587
31677SOL     OW97283   3.762   6.308   4.965  0.0107 -0.0477 -0.0908
31677SOL    HW197284   3.829   6.344   5.024 -1.6752  2.2694  0.5792
31677SOL    HW297285   3.796   6.222   4.940  2.0648 -0.0126  2.1391
31678SOL     OW97286   4.912   7.301   8.710  0.2253  0.1256 -0.4948
31678SOL    HW197287   4.925   7.355   8.787  0.8907  0.7732 -1.0540
31678SOL    HW297288   4.867   7.223   8.743 -0.6402  0.9461  0.3405
31679SOL     OW97289   0.076   2.638   9.417  0.4069 -0.4108 -0.4510
31679SOL    HW197290   0.148   2.647   9.480 -0.5235  0.3482  0.5484
31679SOL    HW297291   0.060   2.727   9.385 -2.0750  0.0407  1.6877
31680SOL     OW97292   4.163   9.778   1.767  0.5234  0.5900  0.0745
31680SOL    HW197293   4.199   9.703   1.813 -0.9552  1.1575  2.3492
31680SOL    HW297294   4.233   9.844   1.769  0.7963  0.2880  0.7356
31681SOL     OW97295   5.143   8.445   0.889  0.2386 -0.2021  0.8136
31681SOL    HW197296   5.185   8.425   0.805 -1.8260 -0.7301 -0.1607
31681SOL    HW297297   5.156   8.366   0.942 -2.3979 -1.8093 -0.7395
31682SOL     OW97298   7.518   1.186   1.195  0.2330 -0.1135  0.9574
31682SOL    HW197299   7.563   1.262   1.157  0.0661 -0.1968  0.5926
31682SOL    HW297300   7.453   1.225   1.254 -2.0128  0.1886 -1.5218
31683SOL     OW97301   8.417   9.763   4.828 -0.7301  0.2749  0.8485
31683SOL    HW197302   8.325   9.792   4.822 -0.4702  1.0139  0.2577
31683SOL    HW297303   8.464   9.823   4.771  0.2129  0.2536  1.5871
31684SOL     OW97304   9.106   7.163   5.033  0.1678 -0.0813  0.4679
31684SOL    HW197305   9.028   7.171   5.088  0.4878  0.4729  0.8470
31684SOL    HW297306   9.072   7.155   4.944 -0.3137  0.5153  0.5902
31685SOL     OW97307   2.099   7.745   4.662  0.0021 -0.0596 -0.1846
31685SOL    HW197308   2.101   7.827   4.613  1.0354 -0.6079 -1.0874
31685SOL    HW297309   2.125   7.770   4.751 -1.1438  0.8135 -0.0699
31686SOL     OW97310   7.641   5.170   4.247 -0.3213 -0.3299 -0.1931
31686SOL    HW197311   7.604   5.237   4.190 -1.9970 -0.8366  0.2376
31686SOL    HW297312   7.715   5.214   4.290  0.3855  0.3434 -1.9956
31687SOL     OW97313   7.534   7.534   0.673 -0.3089 -0.1213 -0.6365
31687SOL    HW197314   7.531   7.490   0.588  0.9257  0.5338 -1.0544
31687SOL    HW297315   7.578   7.472   0.731  1.0470  0.3466 -1.1177
31688SOL     OW97316   2.602   6.279   5.314  0.3657  0.7760  0.5466
31688SOL    HW197317   2.656   6.212   5.355  0.7628 -0.6637 -2.0916
31688SOL    HW297318   2.644   6.296   5.230 -1.1686  2.4744  0.0461
31689SOL     OW97319   7.370   3.405   7.198  0.0516  0.0996 -0.5936
31689SOL    HW197320   7.394   3.463   7.270 -0.1379  1.2639 -1.4471
31689SOL    HW297321   7.445   3.346   7.188 -0.9393 -1.8641  2.2444
31690SOL     OW97322   4.193   6.452   2.769  0.2855 -0.1775 -0.0910
31690SOL    HW197323   4.266   6.392   2.749  0.6456  0.0786  0.4132
31690SOL    HW297324   4.158   6.419   2.852  1.0177  0.7866  0.6191
31691SOL     OW97325   7.871   2.608   1.402  0.0995 -0.3147 -0.2500
31691SOL    HW197326   7.883   2.671   1.473  0.1099 -0.0032 -0.5292
31691SOL    HW297327   7.863   2.661   1.323 -2.4150 -0.5139 -0.2084
31692SOL     OW97328   3.573   1.081   1.837 -0.5773 -0.0891 -0.4512
31692SOL    HW197329   3.577   1.175   1.856  1.2768 -0.0088 -1.0262
31692SOL    HW297330   3.503   1.073   1.773 -1.4718  0.7428  0.3870
31693SOL     OW97331   9.484   0.796   8.604 -0.2421 -0.2702 -0.4427
31693SOL    HW197332   9.539   0.722   8.631  0.4349  0.0688 -0.8911
31693SOL    HW297333   9.462   0.840   8.686 -0.9646 -1.1754 -0.1280
31694SOL     OW97334   2.637   4.182   0.891 -0.1971  0.6503  0.0044
31694SOL    HW197335   2.583   4.148   0.962 -2.3088  1.7978 -0.9391
31694SOL    HW297336   2.651   4.107   0.833 -2.1513  0.6034 -0.4919
31695SOL     OW97337   1.416  10.558   3.526 -0.1891  0.0179  0.5474
31695SOL    HW197338   1.365  10.615   3.468 -0.7601 -0.7388  0.2771
31695SOL    HW297339   1.353  10.492   3.554  0.2339  0.0383  1.5689
31696SOL     OW97340   0.752   7.878   6.830  0.0231  0.5138  0.0318
31696SOL    HW197341   0.685   7.855   6.894  0.6623 -0.9594  0.2208
31696SOL    HW297342   0.717   7.954   6.784 -2.0606 -0.5625 -0.2812
31697SOL     OW97343   9.956   7.321   3.501  0.1384  0.4488 -0.7560
31697SOL    HW197344   9.900   7.398   3.501 -0.9115 -0.2964  0.1235
31697SOL    HW297345   9.897   7.247   3.511  1.2155 -0.4142 -0.4997
31698SOL     OW97346   5.992   9.272   8.710  0.3293  0.7064 -0.4687
31698SOL    HW197347   5.936   9.296   8.636 -1.7968  0.2250  0.9133
31698SOL    HW297348   6.002   9.177   8.703 -1.3113  0.3963  0.7396
31699SOL     OW97349   1.713   9.022   9.384  0.1235  0.3696 -0.3549
31699SOL    HW197350   1.659   8.973   9.321  0.8686 -1.8774  0.6425
31699SOL    HW297351   1.802   9.014   9.349  0.3633  0.2673  0.2788
31700SOL     OW97352   0.179   5.128   2.970 -0.3420 -0.2465  1.1462
31700SOL    HW197353   0.190   5.048   3.022 -0.3541 -1.9320 -1.3114
31700SOL    HW297354   0.085   5.133   2.953 -0.1699 -0.5942  0.0176
31701SOL     OW97355   7.141   9.231   9.204  0.2680  0.3311  0.1738
31701SOL    HW197356   7.216   9.207   9.259  0.2242 -0.3205 -0.0403
31701SOL    HW297357   7.153   9.324   9.187 -0.0005  0.6712  1.7083
31702SOL     OW97358   2.961   8.328  10.620 -0.3556 -0.2607  0.7360
31702SOL    HW197359   3.040   8.372  10.651  0.1050 -1.1657  0.8669
31702SOL    HW297360   2.980   8.234  10.628 -0.5217 -0.5372 -1.5465
31703SOL     OW97361   0.772   9.519   7.957  0.0580  0.1379 -0.1610
31703SOL    HW197362   0.864   9.528   7.933 -0.0381  2.0175  0.0975
31703SOL    HW297363   0.735   9.464   7.887  1.2973 -0.4416 -0.3948
31704SOL     OW97364   8.542   9.985   4.681 -0.2925  0.5596 -0.1116
31704SOL    HW197365   8.599  10.043   4.632 -2.1628  1.1066 -1.7562
31704SOL    HW297366   8.509  10.038   4.753  2.3046 -0.1895  1.7826
31705SOL     OW97367   3.526   7.546   1.570  0.3744 -0.1211  0.1605
31705SOL    HW197368   3.457   7.497   1.525  0.0905  0.4279 -0.0198
31705SOL    HW297369   3.575   7.480   1.618  0.7602 -0.7545 -1.0536
31706SOL     OW97370   7.447   7.736   0.830  0.6117 -0.0568 -0.0218
31706SOL    HW197371   7.460   7.803   0.763 -3.5866 -0.9121 -2.0712
31706SOL    HW297372   7.455   7.653   0.782 -1.9089 -0.7054  0.5193
31707SOL     OW97373   3.771   7.837   4.986 -0.0102 -0.1229 -0.2095
31707SOL    HW197374   3.782   7.742   4.995  0.6815  0.0167  0.5527
31707SOL    HW297375   3.736   7.865   5.071  2.3802  0.6492  0.6008
31708SOL     OW97376   0.173   7.866   0.789 -0.0957 -0.0362  0.0066
31708SOL    HW197377   0.145   7.838   0.876 -0.0965 -0.0569 -0.0002
31708SOL    HW297378   0.184   7.961   0.796  1.8456 -0.2479  0.5909
31709SOL     OW97379   3.688   9.196   7.592 -0.6830 -0.8009  0.4186
31709SOL    HW197380   3.735   9.179   7.673  1.9127  1.6816 -0.3821
31709SOL    HW297381   3.741   9.153   7.524  0.2480  1.5210 -0.4386
31710SOL     OW97382   1.601   9.382   1.026  0.2981 -0.0897  0.4316
31710SOL    HW197383   1.684   9.336   1.041 -0.1400 -1.2856 -0.6287
31710SOL    HW297384   1.594   9.387   0.930 -0.1704  1.2883  0.5248
31711SOL     OW97385  10.397   8.585   8.099  0.0695  0.1174 -0.2296
31711SOL    HW197386  10.430   8.663   8.056 -0.2659  0.7933  0.7143
31711SOL    HW297387  10.460   8.516   8.076  0.5315  0.7240 -0.8093
31712SOL     OW97388   9.203   3.885   6.540 -0.4549  0.6356  0.6587
31712SOL    HW197389   9.255   3.928   6.472 -2.6020  1.4034 -0.6072
31712SOL    HW297390   9.245   3.800   6.552  0.3483  0.7006 -1.2450
31713SOL     OW97391   8.087   4.557   3.301 -0.2546  0.0110 -0.7729
31713SOL    HW197392   8.135   4.501   3.362 -0.0194  0.0241 -0.9430
31713SOL    HW297393   8.151   4.579   3.234 -0.4485  0.1851 -0.9026
31714SOL     OW97394   7.147   5.691   7.931  0.0049  0.0109  0.3777
31714SOL    HW197395   7.139   5.784   7.910  1.7711 -0.0226 -0.6816
31714SOL    HW297396   7.119   5.646   7.851 -0.1770 -0.3504  0.6429
31715SOL     OW97397   5.208   1.124   9.002  0.3969 -0.0821  0.5752
31715SOL    HW197398   5.165   1.116   8.917 -0.5752  1.2660  0.9044
31715SOL    HW297399   5.217   1.034   9.033  0.4467 -0.5730 -0.7815
31716SOL     OW97400   1.187   9.684  10.329  0.2477 -0.3430 -0.0197
31716SOL    HW197401   1.156   9.665  10.240 -0.4613 -0.7622  0.3117
31716SOL    HW297402   1.148   9.769  10.350 -1.6082 -1.3559  0.8020
31717SOL     OW97403   4.627   2.324  10.520 -0.1593 -0.7986 -0.4558
31717SOL    HW197404   4.592   2.411  10.498  0.1150 -0.6138 -0.1666
31717SOL    HW297405   4.610   2.271  10.442 -0.9497 -0.6739 -0.3749
31718SOL     OW97406   4.624   1.014   7.045 -0.1388 -0.4100  0.1680
31718SOL    HW197407   4.538   1.016   7.004 -0.4476 -0.1350  0.8093
31718SOL    HW297408   4.640   1.105   7.071  1.3014 -0.0371 -1.8604
31719SOL     OW97409   8.976   6.517  10.582  0.2634 -0.1046 -0.1940
31719SOL    HW197410   9.054   6.513  10.637 -1.0074  1.9667  1.9553
31719SOL    HW297411   8.935   6.431  10.590  0.4084 -0.0248  1.7242
31720SOL     OW97412   4.214   0.251   0.328  0.0524 -0.4898 -0.0381
31720SOL    HW197413   4.132   0.283   0.364  0.0622 -0.5304  0.0212
31720SOL    HW297414   4.204   0.257   0.233  0.3359  0.4038 -0.0216
31721SOL     OW97415   8.053   9.146   2.581  0.9939  0.0374  0.0545
31721SOL    HW197416   7.975   9.102   2.613  1.8245 -1.6315 -0.1350
31721SOL    HW297417   8.104   9.166   2.660  0.8996  0.1188  0.0946
31722SOL     OW97418   9.711   5.329  10.325 -0.2887 -0.1394 -0.3888
31722SOL    HW197419   9.645   5.289  10.383  0.0767 -1.0429 -0.5814
31722SOL    HW297420   9.690   5.295  10.238 -3.0601  3.8921 -1.6135
31723SOL     OW97421   4.194   4.863   3.215 -0.3378  0.2286 -0.1358
31723SOL    HW197422   4.171   4.806   3.288  0.3539  0.7518  0.5062
31723SOL    HW297423   4.286   4.842   3.198 -0.3826  0.4047 -0.5887
31724SOL     OW97424   1.994   4.438   0.750  0.2904  0.0470  0.5883
31724SOL    HW197425   2.053   4.439   0.825 -0.6154 -1.0327  1.3571
31724SOL    HW297426   2.029   4.369   0.693  0.5571  0.3568  0.3778
31725SOL     OW97427   7.938   5.606   7.671  0.2884  0.4046  0.3785
31725SOL    HW197428   7.957   5.599   7.577 -0.8552  0.1278  0.1606
31725SOL    HW297429   7.852   5.647   7.675 -0.7308 -1.6673  1.2250
31726SOL     OW97430   0.918   6.953   0.018  0.0738  0.1530 -0.1593
31726SOL    HW197431   0.913   6.876   0.076  0.3857 -1.7377 -2.4792
31726SOL    HW297432   1.011   6.964   0.001 -0.0467  0.2559 -0.7811
31727SOL     OW97433   6.115   0.900   5.875 -0.1386  0.0176 -0.6873
31727SOL    HW197434   6.059   0.827   5.846  0.8562  0.2067 -3.3293
31727SOL    HW297435   6.190   0.897   5.816  1.9237  0.7514  1.7546
31728SOL     OW97436   1.713   2.072   4.228 -0.2893  0.3113  0.9028
31728SOL    HW197437   1.707   2.111   4.315 -2.1141  1.1691  0.4369
31728SOL    HW297438   1.703   1.978   4.244 -1.5103  0.5351  1.5630
31729SOL     OW97439   6.174  10.153   0.483 -0.3348 -0.5356 -0.3801
31729SOL    HW197440   6.139  10.234   0.445  3.4904  1.5907  0.0317
31729SOL    HW297441   6.170  10.167   0.577 -0.0943 -1.0466 -0.2888
31730SOL     OW97442   7.573   9.759   9.894 -0.0344  0.2744 -0.4331
31730SOL    HW197443   7.614   9.673   9.899  0.3917  0.3982 -1.6664
31730SOL    HW297444   7.554   9.772   9.802  0.7139  1.8650 -0.4038
31731SOL     OW97445   8.689   4.649   3.053 -0.1644  0.1001  0.3469
31731SOL    HW197446   8.631   4.590   3.101 -0.1837  0.9730  1.4398
31731SOL    HW297447   8.641   4.672   2.974  0.0751 -1.7772 -0.3915
31732SOL     OW97448   1.569   3.642   1.795  0.1945  0.2349  0.0040
31732SOL    HW197449   1.646   3.586   1.804  0.3785  0.2826 -1.0831
31732SOL    HW297450   1.496   3.580   1.784  0.5750  0.1202 -2.6299
31733SOL     OW97451   5.854   0.735   8.723  0.2891  0.5061 -0.4031
31733SOL    HW197452   5.788   0.754   8.656  0.5952  0.6465 -0.6723
31733SOL    HW297453   5.893   0.652   8.696 -0.2896  0.0534  0.1658
31734SOL     OW97454   5.210   4.100   1.910  0.5211  0.2006  0.0408
31734SOL    HW197455   5.303   4.121   1.899  0.4303  0.2730 -0.6588
31734SOL    HW297456   5.176   4.097   1.820 -0.2374  0.5461  0.3139
31735SOL     OW97457   9.710   2.843   0.562 -0.5589 -0.2311  0.1954
31735SOL    HW197458   9.788   2.832   0.507  0.7053 -2.8945  2.2622
31735SOL    HW297459   9.729   2.920   0.615  0.8519 -1.0036  0.8635
31736SOL     OW97460   1.725   6.212   5.658 -0.1581 -0.1530 -0.4716
31736SOL    HW197461   1.738   6.119   5.672  0.8941 -0.0021 -0.3991
31736SOL    HW297462   1.632   6.226   5.676 -0.1490 -1.0365  0.3369
31737SOL     OW97463   9.564   2.015   1.364 -0.0085 -0.2159  0.1298
31737SOL    HW197464   9.591   2.000   1.455  2.4958  0.9807 -0.3147
31737SOL    HW297465   9.474   2.046   1.370 -0.4895 -1.7950  2.0402
31738SOL     OW97466   5.030   8.881   6.438  0.2185 -0.2308  0.9211
31738SOL    HW197467   5.052   8.804   6.385 -2.5401  0.2774 -1.1867
31738SOL    HW297468   5.051   8.956   6.382  1.2470  0.5700  2.2916
31739SOL     OW97469   9.006   0.122   7.194  0.0569  0.2758  0.6907
31739SOL    HW197470   9.085   0.094   7.148  1.1775  1.4052  1.8482
31739SOL    HW297471   8.943   0.140   7.125  1.7581  2.1434 -0.4638
31740SOL     OW97472   6.270   4.951   7.347  0.3336 -0.8063 -0.0726
31740SOL    HW197473   6.232   4.902   7.420  0.2266  0.3326  0.6554
31740SOL    HW297474   6.204   4.945   7.278 -0.4940 -0.1744  0.6400
31741SOL     OW97475  10.564  10.506   2.626  0.2728  0.0556 -0.0173
31741SOL    HW197476  10.511  10.559   2.685 -0.8562 -0.5445 -0.4667
31741SOL    HW297477  10.587  10.565   2.554  0.2900  0.3430  0.2251
31742SOL     OW97478   2.187   1.853   0.254 -0.1598 -0.2744 -0.0880
31742SOL    HW197479   2.189   1.945   0.227  0.6234  0.1174  1.2659
31742SOL    HW297480   2.167   1.855   0.347  0.6775 -1.4467  0.1346
31743SOL     OW97481   5.965   3.542   7.656  0.2458  0.0262 -0.2661
31743SOL    HW197482   6.006   3.601   7.594 -0.9622  1.3518  0.1477
31743SOL    HW297483   5.956   3.459   7.608 -0.8850  1.0720 -1.9923
31744SOL     OW97484   1.840   7.776   6.867  0.2289  0.0794  0.2571
31744SOL    HW197485   1.923   7.730   6.857  0.3158  0.2564  0.1560
31744SOL    HW297486   1.843   7.814   6.955 -0.4986 -1.4070  0.9700
31745SOL     OW97487   8.905   2.967   7.445  0.0660  0.3264 -0.0275
31745SOL    HW197488   8.994   2.948   7.476  0.8410  1.8549 -1.1248
31745SOL    HW297489   8.918   3.004   7.357 -1.5828  1.3932  0.1348
31746SOL     OW97490   9.250   0.182   5.512  0.1222  0.8331 -0.3531
31746SOL    HW197491   9.336   0.192   5.473  0.6740 -0.9906  0.2851
31746SOL    HW297492   9.193   0.158   5.439  1.1760 -2.7158 -0.1706
31747SOL     OW97493   9.035   6.929   6.261 -0.6961  0.0426 -0.2844
31747SOL    HW197494   9.039   6.984   6.339 -2.8548  0.3278 -0.3205
31747SOL    HW297495   9.003   6.987   6.192 -3.9180 -1.3183 -0.1184
31748SOL     OW97496   3.504  10.635  10.239  0.4575  0.2533 -0.0469
31748SOL    HW197497   3.432  10.697  10.249  0.0955 -0.0613 -0.6316
31748SOL    HW297498   3.462  10.549  10.234  0.7495  0.1648 -1.6049
31749SOL     OW97499   9.403   8.928   6.982  0.4511 -0.3666  0.1799
31749SOL    HW197500   9.396   9.023   6.988 -1.7230 -0.4367 -0.6118
31749SOL    HW297501   9.492   8.913   6.949  1.6086  1.2438  2.3037
31750SOL     OW97502   5.759   2.306   2.116  0.5230  1.2079  0.0328
31750SOL    HW197503   5.686   2.358   2.150  0.3337  0.1118  1.3801
31750SOL    HW297504   5.793   2.260   2.192 -0.5472 -2.1920 -1.3650
31751SOL     OW97505  10.035  10.504   6.118  0.1166  0.4757  0.0066
31751SOL    HW197506  10.006  10.573   6.177  0.3794  0.7008 -0.1259
31751SOL    HW297507   9.961  10.492   6.058 -0.0785  0.3755  0.2620
31752SOL     OW97508   5.511   9.409   3.822 -0.1986 -0.4747 -0.4499
31752SOL    HW197509   5.511   9.327   3.872 -2.0203 -2.4304 -3.3812
31752SOL    HW297510   5.498   9.477   3.889  1.3397 -2.4899  2.0871
31753SOL     OW97511   7.680   3.689   4.708  0.0845 -0.3528 -0.3655
31753SOL    HW197512   7.667   3.663   4.799 -0.7782 -0.8271 -0.6178
31753SOL    HW297513   7.712   3.610   4.664  2.0830  0.2796 -0.1696
31754SOL     OW97514   9.645   8.097   5.783  0.3633  0.0303  0.0475
31754SOL    HW197515   9.737   8.070   5.779  0.0861 -0.9464 -0.0969
31754SOL    HW297516   9.647   8.182   5.827  1.2103 -0.6371  1.3573
31755SOL     OW97517   4.958   8.907   5.657  0.1028 -0.0686 -0.1693
31755SOL    HW197518   4.928   8.991   5.692 -2.1652 -0.0854 -1.8256
31755SOL    HW297519   5.034   8.928   5.604 -0.7413  1.0787 -0.9741
31756SOL     OW97520   7.219   2.739   4.341  0.1567  0.0844 -0.2044
31756SOL    HW197521   7.266   2.755   4.423  0.3884 -0.6335 -0.1868
31756SOL    HW297522   7.163   2.664   4.361 -2.0099  1.7283  0.1704
31757SOL     OW97523   9.731   2.616   4.514 -0.0477 -0.0653 -0.5427
31757SOL    HW197524   9.665   2.679   4.542 -0.5549 -1.7965  2.5714
31757SOL    HW297525   9.681   2.542   4.482  0.5021  0.0511 -1.7214
31758SOL     OW97526   7.456   2.898   9.113 -0.0303  0.1519  0.2701
31758SOL    HW197527   7.375   2.948   9.108  0.0881  0.5430  1.8352
31758SOL    HW297528   7.507   2.929   9.038 -0.6899  1.0630  0.1800
31759SOL     OW97529   8.439   9.959   7.025 -0.1700  0.3711  0.5771
31759SOL    HW197530   8.483   9.881   7.060  0.1427  0.3641  0.1760
31759SOL    HW297531   8.469   9.964   6.934 -0.0903  1.0364  0.6383
31760SOL     OW97532   2.271   5.828   8.278  0.3031  0.0541 -0.3899
31760SOL    HW197533   2.325   5.772   8.222 -1.3398 -0.8793 -1.0749
31760SOL    HW297534   2.202   5.861   8.221 -2.3850 -2.1769  1.3142
31761SOL     OW97535   7.508   4.218   4.021 -0.2864 -0.0624 -0.0363
31761SOL    HW197536   7.434   4.158   4.022  0.1173 -0.6379 -1.7484
31761SOL    HW297537   7.581   4.168   4.057 -0.1859 -0.2701 -0.5265
31762SOL     OW97538   2.087   3.619   6.432 -0.0290 -0.3035  0.0101
31762SOL    HW197539   2.074   3.674   6.354 -0.0953  0.1985  0.3717
31762SOL    HW297540   2.016   3.555   6.426 -0.1898 -0.1135 -0.2138
31763SOL     OW97541   3.881   1.543   4.488 -0.8529  0.1492 -0.2614
31763SOL    HW197542   3.838   1.485   4.424  0.0244 -0.8906  0.0559
31763SOL    HW297543   3.932   1.604   4.435 -0.8469 -0.1360 -0.5889
31764SOL     OW97544   8.853   4.356   5.138 -0.0851  0.2234  0.6016
31764SOL    HW197545   8.937   4.400   5.123 -0.2130  0.8643  1.6499
31764SOL    HW297546   8.793   4.398   5.076 -0.0802  1.1969  1.2255
31765SOL     OW97547   2.029   2.206   4.895  0.0106 -0.3002 -0.8758
31765SOL    HW197548   2.094   2.146   4.860  1.9318  0.0738  1.7274
31765SOL    HW297549   2.039   2.200   4.990  0.2731  3.9651 -0.4243
31766SOL     OW97550   0.924   2.375   7.312 -0.5872 -0.1534 -0.1646
31766SOL    HW197551   0.983   2.395   7.385 -1.6636  0.3078  0.5999
31766SOL    HW297552   0.976   2.395   7.234  0.9794 -1.7118  0.4040
31767SOL     OW97553   8.417  10.209   9.096  0.3451  0.0309  0.4573
31767SOL    HW197554   8.443  10.296   9.127 -2.5668  0.9991  0.4809
31767SOL    HW297555   8.397  10.160   9.176  0.0383  0.0366  0.3869
31768SOL     OW97556   3.170   8.179   9.135  0.2217  0.1002 -0.0160
31768SOL    HW197557   3.154   8.140   9.049 -0.7292  0.2225  0.1028
31768SOL    HW297558   3.208   8.108   9.186 -0.7477 -0.4505 -0.0441
31769SOL     OW97559   1.534   5.939   3.063 -0.5311 -0.0509  0.3182
31769SOL    HW197560   1.614   5.888   3.073 -0.2034  0.4365  0.2228
31769SOL    HW297561   1.524   5.951   2.968 -1.6085 -1.4892  0.2073
31770SOL     OW97562   2.329  10.643   2.610 -0.0511  0.4909  0.3722
31770SOL    HW197563   2.391  10.573   2.633  0.0872  0.6270  0.4135
31770SOL    HW297564   2.259  10.636   2.675 -0.3466 -0.0056  0.0063
31771SOL     OW97565   9.660   8.314   1.355  0.6093 -0.4273 -0.1892
31771SOL    HW197566   9.620   8.274   1.278 -0.2518  0.1064 -0.0355
31771SOL    HW297567   9.754   8.302   1.342  0.3928 -2.1636 -0.3007
31772SOL     OW97568   7.860   4.472   9.084  0.5727  0.4346  0.0949
31772SOL    HW197569   7.951   4.495   9.068  1.1184 -2.3298 -1.5070
31772SOL    HW297570   7.863   4.381   9.114 -1.5572  0.9219  2.0822
31773SOL     OW97571   2.704   8.943   5.671  0.2244 -0.1394 -0.3666
31773SOL    HW197572   2.683   9.031   5.641  1.0848  0.6331  1.1676
31773SOL    HW297573   2.659   8.885   5.610  0.3196  1.3423 -1.9091
31774SOL     OW97574   8.279   2.627  10.516 -0.7011 -0.2454 -0.0711
31774SOL    HW197575   8.216   2.664  10.455  0.4845 -1.9858 -2.4839
31774SOL    HW297576   8.335   2.702  10.540 -2.8748  1.0746  1.2570
31775SOL     OW97577   4.185   9.594   2.262 -0.1008 -0.0613 -0.4470
31775SOL    HW197578   4.169   9.669   2.319  0.1867  0.2702 -0.7960
31775SOL    HW297579   4.108   9.589   2.205  0.1138  0.2996 -0.7774
31776SOL     OW97580   7.483   7.364   1.607 -0.2296 -0.0438  0.9188
31776SOL    HW197581   7.521   7.373   1.695  2.9402 -2.2388 -0.0479
31776SOL    HW297582   7.555   7.384   1.547 -1.8742 -0.0796 -1.1843
31777SOL     OW97583   5.143   6.850   5.216  0.5759 -0.2347 -0.2679
31777SOL    HW197584   5.106   6.764   5.199 -0.9939  0.5403 -0.9688
31777SOL    HW297585   5.075   6.911   5.189  1.7774  1.2406 -0.0900
31778SOL     OW97586   5.879   7.788   8.219 -0.1655 -0.5270 -0.1140
31778SOL    HW197587   5.790   7.753   8.212 -0.9890  1.2205  0.8932
31778SOL    HW297588   5.910   7.756   8.304  0.1327 -1.0465 -0.4162
31779SOL     OW97589   6.773   6.593   0.188 -0.3661  0.3333 -0.0223
31779SOL    HW197590   6.734   6.583   0.102 -1.1869  0.2667  0.3484
31779SOL    HW297591   6.737   6.522   0.240  0.2208  0.2937  0.3504
31780SOL     OW97592   1.762   3.949   8.266 -0.3808  0.1214 -0.5800
31780SOL    HW197593   1.792   3.898   8.341  0.0666  0.5184 -0.4837
31780SOL    HW297594   1.674   3.915   8.248 -0.7915  0.4986  0.5860
31781SOL     OW97595  10.038   5.324   5.714  0.2997 -0.6481  0.7642
31781SOL    HW197596  10.018   5.285   5.800  2.0036  0.5009  1.7399
31781SOL    HW297597  10.126   5.293   5.694 -0.0611 -0.8407 -0.5734
31782SOL     OW97598   7.320   8.538  10.210  0.5536 -0.1308 -0.6256
31782SOL    HW197599   7.230   8.523  10.239  0.4547 -0.0451 -0.8837
31782SOL    HW297600   7.373   8.482  10.267  0.4887  0.9682  0.5748
31783SOL     OW97601   8.603   0.614   6.140  0.2897  0.0994 -0.1072
31783SOL    HW197602   8.655   0.544   6.100 -0.6286 -1.4393  1.2838
31783SOL    HW297603   8.526   0.621   6.084 -0.5543 -1.4119  0.8035
31784SOL     OW97604   6.651   3.787   3.987 -0.2952  0.2147  0.2864
31784SOL    HW197605   6.742   3.762   4.003 -0.5478 -2.3420 -1.7667
31784SOL    HW297606   6.599   3.726   4.039 -0.8645 -0.4887 -1.0610
31785SOL     OW97607   6.514   2.783   4.273  0.6123 -0.7412 -0.0330
31785SOL    HW197608   6.431   2.768   4.229  0.2189 -0.1461  0.4862
31785SOL    HW297609   6.569   2.708   4.248 -0.1568 -1.2606 -0.1803
31786SOL     OW97610   1.119   7.122   1.331  0.2939 -0.2565  0.4437
31786SOL    HW197611   1.083   7.048   1.283 -0.7247  0.0277  0.7547
31786SOL    HW297612   1.073   7.198   1.296  0.7976  0.1479  0.6518
31787SOL     OW97613   9.968   1.184  10.637  0.5156 -0.0261  0.1202
31787SOL    HW197614   9.875   1.202  10.654 -0.2945 -0.7606 -2.9036
31787SOL    HW297615   9.998   1.139  10.717 -2.7738 -3.1440 -0.1082
31788SOL     OW97616  10.624   6.785   8.517  0.0012 -0.3226 -0.5678
31788SOL    HW197617  10.673   6.808   8.439  0.6710  0.0165 -0.0563
31788SOL    HW297618  10.554   6.850   8.522  1.6287  1.4458  0.6418
31789SOL     OW97619   1.481  10.030   8.653 -0.1680 -0.5538  1.0434
31789SOL    HW197620   1.519  10.028   8.566 -2.2202 -3.1823  0.0717
31789SOL    HW297621   1.444  10.118   8.661  2.5050  0.7019  0.5020
31790SOL     OW97622   2.908   3.201   3.714 -0.2081 -0.9030  0.4843
31790SOL    HW197623   2.937   3.292   3.718 -0.0159 -0.8809 -0.9150
31790SOL    HW297624   2.826   3.203   3.664  0.6016 -1.6462 -0.9410
31791SOL     OW97625   3.289   5.658   0.788 -0.0687 -0.0167  0.2149
31791SOL    HW197626   3.251   5.579   0.749  0.1790  0.9524 -2.2080
31791SOL    HW297627   3.381   5.656   0.760 -0.1471  1.2573 -0.1857
31792SOL     OW97628   4.521   2.065   3.672 -0.1180  0.1372  0.8944
31792SOL    HW197629   4.513   2.150   3.628  1.5935 -0.0103  0.2051
31792SOL    HW297630   4.449   2.013   3.638  0.5582  0.3664 -0.9915
31793SOL     OW97631   8.487   6.593   7.499  0.4517  0.4288 -0.4168
31793SOL    HW197632   8.541   6.650   7.443  0.1693  0.7906 -0.3228
31793SOL    HW297633   8.432   6.653   7.549  0.0706  0.0657 -0.3946
31794SOL     OW97634   1.703   3.454   5.993  0.1609  0.9420  0.1827
31794SOL    HW197635   1.744   3.404   5.923 -0.3525 -0.8282  1.0917
31794SOL    HW297636   1.752   3.536   5.995  0.7991  0.6495 -1.5971
31795SOL     OW97637   9.629   0.396   8.102 -0.2490 -0.3195 -0.5031
31795SOL    HW197638   9.657   0.484   8.076 -0.4133 -0.5302 -1.4450
31795SOL    HW297639   9.705   0.341   8.086  2.0788  0.4059  5.5934
31796SOL     OW97640   4.503   7.758   1.317 -0.4047 -0.2513 -0.2936
31796SOL    HW197641   4.552   7.830   1.279 -1.0445  0.2589 -0.1676
31796SOL    HW297642   4.566   7.686   1.324  0.1076  0.1452 -0.8622
31797SOL     OW97643  10.599   2.302   8.018  0.4544  0.5141  0.5483
31797SOL    HW197644  10.639   2.287   8.104 -0.6727 -1.6738  0.7630
31797SOL    HW297645  10.530   2.366   8.035 -0.6114 -0.8332  1.6117
31798SOL     OW97646   6.202   8.954   0.229 -0.3144  0.2152 -0.3537
31798SOL    HW197647   6.199   8.977   0.322  1.2288  1.2999 -0.5318
31798SOL    HW297648   6.289   8.916   0.217 -0.4904  0.1263 -1.3718
31799SOL     OW97649   1.121   5.862   5.301 -0.0691 -0.0592  0.2123
31799SOL    HW197650   1.137   5.820   5.217 -0.2404  0.4244 -0.0680
31799SOL    HW297651   1.117   5.790   5.364  1.7683 -0.3241  0.0837
31800SOL     OW97652   1.498   0.582   2.042 -0.0819  0.1970 -0.7113
31800SOL    HW197653   1.435   0.644   2.007  0.7897  0.4459 -1.8950
31800SOL    HW297654   1.555   0.562   1.968  0.4810 -0.9665  0.0114
31801SOL     OW97655   0.784   3.140   2.991 -0.1910  0.0989  0.1541
31801SOL    HW197656   0.849   3.104   2.930 -1.6360 -0.9049 -0.8564
31801SOL    HW297657   0.750   3.217   2.946  0.0932  0.4653  0.5627
31802SOL     OW97658  10.029   2.806   4.383 -0.1016 -0.3030 -0.0800
31802SOL    HW197659   9.990   2.880   4.338  0.8969 -0.2209 -0.8275
31802SOL    HW297660   9.985   2.729   4.346 -0.2967 -0.1585 -0.1482
31803SOL     OW97661   8.810   6.614   7.330  0.1677 -0.2772 -0.3112
31803SOL    HW197662   8.859   6.685   7.371 -1.0104  0.4111 -0.0686
31803SOL    HW297663   8.723   6.650   7.314 -0.5036 -1.7090 -0.0549
31804SOL     OW97664   7.357   9.064  10.570  0.1390 -0.2643 -0.2679
31804SOL    HW197665   7.324   8.986  10.525  0.4063 -1.0848  0.8865
31804SOL    HW297666   7.438   9.035  10.611 -0.2149  0.3584  0.9299
31805SOL     OW97667   7.863   4.700   3.830  0.0117  0.7544  0.0169
31805SOL    HW197668   7.827   4.787   3.844 -0.7813  0.4552 -0.0922
31805SOL    HW297669   7.796   4.654   3.779  0.0788 -0.1526  0.7164
31806SOL     OW97670   9.126   7.415   0.418 -0.7799  0.7571  0.0958
31806SOL    HW197671   9.127   7.349   0.348  1.1362  0.4529  0.3621
31806SOL    HW297672   9.114   7.364   0.498 -2.2579  1.0444  0.0910
31807SOL     OW97673   7.905   4.861   6.860 -0.3272 -0.1620 -0.3234
31807SOL    HW197674   7.894   4.946   6.902 -1.7556 -0.7487  0.5954
31807SOL    HW297675   7.986   4.826   6.898 -0.3159  0.3254  0.1111
31808SOL     OW97676   0.622   6.805   6.032  0.0155 -0.0100  0.3424
31808SOL    HW197677   0.629   6.900   6.021  0.6723 -0.0168  0.6397
31808SOL    HW297678   0.599   6.773   5.945  0.7727  0.3438 -0.0016
31809SOL     OW97679   8.474   2.011   5.286 -0.0241  0.1387 -0.4182
31809SOL    HW197680   8.418   2.083   5.313 -0.1550  0.5933 -1.8284
31809SOL    HW297681   8.562   2.048   5.284  0.3152 -0.4586  1.3648
31810SOL     OW97682   2.440   8.746   0.476 -0.2526  0.1620  0.1184
31810SOL    HW197683   2.449   8.719   0.384 -0.4031 -1.7580  0.6253
31810SOL    HW297684   2.514   8.703   0.520 -1.6376 -1.1066  1.3098
31811SOL     OW97685   0.157   3.375   6.834 -0.0124 -0.2550  0.2883
31811SOL    HW197686   0.192   3.297   6.877  0.6212 -1.0117 -1.4787
31811SOL    HW297687   0.064   3.355   6.821  0.2484 -0.9571 -0.5995
31812SOL     OW97688   6.290   9.301   1.284 -0.4966 -0.2833 -0.2823
31812SOL    HW197689   6.327   9.381   1.322 -0.3006 -0.4826 -0.0493
31812SOL    HW297690   6.233   9.332   1.213 -1.9992  0.1899  1.0656
31813SOL     OW97691   9.938   6.038   8.244 -0.2797  0.1521 -0.2565
31813SOL    HW197692   9.885   5.961   8.262 -0.7526 -0.2888 -3.1490
31813SOL    HW297693  10.011   6.005   8.191 -0.1107  1.5802 -0.9562
31814SOL     OW97694   8.881   9.316   2.328  0.1680  0.3903  0.4591
31814SOL    HW197695   8.961   9.308   2.275  1.1641  0.0101  1.9565
31814SOL    HW297696   8.816   9.352   2.267  0.8943 -1.1857 -1.3537
31815SOL     OW97697   2.108   3.002   7.476 -0.2969 -0.2845 -0.0966
31815SOL    HW197698   2.192   2.998   7.431  0.0829 -0.9922  0.6420
31815SOL    HW297699   2.045   2.967   7.414  0.0608 -0.3333 -0.4324
31816SOL     OW97700   2.875   0.466   5.284  0.2540 -0.6715 -0.2984
31816SOL    HW197701   2.894   0.398   5.348  1.3009 -0.4210 -0.3216
31816SOL    HW297702   2.960   0.488   5.246 -0.1045  0.3948 -0.5395
31817SOL     OW97703   5.457   6.188   3.407  0.1667  0.1625  0.0814
31817SOL    HW197704   5.514   6.146   3.342 -0.8985  0.9889 -1.4694
31817SOL    HW297705   5.508   6.189   3.487  2.3724  0.8763 -1.2417
31818SOL     OW97706   5.861   9.999   3.338  0.3921 -0.6222 -0.1621
31818SOL    HW197707   5.835   9.908   3.352  1.4040 -0.8649  0.2408
31818SOL    HW297708   5.836  10.017   3.247 -0.1211 -1.1865 -0.1454
31819SOL     OW97709   7.059   9.881   3.749 -0.4229 -0.2373 -0.1757
31819SOL    HW197710   7.003   9.816   3.793  0.7141 -0.5152  0.9259
31819SOL    HW297711   7.023   9.965   3.777 -1.4630 -0.3785 -1.0301
31820SOL     OW97712   4.279   0.445   3.125  0.3293 -0.4684 -0.0450
31820SOL    HW197713   4.190   0.419   3.100 -1.3349  3.7612  0.6096
31820SOL    HW297714   4.317   0.481   3.045  0.1106  0.7604  0.3745
31821SOL     OW97715   6.077   8.159   8.713 -0.6557  0.3026  0.6040
31821SOL    HW197716   6.073   8.226   8.781  1.4108  0.1019  0.9907
31821SOL    HW297717   6.052   8.204   8.633 -0.0031  1.3647  0.9809
31822SOL     OW97718   5.991   3.896  10.167 -0.0160  0.1996 -0.4028
31822SOL    HW197719   5.990   3.800  10.165 -0.1943  0.2001 -2.3946
31822SOL    HW297720   6.082   3.918  10.189  0.4140 -0.4579 -1.4226
31823SOL     OW97721   4.180   8.261   4.750 -0.8312 -0.2636 -0.4327
31823SOL    HW197722   4.195   8.188   4.691 -1.5847 -0.3774 -0.4906
31823SOL    HW297723   4.110   8.312   4.708 -0.3994  0.4213 -0.3367
31824SOL     OW97724  10.020   9.902   3.230 -0.4300 -0.3322  0.1015
31824SOL    HW197725  10.005   9.858   3.146  0.6139 -0.6051  0.0465
31824SOL    HW297726  10.038   9.993   3.206 -1.2608 -0.1525  0.1220
31825SOL     OW97727   0.178   3.216   4.345  0.5016  0.2485 -0.4772
31825SOL    HW197728   0.227   3.158   4.288 -0.2100  0.4965 -1.3830
31825SOL    HW297729   0.146   3.160   4.416  0.8736 -0.1982 -0.6610
31826SOL     OW97730   7.236   2.018   1.436  0.0064 -0.3344  0.0272
31826SOL    HW197731   7.168   1.977   1.489  0.5299  0.8532  1.6925
31826SOL    HW297732   7.245   2.107   1.471  0.8872  0.2814 -1.5990
31827SOL     OW97733   4.696   0.767   4.141  0.1214  0.5037 -0.4736
31827SOL    HW197734   4.623   0.738   4.196  1.2497 -1.1678  0.2465
31827SOL    HW297735   4.704   0.699   4.074  2.1150 -0.3709  0.5493
31828SOL     OW97736  10.099   7.103   4.881  0.1320 -0.2995  0.1754
31828SOL    HW197737  10.048   7.048   4.821 -0.3006 -0.6906  0.8817
31828SOL    HW297738  10.039   7.173   4.905 -0.0274 -0.6806  0.8985
31829SOL     OW97739   7.312   6.549   1.152  0.0076 -0.0236 -0.0833
31829SOL    HW197740   7.325   6.508   1.067  0.5408  0.8177 -0.4238
31829SOL    HW297741   7.217   6.566   1.156 -0.2959 -1.7023  0.2812
31830SOL     OW97742   9.271   7.180   9.043 -0.3505  0.1498  0.0015
31830SOL    HW197743   9.293   7.262   8.999  1.2878 -1.2097 -1.8695
31830SOL    HW297744   9.319   7.183   9.125 -1.1033  1.4567  0.4248
31831SOL     OW97745   5.911   1.730   3.670  0.2037  0.1277 -0.5029
31831SOL    HW197746   5.982   1.773   3.717 -1.0246  0.4740  1.1418
31831SOL    HW297747   5.955   1.674   3.606  1.9377  0.4008  0.3901
31832SOL     OW97748   0.446   4.142   7.096 -0.0309 -0.1563 -0.3091
31832SOL    HW197749   0.431   4.235   7.078  0.2869  0.1392  0.8823
31832SOL    HW297750   0.359   4.105   7.108 -0.1075  0.2470  0.4151
31833SOL     OW97751  10.578   6.787   5.193  0.1242 -0.0275  0.5156
31833SOL    HW197752  10.521   6.822   5.262 -0.0191  0.4676  0.1507
31833SOL    HW297753  10.664   6.824   5.213  0.1985 -0.2992  0.7197
31834SOL     OW97754   9.929   5.672   0.288  0.1373 -0.3652  0.4041
31834SOL    HW197755   9.926   5.703   0.197  1.6546  2.4955  1.1934
31834SOL    HW297756   9.843   5.694   0.323 -0.9171 -2.6348 -0.5914
31835SOL     OW97757   0.699   0.243   9.255  0.4674  0.2522 -0.6333
31835SOL    HW197758   0.710   0.294   9.175  0.7899  0.0942 -0.6901
31835SOL    HW297759   0.604   0.231   9.263  0.5024 -1.2876 -1.9797
31836SOL     OW97760   6.569   0.275  10.489  0.2086 -0.0021 -0.1628
31836SOL    HW197761   6.636   0.240  10.548  0.7767 -0.1800 -0.8915
31836SOL    HW297762   6.495   0.296  10.546  0.5430 -0.6629  0.5371
31837SOL     OW97763   4.785   5.781   1.113  0.3341 -0.5319 -0.3605
31837SOL    HW197764   4.795   5.876   1.114  0.7013 -0.5702  0.4528
31837SOL    HW297765   4.717   5.763   1.178 -1.7941 -0.6436 -2.4919
31838SOL     OW97766   0.476   7.894   6.927  0.4392 -0.2623  0.1816
31838SOL    HW197767   0.458   7.988   6.934  1.3496 -0.1306  0.8320
31838SOL    HW297768   0.432   7.856   7.002 -2.6087 -0.8153 -1.6854
31839SOL     OW97769   0.742   1.492   1.598 -0.1273 -0.3729  0.2257
31839SOL    HW197770   0.751   1.479   1.503 -2.0311 -1.2446  0.1217
31839SOL    HW297771   0.725   1.405   1.632 -0.3547  0.0724  1.2665
31840SOL     OW97772   2.752   7.407   6.123  0.0685  0.1840  0.1507
31840SOL    HW197773   2.707   7.423   6.206  0.5891 -0.5617  0.5907
31840SOL    HW297774   2.738   7.313   6.106 -2.8980  0.8779 -2.3222
31841SOL     OW97775   8.790   9.283   5.226 -0.1499 -0.1209 -0.4105
31841SOL    HW197776   8.775   9.249   5.315  1.2210 -0.6648 -0.3586
31841SOL    HW297777   8.782   9.378   5.235 -1.6224 -0.2469 -0.0581
31842SOL     OW97778   1.591   2.508   8.845  0.5732 -0.0149 -0.5179
31842SOL    HW197779   1.535   2.573   8.802 -0.7747  0.3435  1.6018
31842SOL    HW297780   1.669   2.557   8.871  0.3591  0.3285 -0.5074
31843SOL     OW97781   3.853   1.548   6.427 -0.4288 -0.1855  0.1546
31843SOL    HW197782   3.758   1.549   6.420 -0.3717 -0.7171 -0.8028
31843SOL    HW297783   3.872   1.471   6.481 -0.6064  1.0129  2.0481
31844SOL     OW97784  10.320   6.203   1.962  0.2635 -0.1364 -0.2191
31844SOL    HW197785  10.291   6.225   2.051  2.4017 -1.3056  0.8525
31844SOL    HW297786  10.414   6.189   1.971  0.3297 -1.4997 -2.4211
31845SOL     OW97787   6.906   6.525   2.537  0.3266  0.1290 -0.1969
31845SOL    HW197788   6.977   6.462   2.543  0.7073  0.5726 -0.0097
31845SOL    HW297789   6.827   6.471   2.523  0.0852 -0.7031  3.4953
31846SOL     OW97790  10.313   8.817   7.856 -0.2242  0.3679 -0.1201
31846SOL    HW197791  10.306   8.894   7.801  0.4593 -0.7921 -1.9044
31846SOL    HW297792  10.407   8.796   7.856 -0.5143 -0.9990 -0.4543
31847SOL     OW97793   9.425   1.795   8.319  0.0247 -0.7750 -0.0400
31847SOL    HW197794   9.434   1.884   8.352  0.2081 -0.7438 -0.1727
31847SOL    HW297795   9.513   1.757   8.327  1.0094  0.3159 -3.6084
31848SOL     OW97796   3.878   7.233   5.422 -0.1903 -0.0554  0.4966
31848SOL    HW197797   3.786   7.214   5.402  0.1050 -0.4763 -0.4858
31848SOL    HW297798   3.902   7.167   5.488 -0.5835  0.0443  0.7435
31849SOL     OW97799   1.324   2.599   4.966  0.1238  0.0096  0.4181
31849SOL    HW197800   1.274   2.517   4.961 -0.4905  0.4245 -1.0760
31849SOL    HW297801   1.415   2.573   4.951 -0.3250 -0.2226 -2.6051
31850SOL     OW97802   8.832   6.095   5.517 -0.3410 -0.0221  0.0250
31850SOL    HW197803   8.904   6.043   5.484  0.2663  0.8425 -0.0420
31850SOL    HW297804   8.851   6.105   5.611 -1.2656 -1.1966  0.3661
31851SOL     OW97805   4.451   0.553   9.533  0.4625  0.0022  0.0265
31851SOL    HW197806   4.451   0.466   9.493 -0.6237  0.3391 -0.7355
31851SOL    HW297807   4.371   0.595   9.501  0.9081  1.2470  0.4657
31852SOL     OW97808  10.418   1.707   3.626  0.4864 -0.1831  0.7051
31852SOL    HW197809  10.458   1.718   3.540 -1.3929 -2.4847 -0.5791
31852SOL    HW297810  10.350   1.775   3.629  0.4376 -0.2073  0.2912
31853SOL     OW97811   1.125   4.709   2.056  0.6139  0.4500 -0.5578
31853SOL    HW197812   1.180   4.689   2.132  0.6884 -1.2390 -1.0158
31853SOL    HW297813   1.090   4.797   2.074  0.0074 -0.2055  1.7838
31854SOL     OW97814   1.690   4.964   6.030  0.2567  0.6367 -0.4128
31854SOL    HW197815   1.598   4.954   6.005 -0.1168 -1.1262  1.4360
31854SOL    HW297816   1.734   4.889   5.989  0.0063 -1.0720  2.1981
31855SOL     OW97817   2.039   1.773   9.469  0.0434  0.1499  0.3099
31855SOL    HW197818   2.065   1.681   9.456 -0.6564  0.0513 -0.4909
31855SOL    HW297819   1.943   1.771   9.474  0.1037  0.5891  2.5469
31856SOL     OW97820   5.136   1.020   5.652  0.1275  0.9260  0.3308
31856SOL    HW197821   5.145   1.089   5.718 -0.0305  1.1500  0.1209
31856SOL    HW297822   5.172   1.059   5.572 -1.8872  1.5376 -0.3261
31857SOL     OW97823   2.682   3.682   7.687 -0.2164 -0.1540  0.2820
31857SOL    HW197824   2.705   3.589   7.680 -0.6184 -0.2002 -0.4746
31857SOL    HW297825   2.752   3.720   7.740  0.1491 -0.8135  0.2844
31858SOL     OW97826   2.413   2.330   0.559  0.0723 -0.4844 -0.4082
31858SOL    HW197827   2.442   2.274   0.487  1.0945 -0.3267 -0.1464
31858SOL    HW297828   2.478   2.401   0.560  1.3946 -1.6322  2.0534
31859SOL     OW97829   0.937   9.528   3.684 -0.0078 -0.7020  0.3281
31859SOL    HW197830   0.854   9.531   3.731  0.8840  1.5839  1.9523
31859SOL    HW297831   0.918   9.480   3.604 -2.5213 -1.4913  1.2997
31860SOL     OW97832   1.147  10.440   1.788 -0.1500 -0.3174 -0.5693
31860SOL    HW197833   1.114  10.455   1.877  0.8174  0.6620 -0.3489
31860SOL    HW297834   1.111  10.513   1.737  0.2718 -0.2070 -0.7103
31861SOL     OW97835   4.451   8.079   4.993 -0.0457  0.2408 -0.0996
31861SOL    HW197836   4.517   8.115   5.051  0.1410 -1.1705  0.6173
31861SOL    HW297837   4.368   8.095   5.038  0.0814 -0.6555  0.4913
31862SOL     OW97838   7.396   9.009   0.646 -0.7216 -0.2633 -0.3995
31862SOL    HW197839   7.347   9.041   0.571  0.8292  0.0630 -1.3155
31862SOL    HW297840   7.330   8.966   0.701 -1.7724 -1.3244 -2.3709
31863SOL     OW97841   9.943   3.212   1.887  0.5855  0.0079  0.4887
31863SOL    HW197842   9.913   3.298   1.915  0.9485 -0.0211  0.9723
31863SOL    HW297843  10.036   3.210   1.909  1.0034  0.1429 -1.1055
31864SOL     OW97844   4.504   8.768   2.963  0.1737 -0.3105 -0.2965
31864SOL    HW197845   4.483   8.799   2.874  1.1545 -0.8853 -0.7514
31864SOL    HW297846   4.464   8.682   2.969 -0.9158  0.2202  0.2706
31865SOL     OW97847   0.047   7.235   4.230  0.5621  0.0655  0.4665
31865SOL    HW197848   0.130   7.199   4.263  1.2369  0.3355 -0.8649
31865SOL    HW297849   0.064   7.329   4.222  0.0531  0.1521  0.3668
31866SOL     OW97850   4.805   6.257   7.940  0.3998  0.3399  0.0556
31866SOL    HW197851   4.804   6.207   8.021 -1.5200 -1.2188 -0.8610
31866SOL    HW297852   4.767   6.341   7.963  2.4105  0.9860  1.3126
31867SOL     OW97853   3.509   6.105   1.328  0.5833  0.2357  1.2387
31867SOL    HW197854   3.468   6.058   1.255 -0.0328  2.2594  0.1870
31867SOL    HW297855   3.603   6.095   1.314  0.4675 -0.8148  1.1572
31868SOL     OW97856   4.252   3.784   7.301 -0.3792  0.4352 -0.6175
31868SOL    HW197857   4.195   3.850   7.262 -1.3933  0.0595  0.1495
31868SOL    HW297858   4.202   3.751   7.376  0.5877 -0.3805 -0.3020
31869SOL     OW97859   8.562   8.469   6.008 -0.4179 -0.2271 -0.2809
31869SOL    HW197860   8.653   8.495   6.019 -0.7575  1.3431 -0.8298
31869SOL    HW297861   8.536   8.433   6.092  0.6770 -0.6005 -0.0960
31870SOL     OW97862   0.254   8.854   3.869 -0.6813  0.1873  0.4004
31870SOL    HW197863   0.322   8.850   3.937 -1.8409 -1.1740  1.5377
31870SOL    HW297864   0.231   8.762   3.852 -2.8863  0.6242  0.7403
31871SOL     OW97865   9.787   1.188   7.393  0.1246 -0.0415  0.4138
31871SOL    HW197866   9.761   1.275   7.361 -0.6591 -0.3414  0.1998
31871SOL    HW297867   9.871   1.171   7.351  0.7367  0.9898  1.1709
31872SOL     OW97868   9.593   0.350   6.771  0.0870 -0.1843 -0.4810
31872SOL    HW197869   9.568   0.309   6.854  1.5870  2.9445  1.7104
31872SOL    HW297870   9.673   0.304   6.746 -0.6181 -1.4622 -0.5027
31873SOL     OW97871   3.262   1.916   6.630  0.0089  0.5563 -0.0073
31873SOL    HW197872   3.231   1.963   6.707 -0.2693  2.4097 -1.1815
31873SOL    HW297873   3.206   1.948   6.559  1.3709  0.2107 -1.2836
31874SOL     OW97874   0.553   4.236   3.270  0.3914  0.7344 -1.0257
31874SOL    HW197875   0.597   4.150   3.267  1.0423  1.0614 -1.0436
31874SOL    HW297876   0.486   4.231   3.203 -0.4204 -0.2168 -0.1833
31875SOL     OW97877   0.735   9.359   2.223  0.0894 -0.4035 -0.0561
31875SOL    HW197878   0.818   9.334   2.265  1.0500  0.5833 -1.2877
31875SOL    HW297879   0.697   9.424   2.283 -0.0594 -1.2104  0.7535
31876SOL     OW97880   6.314   1.073   1.658  0.1100  0.2795 -0.5465
31876SOL    HW197881   6.304   0.978   1.650 -0.0539  0.2025  0.4316
31876SOL    HW297882   6.408   1.088   1.647  0.0302  0.1100 -1.5703
31877SOL     OW97883   6.713   0.370   7.558 -0.0611  0.7136 -1.1727
31877SOL    HW197884   6.770   0.330   7.492  0.8345  1.7036 -1.0323
31877SOL    HW297885   6.624   0.346   7.531  0.3525  0.1954 -2.1166
31878SOL     OW97886   3.658   3.384   3.181 -0.2329  0.0406  0.3385
31878SOL    HW197887   3.657   3.382   3.277 -0.2722  1.8115  0.4117
31878SOL    HW297888   3.663   3.477   3.160 -2.3711 -0.1785 -1.4102
31879SOL     OW97889   7.007   7.469   4.341 -0.3371 -0.3207 -0.5576
31879SOL    HW197890   6.946   7.527   4.296 -0.0867  0.2684 -0.1559
31879SOL    HW297891   6.955   7.391   4.361 -0.7858 -0.0822 -0.7731
31880SOL     OW97892   7.202   3.799   2.717 -0.6208 -0.6422  0.3650
31880SOL    HW197893   7.263   3.727   2.699 -0.1826  0.0409 -1.0214
31880SOL    HW297894   7.248   3.856   2.778 -0.2797 -0.6636  0.1297
31881SOL     OW97895   7.801   6.989   5.751 -0.1113 -0.1878 -0.2043
31881SOL    HW197896   7.856   7.064   5.773 -3.9611  2.6092  1.0182
31881SOL    HW297897   7.773   7.006   5.661 -1.7642  0.4433  0.4034
31882SOL     OW97898   2.839   9.698   7.276 -0.1362 -0.4439 -0.0592
31882SOL    HW197899   2.897   9.672   7.347 -0.5889  2.8187  1.6791
31882SOL    HW297900   2.885   9.768   7.231 -1.7415  0.6752 -0.0620
31883SOL     OW97901   6.057   6.970   7.496 -0.5606  0.1789 -0.6372
31883SOL    HW197902   6.040   7.062   7.512 -0.4009 -0.0727  1.1487
31883SOL    HW297903   5.972   6.927   7.506 -0.4439  0.0011 -0.4016
31884SOL     OW97904   8.690   3.783   8.179 -0.3007 -0.0260 -0.0689
31884SOL    HW197905   8.735   3.801   8.097  0.3367  2.1752  0.6824
31884SOL    HW297906   8.759   3.780   8.245 -0.8510 -1.1968  0.4772
31885SOL     OW97907   9.496   2.821   0.385  0.2015 -0.0819 -0.2077
31885SOL    HW197908   9.552   2.819   0.463  1.7353  0.8359 -1.2154
31885SOL    HW297909   9.556   2.800   0.313 -0.5575  1.7030 -1.4284
31886SOL     OW97910   5.997   5.068   8.390  0.3074  0.1721 -0.4161
31886SOL    HW197911   6.036   5.152   8.417 -0.3660 -0.0239  1.2881
31886SOL    HW297912   5.976   5.024   8.472 -2.7571 -0.0882 -1.2333
31887SOL     OW97913   0.677   5.435   1.273  0.1238  0.4649 -0.0496
31887SOL    HW197914   0.652   5.381   1.197  0.6938 -2.1672  1.5185
31887SOL    HW297915   0.597   5.440   1.325  0.5565 -0.5832  0.7495
31888SOL     OW97916   3.957   4.432   0.621 -0.0451 -0.4033 -0.0967
31888SOL    HW197917   3.915   4.417   0.706  2.2582 -1.0302  1.0245
31888SOL    HW297918   3.980   4.525   0.621 -0.0638 -0.3989 -0.0332
31889SOL     OW97919   5.965   9.119   3.513  0.1138  0.0673  0.3523
31889SOL    HW197920   6.036   9.183   3.509  0.3345 -0.2381 -1.4891
31889SOL    HW297921   5.992   9.050   3.453 -0.0252 -1.8991  2.4130
31890SOL     OW97922   6.926   8.709   7.715 -0.0056  0.1854 -0.3349
31890SOL    HW197923   6.903   8.695   7.624  0.2850  0.0752 -0.3939
31890SOL    HW297924   6.943   8.622   7.750  2.4916  0.3668 -0.8897
31891SOL     OW97925   4.873   3.229   2.831  0.1144  0.3806  0.4409
31891SOL    HW197926   4.858   3.309   2.881  1.4114  0.7499  0.2680
31891SOL    HW297927   4.928   3.257   2.757  1.0744 -0.7639  0.7016
31892SOL     OW97928   5.635   4.378   6.877  0.4933 -0.0961 -0.6984
31892SOL    HW197929   5.708   4.426   6.915 -1.0656  2.3370 -0.5861
31892SOL    HW297930   5.675   4.320   6.812  2.5027  1.2553 -0.7470
31893SOL     OW97931   9.545   3.625  10.145 -0.2130  0.4798  0.9476
31893SOL    HW197932   9.485   3.556  10.172 -1.3512  0.4725 -1.3128
31893SOL    HW297933   9.628   3.603  10.188 -0.5352 -2.2975  0.3711
31894SOL     OW97934   3.515   8.868   4.898 -0.2383  0.3825 -0.0692
31894SOL    HW197935   3.584   8.816   4.857  0.0089  0.1337  0.6313
31894SOL    HW297936   3.440   8.808   4.903  1.0066 -1.2226  3.7881
31895SOL     OW97937   0.649   5.445   0.434 -0.5900 -0.7026  0.6707
31895SOL    HW197938   0.642   5.466   0.527 -0.9976 -1.8065  0.9041
31895SOL    HW297939   0.742   5.447   0.415 -0.6279  2.5333  0.3521
31896SOL     OW97940   5.542   7.743   3.775 -0.2093 -0.8175 -0.9277
31896SOL    HW197941   5.532   7.770   3.683 -0.3609 -0.9428 -0.9490
31896SOL    HW297942   5.629   7.773   3.799 -1.7991  3.5501  0.3390
31897SOL     OW97943   7.191   7.214   4.402  0.3753  0.1395  0.0432
31897SOL    HW197944   7.112   7.265   4.385 -0.1149 -0.7184 -0.3390
31897SOL    HW297945   7.186   7.141   4.340  0.8151 -0.6321  0.8892
31898SOL     OW97946   8.593   8.514   1.492 -0.1967  0.4993 -0.2083
31898SOL    HW197947   8.606   8.555   1.406 -0.5430  2.6551  0.6894
31898SOL    HW297948   8.498   8.507   1.501 -0.1334 -1.7523 -0.8483
31899SOL     OW97949   3.295   1.016   8.458  0.2936 -0.0382  0.2116
31899SOL    HW197950   3.202   1.005   8.437 -0.0172  0.9688  0.9853
31899SOL    HW297951   3.326   1.082   8.395  0.4825 -0.3467 -0.0225
31900SOL     OW97952   2.215   7.182   5.738  0.2637 -0.2514  0.0860
31900SOL    HW197953   2.302   7.214   5.714 -0.1915  0.1172 -1.1641
31900SOL    HW297954   2.165   7.187   5.656 -0.0723 -3.3963  0.0065
31901SOL     OW97955   8.931   9.013   8.969 -0.9176 -0.5222  0.0353
31901SOL    HW197956   8.899   9.054   8.889 -1.2081  0.1595  0.4869
31901SOL    HW297957   9.023   9.038   8.974 -1.7128  2.5480  1.7426
31902SOL     OW97958   3.128   6.925   7.673  0.2292  0.3248  0.5004
31902SOL    HW197959   3.184   6.971   7.736  1.5658 -0.7982  0.1796
31902SOL    HW297960   3.176   6.929   7.591 -0.0177 -0.8942  0.2753
31903SOL     OW97961   2.183   0.924   1.162  0.1360  0.6035 -0.0756
31903SOL    HW197962   2.277   0.922   1.175  0.3661  1.5824 -1.3811
31903SOL    HW297963   2.163   1.015   1.140 -1.3915  0.8230  1.9622
31904SOL     OW97964   6.970   3.010  10.547 -0.1857  0.1211 -0.4904
31904SOL    HW197965   6.906   3.075  10.519 -0.5664 -0.2015 -0.3779
31904SOL    HW297966   6.927   2.926  10.532 -0.3736 -0.0693  0.9436
31905SOL     OW97967  10.218   0.658   9.215 -0.1280 -0.6986 -0.0455
31905SOL    HW197968  10.148   0.717   9.245  0.3686 -0.2793  0.3141
31905SOL    HW297969  10.186   0.624   9.131  0.0835  1.0272 -0.8858
31906SOL     OW97970   5.719   1.387   1.683 -0.2253 -0.0446  0.7426
31906SOL    HW197971   5.775   1.430   1.618  0.3953 -1.1027  0.5530
31906SOL    HW297972   5.723   1.444   1.760  1.6034 -0.3659  0.9422
31907SOL     OW97973   6.751   0.494   9.683  0.3163  0.3490 -0.2493
31907SOL    HW197974   6.690   0.540   9.741  0.6829 -0.2094  0.6165
31907SOL    HW297975   6.711   0.498   9.597 -1.3546 -0.7085  0.4348
31908SOL     OW97976   3.279   5.094   7.668 -0.0290  0.2611  0.2077
31908SOL    HW197977   3.361   5.111   7.622  0.3342 -1.0002  0.3554
31908SOL    HW297978   3.227   5.173   7.654  0.5897  0.4428 -1.2294
31909SOL     OW97979  10.371   4.473   6.069 -0.1778 -0.3746  0.0490
31909SOL    HW197980  10.280   4.481   6.039  0.0922  0.0235 -0.7086
31909SOL    HW297981  10.402   4.391   6.028  0.5492  0.7613 -1.8164
31910SOL     OW97982   6.637   8.097   2.023 -0.9632  0.0177 -0.2404
31910SOL    HW197983   6.645   8.147   2.105  0.1044 -1.3058  0.4899
31910SOL    HW297984   6.681   8.152   1.958  0.1770  0.0600  0.5450
31911SOL     OW97985   7.870   3.467   8.442  0.4761 -0.0300  0.0080
31911SOL    HW197986   7.853   3.424   8.526  0.0632  0.4024  0.1460
31911SOL    HW297987   7.882   3.559   8.464  0.2142  0.1072 -0.4274
31912SOL     OW97988   5.061   9.526   3.575 -0.2642 -0.0323  0.2867
31912SOL    HW197989   5.057   9.455   3.511 -0.0736  0.7539 -0.6149
31912SOL    HW297990   5.155   9.547   3.580 -0.5119  1.6532 -1.1662
31913SOL     OW97991   2.750   4.542   6.429  0.0033 -0.2483 -0.1713
31913SOL    HW197992   2.713   4.630   6.436 -2.6683 -1.2972  0.0834
31913SOL    HW297993   2.691   4.487   6.480  2.7236 -1.9382  1.3772
31914SOL     OW97994   9.837  10.006   4.565  0.1211  0.0522 -0.3880
31914SOL    HW197995   9.818   9.913   4.577 -4.6707  0.6651 -1.2175
31914SOL    HW297996   9.851  10.014   4.470  0.1398  0.2239 -0.3691
31915SOL     OW97997   8.075   1.474   4.481  0.5119  0.1859 -0.2446
31915SOL    HW197998   7.996   1.421   4.494  1.0009 -0.8826 -1.3734
31915SOL    HW297999   8.125   1.425   4.416  1.8003  1.1859 -0.0354
31916SOL     OW98000   2.042   3.572   0.446 -0.5502  0.0970 -0.1803
31916SOL    HW198001   1.968   3.623   0.480  0.0657  0.4499  0.6803
31916SOL    HW298002   2.096   3.636   0.400  0.9436  0.6034  2.0679
31917SOL     OW98003   2.419   0.023   6.694  0.1767 -0.3615 -0.2893
31917SOL    HW198004   2.413   0.119   6.696  1.5052 -0.2858  1.1853
31917SOL    HW298005   2.507   0.005   6.662  0.3334 -1.0736  0.5090
31918SOL     OW98006   7.132   6.445   9.606  0.5048  0.0011  0.1187
31918SOL    HW198007   7.178   6.361   9.612 -0.5632 -0.5768  0.5304
31918SOL    HW298008   7.081   6.450   9.687  0.9208  1.2859  0.3247
31919SOL     OW98009   9.291   3.554   9.133  0.3823 -0.5060 -0.0397
31919SOL    HW198010   9.256   3.566   9.222  3.6946  0.2769  1.3191
31919SOL    HW298011   9.298   3.642   9.098  2.5431 -0.4379  0.4615
31920SOL     OW98012   3.702  10.214   9.159 -0.4460  0.7595  0.4196
31920SOL    HW198013   3.670  10.303   9.141 -0.4323  0.6131 -0.3325
31920SOL    HW298014   3.625  10.158   9.148  0.1710  0.3011 -2.2115
31921SOL     OW98015  10.407   8.215   5.579  0.2075 -0.1912 -0.1169
31921SOL    HW198016  10.376   8.127   5.556 -1.4787  0.4100 -0.3077
31921SOL    HW298017  10.464   8.240   5.507 -0.3045 -0.6494 -0.6961
31922SOL     OW98018   4.100   8.984   7.702  0.4551 -0.1160  0.5385
31922SOL    HW198019   4.140   9.054   7.651 -1.1229  1.6348  1.6058
31922SOL    HW298020   4.041   8.941   7.641 -2.2252  2.6355  0.9676
31923SOL     OW98021   0.941   0.905   5.201  0.2920 -0.3092  0.6134
31923SOL    HW198022   0.913   0.870   5.117  0.0787  0.1377  0.4964
31923SOL    HW298023   0.860   0.918   5.250  0.4312 -0.8394  1.0036
31924SOL     OW98024   7.613   1.191   6.593  0.2675  0.5538 -0.6023
31924SOL    HW198025   7.598   1.175   6.686  1.0273 -2.0633 -0.8505
31924SOL    HW298026   7.664   1.273   6.591  0.9155  0.2647  1.3418
31925SOL     OW98027   0.096   9.360   9.573 -0.3840 -0.1969  0.0929
31925SOL    HW198028   0.082   9.269   9.547 -0.7883 -0.0060 -0.3635
31925SOL    HW298029   0.188   9.363   9.599  0.0831 -0.3835 -1.4052
31926SOL     OW98030   6.553   9.059   9.258 -0.2422  0.0895 -0.0235
31926SOL    HW198031   6.523   9.056   9.348 -0.4881 -0.4510 -0.1164
31926SOL    HW298032   6.644   9.030   9.262 -0.5673 -0.9747 -0.0698
31927SOL     OW98033   0.512   3.275   4.999 -0.2217 -0.2022  0.2315
31927SOL    HW198034   0.575   3.344   5.019 -1.3957  0.8070  0.5803
31927SOL    HW298035   0.524   3.211   5.069  1.5450 -0.8660 -0.6229
31928SOL     OW98036   8.478   6.933   0.510 -0.0457 -0.2347  0.4909
31928SOL    HW198037   8.503   6.988   0.584 -2.4184  0.3583  0.9175
31928SOL    HW298038   8.427   6.862   0.549 -1.2260  0.0192 -0.5358
31929SOL     OW98039   3.663   2.857   2.189 -0.5370  0.3664  0.4108
31929SOL    HW198040   3.738   2.848   2.248  1.0348  0.1046 -1.5339
31929SOL    HW298041   3.622   2.771   2.189  0.4400 -0.1170 -0.1114
31930SOL     OW98042  10.138   5.320   9.956 -0.4916 -0.2955 -0.5845
31930SOL    HW198043  10.094   5.244   9.994  0.4432  0.5324  2.4511
31930SOL    HW298044  10.227   5.291   9.940 -0.5937 -0.3293 -1.0901
31931SOL     OW98045   8.191   2.831  10.135  0.7167 -0.4938 -0.0744
31931SOL    HW198046   8.227   2.920  10.132  0.7806 -0.5095  0.1513
31931SOL    HW298047   8.111   2.835  10.083  0.8841 -0.3820 -0.3236
31932SOL     OW98048   4.656   0.991   8.817  0.0550 -0.4802 -0.4351
31932SOL    HW198049   4.738   0.941   8.822  0.3704 -0.1806 -2.0145
31932SOL    HW298050   4.646   1.010   8.724 -1.3760  0.2347 -0.1542
31933SOL     OW98051   6.539   9.578   0.797  0.1365  0.4624 -0.5140
31933SOL    HW198052   6.506   9.546   0.713 -1.9342 -1.0816  0.7830
31933SOL    HW298053   6.463   9.618   0.839  0.6574 -0.3225  1.2905
31934SOL     OW98054   1.454   7.206   1.150 -0.5176 -0.0058 -0.0085
31934SOL    HW198055   1.488   7.186   1.237 -0.6894  0.1562  0.0970
31934SOL    HW298056   1.502   7.284   1.123 -0.5814  0.0406  0.0107
31935SOL     OW98057   0.536   6.053   0.470  0.0228  0.4130 -0.3758
31935SOL    HW198058   0.542   5.970   0.423  2.5535 -0.3694  1.1157
31935SOL    HW298059   0.450   6.049   0.513  0.5584 -2.0822  0.6634
31936SOL     OW98060   8.694   9.631   8.364 -0.4395 -0.7659  0.5733
31936SOL    HW198061   8.622   9.590   8.316  0.6272 -1.5231 -0.4488
31936SOL    HW298062   8.717   9.567   8.431 -0.2038 -0.8882  0.3783
31937SOL     OW98063   6.363   4.591   0.947 -0.2459 -0.5375 -0.8003
31937SOL    HW198064   6.413   4.654   0.895 -1.0896  0.1326 -0.8224
31937SOL    HW298065   6.318   4.537   0.882 -1.3396  0.3320 -0.7961
31938SOL     OW98066   1.014   4.462   3.434  0.3386  0.4971  0.1644
31938SOL    HW198067   1.005   4.367   3.438 -3.0116  0.7096  0.6289
31938SOL    HW298068   0.928   4.493   3.404  1.6968  3.3292 -1.1154
31939SOL     OW98069   5.201   8.469  10.507 -0.3187  0.3480 -0.0307
31939SOL    HW198070   5.293   8.478  10.532 -0.4253  0.8243  0.1973
31939SOL    HW298071   5.173   8.558  10.486 -0.8507  0.2733  0.3316
31940SOL     OW98072   8.772   8.889   9.673  0.5030 -0.0571  0.0354
31940SOL    HW198073   8.691   8.845   9.651  0.0008  1.1794 -0.6751
31940SOL    HW298074   8.782   8.875   9.767 -1.2499  0.8869  0.4085
31941SOL     OW98075   9.171   1.961   3.636  0.3446 -0.2576  0.9208
31941SOL    HW198076   9.137   2.033   3.690  0.8606  0.8970 -0.2345
31941SOL    HW298077   9.113   1.887   3.655 -0.8878  0.7792  1.3111
31942SOL     OW98078   3.875   6.671   6.593  0.1231 -0.0469  0.7008
31942SOL    HW198079   3.816   6.729   6.544  1.4573  0.3396 -0.5055
31942SOL    HW298080   3.886   6.595   6.535  2.2024  0.6754  0.0820
31943SOL     OW98081   2.837   8.474   7.014  0.3131  0.4871  0.0761
31943SOL    HW198082   2.898   8.495   6.943 -0.9572 -0.8186 -1.4988
31943SOL    HW298083   2.765   8.429   6.970 -0.8654  0.2613  2.1347
31944SOL     OW98084   9.771   9.407   4.780  0.7262  0.2301 -0.1351
31944SOL    HW198085   9.693   9.459   4.797  0.4217 -0.1566 -0.3095
31944SOL    HW298086   9.796   9.431   4.690  0.4593 -0.0759 -0.2947
31945SOL     OW98087   9.594   5.479   4.344  0.3032 -0.0098 -0.0143
31945SOL    HW198088   9.635   5.483   4.430  2.7518 -1.7447 -0.9675
31945SOL    HW298089   9.631   5.553   4.296 -0.1449  0.2688  0.0657
31946SOL     OW98090   3.139   8.638   8.040  0.5790 -0.3569  0.0086
31946SOL    HW198091   3.140   8.634   8.135  1.6903  0.7593  0.0758
31946SOL    HW298092   3.147   8.732   8.020  1.4472 -0.6537 -1.1597
31947SOL     OW98093   3.225   1.223   3.035  0.1231 -0.3425 -0.3174
31947SOL    HW198094   3.169   1.169   2.980 -0.3201 -0.8376  0.6007
31947SOL    HW298095   3.184   1.221   3.122  1.8731 -1.2819  0.5651
31948SOL     OW98096   6.528   3.415   4.858  0.1006 -0.4232 -0.5954
31948SOL    HW198097   6.584   3.484   4.822 -1.4864  1.6566  0.7020
31948SOL    HW298098   6.568   3.392   4.942 -1.4249  1.9089  0.9047
31949SOL     OW98099   9.036   8.627   0.870  0.0853 -0.4148  0.2625
31949SOL    HW198100   9.130   8.637   0.861  0.0853  1.2827  1.5744
31949SOL    HW298101   9.024   8.580   0.952 -0.2005  0.4573  0.7379
31950SOL     OW98102   8.208   5.860   3.924  0.3007  0.0763 -0.2709
31950SOL    HW198103   8.272   5.848   3.994 -1.8985 -1.0409  1.6977
31950SOL    HW298104   8.238   5.801   3.854  0.7262 -1.5050  1.1675
31951SOL     OW98105   3.539   4.427   7.091 -0.3283  0.1437 -0.1239
31951SOL    HW198106   3.500   4.398   7.173 -0.9262  1.3392  0.0433
31951SOL    HW298107   3.632   4.404   7.099 -0.1665  1.1308  1.3526
31952SOL     OW98108   6.399   9.863   3.255  0.0477  0.4572 -0.3602
31952SOL    HW198109   6.434   9.774   3.247  0.9887  0.8777 -1.1669
31952SOL    HW298110   6.471   9.913   3.293 -0.3807  0.9270 -0.1658
31953SOL     OW98111   9.533   4.199   9.551 -0.2793  0.1924  0.1977
31953SOL    HW198112   9.522   4.196   9.457 -2.3968  2.2161  0.2958
31953SOL    HW298113   9.469   4.263   9.581  2.1061  1.6568  2.7253
31954SOL     OW98114   6.017   2.945   7.655 -0.0948  0.6791  0.2281
31954SOL    HW198115   6.068   2.918   7.733  0.1625  0.2531 -0.0814
31954SOL    HW298116   6.083   2.952   7.586 -0.3483  0.8991  0.0119
31955SOL     OW98117   8.755   4.750   2.676 -0.2359 -0.3502  0.0843
31955SOL    HW198118   8.850   4.747   2.686 -0.2001  1.8083  1.1499
31955SOL    HW298119   8.721   4.718   2.760 -0.4662 -1.0887 -0.2828
31956SOL     OW98120   8.564   6.813   4.912  0.0160 -0.4302  0.0850
31956SOL    HW198121   8.523   6.796   4.997 -0.3919  0.2226  0.0270
31956SOL    HW298122   8.641   6.756   4.911  0.1554 -0.2829  0.9918
31957SOL     OW98123   1.445   4.542   2.117  0.6386  0.3748  0.2112
31957SOL    HW198124   1.526   4.508   2.077  0.5474  0.5181 -0.1000
31957SOL    HW298125   1.389   4.465   2.124  0.1928  0.5633 -1.0858
31958SOL     OW98126   0.265   1.659   9.824 -0.4583  0.6660 -0.4986
31958SOL    HW198127   0.237   1.660   9.916  0.3152  1.7897 -0.2569
31958SOL    HW298128   0.351   1.616   9.826  0.3867  2.2703 -0.4061
31959SOL     OW98129  10.222   0.744   8.612  0.2071 -0.2927 -0.6959
31959SOL    HW198130  10.263   0.796   8.543 -0.1795  1.4126  0.3131
31959SOL    HW298131  10.279   0.757   8.689 -0.9745  0.2800  0.1094
31960SOL     OW98132   1.672   2.301   8.689 -0.0955  0.2567  0.3997
31960SOL    HW198133   1.654   2.375   8.747  0.9589  0.2073  0.8256
31960SOL    HW298134   1.742   2.253   8.734 -0.8363 -1.0640  0.1832
31961SOL     OW98135   8.050   4.498   9.426 -0.3720 -0.5977 -0.0681
31961SOL    HW198136   8.014   4.542   9.350  0.8892 -1.3737 -1.1609
31961SOL    HW298137   7.975   4.458   9.470 -1.1798  0.3573 -0.5586
31962SOL     OW98138   2.995   7.797   6.036  0.0249 -0.1627  0.1194
31962SOL    HW198139   2.924   7.758   5.984  1.4978 -1.2556 -1.1641
31962SOL    HW298140   3.027   7.870   5.982  1.1650 -0.9225 -0.2655
31963SOL     OW98141   2.784   7.186   2.666 -0.1938  0.2087 -0.4327
31963SOL    HW198142   2.786   7.163   2.759 -1.1112 -1.5045 -0.7880
31963SOL    HW298143   2.716   7.253   2.659  0.4363  0.9312  0.2290
31964SOL     OW98144   7.064   9.460   8.705 -0.0312 -0.4033  0.5435
31964SOL    HW198145   6.996   9.405   8.745 -0.9498  0.9681  0.9392
31964SOL    HW298146   7.041   9.549   8.732  0.9527  0.2653 -0.7357
31965SOL     OW98147   4.222   0.754   7.147 -0.0958  0.0705  0.1863
31965SOL    HW198148   4.235   0.736   7.054  0.1376 -0.2303  0.2762
31965SOL    HW298149   4.263   0.680   7.192  1.0397  0.8983  0.5652
31966SOL     OW98150   2.951   5.530   6.016 -0.7774 -0.5386  0.0683
31966SOL    HW198151   2.977   5.590   5.946 -2.3352 -1.6391 -1.5066
31966SOL    HW298152   3.006   5.557   6.090  0.0283  1.4897 -1.1549
31967SOL     OW98153   1.056   7.947   6.866  0.2070 -0.4792 -0.0761
31967SOL    HW198154   1.056   7.978   6.775  0.6005 -2.4849 -0.8190
31967SOL    HW298155   0.967   7.916   6.880 -0.4272  1.6563  0.9487
31968SOL     OW98156   8.661   6.102   8.954 -0.0177 -0.5103 -0.6028
31968SOL    HW198157   8.710   6.182   8.974  0.0650 -0.7206  0.0662
31968SOL    HW298158   8.717   6.031   8.985  0.3708 -0.9012 -2.1100
31969SOL     OW98159   8.560   6.057   0.663 -0.6873  0.1828  0.5310
31969SOL    HW198160   8.622   6.063   0.591 -1.4918 -2.1580 -0.4223
31969SOL    HW298161   8.579   6.134   0.717  0.6310  1.4376 -1.5957
31970SOL     OW98162   2.988   2.991   5.544 -0.3496  0.0508  0.2495
31970SOL    HW198163   3.043   2.972   5.620  1.7032  2.6557 -0.4209
31970SOL    HW298164   2.956   3.080   5.560  0.8298  1.0097 -2.2067
31971SOL     OW98165   4.952   3.037   5.124  0.1504 -0.6001  0.7306
31971SOL    HW198166   4.950   2.960   5.067 -2.8256 -0.1883  0.1094
31971SOL    HW298167   4.978   3.109   5.066  0.0027 -0.6549  0.5951
31972SOL     OW98168   9.984   3.137  10.044 -0.0601 -0.5989  0.5820
31972SOL    HW198169   9.995   3.071  10.113 -0.0152 -0.3220  0.8450
31972SOL    HW298170  10.016   3.218  10.084  2.7776 -0.9482 -0.7293
31973SOL     OW98171   8.188   4.443   0.314  0.4461 -0.0824  0.2792
31973SOL    HW198172   8.257   4.446   0.381  0.0172 -1.0352  0.7934
31973SOL    HW298173   8.203   4.361   0.268 -0.9749 -0.8699  1.1339
31974SOL     OW98174   2.424   1.286   9.434  0.0730 -0.3090  0.4655
31974SOL    HW198175   2.443   1.331   9.516 -0.6613  2.5152 -0.8014
31974SOL    HW298176   2.334   1.255   9.445  0.5801 -1.5499  1.3458
31975SOL     OW98177   0.227   3.976   8.159  0.3999 -0.1328  0.0611
31975SOL    HW198178   0.272   4.017   8.085 -0.3819  1.9300  0.6738
31975SOL    HW298179   0.294   3.920   8.199  1.6951  0.9466 -0.5092
31976SOL     OW98180  10.454   2.113   4.222  0.1188 -0.1726 -0.4706
31976SOL    HW198181  10.457   2.064   4.139 -0.6267 -1.0771  0.0137
31976SOL    HW298182  10.542   2.149   4.232  1.7464 -3.9499  0.6413
31977SOL     OW98183  10.115   0.801   4.849 -0.7432 -0.0157  0.1413
31977SOL    HW198184  10.170   0.819   4.925  1.3808 -1.2288 -1.0028
31977SOL    HW298185  10.066   0.882   4.834  0.7236  1.1233  1.2498
31978SOL     OW98186  10.627   2.534   9.921 -0.1363  0.0986 -0.6721
31978SOL    HW198187  10.586   2.481   9.989  1.9233 -2.0548 -0.9763
31978SOL    HW298188  10.608   2.625   9.946 -1.3099 -0.6859  1.5312
31979SOL     OW98189   2.565   6.845   9.350 -0.1957  0.3569  0.1174
31979SOL    HW198190   2.563   6.903   9.426  0.7639 -1.2405  1.4209
31979SOL    HW298191   2.477   6.807   9.346 -0.7296  1.6045 -0.5533
31980SOL     OW98192   1.050   9.879   9.313  0.0336  0.5741 -0.5657
31980SOL    HW198193   0.987   9.811   9.336 -0.7453  1.8461  1.3723
31980SOL    HW298194   1.107   9.839   9.248 -0.9810 -1.5844 -0.2028
31981SOL     OW98195   4.979   1.920   1.524  0.1881  0.0798  0.1705
31981SOL    HW198196   4.906   1.933   1.584  1.6576 -0.3168  2.1529
31981SOL    HW298197   5.008   2.008   1.501 -1.0856  0.2378 -0.8847
31982SOL     OW98198   2.655   4.399   2.283  0.2771  0.2822 -0.1073
31982SOL    HW198199   2.662   4.453   2.361 -1.5071  0.0349  0.2689
31982SOL    HW298200   2.561   4.393   2.266  0.5631 -0.6894 -1.5587
31983SOL     OW98201  10.098   4.124   3.003  0.1406  0.0595 -0.1850
31983SOL    HW198202  10.062   4.037   2.985 -1.1468  0.8456 -1.7307
31983SOL    HW298203  10.137   4.151   2.920  0.0636  1.1534  0.1173
31984SOL     OW98204   3.267   9.039  10.369 -0.0466 -0.0958 -0.1039
31984SOL    HW198205   3.263   8.986  10.289  1.1667 -0.9893  0.3971
31984SOL    HW298206   3.355   9.075  10.369  0.1229 -0.4804  1.0643
31985SOL     OW98207   9.719   3.128   1.765 -0.5882 -0.5178 -0.6107
31985SOL    HW198208   9.678   3.081   1.837  2.0118 -2.5264 -0.3077
31985SOL    HW298209   9.810   3.140   1.792 -0.2521  1.4654 -2.2873
31986SOL     OW98210   9.066   7.865   4.468  0.6813 -0.5691  0.3430
31986SOL    HW198211   9.107   7.940   4.425 -0.9313 -0.5512 -1.2905
31986SOL    HW298212   9.109   7.789   4.429  1.6340 -0.5310  1.2830
31987SOL     OW98213   5.824   0.301  10.420  0.3725  0.4010 -0.5920
31987SOL    HW198214   5.756   0.270  10.480  1.8359 -0.4131  0.7448
31987SOL    HW298215   5.806   0.394  10.410 -1.1646  0.1281 -0.6105
31988SOL     OW98216   2.960   5.521   9.367  0.5310  0.0847  0.7851
31988SOL    HW198217   2.955   5.474   9.450  0.9512 -1.0304  0.1991
31988SOL    HW298218   2.986   5.610   9.392 -0.7153  0.1550  1.9486
31989SOL     OW98219   4.040   4.000   3.134  0.0235  0.1735 -0.0657
31989SOL    HW198220   4.073   4.089   3.124 -1.3983  1.0411  2.1633
31989SOL    HW298221   4.090   3.963   3.207 -0.4347 -0.2941  0.0189
31990SOL     OW98222   4.747   1.738   8.767 -0.2527  0.3369  0.4462
31990SOL    HW198223   4.693   1.659   8.771 -1.2884  0.9098 -0.9957
31990SOL    HW298224   4.690   1.808   8.800  0.3028  0.6412  0.7740
31991SOL     OW98225   7.252   7.160   5.744 -0.0758 -0.1343  0.2370
31991SOL    HW198226   7.166   7.187   5.713  0.2592  0.1081 -0.5284
31991SOL    HW298227   7.279   7.229   5.805  0.0775  0.4196 -0.4460
31992SOL     OW98228  10.456  10.635  10.048  0.3962  0.3543  0.3802
31992SOL    HW198229  10.506  10.656  10.127  0.7044  0.4313  0.1702
31992SOL    HW298230  10.508  10.673   9.977  0.2617  0.0530  0.1194
31993SOL     OW98231   9.318   4.884   3.755 -0.0235 -0.0254  0.6382
31993SOL    HW198232   9.302   4.858   3.664 -1.2941  0.1108  0.8035
31993SOL    HW298233   9.272   4.819   3.808 -1.2939  1.2102  1.1061
31994SOL     OW98234   4.149   6.135   6.719 -0.0374 -0.2980  0.1032
31994SOL    HW198235   4.125   6.228   6.713  1.3591  0.2598  2.1813
31994SOL    HW298236   4.065   6.090   6.729 -0.6746  0.8152 -0.0332
31995SOL     OW98237   2.393   8.073  10.259  0.4837  0.2621  0.2618
31995SOL    HW198238   2.318   8.048  10.205 -0.2607 -1.3452  1.9152
31995SOL    HW298239   2.366   8.053  10.348  2.3676  1.0062  1.0530
31996SOL     OW98240   6.082   2.431  10.490  0.7229  0.1872 -0.7185
31996SOL    HW198241   6.017   2.380  10.537 -2.4402  2.9577 -1.6811
31996SOL    HW298242   6.149   2.451  10.555 -1.1591  0.0461  1.3837
31997SOL     OW98243   2.761   5.534   7.613 -0.4357 -0.5041  0.0867
31997SOL    HW198244   2.726   5.618   7.582 -1.6483 -1.2671 -0.7002
31997SOL    HW298245   2.848   5.528   7.574 -0.2257  0.4895  0.3644
31998SOL     OW98246   1.987   0.458   0.351  0.4470 -0.0607  0.3251
31998SOL    HW198247   2.018   0.373   0.321 -0.0540  0.0980 -0.6597
31998SOL    HW298248   1.894   0.445   0.368  0.5480  0.0739  1.0099
31999SOL     OW98249   2.454   5.855   8.801 -0.3822  0.7661 -0.2395
31999SOL    HW198250   2.490   5.867   8.889 -0.4788  0.3329 -0.1374
31999SOL    HW298251   2.366   5.890   8.806 -1.0580 -0.9133  0.3603
32000SOL     OW98252   5.624  10.253   1.641 -0.1607  0.3461  0.0428
32000SOL    HW198253   5.534  10.237   1.670 -0.2319 -0.1575 -0.4256
32000SOL    HW298254   5.654  10.167   1.610  0.9715  0.1597  1.4918
32001SOL     OW98255   9.216   8.001   3.123  0.4350  0.3534  0.0321
32001SOL    HW198256   9.148   7.941   3.151 -1.4705  1.3721 -2.0831
32001SOL    HW298257   9.212   7.999   3.027  2.3492  1.6170 -0.1325
32002SOL     OW98258   8.034   7.031   7.167  0.8456  0.3461  0.2523
32002SOL    HW198259   8.068   6.948   7.135  0.7180  0.5265 -0.3736
32002SOL    HW298260   8.109   7.090   7.164  0.3979  0.8808 -1.6247
32003SOL     OW98261   2.686   8.390   3.550 -0.3198  0.8915  0.3420
32003SOL    HW198262   2.777   8.407   3.574 -0.2448  1.5796 -0.3969
32003SOL    HW298263   2.692   8.327   3.477 -0.5857 -2.4170  2.9442
32004SOL     OW98264   7.106   1.879   2.387  0.2829  0.5794 -0.0304
32004SOL    HW198265   7.155   1.817   2.441 -1.6153 -0.1958  0.8953
32004SOL    HW298266   7.107   1.960   2.437  0.2589  0.4361  0.2062
32005SOL     OW98267   8.482   7.458   3.884 -0.0182  0.5153  0.2676
32005SOL    HW198268   8.389   7.458   3.907 -0.0054  1.7943  0.4301
32005SOL    HW298269   8.484   7.477   3.790  0.0244 -2.0827 -0.3341
32006SOL     OW98270   0.450   9.213   1.365  0.3995 -0.4712 -0.9491
32006SOL    HW198271   0.465   9.127   1.405 -0.0688 -0.8507 -1.5852
32006SOL    HW298272   0.393   9.195   1.291 -3.2964  0.8677  1.2900
32007SOL     OW98273   1.840   8.972   8.792 -0.6331  0.1613 -0.5704
32007SOL    HW198274   1.766   8.926   8.832 -0.2386  0.1800  0.2121
32007SOL    HW298275   1.901   8.984   8.864  0.1893  0.0352 -1.2367
32008SOL     OW98276  10.152   9.082   3.965 -0.1096  0.0975 -0.3174
32008SOL    HW198277  10.196   9.116   4.042 -0.5063 -0.1728  0.0335
32008SOL    HW298278  10.149   8.987   3.978 -1.5538  0.1743  0.0868
32009SOL     OW98279   3.959   0.559   2.182  0.4681 -0.3433 -0.0199
32009SOL    HW198280   4.049   0.543   2.209  0.2743  0.0374  0.8850
32009SOL    HW298281   3.964   0.639   2.130  0.3189  1.1971  2.2128
32010SOL     OW98282   7.268   0.897  10.282 -0.5388  0.2544 -0.1147
32010SOL    HW198283   7.186   0.934  10.315 -0.3995  0.3610  0.1033
32010SOL    HW298284   7.283   0.820  10.337  0.9364  1.7423  1.6330
32011SOL     OW98285   8.852   4.919   7.699 -0.2674 -0.6116 -0.1655
32011SOL    HW198286   8.829   4.859   7.628  1.4634 -1.6998  0.1447
32011SOL    HW298287   8.938   4.953   7.674  0.1440 -0.6324  1.1693
32012SOL     OW98288   2.626   0.050   9.338 -0.1135 -0.3041 -0.5273
32012SOL    HW198289   2.562  -0.001   9.387 -1.7146  1.8280 -0.2854
32012SOL    HW298290   2.682   0.089   9.405  2.5671 -3.2863 -0.7508
32013SOL     OW98291   8.433   4.390   0.945  0.4558 -0.4416 -0.3093
32013SOL    HW198292   8.418   4.321   1.009 -0.6841 -0.6864 -0.8221
32013SOL    HW298293   8.522   4.422   0.964  0.7644 -1.6305  0.3081
32014SOL     OW98294   2.283   4.003  10.109 -0.0445  0.1325 -0.2712
32014SOL    HW198295   2.194   3.990  10.142 -0.4904 -0.7985 -1.7759
32014SOL    HW298296   2.339   3.980  10.183 -1.0329 -0.5934  0.2712
32015SOL     OW98297   8.882   7.571   1.726  0.1196  0.1805 -0.0511
32015SOL    HW198298   8.869   7.663   1.747 -0.5884 -0.1013  0.8013
32015SOL    HW298299   8.852   7.563   1.635  1.5787  1.0642 -0.6468
32016SOL     OW98300   6.306   6.494   4.841 -0.0694  0.0206  0.0725
32016SOL    HW198301   6.238   6.458   4.898 -0.6534  1.1420  0.1143
32016SOL    HW298302   6.369   6.533   4.901 -0.8317  1.4619 -0.0103
32017SOL     OW98303   1.216   3.614   0.785  0.1162  0.2102  0.1349
32017SOL    HW198304   1.159   3.566   0.725 -1.7310  0.6762  1.4529
32017SOL    HW298305   1.237   3.695   0.739 -0.4401  0.1246 -0.2749
32018SOL     OW98306   7.737   0.602   7.055 -0.3272 -0.4576 -0.3170
32018SOL    HW198307   7.662   0.625   7.000 -2.0010 -1.6531  1.3230
32018SOL    HW298308   7.780   0.686   7.074 -2.5137  0.5685  0.3906
32019SOL     OW98309   2.720   1.735   6.662 -0.0643 -0.2746  0.2147
32019SOL    HW198310   2.765   1.763   6.743  0.4070 -1.6445  0.4427
32019SOL    HW298311   2.769   1.779   6.592  0.3083 -0.0784  0.5896
32020SOL     OW98312   7.096   3.971   3.025 -0.1446 -0.4330  0.0561
32020SOL    HW198313   7.075   3.925   2.944  0.9952  0.6023 -0.8828
32020SOL    HW298314   7.189   3.992   3.017 -0.1882  0.3521  1.2946
32021SOL     OW98315   9.571   8.775  10.287  0.6397  0.2095 -0.2097
32021SOL    HW198316   9.632   8.701  10.286 -0.7123 -0.9482 -0.4499
32021SOL    HW298317   9.558   8.796  10.194 -1.0030 -1.0603 -0.3346
32022SOL     OW98318  10.458   4.829   0.456 -0.2493 -0.1150  0.1225
32022SOL    HW198319  10.388   4.763   0.451 -0.6960  0.3009  0.7233
32022SOL    HW298320  10.427   4.900   0.400 -0.4753  0.2140  0.6574
32023SOL     OW98321   9.551   9.042   3.096  0.5630 -0.0211  0.0496
32023SOL    HW198322   9.604   9.047   3.016 -1.4443  3.9179 -1.2806
32023SOL    HW298323   9.467   9.006   3.067  0.3969 -0.2425  0.7903
32024SOL     OW98324   5.854   4.647   8.446 -0.6979 -0.4660  1.0349
32024SOL    HW198325   5.805   4.716   8.401  1.5396  0.5985  0.0871
32024SOL    HW298326   5.838   4.569   8.393 -0.5449  0.0981  0.1328
32025SOL     OW98327   9.105   1.696   1.118 -0.0315  0.0420  0.8590
32025SOL    HW198328   9.057   1.614   1.119 -0.3967  0.2532  1.4706
32025SOL    HW298329   9.038   1.763   1.131 -0.0297  0.6161 -1.6164
32026SOL     OW98330   2.407   5.553   9.308 -0.3650 -0.3427  0.3858
32026SOL    HW198331   2.407   5.646   9.330  0.6361  0.0967 -1.2542
32026SOL    HW298332   2.461   5.512   9.375 -0.9746  0.2237  1.2327
32027SOL     OW98333   0.984   1.493   6.284 -0.3931  0.1192 -0.0376
32027SOL    HW198334   0.971   1.588   6.277 -2.4849 -0.0391  0.8239
32027SOL    HW298335   0.958   1.472   6.374 -0.6994 -1.3688 -0.4478
32028SOL     OW98336   6.026   0.525   5.874 -0.0014 -0.5325 -0.6437
32028SOL    HW198337   5.978   0.587   5.819 -0.5656 -0.7490 -0.4062
32028SOL    HW298338   6.105   0.573   5.901 -1.4506  0.9251  1.3332
32029SOL     OW98339   0.606   0.620   1.540  0.0904  0.4086 -0.3855
32029SOL    HW198340   0.611   0.709   1.507 -2.9758  0.5818 -0.6449
32029SOL    HW298341   0.627   0.628   1.633  0.0002  1.3563 -0.4365
32030SOL     OW98342  10.488   4.250   1.708 -0.0103  0.0548  0.4084
32030SOL    HW198343  10.534   4.290   1.634 -0.0040 -0.4644  0.1265
32030SOL    HW298344  10.432   4.320   1.743  1.4463  0.8999  1.1578
32031SOL     OW98345   4.873   8.067   7.550  0.0713 -0.3053  0.2890
32031SOL    HW198346   4.926   8.147   7.551  0.7468 -0.7452  0.6667
32031SOL    HW298347   4.937   7.997   7.563 -0.6644 -0.8038  1.2902
32032SOL     OW98348   2.153   2.759   5.885 -0.7277  0.4170  0.4926
32032SOL    HW198349   2.119   2.777   5.797  2.9517  0.3527 -1.1200
32032SOL    HW298350   2.237   2.804   5.888  0.5843 -1.9270  2.9461
32033SOL     OW98351   0.954   7.144   6.188  0.1462  0.7310  0.2121
32033SOL    HW198352   0.953   7.146   6.092  1.0218  0.1168  0.1788
32033SOL    HW298353   1.047   7.133   6.211 -0.1184  0.2772  1.1122
32034SOL     OW98354   8.532  10.071   2.833 -0.1140  0.3354  0.0120
32034SOL    HW198355   8.549  10.128   2.758 -0.3124 -1.7165 -1.6802
32034SOL    HW298356   8.572   9.988   2.810 -0.9401 -0.6291  1.8297
32035SOL     OW98357   7.372  10.489   9.054 -0.3114 -0.3436 -0.1399
32035SOL    HW198358   7.454  10.496   9.102 -0.5368  1.7875 -0.0009
32035SOL    HW298359   7.304  10.482   9.121 -0.9365  5.3853  0.3206
32036SOL     OW98360   4.423   7.646   3.649 -0.1328 -0.4755 -0.0943
32036SOL    HW198361   4.428   7.731   3.692  0.1616 -0.6524  0.2248
32036SOL    HW298362   4.465   7.659   3.564  3.1644 -1.1519  1.3002
32037SOL     OW98363   9.934   1.990   8.098 -0.3216  0.2700 -0.1281
32037SOL    HW198364   9.942   1.912   8.152  0.9154 -0.7530 -1.6942
32037SOL    HW298365   9.875   2.047   8.147 -0.9228 -1.4560  1.2718
32038SOL     OW98366   3.007   4.888   5.997  0.0966  0.4718 -0.2370
32038SOL    HW198367   2.929   4.849   6.035 -0.2682  1.6725  0.3184
32038SOL    HW298368   3.068   4.896   6.071  0.4007  0.3564 -0.4753
32039SOL     OW98369   2.910   0.621   4.966 -0.0075  0.4507 -0.7118
32039SOL    HW198370   2.854   0.552   4.930 -0.5501 -0.5806  1.8711
32039SOL    HW298371   2.853   0.669   5.026  1.0531  1.4508 -0.4691
32040SOL     OW98372   8.460   3.894   1.260 -0.1698 -0.6607  0.3308
32040SOL    HW198373   8.454   3.819   1.319  0.5813 -0.6519  0.4351
32040SOL    HW298374   8.544   3.935   1.282 -0.8756  0.6166  0.7597
32041SOL     OW98375   6.672   8.745   6.951  0.4709  0.0103  0.1901
32041SOL    HW198376   6.634   8.731   6.865  1.8483  0.0725 -0.4549
32041SOL    HW298377   6.646   8.668   7.002 -1.4371  0.5892  0.1524
32042SOL     OW98378   3.244   7.723   1.637  0.0272  0.3028  0.1559
32042SOL    HW198379   3.249   7.768   1.721  0.5996 -1.4971  1.1289
32042SOL    HW298380   3.323   7.669   1.633 -1.2788 -1.6898 -0.2867
32043SOL     OW98381   8.202   1.078   5.617 -0.0857 -0.5684  0.0936
32043SOL    HW198382   8.203   1.068   5.713  0.7979  0.1459  0.1679
32043SOL    HW298383   8.293   1.098   5.594 -0.2296 -1.0337 -0.9370
32044SOL     OW98384   1.063   4.152   2.169 -0.3407 -0.0667  0.5180
32044SOL    HW198385   0.994   4.212   2.143 -0.2088 -1.1140 -2.6541
32044SOL    HW298386   1.045   4.072   2.121  2.1781 -0.9370  0.8422
32045SOL     OW98387   7.359   1.222   9.393 -0.2856  0.1172 -0.7987
32045SOL    HW198388   7.267   1.196   9.384 -1.0710  2.4548 -0.3742
32045SOL    HW298389   7.399   1.154   9.446 -1.4563 -1.5842 -2.0163
32046SOL     OW98390   8.341   0.133   9.910 -0.1211  0.7693 -0.3056
32046SOL    HW198391   8.340   0.218   9.865  1.7216  0.3620 -1.2073
32046SOL    HW298392   8.424   0.132   9.957 -1.2318  0.4466  1.7690
32047SOL     OW98393   5.972   4.200   3.048  0.3601  0.0344 -0.4060
32047SOL    HW198394   6.013   4.263   2.989  1.2746  0.4102  0.5872
32047SOL    HW298395   6.038   4.184   3.115 -0.7360 -0.1725  0.6657
32048SOL     OW98396   0.593   3.985   8.882 -0.1573 -0.2755 -0.6270
32048SOL    HW198397   0.659   3.982   8.813  0.1247  2.0556 -0.5405
32048SOL    HW298398   0.617   4.062   8.934 -1.5274 -0.8115  0.8779
32049SOL     OW98399   8.387   1.312   0.311  0.0571  0.4041 -0.2240
32049SOL    HW198400   8.457   1.319   0.376  0.6714  1.5281 -0.9639
32049SOL    HW298401   8.398   1.224   0.273 -0.7304 -0.5263  1.6154
32050SOL     OW98402   5.072   1.129   2.237 -0.3811 -0.0644  0.0601
32050SOL    HW198403   5.101   1.186   2.166 -0.8904 -0.1540 -0.2260
32050SOL    HW298404   4.985   1.162   2.260 -0.4797 -0.4303  0.2166
32051SOL     OW98405   5.910   3.926   5.142  0.3718  0.6561  0.1163
32051SOL    HW198406   5.857   3.916   5.221 -0.1168  2.1930  0.0047
32051SOL    HW298407   5.964   4.002   5.158 -0.0904  1.3033 -1.2177
32052SOL     OW98408   2.288   0.617   2.813 -0.3564  0.2502 -0.0674
32052SOL    HW198409   2.360   0.554   2.823 -0.5203 -0.0367 -0.6635
32052SOL    HW298410   2.211   0.571   2.845 -0.4644  0.1718 -0.4380
32053SOL     OW98411   2.764   1.202   1.819 -0.2160 -0.1797 -0.1927
32053SOL    HW198412   2.711   1.250   1.883  0.2310  0.8299 -0.5681
32053SOL    HW298413   2.853   1.234   1.832 -0.2513  0.6943 -1.8902
32054SOL     OW98414   2.307   6.434   6.377  0.1413 -0.1225  0.2288
32054SOL    HW198415   2.282   6.421   6.468  0.2795  0.0644  0.2949
32054SOL    HW298416   2.380   6.374   6.364 -1.0238 -1.4879 -0.2782
32055SOL     OW98417   0.585   3.645   2.379  0.2245 -0.0721  0.5201
32055SOL    HW198418   0.610   3.558   2.410 -1.5619 -0.4409  1.0525
32055SOL    HW298419   0.515   3.628   2.316  0.3909  0.9428  0.0489
32056SOL     OW98420   4.168  10.356   6.168  0.7249 -0.4241  0.0302
32056SOL    HW198421   4.209  10.428   6.120 -0.6617 -1.1516 -2.3963
32056SOL    HW298422   4.096  10.397   6.216 -1.1933 -0.2548 -2.7200
32057SOL     OW98423   8.135   9.444   7.239 -0.3094  0.4282 -0.4689
32057SOL    HW198424   8.071   9.425   7.308  0.4208 -1.0904 -0.1781
32057SOL    HW298425   8.088   9.502   7.179 -1.5601  0.3230  0.3563
32058SOL     OW98426   7.919   2.948   5.719  0.2642 -0.8887 -0.2421
32058SOL    HW198427   7.903   2.983   5.807 -0.4093  0.2441 -0.7826
32058SOL    HW298428   8.011   2.969   5.702  0.6247 -1.8220  0.4800
32059SOL     OW98429   8.242   2.839   2.281  0.1801 -0.1070  0.1371
32059SOL    HW198430   8.175   2.775   2.258 -1.5385  1.9674 -0.9675
32059SOL    HW298431   8.316   2.819   2.223  0.4490 -2.1878  1.1173
32060SOL     OW98432   0.111   4.277   4.827  0.0278  0.6178 -0.5438
32060SOL    HW198433   0.172   4.212   4.791 -1.3542  0.4055 -2.6696
32060SOL    HW298434   0.162   4.323   4.894  1.9532 -0.7058 -1.0087
32061SOL     OW98435   3.091   6.115   9.897 -0.7307  0.4393  0.1219
32061SOL    HW198436   3.007   6.118   9.850 -1.1795  0.2037  0.8901
32061SOL    HW298437   3.153   6.154   9.836 -1.3420  0.3528 -0.5795
32062SOL     OW98438   6.377   5.882  10.544 -0.1294 -0.0863 -0.0901
32062SOL    HW198439   6.401   5.830  10.621 -0.3362  1.0039  0.7257
32062SOL    HW298440   6.283   5.896  10.554 -0.2514 -0.3547 -0.8111
32063SOL     OW98441   3.441   5.397   7.852 -0.5552  0.0187  0.0405
32063SOL    HW198442   3.454   5.442   7.935  0.1193 -1.2295  0.6351
32063SOL    HW298443   3.438   5.304   7.875  2.8165 -0.6421 -1.6366
32064SOL     OW98444   9.664   9.120   3.524  0.9610  0.3629  0.2197
32064SOL    HW198445   9.673   9.111   3.429 -0.4381 -1.6378  0.2204
32064SOL    HW298446   9.754   9.132   3.555  1.6901 -1.0444 -1.1898
32065SOL     OW98447   5.923   1.754   6.589 -0.4591 -0.5271 -0.3809
32065SOL    HW198448   5.994   1.691   6.576 -1.2730 -1.3676 -0.8395
32065SOL    HW298449   5.875   1.754   6.506  1.0579  2.7221 -1.4382
32066SOL     OW98450   7.216   3.153   1.868 -0.2323 -0.1080 -0.1384
32066SOL    HW198451   7.285   3.089   1.853 -0.3527 -0.5929  1.1894
32066SOL    HW298452   7.255   3.237   1.846  0.2325 -0.5450 -1.0159
32067SOL     OW98453  10.432   3.840   8.035 -0.1259  0.0787  0.3515
32067SOL    HW198454  10.471   3.753   8.026 -0.5676 -0.0856 -0.0090
32067SOL    HW298455  10.484   3.883   8.104  1.5383  0.3314 -0.9800
32068SOL     OW98456   0.100  10.164   7.436  0.2579 -0.4427 -0.0231
32068SOL    HW198457   0.023  10.168   7.492  0.0659 -3.4200  0.1014
32068SOL    HW298458   0.081  10.223   7.363 -1.1224  0.5981  1.1362
32069SOL     OW98459   9.849   5.956   9.270  0.0982 -0.5008 -0.1040
32069SOL    HW198460   9.775   6.016   9.273  1.2235  0.9169  0.5488
32069SOL    HW298461   9.926   6.012   9.279  1.2991 -1.8729 -1.2835
32070SOL     OW98462   8.700   9.912   1.110 -0.0610 -0.0468  0.2010
32070SOL    HW198463   8.710  10.006   1.098 -0.0450 -0.0687  0.0400
32070SOL    HW298464   8.736   9.874   1.030  1.0970 -0.2480  0.8011
32071SOL     OW98465   7.842   3.174   0.312  0.0860  1.0869  0.1638
32071SOL    HW198466   7.802   3.162   0.226 -0.6080  2.1310  0.3355
32071SOL    HW298467   7.850   3.085   0.347 -1.6511  0.8055 -0.0646
32072SOL     OW98468   4.338   9.104   1.920 -0.1261 -0.0486  0.0720
32072SOL    HW198469   4.251   9.120   1.956 -0.2458  1.2530 -0.7167
32072SOL    HW298470   4.394   9.093   1.997 -0.9302 -0.5999  0.5864
32073SOL     OW98471   4.374   3.718   6.711 -0.1643 -0.0638 -0.0554
32073SOL    HW198472   4.410   3.642   6.666  1.7308  0.1454  1.0140
32073SOL    HW298473   4.428   3.791   6.682 -1.0515  0.6499  0.0266
32074SOL     OW98474   4.270   9.394   2.547  0.0057  0.3660 -0.0887
32074SOL    HW198475   4.235   9.395   2.636 -0.3539 -0.9178 -0.1818
32074SOL    HW298476   4.195   9.369   2.492  0.4881 -0.0214 -0.5909
32075SOL     OW98477   9.522   7.832   1.986  0.2917 -0.4535  0.3848
32075SOL    HW198478   9.479   7.815   2.071  1.3488 -0.2806  0.9694
32075SOL    HW298479   9.554   7.747   1.958 -0.2743 -0.5525  0.0351
32076SOL     OW98480   8.845   9.600   6.290  0.7843  0.3353 -0.4077
32076SOL    HW198481   8.856   9.534   6.358  2.4030 -0.1397 -1.0778
32076SOL    HW298482   8.768   9.572   6.241 -0.3348  0.6208  1.1115
32077SOL     OW98483   3.145   6.223   4.945 -0.1851  0.1860  0.2286
32077SOL    HW198484   3.142   6.315   4.919  0.1803  0.2290  0.3393
32077SOL    HW298485   3.170   6.224   5.037 -0.2246 -0.0222  0.2422
32078SOL     OW98486   8.617   3.470   5.557  0.2247 -0.1110  0.4079
32078SOL    HW198487   8.526   3.491   5.582  0.6117 -0.0401  1.8778
32078SOL    HW298488   8.637   3.532   5.487 -1.0204 -0.4710 -0.2987
32079SOL     OW98489   9.816   2.661   6.724 -0.2205  0.1081 -0.1582
32079SOL    HW198490   9.804   2.576   6.766 -0.7580 -0.3257 -1.1414
32079SOL    HW298491   9.734   2.708   6.742 -0.0847  0.2741  0.0403
32080SOL     OW98492   7.325   1.942   5.008 -0.5111 -0.8374 -0.2142
32080SOL    HW198493   7.243   1.980   5.041 -0.1995 -0.4278  0.1048
32080SOL    HW298494   7.297   1.875   4.946 -1.1060  1.5981 -2.7747
32081SOL     OW98495   5.655   8.285   5.725 -0.2623  0.0657 -0.7903
32081SOL    HW198496   5.707   8.319   5.797 -1.0299 -0.1497 -0.1290
32081SOL    HW298497   5.670   8.190   5.727 -1.2955 -0.0969 -0.0867
32082SOL     OW98498   4.320   6.823   2.579  0.2672 -0.5004  0.1176
32082SOL    HW198499   4.414   6.816   2.597  0.4291  2.8301  1.3060
32082SOL    HW298500   4.300   6.748   2.523  4.0373 -0.2896 -1.7745
32083SOL     OW98501   1.813  10.273   9.649  0.2769 -0.5077  0.3622
32083SOL    HW198502   1.884  10.245   9.707 -0.5652 -2.2872  0.6051
32083SOL    HW298503   1.762  10.194   9.634 -1.6343  0.7010  0.1461
32084SOL     OW98504   8.737   4.245   2.385 -0.2145  0.2354 -0.0359
32084SOL    HW198505   8.762   4.209   2.470  0.6388  0.4018 -0.2006
32084SOL    HW298506   8.768   4.180   2.322 -2.3364 -0.7154 -0.1780
32085SOL     OW98507   1.359   9.161  10.168 -0.1022 -0.2344 -0.3686
32085SOL    HW198508   1.347   9.094  10.100  1.3333 -1.2340  0.3090
32085SOL    HW298509   1.453   9.165  10.181 -0.3261  0.1458  1.3414
32086SOL     OW98510   0.328   7.648   9.306 -0.3586  0.3631  0.1771
32086SOL    HW198511   0.333   7.722   9.246 -0.4773 -0.8096 -1.3291
32086SOL    HW298512   0.257   7.594   9.272  1.1884 -1.5832 -0.1533
32087SOL     OW98513   4.114   4.614   3.673 -0.4691  0.1626 -0.1501
32087SOL    HW198514   4.019   4.605   3.684 -0.1881 -1.5542  1.1764
32087SOL    HW298515   4.151   4.538   3.717  1.7234  2.4420  2.2390
32088SOL     OW98516   2.587  10.351   0.601  0.2637  0.0289 -0.0206
32088SOL    HW198517   2.512  10.312   0.555  0.4177  0.6365 -0.7974
32088SOL    HW298518   2.654  10.283   0.597 -0.6026 -1.0073  1.7362
32089SOL     OW98519   2.740   5.954   7.187  0.4406  0.0145  0.0237
32089SOL    HW198520   2.796   6.019   7.144  0.9488  0.0899  0.7929
32089SOL    HW298521   2.751   5.970   7.280  0.1235 -0.8051  0.2118
32090SOL     OW98522   4.678   2.316   4.657  0.1297  0.4402  0.1197
32090SOL    HW198523   4.757   2.363   4.685  0.6330  0.6930 -1.6103
32090SOL    HW298524   4.615   2.385   4.638  0.0464  0.3094 -0.0768
32091SOL     OW98525   8.171   8.078   4.800 -0.1838  0.3550 -0.1941
32091SOL    HW198526   8.112   8.130   4.855 -1.9213 -0.0065 -1.6181
32091SOL    HW298527   8.230   8.143   4.761 -1.4407  1.1163 -0.8858
32092SOL     OW98528   1.096   6.818   2.594  0.4054  0.8134 -0.6628
32092SOL    HW198529   1.058   6.780   2.673  0.5643  1.2343 -0.3792
32092SOL    HW298530   1.062   6.908   2.591 -2.5636 -0.2638 -3.0601
32093SOL     OW98531   6.230   9.094   0.509 -0.3345  0.1963  0.1074
32093SOL    HW198532   6.167   9.157   0.544 -1.2481 -0.9371  0.5694
32093SOL    HW298533   6.314   9.140   0.513 -0.3000  0.1696  4.0074
32094SOL     OW98534   7.271  10.433   9.472  1.0476 -0.1832  0.5630
32094SOL    HW198535   7.264  10.353   9.523  1.2860 -1.5945 -1.4867
32094SOL    HW298536   7.215  10.496   9.518  0.2375 -1.7386  1.8135
32095SOL     OW98537   7.520   6.000   6.704  0.1889 -0.6086  0.3447
32095SOL    HW198538   7.433   6.039   6.717 -0.0370 -1.3331  1.0928
32095SOL    HW298539   7.503   5.920   6.656  0.7368  0.5557 -1.9309
32096SOL     OW98540   8.968   1.207   2.414  1.1213 -0.1755 -0.2490
32096SOL    HW198541   9.001   1.124   2.448  1.3986  0.0130 -0.0541
32096SOL    HW298542   8.964   1.195   2.320  1.6937 -0.2229 -0.2698
32097SOL     OW98543   8.081   6.842   0.572 -0.1041  0.1103 -0.5557
32097SOL    HW198544   8.113   6.804   0.490  1.6241  1.3069 -0.4900
32097SOL    HW298545   8.141   6.914   0.590 -0.5302 -0.0174  1.6849
32098SOL     OW98546   4.824   7.243   6.686  0.3254 -0.2999 -0.2531
32098SOL    HW198547   4.874   7.294   6.621 -0.7393  1.0608 -0.0645
32098SOL    HW298548   4.817   7.156   6.647  1.1507  0.0233 -1.1857
32099SOL     OW98549   2.412   1.833   6.953 -0.3340 -0.2805 -0.1506
32099SOL    HW198550   2.455   1.913   6.923  0.5057  0.4678  2.7198
32099SOL    HW298551   2.478   1.765   6.945 -0.5048 -0.3451 -1.0478
32100SOL     OW98552   2.596   4.345   0.443  0.4615  0.2887  0.2331
32100SOL    HW198553   2.622   4.328   0.353 -0.3031  0.0026  0.0618
32100SOL    HW298554   2.581   4.259   0.481 -0.3925  0.4480  0.2731
32101SOL     OW98555   2.762   4.410   5.260  0.1262  0.0262  0.0530
32101SOL    HW198556   2.705   4.340   5.291  2.9370 -2.0673  0.8478
32101SOL    HW298557   2.834   4.412   5.322  1.4926  1.8563 -1.4670
32102SOL     OW98558   0.034   1.114   5.513 -0.2674  0.3609 -0.3200
32102SOL    HW198559  -0.017   1.043   5.549 -0.0230 -0.0305 -0.7299
32102SOL    HW298560   0.068   1.161   5.589  1.1261 -1.0769  0.0143
32103SOL     OW98561   4.706   2.490   5.660  0.1915 -0.3938 -0.1124
32103SOL    HW198562   4.802   2.491   5.663  0.1725 -0.6926  0.7037
32103SOL    HW298563   4.684   2.549   5.588  0.9159  2.0301  1.5292
32104SOL     OW98564   9.034   7.508   3.146  0.4088  0.2649 -0.6046
32104SOL    HW198565   8.956   7.523   3.199  0.2646  0.4404 -0.8674
32104SOL    HW298566   9.043   7.412   3.144  1.3480  0.2864  1.0883
32105SOL     OW98567   1.713   1.486   9.791  0.4481 -0.2594  0.3461
32105SOL    HW198568   1.776   1.426   9.751  0.5356 -0.4255  0.7271
32105SOL    HW298569   1.635   1.432   9.806  1.8131 -1.4527  4.3847
32106SOL     OW98570   2.405   6.273   5.545 -0.2349  0.0505  0.1668
32106SOL    HW198571   2.339   6.312   5.488 -1.1762  0.5155  1.4990
32106SOL    HW298572   2.460   6.347   5.571  0.3226 -0.1953 -0.3000
32107SOL     OW98573   0.795   6.002   0.566 -0.3710  0.1242 -0.1601
32107SOL    HW198574   0.706   5.976   0.541  0.2188 -1.8393 -0.4348
32107SOL    HW298575   0.827   5.929   0.620  0.9651  0.9190  0.1703
32108SOL     OW98576   8.327   4.270   1.680 -0.1543 -0.1750  0.0948
32108SOL    HW198577   8.282   4.187   1.662 -1.4146  0.0895  1.8236
32108SOL    HW298578   8.415   4.244   1.705 -0.5152 -1.0104  0.5386
32109SOL     OW98579   1.158   4.475   6.395 -0.7261  0.6546  0.5570
32109SOL    HW198580   1.123   4.554   6.439  1.7272  2.2098 -0.0869
32109SOL    HW298581   1.150   4.494   6.302 -0.1786  0.1105  0.3924
32110SOL     OW98582   0.651   4.232   8.986  0.0267  0.5465 -0.2654
32110SOL    HW198583   0.642   4.305   8.925  0.1121  0.0268 -0.9059
32110SOL    HW298584   0.705   4.266   9.057  2.8076  0.1962 -2.0732
32111SOL     OW98585   0.269   6.599   9.257  0.3297  0.2169 -0.0771
32111SOL    HW198586   0.316   6.570   9.179  2.2664  0.6070  0.8662
32111SOL    HW298587   0.269   6.694   9.251 -0.8311  0.2142 -0.3058
32112SOL     OW98588   4.208  10.157   5.501 -0.3430  0.5335 -0.1632
32112SOL    HW198589   4.182  10.079   5.450  0.2097 -0.2895  0.7832
32112SOL    HW298590   4.255  10.122   5.576 -1.3941  1.7042  1.1033
32113SOL     OW98591   4.162   7.723   1.806 -0.2213  0.0015  0.0335
32113SOL    HW198592   4.067   7.721   1.796 -0.2725  0.7093  0.3316
32113SOL    HW298593   4.177   7.693   1.896 -0.1409 -0.4292 -0.1226
32114SOL     OW98594   5.292   3.435   1.675  0.5407  0.4788 -0.3324
32114SOL    HW198595   5.297   3.474   1.588  2.2378 -0.9004 -0.9042
32114SOL    HW298596   5.238   3.497   1.726 -2.5323  0.1970 -2.9006
32115SOL     OW98597   4.418   7.002   6.942 -0.7339  0.1893 -0.1195
32115SOL    HW198598   4.455   7.011   6.855 -1.1508 -3.0657 -0.7765
32115SOL    HW298599   4.324   6.992   6.927 -0.6280 -2.3724  0.3766
32116SOL     OW98600   8.047   0.002   5.605  0.6033  0.8827  0.2440
32116SOL    HW198601   8.083  -0.037   5.685  0.8527  0.2246 -0.1793
32116SOL    HW298602   8.005   0.082   5.635 -0.8981 -0.2435  1.3262
32117SOL     OW98603   0.625   0.641   4.919  0.2918  0.0194  0.4869
32117SOL    HW198604   0.565   0.696   4.970 -0.9199 -0.7821 -0.0241
32117SOL    HW298605   0.686   0.605   4.984 -1.5423 -1.4089  1.5113
32118SOL     OW98606   9.632   4.523   7.543 -0.4667 -0.8111 -0.2210
32118SOL    HW198607   9.548   4.499   7.582 -1.4569 -0.5143 -2.0863
32118SOL    HW298608   9.610   4.557   7.457  1.1452  3.6210  0.8813
32119SOL     OW98609   4.627   4.658   7.874  0.0699 -0.9589  0.6162
32119SOL    HW198610   4.542   4.613   7.867 -1.0802  1.0099  1.2352
32119SOL    HW298611   4.692   4.587   7.866 -1.6220 -2.8321  2.3150
32120SOL     OW98612   9.487   3.704   3.087  0.1161 -0.4298  0.4527
32120SOL    HW198613   9.571   3.720   3.131  0.5384 -1.8859  0.2025
32120SOL    HW298614   9.491   3.613   3.059 -0.2301  0.3470 -2.4325
32121SOL     OW98615   6.579   0.084   7.328 -0.0081 -0.4097  0.3165
32121SOL    HW198616   6.651   0.063   7.386  0.8461  2.0120  0.2324
32121SOL    HW298617   6.501   0.078   7.383  0.6423  0.4067  1.3720
32122SOL     OW98618   3.514   5.248   7.133 -0.1432  0.5349  0.2498
32122SOL    HW198619   3.435   5.211   7.094  0.1842 -1.5046  1.4060
32122SOL    HW298620   3.518   5.210   7.221  3.7474 -2.0281 -0.7792
32123SOL     OW98621   9.463   3.613   2.039 -0.5182  0.2540 -0.6549
32123SOL    HW198622   9.540   3.568   2.074 -0.9874  0.1778  0.3352
32123SOL    HW298623   9.487   3.637   1.949  0.7223  0.3902 -0.3104
32124SOL     OW98624   6.563  10.133   5.441 -0.2973  0.0197  0.1807
32124SOL    HW198625   6.652  10.101   5.461 -0.1293  0.7856  0.7199
32124SOL    HW298626   6.509  10.098   5.512 -0.6141 -1.1890 -0.6274
32125SOL     OW98627   5.515   6.267   7.447  0.1420  0.0183 -0.6930
32125SOL    HW198628   5.496   6.175   7.467  0.7188 -0.1639 -0.9816
32125SOL    HW298629   5.560   6.265   7.363  2.7353  0.3076  0.6054
32126SOL     OW98630   1.750   5.749   0.717  0.3632  0.4542  0.2527
32126SOL    HW198631   1.725   5.707   0.634 -0.5213  1.3841  0.0236
32126SOL    HW298632   1.667   5.761   0.764  0.5882  1.8067  0.3592
32127SOL     OW98633   6.484   0.825   1.042 -0.0608  0.0232 -0.0222
32127SOL    HW198634   6.447   0.743   1.075  0.0594 -0.4629 -1.0405
32127SOL    HW298635   6.420   0.892   1.067 -1.1024 -0.6557 -0.8048
32128SOL     OW98636   8.267   4.782   5.269 -0.0953 -0.0522  0.0174
32128SOL    HW198637   8.351   4.738   5.261  1.2602  1.8716  2.1392
32128SOL    HW298638   8.262   4.839   5.193 -0.2467 -1.2995 -0.9319
32129SOL     OW98639   6.301   4.290   0.191 -0.9478 -0.3508  0.2237
32129SOL    HW198640   6.383   4.281   0.240  0.3831  0.8462 -1.6599
32129SOL    HW298641   6.234   4.260   0.252  0.6287  0.6914  2.6361
32130SOL     OW98642   8.509   0.933   4.764  0.0334  0.3371 -0.1426
32130SOL    HW198643   8.572   0.923   4.835  0.2816  1.6594 -0.1441
32130SOL    HW298644   8.448   0.860   4.775 -0.3947  0.9449  1.9001
32131SOL     OW98645   8.742   4.895   2.189  0.6813 -0.2395  0.2912
32131SOL    HW198646   8.812   4.849   2.141  0.9453 -0.8887  1.2532
32131SOL    HW298647   8.750   4.862   2.278  0.1946  0.9306  0.7807
32132SOL     OW98648   4.157   1.485   0.378  0.6898  0.5119 -0.6573
32132SOL    HW198649   4.124   1.402   0.345  1.7496 -0.0084 -0.4411
32132SOL    HW298650   4.153   1.544   0.303  0.8956 -0.0251 -1.0998
32133SOL     OW98651   1.443   1.136   7.165 -0.5153 -0.3821  0.0457
32133SOL    HW198652   1.487   1.218   7.143 -0.1021 -0.1266  1.7243
32133SOL    HW298653   1.514   1.074   7.183 -0.8037 -0.3461  1.4239
32134SOL     OW98654   3.882   7.334   5.760 -0.3371 -0.1087  0.2072
32134SOL    HW198655   3.887   7.308   5.852  0.5261  1.3312  0.5976
32134SOL    HW298656   3.949   7.282   5.716  0.7393  0.7359  0.8073
32135SOL     OW98657   5.919   0.651   3.177 -0.6690  0.2446  0.3572
32135SOL    HW198658   5.917   0.746   3.171  0.3116  0.2009 -1.3352
32135SOL    HW298659   5.834   0.623   3.141  0.4933  0.4237 -2.8164
32136SOL     OW98660   4.050   9.186   4.574  0.0497  0.6773  0.2431
32136SOL    HW198661   3.957   9.200   4.558 -0.2272  0.0091  1.2028
32136SOL    HW298662   4.053   9.118   4.642  1.2465 -0.6447 -1.0518
32137SOL     OW98663   6.464   9.886   1.465  0.0258 -0.3820 -0.4581
32137SOL    HW198664   6.386   9.882   1.410 -1.0029 -0.0459  0.9223
32137SOL    HW298665   6.445   9.827   1.538  0.9632 -0.1229  0.0067
32138SOL     OW98666   5.631   9.591   5.375 -0.7862  0.6060 -0.2254
32138SOL    HW198667   5.612   9.668   5.429 -1.4065  1.3614 -1.4612
32138SOL    HW298668   5.557   9.532   5.391  0.0529 -0.0925  1.2862
32139SOL     OW98669   3.305   1.431   1.152  0.1548  0.3767 -0.1454
32139SOL    HW198670   3.281   1.447   1.244  2.9376  0.5619  0.6251
32139SOL    HW298671   3.299   1.336   1.143 -0.4114  0.3805  0.1331
32140SOL     OW98672   8.401   3.860   3.239 -0.3057 -0.0598 -0.0360
32140SOL    HW198673   8.386   3.776   3.281  0.1735  0.2451  0.7664
32140SOL    HW298674   8.359   3.925   3.296 -1.3463  0.1883 -1.0464
32141SOL     OW98675   3.267   0.585   9.830  0.0231  0.7593  0.0427
32141SOL    HW198676   3.218   0.538   9.762  1.8935 -0.7339 -0.3700
32141SOL    HW298677   3.289   0.669   9.790 -1.2363  1.0165 -0.1529
32142SOL     OW98678   2.702   1.771   5.340 -0.6004  0.3379 -0.1338
32142SOL    HW198679   2.624   1.740   5.294  0.2582  1.1965 -2.3559
32142SOL    HW298680   2.762   1.797   5.269  1.3411  0.5602  1.4989
32143SOL     OW98681   9.275   6.471   0.533  0.4630  0.1882 -0.0648
32143SOL    HW198682   9.337   6.544   0.537  1.3960 -0.3822 -2.2947
32143SOL    HW298683   9.265   6.454   0.439 -1.2924 -1.2700  0.3230
32144SOL     OW98684   2.495   9.041   3.253 -0.0236  0.0221 -0.0926
32144SOL    HW198685   2.560   8.996   3.198 -0.4236  0.5973 -1.0553
32144SOL    HW298686   2.473   8.976   3.320  1.4529 -0.2274  0.2023
32145SOL     OW98687   1.746   2.666   7.299  0.1892 -0.0718 -0.7109
32145SOL    HW198688   1.666   2.694   7.254  0.0577 -0.5368 -0.7722
32145SOL    HW298689   1.716   2.599   7.361  0.2829  0.9667  0.4890
32146SOL     OW98690   1.815   4.724   3.797  0.0665 -0.4528 -0.4356
32146SOL    HW198691   1.874   4.700   3.726  0.1211  0.0476 -0.5616
32146SOL    HW298692   1.739   4.763   3.754  1.1226  2.1390 -0.1851
32147SOL     OW98693   2.506   0.360   0.904 -0.0600 -0.2288  0.4810
32147SOL    HW198694   2.511   0.438   0.849 -2.2025 -0.5676 -0.3014
32147SOL    HW298695   2.456   0.298   0.852 -0.2948 -1.3491  1.9776
32148SOL     OW98696   9.533   3.336   4.394  0.2586 -0.2666 -0.1638
32148SOL    HW198697   9.550   3.262   4.336  1.2209 -0.4747  0.3708
32148SOL    HW298698   9.456   3.309   4.445  1.2243 -1.3670  0.7722
32149SOL     OW98699   4.785   6.872   8.997  0.0731 -0.2126 -0.2597
32149SOL    HW198700   4.691   6.890   9.006  0.2996  0.4378  1.0360
32149SOL    HW298701   4.789   6.797   8.939 -1.2134  0.2452 -0.9873
32150SOL     OW98702   5.310   1.163   8.647  0.2236  0.2583  0.2699
32150SOL    HW198703   5.301   1.224   8.720 -3.9210 -0.6421  0.8080
32150SOL    HW298704   5.304   1.076   8.688  0.8276 -0.3599 -0.9057
32151SOL     OW98705   7.883   6.368   1.835 -0.2141  0.4064 -0.0738
32151SOL    HW198706   7.947   6.419   1.885  1.5785  0.9550 -2.7052
32151SOL    HW298707   7.825   6.433   1.797  0.5586  0.3279 -1.4361
32152SOL     OW98708  10.343   7.293   2.221 -0.4987 -0.1843  0.6209
32152SOL    HW198709  10.429   7.262   2.248 -1.0155 -1.8390  0.4635
32152SOL    HW298710  10.281   7.240   2.271 -1.4464  0.5767  0.2996
32153SOL     OW98711   0.489   7.725   5.620  0.5867 -0.0637 -0.1262
32153SOL    HW198712   0.495   7.729   5.715 -3.2166 -0.0768  0.2742
32153SOL    HW298713   0.495   7.631   5.600  1.4304 -0.0591  0.0675
32154SOL     OW98714   3.109   3.660   2.463  0.3121 -0.4049  0.1922
32154SOL    HW198715   3.116   3.694   2.374  0.5378 -1.0369 -0.0394
32154SOL    HW298716   3.027   3.610   2.463  0.6603 -0.9848  0.1321
32155SOL     OW98717   1.242   6.188   6.132  0.0889 -0.3420  0.4820
32155SOL    HW198718   1.295   6.113   6.161 -1.2928 -2.5812 -2.1922
32155SOL    HW298719   1.163   6.147   6.094 -1.0041  2.5433 -0.5910
32156SOL     OW98720   3.623  10.475   9.170 -0.3092  0.0887 -0.2094
32156SOL    HW198721   3.644  10.566   9.192 -1.6052  0.4282 -0.3236
32156SOL    HW298722   3.528  10.472   9.171 -0.3008 -0.9787 -1.4070
32157SOL     OW98723   9.277   5.911   4.651  0.4496 -0.1381  0.1507
32157SOL    HW198724   9.196   5.912   4.599  0.5906 -0.3148 -0.0764
32157SOL    HW298725   9.295   5.818   4.665 -0.1769 -0.0778  1.4535
32158SOL     OW98726   9.501   8.919   7.663 -0.3028 -0.1710 -0.1175
32158SOL    HW198727   9.462   8.993   7.619  0.3161  0.8821  1.0416
32158SOL    HW298728   9.451   8.843   7.632 -2.3682  0.9474  0.2841
32159SOL     OW98729  10.574   2.462  10.269 -0.7912 -0.0045 -0.0003
32159SOL    HW198730  10.536   2.458  10.356 -2.4166 -0.6909 -0.7014
32159SOL    HW298731  10.508   2.423  10.212 -0.3331  1.5697 -1.7274
32160SOL     OW98732   0.486   1.316   1.578  0.4202 -0.0823  0.8046
32160SOL    HW198733   0.481   1.312   1.482 -2.0376  0.0959  0.8677
32160SOL    HW298734   0.515   1.406   1.596 -0.7647  0.4261  0.2404
32161SOL     OW98735   9.581   4.999   5.654  0.3490  0.1561  0.5818
32161SOL    HW198736   9.672   5.029   5.649 -0.1876  1.6797 -0.6108
32161SOL    HW298737   9.548   5.005   5.565 -1.3344  0.9288  1.2188
32162SOL     OW98738   7.962   3.593   0.708 -0.1895 -0.2136 -0.4759
32162SOL    HW198739   8.040   3.555   0.747 -0.7955 -0.3702  0.6473
32162SOL    HW298740   7.950   3.547   0.625 -0.0072 -1.3444  0.1095
32163SOL     OW98741   9.482   5.266   5.603  0.1815 -0.2846  0.8071
32163SOL    HW198742   9.498   5.346   5.552 -1.0943  0.0024  0.8135
32163SOL    HW298743   9.549   5.267   5.671  0.4981  0.5197  0.4987
32164SOL     OW98744   7.697   9.903   4.811  0.4117 -0.1863  0.0473
32164SOL    HW198745   7.632   9.838   4.839 -0.5694  0.9690  0.5430
32164SOL    HW298746   7.759   9.853   4.758 -0.1321 -1.5866  0.6640
32165SOL     OW98747   3.667   8.173   7.510  0.7203 -0.4815 -0.1143
32165SOL    HW198748   3.577   8.159   7.541 -0.0455  1.1727 -1.4136
32165SOL    HW298749   3.689   8.260   7.542  1.2927 -0.2688 -1.0643
32166SOL     OW98750   4.288   0.804   2.712  0.5159  0.5183 -0.0846
32166SOL    HW198751   4.338   0.883   2.689  1.1156  0.2182  0.1799
32166SOL    HW298752   4.238   0.785   2.633  0.6236  0.9695 -0.2695
32167SOL     OW98753   7.304   6.236   2.417 -0.4062  0.1707  0.0713
32167SOL    HW198754   7.330   6.144   2.408 -0.3352  0.1099  0.8671
32167SOL    HW298755   7.344   6.279   2.341  1.1955 -0.1092  0.7063
32168SOL     OW98756   3.030   5.637   5.213  0.5626 -0.3219 -0.3392
32168SOL    HW198757   3.094   5.573   5.245  0.4649 -0.0362  0.4610
32168SOL    HW298758   2.947   5.608   5.249  0.5354  0.3131  0.1320
32169SOL     OW98759   2.712   3.111   5.799 -0.0700 -0.0604  0.2466
32169SOL    HW198760   2.639   3.079   5.747  1.7281 -1.9398 -1.3032
32169SOL    HW298761   2.672   3.145   5.879 -2.7031  0.2529 -1.1013
32170SOL     OW98762   7.989   2.947   9.961 -0.3269  0.1226  0.3457
32170SOL    HW198763   8.026   2.961   9.874 -1.7391 -0.5335 -0.3911
32170SOL    HW298764   8.038   3.006  10.018  0.9405  0.2192 -0.8034
32171SOL     OW98765   1.711   4.162   9.464 -0.6152 -0.3601  0.2327
32171SOL    HW198766   1.638   4.214   9.496  0.1404  0.6043  0.4435
32171SOL    HW298767   1.670   4.090   9.417 -1.6938  0.6774 -0.4715
32172SOL     OW98768   9.838   5.101   5.717  0.0780 -0.5303  0.1211
32172SOL    HW198769   9.821   5.026   5.775 -2.2409 -0.8075 -0.7964
32172SOL    HW298770   9.882   5.063   5.641 -0.7211 -0.9175 -0.1615
32173SOL     OW98771   4.614   8.307   0.768  0.3277 -0.4993 -0.4570
32173SOL    HW198772   4.608   8.361   0.689  0.4464  0.6122  0.2699
32173SOL    HW298773   4.535   8.253   0.766 -0.7708  1.0324 -0.2624
32174SOL     OW98774   8.179   0.965   4.949  0.2163  0.2642 -0.1072
32174SOL    HW198775   8.236   1.039   4.970  1.3047 -0.4003 -0.6391
32174SOL    HW298776   8.096   0.986   4.991  0.7511  1.4123  0.4151
32175SOL     OW98777   0.338   3.465   9.491  0.0243 -0.0036 -0.6852
32175SOL    HW198778   0.266   3.485   9.551  0.4497  0.2565 -0.2543
32175SOL    HW298779   0.402   3.420   9.546  0.3492  0.1000 -0.9824
32176SOL     OW98780   9.860   8.951   0.352  0.6257 -0.3560  0.0027
32176SOL    HW198781   9.942   8.903   0.356  0.0483 -1.3707  0.1726
32176SOL    HW298782   9.794   8.888   0.381  0.1862  1.4807  3.5839
32177SOL     OW98783  10.127  10.628   4.401  0.4760 -0.3604 -0.3106
32177SOL    HW198784  10.190  10.696   4.424  0.1686 -0.1045 -0.2238
32177SOL    HW298785  10.049  10.649   4.452  0.3703 -0.7624 -0.3032
32178SOL     OW98786   9.819   4.139   2.806  0.2006 -0.2532 -0.0891
32178SOL    HW198787   9.872   4.087   2.867 -0.7528 -3.0328 -1.4479
32178SOL    HW298788   9.883   4.180   2.747  0.9721 -0.1737  0.7871
32179SOL     OW98789   0.207   4.822   7.688 -0.0758 -0.2335 -0.6072
32179SOL    HW198790   0.182   4.731   7.704  0.4819 -0.1075  1.1897
32179SOL    HW298791   0.125   4.871   7.696 -0.4324 -0.5917 -1.8902
32180SOL     OW98792   1.743   5.966   8.195 -0.5163 -0.4670 -0.5711
32180SOL    HW198793   1.686   6.013   8.134 -0.8561 -1.1395 -0.7696
32180SOL    HW298794   1.802   5.915   8.139  1.7404  1.7918 -0.4854
32181SOL     OW98795   2.835   9.064   3.066  0.4686 -0.5689 -0.2001
32181SOL    HW198796   2.877   9.075   3.151  1.1111  1.2223 -0.6920
32181SOL    HW298797   2.778   8.988   3.076 -0.3947  0.3188  2.1890
32182SOL     OW98798   6.235   7.934   8.760  0.2204 -0.2221  0.3964
32182SOL    HW198799   6.248   7.855   8.708 -0.2314 -0.6016  0.8357
32182SOL    HW298800   6.163   7.980   8.717 -0.9339 -1.1117  1.3039
32183SOL     OW98801   1.543   5.043   1.180  0.1032 -0.1663  0.0937
32183SOL    HW198802   1.616   5.092   1.141  0.0711  0.1669  0.4443
32183SOL    HW298803   1.520   4.978   1.114  0.2827  0.1587 -0.2925
32184SOL     OW98804   6.974   0.127   2.358 -0.4428  0.0657  0.2753
32184SOL    HW198805   6.927   0.081   2.427 -1.4694  0.2858 -0.2664
32184SOL    HW298806   6.922   0.205   2.340  0.8680  1.0743  0.6450
32185SOL     OW98807   1.262   7.842   1.430 -0.0183 -0.0770 -0.0964
32185SOL    HW198808   1.175   7.849   1.390 -0.8128 -0.8835  1.4369
32185SOL    HW298809   1.319   7.815   1.358 -0.9511  0.7928 -1.1996
32186SOL     OW98810   0.275   7.482   9.071  0.2391  0.3406  0.3054
32186SOL    HW198811   0.338   7.541   9.028  0.6776 -0.4142 -0.1090
32186SOL    HW298812   0.324   7.401   9.086 -0.5320 -0.1343  0.3123
32187SOL     OW98813   3.027   0.275   6.131  0.5848 -0.1253  0.1637
32187SOL    HW198814   3.122   0.264   6.125  0.8408  1.5545  0.6887
32187SOL    HW298815   3.011   0.365   6.100 -0.6956  0.0396  1.2139
32188SOL     OW98816   6.099  10.193   4.419 -0.0456  0.5913 -0.1524
32188SOL    HW198817   6.103  10.218   4.512 -0.8120  0.5295 -0.0986
32188SOL    HW298818   6.113  10.275   4.371 -1.1715  0.9099  0.0247
32189SOL     OW98819   7.291   1.740   2.521 -0.7619  0.0204 -0.0902
32189SOL    HW198820   7.363   1.801   2.538 -1.8951  1.5429 -0.5352
32189SOL    HW298821   7.257   1.719   2.608 -0.0532 -0.3929  0.0974
32190SOL     OW98822   5.673   1.045   0.510  0.3504 -0.3582  0.1778
32190SOL    HW198823   5.698   0.989   0.583  0.8955  1.8328  1.7656
32190SOL    HW298824   5.686   1.134   0.542  1.1378  0.7079 -2.8046
32191SOL     OW98825  10.373   3.132   0.680  0.1854  0.0884 -0.2295
32191SOL    HW198826  10.407   3.180   0.755  1.0288 -0.6009 -0.1498
32191SOL    HW298827  10.438   3.147   0.610 -0.3355  0.3244 -0.6674
32192SOL     OW98828   5.351   4.467   5.846 -0.6227 -0.1819  0.4167
32192SOL    HW198829   5.370   4.406   5.917  1.6264 -2.0401 -1.5999
32192SOL    HW298830   5.256   4.462   5.835 -0.6563 -2.2640  1.2562
32193SOL     OW98831   0.857   4.992   8.254  0.4310 -0.0423 -0.7316
32193SOL    HW198832   0.941   4.947   8.263  0.6193  0.0842 -1.7403
32193SOL    HW298833   0.879   5.085   8.253  0.1476  0.0492  0.2276
32194SOL     OW98834   5.098  10.070   8.080  0.3194  0.4964  0.6537
32194SOL    HW198835   5.030  10.102   8.020  0.4706 -0.7164 -0.2085
32194SOL    HW298836   5.083   9.976   8.084  1.3648  0.3434  1.2092
32195SOL     OW98837   4.527   9.109   0.287 -0.3945 -0.0054  0.1133
32195SOL    HW198838   4.597   9.172   0.308  1.3588 -2.2635  1.4487
32195SOL    HW298839   4.573   9.032   0.255 -2.4735 -0.8237 -1.1249
32196SOL     OW98840   6.221   2.099   7.848 -0.2821 -0.1918 -0.2245
32196SOL    HW198841   6.263   2.152   7.781 -1.6405 -0.4190 -1.2980
32196SOL    HW298842   6.220   2.010   7.812 -0.2704 -0.4789  0.4653
32197SOL     OW98843  10.266   2.380   2.858  0.2071 -0.5825 -0.3812
32197SOL    HW198844  10.340   2.440   2.867  0.9648 -1.7651  2.7186
32197SOL    HW298845  10.298   2.298   2.895 -2.3417 -1.4152  0.1594
32198SOL     OW98846  10.401   2.398  10.517 -0.8552  0.3354 -0.5084
32198SOL    HW198847  10.432   2.368  10.603  0.1114  2.5061 -0.0350
32198SOL    HW298848  10.375   2.489  10.531 -0.3657  0.8397 -2.5902
32199SOL     OW98849   0.114   4.997   6.566  0.8865 -0.0575 -0.4248
32199SOL    HW198850   0.146   4.907   6.563  1.9181  0.2465  0.7421
32199SOL    HW298851   0.053   5.003   6.493  1.5659 -1.4130 -1.1431
32200SOL     OW98852   1.438   7.397   4.721 -0.4241  0.2534  0.1561
32200SOL    HW198853   1.372   7.328   4.726 -1.1333  0.8739 -0.4293
32200SOL    HW298854   1.478   7.386   4.635  0.3714 -0.2279  0.5761
32201SOL     OW98855   4.712   5.727   4.325  0.0070 -0.1781  0.5068
32201SOL    HW198856   4.767   5.650   4.313 -0.3033 -0.7861  2.6526
32201SOL    HW298857   4.624   5.698   4.300  0.0643 -0.2082  0.3394
32202SOL     OW98858   8.196   3.095   2.608 -0.3821  0.4032  0.2105
32202SOL    HW198859   8.191   3.113   2.514  0.3635  1.0380  0.2845
32202SOL    HW298860   8.159   3.007   2.617 -2.0677  1.0041 -0.4496
32203SOL     OW98861   7.951   1.689   7.560  0.2396  0.3186 -0.1900
32203SOL    HW198862   7.925   1.754   7.494  1.1911 -0.1966 -1.1080
32203SOL    HW298863   7.976   1.612   7.509 -1.4092 -1.0203  0.8902
32204SOL     OW98864   7.460   3.705   8.631  0.4834  0.3205 -0.3311
32204SOL    HW198865   7.521   3.778   8.618 -0.3300  0.9161 -0.8629
32204SOL    HW298866   7.494   3.636   8.574  1.7741 -0.0557  0.8556
32205SOL     OW98867   8.285   3.043   1.469 -0.2055  0.1590  0.4818
32205SOL    HW198868   8.242   3.128   1.459 -1.5587 -0.3065  2.0145
32205SOL    HW298869   8.351   3.057   1.536  1.1793  0.5278 -0.8978
32206SOL     OW98870   7.088   2.479   6.636 -0.0104  1.2270  0.2784
32206SOL    HW198871   7.029   2.431   6.695 -1.1491  2.1549 -0.0826
32206SOL    HW298872   7.039   2.557   6.611 -0.1482  0.1870 -3.0584
32207SOL     OW98873   0.825   0.534   6.413  0.0487  0.0191 -0.3386
32207SOL    HW198874   0.866   0.491   6.338 -0.5439  1.2191 -1.3673
32207SOL    HW298875   0.753   0.585   6.377 -1.2831 -0.6401  1.2366
32208SOL     OW98876   5.968  10.265   9.196  1.1006  0.5374 -0.3240
32208SOL    HW198877   6.036  10.211   9.156  0.6826 -0.9885  0.9239
32208SOL    HW298878   5.938  10.214   9.272 -0.6008  1.7044 -0.1511
32209SOL     OW98879   8.116   4.291   9.247 -0.1807  0.1478  0.7127
32209SOL    HW198880   8.128   4.358   9.315 -2.7492 -0.7194  2.1618
32209SOL    HW298881   8.040   4.241   9.277  1.8010 -3.6671 -0.1294
32210SOL     OW98882   1.014   0.395   0.644 -0.1640  0.0609  0.4256
32210SOL    HW198883   0.989   0.370   0.555 -0.0627  1.1196  0.0863
32210SOL    HW298884   0.937   0.439   0.679 -0.1949 -0.3314  0.8654
32211SOL     OW98885   4.945   9.976   0.149 -0.6156  0.7390 -0.1424
32211SOL    HW198886   5.000  10.052   0.130  1.5870 -0.3657  1.4286
32211SOL    HW298887   4.953   9.921   0.071  1.9991 -0.1801  0.6679
32212SOL     OW98888   6.049   2.309   4.438 -0.2962  0.0726 -0.1417
32212SOL    HW198889   6.040   2.387   4.493  0.8163 -1.4552  2.3699
32212SOL    HW298890   5.993   2.243   4.480  0.3274 -1.0538 -1.0323
32213SOL     OW98891   1.700   7.351   1.577 -0.2529  0.3448  0.6097
32213SOL    HW198892   1.749   7.358   1.659 -0.8801 -1.8483  1.2353
32213SOL    HW298893   1.642   7.427   1.577 -0.9275 -0.1006  2.7046
32214SOL     OW98894   4.055   1.344   5.558 -0.2832 -0.0824 -0.3057
32214SOL    HW198895   4.086   1.259   5.591 -0.5026  0.1859  0.6132
32214SOL    HW298896   4.136   1.392   5.540 -0.1589 -0.2273 -0.1475
32215SOL     OW98897   6.579   1.332   3.134  0.2961  0.2703  0.7682
32215SOL    HW198898   6.605   1.341   3.042  1.0353  1.3661  1.0727
32215SOL    HW298899   6.580   1.238   3.150 -2.2991 -0.1807 -1.0285
32216SOL     OW98900  10.331   6.684   7.092 -0.0967 -0.2991 -0.3166
32216SOL    HW198901  10.423   6.689   7.069  0.2752 -1.3070  0.8265
32216SOL    HW298902  10.327   6.619   7.162 -1.5666  0.3087  0.2212
32217SOL     OW98903   9.141  10.608   3.559  0.0317 -0.1428 -0.3602
32217SOL    HW198904   9.123  10.565   3.475 -1.1406 -0.2816 -0.0554
32217SOL    HW298905   9.129  10.701   3.542  2.2271  0.0750 -0.9342
32218SOL     OW98906   2.387   6.592   7.841 -0.2815 -0.9059 -0.1660
32218SOL    HW198907   2.405   6.685   7.856 -0.3120 -1.0154  0.5901
32218SOL    HW298908   2.358   6.588   7.750  2.1931 -0.5464 -1.0330
32219SOL     OW98909   5.815   1.348   3.715  0.2116 -0.4007  0.2610
32219SOL    HW198910   5.832   1.283   3.783 -0.9213 -2.5719 -1.4205
32219SOL    HW298911   5.892   1.344   3.658  0.0677 -0.3641  0.0646
32220SOL     OW98912   1.526   0.624   5.492 -0.3215  0.2244  0.2488
32220SOL    HW198913   1.533   0.717   5.511 -0.4026  0.3651 -0.4063
32220SOL    HW298914   1.452   0.594   5.545 -0.3293  0.5407  0.4164
32221SOL     OW98915   4.923   7.598   6.887  0.1605 -0.5036 -0.1834
32221SOL    HW198916   4.939   7.691   6.900  1.7059 -0.8947  1.0002
32221SOL    HW298917   5.000   7.566   6.839  0.6552 -1.5253  1.2123
32222SOL     OW98918   3.254   1.776   5.660  0.4975  0.7869 -0.1921
32222SOL    HW198919   3.311   1.706   5.629  0.3559  1.0523 -1.0654
32222SOL    HW298920   3.217   1.742   5.742  1.1303  0.2154 -0.1362
32223SOL     OW98921   9.622   6.864   1.114 -0.3295  0.1354  0.0339
32223SOL    HW198922   9.633   6.944   1.166  2.1545  0.4652 -0.8606
32223SOL    HW298923   9.683   6.802   1.152 -2.2243 -1.4128  0.7095
32224SOL     OW98924   3.258   0.400   3.807  0.2693  0.2017 -0.5652
32224SOL    HW198925   3.250   0.408   3.902 -2.5224  0.4821 -0.7381
32224SOL    HW298926   3.234   0.310   3.788  3.7949 -0.8363 -0.8826
32225SOL     OW98927   2.745   2.865  10.535 -0.3856  0.0462  0.2084
32225SOL    HW198928   2.727   2.864  10.441  1.5746 -1.1309 -0.2427
32225SOL    HW298929   2.785   2.950  10.552 -0.0983 -0.0026 -0.2059
32226SOL     OW98930   6.746   3.456   0.466 -0.2907  0.6823 -0.2555
32226SOL    HW198931   6.709   3.370   0.487 -0.9058  0.5621 -1.7071
32226SOL    HW298932   6.814   3.438   0.401 -0.2675  1.2583 -0.3970
32227SOL     OW98933   3.151   5.594   3.660 -0.0020  0.2210  0.1998
32227SOL    HW198934   3.109   5.622   3.742 -0.7869 -0.7443  0.1475
32227SOL    HW298935   3.166   5.500   3.672  1.0138  0.3086 -0.2906
32228SOL     OW98936   0.211   8.628   2.854 -0.3756 -0.0487  0.2114
32228SOL    HW198937   0.139   8.607   2.914 -1.0007  0.1800 -0.4499
32228SOL    HW298938   0.219   8.723   2.858 -0.7699  0.0162 -0.4608
32229SOL     OW98939   0.006   9.516   9.355  0.2632  0.0346  0.0084
32229SOL    HW198940   0.074   9.482   9.414  2.0962  0.7623 -1.5937
32229SOL    HW298941   0.003   9.453   9.283 -0.5838  0.1848 -0.1058
32230SOL     OW98942   0.244   7.404   3.905  0.1239 -0.0189  0.0359
32230SOL    HW198943   0.190   7.419   3.827  0.1893  1.2402  0.2178
32230SOL    HW298944   0.236   7.310   3.922 -0.8475 -0.0987 -0.7889
32231SOL     OW98945   2.256   7.236   8.901  0.4872  0.2079 -0.2809
32231SOL    HW198946   2.264   7.305   8.967 -1.1390  1.2745 -1.1522
32231SOL    HW298947   2.301   7.271   8.825  1.3185 -0.5267 -0.1458
32232SOL     OW98948   5.531   9.948   6.727 -0.7124  0.0596  0.3143
32232SOL    HW198949   5.519  10.042   6.741 -0.7908  0.3696 -1.6177
32232SOL    HW298950   5.523   9.936   6.632  1.5841 -1.5584  0.2276
32233SOL     OW98951   6.968   8.398   3.945  0.2140 -0.0676  0.8812
32233SOL    HW198952   6.972   8.436   3.857  0.7509 -1.1342  0.4394
32233SOL    HW298953   7.058   8.372   3.965  0.4274  1.5915  2.4171
32234SOL     OW98954   8.919  10.646  10.254  0.7652 -0.0962  0.3550
32234SOL    HW198955   8.927  10.741  10.263  0.1838 -0.2144  2.6903
32234SOL    HW298956   8.960  10.611  10.333 -0.1434 -1.7291  0.1332
32235SOL     OW98957   0.514   5.999   4.083 -0.3274 -0.0082 -0.6143
32235SOL    HW198958   0.526   5.962   3.995 -1.0322 -1.9518  0.0578
32235SOL    HW298959   0.577   5.954   4.138  2.0383  3.0949 -0.4943
32236SOL     OW98960   2.977   0.982   2.346 -0.2523 -0.3812 -0.5042
32236SOL    HW198961   3.007   1.069   2.369  0.1574 -0.5781 -0.2727
32236SOL    HW298962   3.055   0.938   2.311 -0.2763 -0.8798  0.0427
32237SOL     OW98963   5.948  10.163   6.494 -0.1142  0.2342  0.1733
32237SOL    HW198964   5.986  10.248   6.473  0.7782 -0.3855 -0.8141
32237SOL    HW298965   5.893  10.142   6.418  0.6769 -0.6342 -0.1701
32238SOL     OW98966   9.554  10.541   7.144 -0.7696 -0.1526 -0.1919
32238SOL    HW198967   9.572  10.539   7.050  1.0934 -0.7914  0.1349
32238SOL    HW298968   9.567  10.451   7.173 -2.1216 -0.1284  0.5714
32239SOL     OW98969   7.347   6.736   3.335  0.4764  0.4080 -0.1652
32239SOL    HW198970   7.326   6.808   3.395 -0.6692  1.0232 -1.2641
32239SOL    HW298971   7.348   6.777   3.248 -0.8983 -1.0312 -0.9017
32240SOL     OW98972   8.561   6.955   4.533  0.2737 -0.1104 -0.1940
32240SOL    HW198973   8.632   6.976   4.595 -0.1037 -1.3248  0.6978
32240SOL    HW298974   8.487   6.934   4.589  0.0456 -1.6935 -1.0390
32241SOL     OW98975   3.468   7.333   8.701  0.2202  0.1260 -0.4459
32241SOL    HW198976   3.554   7.356   8.737 -0.3279 -0.7059  1.4672
32241SOL    HW298977   3.489   7.279   8.624  1.4045  0.2481 -0.2318
32242SOL     OW98978   5.142   4.940   1.888 -0.5340  0.6132  0.1158
32242SOL    HW198979   5.129   4.935   1.983  2.4178 -0.0948  0.5943
32242SOL    HW298980   5.082   5.008   1.859 -2.1869  0.2088  2.3329
32243SOL     OW98981   6.397   3.714   8.173  0.0954 -0.3882 -0.2828
32243SOL    HW198982   6.357   3.682   8.093 -0.3374  0.1698 -0.3023
32243SOL    HW298983   6.487   3.737   8.149 -0.4367  1.1087 -0.9711
32244SOL     OW98984   7.776   4.187  10.529  0.5339  0.1306  0.0640
32244SOL    HW198985   7.706   4.215  10.469  2.2045  0.9185 -1.6196
32244SOL    HW298986   7.772   4.092  10.527 -0.7140  0.1504  0.3233
32245SOL     OW98987   0.038  10.148   9.211  0.4414  0.6499 -0.4621
32245SOL    HW198988   0.110  10.148   9.274  1.8160 -1.8916 -1.8949
32245SOL    HW298989   0.003  10.237   9.215  2.5439  1.4876  1.5143
32246SOL     OW98990   4.979   1.941   6.513 -0.4434  0.2544  0.1749
32246SOL    HW198991   5.038   1.932   6.438 -2.2231  0.3318 -1.2992
32246SOL    HW298992   5.020   2.008   6.568  0.3783  0.9720 -1.2562
32247SOL     OW98993   5.983   1.519   8.599 -0.3930 -0.3064 -0.3175
32247SOL    HW198994   5.994   1.432   8.560 -1.5188 -0.9238  0.7095
32247SOL    HW298995   6.066   1.563   8.581  0.1897 -1.5754 -0.8811
32248SOL     OW98996   0.036   7.997   7.572  0.5210 -0.2033  0.7520
32248SOL    HW198997   0.131   7.987   7.572  0.6842  1.1147  1.9574
32248SOL    HW298998   0.016   8.041   7.654 -0.9446  1.2429 -0.3119
32249SOL     OW98999   9.657  10.361   7.660 -0.6364  0.0578 -0.0847
32249SOL    HW199000   9.719  10.342   7.731 -0.8322 -2.1742 -0.4405
32249SOL    HW299001   9.578  10.313   7.684 -0.7483 -0.6433 -1.7309
32250SOL     OW99002   0.910   5.354   6.218  0.6995  0.0976  0.2742
32250SOL    HW199003   0.908   5.448   6.199 -1.7498  0.1278  0.3042
32250SOL    HW299004   0.934   5.313   6.135 -0.5924  0.6884 -0.4280
32251SOL     OW99005   9.851   6.651   9.593 -0.1176 -0.3630 -0.8122
32251SOL    HW199006   9.899   6.730   9.621 -0.3110  0.1728 -1.9304
32251SOL    HW299007   9.814   6.675   9.509 -4.2293  0.0212  0.8777
32252SOL     OW99008   8.476   2.862   2.116 -0.8820 -0.0208 -0.2090
32252SOL    HW199009   8.454   2.942   2.164 -1.8487 -0.3838 -0.0290
32252SOL    HW299010   8.572   2.859   2.118 -0.8271 -0.8673  3.1800
32253SOL     OW99011   3.413   0.480   2.078  0.3111 -0.2444  0.5274
32253SOL    HW199012   3.407   0.423   2.001  0.7736 -0.3359  0.5551
32253SOL    HW299013   3.494   0.529   2.064  1.0683 -1.1559  1.5519
32254SOL     OW99014   5.918   3.782   3.753 -0.0909  0.1461 -0.3087
32254SOL    HW199015   5.982   3.722   3.791 -1.6592 -1.6846 -0.4220
32254SOL    HW299016   5.932   3.777   3.659  0.4668  0.7948 -0.2677
32255SOL     OW99017   3.616   7.731   6.295 -0.5435  0.5240  0.0350
32255SOL    HW199018   3.665   7.754   6.373 -1.3601  1.8763  0.1781
32255SOL    HW299019   3.526   7.717   6.326 -0.6173 -0.2211 -0.4727
32256SOL     OW99020   9.803   8.140   0.956 -0.3736  0.7255 -0.0433
32256SOL    HW199021   9.845   8.114   0.874 -1.3327 -2.2723  0.3104
32256SOL    HW299022   9.713   8.111   0.948 -1.2212  2.7707  1.0998
32257SOL     OW99023   2.822   6.682   4.500  0.2529  0.0243 -0.8414
32257SOL    HW199024   2.775   6.680   4.417  1.6744  0.0219 -1.6810
32257SOL    HW299025   2.871   6.763   4.497  0.2683  0.0524  0.0372
32258SOL     OW99026   4.757   0.204   6.170 -0.0930  0.5402 -0.0003
32258SOL    HW199027   4.821   0.142   6.205 -1.4372 -2.0817 -1.8253
32258SOL    HW299028   4.792   0.230   6.085 -0.4658  0.6973 -0.1105
32259SOL     OW99029   2.450   0.827   8.159 -0.1414  0.2040  0.2694
32259SOL    HW199030   2.484   0.806   8.072  0.1721  0.3015  0.3659
32259SOL    HW299031   2.388   0.757   8.178 -0.4109  0.3221 -0.1431
32260SOL     OW99032   8.252   3.405   7.452  0.0662 -0.5911  0.7167
32260SOL    HW199033   8.281   3.487   7.492 -3.3914  0.8055  0.6462
32260SOL    HW299034   8.231   3.429   7.361  1.9160 -2.3402 -0.2634
32261SOL     OW99035   0.655   8.548   5.035 -0.1666  0.5697  0.1191
32261SOL    HW199036   0.744   8.549   5.070 -0.5895  2.7156  1.3145
32261SOL    HW299037   0.616   8.469   5.071  0.7078  0.5708  1.1151
32262SOL     OW99038   1.354   7.526   0.289  0.0134  0.5241  0.0926
32262SOL    HW199039   1.306   7.600   0.324 -0.2023 -0.3616  1.7639
32262SOL    HW299040   1.384   7.478   0.366  1.2776 -0.4165 -0.9296
32263SOL     OW99041  10.078   6.977   8.421  0.2488 -0.2876  0.1954
32263SOL    HW199042  10.099   6.955   8.512 -1.2259  1.8162  1.1303
32263SOL    HW299043  10.159   7.013   8.386  0.2994  0.8317  1.3769
32264SOL     OW99044   1.543  10.427   8.755  1.1123  0.5225  0.2633
32264SOL    HW199045   1.455  10.404   8.785  0.8178  0.3413 -0.7056
32264SOL    HW299046   1.546  10.523   8.760  1.3606  0.4671  1.6165
32265SOL     OW99047   2.221   7.395   9.112 -0.1631  0.1097 -0.6537
32265SOL    HW199048   2.158   7.444   9.059 -0.6272 -0.5016 -0.6900
32265SOL    HW299049   2.175   7.379   9.194 -0.1541 -0.5551 -0.7706
32266SOL     OW99050   5.707   1.628   1.814 -0.1230 -0.5517 -0.6458
32266SOL    HW199051   5.801   1.636   1.796 -0.2896  0.1169 -1.2635
32266SOL    HW299052   5.689   1.699   1.876 -0.5443  0.4396 -1.8690
32267SOL     OW99053   1.808   0.584   8.493  0.7789  0.0065  0.3030
32267SOL    HW199054   1.723   0.593   8.450 -0.1082 -1.8052  1.5152
32267SOL    HW299055   1.847   0.506   8.453  1.3916  0.2079  0.4981
32268SOL     OW99056   1.404   8.544   5.779  0.1523  0.2953  0.0216
32268SOL    HW199057   1.315   8.577   5.766  0.7562  1.2539 -2.0120
32268SOL    HW299058   1.405   8.460   5.733  0.6140  0.8485 -1.0026
32269SOL     OW99059   5.064   1.116   8.009 -0.1732  0.1259 -0.7593
32269SOL    HW199060   5.057   1.021   8.015 -0.6664  0.1202 -1.3101
32269SOL    HW299061   5.156   1.131   7.986 -0.3980 -0.3166 -2.0925
32270SOL     OW99062   1.052   0.309   1.760  0.3274  0.2809 -0.1353
32270SOL    HW199063   1.064   0.373   1.830 -0.4423  1.3443 -0.9318
32270SOL    HW299064   0.990   0.351   1.700  0.1545 -1.0332 -0.9216
32271SOL     OW99065  10.070   3.936   2.572  0.7736  0.3152 -0.3029
32271SOL    HW199066   9.993   3.924   2.517  0.2077  0.7684  0.3768
32271SOL    HW299067  10.144   3.912   2.515  0.1721  0.3112 -1.1005
32272SOL     OW99068   0.013   9.280   4.674  0.3373 -0.4031 -0.2925
32272SOL    HW199069   0.073   9.205   4.671  0.7746 -0.1041  0.6763
32272SOL    HW299070   0.039   9.329   4.751  1.1528  1.7000 -1.8246
32273SOL     OW99071   4.336   8.293   2.276  0.0699 -0.0579  0.2396
32273SOL    HW199072   4.424   8.303   2.241  0.8991 -0.1137  2.1751
32273SOL    HW299073   4.327   8.365   2.340 -1.3871  0.0987 -0.1023
32274SOL     OW99074   9.096  10.346   1.278  0.0318  0.1670  0.4552
32274SOL    HW199075   9.112  10.251   1.275  0.0797  0.1969 -0.6080
32274SOL    HW299076   9.128  10.373   1.364  0.3908 -0.7185  0.6092
32275SOL     OW99077   3.281   8.327  10.476  0.1623 -0.1928  0.5119
32275SOL    HW199078   3.339   8.261  10.514  0.3883 -0.1116  0.3101
32275SOL    HW299079   3.226   8.355  10.549 -0.4004 -1.0928  0.4411
32276SOL     OW99080   3.301   2.831   6.171 -0.0023  0.1143 -0.4494
32276SOL    HW199081   3.225   2.886   6.192  0.9271  1.2317  0.0645
32276SOL    HW299082   3.305   2.768   6.243 -0.7555 -0.3000 -0.7615
32277SOL     OW99083   4.530   0.580  10.513 -0.3146 -0.3385  0.5249
32277SOL    HW199084   4.570   0.493  10.505  1.3911  0.4203  0.3516
32277SOL    HW299085   4.539   0.618  10.426 -2.3320 -0.4597  0.2090
32278SOL     OW99086   6.727  10.370   6.387  0.0668  0.0353 -0.9934
32278SOL    HW199087   6.699  10.461   6.389  0.9369  0.3056 -0.1733
32278SOL    HW299088   6.652  10.321   6.422 -0.1618  0.5081 -0.8141
32279SOL     OW99089   9.196   8.919   1.180  0.7942  0.4133 -0.1251
32279SOL    HW199090   9.234   8.922   1.093 -1.3044  0.9030 -1.0885
32279SOL    HW299091   9.264   8.881   1.235  2.9831  2.1206 -1.5120
32280SOL     OW99092   4.309   3.832   3.638 -0.0076  0.0511  0.3788
32280SOL    HW199093   4.318   3.788   3.722 -1.9237 -2.0253 -0.3621
32280SOL    HW299094   4.372   3.903   3.640  1.4842 -1.2197  2.7187
32281SOL     OW99095   7.958   8.013   6.952  0.6036 -0.2987 -0.3886
32281SOL    HW199096   7.889   8.080   6.946  0.8547 -0.0253 -0.2555
32281SOL    HW299097   8.013   8.042   7.024  1.2336 -0.1668 -0.9191
32282SOL     OW99098   0.152   8.678   2.395 -0.2564 -0.8907 -0.5759
32282SOL    HW199099   0.083   8.682   2.461 -0.0881  0.6775 -0.4448
32282SOL    HW299100   0.207   8.605   2.422 -1.4276 -1.6922 -0.2590
32283SOL     OW99101   3.009   7.393   1.043 -0.6843 -0.2467  0.1912
32283SOL    HW199102   2.958   7.472   1.024 -0.5035 -0.5176 -1.6439
32283SOL    HW299103   3.098   7.414   1.014 -0.6954 -1.1977 -0.5823
32284SOL     OW99104   2.185   3.757   2.137  0.4481 -0.1304 -0.0188
32284SOL    HW199105   2.142   3.798   2.212  0.7145  0.0824  0.0183
32284SOL    HW299106   2.259   3.814   2.117 -1.4697  1.7232 -2.5576
32285SOL     OW99107   8.537   2.012   4.933  0.1503  0.3615  0.8819
32285SOL    HW199108   8.560   1.982   4.845 -0.9560 -0.2243  0.7753
32285SOL    HW299109   8.556   1.937   4.990  0.9775  0.7794  1.1710
32286SOL     OW99110   4.211   5.566   2.434 -0.6827  0.0949  0.9805
32286SOL    HW199111   4.244   5.638   2.380 -2.1155 -0.1740 -0.3495
32286SOL    HW299112   4.257   5.574   2.517  3.4073 -0.8334 -0.9533
32287SOL     OW99113   4.843   3.859   2.110  0.0074  0.0848  0.1070
32287SOL    HW199114   4.856   3.889   2.200  0.8127 -1.3400  0.4983
32287SOL    HW299115   4.798   3.775   2.119  0.0855 -0.0668 -0.8236
32288SOL     OW99116   3.414   4.608   6.448 -0.1771 -0.1689  0.3867
32288SOL    HW199117   3.499   4.647   6.429 -0.3050  0.6919  1.4842
32288SOL    HW299118   3.432   4.515   6.461  0.1950 -0.4877 -1.9062
32289SOL     OW99119   2.914   2.465   6.963 -0.4445  0.1014 -0.6559
32289SOL    HW199120   2.907   2.427   6.875 -1.3777 -0.3694 -0.3845
32289SOL    HW299121   2.825   2.464   6.997 -0.1179  0.4496  0.2377
32290SOL     OW99122  10.620   3.479   9.369 -0.8232  0.2227 -0.0198
32290SOL    HW199123  10.548   3.499   9.308  0.5878  1.3925 -1.3932
32290SOL    HW299124  10.615   3.549   9.434  0.4948  1.8302 -1.5151
32291SOL     OW99125   8.707   5.104   3.876  0.4269 -0.1271 -0.3848
32291SOL    HW199126   8.733   5.164   3.946  1.7336 -2.0720  0.9057
32291SOL    HW299127   8.761   5.130   3.801 -0.0082  1.1349 -0.2822
32292SOL     OW99128   5.171   3.791   5.391 -0.2623 -0.1835  0.7594
32292SOL    HW199129   5.198   3.871   5.436 -0.0848  1.4230 -1.9838
32292SOL    HW299130   5.252   3.740   5.383  0.5925  1.3266 -1.0676
32293SOL     OW99131   8.554   2.461   1.069  0.0450 -0.2062  0.2123
32293SOL    HW199132   8.478   2.489   1.119 -0.9935 -2.3669 -0.0853
32293SOL    HW299133   8.565   2.368   1.089  0.7755 -0.6740 -2.0386
32294SOL     OW99134   0.410   6.238   4.015  0.0413  0.2369  0.5224
32294SOL    HW199135   0.315   6.237   4.005 -0.0137 -0.8752  1.0062
32294SOL    HW299136   0.432   6.151   4.047  1.2491  0.4246  0.2660
32295SOL     OW99137   7.629   2.843   1.858  0.4956 -0.4061  0.0689
32295SOL    HW199138   7.542   2.812   1.881  0.3737 -1.1652 -1.2922
32295SOL    HW299139   7.677   2.765   1.831  1.5750  0.0151  0.6788
32296SOL     OW99140   9.369   6.237   1.174  0.5816  0.7580  0.0566
32296SOL    HW199141   9.324   6.198   1.099  0.3212  0.9096  0.1344
32296SOL    HW299142   9.332   6.325   1.181  0.4398  0.6631  0.5086
32297SOL     OW99143   3.282   8.863   8.870  0.2869  0.1784 -0.3789
32297SOL    HW199144   3.201   8.824   8.836 -1.5938  1.8490  1.8530
32297SOL    HW299145   3.291   8.826   8.958  2.5273 -0.6549 -0.8940
32298SOL     OW99146   7.170   3.538   1.421 -0.3599  0.8651  0.9512
32298SOL    HW199147   7.213   3.465   1.466  1.2022  0.8966 -0.3987
32298SOL    HW299148   7.190   3.525   1.329 -2.6568  1.3398  0.3037
32299SOL     OW99149   4.793   4.585   7.539 -0.0531  0.4545 -0.3082
32299SOL    HW199150   4.746   4.527   7.599  0.1300  0.3370 -0.2768
32299SOL    HW299151   4.815   4.530   7.464  0.1235  0.4796 -0.2771
32300SOL     OW99152   1.458   4.214   7.811 -0.1697  0.2615  0.3262
32300SOL    HW199153   1.390   4.183   7.751  0.7377  1.8786 -1.6415
32300SOL    HW299154   1.466   4.144   7.876 -2.0314 -1.0333 -0.7482
32301SOL     OW99155   0.058   2.573   6.742 -0.0711  0.7223 -0.1215
32301SOL    HW199156   0.143   2.619   6.746 -0.0227  0.5559  1.4459
32301SOL    HW299157  -0.005   2.638   6.772 -0.3209  0.4687 -0.0954
32302SOL     OW99158   9.052   2.175   6.731  0.0020 -0.3580  0.2743
32302SOL    HW199159   9.147   2.183   6.742  0.2092 -2.2988  0.3088
32302SOL    HW299160   9.041   2.142   6.642 -0.6225 -0.5719  0.4295
32303SOL     OW99161  10.275   7.814  10.482  0.3251  0.1096 -0.3902
32303SOL    HW199162  10.334   7.738  10.484  3.0371  2.0711  0.5276
32303SOL    HW299163  10.315   7.874  10.419 -0.4451  1.7096  0.5811
32304SOL     OW99164   6.582   5.221   0.773 -0.3083  0.4885 -0.4629
32304SOL    HW199165   6.575   5.153   0.841  0.3622  0.5985 -0.2761
32304SOL    HW299166   6.621   5.176   0.698  0.9015  0.8363 -0.0678
32305SOL     OW99167   7.434   8.886   6.031  0.2273 -0.5566 -0.0207
32305SOL    HW199168   7.371   8.815   6.037  0.2705 -0.8411 -2.0294
32305SOL    HW299169   7.519   8.842   6.027  0.2447 -0.4601 -1.4421
32306SOL     OW99170   0.931   0.105   3.444 -0.1289 -0.0835 -0.2033
32306SOL    HW199171   0.866   0.036   3.429  0.7924 -1.2631  1.0348
32306SOL    HW299172   0.958   0.132   3.356 -1.4029 -0.4097 -0.7231
32307SOL     OW99173   8.555   9.082   4.280  0.4134 -0.2693 -0.1046
32307SOL    HW199174   8.612   9.132   4.222  0.7121  1.3616  1.5127
32307SOL    HW299175   8.608   9.067   4.359 -1.2777  1.1534  1.3751
32308SOL     OW99176   9.561  10.633   9.772  0.3215  0.1021 -0.3612
32308SOL    HW199177   9.575  10.657   9.864  0.0507 -0.4777 -0.1624
32308SOL    HW299178   9.629  10.680   9.724  1.5955 -0.9559  0.3286
32309SOL     OW99179   6.437   7.835   7.932  0.6409 -0.0150  0.9879
32309SOL    HW199180   6.427   7.864   8.022  0.6044 -0.6469  1.1887
32309SOL    HW299181   6.440   7.739   7.937 -0.0133 -0.0817  0.2598
32310SOL     OW99182   1.086   8.017   5.729  0.4063 -0.2779 -0.1620
32310SOL    HW199183   1.151   8.072   5.772 -0.1819  1.1080 -0.9923
32310SOL    HW299184   1.137   7.965   5.666  0.6602  1.4315 -1.4408
32311SOL     OW99185   0.221   8.342   1.627 -0.0599  0.5899 -0.3610
32311SOL    HW199186   0.230   8.249   1.610 -0.9161  0.3283  0.5278
32311SOL    HW299187   0.304   8.368   1.668 -0.0152  0.1079 -0.1469
32312SOL     OW99188   5.139   1.601   9.964 -0.0524  0.3321 -0.1330
32312SOL    HW199189   5.165   1.689   9.991  1.7144 -0.5079  1.1340
32312SOL    HW299190   5.110   1.559  10.046 -1.2555 -0.1572 -0.7905
32313SOL     OW99191   1.754   2.412   6.183  0.1587 -0.1622 -0.2855
32313SOL    HW199192   1.801   2.495   6.177  0.9906 -0.7346 -2.0606
32313SOL    HW299193   1.822   2.345   6.179 -0.1816 -1.0398  3.8255
32314SOL     OW99194   5.328   1.502   8.172 -0.4176 -0.1027  0.1038
32314SOL    HW199195   5.264   1.514   8.101 -0.3804 -0.3795  0.0216
32314SOL    HW299196   5.352   1.410   8.167  0.9824  0.2684 -0.7094
32315SOL     OW99197   9.808   3.261   9.702 -0.3154  0.4084  0.6000
32315SOL    HW199198   9.863   3.331   9.737 -0.9299  0.4659  1.4748
32315SOL    HW299199   9.837   3.183   9.750 -0.6636  0.3518  0.7174
32316SOL     OW99200   9.202   3.506   1.020 -0.3588 -0.5685 -0.2192
32316SOL    HW199201   9.170   3.447   1.088 -0.5839 -0.7098 -0.4438
32316SOL    HW299202   9.238   3.581   1.067 -1.2879 -0.2750  0.0329
32317SOL     OW99203   4.691   6.777   8.307 -0.2575  0.3069 -0.3540
32317SOL    HW199204   4.746   6.792   8.230 -0.3766  0.7291 -0.3611
32317SOL    HW299205   4.606   6.816   8.284 -0.7889 -0.9654 -0.6195
32318SOL     OW99206   3.321   4.736   3.471  0.0505  0.1289  0.5250
32318SOL    HW199207   3.264   4.813   3.469  0.3641  0.3818  1.0621
32318SOL    HW299208   3.262   4.664   3.495 -0.1052  0.3300  0.7538
32319SOL     OW99209   1.249   3.172   1.361 -0.4336 -0.2507 -0.5451
32319SOL    HW199210   1.256   3.203   1.271  1.1134  0.7068 -0.1284
32319SOL    HW299211   1.230   3.250   1.413 -1.7461 -0.8508 -0.0536
32320SOL     OW99212   0.659   7.410   8.048  0.1429  0.1196 -0.2936
32320SOL    HW199213   0.574   7.420   8.006 -0.3655  0.6100  0.8270
32320SOL    HW299214   0.672   7.492   8.096  0.8637 -0.3013  0.2473
32321SOL     OW99215   2.737  10.418   4.113  0.0761 -0.4394  0.1936
32321SOL    HW199216   2.753  10.366   4.034 -0.8986  0.1630 -0.4287
32321SOL    HW299217   2.824  10.448   4.140  0.5580 -1.6785  0.0854
32322SOL     OW99218   1.595   9.796   9.660 -0.3679  0.0978  0.1142
32322SOL    HW199219   1.621   9.720   9.607 -0.5287  2.0206 -3.0008
32322SOL    HW299220   1.508   9.819   9.628  0.9144  3.4014 -1.4221
32323SOL     OW99221   2.130   8.770   3.225  0.4609  0.1518 -0.1831
32323SOL    HW199222   2.158   8.858   3.246 -0.2663  0.5986 -1.0022
32323SOL    HW299223   2.047   8.759   3.271 -0.1855  0.4475 -1.2470
32324SOL     OW99224   3.595   0.344   0.817 -0.3413 -0.3398  0.1357
32324SOL    HW199225   3.595   0.435   0.787  0.2056 -0.3767  0.0096
32324SOL    HW299226   3.609   0.292   0.738  1.3368 -0.4228  0.4432
32325SOL     OW99227   5.090   9.771   1.081  0.3106  0.3786 -0.0998
32325SOL    HW199228   5.074   9.735   1.168  2.7820 -0.5102  0.0573
32325SOL    HW299229   5.011   9.822   1.061 -0.5529  0.1378  2.3975
32326SOL     OW99230   6.355   1.522   3.667 -0.4870 -0.4198  0.7180
32326SOL    HW199231   6.437   1.561   3.635  0.0742 -0.0897  2.4377
32326SOL    HW299232   6.307   1.596   3.705  1.1864 -1.3991  5.2720
32327SOL     OW99233   7.778   2.158   0.016 -0.2615 -0.4604 -0.6429
32327SOL    HW199234   7.811   2.068   0.010 -1.1838 -0.9184  0.5406
32327SOL    HW299235   7.685   2.147   0.037 -0.0977  0.7396  0.9353
32328SOL     OW99236   7.268   3.712   5.256 -0.1779 -0.2285 -0.0541
32328SOL    HW199237   7.294   3.666   5.176  1.8185 -0.1073  0.4626
32328SOL    HW299238   7.275   3.805   5.233  2.0521 -0.1510  0.6492
32329SOL     OW99239   1.214   4.354   5.187  0.1469 -0.0593 -0.4892
32329SOL    HW199240   1.127   4.386   5.210 -0.0817  0.1135 -1.5425
32329SOL    HW299241   1.252   4.425   5.135  0.0939 -0.9961 -1.8538
32330SOL     OW99242   5.502   8.458   0.945 -0.1384 -0.6457  0.1589
32330SOL    HW199243   5.518   8.484   1.036  0.1175 -0.8959  0.1878
32330SOL    HW299244   5.410   8.431   0.943 -0.6831  1.0671 -0.0674
32331SOL     OW99245   4.658   9.737   7.494  0.8745 -0.5019 -1.0148
32331SOL    HW199246   4.669   9.668   7.429 -0.8455 -1.3457 -0.4647
32331SOL    HW299247   4.595   9.797   7.455  0.5894 -0.4887 -0.5516
32332SOL     OW99248   7.630   6.604   6.276  0.2625 -0.2902 -0.5602
32332SOL    HW199249   7.673   6.534   6.325  1.6936 -0.1369 -1.5610
32332SOL    HW299250   7.661   6.685   6.316 -0.8353 -0.1848  0.1291
32333SOL     OW99251   7.036   4.053   1.204 -0.1112  0.3115  0.1932
32333SOL    HW199252   7.053   4.041   1.110 -2.3388 -1.2530 -0.0791
32333SOL    HW299253   7.118   4.027   1.246  0.9716  1.1361 -1.2840
32334SOL     OW99254   7.006  10.160   7.057  0.2248  0.3770  0.3613
32334SOL    HW199255   7.065  10.206   6.998  0.5045  1.0959  1.1663
32334SOL    HW299256   6.987  10.224   7.126 -0.9247 -0.0834  0.4901
32335SOL     OW99257   0.370   2.242   2.875  0.2913  0.0453 -0.1078
32335SOL    HW199258   0.387   2.208   2.962 -0.5268 -1.3495 -0.4611
32335SOL    HW299259   0.437   2.203   2.820 -0.4451 -0.7700 -0.4543
32336SOL     OW99260   8.142   6.316   1.153 -0.6400 -0.5810  0.0513
32336SOL    HW199261   8.235   6.304   1.174 -0.7574 -4.0185 -0.6964
32336SOL    HW299262   8.096   6.295   1.234 -0.8008  0.9354  0.3695
32337SOL     OW99263   3.217   6.271   2.964  0.7726  0.0487 -0.4639
32337SOL    HW199264   3.258   6.356   2.980  1.8768 -0.7206  0.9550
32337SOL    HW299265   3.240   6.218   3.040 -1.7331 -0.8672 -0.2502
32338SOL     OW99266   9.791   8.200   8.675 -0.1436  0.0892  0.7436
32338SOL    HW199267   9.783   8.146   8.597  4.0672  1.0462 -0.6088
32338SOL    HW299268   9.774   8.140   8.748  0.4905 -2.0646 -0.7797
32339SOL     OW99269   6.352   7.900   0.935 -0.4397 -0.5623 -0.3413
32339SOL    HW199270   6.325   7.904   0.843 -0.9804 -0.0480 -0.1700
32339SOL    HW299271   6.412   7.825   0.939 -0.1239 -0.3671 -1.1807
32340SOL     OW99272   5.739   5.257   2.786 -0.1075  0.2429  0.0714
32340SOL    HW199273   5.645   5.262   2.806  0.0543 -0.0705  0.9285
32340SOL    HW299274   5.742   5.243   2.691 -0.9303  0.1609  0.0479
32341SOL     OW99275   9.126   8.858   4.979 -0.0664  0.2367 -0.1297
32341SOL    HW199276   9.081   8.896   5.054 -0.3006  1.3636 -0.8022
32341SOL    HW299277   9.217   8.849   5.008  0.1537  2.0160 -0.1431
32342SOL     OW99278   2.605   8.465   8.781  0.6226 -0.3202 -0.4614
32342SOL    HW199279   2.534   8.467   8.717 -1.7067  1.2639  1.9299
32342SOL    HW299280   2.574   8.403   8.848  2.1050 -0.5303  0.0621
32343SOL     OW99281   3.919   2.324   9.547 -0.1671  0.1318  0.2527
32343SOL    HW199282   3.895   2.302   9.456  0.5198  2.0817 -0.4316
32343SOL    HW299283   3.937   2.239   9.587 -1.6116 -0.8808 -1.0838
32344SOL     OW99284   9.392   4.364   7.190 -0.0389  0.3021 -0.0347
32344SOL    HW199285   9.365   4.376   7.098 -1.3313 -2.1932 -0.0799
32344SOL    HW299286   9.337   4.425   7.239 -2.5444 -1.3365 -0.6033
32345SOL     OW99287   9.874   7.255   5.166 -0.9570  0.5927 -0.0071
32345SOL    HW199288   9.810   7.219   5.105  0.6330 -2.7878  0.1136
32345SOL    HW299289   9.943   7.291   5.111 -0.4213 -0.7309 -0.2230
32346SOL     OW99290  10.251   6.401   4.926  0.4102 -0.7093  0.1596
32346SOL    HW199291  10.274   6.474   4.983 -0.9824 -0.4684  0.4496
32346SOL    HW299292  10.292   6.422   4.842 -2.0979  1.7898 -0.5798
32347SOL     OW99293   7.893   7.320  10.618 -0.0642 -0.9396 -0.1636
32347SOL    HW199294   7.936   7.357  10.541 -2.0165 -0.3447 -1.0453
32347SOL    HW299295   7.807   7.294  10.586 -0.4182 -1.9607  1.5347
32348SOL     OW99296   2.319   3.281   5.959  0.4649 -0.9533  0.4990
32348SOL    HW199297   2.276   3.258   5.876  0.7299 -1.2173  0.4318
32348SOL    HW299298   2.252   3.328   6.008  0.4401 -0.4041 -0.0450
32349SOL     OW99299   5.475   9.691   6.619  0.2786 -0.3778  0.2715
32349SOL    HW199300   5.558   9.684   6.570  0.6556 -1.1029  0.9828
32349SOL    HW299301   5.471   9.783   6.645  1.0110 -0.3891  0.4661
32350SOL     OW99302  10.127   1.756   1.612  0.1611 -0.2962  0.1765
32350SOL    HW199303  10.115   1.777   1.519 -2.5551  0.8336  0.6849
32350SOL    HW299304  10.221   1.738   1.621  0.5993  0.1373 -2.6481
32351SOL     OW99305   9.560   7.470   9.763 -0.0588  0.3645 -0.7640
32351SOL    HW199306   9.474   7.430   9.756  1.2535 -3.0690  0.7172
32351SOL    HW299307   9.619   7.412   9.716  2.0414  0.2227  1.7665
32352SOL     OW99308   1.911   6.071   9.863  0.0280  0.8754  0.4412
32352SOL    HW199309   1.906   6.123   9.783 -0.1779  0.2650  0.0501
32352SOL    HW299310   1.858   6.119   9.926  0.5218  1.5710  0.3345
32353SOL     OW99311   7.653   7.155   3.707 -0.3133 -0.2845  0.4231
32353SOL    HW199312   7.639   7.218   3.636  0.8195  0.1070  0.5250
32353SOL    HW299313   7.641   7.205   3.787 -1.6790 -0.7470  0.5299
32354SOL     OW99314   1.888   7.121   1.496  0.4124 -0.2267  0.3429
32354SOL    HW199315   1.897   7.194   1.557  0.9292  0.8755 -1.0020
32354SOL    HW299316   1.878   7.044   1.552  2.5513  0.4978  1.8508
32355SOL     OW99317   3.118   4.450   8.118  0.2434 -0.0670  0.1435
32355SOL    HW199318   3.083   4.392   8.051  0.2229  0.2369 -0.1100
32355SOL    HW299319   3.063   4.528   8.115 -1.1728 -0.9025  2.0135
32356SOL     OW99320   5.810   3.557   4.029 -0.3544 -0.5422  0.2799
32356SOL    HW199321   5.721   3.539   4.000 -0.7198 -1.5390  1.9137
32356SOL    HW299322   5.862   3.553   3.949 -1.8924  1.1562 -0.8767
32357SOL     OW99323   2.150   9.828   3.557  0.0313 -0.4900  0.2109
32357SOL    HW199324   2.141   9.805   3.465 -0.6705 -0.3694  0.2450
32357SOL    HW299325   2.208   9.762   3.594  2.6021  0.9926 -0.9125
32358SOL     OW99326   7.729   3.356   0.020  0.2828 -0.3571  0.4015
32358SOL    HW199327   7.809   3.305   0.017  0.9229  0.4878  1.8970
32358SOL    HW299328   7.749   3.430   0.077 -1.0742  0.7583 -0.4695
32359SOL     OW99329   6.737  10.291   0.815  0.0866 -0.1441 -0.2411
32359SOL    HW199330   6.769  10.276   0.904 -0.8931  1.7681  0.4978
32359SOL    HW299331   6.652  10.333   0.827  0.3174  0.9564 -2.0663
32360SOL     OW99332   1.769   9.229   5.260 -0.4774  0.8020  0.4911
32360SOL    HW199333   1.702   9.224   5.192  0.9417  1.9521 -1.0968
32360SOL    HW299334   1.845   9.186   5.221  0.7853  2.6705  0.7627
32361SOL     OW99335   1.741   9.818   0.707 -0.0142 -0.1778  0.0659
32361SOL    HW199336   1.760   9.899   0.660  1.0177 -1.0752 -1.1150
32361SOL    HW299337   1.658   9.787   0.669 -0.3210  0.2256  0.4005
32362SOL     OW99338   6.506   4.996   6.964 -0.1071  0.4018 -0.0806
32362SOL    HW199339   6.477   5.032   6.880  0.1184  1.2629  0.2029
32362SOL    HW299340   6.599   4.977   6.952 -0.3325 -0.5880 -0.3879
32363SOL     OW99341   1.289   4.172   7.074 -0.4319 -0.5662  0.0864
32363SOL    HW199342   1.370   4.221   7.066  0.2691 -1.4928  1.0841
32363SOL    HW299343   1.301   4.120   7.154 -2.3907 -0.0077  0.8165
32364SOL     OW99344   8.868   2.323   4.592 -0.1042  0.2335  0.6380
32364SOL    HW199345   8.841   2.377   4.666 -0.3422 -0.0906  0.7876
32364SOL    HW299346   8.897   2.386   4.526 -1.6752  0.6153  0.2720
32365SOL     OW99347   1.246  10.413   7.776 -0.0809 -0.3440  0.1325
32365SOL    HW199348   1.313  10.391   7.840 -0.0239  1.2961  0.6997
32365SOL    HW299349   1.248  10.509   7.771 -1.8275 -0.2890 -0.4237
32366SOL     OW99350   1.734  10.361   3.939 -0.6674  0.2625 -0.2242
32366SOL    HW199351   1.692  10.276   3.948  0.0170 -0.2029 -1.1990
32366SOL    HW299352   1.669  10.415   3.894 -0.4470 -0.2932 -1.2399
32367SOL     OW99353   2.370  10.028   7.492 -0.7145  1.0454  0.3223
32367SOL    HW199354   2.464  10.021   7.478 -0.8441  0.4924 -0.3269
32367SOL    HW299355   2.360  10.095   7.560  0.2470 -0.1664  1.7145
32368SOL     OW99356   9.064   9.298   7.209  0.1331  0.4179 -0.1031
32368SOL    HW199357   8.973   9.302   7.239 -0.2617 -0.8558 -1.0626
32368SOL    HW299358   9.072   9.212   7.168  1.3172  1.1425 -1.4827
32369SOL     OW99359   9.645   1.052   6.983 -0.1932 -0.4852  0.1369
32369SOL    HW199360   9.571   1.101   7.020  0.4072 -0.1535  0.9247
32369SOL    HW299361   9.718   1.114   6.984 -0.3450 -0.1547 -2.5038
32370SOL     OW99362   1.915   4.208   1.437 -0.7351 -0.2357  0.2287
32370SOL    HW199363   1.884   4.287   1.481  2.0516  0.5757  0.8699
32370SOL    HW299364   1.854   4.140   1.465 -0.6053  0.7764  3.2661
32371SOL     OW99365   9.553   9.422   2.841 -0.7717  0.1841 -0.3949
32371SOL    HW199366   9.460   9.414   2.862 -0.6846 -0.1916 -0.1409
32371SOL    HW299367   9.593   9.451   2.923 -0.4873 -0.8782 -0.1487
32372SOL     OW99368   4.521   7.030   6.681 -0.6261 -0.5323 -0.1684
32372SOL    HW199369   4.600   6.998   6.638  0.1121  1.4099 -0.3558
32372SOL    HW299370   4.473   7.076   6.612 -0.9167  0.0229  0.3942
32373SOL     OW99371   4.338   1.895   3.334  0.5422 -0.1396  0.3387
32373SOL    HW199372   4.252   1.911   3.294  0.9903  0.3171 -0.4739
32373SOL    HW299373   4.399   1.941   3.277  1.6745 -2.9030 -0.8474
32374SOL     OW99374   7.425   2.074  10.374 -0.8489  0.1634 -0.0390
32374SOL    HW199375   7.402   1.981  10.381  0.2754 -0.2352 -1.2077
32374SOL    HW299376   7.520   2.076  10.380 -0.8531  1.2368 -0.1168
32375SOL     OW99377   9.169   9.483   9.277  0.5090 -0.1711  0.0956
32375SOL    HW199378   9.131   9.444   9.356  0.0919  0.0650  0.0127
32375SOL    HW299379   9.114   9.451   9.205  0.9171 -0.4258 -0.1081
32376SOL     OW99380   1.718  10.125   5.305  0.3192 -0.8525 -0.0295
32376SOL    HW199381   1.637  10.075   5.291 -0.6603  0.4274  0.7931
32376SOL    HW299382   1.715  10.149   5.398  0.9933  0.2874 -0.2789
32377SOL     OW99383   1.371   4.733   2.657 -0.7324 -0.2039 -0.3529
32377SOL    HW199384   1.429   4.663   2.686 -0.0334  0.2356 -0.6534
32377SOL    HW299385   1.343   4.706   2.570  0.4140  0.3808 -0.9348
32378SOL     OW99386   1.622   1.534   4.359 -0.4254  0.6850 -0.3296
32378SOL    HW199387   1.693   1.545   4.295  0.8865  1.9770  1.2606
32378SOL    HW299388   1.659   1.476   4.426 -1.1132  0.8265  0.1810
32379SOL     OW99389  10.326   9.809   5.713  0.0768 -0.5387 -0.0860
32379SOL    HW199390  10.296   9.759   5.636  2.6082  0.4754 -1.8930
32379SOL    HW299391  10.319   9.900   5.686 -0.9290 -0.0387  1.7487
32380SOL     OW99392   4.370   3.627   9.011  0.2276 -0.4269  0.0254
32380SOL    HW199393   4.434   3.695   8.989 -1.0966  0.3649 -1.6066
32380SOL    HW299394   4.381   3.614   9.105  1.2153  1.3322  0.2045
32381SOL     OW99395   4.238   9.009   8.653  0.1653  0.5287  0.1458
32381SOL    HW199396   4.288   9.073   8.704  1.4255  1.7201 -2.4512
32381SOL    HW299397   4.154   9.053   8.636  0.1398  0.5464  0.3100
32382SOL     OW99398   0.390   2.451   6.345 -0.2712 -0.1743 -0.3540
32382SOL    HW199399   0.465   2.451   6.405 -0.0886  1.2392 -0.5521
32382SOL    HW299400   0.402   2.372   6.293  0.1990 -0.8174  0.6877
32383SOL     OW99401   5.771   8.685   5.041  0.3383  0.3399  0.4376
32383SOL    HW199402   5.705   8.664   4.975 -1.0038 -0.6513  1.9894
32383SOL    HW299403   5.720   8.701   5.121  1.7027  3.8299  0.7707
32384SOL     OW99404   1.505   6.209   7.200 -0.2055 -0.1135  0.0166
32384SOL    HW199405   1.551   6.197   7.117 -1.7777  0.6618 -1.0278
32384SOL    HW299406   1.542   6.289   7.237  1.4091 -1.1572  0.7371
32385SOL     OW99407   2.412   1.042   0.883  0.8313  0.5270  0.6720
32385SOL    HW199408   2.363   1.113   0.843  0.4871 -0.3256 -0.4809
32385SOL    HW299409   2.487   1.085   0.925  0.6137  1.5578  0.0344
32386SOL     OW99410   5.402   1.224   0.614 -0.2302 -0.3752  0.1850
32386SOL    HW199411   5.393   1.267   0.530  2.3658  1.1669  0.5812
32386SOL    HW299412   5.314   1.196   0.637 -1.3199  0.9791 -2.0762
32387SOL     OW99413   3.830   8.615   4.467 -0.1938 -0.0287  0.6157
32387SOL    HW199414   3.873   8.696   4.439  1.2099 -1.3236 -1.2386
32387SOL    HW299415   3.750   8.612   4.415  0.1971 -0.2478  0.0158
32388SOL     OW99416   4.415   7.429   5.750  0.0056 -1.0008 -0.8473
32388SOL    HW199417   4.416   7.496   5.681  0.9409 -1.0619 -0.9041
32388SOL    HW299418   4.386   7.476   5.828  2.2078 -0.1096 -0.5042
32389SOL     OW99419   7.365   5.482   6.632  0.0465  0.3989  0.7953
32389SOL    HW199420   7.440   5.423   6.623  0.9249  1.4550  0.9928
32389SOL    HW299421   7.298   5.429   6.675  1.2050 -0.1440  2.0127
32390SOL     OW99422   4.779   2.106   8.257  0.4622  0.0909 -0.2871
32390SOL    HW199423   4.792   2.128   8.349 -1.3610 -0.1760  0.0611
32390SOL    HW299424   4.725   2.177   8.222  1.3920  0.3494 -1.2525
32391SOL     OW99425   4.041   1.130   1.193  0.5668 -0.1232  0.4765
32391SOL    HW199426   4.119   1.123   1.138  0.8446 -1.0805  0.9715
32391SOL    HW299427   3.968   1.132   1.130  1.0017  1.8209 -0.0358
32392SOL     OW99428   6.116   6.129   6.088 -1.0059  0.0677 -0.6799
32392SOL    HW199429   6.152   6.214   6.062  0.5748 -0.4923 -0.4370
32392SOL    HW299430   6.121   6.076   6.008 -0.3430 -0.3034 -0.4041
32393SOL     OW99431   4.783   1.809   8.377  0.7150  0.2936  0.5659
32393SOL    HW199432   4.863   1.808   8.431  1.1526 -0.5606 -0.0722
32393SOL    HW299433   4.729   1.878   8.416  1.8508  1.0417  0.8813
32394SOL     OW99434   8.683   0.990   1.334 -0.4490 -0.1005 -0.2811
32394SOL    HW199435   8.641   1.016   1.252 -1.3187  0.4239  0.3117
32394SOL    HW299436   8.734   0.913   1.311 -1.6070 -0.6599 -1.0835
32395SOL     OW99437   1.309   6.524   5.160 -0.0657 -0.2063 -0.2975
32395SOL    HW199438   1.327   6.554   5.249 -0.0525 -2.0054  0.3624
32395SOL    HW299439   1.313   6.603   5.106 -0.2793  0.9584  1.3181
32396SOL     OW99440   4.961   5.118   1.758  0.1617  0.1051  0.3055
32396SOL    HW199441   4.994   5.136   1.670  1.8361  0.4096  0.9585
32396SOL    HW299442   4.868   5.098   1.745  0.3449  0.2491 -1.5051
32397SOL     OW99443   7.381   4.694   5.237  0.1193 -0.7611  0.2332
32397SOL    HW199444   7.305   4.637   5.248  0.6254 -1.4765  0.1279
32397SOL    HW299445   7.450   4.652   5.289  0.4533 -0.1458  0.2974
32398SOL     OW99446   0.673   4.461   3.066  0.7143  0.5694 -0.5222
32398SOL    HW199447   0.613   4.409   3.013  0.7525  1.5151 -1.5246
32398SOL    HW299448   0.757   4.416   3.057  0.5665  0.3181 -0.6753
32399SOL     OW99449   4.893   2.415   1.188 -0.7800  0.4060  0.7194
32399SOL    HW199450   4.833   2.466   1.133 -1.7286  0.4648  1.7673
32399SOL    HW299451   4.864   2.324   1.176 -0.6488  0.3650  0.7170
32400SOL     OW99452   2.491   3.019   7.534  0.2623  0.5230  0.1108
32400SOL    HW199453   2.436   3.059   7.601  0.2309  3.0426 -1.2805
32400SOL    HW299454   2.444   3.034   7.452  0.4341 -2.1871 -0.5949
32401SOL     OW99455   5.596  10.577   9.747 -0.3990  0.0195  0.0417
32401SOL    HW199456   5.658  10.650   9.743 -0.0553 -0.2175  0.8959
32401SOL    HW299457   5.553  10.578   9.662 -1.1180  1.8462  0.3995
32402SOL     OW99458   5.941   1.888   6.920 -0.5691  0.4090  0.1808
32402SOL    HW199459   6.025   1.905   6.878 -1.2897  0.9914 -1.1012
32402SOL    HW299460   5.950   1.800   6.957  0.9853  0.9273  1.1177
32403SOL     OW99461   3.652  10.003   8.148 -0.0807  0.3419 -0.2025
32403SOL    HW199462   3.591  10.037   8.212  0.2991  0.3650  0.1492
32403SOL    HW299463   3.692   9.926   8.190  0.5660  0.6725 -0.1923
32404SOL     OW99464   4.187   4.057   5.949  0.1274  0.4857  0.3562
32404SOL    HW199465   4.144   4.123   5.894  1.0753  1.9867  1.3502
32404SOL    HW299466   4.129   4.048   6.024  0.2173  0.5000  0.4262
32405SOL     OW99467   3.093   8.124   1.505  0.2504 -0.1073  0.5008
32405SOL    HW199468   3.049   8.207   1.487  0.3170 -0.2937 -0.5657
32405SOL    HW299469   3.173   8.149   1.552  0.5083  0.4740 -0.2318
32406SOL     OW99470   5.579   0.686   2.864 -0.3345 -0.3538 -0.1480
32406SOL    HW199471   5.504   0.743   2.845  1.0524  1.3105 -0.7978
32406SOL    HW299472   5.610   0.658   2.778  1.1460  0.7958 -0.0154
32407SOL     OW99473   2.329   2.995   0.324 -0.0907 -0.0386 -0.0834
32407SOL    HW199474   2.421   3.002   0.300 -0.0366 -0.4408 -0.0133
32407SOL    HW299475   2.292   2.936   0.259  0.0197 -0.9941  0.6887
32408SOL     OW99476   0.451   0.039   0.194  0.3093 -0.2795  0.2071
32408SOL    HW199477   0.436  -0.026   0.263 -1.6935 -2.3634 -1.9702
32408SOL    HW299478   0.368   0.087   0.188 -0.0748 -1.0508 -1.5184
32409SOL     OW99479   8.971   0.804   4.246  0.2940 -0.8217 -0.2374
32409SOL    HW199480   9.037   0.849   4.299  0.6141 -0.3814 -0.9928
32409SOL    HW299481   8.923   0.749   4.309  2.0789 -2.0053  0.1494
32410SOL     OW99482   2.298   8.226   2.838  0.2267 -0.1186 -0.1650
32410SOL    HW199483   2.324   8.141   2.802 -1.4148 -0.5728 -0.3443
32410SOL    HW299484   2.322   8.289   2.771  1.6904 -0.3843  0.0694
32411SOL     OW99485   1.089   5.540   8.003 -0.1659 -0.4890  0.2540
32411SOL    HW199486   1.034   5.618   7.992  0.5149 -0.0265  0.1064
32411SOL    HW299487   1.033   5.467   7.975 -0.0215  0.1855 -1.9768
32412SOL     OW99488   7.655  10.569   0.702  0.1627 -0.1916 -0.0664
32412SOL    HW199489   7.582  10.607   0.750  1.1453  0.0420  1.3191
32412SOL    HW299490   7.625  10.483   0.675 -0.4840 -0.2536  0.8284
32413SOL     OW99491   7.821   2.042   0.314 -0.2407  0.2725  0.0269
32413SOL    HW199492   7.800   2.134   0.300 -1.1917 -0.1162 -1.2056
32413SOL    HW299493   7.760   1.993   0.258  0.9922 -1.0689 -0.2275
32414SOL     OW99494   6.502   5.290   2.372  0.6075  0.1286 -0.1429
32414SOL    HW199495   6.594   5.311   2.360  0.6948  0.2301  0.6847
32414SOL    HW299496   6.456   5.372   2.353  0.7741  0.4003  0.6017
32415SOL     OW99497   0.951   7.116   8.845  0.1795  0.2858 -0.3445
32415SOL    HW199498   1.016   7.124   8.914 -0.0043 -1.1966  0.0274
32415SOL    HW299499   0.940   7.022   8.832 -1.4634  0.4980 -0.8014
32416SOL     OW99500   4.340   8.229   6.597 -0.1142 -0.0108  0.5819
32416SOL    HW199501   4.359   8.136   6.612  0.2266 -0.1064 -0.3723
32416SOL    HW299502   4.392   8.275   6.663 -1.0860 -0.5274  1.7458
32417SOL     OW99503   1.530  10.207   9.044 -0.4241 -0.2782 -0.6593
32417SOL    HW199504   1.481  10.264   8.986  1.6488  3.3640  0.8202
32417SOL    HW299505   1.481  10.210   9.127 -0.3571 -0.7590 -0.6004
32418SOL     OW99506   5.904   7.188   4.836  0.2722  0.2472 -0.3337
32418SOL    HW199507   5.819   7.229   4.850  1.0133  1.9616 -0.5753
32418SOL    HW299508   5.900   7.155   4.746 -0.5357 -0.7705  0.0542
32419SOL     OW99509   9.100   3.760   3.108  0.3230  0.3629 -0.0965
32419SOL    HW199510   9.027   3.699   3.093  0.7440 -0.3224  0.5459
32419SOL    HW299511   9.158   3.748   3.034  0.5977 -0.3191  0.2233
32420SOL     OW99512   0.430   2.875   2.639  0.4916  0.3262 -0.0241
32420SOL    HW199513   0.493   2.877   2.567  1.4736 -2.1900  0.6356
32420SOL    HW299514   0.482   2.891   2.717  0.0012 -0.0177  0.3796
32421SOL     OW99515   8.527   6.003   1.469 -0.6133 -0.0853 -0.0027
32421SOL    HW199516   8.594   6.030   1.406  0.4537 -0.0161  1.1106
32421SOL    HW299517   8.544   5.910   1.482 -1.4469 -0.3170 -0.5241
32422SOL     OW99518   0.245   1.531  10.468 -0.8797  0.2427 -0.1367
32422SOL    HW199519   0.337   1.537  10.492 -0.7821  2.1585 -0.8310
32422SOL    HW299520   0.222   1.439  10.483  1.7296 -0.8590 -2.2133
32423SOL     OW99521   7.088   9.076   7.326 -0.1847  0.5587 -0.4047
32423SOL    HW199522   6.994   9.074   7.345  0.0831  0.0378  0.9931
32423SOL    HW299523   7.124   9.139   7.388  0.3797  0.8498 -1.0207
32424SOL     OW99524   9.670   5.643   7.472  0.4289 -0.4271  0.8740
32424SOL    HW199525   9.611   5.601   7.535 -2.2036  1.6311 -0.0725
32424SOL    HW299526   9.631   5.625   7.386  1.5510  0.4517  0.1446
32425SOL     OW99527   4.259   2.287   6.962 -0.6240 -0.6274  0.4931
32425SOL    HW199528   4.321   2.344   7.007  0.3655 -2.6877  1.9092
32425SOL    HW299529   4.229   2.226   7.029 -1.3862 -1.9664 -0.9897
32426SOL     OW99530   8.865   7.086   2.600 -0.0957  0.2326 -0.2404
32426SOL    HW199531   8.886   7.179   2.594 -0.7257  0.4446  0.5605
32426SOL    HW299532   8.794   7.082   2.665 -1.2878 -0.6073 -1.5298
32427SOL     OW99533   0.705   8.218   6.274 -0.0284 -0.0011  0.3387
32427SOL    HW199534   0.746   8.202   6.359 -2.9642 -1.3832  1.6306
32427SOL    HW299535   0.629   8.273   6.294  0.2029  1.1599 -1.6973
32428SOL     OW99536   2.069   0.790   4.928 -0.7161 -0.2020  0.0212
32428SOL    HW199537   2.085   0.860   4.991 -1.2852  0.3086 -0.4018
32428SOL    HW299538   1.974   0.781   4.925 -0.6505 -1.1366  0.2162
32429SOL     OW99539   4.734   0.341   1.739 -0.6028 -0.2399  0.0888
32429SOL    HW199540   4.758   0.386   1.819 -0.6404 -1.0703  0.5732
32429SOL    HW299541   4.816   0.310   1.702 -0.6818 -0.7920  0.3710
32430SOL     OW99542   9.241   9.466   5.635 -0.7646 -0.5137 -0.4452
32430SOL    HW199543   9.294   9.389   5.654  1.6014  1.2575  0.8712
32430SOL    HW299544   9.259   9.486   5.543  1.1179  0.1003 -0.0112
32431SOL     OW99545   6.120   9.965   1.607  0.8242  0.0392  0.0536
32431SOL    HW199546   6.110  10.056   1.578  0.6557 -0.1102 -0.3648
32431SOL    HW299547   6.054   9.955   1.676 -0.6838 -0.3830 -1.3863
32432SOL     OW99548   0.093   9.765   6.916  0.4635 -0.6996 -0.2778
32432SOL    HW199549   0.179   9.747   6.878  0.4237  0.7889 -1.1675
32432SOL    HW299550   0.044   9.809   6.846 -1.5767 -2.8260 -0.3032
32433SOL     OW99551   8.729   8.955   3.354 -0.2114 -0.0579  0.5373
32433SOL    HW199552   8.676   9.025   3.318 -0.3467  0.0472  0.9343
32433SOL    HW299553   8.801   8.999   3.400 -1.0543 -0.1109  1.9792
32434SOL     OW99554   8.927  10.301   6.070 -0.3861 -0.1562  0.1741
32434SOL    HW199555   8.996  10.308   6.005 -0.6519  0.5408 -0.0414
32434SOL    HW299556   8.962  10.240   6.136  0.7528  0.7799  0.4668
32435SOL     OW99557   3.478   9.097   7.207  0.1397 -0.1104 -0.1499
32435SOL    HW199558   3.448   9.031   7.145 -0.3328  0.1416 -0.1980
32435SOL    HW299559   3.541   9.051   7.263 -0.1298 -0.5812 -0.2291
32436SOL     OW99560   1.254   3.908   2.622 -0.4316  0.3238  0.1743
32436SOL    HW199561   1.191   3.980   2.616  0.0217  0.5736 -2.7641
32436SOL    HW299562   1.202   3.832   2.648 -2.3481  0.2059 -3.4861
32437SOL     OW99563   4.472   2.489   7.233  0.0100 -0.6364 -0.1766
32437SOL    HW199564   4.455   2.480   7.327 -0.6717  0.9677 -0.1193
32437SOL    HW299565   4.555   2.537   7.228 -1.1071  1.3939 -0.3210
32438SOL     OW99566   0.199   6.250   0.323 -0.3925  0.1318 -0.4589
32438SOL    HW199567   0.243   6.193   0.386 -0.7104 -0.9745 -1.2041
32438SOL    HW299568   0.267   6.272   0.259 -0.5189 -0.2789 -0.7404
32439SOL     OW99569   1.248   9.425   6.533  0.4306 -0.2369 -0.2982
32439SOL    HW199570   1.243   9.421   6.629  0.2651 -0.6720 -0.3221
32439SOL    HW299571   1.263   9.517   6.513  0.7146 -0.1818  0.1613
32440SOL     OW99572   9.712   1.845   6.326  0.3426  0.0562  0.7975
32440SOL    HW199573   9.657   1.910   6.282 -0.1401  0.1239  1.4954
32440SOL    HW299574   9.736   1.783   6.257 -1.6869 -0.7227  0.7490
32441SOL     OW99575   5.145   1.316   2.469 -0.5958  0.4260 -0.5350
32441SOL    HW199576   5.058   1.334   2.434 -1.4105 -0.3997  0.9778
32441SOL    HW299577   5.135   1.235   2.518  0.7983  0.8582  0.5295
32442SOL     OW99578   8.106   9.939   9.815 -0.4718 -0.5812 -0.7011
32442SOL    HW199579   8.136  10.028   9.835 -2.5008  0.3407 -1.3842
32442SOL    HW299580   8.077   9.905   9.900  0.4246 -0.6460 -0.4138
32443SOL     OW99581   5.861   1.075   9.540 -0.2518 -0.2450  0.0626
32443SOL    HW199582   5.797   1.139   9.571 -1.3084 -1.0271 -0.4339
32443SOL    HW299583   5.848   0.999   9.597  1.5728  0.2337  1.2057
32444SOL     OW99584   1.979   5.717   2.544  0.3062  0.1891  0.9640
32444SOL    HW199585   2.056   5.749   2.589  1.5013  0.6156 -1.2634
32444SOL    HW299586   1.997   5.624   2.528 -0.7884 -0.3567  2.6288
32445SOL     OW99587   6.192   6.392   7.150  0.1498  0.7216  0.1105
32445SOL    HW199588   6.231   6.419   7.067 -1.0180  1.4616 -0.2317
32445SOL    HW299589   6.112   6.346   7.125  0.0102  0.5745  0.8075
32446SOL     OW99590   3.795   6.004   1.634 -0.1276  0.3836 -0.1288
32446SOL    HW199591   3.791   5.960   1.719 -1.1556 -2.0408 -1.3519
32446SOL    HW299592   3.718   6.061   1.634 -0.5207 -0.1313  0.3005
32447SOL     OW99593   5.025   8.593   3.156  0.0611  0.2364  0.4724
32447SOL    HW199594   4.948   8.645   3.132  1.2680  1.7937 -0.2334
32447SOL    HW299595   5.034   8.606   3.250 -0.0828  0.6882  0.4256
32448SOL     OW99596   9.580   1.675   3.765  0.6707  0.1557  0.4428
32448SOL    HW199597   9.663   1.710   3.799  1.4475 -3.1216  2.4392
32448SOL    HW299598   9.557   1.606   3.827 -0.9247 -2.4265 -2.7458
32449SOL     OW99599   9.910   3.503   7.561  0.5870  0.2863  0.4239
32449SOL    HW199600   9.838   3.555   7.596 -0.4345 -0.4875 -0.4410
32449SOL    HW299601   9.873   3.415   7.550  2.0481 -0.4467  1.1481
32450SOL     OW99602   0.900   5.033   4.735  0.2806 -0.1512  0.1956
32450SOL    HW199603   0.812   5.062   4.756  0.4678  0.5894 -0.0220
32450SOL    HW299604   0.944   5.024   4.820  0.2932  0.4436  0.2544
32451SOL     OW99605   2.670   9.273   2.972  0.0872  0.1755 -0.5400
32451SOL    HW199606   2.728   9.215   3.020 -1.4411 -1.1412 -0.1758
32451SOL    HW299607   2.708   9.360   2.982  1.5925 -0.5378  0.2318
32452SOL     OW99608   7.680   7.015   2.878  0.3058 -0.1343  0.4121
32452SOL    HW199609   7.664   7.109   2.877  0.2015 -0.1490 -0.9197
32452SOL    HW299610   7.711   6.995   2.789 -0.2497 -1.4501  0.4903
32453SOL     OW99611   6.288   7.690   8.953  0.2767  0.1974  0.2326
32453SOL    HW199612   6.284   7.759   9.019  1.3258  0.5889 -0.1037
32453SOL    HW299613   6.267   7.735   8.870 -2.6025 -0.5671  0.4265
32454SOL     OW99614   4.299   0.484   8.384  0.2724 -0.3044 -0.9734
32454SOL    HW199615   4.232   0.462   8.320 -1.0106  0.3644  0.0860
32454SOL    HW299616   4.341   0.563   8.350 -1.0919  0.6365 -0.5245
32455SOL     OW99617  10.116  10.490   4.169  0.3674  0.0793 -0.2655
32455SOL    HW199618  10.026  10.489   4.138  0.2299 -0.8744  0.1430
32455SOL    HW299619  10.119  10.561   4.233  0.3359  1.2195 -1.4638
32456SOL     OW99620   0.683   0.298   1.489  0.3321  1.0366  0.0832
32456SOL    HW199621   0.698   0.274   1.581 -0.6809  2.7820  0.7776
32456SOL    HW299622   0.769   0.323   1.456  0.6783  0.5792  0.6277
32457SOL     OW99623   8.122   9.616   6.333 -0.2158  0.0657 -0.1419
32457SOL    HW199624   8.203   9.612   6.282 -0.2259 -1.5031 -0.0932
32457SOL    HW299625   8.128   9.698   6.382  1.1606  0.1628 -0.4358
32458SOL     OW99626   4.818   2.398  10.179 -0.4688  0.1473  0.0821
32458SOL    HW199627   4.762   2.377  10.104  0.3600  0.5104 -0.6557
32458SOL    HW299628   4.873   2.470  10.148 -1.6234  1.8667  1.7790
32459SOL     OW99629  10.329   6.773  10.388 -0.3557  0.1453  0.0337
32459SOL    HW199630  10.264   6.757  10.457 -0.7963  1.7129  0.0162
32459SOL    HW299631  10.401   6.817  10.433  1.4206 -2.8281  0.3454
32460SOL     OW99632   8.385   9.531   2.757  0.1630 -0.5287 -0.0750
32460SOL    HW199633   8.387   9.588   2.833  0.2438 -0.6946  0.0480
32460SOL    HW299634   8.302   9.550   2.714 -0.0294 -0.6713  0.2371
32461SOL     OW99635   6.473   0.731   8.291  0.3532 -0.6932 -0.6374
32461SOL    HW199636   6.508   0.781   8.365  0.0948 -0.2060 -0.8348
32461SOL    HW299637   6.410   0.791   8.250  2.0367 -0.1101 -2.5462
32462SOL     OW99638   6.905   2.827   8.726 -0.3188  0.0270  0.1147
32462SOL    HW199639   6.861   2.838   8.810  0.4022  3.4686  0.1881
32462SOL    HW299640   6.835   2.835   8.661 -0.4594  0.8965  0.3544
32463SOL     OW99641   5.140   3.622   5.792 -0.5977  0.4408 -0.2182
32463SOL    HW199642   5.227   3.617   5.753 -0.6036  0.9787 -0.3066
32463SOL    HW299643   5.102   3.703   5.757 -1.9270 -0.7960 -1.7881
32464SOL     OW99644   7.328   3.647   9.781  0.1183  0.0390 -0.4350
32464SOL    HW199645   7.407   3.680   9.822  1.9805 -0.2993 -3.4594
32464SOL    HW299646   7.354   3.624   9.692 -2.7762 -2.6054 -0.7945
32465SOL     OW99647   0.160  10.499   7.664 -0.0172 -0.1699  0.2470
32465SOL    HW199648   0.173  10.488   7.569 -0.4831 -0.0168  0.1632
32465SOL    HW299649   0.130  10.589   7.674  0.5028 -0.0286  0.5968
32466SOL     OW99650   3.410   1.072   1.626  0.3195 -0.0673 -0.2575
32466SOL    HW199651   3.462   1.094   1.549 -0.4379 -0.6057 -0.9459
32466SOL    HW299652   3.393   0.978   1.616 -0.4067  0.0138  0.1796
32467SOL     OW99653   4.163   1.883   9.753  0.1097  0.4255 -0.0498
32467SOL    HW199654   4.106   1.834   9.694 -1.6169 -0.3536  2.1234
32467SOL    HW299655   4.252   1.862   9.723 -0.6594 -0.6847 -1.7370
32468SOL     OW99656   6.052   2.202   5.233 -0.7988  0.3497 -0.1660
32468SOL    HW199657   6.132   2.154   5.255 -1.0210  0.4602  0.9123
32468SOL    HW299658   5.996   2.136   5.193 -0.2838  0.2094 -0.6842
32469SOL     OW99659   6.900   7.939   6.361 -0.4308  0.0541  0.0334
32469SOL    HW199660   6.989   7.934   6.325 -0.7427 -3.3441 -0.6623
32469SOL    HW299661   6.852   7.993   6.299  0.9436  1.2932 -0.0153
32470SOL     OW99662   5.344   0.202   4.319 -0.1094 -0.3755 -0.3497
32470SOL    HW199663   5.252   0.196   4.292 -0.5848 -3.5354  1.5533
32470SOL    HW299664   5.388   0.132   4.271  1.4136  1.1166 -1.2540
32471SOL     OW99665   6.574   1.467   3.968  0.0972  0.7141 -0.1195
32471SOL    HW199666   6.526   1.429   3.895  0.3645 -1.7314  0.8805
32471SOL    HW299667   6.507   1.505   4.024 -0.3980 -0.0311 -0.1956
32472SOL     OW99668  10.498  10.597   9.012 -0.5764  0.1986  0.9143
32472SOL    HW199669  10.450  10.674   9.045  1.0395  0.7169  2.2286
32472SOL    HW299670  10.484  10.530   9.079  0.1978  0.2353  1.1216
32473SOL     OW99671   2.048   6.340   1.972  0.0029 -0.1276  0.4103
32473SOL    HW199672   2.082   6.386   1.895 -2.3186  1.6496  0.3495
32473SOL    HW299673   2.037   6.250   1.943 -2.2513  0.7881 -1.9179
32474SOL     OW99674   4.067  10.550   7.389 -0.4325 -0.1655  0.3398
32474SOL    HW199675   4.121  10.476   7.418  1.2257  0.2840 -1.3786
32474SOL    HW299676   4.115  10.628   7.416 -1.0762  0.2685  0.2601
32475SOL     OW99677   6.174   9.721   5.299  0.2931 -0.0322  0.7378
32475SOL    HW199678   6.187   9.726   5.204  0.1484 -0.2364  0.7046
32475SOL    HW299679   6.124   9.640   5.311  0.6433 -0.2059  1.0216
32476SOL     OW99680   4.923   9.174   2.399  0.0112 -0.1705  0.7403
32476SOL    HW199681   5.007   9.190   2.354 -1.0375  0.4682 -1.1058
32476SOL    HW299682   4.898   9.259   2.435 -0.4142 -0.0847  0.2459
32477SOL     OW99683   4.395   5.216   5.123  0.0850 -0.0422 -0.0554
32477SOL    HW199684   4.436   5.277   5.062 -0.7767  1.2892  0.6663
32477SOL    HW299685   4.468   5.184   5.176  0.3920  1.3212  0.3739
32478SOL     OW99686   0.340   8.039   1.860  0.5200  0.3070 -0.1236
32478SOL    HW199687   0.423   8.053   1.907  0.9872  0.4725 -0.9767
32478SOL    HW299688   0.363   8.048   1.768 -0.5019  0.6004 -0.3636
32479SOL     OW99689   1.648   7.949   8.520 -0.1522 -0.1901  0.3194
32479SOL    HW199690   1.562   7.971   8.484 -0.4580  0.2246  1.2762
32479SOL    HW299691   1.708   8.012   8.479 -0.0414 -1.3289 -1.3919
32480SOL     OW99692   3.409   0.292   1.017  0.2898  0.0850  0.1950
32480SOL    HW199693   3.471   0.319   0.949  0.6996 -0.5886  0.2967
32480SOL    HW299694   3.344   0.239   0.971 -0.9077  1.7484 -0.1325
32481SOL     OW99695  10.566   3.423   5.161  0.3364  0.3939  0.0544
32481SOL    HW199696  10.633   3.418   5.092 -0.8128 -2.7769 -0.9790
32481SOL    HW299697  10.587   3.352   5.221 -0.0077  1.7087  1.8191
32482SOL     OW99698   6.739   5.372   2.702  0.0621  0.8771  0.0716
32482SOL    HW199699   6.786   5.426   2.765  0.2923 -0.0858  0.7433
32482SOL    HW299700   6.678   5.432   2.660  1.0931  1.9044 -0.0060
32483SOL     OW99701   6.143   3.567   8.819  0.3555  0.9295  0.1102
32483SOL    HW199702   6.052   3.579   8.791 -0.1373 -0.6760  0.9133
32483SOL    HW299703   6.172   3.488   8.774  0.4713 -0.0610  1.8143
32484SOL     OW99704   5.858   2.794   0.367  0.3111  0.5174 -0.4034
32484SOL    HW199705   5.796   2.828   0.303 -0.7582  0.9175  0.7876
32484SOL    HW299706   5.903   2.872   0.400 -1.2928  0.7447  1.4639
32485SOL     OW99707   4.335   3.723   2.922 -0.2328 -0.8658  0.0546
32485SOL    HW199708   4.415   3.670   2.915  0.0209 -0.6849  1.2804
32485SOL    HW299709   4.307   3.737   2.832  1.2111 -0.8073 -0.4083
32486SOL     OW99710   1.166   7.391   0.643 -0.2912 -0.4376  0.0479
32486SOL    HW199711   1.208   7.466   0.686  2.0188  0.1893 -3.0472
32486SOL    HW299712   1.072   7.409   0.653  0.1755  2.2070  0.5145
32487SOL     OW99713   8.946   6.146   3.034  0.0703 -0.4665 -0.2237
32487SOL    HW199714   8.876   6.102   3.083  0.4412 -0.9659 -0.1309
32487SOL    HW299715   8.940   6.109   2.946 -1.4591  1.3950 -0.9781
32488SOL     OW99716   1.722   2.185   4.469 -1.1812  0.2030  0.1182
32488SOL    HW199717   1.656   2.157   4.532  0.6120 -1.9832  1.1746
32488SOL    HW299718   1.802   2.138   4.495 -0.1053 -0.0771 -3.2093
32489SOL     OW99719   3.802   5.773   5.160  0.1349 -0.0407 -0.1016
32489SOL    HW199720   3.885   5.778   5.208  0.1183 -1.1444  0.0574
32489SOL    HW299721   3.826   5.742   5.073 -0.0389  0.2929 -0.2712
32490SOL     OW99722   8.696   6.852   8.234  0.1223 -0.1397  0.8280
32490SOL    HW199723   8.642   6.852   8.313  0.9967  0.9822  1.4576
32490SOL    HW299724   8.786   6.856   8.267  0.4658  1.4682 -0.2225
32491SOL     OW99725   1.307   0.397   6.447 -0.2053  0.6733  0.6315
32491SOL    HW199726   1.274   0.311   6.420  1.0496 -0.0332  1.2923
32491SOL    HW299727   1.271   0.457   6.381 -0.4304 -0.4581 -0.3204
32492SOL     OW99728   0.236   3.922   4.049  0.3473  0.0946  0.3986
32492SOL    HW199729   0.208   3.897   3.961  1.3435  1.4617 -0.3506
32492SOL    HW299730   0.192   3.860   4.107  0.0150 -1.1172 -1.0865
32493SOL     OW99731   9.198   1.501   3.901  0.5671  0.1480 -0.5242
32493SOL    HW199732   9.110   1.468   3.922 -0.1648  2.0377 -0.3636
32493SOL    HW299733   9.192   1.528   3.810  0.8675  0.6092 -0.4092
32494SOL     OW99734   1.381   6.636   5.436 -0.0726  1.1356 -0.1381
32494SOL    HW199735   1.379   6.731   5.428  1.9293  1.2030 -0.2977
32494SOL    HW299736   1.473   6.613   5.426 -0.0047 -0.5505  3.0408
32495SOL     OW99737   2.051   4.957   8.067  0.2456 -0.2352  0.4415
32495SOL    HW199738   2.029   4.965   8.160  0.4139  0.5972  0.4114
32495SOL    HW299739   2.109   4.881   8.063  0.0077 -0.4536  0.9699
32496SOL     OW99740   1.479   5.896   3.628 -0.0277  0.4554  0.3690
32496SOL    HW199741   1.427   5.908   3.548  0.1181 -0.9132  0.0495
32496SOL    HW299742   1.569   5.901   3.598  0.0511 -1.6190  0.1505
32497SOL     OW99743   8.329   7.950   0.598  0.2290 -0.4453 -0.0747
32497SOL    HW199744   8.340   7.961   0.692 -0.1862 -0.7835  0.0161
32497SOL    HW299745   8.366   7.864   0.579  0.9089 -0.1062 -0.3309
32498SOL     OW99746   0.975   4.570   9.996  0.1967 -0.1294  0.3220
32498SOL    HW199747   1.061   4.578  10.036  0.1023 -1.1914  0.7688
32498SOL    HW299748   0.977   4.628   9.920  1.2487 -0.0493  0.4090
32499SOL     OW99749  10.653   7.187   6.358  0.2060  0.1236 -0.9007
32499SOL    HW199750  10.577   7.238   6.387  0.8147  0.8204 -0.5025
32499SOL    HW299751  10.658   7.114   6.420  0.0856  0.2867 -0.6971
32500SOL     OW99752   6.750   0.828   1.808  0.0569  0.8135 -0.7189
32500SOL    HW199753   6.810   0.890   1.768  0.4097 -0.6576 -2.6449
32500SOL    HW299754   6.666   0.845   1.766  0.3340 -0.4714 -1.8787
32501SOL     OW99755   1.261   8.031  10.410  0.9474 -0.1341 -0.2986
32501SOL    HW199756   1.325   7.965  10.383  0.0488 -1.3110  0.3399
32501SOL    HW299757   1.227   7.999  10.493  0.2671  0.9966 -0.1142
32502SOL     OW99758   5.765   8.366   5.973 -0.3484 -0.3646  0.4357
32502SOL    HW199759   5.793   8.453   5.945 -1.5113 -0.0082  0.3190
32502SOL    HW299760   5.669   8.371   5.973 -0.4183 -1.4919  0.9188
32503SOL     OW99761   5.763   0.093   2.321 -0.0674 -0.4540 -0.1450
32503SOL    HW199762   5.736   0.023   2.381 -0.5357  0.3851  0.6490
32503SOL    HW299763   5.683   0.119   2.277  0.3502 -1.3817 -1.5209
32504SOL     OW99764   9.879   3.466   9.138  0.5607 -0.1247  0.6891
32504SOL    HW199765   9.945   3.515   9.187  0.9896 -1.2210  1.2357
32504SOL    HW299766   9.797   3.485   9.182  0.6935  0.2712  0.7652
32505SOL     OW99767   3.844   2.636   4.588 -0.6666 -0.0888 -0.5453
32505SOL    HW199768   3.870   2.721   4.625  0.7339 -1.2118  1.1970
32505SOL    HW299769   3.782   2.601   4.651  0.3691 -1.2533 -0.1383
32506SOL     OW99770   3.057   7.753   2.484 -0.8910 -0.4961 -0.0424
32506SOL    HW199771   2.965   7.755   2.457 -0.8462 -2.7038 -0.5965
32506SOL    HW299772   3.066   7.825   2.546 -3.1518 -0.6210  0.4995
32507SOL     OW99773  10.623   9.920   5.848  0.1240  0.0824  0.4107
32507SOL    HW199774  10.618   9.930   5.943 -1.7573 -1.2789  0.5137
32507SOL    HW299775  10.717   9.909   5.830  0.3423 -3.1045  2.5761
32508SOL     OW99776   5.614   6.012   8.783  0.2830 -0.1581  0.3888
32508SOL    HW199777   5.637   6.103   8.764  1.2183 -0.2335  1.0849
32508SOL    HW299778   5.650   5.996   8.870 -1.3087 -0.7075  0.9793
32509SOL     OW99779   2.239  10.438   9.662  0.1593 -0.3701  0.3845
32509SOL    HW199780   2.159  10.396   9.630  0.1769 -1.1123  1.2454
32509SOL    HW299781   2.231  10.435   9.757  1.0846 -0.2198  0.4812
32510SOL     OW99782   4.785   5.584   1.673  0.0960  0.6842 -0.1380
32510SOL    HW199783   4.816   5.580   1.583 -1.3061  1.7448 -0.7036
32510SOL    HW299784   4.721   5.513   1.681  0.1786  0.6245  0.0034
32511SOL     OW99785  10.621   8.436   7.204 -0.0359  0.6292  0.3881
32511SOL    HW199786  10.705   8.452   7.159  0.1497 -0.7640  0.1830
32511SOL    HW299787  10.638   8.360   7.259 -1.1928  0.2745  0.2769
32512SOL     OW99788   2.825   3.439   7.086 -0.3214  0.2515 -0.5602
32512SOL    HW199789   2.863   3.497   7.020  1.0724  0.0530  0.0422
32512SOL    HW299790   2.894   3.428   7.151 -2.0681  1.5745  1.6961
32513SOL     OW99791   9.151   2.742   8.787  0.2687 -0.1558 -0.4043
32513SOL    HW199792   9.065   2.784   8.782  0.2402 -0.2408 -0.6156
32513SOL    HW299793   9.169   2.712   8.698  1.3466  1.4912 -0.7892
32514SOL     OW99794  10.182   7.626   2.454 -0.3435 -0.2345  0.8580
32514SOL    HW199795  10.104   7.679   2.437 -0.9705 -1.7186 -1.1564
32514SOL    HW299796  10.149   7.549   2.500 -0.3972 -1.6436 -1.4027
32515SOL     OW99797   7.630   2.324   4.907  0.1613  0.2395 -0.3412
32515SOL    HW199798   7.540   2.294   4.919 -0.1101  1.1557 -0.0429
32515SOL    HW299799   7.663   2.270   4.834 -0.5898 -0.1652 -0.3948
32516SOL     OW99800   5.037   1.544   1.293  0.0066 -0.1141  0.2301
32516SOL    HW199801   5.060   1.460   1.334  0.4996 -1.6365 -2.8987
32516SOL    HW299802   5.017   1.522   1.202 -0.1159  3.1453 -0.6506
32517SOL     OW99803   2.208   9.068   3.885 -0.6062  0.7442  0.3188
32517SOL    HW199804   2.127   9.017   3.888 -0.0406 -0.4063 -1.7360
32517SOL    HW299805   2.225   9.080   3.792 -0.5072  4.5069  0.6699
32518SOL     OW99806   3.228   9.987   3.496  0.6259 -0.5326 -0.0727
32518SOL    HW199807   3.305   9.994   3.440 -0.2330 -3.2526 -1.7972
32518SOL    HW299808   3.258   9.935   3.571  0.7473 -0.6157 -0.1775
32519SOL     OW99809   8.807   4.107  10.416  0.5849 -0.0233  0.0889
32519SOL    HW199810   8.852   4.140  10.494  1.2129 -0.0687 -0.2475
32519SOL    HW299811   8.878   4.083  10.356  0.1105 -0.2357 -0.3928
32520SOL     OW99812   0.408   3.122  10.376  0.3898 -0.2085 -0.3148
32520SOL    HW199813   0.450   3.155  10.297  0.4337 -1.2395 -0.7473
32520SOL    HW299814   0.406   3.027  10.364  2.7635 -0.6933  2.0522
32521SOL     OW99815  10.336   9.803   7.443  0.3100 -0.3745  0.2691
32521SOL    HW199816  10.311   9.849   7.363 -0.5653 -0.2292  0.6091
32521SOL    HW299817  10.314   9.864   7.513  3.2417  0.4754  0.5624
32522SOL     OW99818   7.683   9.822   5.947 -0.1804  0.5074  0.2167
32522SOL    HW199819   7.696   9.884   6.019 -0.7052  1.1985 -0.2738
32522SOL    HW299820   7.588   9.811   5.942 -0.1183  0.0788 -0.0522
32523SOL     OW99821   7.759   9.057   2.352  0.2741  0.0076  0.5340
32523SOL    HW199822   7.829   9.118   2.331 -0.6592  0.1369 -2.6078
32523SOL    HW299823   7.805   8.976   2.377  1.5069  0.7485  0.7691
32524SOL     OW99824   0.666   9.331   7.790 -0.1966  0.3349 -0.9359
32524SOL    HW199825   0.605   9.264   7.819 -1.4269  1.8083  0.0412
32524SOL    HW299826   0.746   9.283   7.767 -1.1333 -1.4618 -0.5805
32525SOL     OW99827   3.774   3.644   8.296 -0.0426  0.0831  0.4674
32525SOL    HW199828   3.809   3.687   8.374  0.0196  2.0480 -0.6013
32525SOL    HW299829   3.851   3.611   8.250 -0.0069 -0.0897  0.6437
32526SOL     OW99830   3.411   2.619  10.078  0.6065  1.1820 -0.1971
32526SOL    HW199831   3.407   2.561  10.002  0.1700  2.8175 -1.4668
32526SOL    HW299832   3.344   2.586  10.137  0.7494  0.0682 -0.6215
32527SOL     OW99833   7.479   6.751   7.180 -0.1992  0.2835  0.0342
32527SOL    HW199834   7.561   6.723   7.220 -0.1528 -1.0016 -0.8973
32527SOL    HW299835   7.413   6.692   7.217 -0.2122 -0.6948 -1.4726
32528SOL     OW99836   5.988   2.909   8.236  0.0442  0.3082  0.2353
32528SOL    HW199837   5.995   2.817   8.263  3.3285  0.1469 -0.7020
32528SOL    HW299838   5.911   2.942   8.283 -0.8289 -2.7041  1.1635
32529SOL     OW99839   2.890   5.560   9.902 -0.3572  0.4806 -0.6871
32529SOL    HW199840   2.880   5.490   9.837  0.4515  0.1214 -0.4352
32529SOL    HW299841   2.964   5.532   9.956 -2.9869 -0.9402  2.5463
32530SOL     OW99842   7.829   1.496   3.692  0.2204  0.0392 -0.0820
32530SOL    HW199843   7.916   1.498   3.652  0.2358 -0.1302 -0.0613
32530SOL    HW299844   7.769   1.510   3.619  0.2846  0.6553 -0.0174
32531SOL     OW99845   0.915   3.479   4.883 -0.0274  0.2137  0.1848
32531SOL    HW199846   0.992   3.432   4.851  0.6739  0.5391  1.3254
32531SOL    HW299847   0.848   3.463   4.817  1.2017  0.4586 -1.1787
32532SOL     OW99848   5.317   3.723   3.981  0.2196  0.5654  0.1532
32532SOL    HW199849   5.288   3.709   4.072  0.4507  1.2619  0.3375
32532SOL    HW299850   5.317   3.635   3.943 -1.1091  0.4091  0.4560
32533SOL     OW99851   5.810   8.516   8.447  0.4528 -0.3759 -0.4453
32533SOL    HW199852   5.731   8.499   8.498  0.7570  1.6190  0.8491
32533SOL    HW299853   5.784   8.503   8.356 -1.3337  0.0368 -0.0406
32534SOL     OW99854   8.530   6.289   5.029 -0.3754 -0.4021  0.4211
32534SOL    HW199855   8.600   6.314   5.089 -0.2894  1.2629 -0.3043
32534SOL    HW299856   8.526   6.194   5.034  1.2298 -0.4532  1.2703
32535SOL     OW99857   6.514   2.190   1.951  0.1142 -0.1270 -0.7075
32535SOL    HW199858   6.443   2.131   1.976 -0.2737  0.5168 -0.2596
32535SOL    HW299859   6.589   2.132   1.935 -0.8129 -0.9446 -2.3875
32536SOL     OW99860   1.477   3.321   0.351  0.4306 -0.0399 -0.1333
32536SOL    HW199861   1.549   3.361   0.400 -0.3420 -0.0993  1.0883
32536SOL    HW299862   1.446   3.391   0.293  0.1758  0.6235  0.7831
32537SOL     OW99863   0.234   0.893   3.626  0.0113  0.8309 -0.1067
32537SOL    HW199864   0.169   0.953   3.588  0.8752  2.0302  0.2209
32537SOL    HW299865   0.265   0.841   3.552 -1.9007 -0.3588 -0.1247
32538SOL     OW99866   2.061   5.608   1.207  0.1595  0.4998 -0.0686
32538SOL    HW199867   2.123   5.536   1.202  1.7689  1.8367 -0.3219
32538SOL    HW299868   2.083   5.664   1.132 -1.5560  0.8811 -0.3348
32539SOL     OW99869   5.383   1.673   1.013 -0.4001 -0.2137 -0.3677
32539SOL    HW199870   5.353   1.729   0.942 -1.8129  0.1539  0.4975
32539SOL    HW299871   5.464   1.715   1.044 -1.0240  0.9402 -0.2412
32540SOL     OW99872   8.341  10.264   4.778  0.5364 -0.0317 -0.0636
32540SOL    HW199873   8.313  10.243   4.867 -3.3233  1.7750 -0.6415
32540SOL    HW299874   8.387  10.347   4.786  0.3704  0.0296  0.2559
32541SOL     OW99875   2.687   4.642  10.221 -0.0142  0.3917 -0.3902
32541SOL    HW199876   2.622   4.611  10.285  0.7242  0.5040  0.4288
32541SOL    HW299877   2.751   4.571  10.216  0.3521  0.7230 -0.4036
32542SOL     OW99878   3.722   5.381   8.763 -0.2868  0.0753 -0.0605
32542SOL    HW199879   3.730   5.286   8.766 -2.4652 -0.1805 -0.8790
32542SOL    HW299880   3.697   5.401   8.673  1.4110  1.5941 -0.2761
32543SOL     OW99881   0.588   0.095   5.218  0.0097  0.1591  0.4997
32543SOL    HW199882   0.578   0.153   5.293 -0.8557 -0.2086  0.6847
32543SOL    HW299883   0.501   0.093   5.178  0.7100  1.2610 -1.2070
32544SOL     OW99884   9.368   3.373   1.277  0.1333  0.0405  0.0771
32544SOL    HW199885   9.409   3.322   1.347 -2.4874 -2.0359  0.2373
32544SOL    HW299886   9.417   3.348   1.198  0.3466 -0.9572  0.5098
32545SOL     OW99887   8.195   3.767   5.271 -0.6529 -0.4157 -0.1136
32545SOL    HW199888   8.229   3.855   5.289  1.7653 -1.5131  1.2019
32545SOL    HW299889   8.119   3.758   5.329  0.3333  0.0943  1.3055
32546SOL     OW99890   9.237   5.727   9.046  0.0286 -0.1333 -0.4162
32546SOL    HW199891   9.304   5.660   9.048  0.3077  0.1245 -0.9562
32546SOL    HW299892   9.282   5.808   9.071 -0.7986 -0.5082  2.8223
32547SOL     OW99893  10.006   1.733   8.566 -0.2923  0.0697  0.1050
32547SOL    HW199894  10.030   1.816   8.608 -0.2632 -1.2054  2.8724
32547SOL    HW299895  10.086   1.705   8.522  0.2811  0.6197  0.7674
32548SOL     OW99896  10.019  10.470   2.727  0.2951 -0.1941 -0.2456
32548SOL    HW199897   9.955  10.405   2.698  0.1845  0.1043 -0.6800
32548SOL    HW299898  10.099  10.419   2.743  0.5567 -0.2884 -1.7224
32549SOL     OW99899  10.057   3.813   9.572  0.0427 -0.0696  0.6578
32549SOL    HW199900  10.054   3.828   9.477 -0.6825 -2.4715  0.2465
32549SOL    HW299901  10.107   3.887   9.606 -2.7528  2.9319 -1.1257
32550SOL     OW99902   9.094   2.777   3.818  1.1208  0.0307  0.5307
32550SOL    HW199903   9.048   2.761   3.901 -1.2618  2.5320 -0.1450
32550SOL    HW299904   9.143   2.858   3.833  1.4812 -0.0413 -0.2006
32551SOL     OW99905   9.171   0.712   7.772 -0.0610 -0.3625 -0.3769
32551SOL    HW199906   9.187   0.773   7.845 -1.7950  0.3819 -0.5737
32551SOL    HW299907   9.251   0.717   7.720  0.6111  0.2532  0.6515
32552SOL     OW99908   4.597   0.730   3.120 -0.6509 -0.4795  0.1347
32552SOL    HW199909   4.650   0.790   3.068  0.8994 -1.0036  1.0562
32552SOL    HW299910   4.537   0.786   3.168  0.1964  0.2737  0.3369
32553SOL     OW99911   1.644   9.382   7.952 -0.7032  0.3613 -0.1580
32553SOL    HW199912   1.699   9.458   7.931 -0.7926  1.1196  2.0626
32553SOL    HW299913   1.652   9.325   7.876  2.0713  1.0499 -0.5003
32554SOL     OW99914   0.014   1.393   0.940  0.3308  0.1974  0.0091
32554SOL    HW199915  -0.008   1.330   0.872 -0.0621  2.4183 -2.0646
32554SOL    HW299916   0.103   1.371   0.966 -0.4794 -2.4240  0.9146
32555SOL     OW99917   1.951   7.833   0.217  0.1002 -0.0125 -0.6315
32555SOL    HW199918   1.898   7.863   0.143 -0.1444  1.2721  0.0497
32555SOL    HW299919   2.042   7.848   0.188 -0.0038  0.8176 -0.5433
32556SOL     OW99920   1.832   3.146   4.595  0.3865  0.0075  0.3480
32556SOL    HW199921   1.832   3.239   4.616  2.4430 -0.1474  1.1757
32556SOL    HW299922   1.924   3.122   4.586 -0.1328 -1.7095 -1.0263
32557SOL     OW99923   5.725  10.098  10.137  0.0173  0.1621 -0.1739
32557SOL    HW199924   5.751  10.182  10.098 -2.0872  0.9942  0.1042
32557SOL    HW299925   5.651  10.069  10.085 -0.4861 -0.5581  0.9223
32558SOL     OW99926   4.279  10.597   6.960  0.0098  0.2119 -0.6609
32558SOL    HW199927   4.355  10.557   7.001  0.6128  2.1765  0.2782
32558SOL    HW299928   4.204  10.549   6.996  0.6670  0.1936  0.7614
32559SOL     OW99929   8.370   2.129   6.228  0.1057  0.1634 -0.0770
32559SOL    HW199930   8.448   2.098   6.183  0.4049  0.5149  0.1908
32559SOL    HW299931   8.343   2.056   6.283  0.0819 -0.0582 -0.3819
32560SOL     OW99932   2.305   3.238   3.405  0.3288 -0.6944 -0.2995
32560SOL    HW199933   2.398   3.252   3.387  0.0572  1.9381 -0.0454
32560SOL    HW299934   2.284   3.301   3.474 -1.9897 -0.0103 -1.5146
32561SOL     OW99935   9.499   0.355   1.955 -0.3247 -0.2362  0.7549
32561SOL    HW199936   9.519   0.447   1.974 -1.7181  0.7195 -1.9165
32561SOL    HW299937   9.413   0.341   1.997 -0.3360 -0.1789  0.7522
32562SOL     OW99938   9.015   0.490   5.781  0.4135  0.1628 -0.8015
32562SOL    HW199939   8.975   0.407   5.806 -1.9593  0.9567 -1.6607
32562SOL    HW299940   9.057   0.473   5.697  0.6162 -0.3433 -0.5974
32563SOL     OW99941   0.155   3.847   9.103 -0.3712 -0.3478 -0.1926
32563SOL    HW199942   0.096   3.779   9.070 -0.7352 -1.1233  1.8837
32563SOL    HW299943   0.193   3.809   9.183 -1.3105  2.1925  1.5868
32564SOL     OW99944   2.817   8.992   9.910 -0.0538  0.6340  0.1771
32564SOL    HW199945   2.747   8.975   9.847  1.7204  0.6162 -1.9299
32564SOL    HW299946   2.862   9.070   9.876  0.3635  1.2569  2.0232
32565SOL     OW99947   5.938   4.906  10.381  0.3830  0.2620 -0.1123
32565SOL    HW199948   5.887   4.987  10.380  1.0281  0.6957 -1.8863
32565SOL    HW299949   5.909   4.858  10.303  2.8228  0.6536 -1.3351
32566SOL     OW99950   5.417   0.473   8.390  0.7668 -0.1954  0.5115
32566SOL    HW199951   5.367   0.404   8.433  0.3010 -0.8244 -0.9766
32566SOL    HW299952   5.493   0.430   8.354  0.4188  0.0261 -0.5239
32567SOL     OW99953   1.064   3.419  10.205  0.7460 -0.1766 -0.3198
32567SOL    HW199954   1.046   3.505  10.166 -0.1216 -0.9938 -1.7736
32567SOL    HW299955   1.047   3.432  10.298  1.5529  1.4666 -0.3574
32568SOL     OW99956   3.311   2.079   7.655  0.2527  0.3430  0.2273
32568SOL    HW199957   3.246   2.143   7.685 -0.7391 -0.2479 -0.5723
32568SOL    HW299958   3.394   2.112   7.688 -0.3757  1.4445  0.7832
32569SOL     OW99959   3.923   7.133   1.724  0.2088 -0.9594 -0.0102
32569SOL    HW199960   3.871   7.086   1.789 -0.2467 -0.5236 -0.0481
32569SOL    HW299961   4.012   7.103   1.738  0.4533  0.5006  2.0982
32570SOL     OW99962   0.912   5.293   7.889 -0.3336 -0.1188  0.5994
32570SOL    HW199963   0.953   5.324   7.808 -0.9433  1.3353  0.8189
32570SOL    HW299964   0.869   5.211   7.864 -0.4783  0.2930 -0.5378
32571SOL     OW99965   5.063   0.841   5.095  0.4323 -0.7748 -0.5449
32571SOL    HW199966   4.990   0.784   5.070  0.9626 -1.5081 -0.4740
32571SOL    HW299967   5.055   0.917   5.038  0.4642 -1.5194 -1.5674
32572SOL     OW99968   8.258   2.886   7.923  0.1748  0.6977  0.2657
32572SOL    HW199969   8.173   2.920   7.948 -0.3567  0.4774 -1.1530
32572SOL    HW299970   8.258   2.795   7.953  0.2957  0.9690  1.1071
32573SOL     OW99971   5.777   7.907   3.802  0.1496 -0.5798 -0.8986
32573SOL    HW199972   5.807   7.889   3.713  3.4297  1.2802 -0.3471
32573SOL    HW299973   5.857   7.912   3.854 -1.5500 -0.2055  1.9003
32574SOL     OW99974   9.677   2.245  10.420  0.7618  0.4445 -0.9613
32574SOL    HW199975   9.589   2.283  10.415  0.9808  1.4490  1.5149
32574SOL    HW299976   9.662   2.150  10.418 -0.4284  0.5964 -0.2865
32575SOL     OW99977   7.408   3.980   3.211 -0.8749 -0.2047  0.0424
32575SOL    HW199978   7.504   3.976   3.218 -1.0241 -1.6421  2.1718
32575SOL    HW299979   7.388   3.938   3.128  0.3807  1.8740 -1.4255
32576SOL     OW99980   4.777   3.809   8.904 -0.1492 -0.1432  0.0381
32576SOL    HW199981   4.849   3.760   8.944 -0.2883 -0.1026  0.3374
32576SOL    HW299982   4.810   3.899   8.897 -0.2257 -0.0944  0.3083
32577SOL     OW99983   3.719   7.136   3.391  0.0139  0.2633 -0.2004
32577SOL    HW199984   3.774   7.202   3.435  0.3080  0.2569 -0.5548
32577SOL    HW299985   3.700   7.175   3.305  0.0565 -0.0470 -0.3491
32578SOL     OW99986   7.915   6.756   7.201  0.1181 -0.5869  0.2603
32578SOL    HW199987   7.876   6.678   7.241  0.1922 -0.9446 -0.3541
32578SOL    HW299988   7.869   6.765   7.117 -1.5572  1.3991  1.3127
32579SOL     OW99989   3.669   4.351   2.359  0.6044  0.5598 -0.4170
32579SOL    HW199990   3.629   4.304   2.286  0.0913 -0.5200  0.5187
32579SOL    HW299991   3.681   4.284   2.426  1.0754  1.5216  0.4827
32580SOL     OW99992   5.639   0.338   8.022 -0.3267  0.6117 -0.1074
32580SOL    HW199993   5.543   0.344   8.017 -0.3069  0.7737 -0.2871
32580SOL    HW299994   5.664   0.407   8.084 -0.1483  2.0757 -1.7316
32581SOL     OW99995   1.266   4.003   8.049 -0.4027 -0.1049 -0.1778
32581SOL    HW199996   1.355   3.976   8.026 -0.8308 -0.7653 -1.1368
32581SOL    HW299997   1.255   3.975   8.140 -0.0113 -1.0609 -0.4144
32582SOL     OW99998   2.102   6.770   5.589 -0.3408  0.1681 -0.1798
32582SOL    HW199999   2.023   6.806   5.628 -0.6152 -1.0529  0.4422
32582SOL    HW2    0   2.161   6.845   5.578 -1.9866  1.3230 -1.7515
32583SOL     OW    1   0.299   9.877   4.889  0.2512 -0.4064 -0.2267
32583SOL    HW1    2   0.379   9.892   4.839  0.6866  1.6639  0.9935
32583SOL    HW2    3   0.280   9.961   4.931 -1.3309 -1.4517  1.3108
32584SOL     OW    4   1.737   8.300   7.776 -0.0647 -0.4418  0.3569
32584SOL    HW1    5   1.761   8.306   7.683  0.3498  1.3811  0.5481
32584SOL    HW2    6   1.734   8.390   7.806 -0.3207 -0.9959  2.1109
32585SOL     OW    7   7.055   6.842   8.504 -0.3953  0.1674 -0.1105
32585SOL    HW1    8   7.122   6.878   8.561 -0.1568 -1.1410  0.4721
32585SOL    HW2    9   7.050   6.749   8.527 -2.0815  0.1265 -0.4504
32586SOL     OW   10   3.949   8.443   0.277 -0.3405  0.3209 -0.9381
32586SOL    HW1   11   3.952   8.476   0.187 -0.8542 -2.0805 -1.9141
32586SOL    HW2   12   3.871   8.387   0.280  0.1048 -0.2763  0.7665
32587SOL     OW   13   0.278   3.138   8.876 -0.3666  0.0892  0.4719
32587SOL    HW1   14   0.313   3.061   8.831 -0.5110  1.1255 -1.5244
32587SOL    HW2   15   0.349   3.202   8.872 -0.1037 -0.0051  2.4633
32588SOL     OW   16   6.900   7.850   5.275  0.3787  0.5200 -0.3678
32588SOL    HW1   17   6.931   7.928   5.321 -0.0593  1.4888 -1.6818
32588SOL    HW2   18   6.929   7.861   5.185  1.0579 -1.2718 -0.4250
32589SOL     OW   19   4.438   0.841   9.284 -0.1419 -0.2247  0.0855
32589SOL    HW1   20   4.405   0.931   9.281 -0.1125 -0.2257 -0.3443
32589SOL    HW2   21   4.486   0.830   9.202 -1.2202 -1.0387 -0.4592
32590SOL     OW   22   0.798  10.052   4.792 -0.5166 -0.1012 -0.8156
32590SOL    HW1   23   0.778   9.992   4.863  2.1087 -0.3837 -0.2007
32590SOL    HW2   24   0.750  10.132   4.814  0.9969  0.1998  1.9662
32591SOL     OW   25   4.694   7.409  10.142  0.3381 -0.1160 -0.3688
32591SOL    HW1   26   4.616   7.464  10.145  0.3811 -0.0053 -1.0476
32591SOL    HW2   27   4.729   7.422  10.054  1.8177  0.7857  0.3208
32592SOL     OW   28   9.814   3.244   0.693  0.0575  0.0568  0.1539
32592SOL    HW1   29   9.865   3.285   0.624  1.2703  0.5244  1.2977
32592SOL    HW2   30   9.728   3.286   0.687  1.1177  2.5243  1.0226
32593SOL     OW   31   8.234   5.025   6.577 -0.1269  0.3869  0.4716
32593SOL    HW1   32   8.267   5.098   6.523  0.6511 -1.1483 -1.2264
32593SOL    HW2   33   8.138   5.034   6.573 -0.0568  0.8851 -0.3579
32594SOL     OW   34  10.354   1.056   1.941  0.2389  0.3092 -0.3060
32594SOL    HW1   35  10.374   1.072   1.849  0.2462  0.1066 -0.3407
32594SOL    HW2   36  10.260   1.075   1.949  0.2649  0.4480 -0.3274
32595SOL     OW   37   4.111   4.425   4.038 -0.6196 -0.0242 -0.0062
32595SOL    HW1   38   4.136   4.374   3.961 -0.3340 -0.1190  0.1510
32595SOL    HW2   39   4.015   4.426   4.035 -0.6381 -0.8779  0.1951
32596SOL     OW   40   2.820   4.495   1.867  0.0476  0.1336 -0.1028
32596SOL    HW1   41   2.724   4.495   1.875  0.0226  1.5767 -0.0617
32596SOL    HW2   42   2.840   4.413   1.822 -1.1183 -0.6504  0.7346
32597SOL     OW   43   6.943   9.083   8.841 -0.3995 -0.1914 -0.3584
32597SOL    HW1   44   6.973   9.071   8.751  1.6648  2.0558 -0.0902
32597SOL    HW2   45   6.911   9.173   8.843 -1.9054 -0.7158  0.8066
32598SOL     OW   46   6.254   4.820   4.987  0.4876  0.9742  0.0880
32598SOL    HW1   47   6.193   4.817   5.061  0.5143  1.9164  0.1583
32598SOL    HW2   48   6.209   4.872   4.921  0.8180  0.8529 -0.2381
32599SOL     OW   49   2.881   8.502   8.199 -0.3284 -0.0396  0.1724
32599SOL    HW1   50   2.961   8.546   8.229 -0.4493 -0.7159  1.6055
32599SOL    HW2   51   2.868   8.431   8.263  0.3774 -2.7866 -2.5265
32600SOL     OW   52   8.890   4.056   9.081  0.5569  0.1124  0.4353
32600SOL    HW1   53   8.868   4.059   8.988 -2.4725  0.7047  1.0832
32600SOL    HW2   54   8.819   4.007   9.122  2.0871 -0.6055  2.4082
32601SOL     OW   55  10.515  10.494   3.953  0.5305  0.9996 -0.0865
32601SOL    HW1   56  10.572  10.451   3.889  1.0141  0.6898  0.5393
32601SOL    HW2   57  10.433  10.509   3.906  0.4131 -0.4337 -0.3802
32602SOL     OW   58   0.476   9.393   5.287  0.1223  0.6115  0.4907
32602SOL    HW1   59   0.485   9.408   5.193 -0.4220  1.9219  0.6107
32602SOL    HW2   60   0.413   9.460   5.315  0.0816  0.0732  1.7389
32603SOL     OW   61   0.350   5.694   3.340  0.3090 -0.0539 -0.1657
32603SOL    HW1   62   0.428   5.740   3.370  0.0636 -0.6263  1.4432
32603SOL    HW2   63   0.385   5.618   3.292  0.7101  0.7593 -1.1992
32604SOL     OW   64   3.197   4.549   2.864 -0.2684 -0.1458  0.1862
32604SOL    HW1   65   3.256   4.587   2.929 -0.0341  1.2997 -0.8036
32604SOL    HW2   66   3.109   4.571   2.895 -0.1875 -0.0807  0.3685
32605SOL     OW   67   8.866   2.528   6.610 -0.0592 -0.1994 -0.3380
32605SOL    HW1   68   8.893   2.485   6.691 -0.6430 -0.5588 -0.3290
32605SOL    HW2   69   8.925   2.603   6.602  0.6450 -0.7146 -0.0922
32606SOL     OW   70   9.684   2.043   9.684  0.1525 -0.1319 -0.4388
32606SOL    HW1   71   9.595   2.079   9.688 -0.6435 -1.6889 -2.4597
32606SOL    HW2   72   9.725   2.086   9.610  0.6085 -0.4361 -0.3704
32607SOL     OW   73   2.515   2.773   7.229  0.6458 -0.2902  0.1406
32607SOL    HW1   74   2.542   2.719   7.155 -0.0967  1.2341 -1.3065
32607SOL    HW2   75   2.450   2.720   7.275 -0.5106 -0.4529 -1.5879
32608SOL     OW   76   7.581   8.841   3.036  0.2323 -0.4046  0.4631
32608SOL    HW1   77   7.590   8.775   2.966  0.4600 -0.1471  0.2467
32608SOL    HW2   78   7.488   8.841   3.057  0.5051 -2.3722  2.0026
32609SOL     OW   79   3.668   5.562   3.882  0.5810  0.1987 -0.1485
32609SOL    HW1   80   3.632   5.498   3.943  0.7647  0.2540  0.0201
32609SOL    HW2   81   3.725   5.617   3.936 -0.4752  1.2391 -0.0423
32610SOL     OW   82   3.893   4.713   7.365 -0.1449 -0.4565 -0.7535
32610SOL    HW1   83   3.805   4.692   7.395  0.1943 -1.0743 -0.1500
32610SOL    HW2   84   3.941   4.735   7.445  0.5045 -1.1052 -0.9552
32611SOL     OW   85   1.377  10.319   3.005 -0.0670  0.4154  0.3442
32611SOL    HW1   86   1.452  10.260   2.994 -0.0777  0.5023 -0.1834
32611SOL    HW2   87   1.361  10.355   2.918 -1.1876 -0.1500  0.3053
32612SOL     OW   88   7.644   9.377   6.356  0.0263  0.2634  0.0020
32612SOL    HW1   89   7.597   9.295   6.371  0.1371 -0.0186 -1.0677
32612SOL    HW2   90   7.714   9.353   6.295 -0.0026  1.1805 -0.4058
32613SOL     OW   91   0.158   8.449  10.626  0.0770 -0.2999  0.1897
32613SOL    HW1   92   0.139   8.517  10.691 -1.2580 -0.2471 -0.2325
32613SOL    HW2   93   0.196   8.378  10.676 -1.2754 -0.4105  1.1195
32614SOL     OW   94   8.485   8.081   6.486 -0.9973 -0.1988 -0.1460
32614SOL    HW1   95   8.439   8.163   6.504 -2.0493 -0.9016  0.4350
32614SOL    HW2   96   8.562   8.108   6.435 -0.8929  1.2225  0.7172
32615SOL     OW   97   8.268   9.068   0.959 -0.1646  0.4958 -0.8788
32615SOL    HW1   98   8.241   9.046   1.049 -0.6079 -1.1001 -1.3700
32615SOL    HW2   99   8.275   9.163   0.959  0.8106  0.4715  1.1239
32616SOL     OW  100   3.513   3.379   0.598 -0.3581  0.0932 -0.2127
32616SOL    HW1  101   3.485   3.355   0.686 -0.3521 -1.1739 -0.5457
32616SOL    HW2  102   3.443   3.435   0.565 -0.2443  0.7884  0.6674
32617SOL     OW  103   7.125   0.412   4.094 -0.1713 -0.0995 -0.1612
32617SOL    HW1  104   7.090   0.468   4.162 -1.9798 -0.1833 -0.9617
32617SOL    HW2  105   7.063   0.340   4.088  0.5734 -0.6871 -1.1101
32618SOL     OW  106  10.188   1.700   0.217 -0.0364 -0.0740 -0.0299
32618SOL    HW1  107  10.131   1.712   0.141  0.2269  0.6027 -0.1306
32618SOL    HW2  108  10.152   1.757   0.284  2.6331  3.4766 -1.2901
32619SOL     OW  109   4.057   0.329   5.950  0.1459 -0.8343  0.0416
32619SOL    HW1  110   3.974   0.363   5.981  1.4598 -0.0303  2.9710
32619SOL    HW2  111   4.051   0.234   5.962 -1.1266 -1.0842 -2.0256
32620SOL     OW  112   8.850   5.157   9.618 -0.2014 -0.3383 -0.3514
32620SOL    HW1  113   8.903   5.207   9.557  1.5630 -1.7613 -0.0524
32620SOL    HW2  114   8.796   5.100   9.563  0.0413 -0.3144 -0.6126
32621SOL     OW  115   9.089   6.769  10.424  0.4181  0.5311  0.0425
32621SOL    HW1  116   9.001   6.788  10.394  0.8871  1.6856 -0.6443
32621SOL    HW2  117   9.077   6.720  10.506 -0.8554 -0.6692 -0.8303
32622SOL     OW  118   4.157   2.363   9.358 -0.4318 -0.0279  0.0734
32622SOL    HW1  119   4.118   2.388   9.442 -0.9237  0.1341 -0.1988
32622SOL    HW2  120   4.241   2.409   9.356 -0.7170  0.5075  0.1883
32623SOL     OW  121   0.757   7.879   5.826 -0.8894 -0.2302 -0.7299
32623SOL    HW1  122   0.672   7.838   5.846 -1.0449 -0.1552 -1.2335
32623SOL    HW2  123   0.820   7.826   5.875 -0.8718 -2.2442 -2.7583
32624SOL     OW  124   1.576   1.263   5.774  0.4786  0.0431 -0.0858
32624SOL    HW1  125   1.666   1.293   5.761  0.4525  0.8414  1.3136
32624SOL    HW2  126   1.530   1.339   5.811 -1.4977  0.5247 -3.1507
32625SOL     OW  127   3.058   9.697   4.090 -0.2427  0.4406 -0.1679
32625SOL    HW1  128   2.977   9.749   4.096 -0.7781 -0.4566  0.6679
32625SOL    HW2  129   3.045   9.626   4.153  0.9049 -0.1270 -0.5575
32626SOL     OW  130   6.170   8.427   6.823  0.1633  0.2576  0.1344
32626SOL    HW1  131   6.088   8.405   6.779 -1.0402  2.0552  1.3367
32626SOL    HW2  132   6.173   8.369   6.899 -0.3911  0.7089  0.5040
32627SOL     OW  133   8.765   4.720   0.475  0.0146 -0.0802  0.1316
32627SOL    HW1  134   8.822   4.789   0.440  0.3646 -0.6917 -0.5419
32627SOL    HW2  135   8.722   4.760   0.550  0.9685  0.5533  0.3604
32628SOL     OW  136   2.535   9.920  10.198  0.3480 -0.5784  0.3485
32628SOL    HW1  137   2.460   9.881  10.242  0.6466  0.1806  1.5825
32628SOL    HW2  138   2.568   9.986  10.260  0.3388  1.0622 -1.3045
32629SOL     OW  139  10.149   9.968  10.558 -0.0196 -0.6429  0.0912
32629SOL    HW1  140  10.167  10.010  10.474  1.7365 -1.0786  0.2163
32629SOL    HW2  141  10.235   9.945  10.592 -0.7228 -0.8290  1.8362
32630SOL     OW  142   9.655   8.128   6.367 -0.5022  0.0447 -0.1204
32630SOL    HW1  143   9.653   8.173   6.282 -0.6131  1.0701  0.4129
32630SOL    HW2  144   9.748   8.127   6.391 -0.5272  0.2065 -0.0173
32631SOL     OW  145   7.755   3.583   8.082 -0.1919 -0.1038  0.2231
32631SOL    HW1  146   7.715   3.571   8.169  0.2326 -1.2479  0.2747
32631SOL    HW2  147   7.755   3.495   8.044  0.6590  0.1972 -0.4867
32632SOL     OW  148   4.236   3.103   4.764 -0.3316  0.1056  0.2063
32632SOL    HW1  149   4.238   3.019   4.809 -2.2808  0.0774  0.3260
32632SOL    HW2  150   4.157   3.099   4.709  0.0596  1.4957 -0.4985
32633SOL     OW  151   5.981   3.120   2.793 -0.3339 -0.2477 -0.3767
32633SOL    HW1  152   5.954   3.030   2.779 -0.5528 -0.2477  0.0229
32633SOL    HW2  153   6.044   3.115   2.866 -0.1488 -0.1114 -0.5275
32634SOL     OW  154   4.514   1.881   8.483  0.6540  0.0120  0.4459
32634SOL    HW1  155   4.523   1.789   8.460 -0.6736 -0.1415  0.4548
32634SOL    HW2  156   4.422   1.891   8.506  0.5944  1.5130 -0.3142
32635SOL     OW  157  10.293  10.034   4.986 -0.4028  0.3280 -0.5361
32635SOL    HW1  158  10.217   9.976   4.988 -1.3498  1.4396 -1.7667
32635SOL    HW2  159  10.342  10.013   5.065 -1.3379 -1.2825 -0.3375
32636SOL     OW  160   9.851   6.110   1.511 -0.1668  0.2702  0.2871
32636SOL    HW1  161   9.860   6.160   1.592 -0.2749  0.2114  0.3365
32636SOL    HW2  162   9.756   6.105   1.497 -0.1181  2.5972 -1.2929
32637SOL     OW  163   8.435   8.969   2.677 -0.2901  0.2865 -0.0186
32637SOL    HW1  164   8.393   8.959   2.763 -0.4508 -1.2673 -0.2513
32637SOL    HW2  165   8.473   9.057   2.680 -0.7617  0.4826  1.4335
32638SOL     OW  166   7.406   4.404   7.492 -0.3232  0.3791  0.0184
32638SOL    HW1  167   7.397   4.332   7.555  0.0918 -0.3706 -0.7560
32638SOL    HW2  168   7.482   4.453   7.523  1.1739 -1.1725 -0.9801
32639SOL     OW  169   9.109   1.294   9.688  0.1908  0.2714 -0.2318
32639SOL    HW1  170   9.113   1.229   9.618 -2.2411  0.1872 -0.3762
32639SOL    HW2  171   9.133   1.246   9.767  0.2843 -0.3349 -0.6234
32640SOL     OW  172   1.676   9.778   8.240 -0.2747  0.3377 -0.3724
32640SOL    HW1  173   1.748   9.771   8.177 -0.4414  0.9102 -0.6333
32640SOL    HW2  174   1.640   9.689   8.246 -0.0202  0.2053 -0.8052
32641SOL     OW  175   8.687   9.139   2.053  0.0637  0.2145 -0.3200
32641SOL    HW1  176   8.617   9.203   2.041  1.8919  2.2501 -0.8089
32641SOL    HW2  177   8.767   9.191   2.054  1.5015 -1.8041  1.9518
32642SOL     OW  178   0.425   6.385   7.026  0.0014 -0.2060 -0.5051
32642SOL    HW1  179   0.400   6.473   7.054  0.1450 -0.2430 -0.2532
32642SOL    HW2  180   0.511   6.370   7.066 -0.1697 -0.5881 -0.2631
32643SOL     OW  181   3.065  10.311  10.127 -0.0646  0.3986 -0.1160
32643SOL    HW1  182   2.977  10.281  10.104 -0.2480  0.6358  0.2704
32643SOL    HW2  183   3.053  10.361  10.207  0.4550  0.2522  0.0563
32644SOL     OW  184   9.846   1.906   1.474  0.5935  0.0743 -0.3736
32644SOL    HW1  185   9.895   1.847   1.417 -0.8858 -0.9303 -0.6511
32644SOL    HW2  186   9.885   1.992   1.458  0.2995 -0.1854 -2.8819
32645SOL     OW  187   5.653   4.191   5.487  0.3926  0.2868  0.2540
32645SOL    HW1  188   5.593   4.138   5.435  1.4900  0.2370 -1.0366
32645SOL    HW2  189   5.602   4.219   5.563 -1.4366  0.7757 -1.0903
32646SOL     OW  190   6.130   3.081   1.006  0.5933  0.4325 -0.2174
32646SOL    HW1  191   6.050   3.034   0.982  0.3625  0.9734 -0.5109
32646SOL    HW2  192   6.163   3.034   1.083  0.8420 -0.7454 -1.0151
32647SOL     OW  193   2.187   1.909   8.344  0.4548  0.2846 -0.3626
32647SOL    HW1  194   2.208   1.982   8.403 -0.1726  0.0874  0.1115
32647SOL    HW2  195   2.093   1.897   8.353  0.5242 -0.4575 -0.5939
32648SOL     OW  196   1.006   8.599   8.528  0.1969 -0.2353 -0.2981
32648SOL    HW1  197   1.015   8.509   8.496 -0.3625 -0.3497 -0.1581
32648SOL    HW2  198   1.095   8.631   8.538  0.3977 -0.1645 -2.0557
32649SOL     OW  199   8.514   3.144   4.467 -0.3991 -0.5022 -0.2326
32649SOL    HW1  200   8.590   3.087   4.473 -1.0161 -1.1877  2.2721
32649SOL    HW2  201   8.496   3.170   4.557 -2.4945  0.5099 -0.8629
32650SOL     OW  202   6.365   9.529   5.122  0.3098  0.2732 -0.2960
32650SOL    HW1  203   6.271   9.512   5.119  0.2068  0.9111 -1.6836
32650SOL    HW2  204   6.404   9.450   5.085  0.5717 -1.1786  2.7468
32651SOL     OW  205   8.610   6.552   1.593 -0.3235  0.1991 -0.2068
32651SOL    HW1  206   8.592   6.643   1.568 -0.2720  0.1215 -0.5398
32651SOL    HW2  207   8.523   6.513   1.604 -0.3511  0.1895 -0.4442
32652SOL     OW  208   1.597   6.326   9.905  0.3264  0.2844 -0.5664
32652SOL    HW1  209   1.681   6.353   9.944  1.0351 -0.0651 -1.8007
32652SOL    HW2  210   1.536   6.324   9.979  2.1919 -2.9313  1.1338
32653SOL     OW  211   4.153   8.878   6.822 -0.4928  0.1262 -0.5869
32653SOL    HW1  212   4.216   8.806   6.814  1.2811  1.6805 -1.3156
32653SOL    HW2  213   4.171   8.934   6.747 -1.0721  1.9110  0.5465
32654SOL     OW  214   2.941   3.506   3.147 -0.3869 -0.3397  0.1340
32654SOL    HW1  215   3.011   3.484   3.086  0.4122 -1.1963  1.3165
32654SOL    HW2  216   2.933   3.429   3.204 -3.3557 -0.9264 -0.8832
32655SOL     OW  217   2.443   5.355   3.698 -0.2636  0.0578 -0.0642
32655SOL    HW1  218   2.379   5.330   3.631 -0.0476 -2.1004  0.4439
32655SOL    HW2  219   2.498   5.420   3.656 -1.7885  0.7581 -1.0609
32656SOL     OW  220  10.100  10.614   5.157 -0.3268  0.2419  0.6855
32656SOL    HW1  221  10.044  10.636   5.232  1.0636 -0.0514  1.8518
32656SOL    HW2  222  10.088  10.519   5.147 -0.7509  0.3308  0.3247
32657SOL     OW  223   3.219   2.754   2.871  0.2576 -0.1495 -0.2927
32657SOL    HW1  224   3.181   2.750   2.958  1.0059  1.1647  0.1365
32657SOL    HW2  225   3.159   2.810   2.821  0.5328  0.2205 -0.2149
32658SOL     OW  226   7.278   1.494   5.214  0.0361  0.1503 -0.0037
32658SOL    HW1  227   7.371   1.497   5.235  0.0189  2.3823  0.0650
32658SOL    HW2  228   7.237   1.458   5.293  0.9570 -3.2548 -0.9248
32659SOL     OW  229   7.715   9.902   2.156  0.0780  0.0436 -0.0150
32659SOL    HW1  230   7.663   9.822   2.155 -0.0400  0.1201 -0.7501
32659SOL    HW2  231   7.754   9.904   2.243 -1.8035  0.4307  0.8598
32660SOL     OW  232   3.355   1.917   0.326  0.0046 -0.2895 -0.7295
32660SOL    HW1  233   3.421   1.929   0.257  1.1793 -0.7192  0.2983
32660SOL    HW2  234   3.360   1.998   0.377 -0.9522  0.0792 -1.1935
32661SOL     OW  235   2.994   3.330   3.383 -0.4756  0.1630  0.4042
32661SOL    HW1  236   3.008   3.374   3.467 -1.6463 -1.7619  1.6752
32661SOL    HW2  237   3.078   3.286   3.365 -0.3462  0.2532  0.7784
32662SOL     OW  238   9.658   0.128   1.115 -0.0381 -0.7101  0.4644
32662SOL    HW1  239   9.615   0.150   1.197 -0.1545 -2.6929  1.0011
32662SOL    HW2  240   9.722   0.197   1.101  0.2912 -0.5498  2.4636
32663SOL     OW  241   8.333   1.715   0.661  0.1529  0.3817  0.2344
32663SOL    HW1  242   8.375   1.727   0.746 -0.9226  1.0679  0.6841
32663SOL    HW2  243   8.282   1.794   0.648 -1.1300 -0.4858 -0.2169
32664SOL     OW  244   8.949   7.526   6.506 -0.0860 -0.6035  0.2894
32664SOL    HW1  245   8.870   7.578   6.499 -0.2465 -0.9661 -0.6833
32664SOL    HW2  246   9.016   7.587   6.538 -0.3072  0.1680 -0.6808
32665SOL     OW  247   3.846  10.396   5.859 -0.4502 -0.0187 -0.3007
32665SOL    HW1  248   3.906  10.325   5.881  0.2761  0.7891  0.4171
32665SOL    HW2  249   3.811  10.372   5.773  1.8980  0.1032 -1.3749
32666SOL     OW  250   9.235   6.225   3.851 -0.2566 -0.1446 -0.3955
32666SOL    HW1  251   9.241   6.223   3.756  0.0056  3.6674 -0.6190
32666SOL    HW2  252   9.159   6.281   3.869 -0.3441 -0.8304  1.6627
32667SOL     OW  253   1.193   4.553   2.465 -0.1352  0.3628  0.2568
32667SOL    HW1  254   1.218   4.615   2.397  0.0908 -1.0843 -1.0033
32667SOL    HW2  255   1.106   4.583   2.493 -0.4213  0.7312 -0.9678
32668SOL     OW  256   3.152  10.643   1.371 -0.0512  0.4576  0.4387
32668SOL    HW1  257   3.158  10.721   1.314 -1.6322 -0.3928 -1.0044
32668SOL    HW2  258   3.103  10.580   1.319 -0.2081 -0.9502  2.2064
32669SOL     OW  259   5.402   7.381   8.327 -0.0934  0.5767  0.1909
32669SOL    HW1  260   5.387   7.336   8.409 -1.0982 -1.4634 -1.0400
32669SOL    HW2  261   5.477   7.438   8.344  0.3298 -0.5079  2.2187
32670SOL     OW  262   7.518   1.738   0.629  0.9708  0.1827  0.0684
32670SOL    HW1  263   7.479   1.672   0.686 -0.8876  0.0975 -1.1950
32670SOL    HW2  264   7.482   1.821   0.660 -0.5076  0.0800 -1.2593
32671SOL     OW  265   6.458   5.348   6.031 -0.0058 -0.4049  0.3448
32671SOL    HW1  266   6.512   5.293   6.089  1.2296  0.8970  0.4832
32671SOL    HW2  267   6.445   5.429   6.079 -1.2284 -0.2940 -0.1387
32672SOL     OW  268   5.203   2.569   0.726 -0.1305  0.3843  0.3566
32672SOL    HW1  269   5.227   2.634   0.660  1.3538 -0.9149 -0.4505
32672SOL    HW2  270   5.268   2.580   0.795  0.2989 -0.3913  0.0903
32673SOL     OW  271  10.454   3.290   9.636  0.7215 -0.4877  0.2073
32673SOL    HW1  272  10.547   3.308   9.622  0.7203 -0.1639  0.5923
32673SOL    HW2  273  10.415   3.377   9.647  0.4218 -0.6382  0.3284
32674SOL     OW  274   7.930   7.505  10.085 -0.6457 -0.8816 -0.0843
32674SOL    HW1  275   7.852   7.450  10.090 -0.6806 -0.8146  0.0921
32674SOL    HW2  276   7.932   7.536   9.994 -0.9947 -0.6282 -0.0064
32675SOL     OW  277   4.462   7.603   0.681 -0.0609  0.1447  0.3816
32675SOL    HW1  278   4.419   7.548   0.746 -3.4887  0.2826 -1.5280
32675SOL    HW2  279   4.437   7.692   0.705  0.1155  0.3288 -0.1074
32676SOL     OW  280   6.089   0.022   4.523  0.6235  0.1574 -0.6486
32676SOL    HW1  281   6.040  -0.061   4.524  2.1075 -0.7567  0.4375
32676SOL    HW2  282   6.099   0.044   4.616 -0.0988  1.8094 -0.9315
32677SOL     OW  283   9.588   0.072   6.246 -0.2027 -0.1570 -0.1176
32677SOL    HW1  284   9.593   0.118   6.330  0.5774  0.1361 -0.3157
32677SOL    HW2  285   9.642   0.124   6.186 -1.2337 -0.0279 -0.9645
32678SOL     OW  286   0.616   1.004   3.845  0.5079  0.5798  0.6653
32678SOL    HW1  287   0.664   1.084   3.864  1.3358  0.2172  0.1428
32678SOL    HW2  288   0.625   0.992   3.751  2.1367 -1.1961  0.9766
32679SOL     OW  289   8.017   9.922  10.648  0.7972 -0.0350  0.0957
32679SOL    HW1  290   8.096   9.954  10.691  0.9105 -0.0114 -0.1275
32679SOL    HW2  291   8.000   9.985  10.578  0.6728 -0.1278  0.0398
32680SOL     OW  292   9.434   9.547  10.074 -0.1750  0.0943  0.3545
32680SOL    HW1  293   9.411   9.487  10.002  0.2790  0.4508 -0.0977
32680SOL    HW2  294   9.436   9.633  10.032 -0.5274  0.3891  0.9383
32681SOL     OW  295   7.223   7.877   3.329  0.4042  0.5688  0.1000
32681SOL    HW1  296   7.307   7.915   3.353 -0.3969  3.4503 -1.2401
32681SOL    HW2  297   7.159   7.945   3.350 -1.4556 -0.9803 -0.2384
32682SOL     OW  298   9.082   5.747   2.043 -0.0431  0.2141  0.1629
32682SOL    HW1  299   9.089   5.652   2.047 -2.6287 -0.0264  3.2451
32682SOL    HW2  300   9.010   5.764   1.982 -0.3191  0.0978  0.4523
32683SOL     OW  301   4.200   5.113   0.704 -0.1505  0.2780  0.2698
32683SOL    HW1  302   4.296   5.111   0.702 -0.1533 -1.0537  0.4879
32683SOL    HW2  303   4.179   5.138   0.794 -0.0005  0.2623  0.3099
32684SOL     OW  304   4.783   8.217   7.840 -0.0020  0.4723  0.4577
32684SOL    HW1  305   4.747   8.129   7.825  1.4209  0.0677 -0.8432
32684SOL    HW2  306   4.768   8.263   7.757 -1.2194  1.6682  1.3023
32685SOL     OW  307   0.038   5.722   2.397 -0.0803 -0.4736  0.4001
32685SOL    HW1  308   0.013   5.712   2.489  2.3570  1.4398  1.3697
32685SOL    HW2  309   0.122   5.677   2.390 -0.6092 -1.3161 -1.1728
32686SOL     OW  310   7.242   0.120   9.195 -0.8240 -0.4659  0.1807
32686SOL    HW1  311   7.291   0.107   9.276 -0.4219  0.1504  0.0447
32686SOL    HW2  312   7.199   0.036   9.179  0.7582 -1.2604 -0.0715
32687SOL     OW  313   4.695   0.188   1.005 -0.3147 -0.3187  0.2659
32687SOL    HW1  314   4.720   0.281   1.006 -3.8694  0.8918  3.5378
32687SOL    HW2  315   4.627   0.183   0.938 -1.4780  0.0054  1.3749
32688SOL     OW  316   5.994   4.881   3.085 -0.0351  0.4767 -0.6108
32688SOL    HW1  317   6.089   4.877   3.083  0.0281  1.6101 -0.4224
32688SOL    HW2  318   5.968   4.895   2.994  0.0252  1.0178 -0.5448
32689SOL     OW  319   6.341   8.944   1.262  0.1026 -0.7633 -0.3150
32689SOL    HW1  320   6.256   8.980   1.238  1.3728  2.6901 -0.1829
32689SOL    HW2  321   6.328   8.911   1.351 -1.0459 -0.0560 -0.1973
32690SOL     OW  322   7.961   6.655   3.259  0.0002 -0.5713  0.5350
32690SOL    HW1  323   7.939   6.569   3.222 -1.2889 -0.1734  0.3355
32690SOL    HW2  324   7.894   6.670   3.325 -2.5430  2.1491 -2.3518
32691SOL     OW  325   5.182   9.554   7.813  0.1043  0.2609 -0.1106
32691SOL    HW1  326   5.088   9.537   7.808  0.1504  0.1897 -4.3295
32691SOL    HW2  327   5.222   9.470   7.792  1.0327  0.7686 -0.3903
32692SOL     OW  328   9.734   0.892   2.638 -0.0019 -0.2879 -0.1376
32692SOL    HW1  329   9.812   0.857   2.679  0.9901  2.2756  0.3394
32692SOL    HW2  330   9.764   0.970   2.591 -2.1614  0.4372 -0.4333
32693SOL     OW  331   5.794   5.968   3.004  0.1204 -0.0487  0.5623
32693SOL    HW1  332   5.887   5.944   3.001 -0.3317 -1.9274  0.1205
32693SOL    HW2  333   5.748   5.884   3.005 -1.5674  0.8314  1.6349
32694SOL     OW  334   2.791   0.210   9.852  0.1399  0.0573 -0.1839
32694SOL    HW1  335   2.847   0.132   9.857  1.5282  1.0024 -0.4348
32694SOL    HW2  336   2.762   0.213   9.761  1.3040  0.6179 -0.5606
32695SOL     OW  337   9.671   3.343   1.513  0.8271  0.0410 -0.0309
32695SOL    HW1  338   9.592   3.384   1.549  1.4601  0.6558  0.6867
32695SOL    HW2  339   9.696   3.278   1.579 -1.1242 -2.8467 -1.8917
32696SOL     OW  340   6.417   3.286   1.310  0.5802 -0.0404  0.4212
32696SOL    HW1  341   6.418   3.211   1.370  0.1612  0.0878  0.5918
32696SOL    HW2  342   6.326   3.292   1.280  0.8717 -0.3656 -0.5675
32697SOL     OW  343   3.490   0.910   2.306 -0.0065 -0.3765  0.6460
32697SOL    HW1  344   3.395   0.920   2.305 -0.1411 -1.4091 -0.8074
32697SOL    HW2  345   3.504   0.815   2.304  1.0223 -0.2282 -0.0885
32698SOL     OW  346   0.516   0.523   9.863  0.3561  0.3486 -0.4664
32698SOL    HW1  347   0.488   0.432   9.853  1.2740 -0.2505  1.8860
32698SOL    HW2  348   0.445   0.574   9.824  0.0840 -1.3328 -2.3897
32699SOL     OW  349   8.585  10.648   1.815 -0.3524  0.0851  0.1536
32699SOL    HW1  350   8.584  10.587   1.889  2.5167  2.0922  2.0514
32699SOL    HW2  351   8.499  10.692   1.819 -0.8239 -0.8957  1.3324
32700SOL     OW  352  10.588   7.189   2.429  0.5192  0.0498  0.3895
32700SOL    HW1  353  10.642   7.267   2.435  0.9936 -0.1094 -1.3978
32700SOL    HW2  354  10.648   7.116   2.446  0.6196 -0.0547 -0.3788
32701SOL     OW  355   0.980  10.274  10.234  0.0054 -0.3697  0.2818
32701SOL    HW1  356   0.900  10.292  10.185  0.4699  0.2976 -0.2517
32701SOL    HW2  357   0.967  10.318  10.318  0.5655  1.4100 -0.5069
32702SOL     OW  358   7.098   7.283   0.395 -0.3908  0.0350 -0.5675
32702SOL    HW1  359   7.013   7.268   0.437 -0.1804 -0.7653 -0.4084
32702SOL    HW2  360   7.116   7.201   0.349 -0.3938  0.7350 -1.8502
32703SOL     OW  361   5.900   4.966   3.887 -0.2072  0.0277 -0.2297
32703SOL    HW1  362   5.946   4.885   3.911 -0.1989 -0.7415 -2.5527
32703SOL    HW2  363   5.896   5.016   3.968 -0.8443 -2.5839  1.4663
32704SOL     OW  364   8.197   6.726   5.311 -0.0348 -0.0618  0.0002
32704SOL    HW1  365   8.106   6.733   5.280 -0.2790 -0.9459  0.4787
32704SOL    HW2  366   8.192   6.665   5.384  1.0398 -0.5980 -0.3603
32705SOL     OW  367   5.162   3.232   5.631 -0.0813  0.2156  0.2254
32705SOL    HW1  368   5.134   3.262   5.718  1.9701  1.7185  0.4312
32705SOL    HW2  369   5.127   3.142   5.626  1.3085 -0.6786  3.4397
32706SOL     OW  370   5.440   8.757   0.401  0.5761  0.3954 -0.3893
32706SOL    HW1  371   5.536   8.764   0.401  1.0917 -3.6777  2.0706
32706SOL    HW2  372   5.421   8.690   0.467 -3.8291 -0.5664 -2.3130
32707SOL     OW  373  10.397  10.402   9.686  0.2418  0.2492 -0.1333
32707SOL    HW1  374  10.331  10.466   9.712 -1.1992 -0.6043 -1.4762
32707SOL    HW2  375  10.472  10.420   9.742 -0.5029  2.3949  0.2577
32708SOL     OW  376   3.470   2.835   0.398  0.4914 -0.0223 -0.1949
32708SOL    HW1  377   3.451   2.914   0.450  1.2952 -0.1679  0.3412
32708SOL    HW2  378   3.500   2.869   0.314  0.0429  0.2323 -0.2546
32709SOL     OW  379  10.219   7.945   8.401  0.0642  0.0175 -0.5227
32709SOL    HW1  380  10.210   7.995   8.482  3.2294 -1.3616  0.8523
32709SOL    HW2  381  10.272   8.002   8.344  0.7116 -0.3352 -0.2866
32710SOL     OW  382   8.840   6.801  10.370 -0.1916  0.4848 -0.2429
32710SOL    HW1  383   8.795   6.753  10.300 -1.3827  0.4002  0.5492
32710SOL    HW2  384   8.818   6.893  10.353 -1.0679  0.4062  0.3998
32711SOL     OW  385   3.800   3.025   8.480 -0.3897  0.6519 -0.1054
32711SOL    HW1  386   3.716   3.007   8.522 -0.1977  0.4332  0.1838
32711SOL    HW2  387   3.865   3.014   8.549 -0.2109  1.9437 -0.0457
32712SOL     OW  388   1.119   8.294   5.008  0.5219  0.2893  0.5130
32712SOL    HW1  389   1.149   8.213   5.048 -1.2769 -1.6080 -1.7041
32712SOL    HW2  390   1.059   8.266   4.939 -0.8815  3.5593  0.2292
32713SOL     OW  391   3.742   9.059   7.983  0.0505 -0.5414 -0.3400
32713SOL    HW1  392   3.683   8.986   7.998 -1.0725 -0.0368 -2.0017
32713SOL    HW2  393   3.783   9.075   8.068 -1.5930 -1.4369  0.6764
32714SOL     OW  394   2.381   1.960   7.167 -0.3134  0.1250 -0.3189
32714SOL    HW1  395   2.344   2.033   7.117 -1.4719 -0.7272 -0.7591
32714SOL    HW2  396   2.387   1.889   7.103 -0.3195 -0.5105  0.3864
32715SOL     OW  397  10.395   2.048   8.604 -0.7805  0.2286 -0.3188
32715SOL    HW1  398  10.461   2.074   8.669 -0.8278  0.2955 -0.2966
32715SOL    HW2  399  10.424   2.089   8.523  0.2914 -1.3623 -0.7863
32716SOL     OW  400   5.348   8.694   7.355  0.4228  0.2684 -0.0989
32716SOL    HW1  401   5.350   8.782   7.394 -3.1869 -0.0425  1.1900
32716SOL    HW2  402   5.287   8.702   7.281 -0.0879 -1.1474  0.1325
32717SOL     OW  403   0.782   1.927   2.919  0.0405 -0.1107 -0.4334
32717SOL    HW1  404   0.752   1.839   2.942  0.0624 -0.3109 -1.1526
32717SOL    HW2  405   0.729   1.985   2.974  0.5997 -0.5914  0.6597
32718SOL     OW  406   0.669   8.983   2.104  0.6013  0.6653  0.1011
32718SOL    HW1  407   0.712   8.928   2.038 -2.2489 -0.0688 -1.3030
32718SOL    HW2  408   0.673   9.072   2.067  1.1877  0.6772  0.1745
32719SOL     OW  409   4.473   8.849   2.679  0.4241  0.4535 -0.1726
32719SOL    HW1  410   4.518   8.815   2.602 -0.5060 -1.3411  0.0114
32719SOL    HW2  411   4.380   8.840   2.659  0.1529  1.5673  0.4993
32720SOL     OW  412   0.791   9.465   8.806  0.0207 -0.2288  0.3977
32720SOL    HW1  413   0.857   9.397   8.819  1.4362  0.9110 -0.5030
32720SOL    HW2  414   0.806   9.527   8.878 -1.0176 -0.6461  1.0001
32721SOL     OW  415   3.050   7.182   1.187  0.2898 -0.0730  0.0402
32721SOL    HW1  416   3.042   7.271   1.152 -1.1524  0.4594  1.5554
32721SOL    HW2  417   2.970   7.138   1.157 -0.4608  0.0850  1.6985
32722SOL     OW  418   2.934   9.457   1.648  0.3073  0.3402 -0.2009
32722SOL    HW1  419   2.917   9.533   1.592  1.8193  0.9008  0.0320
32722SOL    HW2  420   2.848   9.428   1.677 -0.2751  2.6356  0.5527
32723SOL     OW  421   8.448   8.692   5.403  0.0477  0.2385 -0.0415
32723SOL    HW1  422   8.434   8.766   5.461  0.7085  0.2972  0.0438
32723SOL    HW2  423   8.538   8.664   5.420  0.4346  0.5806 -1.3870
32724SOL     OW  424   9.681   7.661  10.460  0.4439 -0.9033 -0.0164
32724SOL    HW1  425   9.742   7.627  10.526 -0.0332 -0.6714  0.5599
32724SOL    HW2  426   9.632   7.729  10.507  0.5909 -0.2288 -0.8193
32725SOL     OW  427   9.939   8.741  10.055 -0.8657  0.0937  0.7393
32725SOL    HW1  428   9.896   8.726  10.139 -0.9472  0.8659  0.8440
32725SOL    HW2  429   9.985   8.824  10.066 -3.2575  1.7886 -0.8606
32726SOL     OW  430   3.968   7.351   8.222 -0.1856 -0.1598 -0.2222
32726SOL    HW1  431   4.043   7.392   8.264 -0.1441  0.2586 -0.6953
32726SOL    HW2  432   3.988   7.353   8.129 -0.9295  0.2752 -0.3873
32727SOL     OW  433   8.757   7.254   8.537 -0.3082  0.7927  0.2825
32727SOL    HW1  434   8.696   7.244   8.464  0.6327 -0.8734 -0.3381
32727SOL    HW2  435   8.834   7.297   8.498 -1.1200  3.1752  1.1243
32728SOL     OW  436   0.766   9.640   0.993 -0.2669 -0.4412  0.0925
32728SOL    HW1  437   0.741   9.694   0.918 -1.1327  0.0913  0.7398
32728SOL    HW2  438   0.737   9.691   1.069  1.4313 -0.5423  0.8332
32729SOL     OW  439  10.120   8.121   2.246 -0.5591 -0.1523 -0.0622
32729SOL    HW1  440  10.051   8.181   2.271 -0.7879  0.3428 -1.7437
32729SOL    HW2  441  10.118   8.051   2.312 -1.5903  0.6709  0.7881
32730SOL     OW  442   8.423   3.072   2.280  0.3821  0.5879 -0.2921
32730SOL    HW1  443   8.467   3.157   2.288  0.8402  0.3240  0.0395
32730SOL    HW2  444   8.331   3.091   2.297  0.3030  1.2098 -1.3557
32731SOL     OW  445   0.118   3.271   4.886  0.4694 -0.4010  0.0859
32731SOL    HW1  446   0.178   3.319   4.944 -0.0915  0.6686 -0.1857
32731SOL    HW2  447   0.079   3.204   4.942 -0.3032  0.8216  1.0465
32732SOL     OW  448   0.490   3.575   9.796 -0.2988 -0.0663  0.2179
32732SOL    HW1  449   0.574   3.540   9.763 -0.3010 -1.7562  1.8313
32732SOL    HW2  450   0.516   3.643   9.858 -0.1698  0.3943 -0.3372
32733SOL     OW  451   3.393   5.179   4.205 -0.1654 -0.0227  0.1551
32733SOL    HW1  452   3.330   5.119   4.165  2.5843 -1.5192 -2.3656
32733SOL    HW2  453   3.344   5.221   4.275 -3.1590 -2.9725  0.1296
32734SOL     OW  454   0.386   2.920   3.633  0.0255  0.2059  0.2791
32734SOL    HW1  455   0.434   2.942   3.553 -0.5730  1.6360  0.2771
32734SOL    HW2  456   0.297   2.903   3.603 -0.3022  1.1787  0.6822
32735SOL     OW  457   6.973  10.020   8.077 -0.4993 -0.1486  0.5839
32735SOL    HW1  458   7.048  10.042   8.132  0.2165 -0.2233 -0.3580
32735SOL    HW2  459   6.977  10.082   8.005 -1.3824 -0.1163  0.5561
32736SOL     OW  460  10.341   9.184   6.061 -0.2692 -0.4372 -0.5830
32736SOL    HW1  461  10.418   9.199   6.005 -0.6542  0.3171 -0.9321
32736SOL    HW2  462  10.366   9.221   6.146 -0.8156  1.3047 -1.1442
32737SOL     OW  463   4.748   4.071   7.859 -0.6022  0.7136  0.5547
32737SOL    HW1  464   4.672   4.013   7.864  0.4393 -0.6175  1.5900
32737SOL    HW2  465   4.739   4.128   7.935 -0.0814 -0.1062  1.2550
32738SOL     OW  466   3.232   8.079   0.715 -0.3261  0.2480 -0.5756
32738SOL    HW1  467   3.179   8.154   0.741 -0.7141 -0.2740  0.2014
32738SOL    HW2  468   3.317   8.094   0.757 -1.5106 -1.5312  2.8747
32739SOL     OW  469   6.861   8.460   3.594 -0.7261  0.3734  0.1416
32739SOL    HW1  470   6.817   8.375   3.603 -0.3104  0.1297 -0.0808
32739SOL    HW2  471   6.815   8.518   3.655 -2.7579  0.6956 -1.5988
32740SOL     OW  472   9.145   4.003   0.146  0.1479 -0.3706 -0.4980
32740SOL    HW1  473   9.197   3.956   0.080 -0.3400 -0.8271 -0.5713
32740SOL    HW2  474   9.123   3.936   0.211 -0.6372 -0.2728 -0.6504
32741SOL     OW  475   0.049   6.802   9.546  0.0530 -0.3544 -0.0150
32741SOL    HW1  476   0.051   6.773   9.455  0.5801 -2.5085  0.6371
32741SOL    HW2  477   0.053   6.722   9.597 -2.8437  0.5880  1.9671
32742SOL     OW  478   0.613   0.107   0.549  0.1796  0.1548  0.5868
32742SOL    HW1  479   0.653   0.150   0.625 -0.2589 -1.8343  2.0355
32742SOL    HW2  480   0.526   0.083   0.579 -0.7398  1.0090 -1.2422
32743SOL     OW  481   7.080  10.436   3.198  0.3545  0.0882 -0.0157
32743SOL    HW1  482   7.025  10.463   3.125  1.0606 -1.2074 -1.0759
32743SOL    HW2  483   7.056  10.494   3.270  0.2349  1.9669 -1.5065
32744SOL     OW  484   5.327   6.793   8.261 -0.4781  0.0944  0.5015
32744SOL    HW1  485   5.372   6.722   8.216 -0.5494 -0.6860  1.6258
32744SOL    HW2  486   5.387   6.867   8.254 -0.3773 -0.0854 -0.6308
32745SOL     OW  487   6.049   3.958   7.143  0.3221 -0.7809  0.4456
32745SOL    HW1  488   5.955   3.943   7.137  0.3273 -0.8963  0.6190
32745SOL    HW2  489   6.065   4.038   7.092  0.4532 -1.9387 -1.4228
32746SOL     OW  490   9.306   5.462   5.024 -0.4107 -0.0681  0.4573
32746SOL    HW1  491   9.222   5.418   5.037 -0.9448  1.0921  1.0557
32746SOL    HW2  492   9.305   5.535   5.086  0.7622  0.3540  0.0063
32747SOL     OW  493   5.954   7.980   6.004 -0.3259  0.0674  0.0012
32747SOL    HW1  494   6.024   7.963   6.067  0.5271 -4.2522 -1.7201
32747SOL    HW2  495   5.875   7.987   6.057  0.6430 -1.1795  1.7171
32748SOL     OW  496   8.065   7.272   1.207  0.9569  0.3391 -0.8991
32748SOL    HW1  497   8.087   7.207   1.274  0.4782  2.3856  1.3907
32748SOL    HW2  498   8.080   7.227   1.124  0.7966 -2.6066  0.5417
32749SOL     OW  499  10.649   9.301  10.000 -0.1762  0.3183 -0.2643
32749SOL    HW1  500  10.638   9.376   9.942  1.3399  3.1854  2.7965
32749SOL    HW2  501  10.564   9.289  10.042 -0.5876 -0.1131 -1.2083
32750SOL     OW  502   1.037   9.277   7.840  0.2801  0.0522  0.6401
32750SOL    HW1  503   1.009   9.258   7.750 -0.3608  2.1912  0.3330
32750SOL    HW2  504   1.125   9.313   7.830  0.1796  0.3592  0.8687
32751SOL     OW  505  10.373   8.519   8.645  0.3244 -0.0307 -0.2347
32751SOL    HW1  506  10.282   8.544   8.631  0.3880 -0.0965 -0.7734
32751SOL    HW2  507  10.410   8.511   8.557  0.7683 -0.3011 -0.0273
32752SOL     OW  508   3.266   9.246   4.229 -0.3104  0.0406 -0.1264
32752SOL    HW1  509   3.200   9.244   4.159 -0.1973 -1.2276 -0.2283
32752SOL    HW2  510   3.254   9.163   4.275  0.4415  0.3177  0.5938
32753SOL     OW  511   3.002   0.943   0.853  0.2861 -0.6657  0.5472
32753SOL    HW1  512   2.989   0.849   0.860  2.3130 -0.8868  3.1426
32753SOL    HW2  513   2.914   0.979   0.837 -0.6250 -2.9185  0.1582
32754SOL     OW  514   6.651   2.571   4.462 -0.0444 -0.0287 -0.3406
32754SOL    HW1  515   6.659   2.651   4.514  1.4071 -0.8339  0.7575
32754SOL    HW2  516   6.569   2.532   4.492 -0.2454  0.5385 -0.1330
32755SOL     OW  517   9.630   7.567   2.133  0.2552  0.5360  0.6546
32755SOL    HW1  518   9.663   7.537   2.048  0.8315  0.9591  0.7205
32755SOL    HW2  519   9.557   7.508   2.153 -0.1705  0.7018 -0.3392
32756SOL     OW  520   1.053   3.655   5.208  0.0248  0.0749 -0.2248
32756SOL    HW1  521   1.112   3.679   5.280  0.2162 -0.3342 -0.2406
32756SOL    HW2  522   1.110   3.655   5.130  0.1723 -1.0302 -0.1304
32757SOL     OW  523   6.561   4.658   9.892 -0.4293 -0.2317 -0.3444
32757SOL    HW1  524   6.648   4.655   9.932 -0.4646  1.4158 -0.0826
32757SOL    HW2  525   6.528   4.569   9.900  0.2680 -0.3546  1.7485
32758SOL     OW  526   0.092   4.084   0.778  0.1512  0.1447  0.0027
32758SOL    HW1  527   0.118   3.994   0.797 -0.2961 -0.1438 -0.7356
32758SOL    HW2  528   0.047   4.080   0.695 -0.1915  1.0053  0.1301
32759SOL     OW  529   8.948  10.275   3.493 -0.9079 -0.1993  0.3740
32759SOL    HW1  530   8.890  10.341   3.456 -0.6490  0.0891  0.4781
32759SOL    HW2  531   8.921  10.268   3.585  0.7369  1.6672  1.0791
32760SOL     OW  532   3.023   3.949   4.173 -0.5370  0.3826 -0.4710
32760SOL    HW1  533   2.974   3.868   4.159  0.2229 -0.0200 -0.8074
32760SOL    HW2  534   2.959   4.019   4.158 -0.8437 -0.1209 -1.5872
32761SOL     OW  535   6.610   3.510   4.134 -0.3876  0.2552  0.5827
32761SOL    HW1  536   6.693   3.477   4.167  0.6364  1.0547 -1.0185
32761SOL    HW2  537   6.621   3.510   4.039 -2.5992 -0.5153  0.2762
32762SOL     OW  538   3.924   5.951   2.807 -0.1878 -0.1680 -0.3768
32762SOL    HW1  539   3.981   6.027   2.790 -1.4556  0.8716 -0.1562
32762SOL    HW2  540   3.984   5.878   2.816  1.0181  0.5989 -1.7365
32763SOL     OW  541   6.755   2.141   4.565 -0.2435  0.1633  0.1694
32763SOL    HW1  542   6.770   2.049   4.544 -0.3461  0.5850 -1.9842
32763SOL    HW2  543   6.699   2.173   4.494 -0.2322  1.8759  0.8937
32764SOL     OW  544   1.367   0.280   0.907 -0.1223 -0.2957  0.3269
32764SOL    HW1  545   1.382   0.324   0.824 -0.9336 -2.0839 -0.8464
32764SOL    HW2  546   1.434   0.211   0.909 -0.7849 -0.9391  0.6214
32765SOL     OW  547   4.537   3.152   1.402  0.6583  0.2113 -0.0245
32765SOL    HW1  548   4.617   3.204   1.404  0.4702  0.4937  1.0174
32765SOL    HW2  549   4.491   3.176   1.483  1.4158 -2.8647  1.4765
32766SOL     OW  550  10.236   7.664   5.462  0.2956  0.0665  0.4829
32766SOL    HW1  551  10.144   7.689   5.465  0.0207 -0.8511  0.3123
32766SOL    HW2  552  10.243   7.591   5.524  0.4368 -1.2046 -0.9535
32767SOL     OW  553   4.658   5.380   1.013 -0.1967  0.0759 -0.1071
32767SOL    HW1  554   4.576   5.333   1.030 -0.4136  0.4423 -0.1224
32767SOL    HW2  555   4.663   5.384   0.917  0.8147 -1.6227 -0.1622
32768SOL     OW  556  10.224  10.452   8.997 -0.5852  0.4339  0.3320
32768SOL    HW1  557  10.206  10.360   9.012 -0.2373  0.3960  0.5504
32768SOL    HW2  558  10.269  10.481   9.077  0.5051  0.4579 -0.2586
32769SOL     OW  559   4.130   3.069   4.371  0.1512 -0.0226 -0.3730
32769SOL    HW1  560   4.145   2.992   4.316 -0.7005 -1.4156  1.2422
32769SOL    HW2  561   4.218   3.103   4.390  0.5004 -0.1631 -1.6698
32770SOL     OW  562   8.487   1.696   5.936  0.6681  0.0345  0.6626
32770SOL    HW1  563   8.512   1.783   5.966  3.1377 -0.1628 -0.5299
32770SOL    HW2  564   8.488   1.703   5.840 -0.9413 -0.8728  0.5392
32771SOL     OW  565   5.352   3.326   2.355 -0.4886 -0.5417  0.2378
32771SOL    HW1  566   5.344   3.396   2.290  0.9700 -1.1411 -0.6261
32771SOL    HW2  567   5.446   3.310   2.363 -0.7601 -2.1030  0.7338
32772SOL     OW  568   6.212   2.249   9.911  0.6244 -0.3304  0.6182
32772SOL    HW1  569   6.265   2.317   9.869  1.0171 -0.7262  0.4684
32772SOL    HW2  570   6.126   2.289   9.922  0.9083  0.2708  0.7264
32773SOL     OW  571   2.061   6.693   3.057 -0.2251  0.0214  0.0194
32773SOL    HW1  572   1.979   6.704   3.104  0.0549 -1.4715  0.9375
32773SOL    HW2  573   2.051   6.610   3.011 -0.0172  0.8624 -1.6115
32774SOL     OW  574   3.584   2.557   7.507  0.8032 -0.3001 -0.3739
32774SOL    HW1  575   3.535   2.610   7.570  1.7397  2.0391 -1.4708
32774SOL    HW2  576   3.524   2.487   7.482  0.1838 -0.9625  2.5634
32775SOL     OW  577   0.506   8.328   1.804  0.0144  0.5449 -0.0202
32775SOL    HW1  578   0.566   8.341   1.730 -0.2763 -0.6507 -0.4834
32775SOL    HW2  579   0.538   8.249   1.848 -1.0828  0.0198 -0.1393
32776SOL     OW  580   7.732   4.667   5.965  0.0109  0.0492  0.4848
32776SOL    HW1  581   7.687   4.628   6.040  0.6324 -1.7033 -0.0049
32776SOL    HW2  582   7.683   4.636   5.889 -0.6929  1.9211  0.1247
32777SOL     OW  583   2.611   4.952   8.636 -0.1697  0.1746 -0.3356
32777SOL    HW1  584   2.623   5.003   8.716 -1.1167  0.7198 -0.5319
32777SOL    HW2  585   2.564   4.874   8.664 -0.7135  0.4775 -0.3893
32778SOL     OW  586   7.409   5.054   3.494 -0.1586  0.0110  0.6928
32778SOL    HW1  587   7.349   5.008   3.436 -0.2398  1.1220 -0.1188
32778SOL    HW2  588   7.437   4.987   3.557 -0.9647 -0.9165  0.0887
32779SOL     OW  589  10.387   4.223   3.490  0.0589  0.4290 -0.1651
32779SOL    HW1  590  10.477   4.201   3.465 -0.7024 -0.8132 -1.9810
32779SOL    HW2  591  10.388   4.319   3.499  1.5285  0.4460 -0.2362
32780SOL     OW  592   0.741   6.435   4.741  0.1377  0.3927  0.1020
32780SOL    HW1  593   0.682   6.377   4.693 -0.1960  0.8607 -0.0641
32780SOL    HW2  594   0.757   6.390   4.824  0.2345 -0.1373 -0.1997
32781SOL     OW  595   6.432   5.892   9.245  0.0767  0.2379 -0.2858
32781SOL    HW1  596   6.409   5.847   9.326  0.0760  2.1451  0.8093
32781SOL    HW2  597   6.497   5.835   9.204 -0.1638 -0.9155  0.8735
32782SOL     OW  598   3.449   1.356   2.431  0.1996  0.1791 -0.0267
32782SOL    HW1  599   3.361   1.322   2.416  1.1802 -2.6800  0.1005
32782SOL    HW2  600   3.486   1.367   2.344  0.8438 -2.0157 -0.0785
32783SOL     OW  601   4.945   6.203   4.629 -0.5570  0.3148 -0.0295
32783SOL    HW1  602   4.908   6.127   4.674  1.6228 -0.8498 -0.0800
32783SOL    HW2  603   4.940   6.180   4.536 -1.4472  1.0131 -0.1708
32784SOL     OW  604   7.039   7.812   1.207 -0.3758  0.4776  0.1138
32784SOL    HW1  605   6.965   7.758   1.181  1.0062 -0.0365 -3.1866
32784SOL    HW2  606   7.035   7.813   1.303 -3.0374 -1.7157  0.1431
32785SOL     OW  607   2.121   4.853   5.015 -0.2628 -0.8295  0.0722
32785SOL    HW1  608   2.209   4.862   5.051 -0.4247 -3.6158  1.4163
32785SOL    HW2  609   2.070   4.922   5.058  1.1046  0.4697 -0.3214
32786SOL     OW  610   9.575  10.040   9.674  0.4458 -0.0723 -0.7364
32786SOL    HW1  611   9.538  10.092   9.602  0.3169  2.1716  0.8519
32786SOL    HW2  612   9.502  10.026   9.733  0.8336 -0.8067 -0.4179
32787SOL     OW  613   8.374   2.218   5.531  0.2858 -0.0813 -0.0187
32787SOL    HW1  614   8.339   2.300   5.497 -1.7382 -0.8257  0.0946
32787SOL    HW2  615   8.353   2.221   5.625 -0.0153 -0.7970 -0.0566
32788SOL     OW  616   1.478   7.263   8.376  0.5040 -0.2124  0.5735
32788SOL    HW1  617   1.388   7.280   8.348  0.9697  0.5944 -0.5127
32788SOL    HW2  618   1.470   7.198   8.446 -1.0303  0.8351  1.4434
32789SOL     OW  619   9.198   9.009   9.769  0.2492  0.5555  0.3998
32789SOL    HW1  620   9.267   9.058   9.725  0.3082  0.9882  0.9541
32789SOL    HW2  621   9.121   9.065   9.763  0.1319  0.3968  0.4116
32790SOL     OW  622   0.893   4.927   1.554 -0.4047  0.0005  0.2222
32790SOL    HW1  623   0.802   4.956   1.563  0.0918  1.3224  1.1756
32790SOL    HW2  624   0.924   4.916   1.644  0.5314  0.0596 -0.0799
32791SOL     OW  625   0.971   0.623   0.434 -0.3324 -0.3606  0.1024
32791SOL    HW1  626   1.016   0.643   0.353 -0.2293  0.4346  0.3464
32791SOL    HW2  627   0.988   0.698   0.491  0.3415 -1.2863  1.1800
32792SOL     OW  628   3.597   0.254   1.762  0.2225 -0.7563 -0.2797
32792SOL    HW1  629   3.514   0.273   1.805 -0.1428 -1.1166 -0.8137
32792SOL    HW2  630   3.576   0.253   1.669  1.1323  0.7127 -0.5362
32793SOL     OW  631   5.060   9.171  10.435  0.9171 -0.3921  0.2523
32793SOL    HW1  632   4.994   9.233  10.406 -0.3448 -1.6278  0.4047
32793SOL    HW2  633   5.096   9.210  10.515 -0.7144 -0.4160  1.0280
32794SOL     OW  634   2.407   8.295   3.072  0.5511  0.2496 -0.5227
32794SOL    HW1  635   2.468   8.360   3.036 -2.2288  2.0435 -2.4272
32794SOL    HW2  636   2.372   8.251   2.995 -0.8261 -0.4462  0.4677
32795SOL     OW  637   5.767   4.853   2.565 -0.4145 -0.1029  0.0954
32795SOL    HW1  638   5.731   4.910   2.497 -2.0362 -0.7170  0.3807
32795SOL    HW2  639   5.734   4.891   2.647 -1.4652 -1.3594  0.2925
32796SOL     OW  640   1.979   8.970   4.540 -0.1678 -1.2344  0.3781
32796SOL    HW1  641   1.895   8.939   4.509 -0.4286  0.9286 -1.3034
32796SOL    HW2  642   2.036   8.966   4.464  0.9747 -1.6563  1.2208
32797SOL     OW  643   7.926   8.294   0.896  0.0344  0.6820 -0.0292
32797SOL    HW1  644   7.992   8.292   0.966  0.5053  1.5464 -0.4337
32797SOL    HW2  645   7.900   8.386   0.891 -1.8051  0.2384  0.6608
32798SOL     OW  646   1.823   2.460   7.909  0.8678 -0.0147 -0.0851
32798SOL    HW1  647   1.775   2.534   7.946  0.0315  0.1984 -1.5244
32798SOL    HW2  648   1.915   2.486   7.914  0.6553  0.6634  0.4014
32799SOL     OW  649   2.135   1.268   6.126 -0.2022  0.2826 -0.0578
32799SOL    HW1  650   2.121   1.190   6.072 -0.7048  0.6698 -0.4930
32799SOL    HW2  651   2.225   1.259   6.158  0.3691  0.3963 -1.5446
32800SOL     OW  652  10.030   7.031   7.796  0.0264 -0.0184  0.3745
32800SOL    HW1  653  10.021   6.969   7.869 -0.3261 -0.8484 -0.3519
32800SOL    HW2  654  10.008   7.116   7.834 -1.1945 -0.5808  1.0045
32801SOL     OW  655   4.995   7.955   9.157  0.0230 -0.3335 -0.0664
32801SOL    HW1  656   5.046   7.879   9.185 -0.0165 -1.0097 -1.7095
32801SOL    HW2  657   5.050   7.998   9.092 -0.8604 -0.1802 -0.7234
32802SOL     OW  658   6.992   8.091   5.376 -0.6541 -0.0164  0.0463
32802SOL    HW1  659   6.985   8.162   5.440 -1.4982 -0.3239  0.2977
32802SOL    HW2  660   7.079   8.054   5.393  0.1586  1.4698 -0.6485
32803SOL     OW  661   8.428   6.346   8.051 -0.0854  0.4360 -0.1052
32803SOL    HW1  662   8.502   6.300   8.011  1.0139  2.0311  0.0127
32803SOL    HW2  663   8.436   6.436   8.019 -0.1914  1.3680  2.2964
32804SOL     OW  664   3.362   9.027   1.926  0.2027 -0.1672  0.3019
32804SOL    HW1  665   3.301   9.058   1.859 -0.1601 -0.0049  0.7008
32804SOL    HW2  666   3.309   9.022   2.005 -0.1871 -3.3760 -0.0452
32805SOL     OW  667   4.893   7.922   2.453  0.1701 -0.1503  0.4673
32805SOL    HW1  668   4.877   7.831   2.476 -1.5233 -0.2195 -0.8370
32805SOL    HW2  669   4.935   7.919   2.367 -1.7311  0.3141 -0.5229
32806SOL     OW  670   1.082   6.591   4.890 -0.0036  0.0031 -0.2104
32806SOL    HW1  671   1.175   6.570   4.890  1.2621  4.4776  0.6871
32806SOL    HW2  672   1.053   6.574   4.801  2.1050 -0.0699 -0.9308
32807SOL     OW  673   1.983   1.281   9.071 -0.0134  0.2910 -0.4144
32807SOL    HW1  674   2.071   1.306   9.097  0.5441  0.9881 -2.7072
32807SOL    HW2  675   1.993   1.194   9.031 -0.7354 -0.5042  1.0561
32808SOL     OW  676   5.010   8.740   6.681  0.2639 -0.1364  0.0533
32808SOL    HW1  677   5.025   8.804   6.612  1.6042  1.0558  1.3893
32808SOL    HW2  678   5.090   8.687   6.683 -0.6478 -1.6365 -0.7383
32809SOL     OW  679   7.469   5.055   7.218  0.3389 -0.3518 -0.5314
32809SOL    HW1  680   7.437   5.060   7.128  1.9806  1.9570 -1.0610
32809SOL    HW2  681   7.411   5.114   7.266 -0.1470 -1.1145 -0.1493
32810SOL     OW  682   7.874   8.281   3.150 -0.0198 -0.0392  0.1470
32810SOL    HW1  683   7.954   8.228   3.142 -0.3462 -0.3452 -1.3136
32810SOL    HW2  684   7.896   8.363   3.106 -0.2114  0.2317  0.5555
32811SOL     OW  685   3.241   1.219   6.288 -0.4511 -0.1256  0.2040
32811SOL    HW1  686   3.244   1.257   6.376  0.3063  0.7628 -0.1769
32811SOL    HW2  687   3.153   1.239   6.256 -1.5095 -2.3328  1.5119
32812SOL     OW  688  10.336   7.033   1.047  0.3934 -0.2415  0.2424
32812SOL    HW1  689  10.291   7.074   0.974 -0.1942  2.1655  1.8225
32812SOL    HW2  690  10.281   6.959   1.072  0.2912 -0.7194 -1.3154
32813SOL     OW  691   9.165   4.027   5.076 -0.2914  0.3614 -0.1843
32813SOL    HW1  692   9.098   3.965   5.106  0.2215 -0.4566 -0.6926
32813SOL    HW2  693   9.136   4.053   4.989 -0.3188  0.5793 -0.1127
32814SOL     OW  694   5.769   3.534   6.713  0.2186 -0.2635  0.2992
32814SOL    HW1  695   5.677   3.560   6.705  0.9583  2.2642 -0.8199
32814SOL    HW2  696   5.775   3.453   6.663 -1.0411  0.5356 -1.2391
32815SOL     OW  697   3.984   2.138   7.632 -0.1099  0.0718  0.6003
32815SOL    HW1  698   3.890   2.160   7.635  0.0063  0.5365  1.0712
32815SOL    HW2  699   3.987   2.049   7.599 -0.7127  0.1174  0.4088
32816SOL     OW  700   3.218   8.261   9.410 -0.4572 -0.2504 -0.5113
32816SOL    HW1  701   3.230   8.244   9.316 -0.2088  0.5596 -0.6376
32816SOL    HW2  702   3.299   8.232   9.451 -1.2276 -2.2617 -0.2886
32817SOL     OW  703   6.463   6.220   6.179  0.2739 -0.2065  0.2172
32817SOL    HW1  704   6.465   6.221   6.084 -1.7484 -1.1474  0.1079
32817SOL    HW2  705   6.495   6.307   6.205 -1.0693  0.8309 -1.3936
32818SOL     OW  706   4.914   1.339   9.524  0.5046 -0.3521  0.0177
32818SOL    HW1  707   4.937   1.396   9.450  0.5448 -0.8698 -0.3749
32818SOL    HW2  708   4.926   1.394   9.601  2.0675 -0.2777 -0.2429
32819SOL     OW  709   8.697   5.220  10.449  0.0169 -0.5713 -0.2225
32819SOL    HW1  710   8.719   5.310  10.472 -0.2407 -0.5518 -0.0448
32819SOL    HW2  711   8.656   5.184  10.527  0.5063 -0.9803 -0.1453
32820SOL     OW  712   4.735   2.187   1.195  0.8700 -0.3382 -0.2640
32820SOL    HW1  713   4.657   2.211   1.245  1.8894 -0.3670  1.4377
32820SOL    HW2  714   4.702   2.142   1.118 -0.7693 -1.2366  0.9107
32821SOL     OW  715  10.581   6.907   6.455  0.2790  0.2493 -0.0809
32821SOL    HW1  716  10.506   6.854   6.425 -0.9545  1.6386  0.4255
32821SOL    HW2  717  10.652   6.843   6.467 -1.5388 -1.5697  1.9307
32822SOL     OW  718   1.734   0.405   1.244  0.0660  0.2031  0.1631
32822SOL    HW1  719   1.725   0.489   1.199 -0.3039 -0.6505 -1.4535
32822SOL    HW2  720   1.808   0.417   1.303 -2.0617  2.7386  2.6073
32823SOL     OW  721   8.201   8.130   7.664  0.0168  0.1011  0.0537
32823SOL    HW1  722   8.149   8.083   7.599 -1.4064  1.3800  0.2068
32823SOL    HW2  723   8.216   8.067   7.734 -1.3692 -0.3103  0.0129
32824SOL     OW  724   1.313   9.144   7.910  0.2399  0.2393 -0.1671
32824SOL    HW1  725   1.257   9.085   7.859 -1.6451  2.0361 -0.3245
32824SOL    HW2  726   1.383   9.170   7.850  0.4256 -0.8988 -0.4616
32825SOL     OW  727   8.784   1.821   2.441 -0.0829 -0.9388 -0.6879
32825SOL    HW1  728   8.804   1.884   2.372  2.5929  0.3459  1.0962
32825SOL    HW2  729   8.707   1.856   2.484 -0.6521 -0.7459 -1.8274
32826SOL     OW  730  10.064   6.816   2.580  0.4658 -0.1544  0.4276
32826SOL    HW1  731   9.994   6.785   2.522  1.5573  0.6251 -1.3872
32826SOL    HW2  732  10.109   6.736   2.608  0.9026 -0.4903 -1.1336
32827SOL     OW  733   3.267   6.927   2.662  0.2673 -0.3722 -0.2452
32827SOL    HW1  734   3.299   6.838   2.667 -0.4067 -0.5353  2.2718
32827SOL    HW2  735   3.340   6.977   2.626  0.6794 -1.8790 -1.6139
32828SOL     OW  736   7.237   5.671   4.806 -0.0471  0.1166  0.2371
32828SOL    HW1  737   7.162   5.612   4.810  0.0836 -0.0359  0.4781
32828SOL    HW2  738   7.232   5.711   4.719 -1.2017  1.1660  0.7645
32829SOL     OW  739   2.682   0.130   5.515 -0.0504 -0.5960 -0.2706
32829SOL    HW1  740   2.645   0.143   5.427 -0.2953  0.7373  0.0045
32829SOL    HW2  741   2.686   0.035   5.526  0.9082 -0.8181 -2.1160
32830SOL     OW  742   6.903   1.434   2.446  0.1084 -0.3445  0.0816
32830SOL    HW1  743   6.980   1.397   2.403 -0.1249  0.9468 -1.5687
32830SOL    HW2  744   6.829   1.385   2.409 -0.1949  1.5462 -2.0619
32831SOL     OW  745   4.669   0.542   3.913 -0.3167  0.1116 -0.1024
32831SOL    HW1  746   4.630   0.550   3.826 -1.5591 -3.2937 -0.0434
32831SOL    HW2  747   4.722   0.462   3.907  2.2896  1.6018  1.4261
32832SOL     OW  748  10.191  10.600   8.778 -0.4203 -0.1692 -0.5895
32832SOL    HW1  749  10.225  10.573   8.863 -4.2243 -1.4667  0.7436
32832SOL    HW2  750  10.216  10.529   8.719  1.2503  0.1700 -0.3329
32833SOL     OW  751   5.034   4.412   0.586  0.3585  0.3102  0.5123
32833SOL    HW1  752   5.111   4.463   0.613  1.2426 -1.0558  0.6374
32833SOL    HW2  753   5.069   4.326   0.562 -0.9125  0.1909 -1.0886
32834SOL     OW  754   1.319   2.531   4.617 -0.3640 -0.4781  0.1907
32834SOL    HW1  755   1.321   2.486   4.533 -0.7509 -0.3199  0.0899
32834SOL    HW2  756   1.376   2.480   4.674  1.8226  0.7428 -0.8065
32835SOL     OW  757   0.413   5.227   1.608 -0.2812 -0.1863  0.7282
32835SOL    HW1  758   0.505   5.254   1.614  0.5500 -2.4271 -0.6723
32835SOL    HW2  759   0.379   5.237   1.697  1.1076  1.3152  1.1333
32836SOL     OW  760   8.771   4.092   2.122 -0.6544 -0.3551  0.1360
32836SOL    HW1  761   8.838   4.029   2.148  0.4567  1.0230  0.7338
32836SOL    HW2  762   8.784   4.104   2.028 -0.4875 -0.5653  0.1323
32837SOL     OW  763   4.810   3.997   8.613 -0.3718 -0.1118  0.0508
32837SOL    HW1  764   4.789   4.016   8.521  0.5562 -0.8914 -0.3398
32837SOL    HW2  765   4.800   4.081   8.658  2.3257  1.1038 -1.3680
32838SOL     OW  766   2.000   1.179   6.343  0.4096 -0.0961 -0.1551
32838SOL    HW1  767   1.985   1.243   6.413  0.7091 -0.4141  0.2078
32838SOL    HW2  768   2.049   1.227   6.277  2.8603 -0.5637  1.1962
32839SOL     OW  769   1.049   6.590   9.518  0.1384 -0.2335 -0.3605
32839SOL    HW1  770   0.975   6.540   9.553  0.4702 -0.1546  0.4709
32839SOL    HW2  771   1.122   6.568   9.575  0.5477  0.3595 -0.6500
32840SOL     OW  772   6.288   3.639   6.655 -0.2250 -0.5584 -0.0416
32840SOL    HW1  773   6.268   3.576   6.724 -2.4467  0.9432  0.7741
32840SOL    HW2  774   6.349   3.700   6.696 -1.3217  0.1690  0.5507
32841SOL     OW  775   9.592   7.852   9.018 -0.0733  0.8054  0.4626
32841SOL    HW1  776   9.574   7.791   9.089  2.9891  0.3385  0.9744
32841SOL    HW2  777   9.566   7.806   8.938 -0.6142  0.0755  1.0532
32842SOL     OW  778   0.272   0.066   6.434  0.4652  0.2145 -0.2527
32842SOL    HW1  779   0.269   0.066   6.339 -1.6260  1.3209 -0.2568
32842SOL    HW2  780   0.194   0.116   6.460  0.8569 -0.2598  2.0371
32843SOL     OW  781   9.945   2.214  10.044 -0.3173 -0.1012 -0.4170
32843SOL    HW1  782   9.991   2.266  10.110 -0.9011 -0.8990  0.6533
32843SOL    HW2  783   9.860   2.195  10.084  0.1932 -2.6464 -0.3493
32844SOL     OW  784   6.124   3.160   3.272 -0.0345  0.0709 -0.3701
32844SOL    HW1  785   6.127   3.105   3.350 -0.3309  2.6407  1.5724
32844SOL    HW2  786   6.215   3.186   3.258  0.3357 -1.9058 -2.1494
32845SOL     OW  787   4.417   7.316   6.128  0.0723  0.0501  0.1890
32845SOL    HW1  788   4.386   7.379   6.064 -0.8275 -2.2772 -1.8081
32845SOL    HW2  789   4.403   7.231   6.087  3.6495 -1.4229  1.6472
32846SOL     OW  790   8.350   2.453   1.765 -0.2700 -0.6337  0.2793
32846SOL    HW1  791   8.275   2.493   1.721  0.2320 -0.0642 -0.0680
32846SOL    HW2  792   8.324   2.450   1.858 -0.5012  0.0799  0.2466
32847SOL     OW  793   1.085   5.416   7.656  0.0641  0.0520  0.0462
32847SOL    HW1  794   1.017   5.414   7.589  0.6260 -0.9649 -0.5187
32847SOL    HW2  795   1.118   5.506   7.655  0.4598 -0.0802 -1.4567
32848SOL     OW  796   3.138   1.627   3.136 -0.0835 -0.1901  0.2283
32848SOL    HW1  797   3.120   1.603   3.227 -0.2539 -3.4734 -0.5632
32848SOL    HW2  798   3.233   1.626   3.129 -0.0838 -0.4877  0.2545
32849SOL     OW  799   8.130   8.557   8.766  0.1203 -0.1317  0.0826
32849SOL    HW1  800   8.116   8.466   8.740 -1.3646  0.4453 -1.3007
32849SOL    HW2  801   8.063   8.606   8.719 -0.6052  1.4275  2.6000
32850SOL     OW  802   7.387   1.326   7.616  0.4115 -0.0694 -0.1534
32850SOL    HW1  803   7.324   1.393   7.642  0.5359 -0.6055  1.6416
32850SOL    HW2  804   7.340   1.244   7.623  0.8851 -0.3530 -0.2381
32851SOL     OW  805   3.166   5.119   4.648 -0.1935 -0.0340 -0.0633
32851SOL    HW1  806   3.117   5.059   4.705  1.2217 -0.2975  0.9189
32851SOL    HW2  807   3.131   5.102   4.561  0.1928 -2.3702  0.1700
32852SOL     OW  808   1.927   4.293   7.350  0.1043  0.5264 -0.1906
32852SOL    HW1  809   1.836   4.325   7.351  0.1263  0.7968  2.5769
32852SOL    HW2  810   1.967   4.335   7.426  2.5793  0.3691 -1.3141
32853SOL     OW  811   9.527   6.902   5.840 -0.1708 -0.0133  0.0560
32853SOL    HW1  812   9.440   6.887   5.803  0.3846  0.4813 -1.5644
32853SOL    HW2  813   9.559   6.980   5.794  1.4856 -0.7308 -0.0849
32854SOL     OW  814   9.572   8.748   2.918  0.4015  0.1625  0.7036
32854SOL    HW1  815   9.483   8.763   2.887  0.7793 -1.3792 -1.3775
32854SOL    HW2  816   9.570   8.658   2.953  1.3219 -0.2638 -0.2777
32855SOL     OW  817   8.969   6.217   8.955  0.0279  0.3505  0.4356
32855SOL    HW1  818   8.889   6.261   8.984 -0.0673  0.0215  0.6668
32855SOL    HW2  819   9.037   6.249   9.015  0.0032  0.3523  0.4626
32856SOL     OW  820   1.752   0.155   5.510 -0.5018 -0.2160 -0.4974
32856SOL    HW1  821   1.818   0.106   5.460 -0.2405  0.3715 -0.7309
32856SOL    HW2  822   1.763   0.124   5.599 -1.1750 -1.5020 -0.8331
32857SOL     OW  823   1.651   9.195   4.771 -0.2724 -0.4549  0.8978
32857SOL    HW1  824   1.743   9.189   4.746 -0.9980 -2.4228 -1.6881
32857SOL    HW2  825   1.615   9.263   4.715 -0.6202 -0.3650  1.2251
32858SOL     OW  826   7.941   8.218   9.947 -0.0423  0.0702 -0.3537
32858SOL    HW1  827   7.899   8.139   9.980  0.5571 -1.1283 -2.2959
32858SOL    HW2  828   8.030   8.191   9.923 -0.6476  0.5241 -3.6607
32859SOL     OW  829   6.726   2.067  10.440 -0.0512  0.5206  0.2011
32859SOL    HW1  830   6.644   2.116  10.438  0.3232  1.2219  1.2199
32859SOL    HW2  831   6.785   2.118  10.385 -0.9382 -1.3192 -2.7251
32860SOL     OW  832   8.545   9.713   7.407  0.1911  0.1172  0.4246
32860SOL    HW1  833   8.468   9.768   7.416 -0.1146 -0.2496  0.0623
32860SOL    HW2  834   8.551   9.693   7.313  1.7262  1.5664  0.1564
32861SOL     OW  835   2.468   7.262   9.196  0.2031 -0.0754 -0.0247
32861SOL    HW1  836   2.399   7.313   9.152 -1.2013 -1.7938  0.0988
32861SOL    HW2  837   2.548   7.285   9.148 -0.5643  1.3307 -0.7112
32862SOL     OW  838   6.467   7.100   3.584 -0.0668  0.0285 -0.3709
32862SOL    HW1  839   6.372   7.098   3.573 -0.0315  0.7246 -0.9110
32862SOL    HW2  840   6.501   7.092   3.495  0.3758  0.0746 -0.2064
32863SOL     OW  841   8.102  10.596   2.439  0.8810 -0.6618  0.1290
32863SOL    HW1  842   8.195  10.579   2.445  1.5361  2.7394  2.9997
32863SOL    HW2  843   8.096  10.691   2.423 -2.0871 -0.8350 -0.3767
32864SOL     OW  844   5.560   8.191   6.626 -0.1110  0.1078  0.1720
32864SOL    HW1  845   5.559   8.113   6.570  0.0153  0.8579 -0.8922
32864SOL    HW2  846   5.487   8.178   6.687  0.2924 -1.1264  0.4244
32865SOL     OW  847   3.369   4.593   5.351 -0.1073 -0.8707 -0.1664
32865SOL    HW1  848   3.444   4.535   5.341  0.0019 -0.7199 -0.2267
32865SOL    HW2  849   3.295   4.543   5.317  0.2270 -0.4161 -1.6270
32866SOL     OW  850   1.617  10.543   8.294  0.1948  0.2566  0.1430
32866SOL    HW1  851   1.532  10.558   8.334  1.3762  0.8322  2.6650
32866SOL    HW2  852   1.609  10.578   8.205 -2.3164 -0.2322  0.1188
32867SOL     OW  853   3.528   2.824   2.970  0.3217  0.3088  0.0999
32867SOL    HW1  854   3.455   2.869   2.929  0.8286  0.1081 -1.0477
32867SOL    HW2  855   3.521   2.848   3.063 -0.6727  0.9977 -0.1350
32868SOL     OW  856   2.350   8.850   4.019  0.2097 -0.6519  0.3594
32868SOL    HW1  857   2.316   8.938   4.001 -2.0058 -1.4015  0.5347
32868SOL    HW2  858   2.405   8.860   4.096  0.0740  0.5910  0.3154
32869SOL     OW  859   1.450   6.618  10.480 -0.2097 -0.5676  0.0293
32869SOL    HW1  860   1.536   6.619  10.437 -1.2789 -1.2728 -2.2667
32869SOL    HW2  861   1.412   6.703  10.458 -1.3419 -1.4774 -1.8037
32870SOL     OW  862   0.497   2.619   1.631  0.2289 -0.4213 -0.1074
32870SOL    HW1  863   0.524   2.619   1.539  0.6964 -0.5295  0.0300
32870SOL    HW2  864   0.474   2.710   1.649  1.0791 -0.2086 -0.0559
32871SOL     OW  865   2.251   6.792   0.639  0.1180  0.2930 -0.4064
32871SOL    HW1  866   2.248   6.701   0.669  2.0845  0.1240 -0.5962
32871SOL    HW2  867   2.270   6.842   0.719 -1.3144  0.6183 -0.2350
32872SOL     OW  868   8.121   2.680   3.471  0.0364  0.4367 -0.5412
32872SOL    HW1  869   8.193   2.742   3.483  0.1683  0.1847 -0.0278
32872SOL    HW2  870   8.053   2.731   3.428  0.4479  0.7262 -0.8621
32873SOL     OW  871   2.938   5.920   6.598  0.3526 -0.2283 -0.4458
32873SOL    HW1  872   2.933   5.903   6.504  0.1637 -1.0308 -0.2936
32873SOL    HW2  873   3.027   5.893   6.622  0.1115 -0.8467 -0.2366
32874SOL     OW  874   9.557   8.039   5.434 -0.3282 -0.1540 -0.2423
32874SOL    HW1  875   9.617   8.109   5.461 -0.7666  0.7108 -1.4067
32874SOL    HW2  876   9.525   8.002   5.516  1.8657 -0.7363  0.4209
32875SOL     OW  877   2.259   1.851   3.710 -0.3601  0.4355  0.6856
32875SOL    HW1  878   2.270   1.945   3.698  2.2750  0.3866  1.9236
32875SOL    HW2  879   2.182   1.842   3.766  0.5368  2.0494  2.2847
32876SOL     OW  880   2.459   4.405   7.676 -0.0523  0.1005 -0.1097
32876SOL    HW1  881   2.390   4.344   7.652  0.6025 -1.2998  1.3358
32876SOL    HW2  882   2.432   4.488   7.639 -1.2895 -0.9189 -1.6397
32877SOL     OW  883   2.119   8.210   4.554  0.3995 -0.0276  0.5481
32877SOL    HW1  884   2.136   8.120   4.527  1.3614 -0.6106  2.8373
32877SOL    HW2  885   2.025   8.212   4.572  0.1743 -0.2472 -0.5425
32878SOL     OW  886   8.431   8.533   3.855 -0.2956  0.5886  0.5381
32878SOL    HW1  887   8.427   8.467   3.787 -1.5278  0.9239  0.2678
32878SOL    HW2  888   8.469   8.488   3.931  0.7202  0.1166 -0.2335
32879SOL     OW  889   2.903  10.188   8.917  0.7288  0.9437 -0.1605
32879SOL    HW1  890   2.829  10.127   8.918  0.6871  0.9939  0.7138
32879SOL    HW2  891   2.958  10.159   8.989  1.9726  0.4249 -1.2785
32880SOL     OW  892   9.450   2.897   7.083  0.4578 -0.3042  0.2577
32880SOL    HW1  893   9.440   2.962   7.152  0.7408  0.2179 -0.1878
32880SOL    HW2  894   9.450   2.947   7.002  0.2316 -0.9012 -0.1195
32881SOL     OW  895   9.193   1.766   0.620 -0.4046 -0.4130 -0.7471
32881SOL    HW1  896   9.261   1.831   0.633 -2.2571  1.8251 -1.6129
32881SOL    HW2  897   9.111   1.813   0.636 -1.7930 -3.1782  1.1089
32882SOL     OW  898   7.275   5.692   5.107 -1.1515 -0.4298 -0.0777
32882SOL    HW1  899   7.210   5.759   5.127 -0.6619  0.0248  0.0423
32882SOL    HW2  900   7.263   5.673   5.014 -0.8108  0.3806 -0.3020
32883SOL     OW  901   8.734   8.535  10.479  0.3667  0.1042  0.3240
32883SOL    HW1  902   8.696   8.534  10.391  0.9170 -0.7342  0.0970
32883SOL    HW2  903   8.687   8.466  10.525 -0.0397  0.6529  0.7559
32884SOL     OW  904   2.631   6.780   8.326  0.2197 -0.2210 -0.0905
32884SOL    HW1  905   2.632   6.684   8.336 -1.2725 -0.4435 -1.5864
32884SOL    HW2  906   2.654   6.795   8.235 -1.3917  0.7077 -0.3794
32885SOL     OW  907   9.672   1.952   7.030 -0.2301 -0.1618 -0.4087
32885SOL    HW1  908   9.585   1.990   7.038  0.5284  1.4269  0.8362
32885SOL    HW2  909   9.731   2.027   7.019  1.2133 -1.0043  1.0919
32886SOL     OW  910   2.972   3.221   0.888 -0.3599  0.0702 -0.1521
32886SOL    HW1  911   2.942   3.137   0.854  0.5973 -0.4930  0.3579
32886SOL    HW2  912   2.968   3.280   0.813 -1.6520 -0.2588 -0.3639
32887SOL     OW  913   6.774   7.125   9.356  0.0460 -0.1097 -0.5429
32887SOL    HW1  914   6.826   7.055   9.395 -1.6908 -0.8971  0.4933
32887SOL    HW2  915   6.838   7.184   9.316  1.6993 -1.0457  0.6218
32888SOL     OW  916   2.908  10.637   9.912 -0.6418  0.6398  1.0151
32888SOL    HW1  917   2.883  10.545   9.913 -1.5699  0.8722  0.5943
32888SOL    HW2  918   2.989  10.641   9.962  0.5258 -0.7005 -0.6818
32889SOL     OW  919   3.119   2.110   1.426  0.2471  0.3164 -0.4307
32889SOL    HW1  920   3.130   2.054   1.349 -0.0028 -1.0810  0.5076
32889SOL    HW2  921   3.189   2.175   1.418  1.2447 -0.7749 -1.0388
32890SOL     OW  922   6.965   6.307   0.285  0.3230  0.4938  0.6272
32890SOL    HW1  923   7.021   6.280   0.357  1.2894 -2.2985 -0.9993
32890SOL    HW2  924   7.015   6.285   0.206 -2.0794  0.0687 -0.9013
32891SOL     OW  925   6.153   8.664   2.048 -0.1245  0.1950 -0.3433
32891SOL    HW1  926   6.194   8.744   2.014  0.4925 -0.1358 -0.3855
32891SOL    HW2  927   6.197   8.648   2.131  0.1408 -0.4113 -0.6002
32892SOL     OW  928   3.572   5.239   3.190 -0.5252 -0.2437  0.2192
32892SOL    HW1  929   3.589   5.326   3.226 -0.5627 -0.4085  0.6464
32892SOL    HW2  930   3.590   5.179   3.263 -2.2990 -0.4765  0.5113
32893SOL     OW  931   7.657   6.232   1.933 -0.1126  0.1770  0.2712
32893SOL    HW1  932   7.573   6.276   1.919  0.3119  0.3408 -2.1484
32893SOL    HW2  933   7.721   6.290   1.892  1.3483  0.3995  2.6539
32894SOL     OW  934   5.794   3.943   9.652  0.7836  0.0106  0.1212
32894SOL    HW1  935   5.853   3.869   9.641  0.8379  0.1085 -0.2452
32894SOL    HW2  936   5.711   3.905   9.680  1.5787  0.0011  2.7355
32895SOL     OW  937   0.155   4.958   1.558 -0.3429 -0.6890 -0.3842
32895SOL    HW1  938   0.198   4.969   1.643 -1.9638 -0.5544  0.4546
32895SOL    HW2  939   0.073   5.008   1.566 -1.2168 -1.8822 -1.4947
32896SOL     OW  940   0.500   6.681   6.752 -0.2004  0.1595 -0.2512
32896SOL    HW1  941   0.576   6.686   6.809  0.2133 -0.4281 -0.7333
32896SOL    HW2  942   0.425   6.681   6.811  0.0999  2.1182  0.1798
32897SOL     OW  943   7.910   3.616   2.989 -0.2524 -0.2632 -0.1807
32897SOL    HW1  944   7.852   3.542   3.000  0.4177 -0.8319 -0.4022
32897SOL    HW2  945   7.983   3.582   2.937 -1.2548  1.2286 -2.7340
32898SOL     OW  946   0.999   7.818   3.417 -0.1015 -0.6863 -0.4606
32898SOL    HW1  947   0.981   7.859   3.502 -1.4386 -0.1452 -0.9880
32898SOL    HW2  948   1.094   7.801   3.418  0.1173  0.4963  0.6043
32899SOL     OW  949   6.785   3.620   6.847 -0.1947 -0.4465 -0.3435
32899SOL    HW1  950   6.862   3.671   6.869 -0.8018  0.8230 -1.0450
32899SOL    HW2  951   6.814   3.563   6.775  0.3692 -0.7889  0.1485
32900SOL     OW  952  10.227   0.053   2.411 -0.4738 -0.7730  0.1119
32900SOL    HW1  953  10.315   0.072   2.379 -0.2796 -0.2219  0.9411
32900SOL    HW2  954  10.171   0.064   2.335  0.1807 -1.2649 -0.4604
32901SOL     OW  955   4.002   1.103   8.432 -0.2746  0.6590 -0.1155
32901SOL    HW1  956   4.029   1.070   8.346  3.1489  0.6989  0.8037
32901SOL    HW2  957   3.979   1.195   8.416 -1.9239  0.0891 -1.3019
32902SOL     OW  958   8.992   5.324   8.041  0.3138 -0.1621 -0.2773
32902SOL    HW1  959   8.990   5.417   8.065  2.3223 -0.3841  0.9788
32902SOL    HW2  960   8.905   5.307   8.004 -2.1106  0.9766  4.1711
32903SOL     OW  961   8.124   6.805   3.088  0.1577 -0.0850  0.2198
32903SOL    HW1  962   8.062   6.772   3.153  1.2032 -0.9373  0.8196
32903SOL    HW2  963   8.149   6.728   3.037  1.2531  0.1096  0.4500
32904SOL     OW  964   4.314   4.554   4.880 -0.5040 -0.0981  0.0870
32904SOL    HW1  965   4.327   4.612   4.805  0.0436  0.1250  0.3570
32904SOL    HW2  966   4.386   4.491   4.874 -1.4733 -1.1962 -0.6068
32905SOL     OW  967   9.716   1.797   1.700  0.6473  0.6029  0.2683
32905SOL    HW1  968   9.769   1.754   1.632 -0.2911  0.0991 -0.1717
32905SOL    HW2  969   9.626   1.791   1.667  0.2071  0.5902  1.4375
32906SOL     OW  970  10.446   6.300   9.886 -0.0765  0.0596  0.0264
32906SOL    HW1  971  10.456   6.227   9.947 -0.3708  1.1623  1.4679
32906SOL    HW2  972  10.458   6.262   9.799 -1.3570 -1.9073  0.6479
32907SOL     OW  973   4.659   8.558   6.566 -0.4815 -0.1661  0.3546
32907SOL    HW1  974   4.591   8.524   6.508 -1.5475 -0.5203  1.7309
32907SOL    HW2  975   4.628   8.645   6.590 -0.2251 -0.1463  0.6206
32908SOL     OW  976   8.771   1.239   9.502  0.3150 -0.3077 -0.5194
32908SOL    HW1  977   8.779   1.306   9.570 -1.5533 -0.9423  0.3747
32908SOL    HW2  978   8.837   1.264   9.436  0.4608  1.7231  0.3305
32909SOL     OW  979  10.177   8.272   3.329  0.0087 -0.1549 -0.2222
32909SOL    HW1  980  10.103   8.282   3.389  0.0840  2.1240 -0.4142
32909SOL    HW2  981  10.198   8.179   3.332 -2.6206 -0.8036  0.1083
32910SOL     OW  982   6.560   1.809   1.881  0.5697 -0.6543 -0.0719
32910SOL    HW1  983   6.578   1.753   1.957 -0.3047 -1.6030 -0.5327
32910SOL    HW2  984   6.598   1.894   1.903 -0.9681 -0.4590  2.0752
32911SOL     OW  985  10.042   0.905   5.708 -0.0047 -0.3279 -0.1398
32911SOL    HW1  986  10.090   0.890   5.790 -1.3487 -0.8189  0.5865
32911SOL    HW2  987   9.984   0.978   5.727  1.3783  1.1973 -1.4507
32912SOL     OW  988   0.659   2.588   4.499  0.4913  0.2702  0.2391
32912SOL    HW1  989   0.588   2.568   4.439  0.0661  1.8661  0.1453
32912SOL    HW2  990   0.736   2.545   4.462 -0.2600 -0.8189 -0.0886
32913SOL     OW  991   7.481   2.829   3.154 -0.1513  0.0259 -0.5467
32913SOL    HW1  992   7.575   2.816   3.137 -0.2368 -2.1869  0.3100
32913SOL    HW2  993   7.444   2.849   3.068  0.9969  0.2138 -1.0213
32914SOL     OW  994   7.806   5.005   4.522  0.5634 -0.0284 -0.3425
32914SOL    HW1  995   7.792   5.099   4.526  3.5955  0.4716  0.9622
32914SOL    HW2  996   7.825   4.987   4.430 -1.2028  0.3636 -0.8228
32915SOL     OW  997   1.853  10.526   0.272  0.6484  0.3151  0.1707
32915SOL    HW1  998   1.896  10.542   0.356  2.8086 -0.4520 -0.7200
32915SOL    HW2  999   1.822  10.435   0.278 -0.8450  0.8247  0.7613
32916SOL     OW 1000   9.150   2.695   6.815 -0.1353 -0.3904  0.7969
32916SOL    HW1 1001   9.123   2.603   6.824  2.0321 -1.1643 -0.0382
32916SOL    HW2 1002   9.208   2.710   6.890  1.3098 -0.4263 -0.2849
32917SOL     OW 1003   7.444   2.017   1.795  0.5275  0.0893  0.4458
32917SOL    HW1 1004   7.413   2.107   1.782 -1.6500 -0.5840  0.6498
32917SOL    HW2 1005   7.467   2.013   1.888  2.6922  0.9746  0.0150
32918SOL     OW 1006   9.226   7.583   7.582 -0.5849 -0.2109 -0.2762
32918SOL    HW1 1007   9.251   7.667   7.543 -1.6769  0.0019 -0.5323
32918SOL    HW2 1008   9.235   7.520   7.511 -1.4848 -0.0069 -0.5852
32919SOL     OW 1009   0.532   5.048   3.678  0.3589  0.0111 -0.4596
32919SOL    HW1 1010   0.591   5.120   3.657  0.6115 -0.1550 -0.3198
32919SOL    HW2 1011   0.465   5.052   3.610 -0.5118  1.3480  0.4066
32920SOL     OW 1012   4.456   9.369   9.306  0.3115  0.2370 -0.4412
32920SOL    HW1 1013   4.371   9.324   9.309  0.6235 -0.4433 -1.4960
32920SOL    HW2 1014   4.439   9.453   9.348 -0.0620 -1.1715  2.4666
32921SOL     OW 1015  10.564   1.615  10.604  0.2722  0.3190 -0.0314
32921SOL    HW1 1016  10.620   1.557  10.656 -0.1132  0.4330  0.5218
32921SOL    HW2 1017  10.517   1.667  10.669  0.0447  0.7127 -0.5093
32922SOL     OW 1018   2.736   3.668   4.621  0.0296  0.2807 -0.0009
32922SOL    HW1 1019   2.715   3.734   4.554  0.7308  0.8200  0.2971
32922SOL    HW2 1020   2.789   3.715   4.685  1.6674 -0.8741 -0.4424
32923SOL     OW 1021   9.806   0.478   7.066 -0.6943  0.2081 -0.2745
32923SOL    HW1 1022   9.842   0.501   6.981  0.2065 -0.4763 -0.1070
32923SOL    HW2 1023   9.713   0.467   7.051 -0.7162  1.1783 -0.9262
32924SOL     OW 1024   3.207   5.841   5.224 -0.2803  0.4790  0.1111
32924SOL    HW1 1025   3.258   5.816   5.147 -1.5031  1.2914 -1.0029
32924SOL    HW2 1026   3.136   5.778   5.228  0.8776 -0.8044  1.8094
32925SOL     OW 1027   7.012   9.910   7.709 -0.0081  0.4744  0.2342
32925SOL    HW1 1028   7.064   9.854   7.765  1.8974  1.6056 -0.2869
32925SOL    HW2 1029   7.066   9.923   7.631 -0.9504  1.9147 -0.2409
32926SOL     OW 1030   9.467   1.475   1.847  0.1967 -0.3279 -0.0361
32926SOL    HW1 1031   9.528   1.463   1.774 -0.7163  0.9538 -1.0485
32926SOL    HW2 1032   9.506   1.544   1.900  0.7551 -1.1164  0.6130
32927SOL     OW 1033   0.310   2.381   0.351  0.0291 -0.1180 -0.6439
32927SOL    HW1 1034   0.387   2.366   0.406 -0.3169 -0.3540 -0.2180
32927SOL    HW2 1035   0.345   2.411   0.268  0.5494  0.6019 -0.1731
32928SOL     OW 1036  10.545   0.948   9.208 -0.1386  0.4363 -1.3411
32928SOL    HW1 1037  10.565   0.933   9.116  1.2456 -0.3859 -0.9337
32928SOL    HW2 1038  10.576   1.037   9.226 -0.1200  0.4794 -1.5875
32929SOL     OW 1039   0.448  10.539   4.019 -0.7192  0.2106 -0.8486
32929SOL    HW1 1040   0.473  10.483   4.092 -0.8960 -0.1634 -1.0703
32929SOL    HW2 1041   0.521  10.600   4.010 -1.9297  2.1495  1.4657
32930SOL     OW 1042   4.035   6.936   0.235  0.1482 -0.0947 -0.0184
32930SOL    HW1 1043   3.997   6.848   0.236 -0.0665 -0.0001  0.1049
32930SOL    HW2 1044   3.994   6.979   0.160  0.6383 -0.2705 -0.3878
32931SOL     OW 1045   5.509   5.630   3.762  0.1205 -0.1187 -0.3647
32931SOL    HW1 1046   5.439   5.618   3.826  0.1346 -1.1364 -0.5220
32931SOL    HW2 1047   5.493   5.717   3.725 -1.1562 -0.3911 -0.5093
32932SOL     OW 1048   8.054   7.883   5.114 -0.5195  0.1116 -0.7484
32932SOL    HW1 1049   8.051   7.791   5.136  0.3198  0.0078 -1.0110
32932SOL    HW2 1050   8.138   7.913   5.149 -0.2874  0.5101 -1.6172
32933SOL     OW 1051   1.034   7.597   1.209  0.3334  0.1975  0.3626
32933SOL    HW1 1052   1.024   7.692   1.214 -1.4155  0.0960 -0.3985
32933SOL    HW2 1053   1.076   7.572   1.291  0.2816  1.5621  0.8172
32934SOL     OW 1054   0.411   4.885   6.405  0.3214 -0.0107  0.0968
32934SOL    HW1 1055   0.423   4.802   6.360 -1.1332 -0.3970  0.3526
32934SOL    HW2 1056   0.450   4.871   6.491 -0.7637 -0.8007  0.4906
32935SOL     OW 1057  10.130   2.087   1.606 -0.6316  0.0948 -0.5859
32935SOL    HW1 1058  10.225   2.073   1.611 -0.9167 -2.6193 -1.1745
32935SOL    HW2 1059  10.106   2.053   1.520 -2.1319  0.8785 -0.4995
32936SOL     OW 1060   3.744   8.819   7.057 -0.2864  0.2099 -0.0910
32936SOL    HW1 1061   3.836   8.798   7.070 -0.3367 -0.2205 -0.4212
32936SOL    HW2 1062   3.696   8.757   7.111 -0.5343 -2.1779 -2.7983
32937SOL     OW 1063   1.128   8.042   2.957 -0.4681  0.0282 -0.3163
32937SOL    HW1 1064   1.096   7.967   3.007 -0.3544 -0.0467 -0.3541
32937SOL    HW2 1065   1.210   8.067   3.001 -0.3739 -0.0311 -0.4569
32938SOL     OW 1066   3.744   5.126   2.621  0.2648 -0.4763  0.2505
32938SOL    HW1 1067   3.756   5.203   2.678 -0.3097  0.4775 -0.8658
32938SOL    HW2 1068   3.742   5.052   2.682 -2.1802  0.6553  1.7253
32939SOL     OW 1069   7.660   0.407   1.503  0.3010  0.4512 -0.2361
32939SOL    HW1 1070   7.696   0.483   1.457  1.7731 -0.3936 -0.5430
32939SOL    HW2 1071   7.724   0.337   1.488 -0.3691 -0.5022  1.1087
32940SOL     OW 1072   2.538   2.892   1.565 -0.3973  0.5938 -0.5790
32940SOL    HW1 1073   2.502   2.836   1.635  0.4259 -0.1116 -0.6992
32940SOL    HW2 1074   2.542   2.834   1.489  1.8755  0.3267 -0.3245
32941SOL     OW 1075   4.194   8.518   4.193 -0.5770 -0.4558 -0.7630
32941SOL    HW1 1076   4.154   8.433   4.211 -0.7229 -0.1970  0.1514
32941SOL    HW2 1077   4.239   8.505   4.109 -1.9111 -0.9648 -1.4240
32942SOL     OW 1078   4.765   1.483   4.318  0.1462 -0.0929  0.1062
32942SOL    HW1 1079   4.840   1.537   4.291  1.4334 -1.7665  0.1566
32942SOL    HW2 1080   4.776   1.401   4.269 -0.4813 -1.1553  1.6848
32943SOL     OW 1081  10.552   0.954   6.571  0.0071 -0.6589 -0.3919
32943SOL    HW1 1082  10.542   0.905   6.653 -1.1076 -0.1109 -0.1853
32943SOL    HW2 1083  10.641   0.934   6.542  0.4128 -0.8765  0.9398
32944SOL     OW 1084   0.145   3.120   8.035 -0.0603 -0.0920 -0.2283
32944SOL    HW1 1085   0.194   3.042   8.010  0.0319 -0.2049  0.3094
32944SOL    HW2 1086   0.067   3.087   8.079  0.6468  0.1403  1.2302
32945SOL     OW 1087   3.508   0.748   9.770  0.0772  0.3391 -0.0733
32945SOL    HW1 1088   3.588   0.798   9.787  0.1056  0.5797 -0.8823
32945SOL    HW2 1089   3.532   0.688   9.699 -0.4343  0.3456 -0.2541
32946SOL     OW 1090  10.633   3.132   3.980  0.0159 -0.0000 -0.1513
32946SOL    HW1 1091  10.598   3.205   4.030 -0.2263 -1.2543  1.6097
32946SOL    HW2 1092  10.637   3.060   4.043  1.7839 -1.0572 -1.3948
32947SOL     OW 1093   0.053   9.540  10.143 -0.5872  0.0554  0.1151
32947SOL    HW1 1094   0.075   9.450  10.168  0.9029  0.8131  1.7050
32947SOL    HW2 1095   0.127   9.569  10.090 -0.8636  0.4811 -0.0396
32948SOL     OW 1096   5.680   9.282   2.876  0.0773 -0.0816  0.1568
32948SOL    HW1 1097   5.690   9.262   2.969 -2.7194 -0.0629  0.5389
32948SOL    HW2 1098   5.623   9.213   2.843  0.5202  0.2759 -1.4103
32949SOL     OW 1099   4.663   3.516   1.290  0.0547 -0.3370  0.0632
32949SOL    HW1 1100   4.574   3.530   1.321 -0.1797  1.6138 -1.2982
32949SOL    HW2 1101   4.716   3.578   1.341  0.3834 -0.3635 -0.2406
32950SOL     OW 1102   6.569   4.095   1.334  0.0113  0.2021 -0.7288
32950SOL    HW1 1103   6.615   4.176   1.310 -0.4294  0.9435  0.8049
32950SOL    HW2 1104   6.616   4.026   1.288  2.8356  0.8888  0.9001
32951SOL     OW 1105   9.049   5.946   4.475 -0.6950 -0.0786  0.4984
32951SOL    HW1 1106   8.975   5.892   4.449 -0.2160 -0.5329  0.0608
32951SOL    HW2 1107   9.089   5.975   4.393 -0.0523 -0.3080  0.7174
32952SOL     OW 1108   4.203   8.572   1.287  0.1929 -0.3950  0.1449
32952SOL    HW1 1109   4.258   8.647   1.263  2.1271 -1.8982 -0.3530
32952SOL    HW2 1110   4.247   8.534   1.363 -1.8822  0.0830  1.6655
32953SOL     OW 1111   7.501   0.771   5.344 -0.1726 -0.4542 -0.3757
32953SOL    HW1 1112   7.539   0.793   5.258  0.9032 -1.4117 -0.1713
32953SOL    HW2 1113   7.432   0.709   5.324  0.6665 -1.3732 -0.5053
32954SOL     OW 1114   1.119   2.094   6.716  0.1075  0.5500  0.2835
32954SOL    HW1 1115   1.139   2.128   6.628 -1.2535  1.8402  0.4372
32954SOL    HW2 1116   1.203   2.095   6.761  0.8815 -0.3664 -1.0513
32955SOL     OW 1117   8.885  10.292   8.934  0.1914 -0.0072  0.3097
32955SOL    HW1 1118   8.900  10.204   8.900  1.6315  0.4383 -0.2938
32955SOL    HW2 1119   8.906  10.287   9.027 -0.7008 -0.5074  0.4988
32956SOL     OW 1120   1.948   4.707   2.533 -0.1077 -0.3138 -0.2640
32956SOL    HW1 1121   2.018   4.651   2.567  0.2427  0.1137 -0.2735
32956SOL    HW2 1122   1.969   4.718   2.440  0.9996  1.4996  0.1357
32957SOL     OW 1123   3.547   1.264   7.586 -0.1564 -0.1199  0.1039
32957SOL    HW1 1124   3.574   1.195   7.646  1.2942  0.7018  0.4368
32957SOL    HW2 1125   3.616   1.330   7.592 -2.3926  2.2725  1.2171
32958SOL     OW 1126   4.598   5.107   8.138 -0.3235  0.7654 -0.1045
32958SOL    HW1 1127   4.645   5.186   8.164  0.1150  0.6277 -0.4684
32958SOL    HW2 1128   4.630   5.089   8.049 -2.0033  1.4009 -0.8823
32959SOL     OW 1129   8.686   0.571   5.246  0.3659  0.1302  0.1452
32959SOL    HW1 1130   8.598   0.587   5.210  0.2440 -1.2601 -0.2245
32959SOL    HW2 1131   8.672   0.563   5.340  0.0034 -0.5755  0.0416
32960SOL     OW 1132   0.771   0.852   8.389  0.0903 -0.3398  0.1821
32960SOL    HW1 1133   0.828   0.924   8.417 -0.7299 -0.5544  2.6707
32960SOL    HW2 1134   0.682   0.889   8.395 -0.1855 -0.6604 -1.5471
32961SOL     OW 1135   6.262   7.886   9.145 -0.2432  0.6823 -0.1535
32961SOL    HW1 1136   6.328   7.950   9.172 -0.6331  1.6665 -1.4593
32961SOL    HW2 1137   6.220   7.860   9.227  0.6789  1.2366  0.5203
32962SOL     OW 1138   0.563   0.239  10.269 -0.0116  0.0991  0.5359
32962SOL    HW1 1139   0.577   0.328  10.238  3.7533 -0.0664  1.2454
32962SOL    HW2 1140   0.548   0.188  10.190  2.3810  0.7545 -0.4325
32963SOL     OW 1141   2.134   2.266   0.499 -0.3300  0.2451 -1.0121
32963SOL    HW1 1142   2.139   2.180   0.540 -0.7011  0.5783 -0.2645
32963SOL    HW2 1143   2.225   2.297   0.499 -0.2589  0.0404 -0.8848
32964SOL     OW 1144   9.618   4.136   3.945 -0.0388 -0.4764  0.1852
32964SOL    HW1 1145   9.626   4.213   4.001 -0.3039 -0.6148  0.4143
32964SOL    HW2 1146   9.592   4.172   3.860  0.7536 -0.2341  0.0424
32965SOL     OW 1147   8.650   4.607   5.811  0.0037 -0.1514  0.2853
32965SOL    HW1 1148   8.598   4.665   5.756  1.9614  0.7547 -0.7240
32965SOL    HW2 1149   8.658   4.653   5.894  0.1112  0.2372  0.0633
32966SOL     OW 1150   1.046   3.035   5.666  0.2649 -0.0821  0.4940
32966SOL    HW1 1151   1.030   3.130   5.666  1.1257  0.1431 -1.9907
32966SOL    HW2 1152   1.141   3.027   5.672  0.1487 -0.8607  1.6056
32967SOL     OW 1153   3.080   4.810   5.139  0.4049  0.3000  0.3828
32967SOL    HW1 1154   3.070   4.844   5.050  0.8674 -0.2863  0.1044
32967SOL    HW2 1155   3.175   4.800   5.151  0.2627 -1.5189  0.2177
32968SOL     OW 1156   3.297   3.762   0.093 -0.1517  0.3702 -0.2921
32968SOL    HW1 1157   3.341   3.798   0.170 -0.1835  0.4852 -0.3278
32968SOL    HW2 1158   3.276   3.671   0.118  0.7364  0.0899 -0.5390
32969SOL     OW 1159   5.631   0.269   0.379  0.2348  0.3297  0.5481
32969SOL    HW1 1160   5.635   0.308   0.466 -2.1409  3.5263 -0.5835
32969SOL    HW2 1161   5.713   0.295   0.337  1.1601 -0.7933  1.6006
32970SOL     OW 1162   8.866   8.348   5.644  0.1354 -0.2155 -0.0723
32970SOL    HW1 1163   8.893   8.347   5.736 -0.4181 -2.7219  0.1303
32970SOL    HW2 1164   8.936   8.303   5.598  0.2113  0.6725 -0.8559
32971SOL     OW 1165   4.921   2.730   4.495  0.6719  0.3309 -0.5037
32971SOL    HW1 1166   4.987   2.793   4.466 -0.1333  1.0496 -0.8172
32971SOL    HW2 1167   4.878   2.772   4.569 -1.5133  1.2946 -2.1910
32972SOL     OW 1168   5.360   1.146   5.465  0.2187 -0.1809 -0.0926
32972SOL    HW1 1169   5.341   1.136   5.372  1.1852 -0.0098 -0.3244
32972SOL    HW2 1170   5.391   1.059   5.493 -0.0068 -0.2152  0.0511
32973SOL     OW 1171   1.265   4.371   7.357 -0.0239  0.0095 -0.0472
32973SOL    HW1 1172   1.192   4.380   7.296 -0.1268  0.1308  0.0928
32973SOL    HW2 1173   1.232   4.406   7.440  0.2047  0.1001  0.0071
32974SOL     OW 1174   5.052   1.410   2.129 -0.3471 -0.2374  0.3532
32974SOL    HW1 1175   5.134   1.373   2.096  0.0906  2.0301 -1.3172
32974SOL    HW2 1176   5.023   1.469   2.060 -2.2113  0.7363  1.8868
32975SOL     OW 1177   7.929   8.596   6.420 -0.2621 -0.6263 -0.5218
32975SOL    HW1 1178   7.968   8.603   6.333  1.4510 -4.6992 -0.2961
32975SOL    HW2 1179   7.970   8.666   6.471 -1.3097  1.8615 -2.8534
32976SOL     OW 1180   6.202   1.472   6.297 -0.2452  0.5922 -0.8249
32976SOL    HW1 1181   6.195   1.404   6.365  2.9992  0.1493 -0.7734
32976SOL    HW2 1182   6.163   1.432   6.219 -0.1673 -0.5511 -0.2981
32977SOL     OW 1183   7.839   8.140   7.396 -0.0670  0.8448  0.2014
32977SOL    HW1 1184   7.771   8.122   7.462 -0.1975 -0.0981 -0.1623
32977SOL    HW2 1185   7.860   8.232   7.407 -1.1615  1.0646  0.5635
32978SOL     OW 1186   3.957   0.304   5.661  0.7304  0.0920 -0.5664
32978SOL    HW1 1187   3.999   0.249   5.727  1.3171 -0.0694 -1.0653
32978SOL    HW2 1188   3.898   0.361   5.711 -1.1982 -2.1145 -0.1748
32979SOL     OW 1189   6.819   0.434   3.064  0.0963  0.8559 -0.1588
32979SOL    HW1 1190   6.867   0.403   2.988 -0.6213  0.6698 -0.5462
32979SOL    HW2 1191   6.844   0.526   3.073 -0.5475  1.1455 -1.2045
32980SOL     OW 1192   8.436   0.446   7.215  0.5131 -0.4731 -0.2585
32980SOL    HW1 1193   8.414   0.458   7.123  1.9259 -1.2768 -0.7368
32980SOL    HW2 1194   8.455   0.352   7.223  3.0507  0.0071  0.1995
32981SOL     OW 1195   6.742   6.201   8.493 -0.3134 -0.0091  0.3834
32981SOL    HW1 1196   6.702   6.155   8.566 -0.3295 -0.7455 -0.0697
32981SOL    HW2 1197   6.668   6.233   8.441 -0.3194 -0.4237  0.1270
32982SOL     OW 1198   5.051   2.405   5.833 -0.2959 -0.2036 -0.0596
32982SOL    HW1 1199   5.024   2.428   5.744 -1.9066  1.0573  0.7026
32982SOL    HW2 1200   4.971   2.413   5.886  0.3973 -1.8526  1.3615
32983SOL     OW 1201   5.313   1.044   1.262 -0.0253 -0.2239  0.2026
32983SOL    HW1 1202   5.265   1.069   1.341 -0.5802  2.1148 -0.8129
32983SOL    HW2 1203   5.352   0.959   1.284 -1.2210 -0.2454  2.5108
32984SOL     OW 1204  10.158   9.794   0.400 -0.4149 -0.1191 -0.2013
32984SOL    HW1 1205  10.156   9.744   0.481 -0.4676 -2.5754 -1.6282
32984SOL    HW2 1206  10.082   9.853   0.406 -1.7364 -1.8262  0.5887
32985SOL     OW 1207   8.926   5.803  10.383 -0.2967 -0.4385 -0.1538
32985SOL    HW1 1208   8.998   5.763  10.336 -0.2376  1.4572 -1.8064
32985SOL    HW2 1209   8.856   5.812  10.318 -0.6067  1.2323  0.3452
32986SOL     OW 1210  10.101   6.783   5.398 -0.0686  0.4813 -0.2122
32986SOL    HW1 1211  10.081   6.753   5.487 -1.0319 -0.5838 -0.7664
32986SOL    HW2 1212  10.040   6.854   5.382  0.6155  1.1873  0.2351
32987SOL     OW 1213   4.012   0.220   4.448  0.0420  0.0979  0.3734
32987SOL    HW1 1214   4.101   0.252   4.434 -0.8739  2.5335 -0.3268
32987SOL    HW2 1215   3.960   0.262   4.379 -1.4976 -2.1528  0.0440
32988SOL     OW 1216   0.012   1.799   7.896  0.0470 -0.3372  0.0467
32988SOL    HW1 1217  -0.043   1.876   7.908 -0.4252 -0.9000  1.7264
32988SOL    HW2 1218   0.087   1.831   7.846 -0.1500  1.1937  0.6838
32989SOL     OW 1219   6.445   7.435   8.938 -0.4372 -0.1842 -0.4716
32989SOL    HW1 1220   6.515   7.453   8.876 -0.0870  0.4397  0.0862
32989SOL    HW2 1221   6.376   7.497   8.915 -0.6224 -0.4894 -0.7356
32990SOL     OW 1222   5.453  10.630   4.179  0.2928 -0.1889 -0.0468
32990SOL    HW1 1223   5.414  10.543   4.186 -0.8730  0.4162  1.7564
32990SOL    HW2 1224   5.528  10.619   4.120  1.1786 -2.7883  1.4220
32991SOL     OW 1225   1.454   3.238   8.563 -0.0714 -0.6195 -0.0258
32991SOL    HW1 1226   1.457   3.290   8.482 -1.1920 -1.3822 -0.5835
32991SOL    HW2 1227   1.467   3.302   8.633 -0.7202  0.3134 -0.7298
32992SOL     OW 1228  10.488   2.157   8.379  0.0602  0.1572  0.0665
32992SOL    HW1 1229  10.559   2.160   8.315 -0.7729  1.7309 -0.8391
32992SOL    HW2 1230  10.424   2.220   8.347 -1.9701 -1.4947  0.6319
32993SOL     OW 1231   5.290   1.207   7.879  0.2524  0.0874  0.0560
32993SOL    HW1 1232   5.347   1.282   7.865  1.7828 -0.6865  1.7342
32993SOL    HW2 1233   5.350   1.134   7.895 -1.1866 -1.4477 -1.1174
32994SOL     OW 1234   6.054   2.507   5.133 -0.2928  0.9700  0.1602
32994SOL    HW1 1235   6.018   2.431   5.178  1.5236  0.4944  0.9256
32994SOL    HW2 1236   6.030   2.581   5.189  0.5311  0.5719  1.0764
32995SOL     OW 1237   9.848   2.402   3.685  0.3445 -0.1127  0.2729
32995SOL    HW1 1238   9.883   2.356   3.761 -0.7816  2.3536  2.4546
32995SOL    HW2 1239   9.761   2.431   3.712 -2.3051 -3.1733 -3.7454
32996SOL     OW 1240   9.366   6.444   4.253  0.1485  0.4237 -0.0326
32996SOL    HW1 1241   9.392   6.398   4.332  0.1280  2.7300  1.4132
32996SOL    HW2 1242   9.360   6.536   4.279 -1.6704  1.0479 -2.2642
32997SOL     OW 1243   7.143   7.193   0.046 -0.3153 -0.1218 -0.0332
32997SOL    HW1 1244   7.092   7.124   0.089 -0.5961  0.0182 -0.1390
32997SOL    HW2 1245   7.167   7.155  -0.039 -0.7690  0.0396 -0.2353
32998SOL     OW 1246   4.736   2.500   3.441 -0.4647  0.5718  0.0717
32998SOL    HW1 1247   4.739   2.596   3.440 -2.0395  0.6360 -0.0030
32998SOL    HW2 1248   4.644   2.479   3.431 -0.0733 -0.9764 -0.4893
32999SOL     OW 1249   9.499   2.138   3.835 -0.5935 -0.5830 -0.0670
32999SOL    HW1 1250   9.575   2.105   3.789  1.5001  1.5866  1.5500
32999SOL    HW2 1251   9.460   2.061   3.877  2.0817 -1.5388  0.8723
33000SOL     OW 1252   9.958   6.752   7.276  0.5863 -0.4141 -0.1003
33000SOL    HW1 1253   9.978   6.844   7.265 -0.3631 -0.2439 -0.5385
33000SOL    HW2 1254  10.033   6.706   7.237 -0.1595  0.1858 -2.3851
33001SOL     OW 1255   7.625   2.982   7.879 -0.2953  0.0972 -0.4369
33001SOL    HW1 1256   7.559   2.986   7.810 -1.2947 -3.2534  0.1506
33001SOL    HW2 1257   7.690   2.919   7.847  1.4195  1.5165  0.0451
33002SOL     OW 1258   0.333   8.206   5.028  0.2158  0.0848  0.2469
33002SOL    HW1 1259   0.304   8.232   4.941 -0.3354  1.7726  0.8786
33002SOL    HW2 1260   0.284   8.126   5.047  1.0221 -0.8038 -1.3231
33003SOL     OW 1261   6.478   5.246   7.879 -0.5873 -0.0455  0.1774
33003SOL    HW1 1262   6.497   5.292   7.961  1.3614 -1.8371  0.8107
33003SOL    HW2 1263   6.554   5.263   7.824 -0.3649 -1.4553 -0.0033
33004SOL     OW 1264   3.000   6.656   3.860  0.1808  0.6231 -0.3961
33004SOL    HW1 1265   2.937   6.587   3.840  0.8655 -0.5821  1.3147
33004SOL    HW2 1266   2.986   6.675   3.952  2.4042  0.1475  0.1111
33005SOL     OW 1267   9.585   2.286   8.303  0.3551  0.2211  0.1381
33005SOL    HW1 1268   9.569   2.271   8.396  0.4750  1.3815  0.3551
33005SOL    HW2 1269   9.662   2.232   8.283 -1.8225 -3.0603 -0.2238
33006SOL     OW 1270   0.132   1.223   6.664 -0.6766 -1.0052  0.3832
33006SOL    HW1 1271   0.053   1.236   6.612 -0.2031 -0.5623 -0.2381
33006SOL    HW2 1272   0.202   1.215   6.599  0.0405  0.3175  0.9523
33007SOL     OW 1273   2.792   2.816   1.281  0.3499 -0.3270  0.2712
33007SOL    HW1 1274   2.868   2.762   1.304 -0.4548 -1.2762  0.8066
33007SOL    HW2 1275   2.751   2.837   1.365 -0.5727 -0.7398 -0.0611
33008SOL     OW 1276   6.166   6.435   8.616 -0.0474 -0.0354  0.2322
33008SOL    HW1 1277   6.181   6.411   8.525  0.5652  1.5888 -0.1292
33008SOL    HW2 1278   6.080   6.397   8.637 -1.0593  1.0687 -1.5926
33009SOL     OW 1279   7.995   5.131   9.326  0.0036 -0.3588 -0.4490
33009SOL    HW1 1280   8.065   5.079   9.367  1.2340  1.4932 -0.0586
33009SOL    HW2 1281   7.964   5.187   9.397 -0.5087  0.2270 -1.1364
33010SOL     OW 1282   4.982   0.512   8.628  0.1779  0.2472 -0.2130
33010SOL    HW1 1283   4.984   0.591   8.574 -3.5983  0.1955 -0.6566
33010SOL    HW2 1284   4.976   0.440   8.566  1.3441 -0.2643  0.2374
33011SOL     OW 1285   2.794   1.665   8.866 -0.3025 -0.0098 -0.2909
33011SOL    HW1 1286   2.806   1.614   8.946 -2.2954  0.0539  0.0943
33011SOL    HW2 1287   2.714   1.716   8.882  0.2721  1.3714 -1.6276
33012SOL     OW 1288   3.785   5.086   1.160 -0.6921  0.1466 -0.5000
33012SOL    HW1 1289   3.788   5.019   1.229 -2.0322 -1.1553 -1.6514
33012SOL    HW2 1290   3.760   5.166   1.207  0.7545 -0.1422  0.8736
33013SOL     OW 1291   9.962   7.149  10.524  0.1008  0.0402  0.2295
33013SOL    HW1 1292   9.920   7.085  10.466  0.7795 -2.0989  1.9556
33013SOL    HW2 1293   9.986   7.222  10.467 -1.6608 -0.7502 -1.6436
33014SOL     OW 1294   1.396   2.467   5.644 -0.0298 -0.0836 -0.4906
33014SOL    HW1 1295   1.488   2.486   5.628 -0.2951  0.6263 -1.2302
33014SOL    HW2 1296   1.393   2.372   5.659  1.2632  0.2789  2.8234
33015SOL     OW 1297   3.786   4.903  10.649  0.3404  0.3309 -0.2518
33015SOL    HW1 1298   3.801   4.901  10.744 -0.1815  0.2587 -0.1687
33015SOL    HW2 1299   3.861   4.951  10.614 -0.9486  3.0373  0.4869
33016SOL     OW 1300   5.565   2.994   9.579  0.1297 -0.0672 -0.4543
33016SOL    HW1 1301   5.586   3.087   9.581  0.7275 -0.1745 -1.2517
33016SOL    HW2 1302   5.536   2.977   9.489 -3.1500 -0.0180  0.4535
33017SOL     OW 1303   5.396   4.406   7.836 -0.0510 -0.2883 -0.4544
33017SOL    HW1 1304   5.377   4.486   7.884  0.3935 -0.9212  0.8174
33017SOL    HW2 1305   5.388   4.431   7.744 -0.7221  1.0042 -0.0700
33018SOL     OW 1306   1.504   6.466   3.014  0.5859 -0.1080  0.4752
33018SOL    HW1 1307   1.409   6.465   3.002  0.6635 -0.6055 -0.2352
33018SOL    HW2 1308   1.538   6.494   2.929  1.0732  0.1508  0.7524
33019SOL     OW 1309   8.744   3.605   4.578 -0.3682 -0.2314 -0.1585
33019SOL    HW1 1310   8.725   3.699   4.569 -0.3798  0.0276  2.0316
33019SOL    HW2 1311   8.660   3.566   4.602 -0.2884 -0.7575 -0.7128
33020SOL     OW 1312   6.829  10.449   9.069  0.0349 -0.7201 -0.9214
33020SOL    HW1 1313   6.895  10.383   9.050  0.2389  0.0206 -3.0388
33020SOL    HW2 1314   6.771  10.448   8.993 -0.4550  0.9194 -0.6124
33021SOL     OW 1315   7.863   8.801   2.419  0.0238 -0.1250 -0.2502
33021SOL    HW1 1316   7.950   8.823   2.385  0.3436  0.1491  0.7237
33021SOL    HW2 1317   7.879   8.771   2.508 -1.0047  1.2286  0.4263
33022SOL     OW 1318   0.266   9.807   6.703  0.4556 -0.6341 -0.2014
33022SOL    HW1 1319   0.359   9.785   6.693  0.4823 -0.6977  0.1682
33022SOL    HW2 1320   0.220   9.735   6.659  0.5975  0.4988 -2.3845
33023SOL     OW 1321   4.081   5.109   0.195 -0.2048  0.0270  0.3106
33023SOL    HW1 1322   4.122   5.070   0.118  0.9467  0.7193  0.5600
33023SOL    HW2 1323   4.136   5.081   0.268 -1.3130 -0.6666  0.9142
33024SOL     OW 1324   6.603   4.909   0.172  0.4137 -0.2799  0.2250
33024SOL    HW1 1325   6.622   4.883   0.262 -1.1099 -0.1140  0.6241
33024SOL    HW2 1326   6.540   4.980   0.180 -1.6209 -1.8302 -0.9625
33025SOL     OW 1327   7.400   2.275   4.146 -0.1900  0.2896 -0.4394
33025SOL    HW1 1328   7.486   2.307   4.173 -0.4129  1.8691 -1.4112
33025SOL    HW2 1329   7.366   2.344   4.088 -2.4615  0.1110  0.5575
33026SOL     OW 1330   5.470   8.350   3.808 -0.4080 -0.1694  0.3859
33026SOL    HW1 1331   5.558   8.369   3.776 -0.9233 -0.2739 -1.1757
33026SOL    HW2 1332   5.474   8.370   3.902  0.6968  1.8496 -0.0417
33027SOL     OW 1333   0.365  10.623   6.193 -0.6230 -0.7193  0.2624
33027SOL    HW1 1334   0.455  10.592   6.201  0.5598  1.9075 -1.3281
33027SOL    HW2 1335   0.328  10.573   6.120 -0.8118 -2.4595  1.5107
33028SOL     OW 1336   1.419   9.760   9.388 -0.1435 -0.0019  0.0465
33028SOL    HW1 1337   1.397   9.847   9.423 -0.6505 -0.5699  1.2219
33028SOL    HW2 1338   1.349   9.704   9.421 -0.0528 -0.7800 -1.0595
33029SOL     OW 1339   7.593   0.976   5.770  0.4584 -0.5646 -1.1654
33029SOL    HW1 1340   7.648   0.931   5.834  0.1120  0.9678  0.2869
33029SOL    HW2 1341   7.640   1.057   5.751 -0.4910 -0.0069 -1.1789
33030SOL     OW 1342   7.364   0.937   0.993 -0.3147 -0.3285 -0.5073
33030SOL    HW1 1343   7.428   0.887   0.942 -0.1066 -0.4526 -0.1284
33030SOL    HW2 1344   7.364   1.024   0.953  1.6046  0.3057  0.7235
33031SOL     OW 1345   0.978   6.669   9.139 -0.3051  0.3344 -0.2557
33031SOL    HW1 1346   0.934   6.744   9.098 -1.6036  0.4422  1.2468
33031SOL    HW2 1347   1.033   6.708   9.207  1.6034  0.1320 -1.5963
33032SOL     OW 1348   6.515   2.669   5.387 -0.1970 -0.0000 -0.5222
33032SOL    HW1 1349   6.484   2.586   5.423 -1.2090  0.2900 -0.7042
33032SOL    HW2 1350   6.460   2.685   5.310  0.0427  0.8032 -0.5454
33033SOL     OW 1351  10.035   3.602   7.330  0.1325  0.0517 -0.4659
33033SOL    HW1 1352   9.995   3.583   7.414 -0.7528 -2.2462 -1.3230
33033SOL    HW2 1353  10.067   3.692   7.338 -2.3237  0.8643  1.3788
33034SOL     OW 1354   8.060   5.372   0.862 -0.4875  0.1553  0.2934
33034SOL    HW1 1355   7.964   5.380   0.863 -0.4217  1.0796  0.1391
33034SOL    HW2 1356   8.077   5.295   0.809 -1.1382  0.2084 -0.0079
33035SOL     OW 1357   8.898   5.236   9.095  0.0499 -0.1240  0.4382
33035SOL    HW1 1358   8.898   5.190   9.011  1.8828  1.3374 -0.4243
33035SOL    HW2 1359   8.900   5.328   9.072  3.8450  0.3501  1.9261
33036SOL     OW 1360   7.721   8.499   5.179  0.1511 -0.3172  0.6720
33036SOL    HW1 1361   7.695   8.586   5.148  4.3384  0.6012 -0.9005
33036SOL    HW2 1362   7.713   8.505   5.274  1.1054  2.1470  0.6713
33037SOL     OW 1363   4.770   7.492   2.862  1.3668 -0.0519  0.2690
33037SOL    HW1 1364   4.698   7.544   2.898  1.2206  0.5210 -0.8022
33037SOL    HW2 1365   4.811   7.452   2.939 -0.7037 -1.2228  0.8292
33038SOL     OW 1366   7.039   5.675   8.490  0.8917  0.0205 -0.0209
33038SOL    HW1 1367   7.044   5.759   8.535 -3.0394  0.6431 -0.4002
33038SOL    HW2 1368   7.110   5.677   8.427  2.2107  2.0972  1.3974
33039SOL     OW 1369   4.288   8.422   7.792 -0.1429  0.3349  0.7903
33039SOL    HW1 1370   4.353   8.381   7.735 -0.3615  0.2611  0.5943
33039SOL    HW2 1371   4.309   8.515   7.788  1.7796  0.1108  2.9709
33040SOL     OW 1372   4.406   4.438   6.486 -0.0098 -0.7625 -0.1771
33040SOL    HW1 1373   4.482   4.488   6.516  0.4935 -1.0871 -0.8875
33040SOL    HW2 1374   4.370   4.491   6.415 -0.3823 -0.6728  0.0732
33041SOL     OW 1375   4.453   1.637   5.319  0.2816 -0.0650 -0.0192
33041SOL    HW1 1376   4.415   1.666   5.236  1.4183 -1.0979 -0.9356
33041SOL    HW2 1377   4.538   1.600   5.296  1.1699  0.7203  1.7784
33042SOL     OW 1378   3.859   5.097   2.371  0.4527 -0.5802  0.8332
33042SOL    HW1 1379   3.839   5.139   2.455  0.5269 -1.3276  1.2320
33042SOL    HW2 1380   3.787   5.035   2.358 -0.4360  0.6525 -0.4493
33043SOL     OW 1381   9.701   2.306   8.745 -0.0479  0.1609 -0.7164
33043SOL    HW1 1382   9.777   2.261   8.781 -1.5984 -1.3914  0.7942
33043SOL    HW2 1383   9.693   2.386   8.797 -0.7412 -0.8044  0.7390
33044SOL     OW 1384   2.285   2.138   4.500 -0.1646  0.4173 -0.0685
33044SOL    HW1 1385   2.291   2.203   4.430  1.6895  0.0593 -0.2872
33044SOL    HW2 1386   2.283   2.054   4.456 -1.6269  0.2427  0.2543
33045SOL     OW 1387   4.534   6.531   1.734 -0.9033  0.1819  0.4105
33045SOL    HW1 1388   4.482   6.476   1.793  0.3265  0.9300  2.3077
33045SOL    HW2 1389   4.589   6.469   1.686 -2.1043 -0.4714 -0.1572
33046SOL     OW 1390   9.587   3.684   0.193  0.0821 -0.3335  0.2306
33046SOL    HW1 1391   9.564   3.761   0.244  1.8753 -0.0962  0.7530
33046SOL    HW2 1392   9.587   3.714   0.102  2.9277  0.9765  0.5473
33047SOL     OW 1393   6.000   3.886   8.658  0.9495  0.2406 -0.5535
33047SOL    HW1 1394   5.905   3.896   8.663  0.5995 -2.5907  0.8286
33047SOL    HW2 1395   6.034   3.938   8.730  0.2902 -0.0260 -0.0375
33048SOL     OW 1396   1.034   0.797   2.593  0.3174  0.4860  0.2081
33048SOL    HW1 1397   0.980   0.844   2.658  0.1235  0.3082  0.1772
33048SOL    HW2 1398   1.123   0.808   2.625  0.1550 -0.3030  0.9666
33049SOL     OW 1399   9.806   7.760   7.561 -0.2770  0.2212 -0.1432
33049SOL    HW1 1400   9.792   7.808   7.642 -1.3632  0.6373 -0.5710
33049SOL    HW2 1401   9.751   7.682   7.569 -0.1583  0.1135 -0.3608
33050SOL     OW 1402   8.885   9.735   8.691  0.0905  0.1355 -0.3421
33050SOL    HW1 1403   8.790   9.746   8.698 -0.0488 -0.0277 -1.7428
33050SOL    HW2 1404   8.913   9.714   8.780 -1.0000  1.4864  0.3712
33051SOL     OW 1405   6.887   5.963   8.557  0.9823 -0.0329 -0.0056
33051SOL    HW1 1406   6.875   6.058   8.559 -0.9445 -0.2118 -0.4725
33051SOL    HW2 1407   6.850   5.936   8.473  0.2810 -1.2997  0.6695
33052SOL     OW 1408   6.714   4.035   9.083 -0.2729 -0.0047 -0.3170
33052SOL    HW1 1409   6.691   4.125   9.109 -0.4232 -0.0654 -0.2406
33052SOL    HW2 1410   6.641   3.982   9.113 -0.3127 -0.1161 -0.6078
33053SOL     OW 1411   5.394   8.254   4.492 -0.0510  0.2253  0.3520
33053SOL    HW1 1412   5.414   8.167   4.527 -1.1237  0.1831  0.9043
33053SOL    HW2 1413   5.349   8.236   4.410  2.5323  0.3246 -1.1902
33054SOL     OW 1414   9.797   9.207   9.430  0.1662  0.0655  0.4291
33054SOL    HW1 1415   9.820   9.300   9.437 -1.9569  0.5643  1.5822
33054SOL    HW2 1416   9.841   9.166   9.504 -1.6057  0.8244  2.0006
33055SOL     OW 1417  10.318   0.180   4.398  0.7939  0.3682  0.4642
33055SOL    HW1 1418  10.271   0.260   4.378  1.0658  0.5932  0.7097
33055SOL    HW2 1419  10.347   0.147   4.313 -0.2123 -0.0290  0.2696
33056SOL     OW 1420   6.391   6.024   5.237  0.4530 -0.0652 -0.3596
33056SOL    HW1 1421   6.302   6.056   5.251  0.8197  0.8152  0.0220
33056SOL    HW2 1422   6.443   6.067   5.304  1.4371  0.6330 -1.5222
33057SOL     OW 1423   5.325   8.598   4.579  0.3072 -0.4272 -0.2343
33057SOL    HW1 1424   5.260   8.619   4.512  0.4331 -1.2705 -0.6359
33057SOL    HW2 1425   5.281   8.534   4.635 -0.9924  2.5837  2.4628
33058SOL     OW 1426   4.393   9.633   2.609 -0.2218 -0.7860 -0.1881
33058SOL    HW1 1427   4.352   9.554   2.575 -0.4587 -0.8836  0.3080
33058SOL    HW2 1428   4.377   9.629   2.704  1.9354 -1.4397  0.2293
33059SOL     OW 1429   6.476   5.353   2.910 -0.3624  0.2956 -0.7966
33059SOL    HW1 1430   6.396   5.387   2.950  0.8952  2.3342  0.1456
33059SOL    HW2 1431   6.467   5.374   2.817 -0.3918  1.7694 -0.4966
33060SOL     OW 1432   7.107   7.158   6.048 -0.0287 -0.0746 -0.0571
33060SOL    HW1 1433   7.037   7.122   6.102 -0.6054  0.7245 -0.2610
33060SOL    HW2 1434   7.083   7.249   6.035  1.9847  0.7511  1.4455
33061SOL     OW 1435   3.877   3.168   4.283  0.2629 -0.1857  0.8226
33061SOL    HW1 1436   3.859   3.257   4.312  1.4648 -0.1545  1.5365
33061SOL    HW2 1437   3.963   3.148   4.320  2.1268 -0.0328 -2.9323
33062SOL     OW 1438   0.751  10.372   6.678 -0.0493  0.1355 -0.3653
33062SOL    HW1 1439   0.822  10.327   6.724  2.0102  1.9321 -1.5836
33062SOL    HW2 1440   0.673  10.353   6.730  0.9899 -3.0931  0.2867
33063SOL     OW 1441   2.182   8.357  10.501  0.2597 -0.4053  0.1125
33063SOL    HW1 1442   2.105   8.389  10.547 -0.7997 -0.9154 -1.2504
33063SOL    HW2 1443   2.167   8.380  10.409  1.3833 -1.1652 -0.2856
33064SOL     OW 1444   8.953   8.479   2.804  0.6467  0.1644  0.1594
33064SOL    HW1 1445   8.989   8.511   2.887  0.8505 -0.1784  0.2069
33064SOL    HW2 1446   8.985   8.389   2.798  0.2251  0.0260 -0.0516
33065SOL     OW 1447   0.713   5.740   7.168 -0.3696 -0.1230  0.3964
33065SOL    HW1 1448   0.698   5.826   7.129  0.4263  0.7215  1.8662
33065SOL    HW2 1449   0.807   5.724   7.157 -0.6089 -1.1196 -0.4197
33066SOL     OW 1450  10.197   0.589  10.472  0.0229  0.3118 -0.2413
33066SOL    HW1 1451  10.142   0.664  10.494 -1.0542 -0.7130  0.6904
33066SOL    HW2 1452  10.239   0.614  10.389 -0.6169  1.7621 -0.1631
33067SOL     OW 1453   9.200   3.328   7.968 -0.6796  0.8197 -0.2565
33067SOL    HW1 1454   9.258   3.402   7.988  0.8578 -0.4414  0.2014
33067SOL    HW2 1455   9.241   3.287   7.892 -2.6598  1.5753 -1.8045
33068SOL     OW 1456   4.144   4.703  10.508  0.4491 -0.0782 -0.6851
33068SOL    HW1 1457   4.228   4.675  10.543 -0.6986 -0.1389  2.2952
33068SOL    HW2 1458   4.150   4.799  10.504 -0.0814  0.1369  1.9151
33069SOL     OW 1459   6.813   6.530   5.445 -0.1747 -0.2669  0.1583
33069SOL    HW1 1460   6.741   6.579   5.485  0.3306  1.3770 -0.8385
33069SOL    HW2 1461   6.857   6.488   5.518 -1.2242 -0.0241  0.9571
33070SOL     OW 1462   7.335   2.437   8.460 -0.1784 -0.0005 -0.8194
33070SOL    HW1 1463   7.306   2.368   8.400  0.9241 -0.1474 -1.1996
33070SOL    HW2 1464   7.254   2.483   8.485 -0.9139 -1.2745 -0.7418
33071SOL     OW 1465   5.458   9.547   0.257 -0.0389 -0.0789  0.4370
33071SOL    HW1 1466   5.383   9.530   0.200  0.8016 -0.4595 -0.5802
33071SOL    HW2 1467   5.454   9.641   0.275 -0.7960 -0.1103  0.4541
33072SOL     OW 1468   6.815   6.552   2.793 -0.1444 -0.2064  0.4857
33072SOL    HW1 1469   6.785   6.462   2.785 -1.1580  0.1010  0.7501
33072SOL    HW2 1470   6.880   6.561   2.723  0.0148 -1.1552  0.4996
33073SOL     OW 1471   2.827   4.213  10.361 -0.2644 -0.1996 -0.9018
33073SOL    HW1 1472   2.850   4.262  10.440 -0.0830 -0.5445 -0.7399
33073SOL    HW2 1473   2.910   4.203  10.314 -0.3417 -0.1492 -1.0493
33074SOL     OW 1474   9.185   0.197   7.842  0.6496 -0.4066  0.4967
33074SOL    HW1 1475   9.161   0.205   7.934  0.7383 -0.2814  0.5097
33074SOL    HW2 1476   9.108   0.230   7.795  0.7216 -0.1829  0.5340
33075SOL     OW 1477   0.461   2.063   4.454  0.2875  0.5820 -0.1743
33075SOL    HW1 1478   0.419   2.034   4.535  1.4548  0.8223  0.5283
33075SOL    HW2 1479   0.468   1.983   4.401  0.5680  0.1999  0.4371
33076SOL     OW 1480   7.693   4.709  10.191 -0.0482 -0.2195 -0.0494
33076SOL    HW1 1481   7.734   4.729  10.106  0.7088 -0.8518  0.1558
33076SOL    HW2 1482   7.718   4.619  10.209 -0.5022 -0.2036  0.6847
33077SOL     OW 1483   5.821   3.807   4.140  0.0431 -0.2533 -0.1887
33077SOL    HW1 1484   5.796   3.824   4.231 -0.9254 -0.3500 -0.4268
33077SOL    HW2 1485   5.803   3.714   4.127 -0.3727 -0.1125 -0.6433
33078SOL     OW 1486   0.244   4.352   5.064  0.2962 -0.1421 -0.0624
33078SOL    HW1 1487   0.258   4.265   5.102  2.1787 -0.1554 -0.6820
33078SOL    HW2 1488   0.316   4.405   5.098  0.8542  0.3925 -1.9570
33079SOL     OW 1489   3.703   9.163   0.777  0.5182 -0.2468  0.0825
33079SOL    HW1 1490   3.635   9.153   0.844  0.6630  1.7447  0.5830
33079SOL    HW2 1491   3.781   9.191   0.825  1.0023 -0.0938 -0.7624
33080SOL     OW 1492   7.633   8.744   7.277  0.1055 -0.2230 -0.3603
33080SOL    HW1 1493   7.544   8.748   7.242 -0.3999 -0.9649  0.7881
33080SOL    HW2 1494   7.688   8.729   7.200 -0.5964  1.5342 -1.2530
33081SOL     OW 1495   5.075   6.771   2.770  0.0086  0.0954  0.3523
33081SOL    HW1 1496   5.037   6.732   2.849 -2.9269  5.4299  2.0773
33081SOL    HW2 1497   5.000   6.810   2.725  2.2721  1.7505 -2.2646
33082SOL     OW 1498   8.408   1.430   0.678  0.1382  0.3741 -0.0213
33082SOL    HW1 1499   8.382   1.521   0.662  1.2815  0.7948  0.4122
33082SOL    HW2 1500   8.464   1.408   0.604  0.7860  0.4167  0.4431
33083SOL     OW 1501   7.453   0.573   6.715  0.6647  0.6885 -0.3575
33083SOL    HW1 1502   7.358   0.563   6.703  0.6995  2.1701 -2.5689
33083SOL    HW2 1503   7.461   0.651   6.770  0.6382 -0.8219  1.9154
33084SOL     OW 1504   3.216  10.539   8.195  0.2002 -0.6203  0.0008
33084SOL    HW1 1505   3.231  10.459   8.145  1.3138  0.7545 -2.0225
33084SOL    HW2 1506   3.171  10.597   8.134 -0.9817  0.1892  1.5641
33085SOL     OW 1507   0.633   1.499   7.735 -0.4791  0.3402 -0.0844
33085SOL    HW1 1508   0.546   1.488   7.773 -0.3829  1.9173  0.6760
33085SOL    HW2 1509   0.629   1.585   7.692  0.9737  0.8782  0.7860
33086SOL     OW 1510   8.779   4.281   9.541  0.3094 -0.3049 -0.3483
33086SOL    HW1 1511   8.770   4.192   9.507 -0.2245  0.0746 -1.2359
33086SOL    HW2 1512   8.690   4.305   9.569  0.7460 -0.6440  1.4571
33087SOL     OW 1513   5.557   3.847   0.492  0.1160  0.0886  0.0624
33087SOL    HW1 1514   5.531   3.834   0.401  0.1715 -2.2509  0.3122
33087SOL    HW2 1515   5.643   3.890   0.487 -1.1108  2.6262 -0.8690
33088SOL     OW 1516   9.561   8.147   2.952 -0.1563  0.7248 -0.1720
33088SOL    HW1 1517   9.624   8.215   2.974 -0.0138  0.4167  0.3896
33088SOL    HW2 1518   9.586   8.072   3.006 -0.6408  0.4052 -0.3801
33089SOL     OW 1519   0.934   5.417   0.408  0.3677  0.0129  0.3899
33089SOL    HW1 1520   1.022   5.386   0.388  0.8321  0.8001  1.1183
33089SOL    HW2 1521   0.944   5.512   0.419 -0.4113  0.0049  1.2860
33090SOL     OW 1522   5.686   4.172   2.307  0.2155  0.2916  0.0651
33090SOL    HW1 1523   5.705   4.101   2.246  1.1062 -0.4355  1.1419
33090SOL    HW2 1524   5.770   4.193   2.347 -0.2581  1.1030  0.6679
33091SOL     OW 1525   8.526   4.263   5.868  0.7411 -0.7022 -0.7237
33091SOL    HW1 1526   8.459   4.326   5.844 -0.2539 -0.5708  2.0463
33091SOL    HW2 1527   8.598   4.316   5.902  0.3833 -0.9633  0.5008
33092SOL     OW 1528   3.703   7.381   8.485 -0.2467  0.4696  0.6197
33092SOL    HW1 1529   3.714   7.464   8.440 -1.4225  0.7592  0.8474
33092SOL    HW2 1530   3.715   7.402   8.578 -1.7909  0.6462  0.8003
33093SOL     OW 1531   9.521  10.534   8.385  0.2637 -0.5611  0.0096
33093SOL    HW1 1532   9.450  10.583   8.428 -0.1272 -0.4671 -0.7234
33093SOL    HW2 1533   9.481  10.501   8.305  0.9266 -0.9073 -0.1797
33094SOL     OW 1534   5.968   1.334   3.957 -0.4732  0.9063  0.0004
33094SOL    HW1 1535   5.999   1.298   4.040 -0.8058  0.5991 -0.0042
33094SOL    HW2 1536   6.033   1.400   3.934  0.0001  0.5048  0.1535
33095SOL     OW 1537   7.895   2.414   7.588  0.1265  0.2344 -0.5654
33095SOL    HW1 1538   7.957   2.371   7.647 -1.3645 -0.2332  0.7350
33095SOL    HW2 1539   7.841   2.343   7.555 -0.7947  0.8210 -0.3387
33096SOL     OW 1540   9.373   1.357   2.605  0.1816  0.0727 -0.0489
33096SOL    HW1 1541   9.286   1.375   2.638  0.6151  1.0507  0.6109
33096SOL    HW2 1542   9.414   1.303   2.672  0.0651 -0.4477 -0.3912
33097SOL     OW 1543   4.400   9.739   8.059  0.1441 -0.2264  0.9433
33097SOL    HW1 1544   4.361   9.824   8.078  0.8382  0.1869  0.5618
33097SOL    HW2 1545   4.475   9.759   8.003  0.1687 -1.1131  0.6483
33098SOL     OW 1546   7.634   1.911   1.613 -0.2351  0.0355 -0.4342
33098SOL    HW1 1547   7.572   1.954   1.672 -0.7351 -0.9790 -0.2003
33098SOL    HW2 1548   7.720   1.924   1.654 -0.4803  0.0839  0.0676
33099SOL     OW 1549   0.766   3.439   8.976  0.0508  0.6329  0.2746
33099SOL    HW1 1550   0.716   3.488   9.042 -0.6002  1.1704 -0.5914
33099SOL    HW2 1551   0.847   3.490   8.966  1.0075 -0.4450  1.9562
33100SOL     OW 1552   8.792   9.579   0.527  0.3654  0.1773 -0.0605
33100SOL    HW1 1553   8.776   9.616   0.613 -1.0022 -1.0981  0.2626
33100SOL    HW2 1554   8.749   9.639   0.466 -1.5781 -0.6369  0.4348
33101SOL     OW 1555   1.482   1.863   3.804  0.6201 -0.0703 -0.2631
33101SOL    HW1 1556   1.430   1.903   3.874 -0.4577 -2.0536  0.1537
33101SOL    HW2 1557   1.426   1.869   3.727  0.7683 -0.0868 -0.3715
33102SOL     OW 1558   4.043   1.500   1.185 -0.3532  0.3582 -0.8346
33102SOL    HW1 1559   4.078   1.570   1.240  0.4789 -0.0535 -0.8247
33102SOL    HW2 1560   3.954   1.486   1.216  0.5251 -0.8090  1.3305
33103SOL     OW 1561   4.830   5.899   3.575 -0.1051  0.6103 -0.1720
33103SOL    HW1 1562   4.786   5.946   3.646  0.6660  1.3036 -0.1506
33103SOL    HW2 1563   4.910   5.864   3.615 -0.1012  0.2542 -0.4844
33104SOL     OW 1564   5.038   0.254   9.343  0.3266 -0.4602 -0.8105
33104SOL    HW1 1565   5.001   0.218   9.263 -0.3304 -0.0369 -0.7044
33104SOL    HW2 1566   5.044   0.348   9.328 -2.5369  0.0568  0.6493
33105SOL     OW 1567   7.324   2.473  10.163  0.3463  0.0456  0.0964
33105SOL    HW1 1568   7.361   2.457  10.076  3.6035 -0.9113  1.5344
33105SOL    HW2 1569   7.316   2.386  10.203  1.9317  0.6422  1.8451
33106SOL     OW 1570   8.276   9.340   6.196 -0.1285  0.4562 -0.1522
33106SOL    HW1 1571   8.189   9.313   6.167  0.5935 -0.5390 -1.5248
33106SOL    HW2 1572   8.280   9.434   6.178 -1.1369  0.6439  0.5449
33107SOL     OW 1573   9.023   9.665   2.853  0.6321 -0.5193  0.6267
33107SOL    HW1 1574   9.077   9.602   2.805  1.1080  1.1058 -1.0693
33107SOL    HW2 1575   9.074   9.746   2.853  0.4452 -0.2966  3.5484
33108SOL     OW 1576   8.594  10.409   7.789 -0.1549  0.7315 -0.3000
33108SOL    HW1 1577   8.556  10.348   7.854  0.3231 -0.2002 -0.8747
33108SOL    HW2 1578   8.681  10.429   7.823 -0.0844  0.6202 -0.4152
33109SOL     OW 1579   2.887  10.168   7.615 -1.2682  0.3499 -0.4163
33109SOL    HW1 1580   2.800  10.158   7.576 -1.1886  1.2818 -0.8705
33109SOL    HW2 1581   2.896  10.262   7.629 -0.6812  0.1700  0.4578
33110SOL     OW 1582   0.166   8.819   5.475 -0.3490  0.2996 -0.1634
33110SOL    HW1 1583   0.140   8.848   5.388  0.9576  1.3362 -0.2392
33110SOL    HW2 1584   0.131   8.730   5.482  1.4882 -0.7324 -2.6709
33111SOL     OW 1585   2.620   1.062   7.168  0.0324  0.4020 -0.0757
33111SOL    HW1 1586   2.691   1.060   7.104  0.8989  0.0711  0.8728
33111SOL    HW2 1587   2.621   0.975   7.208 -0.6471  0.5276  0.2351
33112SOL     OW 1588   7.774   8.314   5.847 -0.3156 -0.0328  0.4132
33112SOL    HW1 1589   7.760   8.270   5.763  1.6593  1.3325 -0.6968
33112SOL    HW2 1590   7.752   8.405   5.831 -0.6068  0.1225  1.5933
33113SOL     OW 1591   5.182   0.679   4.138  0.2201  0.0219  0.9679
33113SOL    HW1 1592   5.109   0.637   4.183 -1.5366 -0.0892 -1.6782
33113SOL    HW2 1593   5.155   0.771   4.132  0.8219  0.1946  0.9091
33114SOL     OW 1594   3.670   4.136   4.956 -0.4138 -0.2881  0.0430
33114SOL    HW1 1595   3.640   4.082   4.884  0.3323  1.0296 -1.3106
33114SOL    HW2 1596   3.703   4.074   5.021  0.5221 -1.4506 -1.4903
33115SOL     OW 1597  10.336   3.335   2.358 -1.1117 -0.4341 -0.1601
33115SOL    HW1 1598  10.304   3.263   2.413 -0.2763 -1.7131 -1.2780
33115SOL    HW2 1599  10.422   3.356   2.394 -0.0342 -2.0941 -1.6335
33116SOL     OW 1600   9.711   0.428   1.445  0.3466  0.4361  0.2126
33116SOL    HW1 1601   9.766   0.447   1.369 -1.0329 -1.9069 -1.5348
33116SOL    HW2 1602   9.746   0.346   1.480 -0.1686  0.5126  0.9157
33117SOL     OW 1603   7.270   2.724   4.811 -0.1133  0.2246 -0.0832
33117SOL    HW1 1604   7.260   2.817   4.830 -0.7718  0.0928  0.2576
33117SOL    HW2 1605   7.183   2.687   4.826  0.0245 -0.3633 -0.6878
33118SOL     OW 1606   2.932   0.302   1.906 -0.3554  0.1342  0.5635
33118SOL    HW1 1607   2.952   0.210   1.921  1.3632  0.2021 -0.9619
33118SOL    HW2 1608   2.909   0.336   1.992  0.8225 -1.3075  1.4987
33119SOL     OW 1609   0.286   1.360   4.183  0.0372 -0.7496 -0.0252
33119SOL    HW1 1610   0.196   1.389   4.167  0.5123  1.0194  0.2996
33119SOL    HW2 1611   0.322   1.346   4.095 -0.0801  0.1232 -0.2201
33120SOL     OW 1612   4.917   3.558  10.239  0.2344  0.1915  0.2969
33120SOL    HW1 1613   4.858   3.595  10.173  0.1623 -0.6466 -0.1233
33120SOL    HW2 1614   4.859   3.538  10.313  0.3001  1.0491  0.5911
33121SOL     OW 1615   5.938   1.793   7.282 -0.5257 -0.3582 -0.1696
33121SOL    HW1 1616   5.889   1.875   7.271  0.9845  0.4434 -1.2177
33121SOL    HW2 1617   5.898   1.734   7.218  0.7154  0.7387 -2.0614
33122SOL     OW 1618   4.434   7.046   2.119  0.5100  0.0100  0.2792
33122SOL    HW1 1619   4.350   7.061   2.076  0.5791  1.5430  0.6316
33122SOL    HW2 1620   4.492   7.114   2.083  0.5926  1.3286  2.6975
33123SOL     OW 1621   8.972   4.922  10.537  0.5445  0.2596  0.1631
33123SOL    HW1 1622   8.932   4.993  10.587 -1.8421  0.2380 -1.5502
33123SOL    HW2 1623   8.916   4.846  10.553  0.6726 -0.1614 -1.2081
33124SOL     OW 1624   2.545  10.450   9.416 -0.0975  0.6149 -0.4922
33124SOL    HW1 1625   2.631  10.421   9.446 -1.5133 -1.0507  2.3680
33124SOL    HW2 1626   2.560  10.482   9.327  3.6679  1.5797  0.3147
33125SOL     OW 1627   0.970   8.589   6.985  0.2212  0.1088 -0.6316
33125SOL    HW1 1628   1.017   8.564   7.065 -0.2407  1.3355  0.0604
33125SOL    HW2 1629   0.997   8.680   6.971 -1.0145  0.4393 -0.9079
33126SOL     OW 1630   4.775   2.451   9.039  0.1846 -0.1180 -0.1235
33126SOL    HW1 1631   4.721   2.412   8.970  1.5864 -0.3660 -1.1086
33126SOL    HW2 1632   4.853   2.397   9.043 -0.4194 -0.9644  2.6765
33127SOL     OW 1633   2.649   6.445   1.105 -0.1193 -0.4274  0.2968
33127SOL    HW1 1634   2.733   6.491   1.101  0.4384 -1.5170 -0.9924
33127SOL    HW2 1635   2.604   6.485   1.180  1.6218  0.0269  1.1473
33128SOL     OW 1636   5.576   3.496   8.797  0.6160 -0.1455 -0.2072
33128SOL    HW1 1637   5.531   3.434   8.739 -1.4846  1.4658 -0.4633
33128SOL    HW2 1638   5.519   3.502   8.874  2.0541 -0.3507  0.8955
33129SOL     OW 1639   7.264   3.630   4.946  0.0586  0.3998 -0.1601
33129SOL    HW1 1640   7.295   3.548   4.906  0.6221 -0.6384  2.1920
33129SOL    HW2 1641   7.175   3.641   4.913  0.1369 -0.9334 -0.8923
33130SOL     OW 1642   1.608   7.446   0.569  0.4024  0.4550 -0.3314
33130SOL    HW1 1643   1.654   7.495   0.501  0.0284 -0.8960 -1.5956
33130SOL    HW2 1644   1.585   7.363   0.528  0.7591 -0.6976  1.6575
33131SOL     OW 1645   4.535   0.797   8.605  0.1722 -0.2350 -0.4422
33131SOL    HW1 1646   4.474   0.724   8.611  0.0482 -0.2391 -1.4566
33131SOL    HW2 1647   4.484   0.866   8.562  0.5794  0.1034 -0.3864
33132SOL     OW 1648   3.572   5.290   1.553  0.1098 -0.0184 -0.6625
33132SOL    HW1 1649   3.564   5.218   1.616  0.1985 -0.6917 -1.4062
33132SOL    HW2 1650   3.500   5.349   1.574  0.3240 -0.0726  0.2669
33133SOL     OW 1651   2.101   6.244   9.599  0.6392  0.3161  0.3418
33133SOL    HW1 1652   2.147   6.243   9.515 -0.1049  0.1906 -0.0821
33133SOL    HW2 1653   2.166   6.274   9.662  0.8152  1.8524 -0.5259
33134SOL     OW 1654  10.319   5.809   1.449  0.3411  0.2504 -0.0093
33134SOL    HW1 1655  10.378   5.734   1.437  0.8531  0.5391  0.6348
33134SOL    HW2 1656  10.238   5.783   1.406  0.4436 -0.7677  0.3853
33135SOL     OW 1657   4.897   9.937   9.583  0.0120  0.1142  0.2069
33135SOL    HW1 1658   4.983   9.910   9.551 -0.0614 -0.0094  0.1086
33135SOL    HW2 1659   4.836   9.904   9.517  0.0176  1.6717 -0.6033
33136SOL     OW 1660   8.599   9.009   4.563  0.1274 -0.5117 -0.0048
33136SOL    HW1 1661   8.594   8.954   4.641  3.7530  3.7589  3.7410
33136SOL    HW2 1662   8.665   8.967   4.508  1.3778 -1.0014  1.8000
33137SOL     OW 1663   8.627   3.647   5.794  0.4214  0.0212 -0.1556
33137SOL    HW1 1664   8.672   3.606   5.868  1.5219  0.2691 -0.6565
33137SOL    HW2 1665   8.649   3.592   5.719  0.7473  0.7209 -0.5875
33138SOL     OW 1666   9.778   6.834   6.219  0.1021  0.0026 -0.1404
33138SOL    HW1 1667   9.751   6.792   6.301 -0.0448 -0.8055 -0.5845
33138SOL    HW2 1668   9.702   6.825   6.162  0.2304  0.4886 -0.3912
33139SOL     OW 1669  10.470   2.129   3.811 -0.2024  0.0058  0.1342
33139SOL    HW1 1670  10.412   2.134   3.734  0.3548  1.3623 -0.2230
33139SOL    HW2 1671  10.441   2.200   3.867  0.8014  0.3779  0.1827
33140SOL     OW 1672   7.765   4.931   2.547 -0.0380  0.5692 -0.0319
33140SOL    HW1 1673   7.682   4.903   2.509 -0.6597  1.2044  0.8187
33140SOL    HW2 1674   7.741   4.979   2.626  1.1647  0.3675  0.4891
33141SOL     OW 1675  10.360   9.638   3.570  0.1964 -0.1119 -0.0611
33141SOL    HW1 1676  10.340   9.687   3.490 -0.0605 -1.3372 -0.7743
33141SOL    HW2 1677  10.454   9.620   3.564  0.2969  0.3160  0.2170
33142SOL     OW 1678   4.630   1.748   4.316  0.5094 -0.1002 -0.2598
33142SOL    HW1 1679   4.706   1.708   4.359 -1.0331 -0.2253  2.6267
33142SOL    HW2 1680   4.597   1.680   4.257  0.4297 -1.5612  1.3864
33143SOL     OW 1681   5.639   2.999   1.900 -0.5588 -0.1601 -0.3849
33143SOL    HW1 1682   5.603   3.075   1.945  1.0943 -0.7877  2.2480
33143SOL    HW2 1683   5.569   2.933   1.905 -1.6845  0.8733 -1.9348
33144SOL     OW 1684  10.363   0.722   2.487 -0.3373 -0.2975 -0.2837
33144SOL    HW1 1685  10.379   0.669   2.565 -0.3878 -1.0257 -0.7526
33144SOL    HW2 1686  10.268   0.737   2.488 -0.3100 -0.1454 -0.0997
33145SOL     OW 1687  10.126   9.723   2.185  0.0236 -0.0726 -0.4452
33145SOL    HW1 1688  10.198   9.740   2.124 -0.1866 -1.7217 -1.2176
33145SOL    HW2 1689  10.082   9.646   2.148 -1.7469  0.5171  0.3575
33146SOL     OW 1690   1.678   3.751  10.375  0.0020 -0.1230  0.2459
33146SOL    HW1 1691   1.712   3.746  10.286  1.8290  0.0744  0.8823
33146SOL    HW2 1692   1.656   3.843  10.387  1.8693  0.3107  0.6788
33147SOL     OW 1693   2.208   3.998   4.723 -0.2306  0.0598  0.4329
33147SOL    HW1 1694   2.152   3.977   4.648  1.2712  0.3356 -0.8013
33147SOL    HW2 1695   2.154   4.058   4.776 -0.7167  1.2770 -1.3246
33148SOL     OW 1696   6.751   1.305   9.090  0.3474  0.7695  0.2459
33148SOL    HW1 1697   6.807   1.382   9.099 -0.3916  1.3810 -0.4263
33148SOL    HW2 1698   6.733   1.279   9.181  2.4520  0.0049  0.5127
33149SOL     OW 1699   0.869   4.388   9.625  0.1365 -0.2494 -0.2526
33149SOL    HW1 1700   0.800   4.448   9.654  0.5372  0.5802 -0.9355
33149SOL    HW2 1701   0.822   4.311   9.592 -0.5891  0.8639 -2.0033
33150SOL     OW 1702   7.221   4.678   9.877 -0.0732  0.7428  0.2718
33150SOL    HW1 1703   7.217   4.771   9.902  0.6690  0.7953  0.1958
33150SOL    HW2 1704   7.242   4.633   9.958 -0.1235  0.6718  0.2448
33151SOL     OW 1705   9.067   8.061   6.119  0.1521 -0.1647  0.0499
33151SOL    HW1 1706   9.050   7.993   6.183  0.9190  1.8077  2.5217
33151SOL    HW2 1707   9.156   8.044   6.088 -0.0671 -0.8940 -0.1933
33152SOL     OW 1708   8.026   3.358   7.758 -0.1651  0.0993 -0.3766
33152SOL    HW1 1709   8.007   3.426   7.693  0.3734 -0.3001 -0.9650
33152SOL    HW2 1710   8.082   3.295   7.712  1.4243  0.5248  0.8685
33153SOL     OW 1711   5.885   8.181   1.809 -0.5027  0.2005  0.8760
33153SOL    HW1 1712   5.871   8.272   1.783 -0.3778  0.0784  0.3580
33153SOL    HW2 1713   5.805   8.136   1.781 -0.0319 -0.0841 -0.0622
33154SOL     OW 1714   0.622   2.933   6.551 -0.2983  0.5396  0.6002
33154SOL    HW1 1715   0.645   2.896   6.636  0.0175  1.0619  0.7387
33154SOL    HW2 1716   0.685   2.894   6.490 -2.0353 -1.8317  0.1297
33155SOL     OW 1717  10.322   4.217   0.771 -0.5229 -0.5820  0.3275
33155SOL    HW1 1718  10.307   4.241   0.680 -1.7234  2.6192  1.1986
33155SOL    HW2 1719  10.274   4.284   0.821  1.2029 -1.3875  3.3103
33156SOL     OW 1720   4.117   8.609   8.705 -0.5696  0.1152  0.3237
33156SOL    HW1 1721   4.203   8.649   8.707  0.1217 -1.2796 -0.0219
33156SOL    HW2 1722   4.110   8.571   8.617 -0.9364 -0.9861  0.8035
33157SOL     OW 1723   5.603   9.460   3.406  0.1692  0.4605 -0.6804
33157SOL    HW1 1724   5.541   9.390   3.387 -0.2238  0.0013  1.9720
33157SOL    HW2 1725   5.550   9.540   3.401 -0.8353  0.0433  1.9386
33158SOL     OW 1726   6.109  10.037   9.047 -0.4282 -0.7453 -0.1533
33158SOL    HW1 1727   6.164   9.981   8.992 -2.8614 -1.9959 -1.4957
33158SOL    HW2 1728   6.125  10.005   9.136 -0.4018 -2.3796 -0.7140
33159SOL     OW 1729   6.462   4.324   9.668 -0.3941  0.3929  0.3179
33159SOL    HW1 1730   6.419   4.338   9.752  1.2033  0.3482  1.1988
33159SOL    HW2 1731   6.532   4.389   9.666 -1.2743  1.3584 -1.6570
33160SOL     OW 1732   6.979   6.524   5.996 -0.3476 -0.1536  0.2120
33160SOL    HW1 1733   6.884   6.536   5.996 -0.3791 -0.4054 -0.1411
33160SOL    HW2 1734   7.007   6.562   6.079 -0.8446 -0.7668  0.6733
33161SOL     OW 1735  10.367   0.947   3.833 -0.6240 -0.2490  0.4875
33161SOL    HW1 1736  10.458   0.924   3.815  0.0214  0.8859  2.0556
33161SOL    HW2 1737  10.322   0.933   3.750  1.1224 -0.1584 -0.5310
33162SOL     OW 1738   5.864   3.356   8.144  0.5394  0.0502 -0.0304
33162SOL    HW1 1739   5.947   3.374   8.188 -0.2976  3.5040  0.4312
33162SOL    HW2 1740   5.852   3.430   8.084 -2.4567  0.0479  0.4048
33163SOL     OW 1741   6.276   3.617   3.335 -0.1957  0.0830 -0.6376
33163SOL    HW1 1742   6.273   3.711   3.355  1.9557  0.5887 -2.2679
33163SOL    HW2 1743   6.261   3.612   3.241  1.5302 -0.9937 -0.8957
33164SOL     OW 1744   2.401   6.942  10.149 -0.0942 -0.0066 -0.5339
33164SOL    HW1 1745   2.394   6.849  10.129 -1.0489 -0.6889  2.4097
33164SOL    HW2 1746   2.495   6.957  10.162 -0.0405 -0.9599  0.3536
33165SOL     OW 1747  10.220   2.475   5.493  0.0033 -0.2747  0.0886
33165SOL    HW1 1748  10.133   2.513   5.509  0.0547 -0.1352  0.0405
33165SOL    HW2 1749  10.263   2.538   5.435 -0.0061 -0.5395 -0.2038
33166SOL     OW 1750   5.022  10.483   1.846 -0.7903 -0.1279 -1.1701
33166SOL    HW1 1751   4.987  10.563   1.887  3.4085  0.4525  2.0945
33166SOL    HW2 1752   4.980  10.412   1.894  0.4391  0.4553  0.9322
33167SOL     OW 1753   8.708   2.238   9.854  0.3361 -0.3291 -0.4018
33167SOL    HW1 1754   8.662   2.267   9.775  1.1331 -0.7600 -1.0377
33167SOL    HW2 1755   8.784   2.295   9.860 -0.4435  0.6234  0.8508
33168SOL     OW 1756   0.420   8.221   9.165  0.0890  0.4228  0.2877
33168SOL    HW1 1757   0.500   8.170   9.164  0.5376  1.1144  0.3757
33168SOL    HW2 1758   0.364   8.180   9.100  0.4626 -0.1448  0.3209
33169SOL     OW 1759  10.646   0.665   8.045  1.0081 -0.5864  0.6149
33169SOL    HW1 1760  10.723   0.608   8.043 -0.4363 -2.6049  0.0798
33169SOL    HW2 1761  10.593   0.637   7.971 -0.7766 -0.0386  1.6279
33170SOL     OW 1762   8.747   2.406   2.082  0.3376 -0.5142  0.1892
33170SOL    HW1 1763   8.699   2.391   2.001  0.4009 -0.8526  0.2144
33170SOL    HW2 1764   8.722   2.495   2.108  0.1051 -0.5065 -0.0539
33171SOL     OW 1765   0.681   4.838   3.288 -0.4814  0.5786 -0.0945
33171SOL    HW1 1766   0.695   4.930   3.265 -0.2668  0.5519 -0.0685
33171SOL    HW2 1767   0.664   4.795   3.204  3.8182 -0.1941 -0.7610
33172SOL     OW 1768   8.267   5.894   0.166  0.2710  0.5974  0.2574
33172SOL    HW1 1769   8.293   5.890   0.074 -2.0121  1.1321 -0.4690
33172SOL    HW2 1770   8.230   5.807   0.184  0.2180  0.6752  0.5261
33173SOL     OW 1771   8.320   1.642   4.931  0.1810  0.1965 -0.3104
33173SOL    HW1 1772   8.255   1.574   4.912  0.6899 -0.4683  0.2607
33173SOL    HW2 1773   8.404   1.595   4.931  0.3532  0.3833  2.1398
33174SOL     OW 1774   5.960   1.197   3.094 -0.7424  0.2861 -0.0719
33174SOL    HW1 1775   5.877   1.243   3.077 -0.6991  0.0667 -0.8883
33174SOL    HW2 1776   5.947   1.158   3.181 -2.7249 -2.3860 -1.4251
33175SOL     OW 1777   0.544   2.166   5.329  0.0049 -0.0274 -0.6487
33175SOL    HW1 1778   0.589   2.196   5.408 -1.3475 -0.3101  0.2803
33175SOL    HW2 1779   0.569   2.229   5.262  2.6733 -0.8453 -0.5175
33176SOL     OW 1780   1.665   4.297   6.377  0.1161  0.3794  0.1273
33176SOL    HW1 1781   1.575   4.317   6.352  0.4150 -0.0581 -1.3744
33176SOL    HW2 1782   1.679   4.208   6.346  1.6867  1.1260 -1.4738
33177SOL     OW 1783   7.674   1.269   8.802  0.1962  0.0508  0.2209
33177SOL    HW1 1784   7.676   1.222   8.885  1.6855 -0.2823  0.0289
33177SOL    HW2 1785   7.690   1.360   8.826  1.5299 -0.1727  0.2448
33178SOL     OW 1786   9.541   3.251   6.068  0.2510  0.7140  0.2739
33178SOL    HW1 1787   9.515   3.208   6.149  0.2981 -0.8565 -0.4969
33178SOL    HW2 1788   9.462   3.295   6.038 -0.8528 -1.7160 -0.6289
33179SOL     OW 1789   1.203   9.357   4.803  0.5056 -0.4295 -0.3271
33179SOL    HW1 1790   1.162   9.356   4.717  2.1931 -1.2225 -1.1786
33179SOL    HW2 1791   1.259   9.279   4.805  0.7928 -0.2397  1.3498
33180SOL     OW 1792   6.804   0.682   6.105 -0.6453  0.2675  0.0880
33180SOL    HW1 1793   6.716   0.690   6.141  0.0166 -1.2145  2.2534
33180SOL    HW2 1794   6.849   0.763   6.131 -0.7799  0.1118  0.8172
33181SOL     OW 1795   5.417   9.529   4.505  0.2298 -0.0964 -0.2217
33181SOL    HW1 1796   5.465   9.462   4.554 -0.0173  0.7533  1.2648
33181SOL    HW2 1797   5.350   9.481   4.458  0.4065 -0.9574  0.3705
33182SOL     OW 1798   1.247   4.836   1.346  0.0912 -0.8058  0.5898
33182SOL    HW1 1799   1.314   4.769   1.339  0.7878 -0.1347  0.6581
33182SOL    HW2 1800   1.164   4.788   1.350  0.5377 -1.6322  0.1297
33183SOL     OW 1801   2.380  10.320   3.470 -0.1862 -0.2083  0.3182
33183SOL    HW1 1802   2.465  10.277   3.470  0.4385  0.9767 -0.2783
33183SOL    HW2 1803   2.395  10.403   3.515 -1.1348 -0.1599  0.5697
33184SOL     OW 1804   7.415   7.605   3.410 -0.4764 -0.2543  0.0487
33184SOL    HW1 1805   7.400   7.511   3.405  0.7474 -0.5211  0.8939
33184SOL    HW2 1806   7.401   7.637   3.321  1.7439 -1.6605 -0.8887
33185SOL     OW 1807   7.202   5.977   5.641 -0.4022  0.5587 -0.1528
33185SOL    HW1 1808   7.121   5.981   5.691  0.2394 -0.4814  1.0193
33185SOL    HW2 1809   7.271   5.971   5.707  0.6436  1.4345 -1.1258
33186SOL     OW 1810  10.248   9.498   5.784 -0.2968 -0.1523 -0.0284
33186SOL    HW1 1811  10.206   9.584   5.790 -1.2383 -0.6910  1.6359
33186SOL    HW2 1812  10.202   9.453   5.714 -0.0642  0.5394 -0.6396
33187SOL     OW 1813   5.301   3.003   5.800 -0.3193  0.5295 -0.3663
33187SOL    HW1 1814   5.390   3.033   5.780 -0.1596  0.0375 -0.4048
33187SOL    HW2 1815   5.274   3.055   5.875  0.1183  0.4699 -0.1625
33188SOL     OW 1816   2.362   2.237   2.323  0.0837  0.5746  0.5799
33188SOL    HW1 1817   2.298   2.206   2.388 -0.0023 -1.2208 -0.2767
33188SOL    HW2 1818   2.334   2.326   2.302 -0.3439  0.9035  2.4005
33189SOL     OW 1819   0.014   0.350   5.190  0.2959 -0.0703 -0.3113
33189SOL    HW1 1820   0.066   0.320   5.265 -0.0224 -0.2273 -0.1542
33189SOL    HW2 1821   0.067   0.329   5.113  0.1021 -0.9827 -0.2008
33190SOL     OW 1822   3.538   8.189   1.514  0.2921  0.0758 -0.0968
33190SOL    HW1 1823   3.537   8.272   1.468  0.5390  0.9613  1.4281
33190SOL    HW2 1824   3.474   8.199   1.585  1.5045 -0.4107  1.1181
33191SOL     OW 1825   5.146   4.717   1.083  0.7897  0.0918 -0.1687
33191SOL    HW1 1826   5.241   4.734   1.086  1.1241 -1.4802 -0.9278
33191SOL    HW2 1827   5.126   4.681   1.169  0.7831  0.8363  0.1490
33192SOL     OW 1828   7.684   6.341   8.300 -0.5148 -0.4107  0.2290
33192SOL    HW1 1829   7.666   6.422   8.349 -1.2694 -0.0287 -0.6478
33192SOL    HW2 1830   7.705   6.276   8.367 -0.6095  0.3320  0.9942
33193SOL     OW 1831   5.487   8.107   4.215 -0.6900 -0.2932 -0.0260
33193SOL    HW1 1832   5.454   8.194   4.195  1.3360  0.7022  0.7141
33193SOL    HW2 1833   5.537   8.081   4.138  0.6540  0.2385  0.6337
33194SOL     OW 1834   2.833   1.385   8.164 -0.0765 -0.2030 -0.1809
33194SOL    HW1 1835   2.759   1.444   8.172  1.4837  2.0354 -1.1100
33194SOL    HW2 1836   2.902   1.424   8.217  1.0476 -1.1431 -0.8757
33195SOL     OW 1837   6.493   5.231   1.623  0.5333 -0.3739  0.2037
33195SOL    HW1 1838   6.558   5.229   1.552 -1.3137 -3.0168 -1.6028
33195SOL    HW2 1839   6.485   5.140   1.651 -2.1895 -0.1212  0.4866
33196SOL     OW 1840   9.323   4.272   1.891 -0.2758  0.0915 -0.4585
33196SOL    HW1 1841   9.309   4.229   1.975 -1.3590  0.2096 -0.5621
33196SOL    HW2 1842   9.275   4.218   1.828 -0.7933  0.8722 -0.7496
33197SOL     OW 1843   0.046   2.287   4.516  0.2854  0.0494  0.7788
33197SOL    HW1 1844  -0.017   2.254   4.453  1.4030  1.9286 -1.4903
33197SOL    HW2 1845   0.098   2.211   4.542 -1.4439 -1.1054  1.0000
33198SOL     OW 1846   1.515   9.407   9.289  0.5054  0.1378  0.3312
33198SOL    HW1 1847   1.425   9.376   9.284  0.4756  0.3231 -0.2857
33198SOL    HW2 1848   1.511   9.497   9.257  1.1262 -0.2750 -0.9439
33199SOL     OW 1849   7.920   1.015   1.668  0.2656 -0.8439 -0.0465
33199SOL    HW1 1850   8.007   0.988   1.698  0.2121 -3.0276 -1.6757
33199SOL    HW2 1851   7.937   1.062   1.586 -0.0499 -0.7606 -0.0635
33200SOL     OW 1852   7.303   8.967   3.945 -0.0761  0.2802  0.4106
33200SOL    HW1 1853   7.300   8.913   3.866  2.4924  1.4316 -0.5958
33200SOL    HW2 1854   7.360   8.919   4.005 -1.4601 -0.2473  1.3820
33201SOL     OW 1855   6.281   3.262   5.410 -0.2521 -0.2166 -0.2035
33201SOL    HW1 1856   6.217   3.317   5.453 -2.2768 -3.4276  1.2487
33201SOL    HW2 1857   6.348   3.245   5.477 -0.2025 -0.3624 -0.2879
33202SOL     OW 1858  10.634  10.638   5.125 -0.0888 -0.4507 -1.1865
33202SOL    HW1 1859  10.553  10.625   5.076 -1.4222  2.6277 -0.0868
33202SOL    HW2 1860  10.674  10.715   5.084 -0.3159  1.0674  1.2577
33203SOL     OW 1861   7.118   3.096   1.182  0.5345 -0.4553  0.0068
33203SOL    HW1 1862   7.040   3.045   1.160 -2.2656  2.5898  1.8408
33203SOL    HW2 1863   7.122   3.164   1.115  1.2865 -0.2295  0.2656
33204SOL     OW 1864   3.214   1.731   8.416  0.0989 -0.1459  0.1656
33204SOL    HW1 1865   3.138   1.761   8.366  1.3340 -1.4208 -2.7058
33204SOL    HW2 1866   3.254   1.664   8.361  2.4565 -0.6514  2.2919
33205SOL     OW 1867   2.668   3.865   0.468  0.1712 -0.1069 -0.1536
33205SOL    HW1 1868   2.615   3.831   0.395  0.3823  1.6835 -1.2101
33205SOL    HW2 1869   2.747   3.812   0.467  0.3373  0.1205 -1.5172
33206SOL     OW 1870   1.398   3.104   7.798 -0.0761  0.1501 -0.2300
33206SOL    HW1 1871   1.450   3.100   7.879  0.3136  0.3960 -0.4603
33206SOL    HW2 1872   1.315   3.063   7.820  0.4036 -0.7029  0.0118
33207SOL     OW 1873   9.094   5.145  10.006  0.5493 -0.7444  0.1363
33207SOL    HW1 1874   9.000   5.156  10.016  0.4180 -0.7829 -0.9475
33207SOL    HW2 1875   9.105   5.111   9.917  1.6403 -0.0371 -0.0159
33208SOL     OW 1876   9.114   9.051   0.761  0.3576 -0.1035  0.1256
33208SOL    HW1 1877   9.198   9.026   0.801  0.7750 -0.1457 -0.7380
33208SOL    HW2 1878   9.048   9.012   0.818  0.9052  0.4640  1.1759
33209SOL     OW 1879   4.931   9.150   0.173  0.3825 -0.0683 -0.4488
33209SOL    HW1 1880   5.016   9.108   0.158  0.2741 -0.5455  0.2262
33209SOL    HW2 1881   4.919   9.146   0.268 -1.3586 -1.9341 -0.6904
33210SOL     OW 1882   3.554   8.383  10.122  0.0591 -0.6268 -0.0370
33210SOL    HW1 1883   3.505   8.433  10.057  1.4816  0.3897 -0.3718
33210SOL    HW2 1884   3.600   8.448  10.175  0.9633 -1.5186  0.3337
33211SOL     OW 1885   7.730   4.412   6.857 -0.3219  0.7941  0.0823
33211SOL    HW1 1886   7.676   4.349   6.906  0.7206  1.1495  1.7824
33211SOL    HW2 1887   7.726   4.491   6.910 -1.4340  2.1575 -1.9111
33212SOL     OW 1888   7.304   2.523   5.952 -0.1454 -0.2669 -0.6900
33212SOL    HW1 1889   7.237   2.455   5.946  0.4168 -0.8518 -0.4723
33212SOL    HW2 1890   7.316   2.553   5.862 -0.2681 -0.5894 -0.8167
33213SOL     OW 1891   3.607   4.456   5.275 -0.4501 -0.4156 -1.0200
33213SOL    HW1 1892   3.559   4.441   5.194 -2.7437  2.9591 -0.5065
33213SOL    HW2 1893   3.693   4.487   5.245 -1.2631  0.8159 -2.2642
33214SOL     OW 1894   6.212   4.485   8.679  0.1806 -0.3527 -0.3183
33214SOL    HW1 1895   6.182   4.395   8.688  0.3094 -0.3428  0.2489
33214SOL    HW2 1896   6.174   4.516   8.597  0.9979 -1.2608 -1.0622
33215SOL     OW 1897   3.338   1.701   0.698 -0.3605 -0.3056 -0.3911
33215SOL    HW1 1898   3.392   1.688   0.776  1.4805 -0.4791 -1.6241
33215SOL    HW2 1899   3.334   1.796   0.687 -0.3097 -0.2921 -0.2909
33216SOL     OW 1900   6.454   0.065   9.604  0.4571  0.2731  0.0358
33216SOL    HW1 1901   6.398   0.089   9.678  0.6304  0.2954  0.1608
33216SOL    HW2 1902   6.456   0.144   9.549 -0.1446  0.0660 -0.2944
33217SOL     OW 1903   3.195   8.436   0.062 -0.7335 -0.1266  0.1661
33217SOL    HW1 1904   3.207   8.530   0.074  2.4337 -0.4198  0.1014
33217SOL    HW2 1905   3.137   8.409   0.133 -1.7528  1.8431  0.1370
33218SOL     OW 1906   0.209   3.306   2.079  0.3617 -0.5346 -0.3103
33218SOL    HW1 1907   0.259   3.274   2.003 -0.7278 -0.7710 -0.9434
33218SOL    HW2 1908   0.158   3.231   2.107  0.5695 -0.3734  0.5116
33219SOL     OW 1909  10.121   0.270   9.823 -0.6376  0.0842 -0.0664
33219SOL    HW1 1910  10.044   0.283   9.878  0.7013 -1.5029  2.3541
33219SOL    HW2 1911  10.109   0.184   9.784  1.3114 -1.8293  3.1081
33220SOL     OW 1912   4.932   7.483   4.262  0.3656 -0.6147  0.1584
33220SOL    HW1 1913   4.928   7.504   4.169 -0.7725  1.3053  0.5862
33220SOL    HW2 1914   4.932   7.387   4.265 -3.0952 -0.8303 -1.7453
33221SOL     OW 1915  10.389   1.615   3.269 -0.0385  0.2426 -0.4491
33221SOL    HW1 1916  10.373   1.671   3.194  0.7368  0.3919 -0.5041
33221SOL    HW2 1917  10.478   1.634   3.296 -0.3542  0.3043  0.6091
33222SOL     OW 1918   1.301   5.522   9.543 -0.2070  0.0650 -0.5152
33222SOL    HW1 1919   1.388   5.554   9.522  0.2505 -0.7789  0.0373
33222SOL    HW2 1920   1.262   5.500   9.458  0.5457 -0.6139 -0.6970
33223SOL     OW 1921   3.400   8.161  10.652  0.1912  0.4927 -0.0908
33223SOL    HW1 1922   3.387   8.087  10.592 -0.9327  0.8161 -0.2810
33223SOL    HW2 1923   3.326   8.155  10.712  0.2108  1.3249  0.0303
33224SOL     OW 1924   2.560   0.461   4.599  0.1561 -0.0897  0.9377
33224SOL    HW1 1925   2.630   0.515   4.636  0.5472 -0.1642  0.3165
33224SOL    HW2 1926   2.605   0.397   4.544 -0.4625  1.0447 -1.0184
33225SOL     OW 1927   1.020   9.604   1.416  0.0929 -0.0318  0.4558
33225SOL    HW1 1928   1.075   9.680   1.399  0.1730 -0.0910  0.4499
33225SOL    HW2 1929   0.931   9.639   1.422  0.1492  0.0840  0.6197
33226SOL     OW 1930   6.347   0.795   4.826 -0.1720  0.3085  0.0844
33226SOL    HW1 1931   6.317   0.761   4.741  2.2184 -0.0548 -0.7052
33226SOL    HW2 1932   6.356   0.716   4.880  1.6610  0.0417 -0.5160
33227SOL     OW 1933   0.311   1.963   4.658 -0.0601  0.1594 -0.7225
33227SOL    HW1 1934   0.222   1.939   4.630 -0.4197 -1.8073  1.7831
33227SOL    HW2 1935   0.306   1.966   4.753  2.8821 -1.5001 -0.4126
33228SOL     OW 1936   0.906   6.873   3.565 -0.0199  0.0564 -0.0018
33228SOL    HW1 1937   0.997   6.895   3.545  0.0807  0.4363  0.8450
33228SOL    HW2 1938   0.907   6.779   3.582 -0.0082 -0.1708 -1.1646
33229SOL     OW 1939   2.718   6.232   7.576 -0.2609  0.1819  0.0221
33229SOL    HW1 1940   2.681   6.299   7.634  0.5483  0.3034  0.4212
33229SOL    HW2 1941   2.810   6.257   7.568  0.0731 -0.9428  0.2555
33230SOL     OW 1942   4.339   3.187   7.946 -0.2639 -0.2740 -0.0078
33230SOL    HW1 1943   4.339   3.092   7.932  1.3349 -0.2240 -0.6047
33230SOL    HW2 1944   4.357   3.198   8.039 -0.5659 -0.5471  0.0845
33231SOL     OW 1945   7.535   4.560  10.632 -0.0259 -0.5268 -0.2506
33231SOL    HW1 1946   7.550   4.652  10.608 -0.8075 -0.7794 -1.8541
33231SOL    HW2 1947   7.440   4.551  10.633  0.0436 -1.2960 -0.0064
33232SOL     OW 1948   0.827  10.322   1.573  0.6648  0.3068 -0.7454
33232SOL    HW1 1949   0.826  10.384   1.647  1.9460 -1.3900  0.7589
33232SOL    HW2 1950   0.916  10.326   1.539  0.9698 -1.2239 -0.1653
33233SOL     OW 1951   8.000   5.125   7.747  0.1211  0.0500 -0.3892
33233SOL    HW1 1952   8.015   5.032   7.730 -0.9192  0.2770 -2.9179
33233SOL    HW2 1953   7.905   5.133   7.757  0.0998  0.9429 -1.1014
33234SOL     OW 1954   1.016   0.196   7.283  0.1068  0.2335 -0.7320
33234SOL    HW1 1955   0.949   0.243   7.332 -0.1427  0.9648 -1.7402
33234SOL    HW2 1956   0.982   0.191   7.194  0.6093 -0.9530 -0.8804
33235SOL     OW 1957  10.582   6.741   6.999  0.1516 -0.4954 -0.7972
33235SOL    HW1 1958  10.529   6.730   6.920  0.3053 -1.0200 -0.8350
33235SOL    HW2 1959  10.625   6.825   6.988 -0.8887  0.0745 -0.6373
33236SOL     OW 1960  10.110   6.568   1.140 -0.3989  0.7433 -0.0788
33236SOL    HW1 1961  10.135   6.497   1.080 -2.3533  0.0847 -0.1946
33236SOL    HW2 1962  10.109   6.527   1.226  0.5503  1.2061  0.1665
33237SOL     OW 1963   3.098   7.431   4.558  0.0149  0.1252 -0.0889
33237SOL    HW1 1964   3.052   7.514   4.546  1.0108  0.7409  0.2891
33237SOL    HW2 1965   3.098   7.391   4.471  0.5936  1.0856 -0.5459
33238SOL     OW 1966   5.825  10.079   3.770  0.0236  0.5724  0.5020
33238SOL    HW1 1967   5.772  10.046   3.698 -1.5248  0.1933  1.7507
33238SOL    HW2 1968   5.890  10.010   3.786 -0.9788 -0.3424  0.8139
33239SOL     OW 1969   3.232   7.250   6.267 -0.2776  0.4861  0.4200
33239SOL    HW1 1970   3.141   7.227   6.249 -0.3920  1.9312 -1.0342
33239SOL    HW2 1971   3.227   7.325   6.326  0.0464 -0.9075  2.3072
33240SOL     OW 1972  10.636   3.797   7.305 -0.1454 -0.0531  0.3594
33240SOL    HW1 1973  10.663   3.882   7.340  0.5417 -0.0771 -0.0871
33240SOL    HW2 1974  10.614   3.815   7.213  2.7892 -0.8156 -0.6125
33241SOL     OW 1975   4.780   3.550   2.682 -0.4192 -0.4784  0.7694
33241SOL    HW1 1976   4.872   3.536   2.702  0.0194 -0.4498 -1.0588
33241SOL    HW2 1977   4.743   3.462   2.674 -0.4250 -0.4941  0.9723
33242SOL     OW 1978   4.218   4.913   1.015  0.6651  0.1227  0.3127
33242SOL    HW1 1979   4.281   4.895   1.085  0.5942 -0.4145  0.2460
33242SOL    HW2 1980   4.140   4.863   1.039  0.1482  1.0165  0.5462
33243SOL     OW 1981   8.842   8.484   1.849  0.3572  0.0974 -0.4396
33243SOL    HW1 1982   8.930   8.486   1.889 -0.3200  0.2885  1.1222
33243SOL    HW2 1983   8.828   8.392   1.827  0.3911 -0.1839  0.6531
33244SOL     OW 1984   8.355  10.122   0.972  0.1983 -0.0344  0.1349
33244SOL    HW1 1985   8.267  10.132   1.007  0.4295 -1.3376  1.1903
33244SOL    HW2 1986   8.409  10.100   1.049  0.9830 -1.6332 -0.8112
33245SOL     OW 1987   7.312   6.584  10.572 -0.3857 -0.0650 -0.0923
33245SOL    HW1 1988   7.388   6.641  10.585  0.0403 -0.5659 -0.3683
33245SOL    HW2 1989   7.260   6.629  10.505  0.4412 -0.4678 -1.0312
33246SOL     OW 1990   3.579   9.974   7.388  0.2625 -0.3791 -0.0814
33246SOL    HW1 1991   3.529   9.999   7.310 -0.2725  2.0633  0.9538
33246SOL    HW2 1992   3.670   9.970   7.358  0.0892  0.7207 -0.8144
33247SOL     OW 1993   5.028   6.124   3.861 -0.7086  0.1121  0.2079
33247SOL    HW1 1994   4.972   6.201   3.853 -0.2703  0.3605 -0.5736
33247SOL    HW2 1995   4.993   6.076   3.937 -0.2087  1.6940  1.4822
33248SOL     OW 1996   7.834  10.433   3.650  0.6420  0.1833 -0.0092
33248SOL    HW1 1997   7.915  10.382   3.643  0.8730  0.5867 -0.3034
33248SOL    HW2 1998   7.858  10.510   3.701  0.6447  0.6846 -0.7393
33249SOL     OW 1999  10.491   5.632   4.625 -0.2793  0.2037 -0.1335
33249SOL    HW1 2000  10.577   5.624   4.666  0.5285  1.6474 -1.4124
33249SOL    HW2 2001  10.431   5.649   4.697  0.4928 -0.8019  0.7763
33250SOL     OW 2002   2.163   4.268   6.111 -0.0258 -0.1649  0.1256
33250SOL    HW1 2003   2.127   4.340   6.059  0.2508 -0.2097 -0.1233
33250SOL    HW2 2004   2.199   4.311   6.189  0.3404 -0.0085 -0.1274
33251SOL     OW 2005   2.477   1.496   0.376 -0.2948  0.2348 -0.1803
33251SOL    HW1 2006   2.436   1.410   0.385 -0.7694  0.5250  0.4620
33251SOL    HW2 2007   2.413   1.549   0.329 -0.5169  0.5855  0.5080
33252SOL     OW 2008   1.843   3.599   7.166  0.7639  0.4434  0.9611
33252SOL    HW1 2009   1.874   3.652   7.092 -0.3838  3.5506  2.4934
33252SOL    HW2 2010   1.900   3.624   7.239  0.7535 -1.1901  1.5756
33253SOL     OW 2011   4.631   4.418   4.875  0.3931  0.4561 -0.1443
33253SOL    HW1 2012   4.612   4.489   4.935 -0.3257  1.7418 -1.8051
33253SOL    HW2 2013   4.658   4.345   4.931 -2.9777  0.6406  1.9897
33254SOL     OW 2014   3.681   1.305   8.127 -0.2036  0.1067 -0.7498
33254SOL    HW1 2015   3.591   1.338   8.129 -1.0059 -1.8893 -1.5384
33254SOL    HW2 2016   3.697   1.284   8.035  0.0722 -2.0761 -0.2491
33255SOL     OW 2017   7.138   8.796   4.234 -0.3085 -0.3965  0.5594
33255SOL    HW1 2018   7.075   8.740   4.280 -1.2872  0.4396  0.2665
33255SOL    HW2 2019   7.160   8.865   4.296 -0.2013 -0.2993  0.4161
33256SOL     OW 2020  10.456   4.062   0.236  0.2139 -0.3150  0.8844
33256SOL    HW1 2021  10.376   4.098   0.275 -0.1149 -0.4629  0.3658
33256SOL    HW2 2022  10.518   4.057   0.308 -0.6201 -1.2775  1.5726
33257SOL     OW 2023   0.238   1.184   1.626 -0.3666  0.4099  0.2041
33257SOL    HW1 2024   0.220   1.150   1.538  0.2638 -0.7844  0.5065
33257SOL    HW2 2025   0.315   1.240   1.615  1.9932 -2.4791  0.4445
33258SOL     OW 2026   0.611   7.758   7.976 -0.2111  0.3052 -0.0215
33258SOL    HW1 2027   0.606   7.810   8.056  1.5638 -0.4635  0.6243
33258SOL    HW2 2028   0.658   7.814   7.914  0.4958  0.0021  0.2370
33259SOL     OW 2029   1.899   3.667   5.876  0.4525 -0.4114 -0.6122
33259SOL    HW1 2030   1.876   3.701   5.789 -1.2786 -2.1132 -0.8923
33259SOL    HW2 2031   1.906   3.573   5.863 -1.2528 -0.8756  1.3448
33260SOL     OW 2032   2.102   5.166   7.873 -0.0373 -0.2996 -0.0440
33260SOL    HW1 2033   2.092   5.117   7.954 -0.7834 -1.4081 -0.7748
33260SOL    HW2 2034   2.032   5.231   7.875  0.6093  0.3863  0.6788
33261SOL     OW 2035   0.360   4.587   2.550 -1.2001  1.1815  0.4863
33261SOL    HW1 2036   0.327   4.613   2.464 -1.3406  1.1580  0.5320
33261SOL    HW2 2037   0.281   4.579   2.604 -1.3769 -1.1727 -0.0023
33262SOL     OW 2038   9.080   8.137   7.842  0.6046 -0.0481  0.1140
33262SOL    HW1 2039   9.119   8.067   7.790 -1.1789  0.2446 -1.7174
33262SOL    HW2 2040   9.129   8.215   7.816 -0.8936  0.2777 -2.0077
33263SOL     OW 2041   7.170   2.990   4.546  0.1901 -0.1487 -0.7930
33263SOL    HW1 2042   7.253   2.980   4.592  0.5814  0.0617 -1.4447
33263SOL    HW2 2043   7.124   3.059   4.595 -0.4058 -1.5376  0.6795
33264SOL     OW 2044  10.380   9.221   0.959 -0.0834 -0.0026  0.1503
33264SOL    HW1 2045  10.328   9.187   0.886 -0.5772  0.2240  0.3931
33264SOL    HW2 2046  10.402   9.143   1.010  1.4854 -0.3659 -0.9879
33265SOL     OW 2047   4.577   1.612   2.690  0.3627 -0.0830 -0.1858
33265SOL    HW1 2048   4.587   1.568   2.605  0.5866 -1.3240  0.4632
33265SOL    HW2 2049   4.590   1.705   2.670 -0.0815 -0.2894 -1.5914
33266SOL     OW 2050   3.632   1.765   1.138  0.3098 -0.1293 -0.7888
33266SOL    HW1 2051   3.659   1.709   1.210  1.1388  0.7832 -0.3715
33266SOL    HW2 2052   3.683   1.845   1.148  0.5023  0.0014 -2.4324
33267SOL     OW 2053   0.320   8.382   3.028  0.4445 -0.6263 -0.1263
33267SOL    HW1 2054   0.257   8.453   3.018 -0.3559 -1.2767  0.1944
33267SOL    HW2 2055   0.320   8.337   2.943  0.8663 -0.3176 -0.2926
33268SOL     OW 2056   4.732   0.650   0.490  1.0247 -0.5334  0.3798
33268SOL    HW1 2057   4.814   0.699   0.491  0.9489 -0.3566 -0.7535
33268SOL    HW2 2058   4.668   0.710   0.529  0.3649  1.4295 -3.2017
33269SOL     OW 2059   6.745   9.021   1.190  0.2877 -0.3527  0.5861
33269SOL    HW1 2060   6.803   9.097   1.194 -0.5278  0.2805  0.6300
33269SOL    HW2 2061   6.663   9.052   1.229 -0.3804 -0.9508 -0.3222
33270SOL     OW 2062  10.172   7.836   6.871 -0.0489  0.4255  0.7019
33270SOL    HW1 2063  10.122   7.806   6.946 -1.0411  1.0390  0.3050
33270SOL    HW2 2064  10.196   7.926   6.893  1.2278  0.0251  1.0488
33271SOL     OW 2065   0.579   9.733   8.767 -0.0283  0.1007 -0.5249
33271SOL    HW1 2066   0.650   9.668   8.763  1.0242  1.2753 -2.9238
33271SOL    HW2 2067   0.511   9.697   8.710 -0.1493  0.2927 -0.5014
33272SOL     OW 2068   0.893   2.328  10.132  0.0773 -0.2115 -0.0640
33272SOL    HW1 2069   0.919   2.236  10.123 -2.8924 -1.4260  2.1201
33272SOL    HW2 2070   0.805   2.332  10.094  0.8742  2.2737 -1.9171
33273SOL     OW 2071   8.323   8.071   2.680  0.0565 -0.0258  0.0414
33273SOL    HW1 2072   8.232   8.039   2.676 -0.2077  0.6223  0.5663
33273SOL    HW2 2073   8.315   8.165   2.670  0.6892  0.0260  0.0053
33274SOL     OW 2074   7.890   4.214   7.942 -0.0586 -0.1481 -0.6565
33274SOL    HW1 2075   7.805   4.178   7.966  0.2604 -0.4941 -0.0198
33274SOL    HW2 2076   7.951   4.177   8.005  0.5733  0.0873 -1.1107
33275SOL     OW 2077   1.695   0.084   5.155  0.3466  0.0002  0.2323
33275SOL    HW1 2078   1.628   0.039   5.206  0.3823 -0.3441 -0.0207
33275SOL    HW2 2079   1.662   0.083   5.065 -0.8339  2.6457  0.5397
33276SOL     OW 2080   9.237   9.966   0.755 -0.1567 -0.3801 -0.3189
33276SOL    HW1 2081   9.159   9.920   0.725  0.1120  0.4163 -2.4440
33276SOL    HW2 2082   9.284   9.989   0.674  1.7307  0.0985  0.8472
33277SOL     OW 2083   7.724   7.748  10.118  0.0845 -0.4730  0.3821
33277SOL    HW1 2084   7.661   7.684  10.086 -0.8312 -0.3904  1.9467
33277SOL    HW2 2085   7.808   7.703  10.115 -0.0109 -0.6172 -1.6418
33278SOL     OW 2086   3.061   4.057   3.386  0.1196 -0.4559  0.1518
33278SOL    HW1 2087   3.132   4.121   3.375 -1.3649  0.9324 -2.1382
33278SOL    HW2 2088   3.061   4.007   3.305 -1.1027 -0.8561  0.3805
33279SOL     OW 2089   0.893   9.903   0.048 -0.7618  0.1101  0.2348
33279SOL    HW1 2090   0.951   9.977   0.066  0.5715 -1.2107  1.6774
33279SOL    HW2 2091   0.944   9.846  -0.010 -1.7086  0.2072 -0.7294
33280SOL     OW 2092   9.319   5.322   7.607 -0.4631 -0.0369 -0.1434
33280SOL    HW1 2093   9.352   5.269   7.535 -2.0989 -1.1909 -0.1011
33280SOL    HW2 2094   9.245   5.370   7.569  0.0391  1.0476  0.2181
33281SOL     OW 2095   8.569   3.856   2.162 -0.3002  0.3117 -0.4251
33281SOL    HW1 2096   8.647   3.808   2.134 -0.4713 -0.9082  1.0511
33281SOL    HW2 2097   8.533   3.892   2.081  1.4077  0.3415 -1.2218
33282SOL     OW 2098   4.569   6.437   2.332 -0.4149  0.0778  0.0903
33282SOL    HW1 2099   4.575   6.376   2.258 -0.5517 -0.2300  0.3270
33282SOL    HW2 2100   4.538   6.519   2.294  1.9156  0.7034 -0.6126
33283SOL     OW 2101   6.744   8.069   9.486 -0.0964 -0.1003 -0.2731
33283SOL    HW1 2102   6.780   8.014   9.416  1.4107 -0.3587  0.6665
33283SOL    HW2 2103   6.796   8.150   9.481  0.5133 -0.3892  0.9603
33284SOL     OW 2104   4.198   4.772   5.218  0.3061  0.1364  0.9494
33284SOL    HW1 2105   4.131   4.797   5.281 -1.4025 -1.4137 -0.1610
33284SOL    HW2 2106   4.171   4.687   5.186  1.4371  0.5819 -1.4276
33285SOL     OW 2107   3.096   2.547   0.847  0.1602  0.0200 -0.2725
33285SOL    HW1 2108   3.138   2.619   0.801  0.7320 -1.4093 -2.1386
33285SOL    HW2 2109   3.017   2.529   0.795  0.7499 -1.5498 -0.6944
33286SOL     OW 2110   0.414   1.423   7.397  0.0125  0.6258  0.4508
33286SOL    HW1 2111   0.381   1.387   7.314 -0.9371 -0.9574  1.4680
33286SOL    HW2 2112   0.448   1.509   7.374  0.1431  0.0632 -1.6608
33287SOL     OW 2113   8.003  10.158   5.317 -0.8980  0.2123  0.3894
33287SOL    HW1 2114   8.095  10.156   5.342 -0.7718  0.2702 -0.0615
33287SOL    HW2 2115   7.987  10.249   5.291 -0.3274 -0.3561 -2.2511
33288SOL     OW 2116   4.280   1.237   5.733 -0.2241 -0.5257 -0.3607
33288SOL    HW1 2117   4.279   1.293   5.810 -1.3647 -2.1583  0.8906
33288SOL    HW2 2118   4.371   1.208   5.725 -0.1655 -0.6503  0.6332
33289SOL     OW 2119   6.323  10.005   2.859 -0.4431  0.0966  0.0845
33289SOL    HW1 2120   6.343  10.099   2.852  0.7775 -0.1645 -0.2509
33289SOL    HW2 2121   6.317   9.975   2.769 -0.2957 -0.2437  0.1846
33290SOL     OW 2122   6.963   3.514   2.829 -0.0003  0.2725 -0.1369
33290SOL    HW1 2123   6.913   3.446   2.784  2.9826 -2.3175  0.0645
33290SOL    HW2 2124   6.898   3.563   2.879 -2.5510 -1.2203 -1.7525
33291SOL     OW 2125   5.673   4.828   8.366  0.3436 -0.4878  0.0889
33291SOL    HW1 2126   5.585   4.802   8.337  0.2170 -0.1542  0.1792
33291SOL    HW2 2127   5.668   4.923   8.377  0.7161 -0.4683  0.0953
33292SOL     OW 2128   0.836   8.470   1.330 -0.0574  0.0105 -0.0008
33292SOL    HW1 2129   0.893   8.398   1.357 -0.2203 -0.1900 -0.1954
33292SOL    HW2 2130   0.894   8.547   1.330 -0.3081  0.2647  2.1098
33293SOL     OW 2131   7.791   1.098   3.161  0.0268  0.0223 -0.0335
33293SOL    HW1 2132   7.792   1.067   3.251 -1.2614 -0.6773 -0.2390
33293SOL    HW2 2133   7.761   1.189   3.167  1.5596  0.5328  0.3646
33294SOL     OW 2134   8.972   8.379   0.749 -0.0944  0.4894  0.2538
33294SOL    HW1 2135   9.017   8.455   0.785  0.3376 -0.5189  1.9581
33294SOL    HW2 2136   8.999   8.377   0.657  0.6937  1.7993  0.4240
33295SOL     OW 2137   5.849   5.166   7.235 -0.0732  0.1475 -0.2931
33295SOL    HW1 2138   5.894   5.148   7.318  0.6291 -0.0472 -0.7125
33295SOL    HW2 2139   5.915   5.151   7.168 -0.5526  0.6013 -0.8766
33296SOL     OW 2140   2.726   1.326   7.336  0.2505 -0.0115  0.6219
33296SOL    HW1 2141   2.766   1.240   7.351  1.3584  0.1425 -1.0759
33296SOL    HW2 2142   2.664   1.311   7.264  0.5645  0.6150  0.2085
33297SOL     OW 2143   1.744   1.769   6.104 -0.0876 -0.5902 -0.2189
33297SOL    HW1 2144   1.652   1.789   6.092  0.4045  0.8767 -2.0239
33297SOL    HW2 2145   1.784   1.783   6.018  1.7879 -1.3689  0.4612
33298SOL     OW 2146   2.657   7.734   8.717 -0.1284 -0.2903  0.1283
33298SOL    HW1 2147   2.609   7.677   8.777  1.6193 -1.4868  0.4849
33298SOL    HW2 2148   2.734   7.761   8.767  0.3449  0.3138 -0.9011
33299SOL     OW 2149   8.534   2.302   4.947  0.1895  0.3598  0.0097
33299SOL    HW1 2150   8.591   2.346   5.010 -1.3233 -0.0154  1.7057
33299SOL    HW2 2151   8.549   2.209   4.961  0.4026  0.2739 -0.7410
33300SOL     OW 2152   9.459   3.354   6.695  0.0002 -0.2561  1.1450
33300SOL    HW1 2153   9.398   3.338   6.767 -0.2219 -1.3627  0.7498
33300SOL    HW2 2154   9.502   3.436   6.716 -1.0258  0.1143  1.8628
33301SOL     OW 2155   1.719   9.973   8.892  0.3365  0.5571 -0.2376
33301SOL    HW1 2156   1.736   9.915   8.966  0.2432  0.3145 -0.4030
33301SOL    HW2 2157   1.643  10.025   8.920 -1.6841 -1.6186 -1.2935
33302SOL     OW 2158   0.254   1.357   8.504 -0.0773 -1.0392 -0.1075
33302SOL    HW1 2159   0.262   1.441   8.459 -1.2373 -0.9069 -0.1082
33302SOL    HW2 2160   0.282   1.292   8.439 -1.8346 -0.8565 -1.1100
33303SOL     OW 2161   6.067   5.650   8.846 -0.2136 -0.1697  0.3024
33303SOL    HW1 2162   6.141   5.591   8.856 -1.1778 -1.7756 -1.5464
33303SOL    HW2 2163   6.100   5.722   8.792  0.2502 -0.3701  0.3145
33304SOL     OW 2164  10.535   2.768   6.199  0.1610  0.0995  0.8333
33304SOL    HW1 2165  10.559   2.771   6.292  1.7694 -0.2783  0.4530
33304SOL    HW2 2166  10.455   2.821   6.194  1.3642  2.1831  2.0586
33305SOL     OW 2167   3.803   6.263   5.365 -0.1644  0.2237 -0.1340
33305SOL    HW1 2168   3.857   6.341   5.351  0.7520 -0.2285  0.7238
33305SOL    HW2 2169   3.859   6.190   5.339 -1.2420 -0.1346 -1.5461
33306SOL     OW 2170   6.687   2.307   3.566  0.6905 -0.1420  0.3355
33306SOL    HW1 2171   6.677   2.225   3.614 -0.6160  0.3905  1.0320
33306SOL    HW2 2172   6.763   2.293   3.509 -0.9280 -2.7205 -1.4067
33307SOL     OW 2173   2.967   3.303   0.632  0.3479 -0.4236 -0.4601
33307SOL    HW1 2174   2.956   3.380   0.576  0.2069 -0.1984 -0.1249
33307SOL    HW2 2175   3.040   3.256   0.592  0.4270 -0.1249 -0.6791
33308SOL     OW 2176   2.052   0.455   5.021  0.8452 -0.2998  0.1347
33308SOL    HW1 2177   1.975   0.442   5.077  2.9855 -0.4991  3.3033
33308SOL    HW2 2178   2.018   0.497   4.942 -2.5052 -0.6381  1.2449
33309SOL     OW 2179   3.166   1.897   7.983  0.1503  0.0505  0.0603
33309SOL    HW1 2180   3.239   1.904   8.045  0.9941 -1.9706 -0.6164
33309SOL    HW2 2181   3.103   1.840   8.027 -0.7602  1.2425  0.3589
33310SOL     OW 2182   0.207   9.445   6.377  0.1524 -0.1195  0.6236
33310SOL    HW1 2183   0.219   9.383   6.305 -0.4323 -1.1174  1.3752
33310SOL    HW2 2184   0.118   9.477   6.366 -0.6078 -1.6712  1.9519
33311SOL     OW 2185   6.791   4.258   9.454  0.1042  0.1025 -0.8227
33311SOL    HW1 2186   6.873   4.253   9.403  0.6199  1.4081 -0.1771
33311SOL    HW2 2187   6.804   4.197   9.526  0.8590  0.8585 -0.2907
33312SOL     OW 2188   1.514   8.758   3.124  0.3333 -0.2002 -0.1214
33312SOL    HW1 2189   1.450   8.787   3.190 -0.2638  1.2260 -1.2576
33312SOL    HW2 2190   1.483   8.797   3.042  0.9207 -2.1208 -1.3221
33313SOL     OW 2191   4.183   0.656   4.560 -0.3607  0.0940  0.5285
33313SOL    HW1 2192   4.227   0.608   4.490  0.0680  1.6316 -0.2897
33313SOL    HW2 2193   4.112   0.703   4.516  0.4763  1.8089  0.9411
33314SOL     OW 2194   1.452   8.071   7.616 -0.7192  1.0075  0.8897
33314SOL    HW1 2195   1.511   8.077   7.691 -0.5185  0.3789  0.7842
33314SOL    HW2 2196   1.443   7.977   7.599  0.7014  1.1520 -1.0301
33315SOL     OW 2197   3.606   4.056   5.757  0.3175 -0.3030 -0.4110
33315SOL    HW1 2198   3.647   3.971   5.745  0.9044  0.0737 -1.1310
33315SOL    HW2 2199   3.664   4.103   5.818  0.4838 -0.0984 -0.7220
33316SOL     OW 2200   3.901   6.682   3.709 -0.4438  0.6936 -0.3995
33316SOL    HW1 2201   3.993   6.689   3.685 -0.4605 -0.8239 -1.0149
33316SOL    HW2 2202   3.872   6.599   3.671 -1.5675  0.2008  1.4019
33317SOL     OW 2203   8.533  10.156   9.691  0.4321 -0.3063  0.5303
33317SOL    HW1 2204   8.454  10.210   9.690  1.3640  1.1103  0.2401
33317SOL    HW2 2205   8.556  10.145   9.599  1.9341  1.4355  0.6400
33318SOL     OW 2206   0.334  10.112   9.605  0.2113  0.6688 -0.2086
33318SOL    HW1 2207   0.362  10.127   9.695  2.0769 -3.8514  0.2603
33318SOL    HW2 2208   0.415  10.092   9.557 -0.9929  0.3158 -2.2392
33319SOL     OW 2209   7.035   0.342   5.530 -0.5894 -0.5913  0.1574
33319SOL    HW1 2210   7.021   0.410   5.595 -1.4910  0.6322 -1.2594
33319SOL    HW2 2211   7.064   0.266   5.581 -0.1860  0.6353  1.8429
33320SOL     OW 2212   9.184   5.703   4.259  0.4023 -0.3205  0.5414
33320SOL    HW1 2213   9.164   5.684   4.351 -1.0829  0.2683  0.3602
33320SOL    HW2 2214   9.100   5.698   4.214  0.6309  2.1219 -0.3153
33321SOL     OW 2215  10.496   2.545   4.714  0.0493 -0.1015 -0.3243
33321SOL    HW1 2216  10.441   2.519   4.788 -0.0515  0.8079 -0.0653
33321SOL    HW2 2217  10.585   2.543   4.748  0.0198  0.1375 -0.2332
33322SOL     OW 2218   8.501   4.365   1.989  0.3509 -0.5636 -0.0271
33322SOL    HW1 2219   8.563   4.337   2.056  1.8631  0.2232 -1.0493
33322SOL    HW2 2220   8.467   4.448   2.022  1.5585  0.1367 -0.4797
33323SOL     OW 2221   0.811   9.726   9.627  0.7625 -1.0546  0.4957
33323SOL    HW1 2222   0.837   9.730   9.535 -2.8054  0.6099 -0.6427
33323SOL    HW2 2223   0.797   9.633   9.644  1.8288 -1.4237 -0.5221
33324SOL     OW 2224   3.170   1.881   0.037 -0.0408 -0.2217 -0.8073
33324SOL    HW1 2225   3.195   1.813   0.100  0.4298  1.1328  0.5356
33324SOL    HW2 2226   3.247   1.892  -0.018  1.3345  1.7291  1.3208
33325SOL     OW 2227   4.407   0.497   0.866 -0.0270  0.4060 -0.5635
33325SOL    HW1 2228   4.463   0.460   0.798 -1.1189 -0.5534 -0.9864
33325SOL    HW2 2229   4.319   0.465   0.844 -0.4756  0.4533  1.0466
33326SOL     OW 2230   3.269   2.356   6.786 -0.2446  0.2992 -0.3067
33326SOL    HW1 2231   3.176   2.339   6.770 -0.3941 -0.6743  1.3226
33326SOL    HW2 2232   3.278   2.348   6.881  1.4505  0.6919 -0.4102
33327SOL     OW 2233   9.537   7.084   5.146 -0.5634 -0.3941 -0.5556
33327SOL    HW1 2234   9.535   7.093   5.051  0.5996 -0.4486 -0.5900
33327SOL    HW2 2235   9.444   7.084   5.171 -0.8668  0.7558 -1.5720
33328SOL     OW 2236   4.532   4.788   9.709 -0.6090  0.5346 -0.0030
33328SOL    HW1 2237   4.619   4.827   9.705 -0.6809  1.0492  1.9970
33328SOL    HW2 2238   4.539   4.719   9.775 -1.6792  0.5318  0.1332
33329SOL     OW 2239   6.123   7.870   4.163  0.0241 -1.0741  0.4954
33329SOL    HW1 2240   6.094   7.922   4.238 -0.4086  2.2582 -1.7693
33329SOL    HW2 2241   6.204   7.911   4.135 -1.3960 -0.0926 -2.6440
33330SOL     OW 2242   7.606   4.139   5.076 -0.9438  0.3591 -0.2956
33330SOL    HW1 2243   7.601   4.162   4.984 -0.4816  0.3745 -0.3190
33330SOL    HW2 2244   7.634   4.048   5.077 -0.4106  0.5220 -0.1643
33331SOL     OW 2245   5.724   7.879   6.353 -0.3976  0.0845 -0.7518
33331SOL    HW1 2246   5.706   7.832   6.272 -0.6083 -0.3008 -0.4870
33331SOL    HW2 2247   5.765   7.814   6.410 -0.4600  0.2880 -0.4693
33332SOL     OW 2248   9.853   9.691   8.100  0.1768 -0.6573  0.0293
33332SOL    HW1 2249   9.940   9.729   8.089  0.0372 -0.6047 -1.0391
33332SOL    HW2 2250   9.868   9.596   8.107  0.2807 -0.7317 -1.0044
33333SOL     OW 2251   2.067   6.972  10.226 -0.2006  0.7221  0.7638
33333SOL    HW1 2252   2.116   6.934  10.153 -1.4945  2.8062 -1.3505
33333SOL    HW2 2253   1.976   6.970  10.197 -0.9035  0.6173  2.8345
33334SOL     OW 2254   3.075   1.751   6.192  0.1133 -0.0771  0.3243
33334SOL    HW1 2255   3.050   1.719   6.106 -2.6244  0.1477  0.9602
33334SOL    HW2 2256   3.092   1.672   6.244 -0.5492 -0.3047  0.2022
33335SOL     OW 2257   0.569   3.927   5.248 -0.4941  0.0218  0.2422
33335SOL    HW1 2258   0.661   3.931   5.222 -0.6588  0.5778 -0.2794
33335SOL    HW2 2259   0.572   3.914   5.343  0.1268  0.7346  0.3342
33336SOL     OW 2260   0.799   3.073   3.452  0.0300  0.8305  0.3998
33336SOL    HW1 2261   0.821   3.070   3.545  1.3145 -0.6934  0.0981
33336SOL    HW2 2262   0.870   3.024   3.410 -2.4414 -1.8751 -0.9691
33337SOL     OW 2263   3.283   9.804   8.495 -0.5133  0.8403 -0.1129
33337SOL    HW1 2264   3.274   9.725   8.548  3.0040  0.9893  0.9877
33337SOL    HW2 2265   3.309   9.872   8.557  0.3010  1.8902 -1.5301
33338SOL     OW 2266   0.874   0.816   3.749 -0.7645  1.0288  0.2900
33338SOL    HW1 2267   0.891   0.734   3.795  0.8981  1.0166 -0.2902
33338SOL    HW2 2268   0.778   0.820   3.743 -0.8869 -1.0834 -0.0485
33339SOL     OW 2269   3.588   7.959   1.698 -0.1398  0.0879  1.0972
33339SOL    HW1 2270   3.612   8.046   1.667 -0.1173  0.5549  2.3440
33339SOL    HW2 2271   3.634   7.898   1.640 -0.8727  0.8742 -0.3568
33340SOL     OW 2272   2.819   6.971   9.517  0.2654  0.3613  0.0949
33340SOL    HW1 2273   2.868   6.895   9.549 -1.1859 -0.5433  0.2616
33340SOL    HW2 2274   2.880   7.044   9.526  1.5510 -0.6923  0.3539
33341SOL     OW 2275   9.815   2.528   1.385 -0.0820  0.4802  0.1319
33341SOL    HW1 2276   9.888   2.508   1.326 -0.2805 -1.0359  0.3811
33341SOL    HW2 2277   9.739   2.487   1.344 -0.5088  0.7048  0.6823
33342SOL     OW 2278   3.535   7.771  10.636  0.1074  0.1443  0.2161
33342SOL    HW1 2279   3.600   7.701  10.631 -0.1428 -0.1429  0.8745
33342SOL    HW2 2280   3.545   7.819  10.554 -0.0501 -0.9465 -0.4531
33343SOL     OW 2281   4.075   0.759   7.574  0.2181 -0.0429 -0.0986
33343SOL    HW1 2282   4.106   0.695   7.509  1.6017  0.5111 -0.0026
33343SOL    HW2 2283   4.079   0.712   7.657 -1.9313 -0.8880 -0.3899
33344SOL     OW 2284  10.461   3.384   7.525  0.8974 -0.2352  0.7495
33344SOL    HW1 2285  10.396   3.314   7.525 -1.2867  1.5601  2.9650
33344SOL    HW2 2286  10.445   3.432   7.443 -1.4756  0.7751  1.6829
33345SOL     OW 2287   1.448   1.099   6.110 -0.1950 -0.3967 -0.1714
33345SOL    HW1 2288   1.530   1.069   6.070 -0.1586 -1.8966  0.9356
33345SOL    HW2 2289   1.383   1.036   6.082 -0.6580 -0.0762  0.1666
33346SOL     OW 2290   3.628   7.645   5.505 -0.0855  0.5512  0.1493
33346SOL    HW1 2291   3.621   7.616   5.414  0.9066 -0.6585  0.4233
33346SOL    HW2 2292   3.694   7.715   5.503  2.6713 -1.8182  0.3241
33347SOL     OW 2293   2.930   0.824   3.181  0.2784 -0.2097  0.1634
33347SOL    HW1 2294   2.938   0.766   3.105 -1.6515  0.8569 -0.9408
33347SOL    HW2 2295   2.855   0.790   3.229 -0.4270  0.9069 -0.1143
33348SOL     OW 2296   4.853   7.808   0.635  0.1743 -0.1506 -0.7292
33348SOL    HW1 2297   4.903   7.847   0.564  0.8709 -0.7035 -0.5475
33348SOL    HW2 2298   4.828   7.882   0.690  1.2488  0.0786 -0.5330
33349SOL     OW 2299   2.844   9.347   0.189  0.5239  0.7353  0.1757
33349SOL    HW1 2300   2.899   9.270   0.179  2.4734  2.1152 -0.2963
33349SOL    HW2 2301   2.899   9.411   0.233 -0.1316  2.6967 -1.6437
33350SOL     OW 2302   9.095   8.368   0.498  0.2050  0.3314  0.0976
33350SOL    HW1 2303   9.047   8.373   0.416 -0.7918  0.6990  0.6871
33350SOL    HW2 2304   9.140   8.283   0.494 -2.5096 -1.2689  0.5593
33351SOL     OW 2305  10.080   8.536   8.595  0.3595  0.0554  0.7589
33351SOL    HW1 2306  10.086   8.630   8.607  0.9549  0.1262 -0.0875
33351SOL    HW2 2307   9.992   8.514   8.628 -0.2241  1.0646 -0.0427
33352SOL     OW 2308   3.655   5.846   3.602  0.4500 -0.1029 -0.3224
33352SOL    HW1 2309   3.739   5.809   3.629 -0.0549 -0.2082  1.1708
33352SOL    HW2 2310   3.590   5.800   3.655 -0.4910  0.5438 -0.8865
33353SOL     OW 2311   7.525   1.448   4.915 -0.2979 -0.4160  0.4112
33353SOL    HW1 2312   7.576   1.529   4.920  0.8866 -1.1756  1.0452
33353SOL    HW2 2313   7.490   1.448   4.826  2.2094 -0.6553 -0.6690
33354SOL     OW 2314   8.432   2.669   9.451 -0.3868  0.7842  0.4103
33354SOL    HW1 2315   8.504   2.728   9.472  0.3656  0.1116 -0.1730
33354SOL    HW2 2316   8.397   2.642   9.536  0.9973  0.0093  0.7821
33355SOL     OW 2317   9.704   4.953   4.372 -0.0702  0.4924 -0.3147
33355SOL    HW1 2318   9.789   4.972   4.331 -0.1677  2.0277  0.1510
33355SOL    HW2 2319   9.647   5.023   4.342 -0.4856  0.9323  1.4176
33356SOL     OW 2320   8.524   9.237   4.685 -0.2729  0.2963 -0.3517
33356SOL    HW1 2321   8.570   9.307   4.638 -0.8517  0.6131 -0.4533
33356SOL    HW2 2322   8.543   9.158   4.634 -1.1818  0.6886 -1.3457
33357SOL     OW 2323   9.654   0.363   4.327  0.3581  0.1806 -0.1696
33357SOL    HW1 2324   9.743   0.398   4.330  0.6084 -0.4358 -0.2939
33357SOL    HW2 2325   9.662   0.282   4.277 -0.0566 -0.4961  0.8213
33358SOL     OW 2326   4.962   9.540   0.125  0.2914  0.1853  0.1413
33358SOL    HW1 2327   5.027   9.533   0.195  0.1308 -1.6477  0.1578
33358SOL    HW2 2328   4.886   9.492   0.159 -0.3646  0.6345 -0.6633
33359SOL     OW 2329   6.630   4.861   8.844  0.4692 -0.9867 -0.3628
33359SOL    HW1 2330   6.682   4.807   8.904  2.2004  0.5551 -0.3889
33359SOL    HW2 2331   6.640   4.818   8.759  1.6874 -0.7638 -0.3511
33360SOL     OW 2332   8.177   5.527   1.280 -0.0773  0.4494 -0.5049
33360SOL    HW1 2333   8.259   5.540   1.330  0.1871  2.2014 -1.3023
33360SOL    HW2 2334   8.206   5.493   1.196 -0.4281 -1.4344  0.1073
33361SOL     OW 2335   1.548   4.737   6.817  0.4215  0.3328 -0.3047
33361SOL    HW1 2336   1.624   4.780   6.856  0.3341  0.3654 -0.1691
33361SOL    HW2 2337   1.473   4.784   6.854  0.3288  0.1332 -0.2378
33362SOL     OW 2338   4.603   5.730   2.844  0.1696  0.6292 -0.5014
33362SOL    HW1 2339   4.576   5.682   2.922 -1.4608  1.0784 -0.7469
33362SOL    HW2 2340   4.654   5.804   2.878  0.8497 -0.0718  0.0168
33363SOL     OW 2341   4.913   7.782   5.871 -0.0207  0.1975 -0.0454
33363SOL    HW1 2342   4.954   7.832   5.942 -0.1833 -0.5042  0.5649
33363SOL    HW2 2343   4.983   7.768   5.808  0.6614 -0.8321  0.9007
33364SOL     OW 2344   6.449   5.731   5.744 -0.0726 -0.2013  0.2461
33364SOL    HW1 2345   6.438   5.691   5.658 -0.1444  0.2447  0.0409
33364SOL    HW2 2346   6.431   5.824   5.729  3.2785  0.5521 -0.0304
33365SOL     OW 2347   5.477  10.488   0.334 -0.3038  0.3001  0.5905
33365SOL    HW1 2348   5.453  10.577   0.358 -0.0174  0.4143  0.4649
33365SOL    HW2 2349   5.437  10.475   0.248 -0.0093  0.4530  0.4277
33366SOL     OW 2350   0.073  10.093   5.175 -0.2136 -0.6486 -0.3535
33366SOL    HW1 2351   0.044  10.166   5.120  0.4485  0.0454  0.1929
33366SOL    HW2 2352   0.155  10.065   5.135 -0.9905 -1.8326 -1.2003
33367SOL     OW 2353   0.446   5.690   2.824 -0.0194 -0.2119 -0.3413
33367SOL    HW1 2354   0.427   5.596   2.830 -0.2982 -0.2223 -1.2311
33367SOL    HW2 2355   0.387   5.722   2.756  1.6210  0.1924 -1.6408
33368SOL     OW 2356   5.561   6.549   7.326 -0.4773  0.4549  0.0890
33368SOL    HW1 2357   5.603   6.540   7.411 -2.2019 -1.3627  0.8296
33368SOL    HW2 2358   5.589   6.472   7.277 -0.6296  0.7471 -0.4697
33369SOL     OW 2359   2.633   9.979   7.432  0.3790 -0.3073 -0.4625
33369SOL    HW1 2360   2.683  10.055   7.402  1.3344 -1.2041 -1.2106
33369SOL    HW2 2361   2.630   9.988   7.527 -0.6260  1.3173 -0.6098
33370SOL     OW 2362  10.395   5.512  10.058 -0.7559  0.0468 -0.3109
33370SOL    HW1 2363  10.452   5.588  10.070 -0.7096  0.1759 -1.2338
33370SOL    HW2 2364  10.310   5.550  10.034 -0.7390 -0.1809 -0.7544
33371SOL     OW 2365  10.224   5.968   8.177 -0.3017 -0.5284 -0.2375
33371SOL    HW1 2366  10.227   5.912   8.099  0.9821 -0.2575 -0.3955
33371SOL    HW2 2367  10.284   6.040   8.157  0.8777 -0.9928  1.4225
33372SOL     OW 2368   5.386   4.038   6.063  0.3258 -0.2642  0.0866
33372SOL    HW1 2369   5.479   4.052   6.082  0.5344 -1.5257  0.0641
33372SOL    HW2 2370   5.358   4.119   6.021  1.2983  0.3106  0.5127
33373SOL     OW 2371   2.357   4.911   5.792 -0.0463  0.4202  0.1765
33373SOL    HW1 2372   2.429   4.974   5.794 -0.9615  1.4946  0.6636
33373SOL    HW2 2373   2.358   4.876   5.703  1.0237  0.4610  0.1591
33374SOL     OW 2374   9.338   2.802   8.482  0.7832  0.4234  0.3028
33374SOL    HW1 2375   9.278   2.742   8.527  1.3307  0.7957  1.5849
33374SOL    HW2 2376   9.291   2.885   8.479  0.8233  0.4488  0.3649
33375SOL     OW 2377   0.325   1.043   8.114 -0.2936 -0.2704 -0.5511
33375SOL    HW1 2378   0.314   1.058   8.020  0.3283 -0.3297 -0.6350
33375SOL    HW2 2379   0.259   0.977   8.135 -0.3588 -0.3451 -0.9673
33376SOL     OW 2380   9.801   4.249  10.357  0.0026 -0.0673 -0.4653
33376SOL    HW1 2381   9.800   4.158  10.386 -1.6339 -0.3750 -1.3509
33376SOL    HW2 2382   9.832   4.245  10.267 -0.7219  0.1459 -0.7369
33377SOL     OW 2383   7.393   4.639   4.034  0.3573  0.5886 -0.0051
33377SOL    HW1 2384   7.362   4.690   3.960 -1.1669  0.8481  0.7811
33377SOL    HW2 2385   7.399   4.702   4.106  0.1437  0.0016  0.5350
33378SOL     OW 2386   6.323   7.676   3.503  0.2057  0.3283  0.3836
33378SOL    HW1 2387   6.344   7.667   3.410  0.8535  1.0382  0.4497
33378SOL    HW2 2388   6.321   7.587   3.537 -1.2373 -0.0388 -0.5575
33379SOL     OW 2389   8.896   9.539   0.017 -0.1450  0.3092  0.8755
33379SOL    HW1 2390   8.864   9.602   0.082  0.7181  1.5329  0.1751
33379SOL    HW2 2391   8.852   9.565  -0.064  0.1656 -0.0288  0.5966
33380SOL     OW 2392   9.550   7.149   5.767 -0.3071  0.0166  0.0133
33380SOL    HW1 2393   9.542   7.241   5.792  0.7469  0.1018  0.0914
33380SOL    HW2 2394   9.546   7.150   5.672  0.0158  0.1926 -0.0025
33381SOL     OW 2395   8.840   5.797   1.901 -0.6467 -0.0744 -0.2236
33381SOL    HW1 2396   8.799   5.734   1.960  0.8187 -1.4433 -0.5991
33381SOL    HW2 2397   8.810   5.882   1.932 -1.2419 -0.8443  1.4447
33382SOL     OW 2398   6.217   6.501   5.440 -0.4190 -0.6950  0.5826
33382SOL    HW1 2399   6.274   6.572   5.469 -1.5042 -0.3860  2.0816
33382SOL    HW2 2400   6.276   6.436   5.402  0.7501  0.2867  0.6709
33383SOL     OW 2401   6.501   3.360   6.787  0.4356 -0.5227 -0.6056
33383SOL    HW1 2402   6.581   3.323   6.824 -0.0295 -1.4598 -0.5069
33383SOL    HW2 2403   6.529   3.442   6.747  1.4445 -0.8321 -0.5657
33384SOL     OW 2404   2.534   3.941   7.216  0.0625  0.5582  0.4445
33384SOL    HW1 2405   2.596   3.877   7.181  0.0141  1.4372 -1.3919
33384SOL    HW2 2406   2.451   3.893   7.222  0.4799 -0.1046  1.1230
33385SOL     OW 2407   5.533  10.150   9.023  0.7021  0.2326  0.0335
33385SOL    HW1 2408   5.563  10.062   9.001  0.6993  0.1098  0.5214
33385SOL    HW2 2409   5.610  10.205   9.014  0.4708  0.3749 -1.3423
33386SOL     OW 2410   0.249   6.805   8.921  0.3587 -0.3108 -0.1939
33386SOL    HW1 2411   0.191   6.760   8.859 -1.4993 -2.0018  2.5369
33386SOL    HW2 2412   0.302   6.736   8.959 -0.2449  0.2315  1.7606
33387SOL     OW 2413   8.753   5.806   5.832 -0.2878 -0.0818  0.0939
33387SOL    HW1 2414   8.755   5.712   5.850 -0.1750 -0.0240  0.3761
33387SOL    HW2 2415   8.825   5.820   5.770 -0.2003 -0.1532  0.1797
33388SOL     OW 2416   5.610   0.634   4.242  0.1835 -0.3937 -0.8113
33388SOL    HW1 2417   5.553   0.681   4.181 -1.2945 -1.0119  0.0490
33388SOL    HW2 2418   5.566   0.551   4.256 -0.9445  0.6655  3.0592
33389SOL     OW 2419   4.084   9.828   1.282 -0.7320 -0.2597 -0.5375
33389SOL    HW1 2420   4.039   9.799   1.361  1.4275 -0.1968  0.7865
33389SOL    HW2 2421   4.125   9.749   1.247  2.1126  0.3767  1.0424
33390SOL     OW 2422   9.244   2.113   8.703 -0.5286  0.0440 -0.4786
33390SOL    HW1 2423   9.152   2.108   8.728 -0.5259 -0.1261 -0.5017
33390SOL    HW2 2424   9.284   2.037   8.745 -0.5484 -0.3093 -1.0875
33391SOL     OW 2425   8.416   8.567   1.992  0.2422 -0.3378  0.0496
33391SOL    HW1 2426   8.493   8.583   1.937  0.0741  0.2740 -0.0198
33391SOL    HW2 2427   8.366   8.648   1.987  0.6450  0.0725  1.7738
33392SOL     OW 2428   4.588   0.478   6.124 -0.5797 -0.0961  0.0908
33392SOL    HW1 2429   4.512   0.439   6.081 -2.5160  0.0257  3.1622
33392SOL    HW2 2430   4.652   0.407   6.128  0.1212  0.0983 -3.5696
33393SOL     OW 2431   6.577   9.764   1.682  0.1771  0.5146 -0.2957
33393SOL    HW1 2432   6.523   9.684   1.690  1.3741 -0.1609  2.1967
33393SOL    HW2 2433   6.628   9.750   1.603 -2.1612  0.5052 -1.9194
33394SOL     OW 2434   8.667   6.952   5.640  0.3821 -0.1942 -0.2953
33394SOL    HW1 2435   8.595   6.889   5.631  0.9471 -0.8632 -0.2094
33394SOL    HW2 2436   8.624   7.033   5.667 -0.2863 -0.7189  0.2557
33395SOL     OW 2437   8.616   7.450   7.644 -0.3424  0.5472  0.5887
33395SOL    HW1 2438   8.572   7.365   7.638  0.6020  0.1228 -0.6622
33395SOL    HW2 2439   8.615   7.470   7.738  0.6980 -1.5533  1.1236
33396SOL     OW 2440   3.289   5.577   7.503  0.0186  0.0220  0.4017
33396SOL    HW1 2441   3.372   5.617   7.477 -0.4790  0.5625 -0.4216
33396SOL    HW2 2442   3.271   5.614   7.590  0.2811  0.4610  0.2723
33397SOL     OW 2443   6.866   3.555   9.532 -0.1632  0.6897  0.4906
33397SOL    HW1 2444   6.829   3.555   9.444  2.9706  2.5979 -0.9895
33397SOL    HW2 2445   6.886   3.463   9.550  1.3290  0.4620 -1.8766
33398SOL     OW 2446   8.989   5.235   3.043  0.1131  0.6537  0.3427
33398SOL    HW1 2447   8.916   5.203   3.096  0.2523  2.0864  1.4517
33398SOL    HW2 2448   9.028   5.155   3.006 -0.7152 -0.2958  1.4215
33399SOL     OW 2449   6.758   8.564  10.517 -0.5275  0.2502 -0.1062
33399SOL    HW1 2450   6.834   8.517  10.549  0.9872  0.8147 -2.6404
33399SOL    HW2 2451   6.685   8.529  10.568  0.8740 -2.8886 -0.0559
33400SOL     OW 2452   7.580   2.893   0.733 -0.0568  0.3398 -0.1280
33400SOL    HW1 2453   7.664   2.847   0.742 -1.1114 -1.8788 -0.9362
33400SOL    HW2 2454   7.569   2.903   0.638 -1.1985 -0.3704 -0.0763
33401SOL     OW 2455   0.067   0.112   3.124 -0.1654 -0.2145  0.8319
33401SOL    HW1 2456   0.109   0.029   3.104  0.3711 -0.0370  1.2062
33401SOL    HW2 2457   0.130   0.158   3.179 -0.4189  0.4732  0.5600
33402SOL     OW 2458   8.487   4.118   0.884 -0.3069  0.0643  0.4355
33402SOL    HW1 2459   8.467   4.148   0.795  0.0279  0.7571  0.5810
33402SOL    HW2 2460   8.582   4.127   0.891 -0.3019 -0.2565  0.7679
33403SOL     OW 2461   8.328  10.019  10.030  0.3510  0.1568 -1.0511
33403SOL    HW1 2462   8.417  10.005   9.999  0.4050 -1.2580 -0.3275
33403SOL    HW2 2463   8.290  10.081   9.967  1.6131  0.2516 -1.7547
33404SOL     OW 2464   7.823   9.072   0.435  0.3949 -0.3534 -0.3291
33404SOL    HW1 2465   7.913   9.065   0.467  0.0547  0.7976  0.9591
33404SOL    HW2 2466   7.816   9.161   0.401  0.1434 -0.9029 -1.7653
33405SOL     OW 2467   9.210   2.334   3.434  0.1622  0.2650 -0.5586
33405SOL    HW1 2468   9.273   2.404   3.418  0.0734  0.3008 -0.7464
33405SOL    HW2 2469   9.262   2.254   3.429  0.1561  0.2828 -0.9066
33406SOL     OW 2470   3.247   8.486   1.949 -0.0334  0.1821  0.6175
33406SOL    HW1 2471   3.206   8.451   1.869 -0.3446  2.2659 -0.1884
33406SOL    HW2 2472   3.334   8.446   1.950 -0.0476  0.0649 -0.7326
33407SOL     OW 2473  10.265   0.471   5.553 -0.1383 -0.0349 -0.0412
33407SOL    HW1 2474  10.185   0.521   5.559 -0.7845 -1.0427  0.0325
33407SOL    HW2 2475  10.278   0.454   5.460  0.8459  1.4337 -0.2005
33408SOL     OW 2476   4.327   1.114   9.334 -0.1885 -0.1531 -0.3183
33408SOL    HW1 2477   4.318   1.170   9.258  0.2087 -0.4939 -0.6224
33408SOL    HW2 2478   4.390   1.159   9.390 -0.9990  0.4422  0.1419
33409SOL     OW 2479   2.923   4.285   5.508  0.2042  0.2927 -0.0398
33409SOL    HW1 2480   2.985   4.329   5.450 -1.1719 -0.3429 -2.1262
33409SOL    HW2 2481   2.931   4.331   5.591  2.0842  1.4475 -0.7927
33410SOL     OW 2482   7.907   1.666   4.059 -0.1043  0.0278  0.1171
33410SOL    HW1 2483   7.973   1.729   4.031 -0.2165  0.0849 -0.0220
33410SOL    HW2 2484   7.861   1.709   4.131  1.3544 -0.8147  1.6174
33411SOL     OW 2485  10.635   7.903   1.209  0.4946  0.1878  0.5638
33411SOL    HW1 2486  10.626   7.977   1.148 -3.0712 -1.5336 -1.2896
33411SOL    HW2 2487  10.657   7.829   1.153 -0.0214 -0.8916  1.7569
33412SOL     OW 2488   8.107   7.852   9.906  0.1064 -0.2150 -0.1016
33412SOL    HW1 2489   8.029   7.813   9.866 -0.7991 -0.8392  2.0937
33412SOL    HW2 2490   8.176   7.789   9.891 -1.4189 -3.2062  3.7464
33413SOL     OW 2491   3.689   8.030   9.040  0.3929 -0.5992  0.0731
33413SOL    HW1 2492   3.707   8.097   9.106 -1.2387 -0.8358  0.8079
33413SOL    HW2 2493   3.704   8.074   8.957 -0.3815  0.6255  0.5460
33414SOL     OW 2494   0.903   7.133   5.922  0.2458  0.5721  0.3049
33414SOL    HW1 2495   0.957   7.203   5.886  2.1513  0.6403  2.9589
33414SOL    HW2 2496   0.919   7.057   5.865  1.9675  1.0294  0.1458
33415SOL     OW 2497   7.452   0.289   8.759 -0.1088  0.1102 -0.2587
33415SOL    HW1 2498   7.358   0.291   8.741 -0.5761 -1.3508  1.6345
33415SOL    HW2 2499   7.459   0.250   8.846  2.2739  0.0045 -0.4192
33416SOL     OW 2500   9.156   5.880   3.590 -0.3340 -0.0654 -0.1444
33416SOL    HW1 2501   9.140   5.912   3.501  0.1957 -0.8577 -0.5393
33416SOL    HW2 2502   9.213   5.804   3.578  0.1280  0.0902  0.9038
33417SOL     OW 2503   1.032   1.360   9.151  0.2641 -0.7949 -0.2200
33417SOL    HW1 2504   1.078   1.350   9.235  0.5651  0.5631 -0.1995
33417SOL    HW2 2505   1.016   1.454   9.144 -1.5966 -1.1236 -0.7317
33418SOL     OW 2506   7.516   9.216   8.703 -0.1539  0.6005  0.3675
33418SOL    HW1 2507   7.443   9.242   8.760 -0.0898 -1.5866  1.5973
33418SOL    HW2 2508   7.478   9.151   8.644  0.8416 -1.0596  1.4518
33419SOL     OW 2509   8.443   7.725   0.506  0.3451 -0.8639 -0.1757
33419SOL    HW1 2510   8.453   7.632   0.525  2.8474 -0.7543 -0.6399
33419SOL    HW2 2511   8.483   7.737   0.420  0.6973  0.7402  0.1691
33420SOL     OW 2512   2.736   2.139   8.708  0.4373  0.3279  0.0177
33420SOL    HW1 2513   2.757   2.050   8.681 -1.0224 -0.0826  0.1545
33420SOL    HW2 2514   2.780   2.195   8.644 -0.4753 -0.5531 -1.4261
33421SOL     OW 2515   7.075   1.536   4.750  0.2946  0.1306  0.7153
33421SOL    HW1 2516   6.987   1.573   4.748  0.6899  1.0704  0.1964
33421SOL    HW2 2517   7.116   1.576   4.827  1.4370  2.5437 -1.0277
33422SOL     OW 2518   3.445   8.204   9.902  0.3263 -0.2221  0.0308
33422SOL    HW1 2519   3.359   8.243   9.886  0.9853  0.7926 -1.2099
33422SOL    HW2 2520   3.457   8.213   9.997 -1.1510 -0.8843  0.3127
33423SOL     OW 2521   2.523   8.636   0.237  0.2343 -0.1505 -0.1977
33423SOL    HW1 2522   2.527   8.615   0.143  1.7939  2.0144 -0.6887
33423SOL    HW2 2523   2.573   8.566   0.279  0.5241 -0.5206 -1.1239
33424SOL     OW 2524   2.492   3.382   1.809  0.4218 -0.0980 -0.7800
33424SOL    HW1 2525   2.455   3.335   1.734  0.4990  0.7134 -1.3512
33424SOL    HW2 2526   2.562   3.436   1.770 -0.2977  1.2130 -0.3261
33425SOL     OW 2527   5.354   3.223   6.684 -0.3549  0.4190  0.7486
33425SOL    HW1 2528   5.381   3.315   6.693  1.0216  0.0131  0.9996
33425SOL    HW2 2529   5.290   3.211   6.754 -0.5963  1.1960  0.6774
33426SOL     OW 2530   4.918   4.980   1.086  0.7167  0.0689 -0.2886
33426SOL    HW1 2531   4.997   4.926   1.097  1.3239  1.1565  0.9506
33426SOL    HW2 2532   4.854   4.920   1.047  1.5823 -1.3545  0.3656
33427SOL     OW 2533   2.491   3.638   4.715 -0.4185 -0.0879  0.5039
33427SOL    HW1 2534   2.563   3.633   4.652 -2.7116  0.4345 -2.3715
33427SOL    HW2 2535   2.491   3.729   4.744 -0.1872  0.0061  0.2141
33428SOL     OW 2536   0.806   6.057   5.090  0.6716  0.1851 -0.0761
33428SOL    HW1 2537   0.896   6.071   5.119  0.2196 -0.8371  1.9946
33428SOL    HW2 2538   0.758   6.036   5.170 -1.3115  0.1719 -1.2045
33429SOL     OW 2539   2.734   7.767   7.383  0.1961  0.0052  0.4688
33429SOL    HW1 2540   2.780   7.744   7.464 -0.9028 -0.4508  0.9800
33429SOL    HW2 2541   2.804   7.779   7.318  1.1413  1.0324  1.6275
33430SOL     OW 2542   1.012   2.058   3.979  0.2179  0.3355 -0.5398
33430SOL    HW1 2543   1.000   1.964   3.965 -0.6112  0.5586 -1.3808
33430SOL    HW2 2544   0.960   2.099   3.911 -0.6909  1.4233  0.7513
33431SOL     OW 2545  10.087   6.122   1.208 -0.6451 -0.4187  0.2138
33431SOL    HW1 2546  10.066   6.032   1.182 -0.5732 -0.0883 -1.0377
33431SOL    HW2 2547  10.163   6.112   1.266 -0.7889 -1.1806  0.2873
33432SOL     OW 2548   3.114   9.364   6.287  0.0011 -1.1759  0.0152
33432SOL    HW1 2549   3.102   9.394   6.197 -0.1796 -0.3007  0.3259
33432SOL    HW2 2550   3.116   9.268   6.280  0.1263 -1.1126 -0.9310
33433SOL     OW 2551   9.178   3.519   2.052 -0.3121  0.2408 -0.0827
33433SOL    HW1 2552   9.252   3.580   2.059  0.2134 -0.3375 -0.4975
33433SOL    HW2 2553   9.108   3.561   2.102 -0.6666  2.2517 -2.0947
33434SOL     OW 2554   5.429   1.098   1.913 -0.1221  0.1437 -0.0537
33434SOL    HW1 2555   5.514   1.115   1.872  0.5869 -1.8177  0.4917
33434SOL    HW2 2556   5.450   1.073   2.003 -1.2160 -0.8962 -0.0594
33435SOL     OW 2557   8.381   8.159   5.506  0.3497 -1.1389  0.5749
33435SOL    HW1 2558   8.361   8.220   5.435  1.5248 -2.0838 -0.6316
33435SOL    HW2 2559   8.451   8.202   5.556  0.6315 -1.1405  0.1910
33436SOL     OW 2560   6.723   4.040   3.805  0.5210 -0.4253 -0.3387
33436SOL    HW1 2561   6.667   4.109   3.769  1.2746  0.4318  0.1156
33436SOL    HW2 2562   6.668   3.995   3.869  0.3677  0.4652  0.1692
33437SOL     OW 2563   8.494   9.664  10.540  0.8622 -0.0653 -0.1491
33437SOL    HW1 2564   8.573   9.637  10.493  0.1184 -0.3235 -1.3107
33437SOL    HW2 2565   8.433   9.591  10.529  0.4229  0.1718  0.6293
33438SOL     OW 2566   5.696   1.279   3.092  0.2673 -0.0460 -0.2341
33438SOL    HW1 2567   5.623   1.217   3.097  0.1320  0.1307  0.0019
33438SOL    HW2 2568   5.655   1.365   3.094  0.3533  0.0710 -2.0489
33439SOL     OW 2569   2.187   3.759   7.524 -0.5847 -0.3844 -0.3115
33439SOL    HW1 2570   2.263   3.706   7.547  0.5756  1.1577 -0.3911
33439SOL    HW2 2571   2.163   3.803   7.605 -0.9370 -0.3089 -0.4539
33440SOL     OW 2572   0.930   7.483   2.111  0.2562 -0.1112 -0.1826
33440SOL    HW1 2573   0.991   7.553   2.135  0.2098 -0.2717  0.4296
33440SOL    HW2 2574   0.965   7.448   2.029  0.8931 -0.0775  0.0678
33441SOL     OW 2575   8.478   1.251   7.587 -0.2444  0.8827  0.2467
33441SOL    HW1 2576   8.454   1.293   7.505  0.1920  0.4516 -0.1034
33441SOL    HW2 2577   8.428   1.170   7.588 -0.8081  1.2201  0.7548
33442SOL     OW 2578   9.269   7.424  10.096  0.6042  0.3859 -0.0923
33442SOL    HW1 2579   9.285   7.331  10.076  1.6254  0.1196  1.7267
33442SOL    HW2 2580   9.356   7.464  10.092  0.6129  0.6480  1.8902
33443SOL     OW 2581   1.162   2.658  10.279  0.1109 -0.6287  0.4287
33443SOL    HW1 2582   1.209   2.705  10.348  0.3294  0.0249 -0.1536
33443SOL    HW2 2583   1.163   2.567  10.308  1.0540 -0.5102  0.8122
33444SOL     OW 2584   9.412   4.198   8.094  0.8077 -0.0635 -0.1196
33444SOL    HW1 2585   9.477   4.135   8.065  0.1185  0.4394 -3.0847
33444SOL    HW2 2586   9.456   4.283   8.086  1.0698  0.0473  1.9139
33445SOL     OW 2587   7.030   2.374   3.219  0.2379 -0.3691  0.3160
33445SOL    HW1 2588   6.975   2.424   3.159  1.3092  0.0940 -0.3162
33445SOL    HW2 2589   7.038   2.431   3.296 -0.8209 -0.7949  0.7507
33446SOL     OW 2590   0.655  10.644   4.415 -0.7002 -0.3867 -0.2871
33446SOL    HW1 2591   0.653  10.722   4.360  0.5453 -1.2781 -1.6935
33446SOL    HW2 2592   0.745  10.642   4.450 -0.3718 -1.7123 -1.1270
33447SOL     OW 2593   1.120   6.392   4.206  0.5489  0.1430  0.0062
33447SOL    HW1 2594   1.171   6.456   4.255 -1.1348  2.4351 -1.0072
33447SOL    HW2 2595   1.055   6.360   4.269 -0.6713  1.9767 -0.2296
33448SOL     OW 2596   4.679  10.450   7.675  1.1849 -0.3453  0.1012
33448SOL    HW1 2597   4.707  10.358   7.679  2.1109 -0.1131 -0.5334
33448SOL    HW2 2598   4.678  10.470   7.581  3.0496  0.8700  0.2967
33449SOL     OW 2599   1.339   7.773   4.950 -0.4360  0.0990  0.3962
33449SOL    HW1 2600   1.406   7.794   5.015 -0.3190  1.1713 -0.0549
33449SOL    HW2 2601   1.351   7.679   4.933  0.2358  0.0459  1.1143
33450SOL     OW 2602   3.499   1.295   5.686  0.1091 -0.4363 -0.2432
33450SOL    HW1 2603   3.520   1.260   5.599 -1.3249 -1.3222 -0.2605
33450SOL    HW2 2604   3.489   1.217   5.741  0.1875  0.0896  0.5298
33451SOL     OW 2605   9.047   7.149   6.873  0.0505 -0.1737  0.4664
33451SOL    HW1 2606   8.989   7.226   6.881 -1.3696 -1.3166  1.8434
33451SOL    HW2 2607   8.990   7.080   6.838  0.2159 -1.6176  2.8220
33452SOL     OW 2608   1.921   2.722   6.526  0.2370  0.4561  1.3720
33452SOL    HW1 2609   1.853   2.784   6.502  0.2903 -0.2063 -0.6360
33452SOL    HW2 2610   1.875   2.640   6.544  0.4452  0.1116  0.3954
33453SOL     OW 2611   2.632   6.673   3.198  0.3353  0.4161  0.0575
33453SOL    HW1 2612   2.650   6.628   3.116 -0.4566  1.0504 -0.4806
33453SOL    HW2 2613   2.600   6.759   3.172 -0.8341  0.2916  0.9895
33454SOL     OW 2614   4.735   7.358   6.893  0.1354  0.0188 -0.1181
33454SOL    HW1 2615   4.779   7.435   6.930  1.6731 -1.0971  0.4822
33454SOL    HW2 2616   4.780   7.344   6.809  0.5433 -0.7916  0.2317
33455SOL     OW 2617   1.145  10.282   9.965  0.1050 -0.1655  0.1356
33455SOL    HW1 2618   1.208  10.321   9.903 -1.8242  0.7768 -1.3463
33455SOL    HW2 2619   1.060  10.297   9.924 -1.0759 -1.7450  1.8881
33456SOL     OW 2620   7.251  10.292   0.295 -0.6714  0.4350  0.3928
33456SOL    HW1 2621   7.313  10.260   0.361  1.6464 -0.4665 -1.9967
33456SOL    HW2 2622   7.208  10.213   0.263  0.6860  0.3551 -1.3902
33457SOL     OW 2623   3.828   7.113   8.180 -0.0003  0.3699  0.4727
33457SOL    HW1 2624   3.882   7.188   8.156 -1.7969  2.1273  1.6372
33457SOL    HW2 2625   3.758   7.150   8.235 -1.9805 -1.8769 -0.3765
33458SOL     OW 2626   6.889   5.132   3.145  0.2007 -0.2212  0.7278
33458SOL    HW1 2627   6.944   5.188   3.090  1.8510 -1.2304  1.2501
33458SOL    HW2 2628   6.944   5.113   3.221 -1.2615 -0.5173  1.7414
33459SOL     OW 2629   5.181   8.452   7.439 -0.4132  0.7038 -0.0751
33459SOL    HW1 2630   5.266   8.473   7.478 -0.3725  2.2786 -0.9497
33459SOL    HW2 2631   5.143   8.537   7.416 -0.8429 -0.0973 -2.5677
33460SOL     OW 2632   2.957   0.669   2.916 -0.0919  0.0564 -0.8465
33460SOL    HW1 2633   2.877   0.688   2.866  0.7807 -0.5220 -2.5444
33460SOL    HW2 2634   3.027   0.703   2.861  0.8964 -0.1730  0.2421
33461SOL     OW 2635   0.800   6.513   0.186  0.0661  0.9102  0.2021
33461SOL    HW1 2636   0.715   6.553   0.202 -0.4242  0.3248 -0.8428
33461SOL    HW2 2637   0.822   6.538   0.096  1.1155  1.2548  0.5402
33462SOL     OW 2638   3.785   6.129   1.273 -0.2977 -0.0800  0.0277
33462SOL    HW1 2639   3.859   6.095   1.222 -0.7446 -0.3319 -0.4570
33462SOL    HW2 2640   3.826   6.181   1.343  0.2998  0.9797 -1.0784
33463SOL     OW 2641   0.023   3.840   1.596 -0.2133 -1.1061  0.1964
33463SOL    HW1 2642   0.037   3.755   1.554  2.1987 -1.3847  1.4010
33463SOL    HW2 2643   0.039   3.903   1.526  0.7217 -1.6003 -0.0528
33464SOL     OW 2644   3.878   7.446   2.104 -0.1663 -0.1152  0.6105
33464SOL    HW1 2645   3.918   7.404   2.027  0.9727  3.2719 -0.8222
33464SOL    HW2 2646   3.791   7.473   2.074  0.5262  1.8057  0.1820
33465SOL     OW 2647   3.372   3.581   8.018  0.7026 -0.0403  0.3095
33465SOL    HW1 2648   3.461   3.604   8.044  0.8474 -0.5550  0.2945
33465SOL    HW2 2649   3.336   3.535   8.095 -0.9057  3.4446  1.8368
33466SOL     OW 2650   1.279   3.871   6.632 -0.7318  0.4603  0.5629
33466SOL    HW1 2651   1.258   3.925   6.709 -4.9739  3.0060 -1.9462
33466SOL    HW2 2652   1.321   3.931   6.571 -0.8245 -0.4865 -0.4635
33467SOL     OW 2653   1.145   2.136   0.402  0.7599 -0.4659  0.5378
33467SOL    HW1 2654   1.151   2.042   0.383 -1.8290 -0.3636 -1.3974
33467SOL    HW2 2655   1.063   2.144   0.452 -0.2558  0.9213 -1.2222
33468SOL     OW 2656   2.412   3.888   3.893 -0.4700  0.4182 -0.2771
33468SOL    HW1 2657   2.483   3.864   3.952  0.0493  0.8173 -0.7354
33468SOL    HW2 2658   2.437   3.852   3.808 -1.1845 -0.1029 -0.2806
33469SOL     OW 2659   5.515  10.212   8.658  0.0470  0.0723 -0.0607
33469SOL    HW1 2660   5.547  10.285   8.604 -0.1157 -0.6822 -1.2215
33469SOL    HW2 2661   5.467  10.254   8.729 -0.3730  1.1001 -0.9233
33470SOL     OW 2662   9.594   7.674   8.739 -0.4003 -0.5558  0.0024
33470SOL    HW1 2663   9.548   7.655   8.657  1.2126 -4.4092 -0.1972
33470SOL    HW2 2664   9.684   7.693   8.713 -0.5549  1.4150  0.7419
33471SOL     OW 2665   9.863   4.835   9.704  0.6955 -0.5163  0.2261
33471SOL    HW1 2666   9.831   4.848   9.615 -1.2365  1.4869  1.1021
33471SOL    HW2 2667   9.944   4.885   9.708 -0.1385  0.9077  0.0337
33472SOL     OW 2668   9.327   0.890   4.119 -0.4305  0.4440 -0.0130
33472SOL    HW1 2669   9.245   0.889   4.070 -1.4462 -0.2349  1.6094
33472SOL    HW2 2670   9.319   0.966   4.177  0.6931  1.1657 -0.7720
33473SOL     OW 2671   7.832   2.576   7.977  0.6368 -0.1189  0.6362
33473SOL    HW1 2672   7.841   2.490   7.937 -0.4469  0.9507 -2.1269
33473SOL    HW2 2673   7.815   2.558   8.070  1.3217 -2.8084  0.3131
33474SOL     OW 2674   8.526   1.014   1.608 -0.3069  0.1994  0.2517
33474SOL    HW1 2675   8.543   0.929   1.568  0.0943 -0.5434  1.8876
33474SOL    HW2 2676   8.514   0.994   1.701  1.4243  2.1138  0.9614
33475SOL     OW 2677   5.495   3.637   7.517 -0.1298  0.0138  0.6344
33475SOL    HW1 2678   5.473   3.692   7.442  1.6456  1.9448  1.4130
33475SOL    HW2 2679   5.436   3.666   7.586  0.8556  1.0882  1.0665
33476SOL     OW 2680   7.618   0.836   6.315  0.6616 -0.1269  0.6698
33476SOL    HW1 2681   7.637   0.901   6.246  2.8258 -1.6172 -0.2567
33476SOL    HW2 2682   7.535   0.797   6.288 -0.0093  1.3183  0.5293
33477SOL     OW 2683  10.613   8.884   2.139 -0.0359  0.2130  0.2076
33477SOL    HW1 2684  10.614   8.790   2.159  0.3115  0.2279  0.2722
33477SOL    HW2 2685  10.635   8.888   2.045 -0.7309  0.1942  0.0413
33478SOL     OW 2686   5.815   1.214   9.993 -0.0114 -0.1995 -0.5150
33478SOL    HW1 2687   5.734   1.257  10.019  1.3439  1.8178  0.6674
33478SOL    HW2 2688   5.836   1.251   9.907  0.9762  1.3803  0.3526
33479SOL     OW 2689   8.697   5.401   3.713  0.0792 -0.0411 -0.2419
33479SOL    HW1 2690   8.768   5.437   3.767 -1.2073  0.3813  1.2456
33479SOL    HW2 2691   8.736   5.323   3.671  1.6464  0.6444 -0.1488
33480SOL     OW 2692   1.034   6.525   5.872  0.0661  0.4281  0.2779
33480SOL    HW1 2693   0.945   6.492   5.856 -0.1859  1.3637 -0.3233
33480SOL    HW2 2694   1.074   6.531   5.785  0.4032  0.8554  0.4581
33481SOL     OW 2695  10.246   4.660   2.875 -0.3691 -0.5487 -0.1622
33481SOL    HW1 2696  10.187   4.690   2.944  0.9724 -1.9051  1.6796
33481SOL    HW2 2697  10.281   4.740   2.836 -1.1523  0.2553  0.7480
33482SOL     OW 2698   0.651   6.266   3.796  0.5276  0.3862 -0.5284
33482SOL    HW1 2699   0.589   6.232   3.860  1.8624 -0.4893  0.3380
33482SOL    HW2 2700   0.613   6.243   3.711 -1.4112  1.8078 -0.1396
33483SOL     OW 2701   9.610   4.906   6.210 -0.5140  0.1230 -0.7463
33483SOL    HW1 2702   9.635   4.822   6.170  0.9846 -0.4983  1.3164
33483SOL    HW2 2703   9.662   4.971   6.163  1.2325 -0.5964  0.0997
33484SOL     OW 2704   5.472   9.408   8.413 -0.4017  0.1990 -0.4676
33484SOL    HW1 2705   5.432   9.322   8.421  1.4416 -0.7478 -0.8774
33484SOL    HW2 2706   5.536   9.412   8.484  0.7230  0.5125 -1.4609
33485SOL     OW 2707   6.962   1.679   2.580  0.4640 -0.2246 -0.5903
33485SOL    HW1 2708   6.895   1.747   2.577 -0.3829 -0.7219  2.7211
33485SOL    HW2 2709   6.929   1.609   2.523 -1.1914  0.1010 -0.0689
33486SOL     OW 2710   5.921   0.385   2.955  0.5834  0.4505 -0.2678
33486SOL    HW1 2711   5.830   0.416   2.955  0.8984  1.4961 -1.4748
33486SOL    HW2 2712   5.914   0.290   2.955 -0.4712  0.4896  1.2853
33487SOL     OW 2713   2.182   8.774   2.966 -0.2891  0.0482  0.6590
33487SOL    HW1 2714   2.108   8.732   2.922 -0.5063  1.0671  0.0235
33487SOL    HW2 2715   2.164   8.764   3.059 -1.2902  0.3757  0.5125
33488SOL     OW 2716  10.083   9.746   9.582  0.4389 -0.6152  0.1464
33488SOL    HW1 2717  10.134   9.755   9.503 -0.3117 -1.6539 -0.4845
33488SOL    HW2 2718   9.992   9.759   9.554  0.1579 -1.0531  0.8147
33489SOL     OW 2719   1.836   1.428   4.603  0.0813 -0.0636 -0.0384
33489SOL    HW1 2720   1.925   1.437   4.568  0.4019 -0.0065  0.7862
33489SOL    HW2 2721   1.839   1.347   4.654 -0.0228  0.5291  0.9319
33490SOL     OW 2722   4.141   8.233   7.938 -0.8527  0.7832  0.2128
33490SOL    HW1 2723   4.179   8.305   7.888  0.3886 -0.3592 -0.5607
33490SOL    HW2 2724   4.209   8.165   7.938 -2.2080 -0.6376  0.3801
33491SOL     OW 2725   6.156   9.072   1.400 -0.0207  0.2987  0.1790
33491SOL    HW1 2726   6.063   9.096   1.405  0.0859  0.6677  0.4247
33491SOL    HW2 2727   6.197   9.148   1.358 -0.2494 -0.9775 -2.5777
33492SOL     OW 2728   5.676   4.509   6.403 -0.0690 -0.8874  0.0260
33492SOL    HW1 2729   5.639   4.560   6.475  0.4844  0.0954 -0.3586
33492SOL    HW2 2730   5.609   4.511   6.335  0.6081  0.8284 -0.6418
33493SOL     OW 2731   6.006   3.306   9.233 -0.7904  0.0484 -0.0580
33493SOL    HW1 2732   5.945   3.340   9.168  1.0647  0.8840 -1.4305
33493SOL    HW2 2733   6.017   3.214   9.210 -0.3816  0.2658 -0.7586
33494SOL     OW 2734   8.874   9.040   5.073  1.0548 -0.6801 -0.1251
33494SOL    HW1 2735   8.801   9.040   5.011  1.9290  0.5830 -1.2177
33494SOL    HW2 2736   8.866   9.124   5.119  0.2557 -1.7110  1.7448
33495SOL     OW 2737   0.085   2.509   0.381 -0.7144 -0.5841 -0.1764
33495SOL    HW1 2738   0.170   2.468   0.365 -0.2726  0.3424 -0.2204
33495SOL    HW2 2739   0.068   2.563   0.304  0.6054  2.4959  1.5352
33496SOL     OW 2740   7.881   4.147   7.667  0.1762 -0.3532  0.4483
33496SOL    HW1 2741   7.794   4.165   7.701  0.6142 -0.9879  1.9906
33496SOL    HW2 2742   7.939   4.202   7.719  0.8658 -1.3070  0.7174
33497SOL     OW 2743  10.627   7.061   6.680 -0.1633 -0.1052  0.3380
33497SOL    HW1 2744  10.623   7.029   6.590  2.4152  1.0311 -0.2687
33497SOL    HW2 2745  10.545   7.108   6.692 -1.2227 -1.5403 -0.8690
33498SOL     OW 2746   2.036   8.305   0.263  0.0268 -0.4286 -0.1459
33498SOL    HW1 2747   1.945   8.297   0.293  1.1583 -3.0830  3.1438
33498SOL    HW2 2748   2.065   8.390   0.298 -0.3672 -0.9361  1.5025
33499SOL     OW 2749   9.514   8.112   2.097  0.0525  0.8207 -0.0451
33499SOL    HW1 2750   9.487   8.195   2.135  0.1884  0.5487  0.6674
33499SOL    HW2 2751   9.577   8.077   2.160  3.3726  2.1696 -2.3365
33500SOL     OW 2752   2.099   1.212   9.520 -0.0056 -0.5080  0.8971
33500SOL    HW1 2753   2.084   1.143   9.456  2.0363  0.6150 -0.9509
33500SOL    HW2 2754   2.162   1.174   9.582  0.2070 -0.6792  0.5769
33501SOL     OW 2755   5.091   1.320  10.432  0.1609 -0.3422  0.0284
33501SOL    HW1 2756   5.165   1.324  10.493 -0.3790 -1.1836  0.7653
33501SOL    HW2 2757   5.081   1.227  10.413 -0.7608 -0.2384 -0.0051
33502SOL     OW 2758   6.747   4.201   6.489  0.1870  0.2192  0.4495
33502SOL    HW1 2759   6.800   4.144   6.433  0.0386 -0.5251  1.0524
33502SOL    HW2 2760   6.808   4.267   6.522  0.2889  0.6445 -0.5371
33503SOL     OW 2761   5.579   3.806   8.884  0.1161 -0.4682  0.5133
33503SOL    HW1 2762   5.541   3.889   8.912  0.8787  0.5897 -1.4104
33503SOL    HW2 2763   5.507   3.762   8.838 -0.5361 -1.3027  2.2456
33504SOL     OW 2764   2.564  10.038   1.553 -0.4897 -0.0832  0.0586
33504SOL    HW1 2765   2.562   9.949   1.587  1.8777 -0.4284 -0.4784
33504SOL    HW2 2766   2.475  10.056   1.525 -1.5538 -1.3513  2.4171
33505SOL     OW 2767   6.779   1.734   6.999  0.0538  0.2629 -0.3988
33505SOL    HW1 2768   6.709   1.749   6.935 -1.1133  1.5685  1.1178
33505SOL    HW2 2769   6.836   1.811   6.990  0.5096 -0.0973 -0.6276
33506SOL     OW 2770   5.828   6.088   4.277  0.0460  0.4233 -0.5206
33506SOL    HW1 2771   5.736   6.063   4.279  0.2080 -0.1414  0.2852
33506SOL    HW2 2772   5.833   6.153   4.207 -0.6316 -0.7877 -1.7357
33507SOL     OW 2773   3.258   5.877   8.437  0.2777  0.0440 -0.0731
33507SOL    HW1 2774   3.166   5.850   8.442  0.3498 -0.0661  0.9144
33507SOL    HW2 2775   3.257   5.969   8.465  0.3159  0.4358 -1.3013
33508SOL     OW 2776   0.544   2.554   4.236  0.1405  0.4403  0.1966
33508SOL    HW1 2777   0.569   2.515   4.152 -0.7697 -0.1032  0.1646
33508SOL    HW2 2778   0.529   2.647   4.215 -2.5263 -0.1332 -0.8249
33509SOL     OW 2779   4.639   7.160   1.979 -0.8836 -0.7966  0.1422
33509SOL    HW1 2780   4.576   7.155   1.908 -0.3979 -0.9476 -0.2840
33509SOL    HW2 2781   4.724   7.144   1.937 -0.4080  0.6828  0.4718
33510SOL     OW 2782   7.530   7.484   1.215  0.5403 -0.6028  0.1555
33510SOL    HW1 2783   7.563   7.446   1.297 -0.4759 -3.2530 -0.5466
33510SOL    HW2 2784   7.477   7.414   1.176 -1.2715  1.5314 -1.4586
33511SOL     OW 2785   1.679   4.842   0.433  0.0102  0.6569 -0.2197
33511SOL    HW1 2786   1.738   4.767   0.445  1.5078  1.6488 -1.0027
33511SOL    HW2 2787   1.732   4.917   0.461 -1.7420  1.3671  1.3633
33512SOL     OW 2788  10.460   8.374   3.784  0.0533  0.0514 -0.0659
33512SOL    HW1 2789  10.376   8.329   3.785 -1.5490  2.7998 -0.1171
33512SOL    HW2 2790  10.454   8.434   3.710  1.0426  2.0465  1.3834
33513SOL     OW 2791   8.507   1.780   3.778 -0.4059  0.2738 -0.2421
33513SOL    HW1 2792   8.580   1.721   3.758  0.6265  1.3982  0.1110
33513SOL    HW2 2793   8.459   1.788   3.695  0.0255 -0.2432 -0.5482
33514SOL     OW 2794   0.884   9.741   8.369  0.1513  0.0340 -0.3592
33514SOL    HW1 2795   0.878   9.823   8.419  0.5927 -1.1448  1.7571
33514SOL    HW2 2796   0.839   9.677   8.424  0.3688 -1.2947 -1.6745
33515SOL     OW 2797   8.584   8.289   5.644 -0.3117 -0.2079  0.0752
33515SOL    HW1 2798   8.569   8.318   5.734 -1.0113 -0.9186  0.2002
33515SOL    HW2 2799   8.678   8.270   5.640  0.0121  1.2461  0.2171
33516SOL     OW 2800   2.080   9.839   9.178 -0.1178 -0.2452  0.3503
33516SOL    HW1 2801   2.144   9.781   9.136  0.6361  0.4682  0.5105
33516SOL    HW2 2802   2.110   9.927   9.158 -1.0365  0.1009  0.4547
33517SOL     OW 2803   1.649   9.219   6.121  0.0801 -0.1745  0.1436
33517SOL    HW1 2804   1.571   9.189   6.167 -0.6064  0.3802 -0.6020
33517SOL    HW2 2805   1.683   9.290   6.175 -0.8488  0.6271 -0.2830
33518SOL     OW 2806   9.274  10.267   7.675 -1.3612  0.2100  0.8221
33518SOL    HW1 2807   9.251  10.175   7.662  0.4336 -0.1151 -0.4288
33518SOL    HW2 2808   9.267  10.307   7.588  1.3082  0.3659  0.5989
33519SOL     OW 2809   9.412   9.924   5.966 -0.6570  0.0359  0.3412
33519SOL    HW1 2810   9.501   9.917   5.999  0.0127  1.3093 -1.0924
33519SOL    HW2 2811   9.357   9.914   6.043  0.5824 -2.8944  0.9939
33520SOL     OW 2812   5.071  10.514   7.854  0.0842  0.4800  0.5420
33520SOL    HW1 2813   5.139  10.533   7.790 -1.3712  2.2938 -0.6016
33520SOL    HW2 2814   5.042  10.425   7.834  0.7463  0.4413 -0.2624
33521SOL     OW 2815   9.654   0.415   5.135 -0.6882 -0.0907  0.8953
33521SOL    HW1 2816   9.631   0.473   5.207  1.3139  1.1106  0.6453
33521SOL    HW2 2817   9.701   0.471   5.073 -1.9045 -1.1877 -1.1374
33522SOL     OW 2818   1.888   6.307   6.946  0.2534 -0.2817  0.0135
33522SOL    HW1 2819   1.951   6.238   6.927  1.1254  0.4587  0.1396
33522SOL    HW2 2820   1.803   6.265   6.937  0.7274 -1.0090 -1.3310
33523SOL     OW 2821   9.712  10.197   9.290  0.4007 -0.1393  0.0982
33523SOL    HW1 2822   9.766  10.119   9.278  0.2908 -0.5750  2.0317
33523SOL    HW2 2823   9.641  10.187   9.228 -0.0238 -2.0018  0.8207
33524SOL     OW 2824   4.480   0.147   3.539  0.0042 -0.0969 -0.3276
33524SOL    HW1 2825   4.527   0.209   3.484 -0.0927 -0.4921 -0.8651
33524SOL    HW2 2826   4.471   0.069   3.484 -1.2958 -0.0259 -0.2422
33525SOL     OW 2827   1.709   7.441   8.698  0.5459 -0.2649  0.2349
33525SOL    HW1 2828   1.699   7.353   8.734  1.3101  0.0951  1.3950
33525SOL    HW2 2829   1.797   7.442   8.661 -0.0674 -0.4870 -1.2937
33526SOL     OW 2830   5.937   3.340   1.209 -0.0692 -0.1571  0.7888
33526SOL    HW1 2831   6.018   3.360   1.163 -0.1980  0.5158  0.8405
33526SOL    HW2 2832   5.957   3.356   1.301 -0.7658  1.8756  0.6440
33527SOL     OW 2833   3.572   9.465   2.001 -0.1608 -0.1381 -0.2027
33527SOL    HW1 2834   3.567   9.558   1.979 -0.1485  0.5948  2.4821
33527SOL    HW2 2835   3.483   9.441   2.026 -0.1286 -0.8083 -0.7020
33528SOL     OW 2836   1.137   2.795   0.020 -0.0806 -0.0197 -0.6963
33528SOL    HW1 2837   1.057   2.742   0.022 -0.4161  0.4832  0.5610
33528SOL    HW2 2838   1.196   2.751   0.082 -0.4745  1.1836  0.6026
33529SOL     OW 2839   5.838   8.997   5.563  0.2734 -0.5552  0.0090
33529SOL    HW1 2840   5.813   8.979   5.472 -0.9453  1.2958 -0.0640
33529SOL    HW2 2841   5.933   8.996   5.562  0.3136  0.9333 -1.6476
33530SOL     OW 2842   7.447   5.294   0.531  0.5665  0.5054 -0.0407
33530SOL    HW1 2843   7.415   5.204   0.535 -1.3498  1.1700  0.4376
33530SOL    HW2 2844   7.456   5.313   0.437 -3.9992  1.3782 -0.5301
33531SOL     OW 2845  10.524   4.852   9.257  0.0318 -0.8059 -0.0303
33531SOL    HW1 2846  10.495   4.850   9.165  0.0270 -2.1505 -0.0165
33531SOL    HW2 2847  10.618   4.864   9.251 -0.2885  3.0448 -0.0854
33532SOL     OW 2848   2.638   5.801   7.649  0.9059 -0.0889 -0.0219
33532SOL    HW1 2849   2.546   5.802   7.623  0.9032 -0.1810 -0.0151
33532SOL    HW2 2850   2.683   5.850   7.579  1.0147 -1.0397 -0.6339
33533SOL     OW 2851   6.234   2.967   2.071  0.0480 -0.0845 -0.6012
33533SOL    HW1 2852   6.257   2.889   2.020  0.4336  0.8100 -1.8532
33533SOL    HW2 2853   6.305   3.029   2.051 -0.7304  0.8966 -0.3608
33534SOL     OW 2854   6.676   5.966   2.929  0.2191 -0.2874 -0.1412
33534SOL    HW1 2855   6.725   5.892   2.964 -0.0104  0.5270  2.0585
33534SOL    HW2 2856   6.687   6.035   2.995 -1.9750  0.6736 -0.7077
33535SOL     OW 2857   2.048   5.545   4.426  0.0303  0.3301 -0.2599
33535SOL    HW1 2858   2.066   5.636   4.404 -2.3278  0.7452 -0.7400
33535SOL    HW2 2859   2.039   5.501   4.342 -1.1747  0.1932 -0.0775
33536SOL     OW 2860   8.423   7.508   6.416 -0.1894 -0.2199 -0.7003
33536SOL    HW1 2861   8.429   7.522   6.321 -0.6932 -0.3109 -0.7501
33536SOL    HW2 2862   8.478   7.577   6.453 -0.6787  0.3660 -1.0358
33537SOL     OW 2863   1.092   9.101   1.397 -0.2994 -0.0021 -0.5482
33537SOL    HW1 2864   1.083   9.186   1.355  2.3364  0.2551 -0.7323
33537SOL    HW2 2865   1.086   9.038   1.325  0.3775  0.2006 -0.7848
33538SOL     OW 2866   4.052   1.623   9.660  0.0771 -0.2633 -0.1628
33538SOL    HW1 2867   4.146   1.604   9.658  0.7347  2.5598 -1.9377
33538SOL    HW2 2868   4.030   1.621   9.754  2.3279  0.6669  0.4684
33539SOL     OW 2869   4.720   7.957   2.736 -0.6371 -0.1185  0.0116
33539SOL    HW1 2870   4.679   8.026   2.788  1.9918  1.2855  0.3540
33539SOL    HW2 2871   4.767   7.903   2.800  4.1830  2.6822 -0.7303
33540SOL     OW 2872   2.315   9.634   5.932 -0.0713 -0.0213  0.1768
33540SOL    HW1 2873   2.388   9.582   5.964  0.2274 -1.1776 -2.2036
33540SOL    HW2 2874   2.356   9.709   5.888 -0.4224  0.7093  1.0670
33541SOL     OW 2875   7.819   1.617   5.502 -0.3765  0.5046  0.3920
33541SOL    HW1 2876   7.862   1.696   5.536 -0.7421  0.8620  0.0326
33541SOL    HW2 2877   7.758   1.650   5.436  1.2100 -0.2551 -1.5284
33542SOL     OW 2878   9.663   6.767   4.273  0.4332 -0.1044 -0.4405
33542SOL    HW1 2879   9.714   6.686   4.279 -1.5731 -1.4115  0.4215
33542SOL    HW2 2880   9.631   6.769   4.183 -0.1132 -0.7004 -0.2694
33543SOL     OW 2881   5.348   7.514   3.211  0.3237 -0.0253  0.1998
33543SOL    HW1 2882   5.338   7.432   3.260 -1.2596  0.7424  1.2626
33543SOL    HW2 2883   5.259   7.536   3.183  1.0871 -0.0191 -2.4373
33544SOL     OW 2884   5.235   3.135   6.227  0.4980 -0.4505 -0.3462
33544SOL    HW1 2885   5.224   3.222   6.266  0.5042 -0.3253 -0.6238
33544SOL    HW2 2886   5.198   3.143   6.140  2.1309 -0.1995 -1.0635
33545SOL     OW 2887   6.186   2.915   8.579  0.1293 -0.0610  0.1081
33545SOL    HW1 2888   6.278   2.909   8.554 -0.1233  0.0948 -0.8853
33545SOL    HW2 2889   6.149   2.830   8.553 -0.3166  0.4072 -0.8570
33546SOL     OW 2890   6.192   8.417   5.839  0.1736  0.0376 -0.0104
33546SOL    HW1 2891   6.186   8.326   5.870 -1.1115  0.3506  0.7382
33546SOL    HW2 2892   6.140   8.467   5.901 -0.4661  1.0650 -1.3160
33547SOL     OW 2893   9.308   4.755   0.640  0.1978 -0.4676 -0.3521
33547SOL    HW1 2894   9.395   4.795   0.634  0.5138 -1.0987 -0.0427
33547SOL    HW2 2895   9.265   4.779   0.558  0.5098  0.2023 -0.3276
33548SOL     OW 2896   0.803   9.341   7.124  0.0300  0.1859 -0.1411
33548SOL    HW1 2897   0.786   9.385   7.041 -0.3452  1.3254  0.5023
33548SOL    HW2 2898   0.739   9.380   7.184 -1.7764 -2.7432  0.0319
33549SOL     OW 2899   9.349  10.016   5.043  0.4902 -0.1487 -0.1987
33549SOL    HW1 2900   9.270   9.964   5.057  0.5498  0.2097  1.8399
33549SOL    HW2 2901   9.421   9.955   5.062  0.5865  0.3223  1.0608
33550SOL     OW 2902   2.401   2.834   7.834  0.4613 -0.8562  0.0468
33550SOL    HW1 2903   2.310   2.848   7.809  0.9555 -0.1964 -1.5689
33550SOL    HW2 2904   2.438   2.784   7.760  1.3103 -1.4765  0.8694
33551SOL     OW 2905   1.125   9.103   5.716 -0.5144 -0.2482 -0.3453
33551SOL    HW1 2906   1.171   9.023   5.744  0.8252  0.9838  1.1296
33551SOL    HW2 2907   1.144   9.110   5.622  3.2562  0.7176  0.3443
33552SOL     OW 2908   6.803   5.325   8.209 -0.3074 -0.1179 -0.0243
33552SOL    HW1 2909   6.851   5.329   8.292 -0.8106 -1.0483  0.3291
33552SOL    HW2 2910   6.863   5.281   8.149 -0.3576 -0.4356  0.1558
33553SOL     OW 2911   5.266   7.201   8.090 -0.1164  0.7387 -0.0268
33553SOL    HW1 2912   5.349   7.224   8.048  1.1250  0.0664  1.9174
33553SOL    HW2 2913   5.200   7.251   8.041  1.3102  0.6993 -2.1124
33554SOL     OW 2914   8.652   1.606   9.647 -0.0403 -0.0784  0.5770
33554SOL    HW1 2915   8.609   1.638   9.726  0.6871  0.4303  0.7715
33554SOL    HW2 2916   8.611   1.655   9.576  0.5931  0.8189  0.8128
33555SOL     OW 2917   6.282   7.380   5.892 -0.0148 -0.4711  0.1327
33555SOL    HW1 2918   6.276   7.440   5.818  1.2817 -0.7559 -0.2320
33555SOL    HW2 2919   6.319   7.433   5.963  1.5968 -0.9022 -0.3308
33556SOL     OW 2920   4.151   3.354   5.190 -0.1389  0.2122 -0.5817
33556SOL    HW1 2921   4.240   3.327   5.169 -0.2514 -1.0252  0.3904
33556SOL    HW2 2922   4.156   3.450   5.199  0.8597  0.2631 -1.5018
33557SOL     OW 2923   1.602   9.773   4.326  0.7090  0.0570  0.0208
33557SOL    HW1 2924   1.620   9.827   4.403 -0.2321  2.5981 -1.4356
33557SOL    HW2 2925   1.645   9.818   4.254  3.2671 -3.3135 -0.8139
33558SOL     OW 2926   8.712   6.105   7.948 -0.0501 -0.6342 -0.5133
33558SOL    HW1 2927   8.716   6.038   8.015  3.0670  0.2806  0.3729
33558SOL    HW2 2928   8.714   6.057   7.865  1.0320 -1.6829  0.0914
33559SOL     OW 2929   1.947   8.663   2.886  0.1334 -0.0366 -0.6920
33559SOL    HW1 2930   1.900   8.731   2.934  0.2730 -0.4949  0.1143
33559SOL    HW2 2931   1.879   8.615   2.839 -0.0662  0.0760 -0.5204
33560SOL     OW 2932   1.935   6.036   2.657 -0.0400  0.4170 -0.2138
33560SOL    HW1 2933   1.856   6.082   2.631 -0.4625 -0.4287 -0.4736
33560SOL    HW2 2934   1.903   5.952   2.693  0.6823  0.4328  0.4990
33561SOL     OW 2935   9.262   4.442   7.732  0.0802  0.4965 -0.5004
33561SOL    HW1 2936   9.204   4.492   7.674 -0.1254  1.0893  0.1911
33561SOL    HW2 2937   9.264   4.354   7.695 -1.3805  0.4267 -0.4737
33562SOL     OW 2938   1.231   8.253   1.782  0.1132 -0.7255 -0.6697
33562SOL    HW1 2939   1.325   8.264   1.799 -0.4310  1.1801  1.7928
33562SOL    HW2 2940   1.226   8.225   1.691  3.0194  0.1255 -1.1969
33563SOL     OW 2941   4.934   8.630   5.265  0.1992  0.1424  0.2940
33563SOL    HW1 2942   5.015   8.600   5.305 -0.3198  0.0008  1.2598
33563SOL    HW2 2943   4.869   8.626   5.335 -0.7674 -0.2482 -0.5867
33564SOL     OW 2944   4.537   4.409   1.481 -0.0003 -0.0732 -0.2977
33564SOL    HW1 2945   4.534   4.332   1.424  0.2206  0.0318 -0.4525
33564SOL    HW2 2946   4.619   4.452   1.458 -0.2205  0.3180 -0.3495
33565SOL     OW 2947   5.822   1.437   7.990 -0.1979 -0.3732 -0.4726
33565SOL    HW1 2948   5.888   1.504   8.011  1.5456 -2.2163  0.2186
33565SOL    HW2 2949   5.809   1.391   8.073 -2.4264 -0.0762 -0.5904
33566SOL     OW 2950   2.379   3.015  10.438  0.1014 -0.5659  0.0999
33566SOL    HW1 2951   2.373   3.099  10.393 -0.4492 -0.7119 -0.1130
33566SOL    HW2 2952   2.311   3.020  10.506  1.0590 -0.2683  1.0612
33567SOL     OW 2953   3.803   0.339   2.222 -0.7956  0.1292  0.0265
33567SOL    HW1 2954   3.864   0.413   2.217 -0.1525 -0.3828  0.1580
33567SOL    HW2 2955   3.819   0.289   2.142 -2.3006  0.9280 -0.8210
33568SOL     OW 2956  10.373   2.726   1.280 -0.4329  0.2901 -0.4564
33568SOL    HW1 2957  10.288   2.729   1.325 -0.1444  0.7867  0.0750
33568SOL    HW2 2958  10.406   2.638   1.298 -1.3988 -0.3661 -1.7541
33569SOL     OW 2959   2.544  10.129  10.473  0.5218  0.3787 -0.2187
33569SOL    HW1 2960   2.539  10.206  10.530  1.3233  0.2946 -0.0275
33569SOL    HW2 2961   2.523  10.056  10.531 -0.0090  0.4261 -0.3480
33570SOL     OW 2962   0.954   3.226   4.454 -0.3792 -0.4617 -0.2369
33570SOL    HW1 2963   0.891   3.298   4.465 -0.5948 -0.9855  2.6803
33570SOL    HW2 2964   0.925   3.159   4.515  0.8422 -2.3596 -1.6293
33571SOL     OW 2965   5.929   1.988   2.729  0.3307 -0.3874  0.1572
33571SOL    HW1 2966   5.917   1.896   2.705 -0.0422  0.1354 -1.8654
33571SOL    HW2 2967   5.952   2.032   2.647 -1.6328  1.6960  0.5956
33572SOL     OW 2968   2.810   8.802   9.640  0.2003 -0.1259 -0.4384
33572SOL    HW1 2969   2.903   8.813   9.621  0.5083 -0.0743  0.9703
33572SOL    HW2 2970   2.807   8.766   9.729 -1.1015 -1.3533 -0.9228
33573SOL     OW 2971   3.292   0.008   5.287  0.9075  0.1989 -0.4266
33573SOL    HW1 2972   3.288   0.087   5.341 -1.3149  0.9095 -1.4770
33573SOL    HW2 2973   3.247   0.033   5.206 -1.4407 -2.6154 -0.1373
33574SOL     OW 2974   1.084   6.806   9.349  0.4304  0.2849 -0.4892
33574SOL    HW1 2975   1.032   6.881   9.377  0.9915  1.1522 -1.7210
33574SOL    HW2 2976   1.081   6.746   9.424 -0.1399  1.4621  0.4597
33575SOL     OW 2977   1.045   3.008   4.081  0.1541  0.4282  0.1757
33575SOL    HW1 2978   1.126   3.056   4.063  0.3877 -0.1520 -0.3698
33575SOL    HW2 2979   1.075   2.920   4.105 -0.3180  0.1849 -0.1179
33576SOL     OW 2980   9.033  10.202   4.051  0.4998 -0.2942 -0.2036
33576SOL    HW1 2981   8.977  10.211   3.974 -0.5351 -1.6153  0.3506
33576SOL    HW2 2982   8.976  10.164   4.118  2.1220 -2.0432  0.2778
33577SOL     OW 2983   8.015   1.257   0.094  0.3642 -0.7208 -0.0165
33577SOL    HW1 2984   7.993   1.336   0.142 -1.1173 -1.8075  1.1959
33577SOL    HW2 2985   8.106   1.270   0.066  1.0934  0.2760  2.5325
33578SOL     OW 2986   7.364   7.801   3.824 -0.1855  0.1663  0.1428
33578SOL    HW1 2987   7.317   7.842   3.897 -0.3157 -1.5786  1.0917
33578SOL    HW2 2988   7.295   7.766   3.768 -0.0742 -1.0109  0.7118
33579SOL     OW 2989   1.932   7.634  10.084 -0.2454 -0.6314  0.0445
33579SOL    HW1 2990   1.913   7.562  10.143 -1.2543 -0.2887  0.1568
33579SOL    HW2 2991   1.861   7.697  10.099  0.6293  0.3991 -0.0242
33580SOL     OW 2992  10.520   0.503  10.511  0.4206  0.4468 -0.1409
33580SOL    HW1 2993  10.566   0.539  10.435  0.3167 -0.3843 -0.6112
33580SOL    HW2 2994  10.432   0.541  10.506  0.8079  1.4426  0.3321
33581SOL     OW 2995   2.861   2.902   3.855 -1.1022 -0.0842 -0.1911
33581SOL    HW1 2996   2.887   2.954   3.778 -1.2660 -0.3468 -0.4246
33581SOL    HW2 2997   2.798   2.958   3.901 -1.1680 -0.0133 -0.3648
33582SOL     OW 2998   1.605   7.063   7.161 -0.1040  0.3434 -0.1230
33582SOL    HW1 2999   1.634   6.975   7.185 -1.5172 -0.1944 -0.3185
33582SOL    HW2 3000   1.546   7.050   7.087  0.3928  1.5556 -0.7598
33583SOL     OW 3001   4.262   8.393   0.055 -0.1528  0.2197  0.3497
33583SOL    HW1 3002   4.335   8.332   0.058 -0.5282 -0.3859 -1.6587
33583SOL    HW2 3003   4.281   8.456   0.126  2.5607  0.3940 -0.4100
33584SOL     OW 3004   2.446   1.031   7.436 -0.0692  0.2252 -0.1284
33584SOL    HW1 3005   2.406   1.096   7.494 -0.7077  2.3192 -2.7094
33584SOL    HW2 3006   2.471   1.081   7.358  1.5513 -2.2567 -1.3283
33585SOL     OW 3007   4.642   8.023   6.379  0.1354  0.0554 -0.0382
33585SOL    HW1 3008   4.571   8.041   6.440  0.2297  0.1671  0.0403
33585SOL    HW2 3009   4.601   8.025   6.293  0.4164  2.3549 -0.2032
33586SOL     OW 3010   6.268   3.545   8.473  0.2108  0.0716 -0.0846
33586SOL    HW1 3011   6.360   3.573   8.472 -0.1495  1.4041  0.8963
33586SOL    HW2 3012   6.218   3.626   8.476 -0.9998 -0.6441 -0.3341
33587SOL     OW 3013   6.978   9.784   5.520 -0.7560 -0.0058 -0.2051
33587SOL    HW1 3014   6.932   9.834   5.587 -1.7571  1.7262 -2.0737
33587SOL    HW2 3015   6.924   9.706   5.507 -0.5775 -0.3386  0.9066
33588SOL     OW 3016   3.157   7.196  10.390 -0.0571  0.1322  0.0992
33588SOL    HW1 3017   3.184   7.255  10.319  0.2069 -1.2000 -0.9431
33588SOL    HW2 3018   3.238   7.177  10.438 -0.2371  1.0402  0.7869
33589SOL     OW 3019   1.458   4.540   4.690  0.3285 -0.5212  0.1311
33589SOL    HW1 3020   1.366   4.560   4.702  0.3475 -0.0902 -0.3856
33589SOL    HW2 3021   1.500   4.625   4.678  1.0178 -0.6040  1.7019
33590SOL     OW 3022   7.135   8.346   8.012 -0.3155  0.1817  0.1890
33590SOL    HW1 3023   7.170   8.289   8.081  0.9901  0.6554 -0.0462
33590SOL    HW2 3024   7.188   8.425   8.017  0.6345 -0.2243 -2.0907
33591SOL     OW 3025   2.166   2.898   8.515  0.5615  0.1160  0.1699
33591SOL    HW1 3026   2.234   2.964   8.501  1.4837 -0.8834 -0.2447
33591SOL    HW2 3027   2.149   2.901   8.609  0.4812  1.0287  0.1415
33592SOL     OW 3028   3.054   6.191   0.667 -0.2541 -0.1238 -0.4402
33592SOL    HW1 3029   2.991   6.257   0.694  0.6470  0.1312  1.1427
33592SOL    HW2 3030   3.133   6.240   0.644  0.8832 -0.6562  2.0595
33593SOL     OW 3031   6.382   3.288   6.218 -0.2141 -0.2583  0.9044
33593SOL    HW1 3032   6.428   3.332   6.289  0.5332 -1.3035  1.1019
33593SOL    HW2 3033   6.376   3.353   6.148  1.9779 -0.1915  0.7085
33594SOL     OW 3034   1.916   4.695   4.774 -0.5164 -0.0123  0.0776
33594SOL    HW1 3035   1.885   4.682   4.684 -1.0515  1.0780  0.0936
33594SOL    HW2 3036   2.011   4.701   4.767 -0.1666 -3.4349  0.0244
33595SOL     OW 3037   9.686   2.728   2.637 -0.9403 -0.3261  0.6931
33595SOL    HW1 3038   9.607   2.736   2.690 -0.4772  0.2291  1.3116
33595SOL    HW2 3039   9.688   2.808   2.585 -0.7007 -0.2556  0.8071
33596SOL     OW 3040   9.429   5.633   4.710  0.5069 -0.1434  0.5976
33596SOL    HW1 3041   9.426   5.538   4.692  2.1699 -0.2340  0.6513
33596SOL    HW2 3042   9.452   5.640   4.802  2.8373  0.2597  0.0465
33597SOL     OW 3043   0.053   2.737   8.074  0.4393  0.5969  0.0991
33597SOL    HW1 3044   0.142   2.733   8.039  0.2802 -3.8416 -0.3315
33597SOL    HW2 3045   0.063   2.713   8.166 -0.3311 -0.9159 -0.1846
33598SOL     OW 3046   8.064   7.406   9.665 -0.0089 -0.1326  0.1422
33598SOL    HW1 3047   8.101   7.341   9.605 -0.9000 -1.9557  1.5009
33598SOL    HW2 3048   8.018   7.355   9.731 -0.2250  1.8684  1.6292
33599SOL     OW 3049   8.666   8.720   0.902 -0.0051 -0.5808  0.1823
33599SOL    HW1 3050   8.722   8.739   0.826 -1.7184  0.1834 -0.9446
33599SOL    HW2 3051   8.627   8.805   0.924 -0.4198 -1.0233  1.2015
33600SOL     OW 3052   3.876   1.436   8.959 -0.4019 -0.4997 -0.0076
33600SOL    HW1 3053   3.884   1.436   8.864 -0.1758  0.6811 -0.0005
33600SOL    HW2 3054   3.940   1.500   8.989  0.3511 -1.6725  1.0305
33601SOL     OW 3055   4.214   3.031   2.768  0.5534  0.5128  0.1352
33601SOL    HW1 3056   4.181   2.951   2.728  1.3315 -0.8581  2.0484
33601SOL    HW2 3057   4.142   3.094   2.762 -0.7114 -0.9039  0.1306
33602SOL     OW 3058   2.104   4.542   0.088 -0.6083  0.8387  0.6457
33602SOL    HW1 3059   2.050   4.497   0.024 -0.1851  0.5019  0.5162
33602SOL    HW2 3060   2.113   4.631   0.055  1.5075  0.1028 -1.0211
33603SOL     OW 3061   0.986   2.674   2.604 -0.1049 -0.3870 -0.7566
33603SOL    HW1 3062   1.009   2.730   2.530  1.5634 -0.3348 -0.2409
33603SOL    HW2 3063   0.988   2.585   2.568  2.8634 -0.5794 -0.3934
33604SOL     OW 3064  10.101  10.533   7.320 -0.2394  0.3624  0.4317
33604SOL    HW1 3065  10.068  10.595   7.254 -0.5638 -0.5298 -0.2600
33604SOL    HW2 3066  10.156  10.473   7.270 -0.7065 -0.4833  0.9220
33605SOL     OW 3067   9.942   4.467   0.924 -0.0549  0.3369  0.2763
33605SOL    HW1 3068   9.880   4.472   0.997  0.6913  2.3103  0.8408
33605SOL    HW2 3069   9.921   4.542   0.869  1.6680  0.9541  0.3837
33606SOL     OW 3070   2.089   4.489   5.961  0.0916 -0.1581  0.3249
33606SOL    HW1 3071   2.032   4.526   6.028 -3.0473 -1.3203 -1.4707
33606SOL    HW2 3072   2.158   4.555   5.949 -0.4044  1.0226  3.1188
33607SOL     OW 3073   1.066   5.906   2.546  0.5494  0.0093 -0.6140
33607SOL    HW1 3074   1.138   5.937   2.491  1.7975  0.6745  1.2933
33607SOL    HW2 3075   1.099   5.914   2.636 -2.0523  0.7471  0.3712
33608SOL     OW 3076  10.111   4.553   4.396  0.1500  0.2377  0.1363
33608SOL    HW1 3077  10.144   4.465   4.380  0.5940  0.3169  0.5555
33608SOL    HW2 3078  10.022   4.553   4.362  0.4042 -0.1447 -0.5493
33609SOL     OW 3079   1.037   4.014   0.335  0.5985  0.1880  0.5703
33609SOL    HW1 3080   1.090   4.082   0.377 -0.2571  1.4055 -0.2546
33609SOL    HW2 3081   1.040   4.035   0.242  0.1399 -0.7947  0.3186
33610SOL     OW 3082   9.847   6.289   9.592  0.3453 -0.1699  0.3922
33610SOL    HW1 3083   9.918   6.341   9.553  0.2644 -0.7065 -0.4922
33610SOL    HW2 3084   9.823   6.338   9.671  2.5357 -0.6101  1.4246
33611SOL     OW 3085   3.631   4.606   2.116 -0.8759  0.4557 -0.6094
33611SOL    HW1 3086   3.688   4.535   2.084 -0.4901  0.1240  0.7665
33611SOL    HW2 3087   3.675   4.638   2.194 -1.6108  1.5060 -0.6131
33612SOL     OW 3088   8.654   8.825   2.048  0.3522  0.4002  0.7646
33612SOL    HW1 3089   8.601   8.783   2.116  0.5573  0.5764  1.0335
33612SOL    HW2 3090   8.728   8.766   2.037 -0.2924 -0.2611 -0.1809
33613SOL     OW 3091   1.738   6.952   9.432 -0.1343 -0.0232 -0.2202
33613SOL    HW1 3092   1.824   6.909   9.432  0.5052  1.1979  0.8980
33613SOL    HW2 3093   1.700   6.929   9.517 -0.1457  0.9066  0.0323
33614SOL     OW 3094  10.649   0.823   8.979 -0.2361 -0.0723  0.1255
33614SOL    HW1 3095  10.695   0.785   8.905 -1.3548 -0.2938 -0.4719
33614SOL    HW2 3096  10.622   0.748   9.032 -2.0741 -0.1322 -0.8328
33615SOL     OW 3097   6.343   7.931   1.607 -0.3787  0.1994 -0.0744
33615SOL    HW1 3098   6.264   7.973   1.642 -0.9714 -1.6364  0.9218
33615SOL    HW2 3099   6.409   7.944   1.675 -0.0706  0.9365 -0.5040
33616SOL     OW 3100   3.476   9.698   1.113  0.1850  0.1577 -0.0577
33616SOL    HW1 3101   3.452   9.784   1.081 -0.5717 -0.2108 -0.5055
33616SOL    HW2 3102   3.522   9.656   1.041 -0.9017 -0.4097 -0.4544
33617SOL     OW 3103   9.011   7.818   7.996 -0.4813  0.3456 -0.2781
33617SOL    HW1 3104   9.080   7.860   8.047 -1.0856 -0.7432  1.5685
33617SOL    HW2 3105   8.935   7.817   8.055 -0.8591 -2.0888 -0.7049
33618SOL     OW 3106   0.511   8.467  10.153 -0.1988 -0.4010 -0.4410
33618SOL    HW1 3107   0.430   8.507  10.121  0.7201  0.0869 -2.2952
33618SOL    HW2 3108   0.574   8.540  10.154 -0.5699  0.2497  4.7023
33619SOL     OW 3109   7.827   4.566   2.578  0.3825  0.0582 -0.1609
33619SOL    HW1 3110   7.819   4.520   2.495  2.0645 -1.3188  0.3884
33619SOL    HW2 3111   7.898   4.628   2.565  0.9383 -0.4560  0.3495
33620SOL     OW 3112   0.488   5.046   3.964 -0.1094 -0.1320  0.2128
33620SOL    HW1 3113   0.571   5.082   3.996 -0.4953  0.3875  0.6517
33620SOL    HW2 3114   0.495   5.050   3.869 -0.6249  2.2930  0.2170
33621SOL     OW 3115   9.591   6.064   1.464  0.5647  0.5858 -0.6621
33621SOL    HW1 3116   9.511   6.116   1.461  0.3018  0.2290  0.1402
33621SOL    HW2 3117   9.561   5.973   1.466  0.8965  0.4627  1.7316
33622SOL     OW 3118   8.378   6.662   8.683 -0.0155 -0.1252  0.5669
33622SOL    HW1 3119   8.391   6.580   8.730  2.9142 -1.1886 -1.7706
33622SOL    HW2 3120   8.402   6.731   8.745 -1.5861 -1.0331  2.2579
33623SOL     OW 3121   3.037   6.767   2.780 -0.5975 -0.2381  0.4840
33623SOL    HW1 3122   3.038   6.792   2.688  0.4318 -1.8349  0.0337
33623SOL    HW2 3123   3.014   6.848   2.826  2.4521  1.5973 -0.8847
33624SOL     OW 3124   9.904   1.244   6.353  0.5354 -0.3383 -0.0828
33624SOL    HW1 3125   9.979   1.297   6.380  0.2551  0.6250 -1.1465
33624SOL    HW2 3126   9.941   1.174   6.299  0.4957  1.4655 -2.5609
33625SOL     OW 3127  10.401   4.903   7.979  0.1529 -0.3957  0.2295
33625SOL    HW1 3128  10.380   4.822   8.024  0.3861 -0.8428 -0.4454
33625SOL    HW2 3129  10.317   4.947   7.968 -0.1457 -1.0933 -0.4114
33626SOL     OW 3130   5.529   7.638   8.984 -0.6247 -0.1389 -0.7302
33626SOL    HW1 3131   5.623   7.630   8.999 -0.7859  0.3173  0.6502
33626SOL    HW2 3132   5.515   7.732   8.971 -0.7886 -0.2943 -1.7716
33627SOL     OW 3133   9.670   6.698   9.394  0.0593  0.2489 -0.4689
33627SOL    HW1 3134   9.687   6.783   9.353  0.1252  0.7852  0.6499
33627SOL    HW2 3135   9.576   6.697   9.410  0.2303  0.6542  0.6582
33628SOL     OW 3136   5.062   0.866   2.218  0.6042 -0.3801  0.2503
33628SOL    HW1 3137   5.153   0.845   2.236  1.6314  2.6157 -0.7805
33628SOL    HW2 3138   5.063   0.959   2.192 -2.7344 -0.2203  0.1859
33629SOL     OW 3139   3.106   0.379   3.552  0.4517  0.5528 -0.1746
33629SOL    HW1 3140   3.102   0.434   3.474  1.0148 -0.2867 -0.8195
33629SOL    HW2 3141   3.116   0.440   3.625  2.3861  1.2826 -0.9785
33630SOL     OW 3142   4.069   0.304   1.983 -0.3687 -0.0075 -0.3748
33630SOL    HW1 3143   4.061   0.215   2.017 -0.4842  0.8659  2.0699
33630SOL    HW2 3144   3.979   0.335   1.974 -0.3234 -0.0238 -0.9110
33631SOL     OW 3145   8.226   1.510   7.527  0.3128  0.8855 -0.7663
33631SOL    HW1 3146   8.170   1.454   7.581  1.5682 -0.4874 -0.8199
33631SOL    HW2 3147   8.239   1.460   7.446  0.7324  1.6564 -1.1847
33632SOL     OW 3148   9.962   0.332   4.669  0.2858  0.2893  0.3438
33632SOL    HW1 3149   9.921   0.411   4.634  1.9890  1.2106  0.3024
33632SOL    HW2 3150   9.991   0.357   4.757  0.5801 -0.3753  0.4434
33633SOL     OW 3151   9.223   4.067   0.566  0.5273 -0.0360  0.1497
33633SOL    HW1 3152   9.135   4.103   0.559 -0.8053 -3.0891 -0.3070
33633SOL    HW2 3153   9.256   4.100   0.649 -1.6945 -0.0542  1.1050
33634SOL     OW 3154  10.424   2.853   0.784  0.3926  0.4824  0.1975
33634SOL    HW1 3155  10.410   2.912   0.709 -0.0592  1.0955  0.7488
33634SOL    HW2 3156  10.380   2.897   0.857  2.1816  0.6980  1.2010
33635SOL     OW 3157   4.400   5.332   6.045 -0.3530  0.2587  0.7547
33635SOL    HW1 3158   4.386   5.352   6.138 -0.4894 -2.1389  1.2941
33635SOL    HW2 3159   4.495   5.338   6.034 -0.1419 -1.1838  1.5252
33636SOL     OW 3160   1.531   1.298   9.858 -0.0953  0.0591  0.3314
33636SOL    HW1 3161   1.440   1.268   9.866 -0.1187 -0.1431 -0.5828
33636SOL    HW2 3162   1.577   1.253   9.928 -0.6465 -0.0474  0.6373
33637SOL     OW 3163   4.509   6.887   8.856 -0.4663  0.4687  0.5662
33637SOL    HW1 3164   4.479   6.897   8.765 -1.5351  0.5827  0.9182
33637SOL    HW2 3165   4.495   6.973   8.895  2.2679  1.1814  0.2398
33638SOL     OW 3166   0.753   6.889   9.405 -0.3540 -0.1649 -0.3022
33638SOL    HW1 3167   0.747   6.812   9.462 -1.3823  1.7168  2.3077
33638SOL    HW2 3168   0.664   6.924   9.404  0.1479  1.1109 -1.2631
33639SOL     OW 3169   7.093   9.270   3.887  0.0174  0.0020 -0.0837
33639SOL    HW1 3170   7.066   9.198   3.944  1.3676 -0.7909 -0.3993
33639SOL    HW2 3171   7.093   9.233   3.799 -2.6384  1.3819 -0.7530
33640SOL     OW 3172   8.223   4.677   1.964  0.0871  0.5394  0.3488
33640SOL    HW1 3173   8.219   4.662   1.870 -1.5080 -0.1486  0.4861
33640SOL    HW2 3174   8.303   4.633   1.992 -0.0842 -0.3703 -0.5174
33641SOL     OW 3175   5.834   1.616   1.237 -0.1955 -0.2085 -0.3087
33641SOL    HW1 3176   5.827   1.542   1.297  0.3088  0.6332  0.8297
33641SOL    HW2 3177   5.882   1.582   1.162 -0.1002 -1.0766  0.1360
33642SOL     OW 3178   0.388   4.906   7.896  0.1824 -0.1419  1.2563
33642SOL    HW1 3179   0.423   4.985   7.855  1.0661 -0.7106  0.8848
33642SOL    HW2 3180   0.308   4.887   7.847  0.5478 -0.0940  0.6309
33643SOL     OW 3181   2.839   3.693   4.016  0.0955 -0.1513  0.0440
33643SOL    HW1 3182   2.799   3.706   4.102 -2.6689  0.5710 -1.2385
33643SOL    HW2 3183   2.845   3.782   3.980  1.3733 -0.4332 -0.4694
33644SOL     OW 3184   7.612   2.071   5.398 -0.1360 -0.6617  0.8178
33644SOL    HW1 3185   7.701   2.059   5.432  1.3964 -0.2570 -2.6031
33644SOL    HW2 3186   7.602   2.166   5.389  0.8176 -0.7383 -2.4854
33645SOL     OW 3187   0.979   2.150   4.264 -0.1242  0.6484  0.1202
33645SOL    HW1 3188   0.954   2.142   4.172  0.7140  2.6461 -0.3337
33645SOL    HW2 3189   0.907   2.199   4.304 -0.8387 -0.8583  0.7172
33646SOL     OW 3190   2.768   6.943   4.306  0.1826 -0.2746  0.0039
33646SOL    HW1 3191   2.855   6.914   4.333 -0.0646 -1.1691 -0.1469
33646SOL    HW2 3192   2.785   7.010   4.239  0.7566 -1.9640 -1.6215
33647SOL     OW 3193   6.448  10.234   4.243 -0.2365 -0.0896 -0.2282
33647SOL    HW1 3194   6.473  10.197   4.327 -0.0012 -0.5493 -0.4992
33647SOL    HW2 3195   6.531  10.245   4.196 -0.4894 -1.2453 -0.9762
33648SOL     OW 3196   0.518   9.431   9.475  0.1821 -0.0027  0.0279
33648SOL    HW1 3197   0.610   9.443   9.499  0.2362  1.1717 -0.6581
33648SOL    HW2 3198   0.470   9.463   9.552  0.2979 -2.1719  1.0771
33649SOL     OW 3199   4.275   1.721   8.274  0.5048 -0.8598 -0.0656
33649SOL    HW1 3200   4.206   1.788   8.268  0.5870 -0.9005 -2.2355
33649SOL    HW2 3201   4.297   1.718   8.367 -0.5287  1.0854  0.2982
33650SOL     OW 3202  10.041   0.235   1.772 -0.1983 -0.0473  0.2851
33650SOL    HW1 3203  10.096   0.261   1.846 -1.0669 -0.0171  0.9337
33650SOL    HW2 3204   9.955   0.272   1.791 -0.5160 -0.2862 -0.6016
33651SOL     OW 3205  10.436   1.178   3.963 -0.1540 -0.0324 -0.4808
33651SOL    HW1 3206  10.395   1.108   3.911  1.2433 -0.5448 -0.9292
33651SOL    HW2 3207  10.377   1.253   3.951 -1.3061 -0.9188 -0.5681
33652SOL     OW 3208   8.435   9.685   1.654 -0.5175  0.4671 -0.0318
33652SOL    HW1 3209   8.489   9.763   1.669 -1.6438  1.0100  1.5514
33652SOL    HW2 3210   8.475   9.618   1.709  0.1548  0.0370 -1.0122
33653SOL     OW 3211   8.011   0.647   5.087 -0.6611  0.2044  0.3286
33653SOL    HW1 3212   8.038   0.579   5.149 -0.6532 -0.0432  0.0552
33653SOL    HW2 3213   8.026   0.608   5.001  0.0012  0.8092  0.1656
33654SOL     OW 3214   6.886   7.651   0.825  0.2233 -0.0048 -0.3342
33654SOL    HW1 3215   6.892   7.725   0.764  1.0800 -0.5378 -0.9183
33654SOL    HW2 3216   6.977   7.628   0.844 -0.0309 -0.2644  0.6484
33655SOL     OW 3217   6.177   1.816   3.474  0.3782  0.2541  0.3384
33655SOL    HW1 3218   6.158   1.910   3.464  0.7722  0.3641  0.5967
33655SOL    HW2 3219   6.198   1.786   3.386 -2.3751 -0.2000 -0.2547
33656SOL     OW 3220   9.818   2.095   0.326  0.2488  0.5931 -0.0897
33656SOL    HW1 3221   9.765   2.051   0.393 -1.1363  1.7451 -0.3843
33656SOL    HW2 3222   9.791   2.054   0.244 -1.0311  1.8949 -0.3632
33657SOL     OW 3223   8.496   8.123   6.166 -0.4151  0.0255 -0.0650
33657SOL    HW1 3224   8.507   8.202   6.220 -0.7437  0.4049 -0.5427
33657SOL    HW2 3225   8.424   8.145   6.107  0.1774 -0.2489 -0.9028
33658SOL     OW 3226   5.855   9.686   7.081  0.9942  0.4224  0.6128
33658SOL    HW1 3227   5.799   9.739   7.025  1.8060  0.7577  0.1036
33658SOL    HW2 3228   5.905   9.750   7.132  0.3637  0.1259  1.6426
33659SOL     OW 3229   0.471   3.346   6.512 -0.1474 -0.3083 -0.5037
33659SOL    HW1 3230   0.536   3.393   6.565  1.3931 -2.2883 -0.5187
33659SOL    HW2 3231   0.393   3.342   6.568  0.2415  0.7759  0.1436
33660SOL     OW 3232   8.971   6.067   2.755 -0.3383 -0.0123 -0.3861
33660SOL    HW1 3233   8.904   6.085   2.689  0.6957 -0.1952 -1.5168
33660SOL    HW2 3234   9.049   6.112   2.722 -0.1306  1.0279  1.3976
33661SOL     OW 3235   5.728   3.449   4.753  0.2031  0.1759  0.8976
33661SOL    HW1 3236   5.758   3.518   4.694 -2.3153 -0.7620 -1.7077
33661SOL    HW2 3237   5.803   3.430   4.809  2.6872  1.3782 -1.8039
33662SOL     OW 3238   4.441   5.650   5.182 -0.2098 -0.4504 -0.1074
33662SOL    HW1 3239   4.532   5.647   5.209 -0.6368  0.3600  1.5561
33662SOL    HW2 3240   4.394   5.601   5.249 -1.2911  1.4996  0.6541
33663SOL     OW 3241   0.923   5.024   3.878 -0.1242 -0.1101 -0.4477
33663SOL    HW1 3242   0.907   5.050   3.787 -1.1094 -0.4884 -0.3945
33663SOL    HW2 3243   0.858   5.072   3.928  1.3697  1.2725  0.2636
33664SOL     OW 3244   1.180  10.156   3.052 -0.0937  0.5734 -0.1339
33664SOL    HW1 3245   1.196  10.168   3.145  0.2337  2.0597 -0.3634
33664SOL    HW2 3246   1.250  10.204   3.009 -1.2116  1.3374 -1.1474
33665SOL     OW 3247   5.616   9.482   7.273 -0.0803 -0.2493  0.7358
33665SOL    HW1 3248   5.633   9.573   7.297 -1.6252  0.1396  0.4483
33665SOL    HW2 3249   5.698   9.453   7.233 -0.1767  1.6842 -1.0938
33666SOL     OW 3250   4.514   8.752   9.440 -0.7150 -0.0700 -0.2276
33666SOL    HW1 3251   4.574   8.703   9.496 -0.5648  0.4180  0.0463
33666SOL    HW2 3252   4.427   8.735   9.476 -0.8061 -1.2023 -0.9465
33667SOL     OW 3253   3.313   1.212   4.239 -0.5603 -0.1278  0.8045
33667SOL    HW1 3254   3.332   1.270   4.313  1.3965 -0.4684  0.6293
33667SOL    HW2 3255   3.327   1.124   4.273 -3.6790 -0.6153  1.1205
33668SOL     OW 3256   9.110   8.628   4.100  0.0006 -0.2207  1.0106
33668SOL    HW1 3257   9.157   8.587   4.027 -1.5847 -0.5781  0.1526
33668SOL    HW2 3258   9.175   8.686   4.141  1.3113 -1.0400  0.1704
33669SOL     OW 3259   9.828   2.990   0.742  0.0207 -0.3834  0.0088
33669SOL    HW1 3260   9.824   3.082   0.716  0.9962 -0.7309 -1.5440
33669SOL    HW2 3261   9.921   2.968   0.738 -0.0344 -1.1084  1.7035
33670SOL     OW 3262   7.011   3.127   8.710 -0.2267  0.5851  0.3964
33670SOL    HW1 3263   7.103   3.146   8.727 -0.0607 -1.1650  1.7247
33670SOL    HW2 3264   6.965   3.154   8.789 -0.4613 -0.9143  0.8147
33671SOL     OW 3265   5.424   5.816   2.242  0.0170  0.6594 -0.0646
33671SOL    HW1 3266   5.385   5.764   2.172  0.0916  0.6132 -0.0729
33671SOL    HW2 3267   5.379   5.788   2.322  1.1956 -0.6458  0.1917
33672SOL     OW 3268   2.911   1.404   6.804 -0.2955  0.4793 -0.1717
33672SOL    HW1 3269   2.822   1.369   6.801 -0.4302  0.8761 -2.6318
33672SOL    HW2 3270   2.953   1.370   6.725  2.3947 -1.1975  1.7922
33673SOL     OW 3271   4.475   3.544   9.392 -0.1123 -0.1181 -0.6047
33673SOL    HW1 3272   4.523   3.624   9.370  0.7759 -0.3058  0.5366
33673SOL    HW2 3273   4.397   3.576   9.438  0.8652  0.1080  0.9931
33674SOL     OW 3274   7.418   8.393   6.697  0.2871  0.0624  0.6625
33674SOL    HW1 3275   7.374   8.430   6.774  0.5335 -0.4310  1.0396
33674SOL    HW2 3276   7.369   8.429   6.623  1.2812  2.2054  0.9501
33675SOL     OW 3277   9.175   4.833   2.608  0.1657 -0.1498  0.2838
33675SOL    HW1 3278   9.224   4.767   2.559  0.9625  0.2777  0.4870
33675SOL    HW2 3279   9.122   4.783   2.670 -0.7155 -0.6914 -0.8577
33676SOL     OW 3280   4.332   2.017   2.581 -0.1135  0.2737  0.5903
33676SOL    HW1 3281   4.382   1.972   2.513 -0.2035  0.2696  0.5265
33676SOL    HW2 3282   4.296   1.947   2.635 -0.2167  0.2692  0.5173
33677SOL     OW 3283   6.504   9.360   9.975  0.1536 -0.2838  0.3177
33677SOL    HW1 3284   6.526   9.275   9.939  0.5473  0.1928 -0.5957
33677SOL    HW2 3285   6.582   9.413   9.961 -1.0098  1.0354 -1.7221
33678SOL     OW 3286   7.047   2.010   3.528  0.4123 -0.0114 -0.1848
33678SOL    HW1 3287   7.071   1.960   3.606  0.3722 -2.4457 -1.6264
33678SOL    HW2 3288   7.084   2.097   3.543  1.3760 -0.7147  2.0253
33679SOL     OW 3289   6.938   6.215   9.248  0.5775 -0.1544  0.0854
33679SOL    HW1 3290   6.911   6.289   9.193 -1.8752 -1.0828 -0.0830
33679SOL    HW2 3291   6.971   6.256   9.328 -0.2570  1.1597 -0.2051
33680SOL     OW 3292   7.118   8.534   5.069 -0.6210  0.0665 -0.2802
33680SOL    HW1 3293   7.134   8.591   5.144  1.3994 -3.2822  2.0825
33680SOL    HW2 3294   7.051   8.473   5.098  0.5164 -1.5807 -0.9291
33681SOL     OW 3295  10.514   5.912   8.115  0.0854 -0.2512 -0.2502
33681SOL    HW1 3296  10.542   5.873   8.032 -0.7167 -1.2452 -0.0735
33681SOL    HW2 3297  10.551   5.855   8.182 -0.5662 -0.3619  0.0272
33682SOL     OW 3298   2.432   1.553   5.636  0.1450 -0.0593  0.0291
33682SOL    HW1 3299   2.470   1.474   5.597 -2.2036 -0.9794 -0.5829
33682SOL    HW2 3300   2.444   1.621   5.570 -0.6499 -0.7310 -0.8328
33683SOL     OW 3301   0.427   2.528   8.016 -0.0156 -0.1447  0.7193
33683SOL    HW1 3302   0.424   2.624   8.021 -1.4763 -0.1915  0.9207
33683SOL    HW2 3303   0.465   2.501   8.100 -2.1895  0.1610  1.8605
33684SOL     OW 3304   9.918  10.391   1.903 -0.3032 -0.2996  0.1117
33684SOL    HW1 3305   9.970  10.453   1.955  0.2043  0.4414 -1.2146
33684SOL    HW2 3306   9.982  10.351   1.844 -0.6117 -2.1793  0.9902
33685SOL     OW 3307   7.849   6.977   6.041 -0.5250 -0.1181 -0.4745
33685SOL    HW1 3308   7.901   7.057   6.050  1.3057 -1.3893  1.1293
33685SOL    HW2 3309   7.846   6.961   5.946  0.1499  1.1740 -0.7306
33686SOL     OW 3310   8.351   6.768   7.635  0.7133 -0.1307 -0.4178
33686SOL    HW1 3311   8.403   6.802   7.708 -0.3268  1.2231 -0.2687
33686SOL    HW2 3312   8.261   6.787   7.659  0.3615  0.5399 -2.1376
33687SOL     OW 3313   5.177   0.099   0.893  0.3626  0.3008 -0.0291
33687SOL    HW1 3314   5.198   0.055   0.975 -1.1576 -0.0018  0.2160
33687SOL    HW2 3315   5.263   0.118   0.854  1.0882 -0.5373  1.0876
33688SOL     OW 3316   3.558   7.560   8.312  0.4301 -0.5510 -0.1758
33688SOL    HW1 3317   3.474   7.590   8.348 -0.2363  0.5425 -2.4789
33688SOL    HW2 3318   3.534   7.488   8.254  1.1910 -0.7048 -0.3001
33689SOL     OW 3319   5.464   9.862   9.929 -0.5034  0.0107 -0.2758
33689SOL    HW1 3320   5.413   9.845  10.007 -0.1392  1.0432  0.2081
33689SOL    HW2 3321   5.502   9.949   9.943 -0.4530  0.2346 -1.6028
33690SOL     OW 3322   1.178   5.888   0.582 -0.4052 -0.2414 -0.2847
33690SOL    HW1 3323   1.139   5.929   0.659  0.6487  3.1555 -1.3880
33690SOL    HW2 3324   1.117   5.909   0.510  0.4774 -0.0655 -0.9958
33691SOL     OW 3325   6.203   6.761   4.840  0.1278  0.2541 -0.1472
33691SOL    HW1 3326   6.130   6.756   4.901 -0.2629 -1.3226 -0.7162
33691SOL    HW2 3327   6.230   6.670   4.826  0.9394  0.6674 -1.4508
33692SOL     OW 3328   8.530   3.150   4.780  0.8389  0.0369 -0.4143
33692SOL    HW1 3329   8.575   3.071   4.811  1.4342  0.1925 -0.8508
33692SOL    HW2 3330   8.595   3.220   4.791  0.2627  0.5015  0.1125
33693SOL     OW 3331   5.390   4.357   5.227 -0.0497 -0.4179  0.4048
33693SOL    HW1 3332   5.481   4.329   5.215 -0.1316 -0.9484  0.9950
33693SOL    HW2 3333   5.390   4.450   5.202  0.5173 -0.5745 -0.2142
33694SOL     OW 3334   2.298   9.465   8.336 -0.8572  0.0724 -0.5088
33694SOL    HW1 3335   2.293   9.425   8.249 -0.7357 -0.4307 -0.2906
33694SOL    HW2 3336   2.340   9.398   8.391 -0.9531  0.3733 -0.0591
33695SOL     OW 3337   1.539   8.574   6.214  0.2644  0.0487 -0.4028
33695SOL    HW1 3338   1.473   8.635   6.247  2.2312  2.4901 -0.6600
33695SOL    HW2 3339   1.559   8.605   6.125  0.9661 -1.3138 -0.7589
33696SOL     OW 3340   1.787   6.162   7.845  0.4365  0.3686 -0.7273
33696SOL    HW1 3341   1.827   6.077   7.864  0.3255  0.3063 -0.7728
33696SOL    HW2 3342   1.700   6.140   7.813  0.1785  0.5225 -0.1511
33697SOL     OW 3343   8.937   5.237   8.527 -0.2890  0.2135  0.4352
33697SOL    HW1 3344   8.942   5.155   8.476  0.1927 -1.0040  2.3388
33697SOL    HW2 3345   8.908   5.302   8.464  0.8100 -1.0966 -1.5327
33698SOL     OW 3346   2.713   8.565   5.443 -0.1696  0.3046  0.1062
33698SOL    HW1 3347   2.702   8.498   5.375  0.1231 -0.0389  0.3904
33698SOL    HW2 3348   2.729   8.646   5.394  1.5807 -0.2083 -0.2525
33699SOL     OW 3349  10.425   5.403   3.044 -0.4076  0.5438  0.5427
33699SOL    HW1 3350  10.433   5.351   3.124 -0.4889  0.2926  0.3900
33699SOL    HW2 3351  10.371   5.478   3.069  0.0206  0.7447  0.8565
33700SOL     OW 3352   7.773   2.160   7.144 -0.1135  0.3410 -0.1857
33700SOL    HW1 3353   7.789   2.241   7.193  0.1317  0.2275 -0.0750
33700SOL    HW2 3354   7.774   2.187   7.052  0.3497  0.3968 -0.1634
33701SOL     OW 3355   1.146   4.911  10.327  0.0844  0.2533 -0.0013
33701SOL    HW1 3356   1.064   4.956  10.308 -0.3596 -0.0324  1.1961
33701SOL    HW2 3357   1.132   4.821  10.299 -0.3743 -0.0339  1.1111
33702SOL     OW 3358   4.222   9.056   0.674  0.1893  0.0093 -0.1204
33702SOL    HW1 3359   4.259   9.117   0.611 -0.6063 -0.7552 -1.3592
33702SOL    HW2 3360   4.236   8.969   0.636 -0.6367 -0.4518  0.5669
33703SOL     OW 3361   0.414   3.094   6.127  0.5921 -0.3152  0.0480
33703SOL    HW1 3362   0.425   3.073   6.034  2.1726 -0.0607  0.1552
33703SOL    HW2 3363   0.355   3.027   6.160  0.5839 -0.8323 -0.9941
33704SOL     OW 3364   6.709   7.169   2.990 -0.4896  0.4466 -0.0225
33704SOL    HW1 3365   6.710   7.156   3.085 -0.6333  0.8275  0.0333
33704SOL    HW2 3366   6.705   7.264   2.979 -1.8188  0.3758 -0.3898
33705SOL     OW 3367   3.748   0.562   9.332 -0.4640  0.0092  0.2868
33705SOL    HW1 3368   3.825   0.607   9.298 -0.8096  1.0362  0.8253
33705SOL    HW2 3369   3.683   0.631   9.344 -1.3997 -0.8137  0.0494
33706SOL     OW 3370   1.456  10.243   8.289  0.5867 -0.0033  0.8642
33706SOL    HW1 3371   1.469  10.155   8.324  0.5233  0.3014  1.6735
33706SOL    HW2 3372   1.463  10.301   8.365 -0.3959  0.6106  0.5128
33707SOL     OW 3373   1.385   6.667   9.872  0.2025  0.5701 -0.6204
33707SOL    HW1 3374   1.375   6.654   9.966 -1.0700  0.9896 -0.6832
33707SOL    HW2 3375   1.477   6.649   9.855 -0.0711 -2.0896  0.2969
33708SOL     OW 3376   6.480   0.172   1.715  0.5950 -0.0053  0.1427
33708SOL    HW1 3377   6.438   0.240   1.663  0.2410  0.1611  0.6366
33708SOL    HW2 3378   6.555   0.215   1.756 -0.2032  0.3671  1.2542
33709SOL     OW 3379   5.451   2.293   7.230 -0.1091 -0.0808  0.0160
33709SOL    HW1 3380   5.527   2.335   7.191 -1.3165  1.8979 -0.3166
33709SOL    HW2 3381   5.429   2.221   7.170  1.8052 -1.0709  0.4344
33710SOL     OW 3382   3.917   5.566   2.044 -0.5601 -0.8029 -0.0500
33710SOL    HW1 3383   3.872   5.578   1.961 -0.6130  0.3150  0.1219
33710SOL    HW2 3384   3.982   5.498   2.027  1.7754  1.6806 -2.0124
33711SOL     OW 3385   2.878   5.683   4.462 -0.3810  0.0342  0.2738
33711SOL    HW1 3386   2.946   5.635   4.415  0.3256  0.3459  0.9620
33711SOL    HW2 3387   2.867   5.636   4.544 -0.9741  0.0131  0.1911
33712SOL     OW 3388   0.738   8.764   2.257  0.1181  0.2002 -0.1254
33712SOL    HW1 3389   0.738   8.785   2.351  0.4744 -0.9809  0.1515
33712SOL    HW2 3390   0.711   8.846   2.215 -2.1723  0.1648  1.1185
33713SOL     OW 3391   0.934   5.305  10.520 -0.0111  0.3048  0.8149
33713SOL    HW1 3392   0.894   5.392  10.523 -0.1064  0.3575 -0.8698
33713SOL    HW2 3393   0.867   5.247  10.557 -1.8787  0.3712 -2.0834
33714SOL     OW 3394   8.322   4.531   9.711  0.0105  0.5860  0.3008
33714SOL    HW1 3395   8.355   4.616   9.741  0.1747  0.2328  1.1344
33714SOL    HW2 3396   8.233   4.526   9.746  0.4678 -0.1559  1.4173
33715SOL     OW 3397   9.540   8.578   9.882  0.5349 -0.4319 -0.1274
33715SOL    HW1 3398   9.492   8.630   9.947  1.0487 -1.0452  0.7647
33715SOL    HW2 3399   9.480   8.571   9.807  0.5915  1.7049 -0.4149
33716SOL     OW 3400   1.762   2.939   7.633 -0.2941 -0.0036 -0.2897
33716SOL    HW1 3401   1.765   2.853   7.677  0.9060 -0.9304 -2.0874
33716SOL    HW2 3402   1.849   2.950   7.596 -1.0998  0.9465 -2.0076
33717SOL     OW 3403   3.406   5.772   4.122 -0.2869  0.3061  0.3457
33717SOL    HW1 3404   3.438   5.694   4.167 -0.4105  0.0759  0.0379
33717SOL    HW2 3405   3.374   5.829   4.192  1.1627  0.7239  0.7156
33718SOL     OW 3406   4.643   1.604  10.640 -0.5658  0.0264  0.7035
33718SOL    HW1 3407   4.568   1.546  10.654  1.0277 -1.6964  2.7206
33718SOL    HW2 3408   4.662   1.596  10.547 -1.7342 -0.9592  0.5149
33719SOL     OW 3409   3.952   6.533   6.035 -0.1134 -0.0180 -0.4709
33719SOL    HW1 3410   3.949   6.510   6.127 -0.8852  0.0330 -0.4772
33719SOL    HW2 3411   3.864   6.566   6.015 -0.2537 -0.9021 -1.4478
33720SOL     OW 3412  10.066  10.467   1.554 -0.7577 -0.1377  0.1193
33720SOL    HW1 3413  10.088  10.444   1.464  0.2415  0.9017  0.0673
33720SOL    HW2 3414  10.135  10.427   1.607 -1.2508 -0.6106  0.4224
33721SOL     OW 3415   8.217   3.719   0.535  0.1147 -0.1250 -0.3821
33721SOL    HW1 3416   8.223   3.788   0.600  3.3387 -1.3965  0.8748
33721SOL    HW2 3417   8.126   3.721   0.506 -0.5143  2.9502  1.3865
33722SOL     OW 3418   8.559   3.081   7.026 -0.5369  0.6500 -0.2868
33722SOL    HW1 3419   8.606   3.159   6.998 -2.1435  1.7335 -0.1318
33722SOL    HW2 3420   8.467   3.108   7.026 -0.9073 -0.1973  2.9652
33723SOL     OW 3421   1.506   6.154   9.012  0.2669 -0.1771  0.0516
33723SOL    HW1 3422   1.515   6.202   9.094  1.0004  0.2756 -0.2848
33723SOL    HW2 3423   1.596   6.145   8.979  0.0288 -0.7765 -0.4630
33724SOL     OW 3424   2.855   8.054   9.224 -0.5925 -0.2074 -0.2245
33724SOL    HW1 3425   2.820   8.143   9.226 -0.4302 -0.1421  2.0284
33724SOL    HW2 3426   2.896   8.046   9.138 -0.5622  1.9080 -0.4528
33725SOL     OW 3427   3.288   6.257   0.475  0.0346  0.0447 -0.3397
33725SOL    HW1 3428   3.342   6.242   0.397  1.2311  0.2042  0.4444
33725SOL    HW2 3429   3.342   6.229   0.548  0.0172  2.4708  0.7018
33726SOL     OW 3430  10.135   4.920   2.759  0.0281  0.0490  0.0501
33726SOL    HW1 3431  10.047   4.901   2.791 -0.3770 -0.1593 -1.1161
33726SOL    HW2 3432  10.121   4.962   2.674  1.0515  0.2958 -0.0119
33727SOL     OW 3433   1.047   2.792   2.834 -0.4588  0.0319 -0.0341
33727SOL    HW1 3434   1.022   2.735   2.762  0.0983  0.3178 -0.4595
33727SOL    HW2 3435   1.140   2.810   2.821 -0.7774  1.6654 -0.3829
33728SOL     OW 3436   3.317   4.274   5.325  0.0629  0.2314 -0.6479
33728SOL    HW1 3437   3.328   4.186   5.289 -2.1804 -0.4368  0.1575
33728SOL    HW2 3438   3.352   4.267   5.414  2.9401  1.1183 -1.5981
33729SOL     OW 3439  10.553   1.595   4.063  0.1794  0.1383 -0.1324
33729SOL    HW1 3440  10.556   1.641   3.979  0.0865 -0.6793 -0.5946
33729SOL    HW2 3441  10.459   1.583   4.079  0.0868  1.9767  1.0558
33730SOL     OW 3442   7.076   9.075   3.089  0.6141  0.5284 -0.3288
33730SOL    HW1 3443   7.073   8.996   3.143  0.2159 -0.1030 -1.2453
33730SOL    HW2 3444   7.140   9.056   3.021 -0.3282  0.5169 -1.2453
33731SOL     OW 3445   8.536   8.274   9.064  0.0163  0.1873 -0.3494
33731SOL    HW1 3446   8.460   8.220   9.087  1.9921 -2.7001 -0.1036
33731SOL    HW2 3447   8.547   8.332   9.139 -1.9974  0.8361 -0.4778
33732SOL     OW 3448   8.274   6.087   1.384  0.1123  0.2811 -0.1778
33732SOL    HW1 3449   8.251   6.000   1.351 -2.5432  1.1339 -0.8297
33732SOL    HW2 3450   8.365   6.079   1.413 -0.0111 -2.6474 -0.3546
33733SOL     OW 3451   1.935   3.563   5.024  0.3502 -0.3822 -0.2848
33733SOL    HW1 3452   1.911   3.568   4.931  0.6316  0.9762 -0.3142
33733SOL    HW2 3453   1.968   3.651   5.044  1.1065 -0.9197  0.8872
33734SOL     OW 3454  10.158  10.010   2.024  0.1460  0.7331  0.1103
33734SOL    HW1 3455  10.194  10.086   2.069 -0.2701  1.5696 -0.9145
33734SOL    HW2 3456  10.090   9.978   2.083  1.7405 -0.1742  1.5303
33735SOL     OW 3457   4.463   9.961   7.463  0.0242 -0.0439 -0.2192
33735SOL    HW1 3458   4.468   9.979   7.369  0.7014 -1.0515 -0.3849
33735SOL    HW2 3459   4.370   9.971   7.484 -0.4716 -1.7389 -1.4087
33736SOL     OW 3460  10.456   5.412   8.935  0.0159  0.4757 -0.0712
33736SOL    HW1 3461  10.444   5.378   8.846 -0.6518  1.6786 -0.4662
33736SOL    HW2 3462  10.478   5.335   8.987 -2.0747 -0.6961 -0.7870
33737SOL     OW 3463  10.146   5.673   9.647  0.4392  0.2484 -0.3317
33737SOL    HW1 3464  10.074   5.625   9.687  0.2727  0.4742 -0.3611
33737SOL    HW2 3465  10.225   5.634   9.684  0.2954  0.1766 -0.1026
33738SOL     OW 3466   3.621   7.720  10.197  0.4764  0.3267  0.0030
33738SOL    HW1 3467   3.619   7.754  10.287 -0.7228  2.4897 -0.7536
33738SOL    HW2 3468   3.545   7.662  10.192  1.5776 -1.2415  0.8488
33739SOL     OW 3469   7.027   7.911  10.338  0.0487  0.1293  0.2788
33739SOL    HW1 3470   6.960   7.870  10.392 -1.7318  1.9137 -0.4469
33739SOL    HW2 3471   7.028   7.860  10.257 -1.2949  0.7552 -0.1547
33740SOL     OW 3472   4.874  10.635   7.691  0.1725 -0.0544  0.0250
33740SOL    HW1 3473   4.796  10.579   7.690  0.7273 -0.8944  0.8301
33740SOL    HW2 3474   4.933  10.591   7.753  1.1190  0.7806 -0.2596
33741SOL     OW 3475   8.406   5.538   4.639  0.5679  0.3142  0.2014
33741SOL    HW1 3476   8.419   5.461   4.583 -1.4708  0.8396 -1.0985
33741SOL    HW2 3477   8.353   5.505   4.712 -0.3695  0.4470 -0.3935
33742SOL     OW 3478   6.762   4.318   1.591 -0.9120 -0.5555 -0.2556
33742SOL    HW1 3479   6.835   4.287   1.537  0.1585  0.4943  0.5526
33742SOL    HW2 3480   6.729   4.395   1.546 -3.1294 -2.2963 -1.8900
33743SOL     OW 3481   2.259   1.085   3.855 -0.2211 -0.0996  0.6017
33743SOL    HW1 3482   2.223   1.028   3.787 -0.4169 -0.0770  0.6852
33743SOL    HW2 3483   2.305   1.026   3.914  1.2504  0.0299 -0.3503
33744SOL     OW 3484   6.341   8.364   2.079  0.5005 -0.0487  0.3279
33744SOL    HW1 3485   6.312   8.353   1.989  1.2097 -1.6496  0.2611
33744SOL    HW2 3486   6.346   8.275   2.114  2.0386  0.3966  1.3717
33745SOL     OW 3487   8.106   8.929   8.904 -0.3759 -0.1944 -0.1144
33745SOL    HW1 3488   8.096   8.911   8.811  0.3932  0.8951 -0.4212
33745SOL    HW2 3489   8.200   8.936   8.918 -0.4461 -0.9830  0.8800
33746SOL     OW 3490   3.587   5.115   5.382 -0.1672  0.0811  0.1093
33746SOL    HW1 3491   3.604   5.021   5.391 -0.5701  0.0379  0.4185
33746SOL    HW2 3492   3.524   5.135   5.451  0.2231  0.6609  0.3057
33747SOL     OW 3493   0.613   0.942   8.992 -0.3802  0.4276 -0.4170
33747SOL    HW1 3494   0.686   0.990   8.952  0.1510 -0.3358 -0.3702
33747SOL    HW2 3495   0.608   0.860   8.943 -2.3021  1.1528 -1.5618
33748SOL     OW 3496  10.515   7.650   0.619 -0.4194 -0.5611 -0.4022
33748SOL    HW1 3497  10.475   7.594   0.686 -0.1986 -1.9289 -1.3895
33748SOL    HW2 3498  10.609   7.643   0.635 -0.4271  0.6946  0.3588
33749SOL     OW 3499   1.049   6.317  10.259 -0.5899  0.2248  0.2422
33749SOL    HW1 3500   1.106   6.356  10.325 -0.2852  0.4776 -0.1609
33749SOL    HW2 3501   0.979   6.382  10.246  0.0052  0.7357 -0.5464
33750SOL     OW 3502   5.384   4.127   4.200 -0.7841  0.0947 -0.0089
33750SOL    HW1 3503   5.440   4.186   4.250  0.6408 -0.9139 -0.3802
33750SOL    HW2 3504   5.317   4.099   4.263 -1.7158  2.3013  0.1046
33751SOL     OW 3505   7.379   7.314  10.019 -0.1003  0.0426 -0.2387
33751SOL    HW1 3506   7.378   7.223  10.049 -0.2806  0.7271  2.0635
33751SOL    HW2 3507   7.335   7.362  10.089  0.8739  2.0378 -0.9245
33752SOL     OW 3508   3.224   9.567   3.013  0.5796 -0.0407  0.2302
33752SOL    HW1 3509   3.298   9.512   3.035  1.8380  1.8843  1.0549
33752SOL    HW2 3510   3.228   9.639   3.075 -0.7046  1.2322 -1.0873
33753SOL     OW 3511   8.796   5.586   9.569  0.2093  0.0717  0.2278
33753SOL    HW1 3512   8.757   5.586   9.482  2.3958 -1.7701 -0.8745
33753SOL    HW2 3513   8.746   5.522   9.618  0.1340 -0.2633 -0.2810
33754SOL     OW 3514   2.430   9.522  10.103  0.0986  0.1571 -0.0024
33754SOL    HW1 3515   2.372   9.472  10.160 -0.9970  1.4840  0.0856
33754SOL    HW2 3516   2.372   9.557  10.035 -0.1281  4.9507  2.3160
33755SOL     OW 3517   6.661   7.904   0.627 -0.2360  0.3934 -0.6541
33755SOL    HW1 3518   6.575   7.879   0.660  1.3716 -0.5691  3.3048
33755SOL    HW2 3519   6.691   7.829   0.576  0.2419 -1.5818  2.3097
33756SOL     OW 3520   1.811   5.669   5.339  0.1924 -0.1305 -0.0531
33756SOL    HW1 3521   1.721   5.680   5.308  0.2070  1.2230  0.3253
33756SOL    HW2 3522   1.865   5.683   5.261  0.1047 -0.5642 -0.1979
33757SOL     OW 3523   4.519  10.533   0.913  0.2681  0.1601 -0.3434
33757SOL    HW1 3524   4.425  10.548   0.923  0.2810 -0.0305  0.0772
33757SOL    HW2 3525   4.559  10.587   0.982  0.3443 -1.4333  0.9043
33758SOL     OW 3526   9.814   1.314   5.590  0.2611 -0.2028 -0.0483
33758SOL    HW1 3527   9.895   1.356   5.621  0.2701 -0.6557  0.5773
33758SOL    HW2 3528   9.744   1.362   5.635  0.2848 -1.0109  0.8808
33759SOL     OW 3529   4.873   2.012   2.559 -0.0240  0.0618  0.1680
33759SOL    HW1 3530   4.862   2.017   2.464  1.1618 -0.6224 -0.0233
33759SOL    HW2 3531   4.930   1.937   2.572 -1.5676 -0.9559  1.5423
33760SOL     OW 3532   9.414   5.178   0.399 -0.0074  0.4256 -0.2639
33760SOL    HW1 3533   9.386   5.214   0.484 -0.6014  0.0631 -0.2968
33760SOL    HW2 3534   9.442   5.254   0.349  0.8256  0.5940  0.4253
33761SOL     OW 3535   9.770   7.972   3.632  0.0866  0.8965 -0.0954
33761SOL    HW1 3536   9.752   8.009   3.545  0.0929  2.1894  0.4380
33761SOL    HW2 3537   9.708   7.900   3.640  0.4253  0.4284 -1.3694
33762SOL     OW 3538   6.722   3.805   1.443  0.9509  0.4613  0.0964
33762SOL    HW1 3539   6.757   3.828   1.357  1.0308  0.7083  0.1935
33762SOL    HW2 3540   6.629   3.785   1.426  0.9327  0.6432 -0.0268
33763SOL     OW 3541   2.806   8.073   3.386  0.5167  0.0826 -0.0807
33763SOL    HW1 3542   2.819   7.992   3.336  0.2360 -0.4860  0.7585
33763SOL    HW2 3543   2.880   8.128   3.360  0.0168  0.0826 -1.6423
33764SOL     OW 3544   4.573   2.067   1.001  0.0713 -0.0877  0.3746
33764SOL    HW1 3545   4.507   2.086   0.935 -0.3215 -1.1031  0.4570
33764SOL    HW2 3546   4.525   2.064   1.084  0.7853  2.6585  0.9757
33765SOL     OW 3547   7.031   4.241   7.568  0.3201  0.5614  0.0298
33765SOL    HW1 3548   6.966   4.295   7.612 -0.4093 -0.9679  0.8927
33765SOL    HW2 3549   7.104   4.237   7.630 -0.3866 -0.9462  0.7893
33766SOL     OW 3550   2.944   2.720   0.094  0.0406  0.6159 -0.0212
33766SOL    HW1 3551   2.994   2.657   0.041 -0.7983  0.9336 -1.2418
33766SOL    HW2 3552   2.907   2.781   0.030 -1.9239  0.3786  0.8096
33767SOL     OW 3553   9.364   0.796   5.253  0.0314 -0.6713 -0.0630
33767SOL    HW1 3554   9.335   0.887   5.244  1.9764  0.1200  1.2118
33767SOL    HW2 3555   9.319   0.765   5.332 -0.8849 -0.9572 -0.6771
33768SOL     OW 3556   6.946   9.014   8.583 -0.0897  0.1676  0.4374
33768SOL    HW1 3557   7.002   8.946   8.546 -0.6661  0.3294 -0.7546
33768SOL    HW2 3558   6.945   9.083   8.518 -1.1309  0.4576  0.7442
33769SOL     OW 3559   7.076   3.975   9.595 -0.1005  0.0628 -0.0331
33769SOL    HW1 3560   7.085   3.901   9.656  0.6512  0.8331  0.8280
33769SOL    HW2 3561   7.099   3.938   9.510  0.2364 -0.7073  0.3783
33770SOL     OW 3562   3.914   2.747   4.215 -0.1487  0.4275  0.0092
33770SOL    HW1 3563   3.891   2.840   4.212 -1.9656  0.1551  2.6459
33770SOL    HW2 3564   3.838   2.702   4.177  1.2335 -0.0335 -2.4498
33771SOL     OW 3565   3.803   7.041   1.957  0.0237 -0.1670 -0.2944
33771SOL    HW1 3566   3.720   6.995   1.962 -0.7507  1.3441  2.7290
33771SOL    HW2 3567   3.867   6.980   1.994 -0.2636 -0.2962 -0.0038
33772SOL     OW 3568   0.350   0.161   2.634  0.3255 -0.2088 -0.2072
33772SOL    HW1 3569   0.269   0.176   2.682 -0.4445 -0.3380 -1.4080
33772SOL    HW2 3570   0.339   0.213   2.554  1.2514 -0.5627 -0.5669
33773SOL     OW 3571   3.887   4.060   7.670  0.0481 -0.1226  0.6484
33773SOL    HW1 3572   3.969   4.050   7.718 -0.0380  1.5168  1.1930
33773SOL    HW2 3573   3.834   3.986   7.698  0.4869  0.0803  2.1135
33774SOL     OW 3574   7.497   3.112   9.550 -0.0929 -0.2159  0.0069
33774SOL    HW1 3575   7.502   3.112   9.455 -0.5814  0.0416 -0.0186
33774SOL    HW2 3576   7.424   3.054   9.570 -0.4790  0.3349  0.2010
33775SOL     OW 3577   4.540   3.649   7.865  0.5469  0.1874  0.2428
33775SOL    HW1 3578   4.507   3.559   7.868  0.0482  0.3842  0.7276
33775SOL    HW2 3579   4.585   3.654   7.781  0.7512 -0.5753  0.2919
33776SOL     OW 3580   8.517   6.357   7.276  0.5327  0.0379  0.1506
33776SOL    HW1 3581   8.603   6.317   7.269  1.4752  1.9930 -0.1492
33776SOL    HW2 3582   8.465   6.295   7.327  2.0550 -1.2520  0.1910
33777SOL     OW 3583   5.787   9.128   6.010  0.3647 -0.2741  0.0720
33777SOL    HW1 3584   5.768   9.095   6.097  1.9055 -1.9946 -0.1708
33777SOL    HW2 3585   5.703   9.130   5.965 -0.4357  0.5543  1.5312
33778SOL     OW 3586   6.484   1.485   1.608 -0.0676 -0.7825 -0.1526
33778SOL    HW1 3587   6.562   1.498   1.662  0.7198 -1.2310 -1.1585
33778SOL    HW2 3588   6.433   1.566   1.620  1.0283 -0.0540 -0.2492
33779SOL     OW 3589   4.985   3.292   8.431 -0.2889  0.0798 -0.1056
33779SOL    HW1 3590   4.975   3.387   8.425 -0.2642  0.0593 -0.5098
33779SOL    HW2 3591   4.901   3.262   8.465  0.3768  0.4177  1.9843
33780SOL     OW 3592   2.724   2.899   3.556  0.2894  0.0374 -0.7888
33780SOL    HW1 3593   2.747   2.983   3.515  1.9311  1.1253  2.0512
33780SOL    HW2 3594   2.794   2.840   3.529  1.8653  0.9885  0.9360
33781SOL     OW 3595   6.379   4.538   6.119  0.2811 -0.2713 -0.3621
33781SOL    HW1 3596   6.460   4.489   6.133  0.5270 -0.2583 -1.6191
33781SOL    HW2 3597   6.309   4.476   6.141  0.6148 -0.5108  0.0419
33782SOL     OW 3598   7.537   5.595   9.143 -0.3897 -0.1078 -0.2321
33782SOL    HW1 3599   7.577   5.555   9.066 -0.9315 -0.4158 -0.3618
33782SOL    HW2 3600   7.608   5.598   9.208 -0.1108 -0.4846 -0.5121
33783SOL     OW 3601   8.658   0.971   5.423  0.1259 -0.1200  0.4939
33783SOL    HW1 3602   8.710   0.969   5.343  1.2644  2.6061  1.0604
33783SOL    HW2 3603   8.569   0.988   5.394  0.9766  4.0481 -0.2039
33784SOL     OW 3604   2.448   5.823   2.518  0.3029  0.3097  0.1130
33784SOL    HW1 3605   2.531   5.802   2.562  0.4550  0.0757 -0.2803
33784SOL    HW2 3606   2.465   5.805   2.425  0.2331  1.5589 -0.1596
33785SOL     OW 3607   8.841   2.774   2.907  0.1265  0.1561 -0.2133
33785SOL    HW1 3608   8.805   2.697   2.950 -0.2017 -0.0921 -0.9155
33785SOL    HW2 3609   8.833   2.756   2.813 -1.6835  1.7885 -0.4439
33786SOL     OW 3610  10.098   6.708   0.723  0.0775  0.1577  0.3564
33786SOL    HW1 3611  10.050   6.676   0.647 -0.2170  1.7613 -0.1803
33786SOL    HW2 3612  10.093   6.803   0.716  0.6606  0.3490  2.0011
33787SOL     OW 3613   0.634   3.698   3.037  0.3424  0.1214 -0.0212
33787SOL    HW1 3614   0.547   3.695   3.076  0.3506  2.2182  0.2263
33787SOL    HW2 3615   0.633   3.627   2.973 -1.2544 -0.4142  0.5456
33788SOL     OW 3616  10.634   5.372   4.085 -0.9777  0.2398  0.7006
33788SOL    HW1 3617  10.657   5.296   4.138 -0.4878  0.4538  0.7947
33788SOL    HW2 3618  10.714   5.424   4.080 -0.4889 -0.5937 -1.6616
33789SOL     OW 3619  10.628   7.672   7.615  0.3575  0.0598 -0.3577
33789SOL    HW1 3620  10.683   7.642   7.688  1.2024  0.3078 -0.8781
33789SOL    HW2 3621  10.631   7.600   7.553  0.1386  0.1027 -0.4182
33790SOL     OW 3622   3.999   8.008   0.777 -0.0165  0.4093 -0.0361
33790SOL    HW1 3623   3.967   8.062   0.705  0.5560 -0.1404 -0.7135
33790SOL    HW2 3624   3.943   8.031   0.851  0.6726  2.4729 -0.0998
33791SOL     OW 3625   8.066   4.754   8.782  0.0561  0.0053 -0.0044
33791SOL    HW1 3626   8.088   4.670   8.821 -0.3121 -0.3389 -0.5254
33791SOL    HW2 3627   8.147   4.805   8.786 -0.2062  0.3535  2.0916
33792SOL     OW 3628   0.357   0.292   9.940 -0.5201 -0.3401 -0.0344
33792SOL    HW1 3629   0.345   0.359  10.007  0.0550 -0.5129  0.2461
33792SOL    HW2 3630   0.384   0.214   9.988 -0.7731 -0.6575 -0.4002
33793SOL     OW 3631   7.449   6.588   3.549  0.4368  0.0715 -0.0729
33793SOL    HW1 3632   7.416   6.636   3.473  0.3685  1.4373  0.7812
33793SOL    HW2 3633   7.375   6.586   3.610  0.3021 -1.5264 -0.2438
33794SOL     OW 3634   1.936   5.613   2.988  0.1134 -0.7128  0.1631
33794SOL    HW1 3635   1.951   5.522   2.962  2.9053 -0.3760  0.3735
33794SOL    HW2 3636   1.877   5.606   3.064 -0.7843 -2.2196 -0.6194
33795SOL     OW 3637   3.460   8.961   0.440  0.6434 -0.2525  0.3798
33795SOL    HW1 3638   3.446   9.048   0.477 -2.5918 -0.2324 -0.5802
33795SOL    HW2 3639   3.524   8.975   0.371 -1.6690  2.0379 -1.5316
33796SOL     OW 3640   5.551   8.610   7.085 -0.2744 -0.0569  0.0918
33796SOL    HW1 3641   5.517   8.588   6.998 -0.8867  0.3460  0.2225
33796SOL    HW2 3642   5.646   8.602   7.076 -0.4008 -3.7434  0.3722
33797SOL     OW 3643   4.648   0.866  10.446  0.0064 -0.4669  0.4221
33797SOL    HW1 3644   4.684   0.872  10.358 -0.6482  0.1447  0.1842
33797SOL    HW2 3645   4.704   0.803  10.491  1.7158  0.8192  0.2303
33798SOL     OW 3646   1.444   4.583   8.984 -0.2844 -0.5354 -0.0259
33798SOL    HW1 3647   1.487   4.630   8.912 -0.4885 -1.2607 -0.6374
33798SOL    HW2 3648   1.448   4.643   9.058  0.6560 -0.0898 -0.4196
33799SOL     OW 3649   1.616   1.485   2.795  0.0739  0.3018  0.3480
33799SOL    HW1 3650   1.522   1.465   2.796  0.0244  0.5497  0.5777
33799SOL    HW2 3651   1.653   1.422   2.732 -0.1562 -0.1916  0.6947
33800SOL     OW 3652  10.609   2.049   9.814  0.1275 -0.0885  0.2513
33800SOL    HW1 3653  10.693   2.096   9.808 -0.2249  0.3463 -2.4918
33800SOL    HW2 3654  10.543   2.118   9.814 -0.3035 -0.4453  2.0675
33801SOL     OW 3655   6.162   4.625   7.792 -0.3849  0.3607 -0.0481
33801SOL    HW1 3656   6.152   4.665   7.878 -1.6635 -1.2958  0.6141
33801SOL    HW2 3657   6.171   4.531   7.809 -0.2670  0.0362 -1.6979
33802SOL     OW 3658   6.682   9.465   4.797 -0.0285  0.2331  0.1460
33802SOL    HW1 3659   6.771   9.428   4.795 -0.1561 -0.0378 -0.8492
33802SOL    HW2 3660   6.695   9.559   4.809  0.3448  0.0535  1.2765
33803SOL     OW 3661   7.453   9.917   7.063 -0.4967 -0.4040 -0.1386
33803SOL    HW1 3662   7.481   9.860   7.135 -0.1884  0.7448  0.6852
33803SOL    HW2 3663   7.414   9.858   6.999  0.0641 -1.5631  0.5619
33804SOL     OW 3664   0.698   7.552   4.129  0.0802  0.2547  0.3324
33804SOL    HW1 3665   0.754   7.514   4.061  1.3792 -1.2199  2.1344
33804SOL    HW2 3666   0.615   7.504   4.122 -0.1834  0.8348 -0.8328
33805SOL     OW 3667   1.394   0.494   5.273 -0.3813  0.0373  0.0545
33805SOL    HW1 3668   1.470   0.549   5.258 -0.7767  0.8605  1.0312
33805SOL    HW2 3669   1.389   0.483   5.368 -0.9837 -0.7240 -0.0499
33806SOL     OW 3670   9.195   7.690   6.110  0.0669  1.0841 -0.1218
33806SOL    HW1 3671   9.274   7.738   6.136  0.3140 -0.0350  1.3078
33806SOL    HW2 3672   9.123   7.749   6.131  0.4339  1.3797  0.3326
33807SOL     OW 3673   8.435   9.296   2.076  0.5514 -0.7344  0.2699
33807SOL    HW1 3674   8.400   9.373   2.122  1.3156  0.2414 -0.7149
33807SOL    HW2 3675   8.360   9.260   2.028 -0.1957 -1.6027  1.9816
33808SOL     OW 3676   9.136   8.621   3.294 -0.0161 -0.1451 -0.5010
33808SOL    HW1 3677   9.105   8.566   3.222  1.0896  1.3153 -2.1708
33808SOL    HW2 3678   9.222   8.652   3.266  0.6064  0.2511  1.6138
33809SOL     OW 3679   3.374   8.635   5.677 -0.0855 -0.3539 -0.0932
33809SOL    HW1 3680   3.314   8.693   5.725 -1.4043  0.3246 -2.4220
33809SOL    HW2 3681   3.461   8.661   5.706 -0.7812  0.3771  1.4958
33810SOL     OW 3682   3.900   6.885   9.243  0.0719 -0.5153 -0.3087
33810SOL    HW1 3683   3.848   6.832   9.182 -0.3609  1.3008 -1.5926
33810SOL    HW2 3684   3.843   6.959   9.264  0.5052 -0.7020  1.7752
33811SOL     OW 3685   4.449   0.677   8.293 -0.5450 -0.5232  0.0228
33811SOL    HW1 3686   4.515   0.746   8.299 -0.7189 -0.3824  0.3468
33811SOL    HW2 3687   4.480   0.620   8.223  0.4870 -1.0513  0.8816
33812SOL     OW 3688   7.347   2.642   8.699 -0.1907  0.3043 -0.4978
33812SOL    HW1 3689   7.279   2.590   8.656 -0.1792 -0.5280  0.4576
33812SOL    HW2 3690   7.389   2.690   8.628 -1.4955  0.5126 -1.1613
33813SOL     OW 3691   8.771   0.251   0.486 -0.2892  0.0462  0.7405
33813SOL    HW1 3692   8.747   0.234   0.577 -0.9280 -0.3680  0.4996
33813SOL    HW2 3693   8.689   0.271   0.442  0.0899  0.8360  0.3721
33814SOL     OW 3694   7.194   3.596   7.940 -0.1934 -0.0871 -0.0357
33814SOL    HW1 3695   7.284   3.621   7.962 -0.8774  1.5445  1.0397
33814SOL    HW2 3696   7.142   3.621   8.016 -1.6105 -0.8186 -0.7154
33815SOL     OW 3697  10.048   1.605   9.807  0.1729  0.1041  0.6006
33815SOL    HW1 3698   9.998   1.677   9.769  0.0428 -0.2233  0.1477
33815SOL    HW2 3699  10.140   1.628   9.790  0.1576  0.4069  0.9029
33816SOL     OW 3700   6.397   1.190   6.051  0.4166  0.5898  0.0460
33816SOL    HW1 3701   6.320   1.245   6.067  0.5100  0.6069  0.4289
33816SOL    HW2 3702   6.467   1.253   6.030  0.9725  0.7500  2.1957
33817SOL     OW 3703   2.568   8.307   1.725 -0.4728  0.0176 -0.0541
33817SOL    HW1 3704   2.580   8.383   1.781 -1.3185  0.2562 -0.1687
33817SOL    HW2 3705   2.565   8.343   1.636  0.1897 -0.2755 -0.1961
33818SOL     OW 3706   1.727   6.447   4.140  0.2177 -0.6118  0.5751
33818SOL    HW1 3707   1.671   6.478   4.069  0.1631  0.7801  1.1844
33818SOL    HW2 3708   1.672   6.385   4.189  0.3592 -1.8138 -0.7260
33819SOL     OW 3709   7.274   8.436   3.096 -0.0852 -0.3280  0.6005
33819SOL    HW1 3710   7.350   8.383   3.074  0.5701  0.2584  1.3861
33819SOL    HW2 3711   7.211   8.418   3.026  0.8473 -0.6692 -0.1764
33820SOL     OW 3712   9.706   9.229   9.990  0.5397 -0.7156  0.0741
33820SOL    HW1 3713   9.759   9.189  10.059  1.6015 -0.1266 -0.3741
33820SOL    HW2 3714   9.664   9.304  10.032  1.8367  0.1401 -0.0793
33821SOL     OW 3715   2.726   5.856   1.806  0.1660 -0.7876 -0.4338
33821SOL    HW1 3716   2.783   5.780   1.805  0.8197 -0.3116  0.1222
33821SOL    HW2 3717   2.647   5.827   1.760  0.2178 -1.9352  0.1782
33822SOL     OW 3718   3.517   2.178   3.935 -0.5374 -0.0625  0.2475
33822SOL    HW1 3719   3.536   2.094   3.975 -1.9181 -0.2713  0.5300
33822SOL    HW2 3720   3.547   2.170   3.845  1.1273 -0.1472  0.7706
33823SOL     OW 3721   1.572   0.737   9.530  0.6778 -0.7743 -0.3010
33823SOL    HW1 3722   1.484   0.762   9.504  0.5374  0.1330  0.9276
33823SOL    HW2 3723   1.560   0.667   9.594  0.6759  0.7264  1.4440
33824SOL     OW 3724   1.430   1.777   8.120  0.2726 -0.2836 -0.4977
33824SOL    HW1 3725   1.386   1.832   8.056  1.0828  1.2802  0.2410
33824SOL    HW2 3726   1.368   1.707   8.138 -0.5311  0.0219 -1.9340
33825SOL     OW 3727   0.619   3.363   0.616  0.0709  0.0561 -0.3117
33825SOL    HW1 3728   0.536   3.374   0.570 -0.2471 -1.1487 -0.0715
33825SOL    HW2 3729   0.621   3.435   0.680 -0.7832  0.1040 -0.3296
33826SOL     OW 3730   2.693   0.708   4.028 -0.6867  0.0658  0.3508
33826SOL    HW1 3731   2.720   0.691   4.118 -0.8216 -0.9975  0.2113
33826SOL    HW2 3732   2.737   0.789   4.004  1.2107 -0.8216  0.6276
33827SOL     OW 3733   0.865   3.673   0.656  0.4038  0.1108  0.5468
33827SOL    HW1 3734   0.827   3.747   0.608 -1.4354 -0.7473  0.5931
33827SOL    HW2 3735   0.791   3.614   0.671  1.1816 -0.2902  3.2478
33828SOL     OW 3736   5.141   4.085   7.652 -0.0151 -0.7551 -0.0851
33828SOL    HW1 3737   5.107   4.004   7.614  1.1438 -0.5665 -1.6170
33828SOL    HW2 3738   5.206   4.056   7.716  0.7084 -1.0587 -0.9362
33829SOL     OW 3739  10.087   7.225   5.995  0.4387 -0.3238  0.0394
33829SOL    HW1 3740  10.054   7.150   6.045  1.6127 -0.6306  0.3837
33829SOL    HW2 3741  10.182   7.215   5.996  0.6420  1.3095  0.3037
33830SOL     OW 3742   1.233   1.569   9.398  0.2576  0.1631  0.3110
33830SOL    HW1 3743   1.187   1.485   9.404  1.7469 -0.6957  0.2652
33830SOL    HW2 3744   1.193   1.623   9.466 -0.0333 -0.9483  1.0634
33831SOL     OW 3745   6.110   1.014   6.440 -0.7296  0.2374 -0.2758
33831SOL    HW1 3746   6.117   0.957   6.363 -0.4052 -1.5198  0.9872
33831SOL    HW2 3747   6.016   1.027   6.452 -0.8213 -0.2653 -0.4325
33832SOL     OW 3748   8.357   4.705   6.360  0.1862 -0.2933  0.0616
33832SOL    HW1 3749   8.274   4.751   6.372 -0.1959 -1.2706  1.3247
33832SOL    HW2 3750   8.357   4.679   6.268 -0.3989  0.6510 -0.2228
33833SOL     OW 3751   8.549   3.099   6.119  0.4841 -0.2803 -0.7297
33833SOL    HW1 3752   8.586   3.149   6.192 -1.3919  0.3918 -0.1964
33833SOL    HW2 3753   8.594   3.015   6.123  0.0870 -0.4492  1.5060
33834SOL     OW 3754  10.443   9.709   6.699 -0.2117  0.3045 -0.0409
33834SOL    HW1 3755  10.489   9.789   6.723  1.1177 -0.1930 -0.7884
33834SOL    HW2 3756  10.373   9.738   6.641  1.1391  0.8475 -1.4922
33835SOL     OW 3757   2.056   4.800  10.615 -0.6270 -0.2836  0.9132
33835SOL    HW1 3758   1.991   4.780  10.548 -0.5393 -0.3622  0.8515
33835SOL    HW2 3759   2.005   4.835  10.688 -0.5737  1.2191  0.2587
33836SOL     OW 3760   5.859   6.662   3.673 -0.1203  0.2500 -0.2199
33836SOL    HW1 3761   5.861   6.729   3.741  0.3391 -1.5161  1.5857
33836SOL    HW2 3762   5.893   6.583   3.715 -0.4175 -1.0910 -2.3272
33837SOL     OW 3763  10.023   7.501   8.019  0.0848 -0.1604 -0.4276
33837SOL    HW1 3764   9.987   7.565   8.080  0.2898  0.4621 -0.9609
33837SOL    HW2 3765  10.034   7.548   7.937  0.5727 -0.7819 -0.7299
33838SOL     OW 3766   2.447  10.251   8.522 -0.4145 -0.1903  0.5325
33838SOL    HW1 3767   2.436  10.343   8.498 -0.5105  0.5051  2.9228
33838SOL    HW2 3768   2.502  10.214   8.453  0.8772  2.0473  0.2623
33839SOL     OW 3769   6.773   8.291   3.029  0.5168  0.4351 -0.0827
33839SOL    HW1 3770   6.707   8.232   3.065  0.1806  1.9300  1.9164
33839SOL    HW2 3771   6.818   8.327   3.105  2.9600  0.3050 -1.3463
33840SOL     OW 3772   8.169   6.024   8.795 -0.4009  0.2360 -0.0763
33840SOL    HW1 3773   8.088   5.998   8.751 -0.9006 -1.0797  1.5175
33840SOL    HW2 3774   8.232   5.956   8.771 -0.7686 -0.6734  1.4324
33841SOL     OW 3775   0.683  10.576  10.375 -0.1552  0.4485  0.1706
33841SOL    HW1 3776   0.595  10.587  10.410 -1.4176 -0.9446 -2.2558
33841SOL    HW2 3777   0.699  10.657  10.326  0.1440  0.9032  1.0007
33842SOL     OW 3778   9.577   4.190   8.463 -0.1384  0.7580  0.1410
33842SOL    HW1 3779   9.634   4.256   8.502 -1.3171  1.4405  0.7678
33842SOL    HW2 3780   9.544   4.231   8.383  0.0243  0.4663 -0.0800
33843SOL     OW 3781   5.172   3.270   5.945 -0.2381  0.2559  0.4159
33843SOL    HW1 3782   5.115   3.331   5.992  1.0966  1.4227  0.6080
33843SOL    HW2 3783   5.260   3.290   5.978  0.3462 -1.1559 -0.2112
33844SOL     OW 3784   6.651   7.860   2.178  0.0932 -0.3160 -0.2706
33844SOL    HW1 3785   6.581   7.880   2.241 -0.4551 -0.0054 -0.9641
33844SOL    HW2 3786   6.642   7.927   2.110  2.3004  0.9308  0.5742
33845SOL     OW 3787   1.591   9.949   2.052 -0.7257 -0.5649  0.6098
33845SOL    HW1 3788   1.659  10.005   2.015 -2.7049  2.6000  1.3154
33845SOL    HW2 3789   1.611   9.945   2.146 -0.4901 -1.2110  0.5340
33846SOL     OW 3790   0.853   2.033   2.660 -0.1496  0.4776  1.0299
33846SOL    HW1 3791   0.939   1.991   2.662 -1.1788 -1.8470 -0.2792
33846SOL    HW2 3792   0.811   2.006   2.742 -0.3266  0.0618  0.8008
33847SOL     OW 3793   9.964   3.892   2.950 -0.4546  0.1587  0.3032
33847SOL    HW1 3794   9.914   3.839   3.012 -0.0596  0.5176  0.9415
33847SOL    HW2 3795   9.943   3.855   2.865 -0.1189 -1.0919  0.7359
33848SOL     OW 3796   9.252   9.548   0.873  0.4851 -0.7395  0.4233
33848SOL    HW1 3797   9.237   9.456   0.898  0.3285 -0.6066  0.8231
33848SOL    HW2 3798   9.165   9.584   0.860  0.4893 -0.3407  1.3913
33849SOL     OW 3799   9.272   2.074   6.311 -0.1900 -0.5716 -0.0304
33849SOL    HW1 3800   9.354   2.119   6.332  0.7742 -1.5289 -1.5423
33849SOL    HW2 3801   9.208   2.145   6.302  0.6740  0.2724  0.2395
33850SOL     OW 3802   1.381   9.075   5.085 -0.4208 -1.2140 -0.3706
33850SOL    HW1 3803   1.311   9.137   5.061 -0.3733 -1.2617 -0.6308
33850SOL    HW2 3804   1.461   9.128   5.083 -0.7773 -0.2182  3.3302
33851SOL     OW 3805   2.127   8.073   2.640  0.4393 -0.2103 -0.2110
33851SOL    HW1 3806   2.115   8.089   2.734  0.5938  1.3958 -0.4362
33851SOL    HW2 3807   2.069   7.999   2.620  1.0254 -1.1368  1.2991
33852SOL     OW 3808   8.628   1.217   5.846 -0.2562  0.1132 -0.2381
33852SOL    HW1 3809   8.667   1.269   5.917 -0.7152  0.7669 -0.4535
33852SOL    HW2 3810   8.656   1.261   5.766  0.5305 -0.8113 -0.4928
33853SOL     OW 3811   8.102   5.629   8.995  0.0150  0.3606 -0.1248
33853SOL    HW1 3812   8.029   5.657   8.940 -1.4869 -3.2600 -0.2530
33853SOL    HW2 3813   8.065   5.624   9.083  1.0004  1.2860  0.3696
33854SOL     OW 3814   8.561   0.696   3.396 -0.1966  0.3092  0.8135
33854SOL    HW1 3815   8.563   0.788   3.419 -1.5638  0.2807  1.0883
33854SOL    HW2 3816   8.611   0.653   3.465 -2.5404  0.4574  2.7359
33855SOL     OW 3817   5.470   7.772   5.288  0.6785  0.9291  0.5816
33855SOL    HW1 3818   5.384   7.729   5.285  1.0872  0.0054  1.3843
33855SOL    HW2 3819   5.501   7.769   5.198  0.0528  0.8831  0.3588
33856SOL     OW 3820   0.492   9.662   6.641  0.4338  0.6487 -0.3623
33856SOL    HW1 3821   0.554   9.640   6.572  1.0468 -0.5769  0.5381
33856SOL    HW2 3822   0.508   9.597   6.710 -0.0107  1.9390  1.0268
33857SOL     OW 3823   5.754   1.810   0.890  0.0953 -0.3962 -0.4937
33857SOL    HW1 3824   5.675   1.819   0.944  0.1636 -0.9972 -0.2860
33857SOL    HW2 3825   5.722   1.778   0.806  0.1751 -1.2592 -0.2046
33858SOL     OW 3826   8.991   6.057  10.517 -0.2066 -0.1756  0.0950
33858SOL    HW1 3827   9.039   6.104  10.450  1.0078 -0.6237  0.6246
33858SOL    HW2 3828   9.005   5.964  10.496  1.1867 -0.3587  1.5900
33859SOL     OW 3829   8.823  10.110   3.897 -0.3088  0.2753 -0.5002
33859SOL    HW1 3830   8.758  10.157   3.949 -0.3127 -0.3231  0.0568
33859SOL    HW2 3831   8.825  10.022   3.935  2.4509  0.8611  1.0270
33860SOL     OW 3832   6.875   7.773   9.562 -0.0970  0.0434  0.5253
33860SOL    HW1 3833   6.803   7.801   9.618 -0.2250 -0.3933  0.5865
33860SOL    HW2 3834   6.833   7.737   9.484 -0.0635 -2.0601  1.3979
33861SOL     OW 3835   2.163   6.228   0.012 -0.4270 -0.2582 -0.2541
33861SOL    HW1 3836   2.196   6.300   0.067 -0.1202  0.0185 -0.7864
33861SOL    HW2 3837   2.192   6.251  -0.076  1.5040 -2.0785 -0.1776
33862SOL     OW 3838   8.444   6.985   9.352 -0.1060 -0.2248  0.3010
33862SOL    HW1 3839   8.461   6.894   9.329 -0.8849  0.1747 -2.0939
33862SOL    HW2 3840   8.530   7.022   9.370  0.6403 -0.5719 -2.2718
33863SOL     OW 3841   3.565   8.648   5.988 -0.1600  0.3259 -0.0302
33863SOL    HW1 3842   3.479   8.626   6.022 -0.6002  0.9480 -0.7333
33863SOL    HW2 3843   3.612   8.565   5.986 -1.6251 -0.5231 -2.1836
33864SOL     OW 3844   1.857   3.566   1.799  0.0299 -0.3901 -0.0122
33864SOL    HW1 3845   1.872   3.640   1.740  1.8898  0.5444  1.4891
33864SOL    HW2 3846   1.824   3.496   1.743 -0.2689  1.0921 -1.7615
33865SOL     OW 3847   5.329   2.713   9.506  0.2024  0.4664 -0.7311
33865SOL    HW1 3848   5.395   2.719   9.438  0.8893 -0.8632 -0.2303
33865SOL    HW2 3849   5.371   2.662   9.576 -1.1092  0.1830 -0.1078
33866SOL     OW 3850   8.383   6.404   4.402 -0.1360  0.6032 -0.0481
33866SOL    HW1 3851   8.375   6.310   4.416  0.0950  0.2927 -1.7941
33866SOL    HW2 3852   8.477   6.421   4.403 -0.1181  0.5953 -0.9692
33867SOL     OW 3853   2.171   2.635   6.517  0.0379  0.1504  0.1497
33867SOL    HW1 3854   2.210   2.604   6.599 -0.8054 -1.2650  0.0584
33867SOL    HW2 3855   2.085   2.669   6.543 -0.2951 -0.4448 -0.1476
33868SOL     OW 3856   8.349   4.220   7.192  0.3023  0.3503 -0.0371
33868SOL    HW1 3857   8.379   4.222   7.101  0.1919 -0.5789 -0.1007
33868SOL    HW2 3858   8.362   4.130   7.220  1.4991  0.8958  1.2718
33869SOL     OW 3859   5.303   4.678   5.615  0.0016  0.0876 -0.0228
33869SOL    HW1 3860   5.383   4.673   5.562 -0.8764  0.1322 -1.3965
33869SOL    HW2 3861   5.331   4.717   5.698  1.4337 -0.0847 -0.4091
33870SOL     OW 3862   8.307   4.585   8.032  0.3154 -0.2065  0.5341
33870SOL    HW1 3863   8.272   4.601   7.944  0.6675  0.4771  0.5152
33870SOL    HW2 3864   8.344   4.669   8.059  1.6023 -0.8055  0.7083
33871SOL     OW 3865   8.163   9.226   1.687 -0.8612 -0.1482  0.4433
33871SOL    HW1 3866   8.156   9.283   1.610 -0.8440 -0.2405  0.3734
33871SOL    HW2 3867   8.107   9.151   1.666  0.8913 -1.2703 -0.4488
33872SOL     OW 3868   6.041   0.115   2.427  0.7359  0.0343 -0.2640
33872SOL    HW1 3869   6.066   0.043   2.368  0.1395 -0.3814 -0.0120
33872SOL    HW2 3870   5.950   0.133   2.405  1.1559  1.3922 -1.0168
33873SOL     OW 3871   3.712   7.745   8.664 -0.3570 -0.0331  0.2241
33873SOL    HW1 3872   3.774   7.818   8.663 -0.7451  0.3954 -2.8635
33873SOL    HW2 3873   3.627   7.787   8.678 -0.2142 -0.4079  2.4996
33874SOL     OW 3874   0.348   0.619   6.051  0.4874  0.5097 -0.2529
33874SOL    HW1 3875   0.290   0.668   6.109  0.5784 -0.8101  0.9850
33874SOL    HW2 3876   0.289   0.580   5.986 -0.2186 -1.4667  1.4469
33875SOL     OW 3877   1.246   8.366   6.355  0.3379  0.3801  0.1686
33875SOL    HW1 3878   1.281   8.432   6.414  1.4453 -1.1455  1.2836
33875SOL    HW2 3879   1.322   8.333   6.307 -0.1150 -0.4318 -0.0153
33876SOL     OW 3880   7.611   3.462   4.264 -0.3053 -0.2940  0.0229
33876SOL    HW1 3881   7.523   3.457   4.228  0.0049 -1.0183 -0.6695
33876SOL    HW2 3882   7.635   3.371   4.283 -0.0168 -0.0355  0.9986
33877SOL     OW 3883   8.313   5.182   7.444 -0.6179  0.4728 -0.0274
33877SOL    HW1 3884   8.275   5.244   7.505 -0.7147  0.8599 -0.4772
33877SOL    HW2 3885   8.305   5.224   7.358 -0.8832 -0.2495 -0.3638
33878SOL     OW 3886   8.235   6.861   8.343 -0.9699  0.2426 -0.5378
33878SOL    HW1 3887   8.140   6.860   8.349 -0.9699 -0.6767 -0.5766
33878SOL    HW2 3888   8.264   6.892   8.429 -1.2765 -0.8698 -0.0168
33879SOL     OW 3889   3.659  10.100   0.157 -0.2078 -0.0034  0.3150
33879SOL    HW1 3890   3.752  10.107   0.138 -0.3214  1.3435  0.1740
33879SOL    HW2 3891   3.654  10.052   0.239  0.6291  0.2461  0.5140
33880SOL     OW 3892   2.005   7.362   4.849 -0.2465  0.2002  0.2056
33880SOL    HW1 3893   2.023   7.277   4.890  0.4157  0.0635 -0.3433
33880SOL    HW2 3894   1.932   7.398   4.899 -1.5787 -1.3732 -0.5085
33881SOL     OW 3895   1.037   4.514   4.871 -0.6788 -0.0343  0.5303
33881SOL    HW1 3896   1.051   4.420   4.855 -0.3229 -0.0768  1.0877
33881SOL    HW2 3897   1.052   4.554   4.785  0.1044 -0.3863  0.4904
33882SOL     OW 3898   4.018  10.094   7.567 -0.1734  0.3147 -0.1799
33882SOL    HW1 3899   3.939  10.134   7.605 -1.0979 -1.1824 -0.4535
33882SOL    HW2 3900   4.038  10.021   7.624  1.4628  1.0705  0.2720
33883SOL     OW 3901   6.101   4.241   8.744 -0.7326  0.0275  0.7529
33883SOL    HW1 3902   6.117   4.225   8.837  0.8605 -1.0306  0.3432
33883SOL    HW2 3903   6.008   4.221   8.732 -1.1230  0.8358  2.2226
33884SOL     OW 3904   5.497   5.291   7.844  0.1981  0.0010  0.1558
33884SOL    HW1 3905   5.568   5.348   7.815 -0.6491  0.6513 -0.6790
33884SOL    HW2 3906   5.532   5.202   7.834  2.3527  0.2820  3.4903
33885SOL     OW 3907   6.098   3.923   4.917 -0.0783  0.5376  0.0200
33885SOL    HW1 3908   6.057   3.899   5.000  0.6866 -1.4278 -0.0982
33885SOL    HW2 3909   6.065   3.857   4.855 -0.3423  1.7435 -1.1609
33886SOL     OW 3910   9.473   7.918   9.800 -0.9074  0.3446  0.0003
33886SOL    HW1 3911   9.465   8.007   9.765  0.0638  0.6385  0.5131
33886SOL    HW2 3912   9.544   7.878   9.749 -0.8134  0.1183  0.3063
33887SOL     OW 3913   9.736   7.037   0.437 -0.1542  0.3235 -0.3059
33887SOL    HW1 3914   9.761   7.029   0.530  1.1210 -1.6087 -0.7632
33887SOL    HW2 3915   9.716   7.130   0.427  0.8372  0.8220  1.6433
33888SOL     OW 3916   2.081   1.006   5.087 -0.9709 -0.5052  0.2558
33888SOL    HW1 3917   2.030   0.972   5.161  1.0953 -1.0501  1.5052
33888SOL    HW2 3918   2.058   1.099   5.084 -4.6342 -1.2815 -1.5051
33889SOL     OW 3919  10.078   0.837   8.319  0.2318 -0.2992  0.6164
33889SOL    HW1 3920  10.106   0.897   8.388  2.5441 -2.2203  1.4621
33889SOL    HW2 3921  10.149   0.840   8.255 -1.2761  0.4602 -1.1111
33890SOL     OW 3922   4.426   6.575   8.010  0.3258 -0.1640  0.3875
33890SOL    HW1 3923   4.398   6.578   7.919  0.3278  0.0720  0.3923
33890SOL    HW2 3924   4.419   6.666   8.040  2.7205  0.2780 -0.1210
33891SOL     OW 3925   0.789   3.929   3.067 -0.0279  0.2481  0.1721
33891SOL    HW1 3926   0.739   3.848   3.065 -2.3869  1.5723  1.4065
33891SOL    HW2 3927   0.776   3.967   2.981  0.8328 -0.5118 -0.3067
33892SOL     OW 3928   3.803   2.747   7.221 -0.2086 -0.4166 -0.5284
33892SOL    HW1 3929   3.763   2.782   7.142 -0.1364 -1.8194 -1.2245
33892SOL    HW2 3930   3.896   2.737   7.199 -0.2574 -1.1931 -0.4288
33893SOL     OW 3931   9.676   2.316   3.430 -0.0863 -0.2596 -0.1437
33893SOL    HW1 3932   9.704   2.355   3.513 -0.5951 -2.1234  0.9664
33893SOL    HW2 3933   9.688   2.222   3.443 -2.4239 -0.7947 -1.2783
33894SOL     OW 3934   7.351   5.882  10.555  0.1200  0.0135 -0.2713
33894SOL    HW1 3935   7.262   5.910  10.574 -0.7302 -2.0222 -0.9609
33894SOL    HW2 3936   7.368   5.913  10.466 -0.6563 -1.2127 -0.8732
33895SOL     OW 3937   0.288   0.705   6.665 -0.0576  0.1547 -0.3047
33895SOL    HW1 3938   0.331   0.760   6.730 -0.6973  1.3488 -0.8603
33895SOL    HW2 3939   0.358   0.677   6.607  0.5494 -1.0649  0.9476
33896SOL     OW 3940   9.499   0.280   0.088 -0.5947  0.0599 -0.7813
33896SOL    HW1 3941   9.535   0.240   0.167 -1.5242 -0.1050 -0.4314
33896SOL    HW2 3942   9.435   0.344   0.121 -2.6458 -1.5883 -1.4150
33897SOL     OW 3943   7.171   9.941   7.163  0.0348  0.7304 -0.4054
33897SOL    HW1 3944   7.263   9.919   7.149 -0.0251  0.4877 -0.4234
33897SOL    HW2 3945   7.155  10.016   7.105 -0.3905 -0.6789 -2.2016
33898SOL     OW 3946   9.498  10.160   7.762 -0.6116 -0.2431  0.7178
33898SOL    HW1 3947   9.417  10.208   7.743 -0.0145  1.2950  1.7896
33898SOL    HW2 3948   9.475  10.102   7.835 -1.2480 -1.3774 -0.3497
33899SOL     OW 3949   1.336   4.976   0.231  0.7355  0.2848 -0.5188
33899SOL    HW1 3950   1.278   4.939   0.297  1.4578 -1.2664 -0.7072
33899SOL    HW2 3951   1.288   4.967   0.149  0.5164  0.6786 -0.4364
33900SOL     OW 3952   8.926   2.960  10.428  0.0434  0.0565  0.0377
33900SOL    HW1 3953   8.903   3.050  10.451  1.4020  0.1748  1.0592
33900SOL    HW2 3954   8.922   2.912  10.510  0.0843 -0.6480 -0.3643
33901SOL     OW 3955   6.649  10.189   3.086 -0.9249 -0.3533  0.0745
33901SOL    HW1 3956   6.621  10.111   3.039 -1.7634 -0.8982  1.4474
33901SOL    HW2 3957   6.735  10.166   3.121 -0.3321  0.0257 -1.0628
33902SOL     OW 3958   9.531   1.038   6.039  0.0120 -0.3588  0.1843
33902SOL    HW1 3959   9.484   1.007   6.116  1.5822 -1.3941  0.7802
33902SOL    HW2 3960   9.613   0.989   6.040  0.7181  0.7205 -1.3078
33903SOL     OW 3961   9.323   4.424   4.555 -0.5652  0.5624  0.1808
33903SOL    HW1 3962   9.393   4.359   4.559 -1.2144 -0.1038  2.2684
33903SOL    HW2 3963   9.246   4.375   4.525 -0.9716  0.4058  1.4176
33904SOL     OW 3964   6.081   9.011   8.755 -0.4888  0.2437  0.2222
33904SOL    HW1 3965   6.081   8.929   8.806 -1.9809  0.9033  1.3819
33904SOL    HW2 3966   6.114   8.986   8.669  1.0100 -1.1627  1.1537
33905SOL     OW 3967   2.830   3.939   3.905 -0.0354  0.4352  0.0656
33905SOL    HW1 3968   2.802   4.019   3.951 -1.8940 -0.7048  1.0133
33905SOL    HW2 3969   2.796   3.950   3.816  1.7752  1.7204 -0.5141
33906SOL     OW 3970   1.597   1.735   6.398  0.0106  0.4270 -0.0971
33906SOL    HW1 3971   1.539   1.757   6.326 -0.2896 -0.3461 -0.1038
33906SOL    HW2 3972   1.684   1.765   6.370 -0.3818  1.6716 -0.0476
33907SOL     OW 3973   2.883   2.620   5.343  0.1168  0.1041  0.0211
33907SOL    HW1 3974   2.931   2.608   5.425 -0.5225 -0.3839  0.3324
33907SOL    HW2 3975   2.915   2.703   5.308 -0.0847  0.6465  1.0961
33908SOL     OW 3976   0.780   6.375   1.439  0.2762  0.2242 -0.2527
33908SOL    HW1 3977   0.860   6.425   1.424  0.7299 -0.7148 -1.1436
33908SOL    HW2 3978   0.791   6.339   1.527  0.0021  1.5563  0.3390
33909SOL     OW 3979  10.534   1.937   6.910  0.1774  0.1230 -0.0535
33909SOL    HW1 3980  10.444   1.930   6.940 -0.0884 -0.1220 -0.8727
33909SOL    HW2 3981  10.542   1.870   6.842  0.7008  0.7519 -0.6364
33910SOL     OW 3982   4.538   9.000   0.763 -0.1433  0.1768  0.0733
33910SOL    HW1 3983   4.505   8.983   0.675 -0.1453 -1.3912  0.3485
33910SOL    HW2 3984   4.482   9.069   0.797 -0.0662  0.8922 -1.1840
33911SOL     OW 3985   4.031   1.582   2.269 -0.2839 -0.2123  0.1697
33911SOL    HW1 3986   3.948   1.583   2.318  0.0467  0.4384  0.7289
33911SOL    HW2 3987   4.085   1.518   2.315  0.0995  0.5463  0.7968
33912SOL     OW 3988   2.160   1.423   3.764 -0.0006 -0.2012 -0.7406
33912SOL    HW1 3989   2.236   1.471   3.799  0.2222 -0.4568 -0.8685
33912SOL    HW2 3990   2.085   1.479   3.784  0.2013 -0.0310 -0.4502
33913SOL     OW 3991   8.508   5.606  10.347 -0.3789 -0.1355  0.7921
33913SOL    HW1 3992   8.476   5.677  10.292 -0.3247 -0.4752  0.3118
33913SOL    HW2 3993   8.468   5.527  10.311 -0.8412 -0.2982  1.6329
33914SOL     OW 3994   6.279   6.616   3.503 -0.6146 -0.0232  0.0578
33914SOL    HW1 3995   6.362   6.649   3.538 -1.6885  3.3442 -0.3003
33914SOL    HW2 3996   6.306   6.548   3.440  1.7734  0.1279  0.7910
33915SOL     OW 3997   4.314   2.648   1.684  0.0208  0.4739  0.2130
33915SOL    HW1 3998   4.224   2.679   1.690 -0.3906 -0.6009 -0.1704
33915SOL    HW2 3999   4.330   2.637   1.590  0.5907  0.7375  0.2699
33916SOL     OW 4000   3.664   0.885   1.544  0.6338 -0.0361 -0.1637
33916SOL    HW1 4001   3.654   0.980   1.533 -2.3409 -0.0844  1.2574
33916SOL    HW2 4002   3.686   0.874   1.636  0.4359 -0.7708 -0.2033
33917SOL     OW 4003   8.644   5.861   0.405  0.0845 -0.0719 -0.1533
33917SOL    HW1 4004   8.694   5.854   0.324  0.7161  0.3052  0.2004
33917SOL    HW2 4005   8.610   5.773   0.421  2.8279 -1.0322  1.0172
33918SOL     OW 4006   0.551   3.900   6.848  0.4326 -0.2647 -0.1277
33918SOL    HW1 4007   0.588   3.925   6.763  0.5028 -1.1917 -0.3826
33918SOL    HW2 4008   0.457   3.896   6.834  0.3489  0.5993  0.1214
33919SOL     OW 4009   7.728   0.506   7.487 -0.0776  0.0322 -1.0512
33919SOL    HW1 4010   7.737   0.504   7.582  0.5276 -1.2277 -1.1057
33919SOL    HW2 4011   7.637   0.532   7.471 -0.1861  0.2290 -0.1261
33920SOL     OW 4012   9.096   2.521  10.617  0.0294 -0.1179  0.2024
33920SOL    HW1 4013   9.001   2.537  10.622  0.0477 -0.0805  0.4712
33920SOL    HW2 4014   9.129   2.552  10.701  0.5305  1.6228 -0.5807
33921SOL     OW 4015  10.065   3.663   4.479 -0.4625  0.4597 -0.0102
33921SOL    HW1 4016  10.069   3.651   4.574  0.2305  2.1654  0.2132
33921SOL    HW2 4017  10.103   3.749   4.464 -1.7621  0.7943 -1.7275
33922SOL     OW 4018   9.572   3.924   4.134  0.1472  0.3196  0.1819
33922SOL    HW1 4019   9.637   3.900   4.199  0.7961  0.2032 -0.5055
33922SOL    HW2 4020   9.616   3.987   4.078 -0.1421 -0.1913 -0.6342
33923SOL     OW 4021   9.327   2.071  10.282  0.1307  0.2663 -0.5972
33923SOL    HW1 4022   9.360   2.043  10.368  1.0358 -0.5651 -1.1944
33923SOL    HW2 4023   9.316   1.989  10.233  0.9124  0.8235 -1.7277
33924SOL     OW 4024   4.433   4.581   9.885  0.6053 -0.7791 -0.0864
33924SOL    HW1 4025   4.343   4.611   9.876  0.4274 -1.3205 -0.1339
33924SOL    HW2 4026   4.430   4.488   9.862  1.2356 -0.7242 -0.4311
33925SOL     OW 4027   3.332   9.347   2.029  0.6774 -0.0516 -0.4000
33925SOL    HW1 4028   3.268   9.331   2.099  1.3234 -3.0679 -0.3237
33925SOL    HW2 4029   3.279   9.363   1.951 -0.2899 -2.1910 -0.2796
33926SOL     OW 4030   6.925   5.398   5.991 -0.1575  0.6401  0.7598
33926SOL    HW1 4031   6.895   5.411   6.081 -0.0855  0.5568  0.7968
33926SOL    HW2 4032   6.845   5.389   5.940 -0.1992  0.7419  0.8084
33927SOL     OW 4033   7.323   8.377   3.375  0.0704 -0.2866  0.1491
33927SOL    HW1 4034   7.248   8.416   3.420  0.2405 -0.5086  0.6207
33927SOL    HW2 4035   7.304   8.391   3.282 -1.2462 -1.5838  0.1806
33928SOL     OW 4036   1.162   7.051  10.601 -0.1364 -0.4088  0.0228
33928SOL    HW1 4037   1.169   7.087  10.690 -1.3998 -0.6271  0.2246
33928SOL    HW2 4038   1.131   7.125  10.548 -0.3376 -0.5412 -0.0438
33929SOL     OW 4039   9.117   8.320   9.736 -0.4437  0.3664 -0.4421
33929SOL    HW1 4040   9.041   8.379   9.730 -1.1426 -0.3923  0.5574
33929SOL    HW2 4041   9.090   8.243   9.686 -0.8084 -0.3599  0.8223
33930SOL     OW 4042   9.176   2.189  10.549  0.1125  0.2283 -0.2433
33930SOL    HW1 4043   9.187   2.114  10.490  0.3492 -0.2099  0.3393
33930SOL    HW2 4044   9.085   2.216  10.538  0.0500 -0.0954 -0.5243
33931SOL     OW 4045   7.146   8.366   2.868 -0.1097 -0.0348 -0.5587
33931SOL    HW1 4046   7.205   8.379   2.794 -0.3128 -0.8462 -0.8804
33931SOL    HW2 4047   7.102   8.282   2.849 -1.0707  0.3553 -0.1432
33932SOL     OW 4048   8.517   7.866   4.866  0.1050  0.4535 -0.4085
33932SOL    HW1 4049   8.524   7.924   4.942 -1.3309  1.0421 -0.6895
33932SOL    HW2 4050   8.426   7.876   4.837  0.4288 -0.3170 -1.7600
33933SOL     OW 4051   6.127   9.399   5.849 -0.1110 -0.3813  0.4457
33933SOL    HW1 4052   6.120   9.488   5.815  0.2329 -0.3171  0.5387
33933SOL    HW2 4053   6.221   9.382   5.853 -0.1893 -1.1658 -0.6312
33934SOL     OW 4054  10.635   6.091   9.417  0.0658  0.2556  0.3966
33934SOL    HW1 4055  10.602   6.003   9.438  0.1832  0.6742  2.5320
33934SOL    HW2 4056  10.723   6.076   9.383  0.6892 -0.4089  2.1821
33935SOL     OW 4057   1.776   0.242   3.397  0.5429  0.0389 -0.4609
33935SOL    HW1 4058   1.772   0.311   3.463  1.2875  0.3949 -0.7838
33935SOL    HW2 4059   1.687   0.238   3.362  0.1458 -0.1289  0.5205
33936SOL     OW 4060   2.990   1.684   4.971  0.2486  0.7785  0.6358
33936SOL    HW1 4061   2.947   1.636   4.901 -1.7347  0.5172  1.9559
33936SOL    HW2 4062   3.048   1.746   4.926 -0.3225  0.0536 -1.1801
33937SOL     OW 4063   6.083   2.423   0.317  0.1776 -0.2487 -0.5719
33937SOL    HW1 4064   6.177   2.438   0.331  0.5669 -0.3640 -2.6592
33937SOL    HW2 4065   6.076   2.329   0.301 -0.3051 -0.2479 -0.3891
33938SOL     OW 4066   9.714  10.526   8.786 -0.4405  0.1644  0.4837
33938SOL    HW1 4067   9.766  10.481   8.851 -0.6892  0.2668  0.7581
33938SOL    HW2 4068   9.679  10.457   8.730 -1.4923 -0.0638  1.3968
33939SOL     OW 4069   9.615  10.648   7.900  0.2499  0.5632  0.1597
33939SOL    HW1 4070   9.520  10.638   7.899  0.3004 -0.5437  2.1650
33939SOL    HW2 4071   9.637  10.673   7.810 -1.9880  1.5886 -0.1771
33940SOL     OW 4072   8.618   2.919   4.888 -0.2763  0.2499  0.0681
33940SOL    HW1 4073   8.619   2.925   4.983  1.6536 -0.0827  0.0963
33940SOL    HW2 4074   8.627   2.826   4.869 -0.5196  0.3280 -0.4560
33941SOL     OW 4075   0.803   3.662   7.170 -0.0367  0.3178  0.5079
33941SOL    HW1 4076   0.724   3.711   7.194  0.3204  0.8851  0.5370
33941SOL    HW2 4077   0.865   3.680   7.240  0.0490 -0.3116  0.6004
33942SOL     OW 4078   4.508   5.149   3.635  0.6427 -0.2515 -0.2613
33942SOL    HW1 4079   4.544   5.233   3.663  1.8151 -0.1596 -1.9245
33942SOL    HW2 4080   4.544   5.135   3.548  0.7547 -2.6496  0.1048
33943SOL     OW 4081   2.632   6.256   5.020 -0.1761 -0.4475 -0.3234
33943SOL    HW1 4082   2.679   6.210   4.950 -0.4802 -0.5965 -0.4358
33943SOL    HW2 4083   2.581   6.323   4.974  2.1777  1.7475  0.0381
33944SOL     OW 4084   4.060  10.259   7.264 -0.6738 -0.3925 -0.3147
33944SOL    HW1 4085   4.074  10.299   7.350 -3.3082  0.3481 -0.1345
33944SOL    HW2 4086   4.142  10.214   7.244  1.6700  3.0736  0.5708
33945SOL     OW 4087   9.070   4.445   5.594  0.1210  0.6720  0.2671
33945SOL    HW1 4088   9.076   4.495   5.676  1.8445  0.9515  0.0009
33945SOL    HW2 4089   9.150   4.466   5.547 -0.2482 -0.4916 -0.9376
33946SOL     OW 4090   3.881   3.864   6.587 -0.5822  0.3767  0.0561
33946SOL    HW1 4091   3.954   3.918   6.558  1.1365 -2.0247 -0.3245
33946SOL    HW2 4092   3.863   3.894   6.676  2.4827 -0.4937  1.0736
33947SOL     OW 4093   8.722   9.130   6.150  0.5243  0.4334 -0.1896
33947SOL    HW1 4094   8.641   9.144   6.199  0.7420 -0.3209  0.4031
33947SOL    HW2 4095   8.695   9.077   6.075  0.0625  2.1876 -1.3261
33948SOL     OW 4096   2.515   5.643   8.520 -0.0222  0.2014  0.1580
33948SOL    HW1 4097   2.553   5.568   8.566  0.3675  0.0417 -0.4151
33948SOL    HW2 4098   2.429   5.612   8.491  0.2088 -0.0933 -0.2325
33949SOL     OW 4099   3.408   6.222   2.385 -0.1167  0.0420 -0.0912
33949SOL    HW1 4100   3.482   6.165   2.367 -0.0425 -0.3192  1.2706
33949SOL    HW2 4101   3.334   6.182   2.339  0.3719  0.0111 -0.8586
33950SOL     OW 4102   6.753   7.875   3.421 -0.2844  0.6473  0.1828
33950SOL    HW1 4103   6.781   7.965   3.402 -0.0193  0.0069 -3.0001
33950SOL    HW2 4104   6.832   7.822   3.407 -1.4595 -0.5306 -3.0173
33951SOL     OW 4105   8.504   5.002   7.372  0.2893  0.1641 -0.0909
33951SOL    HW1 4106   8.480   4.989   7.280  0.9717  0.3167 -0.2960
33951SOL    HW2 4107   8.432   5.052   7.409  0.5247  1.0580 -0.8162
33952SOL     OW 4108   7.515  10.545   1.038  0.2521 -0.5523  0.1056
33952SOL    HW1 4109   7.494  10.462   0.996 -1.3882 -0.0351 -0.1763
33952SOL    HW2 4110   7.598  10.529   1.082 -0.5633 -2.7155  1.0396
33953SOL     OW 4111  10.574   6.326   3.663  0.4574  0.5429 -0.2506
33953SOL    HW1 4112  10.575   6.365   3.750  1.4077  0.8017 -0.3677
33953SOL    HW2 4113  10.664   6.296   3.649  0.5367  1.2854 -1.4785
33954SOL     OW 4114  10.433   5.277   8.676  0.6304  0.3722  0.1050
33954SOL    HW1 4115  10.494   5.210   8.645  0.3710 -0.0637  0.5387
33954SOL    HW2 4116  10.439   5.347   8.610 -0.1076 -0.6566 -1.1024
33955SOL     OW 4117   5.324   8.237   7.072  0.4767 -0.1393 -0.0296
33955SOL    HW1 4118   5.388   8.169   7.051  0.5078 -0.1786  0.1827
33955SOL    HW2 4119   5.341   8.257   7.164  0.4569  0.1463 -0.0895
33956SOL     OW 4120   0.887   7.037   6.721  0.4922 -0.0580 -0.1961
33956SOL    HW1 4121   0.826   7.058   6.650  1.2976 -1.3518 -1.3303
33956SOL    HW2 4122   0.972   7.027   6.677  1.2164  0.1598  1.1125
33957SOL     OW 4123   0.151   2.085   6.512  0.2402  0.6457  0.2275
33957SOL    HW1 4124   0.141   2.175   6.543  1.0389  0.6453  0.5210
33957SOL    HW2 4125   0.151   2.031   6.592 -0.4357  0.3626  0.0410
33958SOL     OW 4126   6.145   5.113   1.798  0.3409 -0.4090  0.7176
33958SOL    HW1 4127   6.110   5.028   1.774 -1.4938  0.3031  0.6850
33958SOL    HW2 4128   6.076   5.153   1.851 -0.3183  2.3310 -1.9262
33959SOL     OW 4129   8.799   5.399   8.310  0.0532  0.3692 -0.0927
33959SOL    HW1 4130   8.716   5.368   8.274  0.7682 -0.6610 -0.9241
33959SOL    HW2 4131   8.829   5.467   8.250  1.7491 -2.0532 -2.1877
33960SOL     OW 4132   9.949   6.890   2.168  0.3801  0.5776 -0.6017
33960SOL    HW1 4133  10.042   6.895   2.189  0.1893  0.6977  0.2464
33960SOL    HW2 4134   9.921   6.804   2.201  0.1236  0.6715 -0.5714
33961SOL     OW 4135   3.778   0.048   9.834  0.0350  0.1943 -1.1055
33961SOL    HW1 4136   3.712   0.004   9.781 -0.7085 -0.2100  0.1330
33961SOL    HW2 4137   3.734   0.068   9.917  1.6843 -0.8654  0.0874
33962SOL     OW 4138   1.635   5.241   2.953  0.0120 -0.2541  0.5173
33962SOL    HW1 4139   1.665   5.293   2.879 -0.3265 -0.8253 -0.0307
33962SOL    HW2 4140   1.635   5.302   3.027 -1.5430  0.8745 -0.3592
33963SOL     OW 4141   9.439   7.976   5.666  0.1281  0.1088  0.0667
33963SOL    HW1 4142   9.503   8.028   5.714  1.5992  1.1371 -2.7237
33963SOL    HW2 4143   9.355   8.014   5.688  0.8617  1.3625  0.8274
33964SOL     OW 4144   3.697   2.945   1.338 -0.2627  0.0672 -0.1629
33964SOL    HW1 4145   3.684   3.036   1.310 -2.9998 -0.9038 -2.5812
33964SOL    HW2 4146   3.651   2.893   1.272  2.6537 -3.2587  0.1238
33965SOL     OW 4147   8.582   1.550   1.492 -0.0551 -0.4246 -0.1239
33965SOL    HW1 4148   8.669   1.567   1.455  0.3616  1.4017  1.5280
33965SOL    HW2 4149   8.557   1.466   1.455  1.8246 -0.3795 -1.7077
33966SOL     OW 4150   9.753   7.183   8.348 -0.0411  0.0393 -0.6952
33966SOL    HW1 4151   9.847   7.188   8.365 -0.1209  0.5664 -0.3941
33966SOL    HW2 4152   9.715   7.168   8.435 -0.2810  0.4721 -0.7237
33967SOL     OW 4153   8.392   3.151   9.830 -0.0760 -0.1179  0.0711
33967SOL    HW1 4154   8.374   3.238   9.795 -3.4916 -1.2637 -1.4504
33967SOL    HW2 4155   8.477   3.127   9.791 -0.4868  1.3637 -1.9194
33968SOL     OW 4156   3.898   6.115   5.716 -0.1278 -0.5355 -0.3769
33968SOL    HW1 4157   3.982   6.150   5.688 -1.3493  2.6192 -0.6219
33968SOL    HW2 4158   3.906   6.105   5.811  0.4967 -0.0897 -0.3806
33969SOL     OW 4159   2.888   6.322   2.341  0.0301 -0.2230 -0.7197
33969SOL    HW1 4160   2.863   6.410   2.367 -0.0283  0.1637 -1.9935
33969SOL    HW2 4161   2.828   6.300   2.269  0.8152 -0.8102 -1.2218
33970SOL     OW 4162   9.328   5.413   4.586 -0.1363 -0.5448  0.5670
33970SOL    HW1 4163   9.344   5.319   4.600 -1.0055 -0.8927 -0.6596
33970SOL    HW2 4164   9.353   5.428   4.495  2.6193  1.0438  1.4799
33971SOL     OW 4165   3.524   9.419   4.730 -0.3803 -0.1648 -0.1632
33971SOL    HW1 4166   3.434   9.395   4.706 -0.4447  0.5624 -0.6651
33971SOL    HW2 4167   3.515   9.461   4.816 -0.7139  1.1852 -0.8382
33972SOL     OW 4168   6.184   1.648   7.444  0.0775 -1.1206  0.3862
33972SOL    HW1 4169   6.267   1.691   7.429 -0.2792  0.0590  1.6460
33972SOL    HW2 4170   6.118   1.714   7.424 -0.5341 -1.7007  0.4301
33973SOL     OW 4171   8.678   1.614   6.412 -0.2823  0.1077  0.3555
33973SOL    HW1 4172   8.747   1.580   6.470 -0.8493  0.0031  0.9772
33973SOL    HW2 4173   8.716   1.692   6.373 -0.2816  0.8037  1.7056
33974SOL     OW 4174   2.157   9.639  10.610  0.0748 -0.1303 -0.2530
33974SOL    HW1 4175   2.126   9.721  10.572 -0.1021 -0.0526  0.0592
33974SOL    HW2 4176   2.111   9.632  10.694  2.4340  1.0421  1.2527
33975SOL     OW 4177  10.481  10.540   4.580  0.5177 -0.0004 -0.3198
33975SOL    HW1 4178  10.460  10.446   4.585  1.8114 -0.4248 -1.9122
33975SOL    HW2 4179  10.530  10.549   4.498  2.3395  1.7121  0.8745
33976SOL     OW 4180   1.298   4.151   2.830 -0.6177  0.1098 -0.3276
33976SOL    HW1 4181   1.330   4.063   2.851 -0.2742 -0.3377 -2.5281
33976SOL    HW2 4182   1.362   4.210   2.868 -0.4930 -0.6033  0.6035
33977SOL     OW 4183   1.775   4.844   9.434  0.0507  0.2728 -0.8068
33977SOL    HW1 4184   1.724   4.763   9.427  1.2166 -0.5557  0.0326
33977SOL    HW2 4185   1.783   4.874   9.343  0.5321 -1.1533 -1.2638
33978SOL     OW 4186   9.448  10.341   6.605  0.8279 -0.1534 -0.4333
33978SOL    HW1 4187   9.462  10.436   6.611 -0.6246  0.0574 -0.0566
33978SOL    HW2 4188   9.450  10.322   6.512 -0.9362  0.6078 -0.6613
33979SOL     OW 4189   5.423   7.414   5.885 -0.7345 -0.3297  0.3882
33979SOL    HW1 4190   5.442   7.479   5.817 -1.6913  0.6416  1.0231
33979SOL    HW2 4191   5.329   7.422   5.901 -0.8063 -1.6435  0.7241
33980SOL     OW 4192   7.774   8.616   5.757  0.1941  0.2667 -0.0592
33980SOL    HW1 4193   7.680   8.597   5.756  0.4608 -1.2306  0.3118
33980SOL    HW2 4194   7.794   8.642   5.667 -0.1747 -1.7608 -0.7815
33981SOL     OW 4195   3.627   8.198  10.318  0.2118 -0.5027 -0.2748
33981SOL    HW1 4196   3.637   8.282  10.363 -2.1963 -0.2461 -0.0883
33981SOL    HW2 4197   3.614   8.221  10.226 -1.6113 -0.5606 -0.0535
33982SOL     OW 4198   7.385   1.307   1.390  0.2238  0.0931 -0.6823
33982SOL    HW1 4199   7.368   1.327   1.482  1.6175  1.6470 -0.7281
33982SOL    HW2 4200   7.303   1.268   1.359 -0.4821  0.1097  1.0400
33983SOL     OW 4201   1.363   3.612   9.457 -0.3414  0.6263  0.5970
33983SOL    HW1 4202   1.361   3.703   9.488 -0.5606  1.3380 -1.4004
33983SOL    HW2 4203   1.387   3.618   9.365  0.6157 -1.4297  0.6452
33984SOL     OW 4204   7.424  10.159   3.622  0.0172  0.2124  0.3351
33984SOL    HW1 4205   7.476  10.217   3.679 -0.4018 -0.7961  1.8074
33984SOL    HW2 4206   7.400  10.215   3.548  0.9373  1.4677  0.9276
33985SOL     OW 4207  10.617   9.638   3.276 -0.1205 -0.0874  0.2102
33985SOL    HW1 4208  10.617   9.563   3.216 -0.0803  0.2077 -0.1689
33985SOL    HW2 4209  10.641   9.601   3.361  2.3124 -0.1598 -0.4315
33986SOL     OW 4210   7.307   4.783   2.861  0.1493  0.1379 -0.1135
33986SOL    HW1 4211   7.375   4.834   2.818 -0.3014 -0.1297 -1.1701
33986SOL    HW2 4212   7.275   4.840   2.931  0.9817  0.5265 -0.0340
33987SOL     OW 4213   2.479   4.906   4.012 -0.1737 -0.9947  0.2654
33987SOL    HW1 4214   2.545   4.965   4.048  2.3579 -3.3607 -0.2428
33987SOL    HW2 4215   2.488   4.915   3.917 -1.1235 -0.8220  0.1793
33988SOL     OW 4216   7.089   4.708   6.888  0.5207 -0.3059 -0.0195
33988SOL    HW1 4217   7.014   4.741   6.937 -0.0938 -0.2574 -0.9779
33988SOL    HW2 4218   7.116   4.629   6.936 -0.2746 -0.4503  0.2079
33989SOL     OW 4219   4.410   4.799   5.658 -0.6667 -0.2535 -0.6464
33989SOL    HW1 4220   4.434   4.744   5.733 -1.5222 -0.3465 -0.4276
33989SOL    HW2 4221   4.368   4.876   5.697 -1.1571 -0.3221 -1.0227
33990SOL     OW 4222   8.129   7.020   2.691  0.5245 -0.0090  0.7034
33990SOL    HW1 4223   8.122   7.109   2.655 -0.3867 -0.3592 -0.0405
33990SOL    HW2 4224   8.099   7.028   2.781 -0.2616  0.3185  0.4236
33991SOL     OW 4225   7.650   2.502   4.249 -0.2142 -0.1031  0.0075
33991SOL    HW1 4226   7.729   2.542   4.213 -0.0636 -1.2063 -0.9364
33991SOL    HW2 4227   7.651   2.412   4.216 -1.8597 -0.1427 -0.0287
33992SOL     OW 4228   9.966   6.010   6.315  0.4489  0.1298 -0.1054
33992SOL    HW1 4229  10.004   6.047   6.236  0.6448 -1.2170 -0.6569
33992SOL    HW2 4230   9.962   5.916   6.299 -2.4821  0.1100  0.1756
33993SOL     OW 4231   4.908  10.060   4.707  0.2762 -0.0572 -0.2662
33993SOL    HW1 4232   4.972  10.054   4.778  0.1334  1.7474  0.0610
33993SOL    HW2 4233   4.852   9.983   4.718  0.1342  0.2856  1.7178
33994SOL     OW 4234   7.282   5.113   2.040  0.0816  0.0172 -0.5077
33994SOL    HW1 4235   7.299   5.039   2.098 -2.8306 -0.4165 -0.0461
33994SOL    HW2 4236   7.197   5.093   2.000 -0.4954  2.7909 -0.8936
33995SOL     OW 4237   2.290   3.490   3.815 -0.5538 -0.0392  0.0304
33995SOL    HW1 4238   2.286   3.397   3.795  0.5738  0.1963 -1.4393
33995SOL    HW2 4239   2.237   3.500   3.894 -1.1003 -1.8343 -0.0764
33996SOL     OW 4240   4.000   4.602   4.320  0.8658  0.4608 -0.6011
33996SOL    HW1 4241   3.939   4.666   4.283  0.1694 -0.9469 -1.9555
33996SOL    HW2 4242   3.948   4.552   4.382  0.9965  0.1765 -0.7191
33997SOL     OW 4243   3.478   4.968   8.602  0.3796  0.6466 -0.5107
33997SOL    HW1 4244   3.396   4.986   8.647  0.2329 -0.9906 -0.0370
33997SOL    HW2 4245   3.456   4.899   8.539  1.8777 -2.1164  1.7057
33998SOL     OW 4246   8.898   3.752   8.348  0.6723 -0.0810  0.5296
33998SOL    HW1 4247   8.931   3.838   8.324 -0.3584  0.9833  2.5979
33998SOL    HW2 4248   8.967   3.691   8.321  0.2453  0.9659 -3.5754
33999SOL     OW 4249   3.425   8.090   6.712  0.1234 -0.1129 -0.0556
33999SOL    HW1 4250   3.424   8.037   6.632  0.2629  0.1531 -0.2337
33999SOL    HW2 4251   3.419   8.180   6.682  0.7261  0.0179  0.2017
34000SOL     OW 4252   0.062   9.284   5.890 -0.4403 -0.7325 -0.2400
34000SOL    HW1 4253   0.080   9.377   5.908 -1.1772 -1.0145  2.3247
34000SOL    HW2 4254  -0.025   9.284   5.852 -0.2742 -0.3487 -0.6351
34001SOL     OW 4255   3.386   8.598   6.536  0.2920 -0.2537 -0.0430
34001SOL    HW1 4256   3.419   8.548   6.461 -0.2029  0.3989 -0.7038
34001SOL    HW2 4257   3.443   8.675   6.541  1.0293 -0.8267  0.9530
34002SOL     OW 4258   6.236   1.167   0.026 -0.7313  0.1534  0.4665
34002SOL    HW1 4259   6.177   1.134   0.094 -0.8554 -0.8798 -0.1162
34002SOL    HW2 4260   6.313   1.111   0.031 -0.2145  0.8492  0.5409
34003SOL     OW 4261   6.094   9.550   4.167  0.4541 -0.3217 -0.2980
34003SOL    HW1 4262   6.068   9.480   4.227 -0.9506 -0.2656 -0.8188
34003SOL    HW2 4263   6.096   9.509   4.081  0.9759 -0.0376 -0.4291
34004SOL     OW 4264   5.031   9.451   1.155 -0.0687  0.4216  0.5427
34004SOL    HW1 4265   5.055   9.534   1.198 -0.0660  1.4038 -1.2618
34004SOL    HW2 4266   5.111   9.422   1.112 -0.6467  0.7595 -0.8142
34005SOL     OW 4267   8.354   8.498   1.144 -0.1164  0.6943 -0.3752
34005SOL    HW1 4268   8.327   8.526   1.231  1.1034  0.2387  0.1717
34005SOL    HW2 4269   8.448   8.518   1.140 -0.2725  1.2492 -1.8028
34006SOL     OW 4270  10.305   4.045  10.264  0.1495 -0.0026 -0.1539
34006SOL    HW1 4271  10.224   4.002  10.237 -0.7719  0.6183  1.4745
34006SOL    HW2 4272  10.301   4.131  10.223 -0.8789  0.6552  1.2254
34007SOL     OW 4273   0.398   1.765   1.033 -0.1155  0.1914 -0.4745
34007SOL    HW1 4274   0.336   1.833   1.061 -1.1912 -0.5346 -1.0198
34007SOL    HW2 4275   0.344   1.700   0.989  0.8796 -1.0852  0.1244
34008SOL     OW 4276   4.159   0.083   9.129  0.2242  0.5486  0.3795
34008SOL    HW1 4277   4.133  -0.008   9.117  0.6906  0.1641  1.9932
34008SOL    HW2 4278   4.126   0.128   9.052  0.6612 -1.1178 -0.8338
34009SOL     OW 4279   2.555   6.841   1.912  0.1628  0.1213 -0.5420
34009SOL    HW1 4280   2.519   6.911   1.965 -1.2279  1.0127 -2.5344
34009SOL    HW2 4281   2.640   6.874   1.882  0.8177 -0.2685  0.8068
34010SOL     OW 4282   6.498  10.448   0.889  0.0855  0.6426 -0.2980
34010SOL    HW1 4283   6.408  10.476   0.901  0.1954  0.5587  0.9352
34010SOL    HW2 4284   6.493  10.352   0.890  0.2154  0.6376  0.0805
34011SOL     OW 4285   9.748   9.788   6.745 -0.9337  0.3249 -0.6397
34011SOL    HW1 4286   9.800   9.775   6.824 -2.3455 -1.6575  0.0369
34011SOL    HW2 4287   9.749   9.883   6.731  1.2683  0.5142  0.3753
34012SOL     OW 4288   1.846   8.526   8.063  0.2270  0.0458 -0.4716
34012SOL    HW1 4289   1.929   8.483   8.041  0.7706  0.3186  0.9252
34012SOL    HW2 4290   1.790   8.455   8.095 -0.0584 -0.1260 -1.3392
34013SOL     OW 4291   8.387   3.129   7.364  0.3792  0.2338 -0.2843
34013SOL    HW1 4292   8.340   3.171   7.436  1.8554 -0.3569  1.0797
34013SOL    HW2 4293   8.473   3.171   7.363  0.9369 -0.8637 -0.6425
34014SOL     OW 4294   7.738   5.101   6.928  0.3139 -0.0796  0.1920
34014SOL    HW1 4295   7.773   5.125   7.014  0.6290 -1.0703  0.3488
34014SOL    HW2 4296   7.661   5.049   6.948  0.1009  0.1049 -0.1409
34015SOL     OW 4297   9.860   3.698   5.007 -0.2886 -0.3813 -0.4665
34015SOL    HW1 4298   9.926   3.666   5.068 -0.1934 -0.0089 -0.3743
34015SOL    HW2 4299   9.777   3.679   5.051 -0.1941  1.7763  0.7589
34016SOL     OW 4300   2.090   4.237   4.061 -0.6151 -0.8001 -0.1816
34016SOL    HW1 4301   2.070   4.143   4.071  0.6125 -1.3846 -2.5412
34016SOL    HW2 4302   2.117   4.265   4.149 -0.6411 -2.7394  0.4991
34017SOL     OW 4303   3.413   4.273   1.454  0.5786 -0.3130  0.0701
34017SOL    HW1 4304   3.334   4.305   1.497 -0.1306  1.2937 -2.2109
34017SOL    HW2 4305   3.384   4.197   1.405  1.1817 -1.5829  1.6036
34018SOL     OW 4306   3.923   7.433   0.265  0.1240 -0.6139  0.2739
34018SOL    HW1 4307   3.912   7.518   0.307 -0.7523 -1.2193  1.2862
34018SOL    HW2 4308   3.949   7.454   0.175 -0.4227  0.7185  0.4157
34019SOL     OW 4309   1.351   4.780   5.815 -0.2437 -0.0924 -0.3255
34019SOL    HW1 4310   1.406   4.764   5.891  1.3570 -0.1963 -1.4554
34019SOL    HW2 4311   1.404   4.835   5.758 -1.2476 -0.3324 -1.5429
34020SOL     OW 4312   3.790  10.474   1.968  0.2838 -0.0036  0.1234
34020SOL    HW1 4313   3.825  10.397   1.923  3.2845  0.8248  0.7764
34020SOL    HW2 4314   3.738  10.439   2.040  2.8587 -1.5513  1.3833
34021SOL     OW 4315   7.214   9.233   7.504  0.4137  0.0134  0.5089
34021SOL    HW1 4316   7.197   9.275   7.588  0.4894  2.2396 -0.5157
34021SOL    HW2 4317   7.302   9.261   7.480  0.2332 -0.2316 -0.5075
34022SOL     OW 4318   7.362   8.191   6.292 -0.6139 -0.4063  0.2121
34022SOL    HW1 4319   7.354   8.159   6.382 -0.4333  0.4141  0.5272
34022SOL    HW2 4320   7.454   8.215   6.284 -0.3154 -1.7412 -0.6352
34023SOL     OW 4321   6.646   3.316   5.904  0.3464  0.1598  0.4800
34023SOL    HW1 4322   6.624   3.307   5.996  0.9488  1.5699  0.7922
34023SOL    HW2 4323   6.577   3.372   5.868 -1.8797 -3.1158 -0.7942
34024SOL     OW 4324   8.104   4.275   7.027  0.5840  0.2051  0.5533
34024SOL    HW1 4325   8.164   4.311   7.093 -0.4421  0.4428  1.3831
34024SOL    HW2 4326   8.027   4.249   7.077 -0.2147  0.3737 -0.5611
34025SOL     OW 4327   4.739   6.828   7.556 -0.0402  0.2046 -0.2316
34025SOL    HW1 4328   4.704   6.782   7.479 -0.5475 -0.1868  0.2225
34025SOL    HW2 4329   4.704   6.779   7.631 -1.0201  1.6054  0.2793
34026SOL     OW 4330   1.794   4.006   7.981  0.5871 -0.0006  0.3757
34026SOL    HW1 4331   1.731   4.003   8.053 -0.8194 -1.5924 -0.8462
34026SOL    HW2 4332   1.822   3.915   7.969  0.4365  0.1535 -1.3799
34027SOL     OW 4333   5.953   9.004   4.500  0.3194  0.3099 -0.1351
34027SOL    HW1 4334   5.944   8.951   4.421  0.8347 -0.0615  0.0462
34027SOL    HW2 4335   5.904   8.956   4.567  0.4780  0.2522 -0.0597
34028SOL     OW 4336   7.079   0.611   8.247 -0.0816  0.6860 -0.5967
34028SOL    HW1 4337   7.046   0.596   8.336 -0.4141  0.6221 -0.7302
34028SOL    HW2 4338   7.068   0.527   8.203  2.1672  0.0154 -0.0559
34029SOL     OW 4339   3.688   1.489   5.797 -0.4654  0.1606 -0.6833
34029SOL    HW1 4340   3.634   1.414   5.822 -0.0473 -0.2919 -1.1135
34029SOL    HW2 4341   3.628   1.564   5.799 -0.7259 -0.0543  0.4430
34030SOL     OW 4342   7.263   0.601   3.706  0.5846 -0.2946  0.8788
34030SOL    HW1 4343   7.326   0.668   3.734 -0.1873  1.2653 -0.8326
34030SOL    HW2 4344   7.189   0.611   3.766  0.6097  0.1942  0.8393
34031SOL     OW 4345   0.040   6.497   2.957 -0.1207  0.2460  0.4442
34031SOL    HW1 4346   0.033   6.403   2.975  0.1704  0.0269 -0.5621
34031SOL    HW2 4347  -0.050   6.528   2.957 -0.3740 -0.4230 -1.2141
34032SOL     OW 4348   3.389   2.864   7.342 -0.1780 -0.5107 -1.0262
34032SOL    HW1 4349   3.421   2.784   7.301 -0.4570 -0.8625 -0.5621
34032SOL    HW2 4350   3.463   2.925   7.338  0.0747 -0.8311 -1.2610
34033SOL     OW 4351   1.367   5.125   1.982 -0.4747 -0.1653  0.0288
34033SOL    HW1 4352   1.399   5.081   1.903  0.4943 -0.4679  0.5756
34033SOL    HW2 4353   1.290   5.174   1.952 -1.4306 -1.9804 -0.6536
34034SOL     OW 4354   0.277   5.844   6.616 -0.3427  0.0958  0.2345
34034SOL    HW1 4355   0.259   5.912   6.551 -2.6041  0.2786  0.9616
34034SOL    HW2 4356   0.215   5.774   6.595  0.7874 -1.0206  0.5432
34035SOL     OW 4357   6.466   2.893   9.721  0.2480 -0.1932 -0.3325
34035SOL    HW1 4358   6.492   2.835   9.650 -0.1009  0.3304 -0.9032
34035SOL    HW2 4359   6.451   2.978   9.678 -0.9752 -0.1221  0.1835
34036SOL     OW 4360   0.514   1.545   9.901  0.0215 -0.1772  0.2281
34036SOL    HW1 4361   0.603   1.537   9.867 -0.0218  1.9601 -0.5577
34036SOL    HW2 4362   0.524   1.543   9.996  0.8839 -0.1417  0.1434
34037SOL     OW 4363   1.465   8.999   4.280 -0.3548  0.2244  0.8163
34037SOL    HW1 4364   1.407   9.032   4.212 -1.2079  2.4558  2.5112
34037SOL    HW2 4365   1.407   8.971   4.350  0.5455  0.1306  1.5448
34038SOL     OW 4366   4.778   2.329   5.081 -0.0363  0.1037 -0.4561
34038SOL    HW1 4367   4.789   2.234   5.077  1.8231  0.2390  0.3133
34038SOL    HW2 4368   4.685   2.343   5.065 -0.7462 -1.9748  1.3141
34039SOL     OW 4369  10.010   9.206   0.810 -0.9673 -0.4308  0.1248
34039SOL    HW1 4370  10.062   9.133   0.778 -1.1298 -0.3309 -0.3655
34039SOL    HW2 4371   9.966   9.241   0.733 -1.4248 -0.2396  0.4633
34040SOL     OW 4372   6.206  10.203   6.911 -0.1939  0.5581 -0.5339
34040SOL    HW1 4373   6.112  10.207   6.892 -0.5257 -0.0139  0.8412
34040SOL    HW2 4374   6.226  10.110   6.918  0.0873  0.6965  0.8483
34041SOL     OW 4375   6.157   7.288   2.426  0.0400 -0.6589 -0.4889
34041SOL    HW1 4376   6.136   7.260   2.337  0.8829 -2.6495 -0.1264
34041SOL    HW2 4377   6.233   7.235   2.450  1.0648  1.2456  0.7278
34042SOL     OW 4378   0.082   2.457   2.987  0.0550 -0.0526  0.2413
34042SOL    HW1 4379   0.033   2.480   3.066  2.0661  1.9384  1.0053
34042SOL    HW2 4380   0.174   2.475   3.009  0.9332 -1.5069 -1.8579
34043SOL     OW 4381  10.284   0.353   2.446 -0.1235  0.3803 -0.3915
34043SOL    HW1 4382  10.285   0.387   2.357 -0.2029  2.4919  0.3650
34043SOL    HW2 4383  10.212   0.290   2.447 -1.4190  1.7865 -1.3391
34044SOL     OW 4384   5.499   7.180   2.298  0.1589 -0.1736  0.3082
34044SOL    HW1 4385   5.518   7.240   2.371 -0.7973 -0.2628  0.6414
34044SOL    HW2 4386   5.559   7.107   2.311  2.8878  1.6084 -1.3045
34045SOL     OW 4387   1.087   3.288   8.950 -0.0535  0.1493  0.6310
34045SOL    HW1 4388   1.109   3.378   8.926 -0.8724  0.3800  0.7178
34045SOL    HW2 4389   1.157   3.235   8.912 -0.1175  0.7275 -0.3171
34046SOL     OW 4390   6.213  10.587   2.243  0.0307  0.1827  0.6324
34046SOL    HW1 4391   6.225  10.531   2.319  1.3350  0.5392  0.7043
34046SOL    HW2 4392   6.301  10.597   2.206 -0.1380  2.2596  0.6758
34047SOL     OW 4393   7.512   9.277   7.751 -0.0952  0.5556 -0.3954
34047SOL    HW1 4394   7.548   9.352   7.797 -0.7069  1.8869 -2.0018
34047SOL    HW2 4395   7.585   9.214   7.747  1.3537  2.2160 -1.5045
34048SOL     OW 4396   6.665   9.518   8.921  0.1359  0.3388  0.2489
34048SOL    HW1 4397   6.575   9.536   8.895 -0.1221 -0.3706  0.6360
34048SOL    HW2 4398   6.662   9.432   8.963  1.1484 -0.1470 -0.6005
34049SOL     OW 4399   4.052   8.103   1.335  0.1376 -0.2160  0.1921
34049SOL    HW1 4400   4.092   8.095   1.422 -2.1415  0.6846  1.4340
34049SOL    HW2 4401   4.036   8.197   1.324  0.9054 -0.2494 -1.4943
34050SOL     OW 4402   2.033   2.625   7.597 -0.1377 -0.0046  0.4082
34050SOL    HW1 4403   2.014   2.612   7.504  2.7767 -1.6169 -0.0660
34050SOL    HW2 4404   2.088   2.703   7.600 -0.6487  0.3429  0.8568
34051SOL     OW 4405   2.565   1.610   0.001 -0.1645 -0.3312 -0.0032
34051SOL    HW1 4406   2.530   1.521   0.010 -1.0651  0.0479  0.4033
34051SOL    HW2 4407   2.521   1.646  -0.076 -1.2375  0.3946  0.9228
34052SOL     OW 4408   7.253   8.243   0.191  0.2934 -0.5000  0.0235
34052SOL    HW1 4409   7.331   8.293   0.216 -0.0923 -1.1472  2.7675
34052SOL    HW2 4410   7.283   8.186   0.121  1.3288  1.8185 -1.5634
34053SOL     OW 4411   4.528   2.442   4.038  0.2093  0.2113 -0.2135
34053SOL    HW1 4412   4.603   2.404   4.084 -0.1573 -0.6482 -0.3129
34053SOL    HW2 4413   4.515   2.386   3.962 -1.6670 -0.7935  0.7644
34054SOL     OW 4414   9.213   4.450   3.120 -0.0990  0.7954 -0.2695
34054SOL    HW1 4415   9.125   4.458   3.083  0.1082  1.5132 -0.6279
34054SOL    HW2 4416   9.228   4.356   3.127 -1.1433  0.6540  0.3987
34055SOL     OW 4417   4.689   1.581   2.060 -0.0063  0.4622 -0.0717
34055SOL    HW1 4418   4.647   1.642   1.999  0.4569  0.8624  0.0118
34055SOL    HW2 4419   4.781   1.579   2.033  0.0577  0.0990  0.1712
34056SOL     OW 4420   2.952   1.428   0.876 -0.3556  0.3659 -0.4410
34056SOL    HW1 4421   3.028   1.445   0.819  0.5739  0.4258  0.7688
34056SOL    HW2 4422   2.977   1.464   0.961 -1.1779 -0.8311  0.3491
34057SOL     OW 4423   3.984   9.080   8.601  0.1737 -0.4896 -0.0289
34057SOL    HW1 4424   3.942   9.153   8.556  2.4984  0.2169 -1.2306
34057SOL    HW2 4425   3.963   9.003   8.547 -0.9830 -0.4828  0.3802
34058SOL     OW 4426   8.541   8.850   3.630 -0.1955  0.4921  0.3542
34058SOL    HW1 4427   8.465   8.795   3.616  0.0072 -0.0406  1.2201
34058SOL    HW2 4428   8.606   8.792   3.670  1.0882  0.6432 -1.3725
34059SOL     OW 4429   7.350   0.742   9.570  0.1894  0.6973  0.7460
34059SOL    HW1 4430   7.299   0.775   9.644 -1.3308 -0.6124  0.3405
34059SOL    HW2 4431   7.295   0.674   9.532  1.4159  0.5868 -0.9353
34060SOL     OW 4432   8.463   5.180   9.211  0.1182  0.1323  0.1264
34060SOL    HW1 4433   8.478   5.220   9.297  0.1952  0.2690  0.0502
34060SOL    HW2 4434   8.407   5.104   9.229 -1.1452  1.0329  0.1205
34061SOL     OW 4435   6.998   0.072   0.527 -0.5593 -0.7325  0.2875
34061SOL    HW1 4436   6.974  -0.021   0.525  0.0189 -0.9474  1.8275
34061SOL    HW2 4437   6.920   0.118   0.497 -0.7018 -1.7230 -0.9364
34062SOL     OW 4438   5.274   7.765   6.205  0.0032 -0.8518  0.0696
34062SOL    HW1 4439   5.278   7.847   6.156 -2.2151 -0.9162 -0.3207
34062SOL    HW2 4440   5.277   7.696   6.138  2.3760 -1.1800  0.4218
34063SOL     OW 4441   9.120   4.959   4.006 -0.1340 -0.2399  0.8250
34063SOL    HW1 4442   9.159   4.881   4.045  0.8030 -0.4670 -0.4886
34063SOL    HW2 4443   9.163   5.032   4.051 -0.2629 -0.4881  1.3509
34064SOL     OW 4444   8.111   2.115   1.960 -0.0904 -0.2627 -0.3491
34064SOL    HW1 4445   8.200   2.128   1.928 -0.5907  2.0206 -0.9669
34064SOL    HW2 4446   8.112   2.027   1.997  2.1193 -0.7152 -1.3113
34065SOL     OW 4447   3.246  10.532   6.533  0.1805  0.5566  0.1985
34065SOL    HW1 4448   3.335  10.536   6.498  0.7557 -1.2314  1.3366
34065SOL    HW2 4449   3.253  10.574   6.619  0.3921 -1.2186  1.0871
34066SOL     OW 4450   6.912   3.407   8.254 -0.4809 -0.0022 -0.1571
34066SOL    HW1 4451   6.941   3.360   8.332  0.6291 -0.9560 -1.0918
34066SOL    HW2 4452   6.886   3.493   8.286 -0.0634 -0.3736  1.2617
34067SOL     OW 4453   2.625   2.363   7.633  0.0067 -0.1557 -1.0844
34067SOL    HW1 4454   2.683   2.302   7.587  1.8984  1.9967 -1.7670
34067SOL    HW2 4455   2.597   2.425   7.565 -1.6195 -0.0674 -0.3689
34068SOL     OW 4456   2.885   7.435   4.154  0.0671  0.1212  0.0083
34068SOL    HW1 4457   2.957   7.498   4.157  0.7145 -0.4728 -1.8991
34068SOL    HW2 4458   2.869   7.420   4.061 -2.1238 -0.2486  0.3894
34069SOL     OW 4459   9.846   1.097   5.766 -0.0840  0.5389  0.6101
34069SOL    HW1 4460   9.817   1.158   5.833 -1.4310  0.8211 -0.1930
34069SOL    HW2 4461   9.866   1.152   5.690  0.9668  0.1826  0.6070
34070SOL     OW 4462   7.676   1.319   2.627 -0.1960 -0.1347 -0.0058
34070SOL    HW1 4463   7.720   1.333   2.711 -1.7535  0.2256  0.7947
34070SOL    HW2 4464   7.623   1.398   2.615 -0.3080 -0.3656 -1.1277
34071SOL     OW 4465   8.606   4.337   8.972 -0.1422 -0.0667 -0.6528
34071SOL    HW1 4466   8.605   4.243   8.992  1.9386  0.1020  0.5093
34071SOL    HW2 4467   8.647   4.377   9.049  1.7508  1.4476 -2.3456
34072SOL     OW 4468   6.200   6.512   8.883 -0.0152 -0.1317  0.1333
34072SOL    HW1 4469   6.191   6.486   8.792  0.1779  0.0750  0.0522
34072SOL    HW2 4470   6.254   6.443   8.922 -1.6867 -1.2570  0.5761
34073SOL     OW 4471   9.207   0.445   9.429  0.7702  0.0478 -0.1452
34073SOL    HW1 4472   9.118   0.434   9.465  0.3461  1.6733 -0.6152
34073SOL    HW2 4473   9.235   0.356   9.408  0.3998 -0.8551  2.6506
34074SOL     OW 4474   7.581   6.253   4.792  0.2011  0.0215 -0.3942
34074SOL    HW1 4475   7.531   6.194   4.848 -0.7655  1.3264  0.1641
34074SOL    HW2 4476   7.532   6.335   4.793  0.5351  0.3054 -2.6099
34075SOL     OW 4477   8.192   4.130   0.948 -0.0615  0.1182 -0.9249
34075SOL    HW1 4478   8.272   4.182   0.957  0.6168 -0.8090 -1.4518
34075SOL    HW2 4479   8.129   4.189   0.906 -0.0588  1.2330  0.5395
34076SOL     OW 4480  10.045   2.499   8.714 -0.0700  0.1250  0.1321
34076SOL    HW1 4481  10.007   2.462   8.794  0.1805 -0.5282 -0.0462
34076SOL    HW2 4482   9.987   2.572   8.692 -1.3994 -1.0124 -0.2795
34077SOL     OW 4483   0.425   0.535   1.745  0.4272  0.3546 -0.1385
34077SOL    HW1 4484   0.425   0.471   1.817 -2.0772  0.4201 -0.0015
34077SOL    HW2 4485   0.484   0.604   1.775 -0.6121  0.4178  1.9221
34078SOL     OW 4486   4.936   3.247   7.946 -0.2361 -0.0084 -0.4866
34078SOL    HW1 4487   4.917   3.154   7.962 -0.8276  0.1630 -0.1473
34078SOL    HW2 4488   4.875   3.273   7.877  1.2357 -0.3402 -1.9748
34079SOL     OW 4489   4.707   9.678   8.573  0.3113  0.1569  0.3410
34079SOL    HW1 4490   4.689   9.591   8.538 -0.7332 -0.4141  2.1646
34079SOL    HW2 4491   4.737   9.662   8.663  1.2677  1.6346  0.3247
34080SOL     OW 4492   8.027   8.591   6.742 -0.7850  0.1621 -0.1992
34080SOL    HW1 4493   8.024   8.509   6.694  1.2573  0.1279 -0.3625
34080SOL    HW2 4494   7.999   8.569   6.831  0.4877 -0.8977 -0.0362
34081SOL     OW 4495   6.408   1.495   0.348  0.2174  0.3111 -0.5254
34081SOL    HW1 4496   6.381   1.517   0.437  2.7534 -2.3765  1.1371
34081SOL    HW2 4497   6.408   1.399   0.347  2.7429  0.2304 -2.4903
34082SOL     OW 4498   0.443   4.545   5.189 -0.1343 -0.2152  0.4790
34082SOL    HW1 4499   0.496   4.565   5.112 -2.1047 -2.2429 -1.5910
34082SOL    HW2 4500   0.398   4.627   5.209  1.6776  0.8059  0.6176
34083SOL     OW 4501   0.088   4.652   6.249  0.3198  0.3970  0.0582
34083SOL    HW1 4502   0.163   4.596   6.271  1.1282  1.4660  0.1119
34083SOL    HW2 4503   0.112   4.692   6.166 -0.5159  0.2058 -0.2778
34084SOL     OW 4504   0.726   1.275   0.764 -0.4708 -0.3914  0.5398
34084SOL    HW1 4505   0.787   1.289   0.692 -0.1362  0.8389  1.0429
34084SOL    HW2 4506   0.654   1.226   0.725  0.0197 -0.3386 -0.4650
34085SOL     OW 4507   1.881   1.493   1.619 -0.6148  0.0654 -0.5222
34085SOL    HW1 4508   1.952   1.429   1.615  0.2632  0.9458  0.4095
34085SOL    HW2 4509   1.819   1.458   1.682 -2.2293 -1.8367 -2.9872
34086SOL     OW 4510   1.384   5.770   8.743  0.5044  0.1293 -0.4908
34086SOL    HW1 4511   1.451   5.804   8.802  2.6158 -2.1256 -1.4220
34086SOL    HW2 4512   1.338   5.704   8.795 -0.0011  0.5893 -0.3384
34087SOL     OW 4513   5.165   7.176   1.343  0.1176 -0.5969 -0.3698
34087SOL    HW1 4514   5.197   7.109   1.282  0.3256 -2.3053  1.5020
34087SOL    HW2 4515   5.071   7.159   1.351  0.4840 -2.1492  1.6782
34088SOL     OW 4516   0.640   5.514   8.496 -0.3927 -0.4459  0.4545
34088SOL    HW1 4517   0.564   5.459   8.476 -0.4189 -1.0349  2.0001
34088SOL    HW2 4518   0.618   5.600   8.460 -1.3255 -0.8732 -0.0344
34089SOL     OW 4519   7.454   7.132   0.294  0.3873 -0.1973  0.3216
34089SOL    HW1 4520   7.406   7.180   0.362 -1.2715 -1.0746 -0.2052
34089SOL    HW2 4521   7.541   7.119   0.332  0.0908  1.0003  1.4909
34090SOL     OW 4522   2.637   4.016  10.029 -0.4770  0.0227 -0.3795
34090SOL    HW1 4523   2.597   4.085   9.976 -0.7363 -2.2928 -3.4932
34090SOL    HW2 4524   2.583   4.013  10.108 -1.0211  2.6951 -0.5619
34091SOL     OW 4525   8.649   0.889   0.054 -0.1619  0.0269 -0.4310
34091SOL    HW1 4526   8.724   0.877   0.112 -0.4069  2.7638  0.6176
34091SOL    HW2 4527   8.682   0.944  -0.017 -1.0382  0.9575 -0.1493
34092SOL     OW 4528   3.804   7.764   3.456  0.1237  0.2972 -0.0288
34092SOL    HW1 4529   3.896   7.790   3.465  0.7517 -1.4099 -1.0835
34092SOL    HW2 4530   3.790   7.756   3.362 -1.3426  1.2435  0.0786
34093SOL     OW 4531   3.545   8.743   1.918  0.1442 -0.6052  0.1143
34093SOL    HW1 4532   3.516   8.758   1.828  0.2230 -0.7526  0.0634
34093SOL    HW2 4533   3.637   8.718   1.910  1.1632  2.5967  0.4736
34094SOL     OW 4534   1.054   4.844   5.737  0.1648  0.4329  0.7910
34094SOL    HW1 4535   1.046   4.801   5.652 -0.6220 -0.0718  1.1143
34094SOL    HW2 4536   1.141   4.820   5.768 -0.0227 -0.3964  0.6784
34095SOL     OW 4537  10.591   4.905   7.707  0.4641  0.6505 -0.6535
34095SOL    HW1 4538  10.537   4.981   7.685  1.7877  1.7596 -0.2357
34095SOL    HW2 4539  10.569   4.886   7.798  2.3073  2.5431  0.2882
34096SOL     OW 4540   3.910   6.703   4.270  0.3639  0.5153 -0.6531
34096SOL    HW1 4541   3.832   6.677   4.222  0.5496  1.6358 -1.6055
34096SOL    HW2 4542   3.882   6.709   4.361 -0.3111 -0.4091 -0.7873
34097SOL     OW 4543   8.102   2.668   2.776  0.7647 -0.5368  0.8334
34097SOL    HW1 4544   8.031   2.701   2.832  0.2384 -1.4902  0.7507
34097SOL    HW2 4545   8.109   2.733   2.706 -0.6789 -0.9000  0.3265
34098SOL     OW 4546   1.394   3.850   0.979  0.0485  0.1703  0.7453
34098SOL    HW1 4547   1.450   3.921   0.948 -0.0915 -0.2492 -0.5265
34098SOL    HW2 4548   1.451   3.798   1.036  1.0622 -0.3706 -0.6878
34099SOL     OW 4549   0.435   8.685   8.220 -0.4237  0.2103  0.0077
34099SOL    HW1 4550   0.464   8.695   8.311  2.2042 -0.3769 -0.6726
34099SOL    HW2 4551   0.503   8.729   8.169  0.6253 -3.2911 -1.8732
34100SOL     OW 4552   9.047   4.276   1.622  0.0320 -0.9329  0.6629
34100SOL    HW1 4553   9.081   4.210   1.682  2.4636 -0.4819 -0.0997
34100SOL    HW2 4554   9.012   4.226   1.548  0.8503 -1.3945  0.5801
34101SOL     OW 4555   3.988   9.750  10.092  0.0644  0.9225  0.1072
34101SOL    HW1 4556   4.041   9.680  10.131 -0.0640  1.0162  0.4582
34101SOL    HW2 4557   4.006   9.744   9.998  1.2575  1.4047  0.2851
34102SOL     OW 4558   9.377   1.421   7.341  0.4253 -0.4783  0.5141
34102SOL    HW1 4559   9.282   1.407   7.345  0.3934 -0.5684 -0.3418
34102SOL    HW2 4560   9.391   1.466   7.257  1.2185 -1.2308  0.2258
34103SOL     OW 4561   6.074   1.951   1.143  0.5446 -0.0747 -0.4883
34103SOL    HW1 4562   6.058   1.884   1.076 -1.9779  1.1386 -1.2466
34103SOL    HW2 4563   5.987   1.967   1.182  0.8045  3.4001 -1.0110
34104SOL     OW 4564   7.850   0.217   9.419  0.2991 -0.3258 -0.1034
34104SOL    HW1 4565   7.932   0.172   9.440  0.5491 -0.1416 -0.6691
34104SOL    HW2 4566   7.874   0.310   9.413  0.0710 -0.2852 -0.3993
34105SOL     OW 4567   9.172   3.661   6.031  0.0975  0.2661  0.0104
34105SOL    HW1 4568   9.228   3.616   6.094 -1.0628 -1.9896 -0.4610
34105SOL    HW2 4569   9.101   3.697   6.084  0.2735  0.2837  0.2358
34106SOL     OW 4570   4.214   8.766  10.396  0.1091  0.1118 -0.0947
34106SOL    HW1 4571   4.231   8.743  10.487  1.4163 -1.3978 -0.6677
34106SOL    HW2 4572   4.278   8.715  10.346 -1.9993 -0.8586 -2.0099
34107SOL     OW 4573   1.186   3.715   8.018  0.5080 -0.0385 -0.2140
34107SOL    HW1 4574   1.198   3.632   7.971  0.6513 -0.0631 -0.1347
34107SOL    HW2 4575   1.207   3.783   7.954 -0.0492 -0.0455 -0.4174
34108SOL     OW 4576   1.272   1.346   4.855  0.0439  0.0934  0.2589
34108SOL    HW1 4577   1.202   1.281   4.849 -1.2263  1.3665  0.7327
34108SOL    HW2 4578   1.348   1.296   4.885 -0.9534 -1.1394  0.8317
34109SOL     OW 4579   4.599   4.538   2.514 -0.2253 -0.3662 -0.3237
34109SOL    HW1 4580   4.604   4.458   2.566  0.9042 -0.5520 -0.6721
34109SOL    HW2 4581   4.691   4.560   2.496 -0.5180  1.1297 -0.0607
34110SOL     OW 4582   8.358   2.432   2.047  0.1193 -0.1189 -0.4968
34110SOL    HW1 4583   8.450   2.457   2.058  0.1038  0.0592 -0.7568
34110SOL    HW2 4584   8.319   2.448   2.133  0.0158  1.2011 -0.7676
34111SOL     OW 4585   1.991   3.212   6.975  0.6674 -0.0538  0.2477
34111SOL    HW1 4586   2.000   3.279   6.908  1.0932 -1.3836 -1.0911
34111SOL    HW2 4587   1.896   3.200   6.984  0.6090 -0.0147 -0.2862
34112SOL     OW 4588   2.520   7.610   7.020 -0.0187 -0.4746  0.2299
34112SOL    HW1 4589   2.611   7.629   6.998 -0.0944 -0.0320  0.2873
34112SOL    HW2 4590   2.481   7.696   7.038 -1.6429  0.0093 -4.2805
34113SOL     OW 4591   9.144   3.947   1.491 -0.2736 -0.4855 -0.6001
34113SOL    HW1 4592   9.088   3.889   1.440  0.6868  0.2525 -2.5940
34113SOL    HW2 4593   9.233   3.927   1.463  0.2208  0.6404  0.0754
34114SOL     OW 4594   5.527   9.617   6.051 -0.1142 -0.1999 -0.1169
34114SOL    HW1 4595   5.524   9.705   6.088 -0.4044  1.0800 -2.9274
34114SOL    HW2 4596   5.607   9.616   5.999 -2.5436  0.3919 -4.3220
34115SOL     OW 4597   9.878   5.054   9.503  0.5643 -0.5209  0.0394
34115SOL    HW1 4598   9.861   5.076   9.412 -0.4759  2.8590  0.9208
34115SOL    HW2 4599   9.946   5.115   9.531  1.2563 -1.8493  1.4441
34116SOL     OW 4600   2.965   6.593   7.453 -0.1921  0.2154  0.3526
34116SOL    HW1 4601   2.911   6.671   7.441 -1.0540 -0.2355  1.1130
34116SOL    HW2 4602   2.993   6.569   7.365 -2.3416 -0.2783 -0.2708
34117SOL     OW 4603   0.339   3.324   0.524 -0.2676 -1.1092  0.3863
34117SOL    HW1 4604   0.327   3.232   0.547 -1.7535 -1.4875 -1.6066
34117SOL    HW2 4605   0.340   3.325   0.428  0.2252  0.8907  0.3647
34118SOL     OW 4606   8.627   9.862   1.690  0.1753 -0.7563  0.6401
34118SOL    HW1 4607   8.654   9.944   1.731  0.1608  0.0706 -0.9099
34118SOL    HW2 4608   8.709   9.820   1.664  0.1437 -0.5678  0.2245
34119SOL     OW 4609   6.462   1.807   8.490  0.2009  0.2202 -0.1816
34119SOL    HW1 4610   6.542   1.773   8.530 -0.3673  1.8731  2.5942
34119SOL    HW2 4611   6.391   1.762   8.536 -0.5176  0.2204 -1.2396
34120SOL     OW 4612   2.090   1.436   7.175  0.1050 -0.0141 -0.1444
34120SOL    HW1 4613   2.036   1.431   7.254  2.4216 -0.0847  1.5538
34120SOL    HW2 4614   2.054   1.510   7.126 -0.8616  0.6037  1.4192
34121SOL     OW 4615   7.878   5.264   2.980 -0.4431 -0.0185  0.0363
34121SOL    HW1 4616   7.819   5.336   2.959  0.7185  0.9778  0.1293
34121SOL    HW2 4617   7.860   5.243   3.071 -0.2766  0.6468  0.2255
34122SOL     OW 4618   6.764   5.133   8.649  0.0303  0.0597  0.3046
34122SOL    HW1 4619   6.743   5.168   8.736  0.4624 -0.7362  0.7490
34122SOL    HW2 4620   6.859   5.141   8.642 -0.0068  0.1514 -0.1076
34123SOL     OW 4621   1.734   9.168   3.810 -0.1133 -0.3913  0.2309
34123SOL    HW1 4622   1.696   9.254   3.792  1.0580  0.0537 -0.2064
34123SOL    HW2 4623   1.829   9.182   3.803  0.1424 -1.4748  1.2445
34124SOL     OW 4624   5.486   4.349   0.761  0.0224 -0.3734 -0.7196
34124SOL    HW1 4625   5.523   4.264   0.740 -0.8295 -1.3359  1.3932
34124SOL    HW2 4626   5.550   4.390   0.820  0.5095  0.5705 -1.8520
34125SOL     OW 4627   0.766   6.060   3.315 -0.1197 -0.7967  0.2443
34125SOL    HW1 4628   0.766   6.072   3.220  0.1956 -1.5605  0.1388
34125SOL    HW2 4629   0.845   6.008   3.333  0.5535  0.4786  1.0870
34126SOL     OW 4630   1.432   8.090   6.502 -0.0630  0.1582  0.0987
34126SOL    HW1 4631   1.507   8.142   6.473  0.9081  0.4935  2.9107
34126SOL    HW2 4632   1.465   8.000   6.504  0.5043  0.3628  1.7981
34127SOL     OW 4633   7.309   5.611   3.609  0.3428 -0.5104 -0.1196
34127SOL    HW1 4634   7.302   5.620   3.704 -1.1639  0.0238 -0.2537
34127SOL    HW2 4635   7.328   5.519   3.595  0.4530 -0.6212  0.6948
34128SOL     OW 4636   1.584  10.048   4.880 -0.1276 -0.4760  0.2589
34128SOL    HW1 4637   1.570   9.962   4.840 -0.4559 -0.4693  0.3645
34128SOL    HW2 4638   1.531  10.108   4.828  1.4437 -0.0390 -0.9376
34129SOL     OW 4639   1.001   8.111   2.741 -0.6190  0.2266 -0.3137
34129SOL    HW1 4640   1.043   8.077   2.820  0.8301  2.3574 -0.1065
34129SOL    HW2 4641   0.994   8.205   2.755 -1.0572  0.5620 -2.4045
34130SOL     OW 4642   7.460   3.743   1.009 -0.2151 -0.4392  0.2741
34130SOL    HW1 4643   7.481   3.693   0.931 -0.5606 -1.1398  0.6146
34130SOL    HW2 4644   7.539   3.793   1.028 -0.5561  0.7418 -1.2555
34131SOL     OW 4645   2.953   9.634   4.448  0.1399  0.1873 -0.5426
34131SOL    HW1 4646   2.985   9.717   4.412 -0.1906  1.0519  1.0819
34131SOL    HW2 4647   3.024   9.571   4.431  1.6732  1.4852  0.7914
34132SOL     OW 4648   4.887   8.879  10.156 -0.1848  0.3627 -0.0848
34132SOL    HW1 4649   4.964   8.827  10.176 -0.7593  0.4332  2.6456
34132SOL    HW2 4650   4.917   8.970  10.163 -0.3014  0.3935  0.0215
34133SOL     OW 4651   6.855  10.490   7.138 -0.7477 -0.2921  0.3352
34133SOL    HW1 4652   6.835  10.570   7.089  0.1234 -1.2453 -1.7170
34133SOL    HW2 4653   6.911  10.519   7.210  1.8212  0.7169 -1.9074
34134SOL     OW 4654   7.639   6.360   3.279  0.4375  0.6513  0.3605
34134SOL    HW1 4655   7.725   6.369   3.239  0.4202 -0.0913  0.1441
34134SOL    HW2 4656   7.579   6.400   3.216  0.4996  0.1871  0.0024
34135SOL     OW 4657   3.365   7.558   9.719 -0.0028  0.3340  0.0032
34135SOL    HW1 4658   3.364   7.615   9.642 -0.9821 -1.4861 -1.4246
34135SOL    HW2 4659   3.273   7.554   9.746 -0.1052 -1.1722 -0.4628
34136SOL     OW 4660   8.147   5.576  10.375  0.0537 -0.1689 -0.0773
34136SOL    HW1 4661   8.067   5.580  10.428  0.5665  0.6123  0.6553
34136SOL    HW2 4662   8.208   5.524  10.428  0.8651  1.3463  0.5302
34137SOL     OW 4663   5.132   7.706   2.544 -0.1332 -0.0404 -0.2215
34137SOL    HW1 4664   5.203   7.648   2.518  0.0593 -0.4321  1.1081
34137SOL    HW2 4665   5.065   7.647   2.579 -0.8516  0.3809 -0.8474
34138SOL     OW 4666   8.797   9.248   5.852 -0.4172  0.1796 -1.0488
34138SOL    HW1 4667   8.736   9.322   5.858  0.5362  0.9606 -0.7511
34138SOL    HW2 4668   8.747   9.174   5.886 -0.3336  1.3588  1.9440
34139SOL     OW 4669  10.449   2.811   4.637 -0.4124  0.2060 -0.7010
34139SOL    HW1 4670  10.499   2.832   4.716  0.1243 -1.0209 -0.6832
34139SOL    HW2 4671  10.435   2.716   4.642 -3.2348  0.5461 -0.4478
34140SOL     OW 4672   3.633   5.224   2.924 -0.0015  0.1424  0.3440
34140SOL    HW1 4673   3.665   5.137   2.901  1.6309  0.6223  0.6818
34140SOL    HW2 4674   3.608   5.217   3.016  1.9641  0.4766  0.9485
34141SOL     OW 4675   0.383   1.368   6.658  0.1544 -0.3003  0.7985
34141SOL    HW1 4676   0.328   1.414   6.595  0.2244 -1.2512  0.0312
34141SOL    HW2 4677   0.469   1.409   6.648 -0.5815  2.0172  2.8337
34142SOL     OW 4678   4.350   2.628   7.716 -0.7375  0.5694  0.6663
34142SOL    HW1 4679   4.265   2.608   7.756 -1.0987  0.5476 -0.0911
34142SOL    HW2 4680   4.359   2.723   7.725 -0.4767  0.4766  1.4453
34143SOL     OW 4681   1.283   2.692   1.155  0.1561 -0.4281 -0.2531
34143SOL    HW1 4682   1.312   2.635   1.226 -2.4408 -1.5887 -0.0015
34143SOL    HW2 4683   1.363   2.731   1.121  1.5392  0.6756  3.6796
34144SOL     OW 4684   5.647   3.357   9.278 -0.1472  0.2124 -0.4912
34144SOL    HW1 4685   5.582   3.412   9.323 -2.7952 -0.3513 -3.3261
34144SOL    HW2 4686   5.686   3.304   9.348 -5.3639 -2.0195  1.1999
34145SOL     OW 4687   9.156   6.446   3.108  0.5879 -0.0665  0.5492
34145SOL    HW1 4688   9.192   6.520   3.059 -1.3473  0.0296 -0.8587
34145SOL    HW2 4689   9.061   6.460   3.104  0.1898 -2.4912  0.4598
34146SOL     OW 4690  10.165   1.276   4.336 -0.3012 -0.1329  0.4810
34146SOL    HW1 4691  10.243   1.225   4.315 -0.8484 -0.5659 -0.6009
34146SOL    HW2 4692  10.182   1.311   4.423  1.7129  0.9790 -0.2869
34147SOL     OW 4693   0.215   7.441   5.165 -0.0903  0.1438 -0.0067
34147SOL    HW1 4694   0.258   7.425   5.250 -0.1030  0.9152  0.1510
34147SOL    HW2 4695   0.124   7.416   5.179  0.0891 -0.5786 -0.0607
34148SOL     OW 4696   7.256   6.346   8.636  0.1007  0.3453  0.2050
34148SOL    HW1 4697   7.302   6.384   8.561 -1.0348  2.0046  0.2991
34148SOL    HW2 4698   7.243   6.254   8.612  1.3672  0.4057 -0.8227
34149SOL     OW 4699   8.568   0.518   3.921 -0.0001 -0.0456  0.7200
34149SOL    HW1 4700   8.575   0.607   3.957  1.3585 -0.1240  0.6918
34149SOL    HW2 4701   8.582   0.460   3.996  0.2449 -0.2260  0.5367
34150SOL     OW 4702   9.805   3.134   6.154 -0.1813  0.0434  0.5886
34150SOL    HW1 4703   9.726   3.162   6.108  0.2308 -1.6957 -1.3579
34150SOL    HW2 4704   9.776   3.068   6.216 -0.3299 -0.2453  0.2148
34151SOL     OW 4705   7.056   6.321   7.450  0.1180 -0.4142  0.0761
34151SOL    HW1 4706   7.001   6.368   7.387 -0.0142 -1.4096 -0.5694
34151SOL    HW2 4707   7.144   6.355   7.436 -0.1016  0.2076  0.1750
34152SOL     OW 4708   0.201   0.289  10.209 -0.5244 -0.2401 -0.3198
34152SOL    HW1 4709   0.207   0.375  10.167  1.0461 -0.1568  0.0061
34152SOL    HW2 4710   0.201   0.309  10.302 -0.7823 -0.5626 -0.2539
34153SOL     OW 4711   0.682   7.022   6.476  0.7727 -0.2740 -0.3074
34153SOL    HW1 4712   0.715   6.959   6.413 -1.4913 -0.4764 -1.4018
34153SOL    HW2 4713   0.621   6.972   6.531 -0.9342  0.8355 -1.0881
34154SOL     OW 4714   0.384   7.001   8.353  0.1715 -0.3339  0.1831
34154SOL    HW1 4715   0.372   6.972   8.444 -2.1045  1.3191  0.5056
34154SOL    HW2 4716   0.458   6.949   8.321  1.4377 -0.5759  3.1288
34155SOL     OW 4717   8.760   6.004   9.295  0.0509 -0.2446 -0.1615
34155SOL    HW1 4718   8.754   5.947   9.218 -0.2912  0.7161 -0.8667
34155SOL    HW2 4719   8.681   5.985   9.345 -0.4225  0.1161 -0.7581
34156SOL     OW 4720   8.780   0.899   4.563  0.1267 -0.1639  0.0565
34156SOL    HW1 4721   8.688   0.923   4.550  0.3421  0.7586  0.1341
34156SOL    HW2 4722   8.794   0.824   4.505 -0.4453  0.2361 -0.6219
34157SOL     OW 4723   1.898   2.462   4.561 -0.4536 -0.0720 -0.1213
34157SOL    HW1 4724   1.917   2.520   4.487  0.6774 -0.6767 -0.3287
34157SOL    HW2 4725   1.929   2.376   4.532 -2.2200 -0.8261  0.1249
34158SOL     OW 4726   8.595   1.634   4.101 -0.1160  0.0477  0.5167
34158SOL    HW1 4727   8.644   1.607   4.179  0.2473  1.1401  0.6841
34158SOL    HW2 4728   8.612   1.728   4.094  0.1246 -0.0987 -1.0866
34159SOL     OW 4729   2.755   7.289   7.840  0.0901 -0.7485  0.1521
34159SOL    HW1 4730   2.725   7.199   7.840 -1.2687 -0.3230 -0.4333
34159SOL    HW2 4731   2.718   7.327   7.761  2.3646 -0.2015 -0.7345
34160SOL     OW 4732   3.429   7.693   0.216  0.1389 -0.3897 -0.0044
34160SOL    HW1 4733   3.433   7.739   0.132  0.0891  2.6094  1.4912
34160SOL    HW2 4734   3.517   7.704   0.253 -0.8883  2.0246  2.0218
34161SOL     OW 4735   0.068   0.970   5.957 -0.0718 -0.0244 -0.1274
34161SOL    HW1 4736   0.010   1.042   5.932  1.8226  1.1397 -1.4925
34161SOL    HW2 4737   0.084   0.982   6.050  0.2715  1.4152 -0.3524
34162SOL     OW 4738   8.806   8.276   3.708 -0.1829 -0.1088  0.5182
34162SOL    HW1 4739   8.786   8.185   3.686 -0.8304  0.5440 -1.8787
34162SOL    HW2 4740   8.781   8.284   3.800 -0.1699 -2.3122  0.7779
34163SOL     OW 4741   6.062   0.490   7.076  0.4817  0.4167 -0.3440
34163SOL    HW1 4742   6.085   0.399   7.092 -1.8753 -0.0884  0.4735
34163SOL    HW2 4743   6.142   0.539   7.098  0.8833 -1.1975  2.1914
34164SOL     OW 4744   9.660   1.777   9.523  0.1408  0.2079 -0.1875
34164SOL    HW1 4745   9.658   1.857   9.575 -0.1627  0.4749 -0.6005
34164SOL    HW2 4746   9.746   1.778   9.481  0.7232 -0.4366  0.9562
34165SOL     OW 4747   0.108   6.524   0.278 -0.3487 -0.1265 -0.1021
34165SOL    HW1 4748   0.136   6.433   0.279  0.0454 -0.0319 -1.1661
34165SOL    HW2 4749   0.181   6.572   0.316 -0.5290 -0.2400  0.3963
34166SOL     OW 4750   5.224   0.263   9.615 -0.0343 -0.1029  0.7216
34166SOL    HW1 4751   5.300   0.222   9.573 -0.0546  0.7935 -0.2381
34166SOL    HW2 4752   5.158   0.270   9.546 -0.8941 -0.6032  1.4724
34167SOL     OW 4753   1.015   2.181   1.039 -0.0058 -0.0529 -0.0453
34167SOL    HW1 4754   1.013   2.185   0.943  0.4990 -0.9571 -0.1059
34167SOL    HW2 4755   0.941   2.124   1.061  0.9815 -1.3654 -0.0212
34168SOL     OW 4756   6.742   7.340  10.512 -0.5355 -0.2889 -0.2695
34168SOL    HW1 4757   6.652   7.347  10.481 -0.5299  0.2476 -0.1641
34168SOL    HW2 4758   6.754   7.246  10.529  0.1805 -0.9923 -3.9362
34169SOL     OW 4759   9.531   6.737   2.407 -1.0313  0.9452 -0.5385
34169SOL    HW1 4760   9.561   6.649   2.383  0.4988  1.0720  0.7283
34169SOL    HW2 4761   9.437   6.736   2.391 -1.3219 -1.4290  0.9228
34170SOL     OW 4762   9.027   1.848  10.320  0.1336 -0.0567  0.2964
34170SOL    HW1 4763   8.977   1.909  10.374  1.1107  0.3230  0.8065
34170SOL    HW2 4764   8.975   1.767  10.320 -1.2983  0.8435 -0.6050
34171SOL     OW 4765   4.662   2.701   3.075  0.1891  0.2457  0.5003
34171SOL    HW1 4766   4.605   2.728   3.003  2.0817  0.9783 -0.8109
34171SOL    HW2 4767   4.607   2.707   3.153 -1.6207  0.4908 -0.7395
34172SOL     OW 4768   8.422   0.936   5.308  0.5505  0.3754  0.3666
34172SOL    HW1 4769   8.417   0.853   5.261  2.2362 -1.6462  3.4426
34172SOL    HW2 4770   8.345   0.936   5.365  0.2715  1.1935 -0.0030
34173SOL     OW 4771   5.761   9.396   9.868 -0.1638 -0.0434  0.1694
34173SOL    HW1 4772   5.753   9.465   9.801 -0.0908  1.6092  1.7785
34173SOL    HW2 4773   5.853   9.370   9.864  0.3315  1.4593  0.8910
34174SOL     OW 4774   7.838   3.793   9.983 -0.4050  0.3294 -0.5007
34174SOL    HW1 4775   7.790   3.876   9.979 -1.3547 -0.0396  1.8121
34174SOL    HW2 4776   7.791   3.741  10.048  2.3707 -0.5852  0.9363
34175SOL     OW 4777   0.829   4.816   7.098 -0.2922  0.2955 -0.3794
34175SOL    HW1 4778   0.896   4.823   7.166  0.4839 -0.8805 -0.9941
34175SOL    HW2 4779   0.751   4.856   7.138 -0.0869 -1.0498  1.4971
34176SOL     OW 4780   5.580   7.822   1.945 -0.0222  0.1975 -0.0503
34176SOL    HW1 4781   5.525   7.746   1.962 -0.7132  0.1970 -2.0299
34176SOL    HW2 4782   5.607   7.852   2.032 -0.4149 -1.7833  0.8107
34177SOL     OW 4783   0.830   5.883   8.450 -0.0715 -0.2354  0.0726
34177SOL    HW1 4784   0.900   5.826   8.417 -0.2545 -0.6836  0.4479
34177SOL    HW2 4785   0.753   5.827   8.452 -0.2112 -0.0325  0.6277
34178SOL     OW 4786   6.245   4.996   5.952 -0.2360  0.1207  0.1555
34178SOL    HW1 4787   6.204   5.083   5.960 -0.4897  0.2138 -1.6746
34178SOL    HW2 4788   6.318   5.010   5.890 -1.6675 -1.3662 -2.0042
34179SOL     OW 4789   4.895   9.794   7.883  0.1299 -0.2611  0.4704
34179SOL    HW1 4790   4.864   9.875   7.842  1.6684  0.3019  0.3580
34179SOL    HW2 4791   4.922   9.820   7.971 -0.0887 -0.8058  0.7046
34180SOL     OW 4792   6.811   4.086   2.821 -0.1639  0.0940 -0.0702
34180SOL    HW1 4793   6.821   4.138   2.742  1.4364  1.2575  0.8639
34180SOL    HW2 4794   6.864   4.007   2.805 -0.3824  0.0137 -0.4063
34181SOL     OW 4795   9.838   2.809   7.604  0.0574  0.3071  0.0595
34181SOL    HW1 4796   9.904   2.859   7.652  1.3584 -0.6928 -0.6231
34181SOL    HW2 4797   9.837   2.723   7.647 -0.2739  0.0800 -0.3965
34182SOL     OW 4798   8.770   0.152   7.064 -0.1272 -0.2326 -0.0027
34182SOL    HW1 4799   8.699   0.099   7.027 -0.1555  0.6458 -1.2999
34182SOL    HW2 4800   8.781   0.223   7.001  0.5236  0.7940  1.2275
34183SOL     OW 4801   0.105   7.533   3.372  0.3359 -0.0458 -0.3180
34183SOL    HW1 4802   0.079   7.510   3.283  0.3085 -0.2004 -0.2697
34183SOL    HW2 4803   0.050   7.479   3.428 -0.2586  0.6751 -0.1877
34184SOL     OW 4804   3.276   3.981   4.873 -0.3757 -0.1103  0.3879
34184SOL    HW1 4805   3.207   3.969   4.807 -0.0186  0.5124 -0.1088
34184SOL    HW2 4806   3.314   4.066   4.853 -1.0216  0.6191  2.1313
34185SOL     OW 4807   6.600   9.556   2.276  0.0178  0.0442  1.0881
34185SOL    HW1 4808   6.643   9.492   2.219  0.7944  0.3793  1.2829
34185SOL    HW2 4809   6.520   9.581   2.229  0.9757  0.8221 -0.1835
34186SOL     OW 4810   1.483   8.364   4.943 -0.5820 -0.1943  0.4625
34186SOL    HW1 4811   1.543   8.434   4.968  0.6316 -0.6348 -1.0097
34186SOL    HW2 4812   1.503   8.293   5.003  0.6338 -0.4364 -0.1816
34187SOL     OW 4813   1.451   3.493   8.051  0.0663  0.1886 -0.4827
34187SOL    HW1 4814   1.541   3.517   8.028  0.0604 -0.2398 -0.9913
34187SOL    HW2 4815   1.400   3.515   7.974 -0.3342  0.7765 -0.0550
34188SOL     OW 4816   0.356   9.079   0.704 -0.0440 -0.2716 -0.1336
34188SOL    HW1 4817   0.391   9.162   0.672 -1.4705 -0.2513 -1.7444
34188SOL    HW2 4818   0.430   9.018   0.696  0.5872  0.4931 -0.3402
34189SOL     OW 4819   2.590   8.555   3.055 -0.1992 -0.3627 -0.0077
34189SOL    HW1 4820   2.669   8.502   3.047 -0.2508 -1.0353  2.8578
34189SOL    HW2 4821   2.554   8.558   2.967  2.1040 -1.4558 -1.0606
34190SOL     OW 4822  10.416   8.164   3.181  0.3173 -0.3509  0.4197
34190SOL    HW1 4823  10.354   8.193   3.248  0.4465 -0.6587  0.6782
34190SOL    HW2 4824  10.400   8.071   3.172 -1.1842  0.0515 -1.5684
34191SOL     OW 4825   3.765   8.162   9.531 -0.0239  0.1577  0.0681
34191SOL    HW1 4826   3.768   8.244   9.482  0.7292 -0.0154 -0.1927
34191SOL    HW2 4827   3.712   8.104   9.477 -2.0817  0.9818  1.0905
34192SOL     OW 4828   6.790   1.227   6.782 -0.4133  0.1799  0.0539
34192SOL    HW1 4829   6.831   1.198   6.864 -0.2490  0.2262 -0.0111
34192SOL    HW2 4830   6.696   1.216   6.797 -0.5446  2.1327  1.0175
34193SOL     OW 4831   8.743   3.909   4.647  0.0360  0.1379  0.3020
34193SOL    HW1 4832   8.691   3.898   4.727  0.6041  0.2366  0.6946
34193SOL    HW2 4833   8.831   3.878   4.671 -0.0672 -0.9867 -0.6453
34194SOL     OW 4834   0.105   3.751   3.395 -0.7777 -0.2077  0.5094
34194SOL    HW1 4835   0.112   3.763   3.490  0.0678 -0.5283  0.4940
34194SOL    HW2 4836   0.185   3.704   3.371 -1.0402 -0.2256 -0.3474
34195SOL     OW 4837   0.370   5.003   9.461  0.5703  0.2349 -0.2628
34195SOL    HW1 4838   0.415   4.929   9.420 -0.1219 -0.3282 -0.0312
34195SOL    HW2 4839   0.379   4.988   9.555  0.7443  0.6520 -0.2080
34196SOL     OW 4840   7.100   0.421   2.099 -0.2195 -0.5675 -0.3240
34196SOL    HW1 4841   7.109   0.500   2.153 -0.2680 -0.8696  0.1229
34196SOL    HW2 4842   7.141   0.445   2.015  0.5445 -0.3554  0.1054
34197SOL     OW 4843   0.202   2.037   6.798 -0.2632 -0.1102  0.2811
34197SOL    HW1 4844   0.179   1.951   6.833 -2.3637  0.7307  1.1621
34197SOL    HW2 4845   0.212   2.093   6.876 -0.3332  0.7555 -0.3173
34198SOL     OW 4846   8.759  10.396   8.411 -0.5836 -0.0214  0.3747
34198SOL    HW1 4847   8.738  10.489   8.399  1.4969  0.6390  1.3410
34198SOL    HW2 4848   8.723  10.375   8.497 -0.5993  0.0309  0.3815
34199SOL     OW 4849   9.301   8.025   1.200 -0.2302 -0.5903  0.1941
34199SOL    HW1 4850   9.225   7.967   1.212 -0.4179 -0.4804 -0.4155
34199SOL    HW2 4851   9.363   7.973   1.149 -0.1467 -0.4676  0.1695
34200SOL     OW 4852   0.925   7.898   9.362  0.6030 -0.0164 -0.4760
34200SOL    HW1 4853   0.957   7.987   9.376 -0.8255  0.8712 -2.3980
34200SOL    HW2 4854   0.831   7.903   9.382  0.5495 -1.1721 -0.3532
34201SOL     OW 4855   0.910   5.627   4.324 -0.4198 -0.5822  0.1232
34201SOL    HW1 4856   0.833   5.579   4.294 -0.7153 -0.4179  0.6027
34201SOL    HW2 4857   0.882   5.668   4.406  0.0685 -0.2324  0.1202
34202SOL     OW 4858   5.774   0.041   9.295 -0.3794  0.6401 -0.1812
34202SOL    HW1 4859   5.710   0.083   9.239 -0.1189  1.5127  0.1620
34202SOL    HW2 4860   5.845   0.016   9.236 -1.0775 -0.4822 -0.5915
34203SOL     OW 4861   4.522   4.206   2.220 -0.4887  0.4085 -0.0417
34203SOL    HW1 4862   4.456   4.267   2.188 -1.2057 -0.8475 -1.0325
34203SOL    HW2 4863   4.605   4.252   2.208 -0.9030  0.7082 -1.9788
34204SOL     OW 4864  10.141   8.896   3.066  0.1454 -0.5182  0.4467
34204SOL    HW1 4865  10.124   8.928   2.977  0.0229 -1.2861  0.1780
34204SOL    HW2 4866  10.082   8.946   3.122  3.0724  3.0538  0.7584
34205SOL     OW 4867   6.198   8.914   4.735 -0.1965 -0.5327  0.4398
34205SOL    HW1 4868   6.201   9.000   4.693 -1.2260 -0.6411  0.0995
34205SOL    HW2 4869   6.149   8.859   4.672 -0.5582 -1.0565  1.1633
34206SOL     OW 4870   9.263   0.395   2.119 -0.3092 -0.4404 -0.3930
34206SOL    HW1 4871   9.237   0.464   2.180  0.1640  0.1224 -0.8180
34206SOL    HW2 4872   9.214   0.414   2.039  1.0198  0.3710 -1.0520
34207SOL     OW 4873   7.788   1.487   8.037  0.1994  0.1564 -1.0109
34207SOL    HW1 4874   7.693   1.502   8.031  0.0466 -1.2651 -3.4474
34207SOL    HW2 4875   7.796   1.393   8.049  1.3351  0.4699  1.0917
34208SOL     OW 4876  10.002   7.900   9.258 -0.0319  0.5049  0.4891
34208SOL    HW1 4877   9.908   7.895   9.276 -0.3485  1.7774 -0.6353
34208SOL    HW2 4878  10.030   7.983   9.298  0.3463  0.7321 -0.2226
34209SOL     OW 4879   6.534   0.703   6.228 -0.1130 -0.2507  0.0821
34209SOL    HW1 4880   6.503   0.763   6.160  0.5366  0.5257  0.4517
34209SOL    HW2 4881   6.497   0.618   6.203  1.3490 -0.3410 -2.1168
34210SOL     OW 4882   1.964   0.257   6.869 -0.1043  0.1608  0.7445
34210SOL    HW1 4883   1.960   0.251   6.773 -0.8050 -1.7296  0.8471
34210SOL    HW2 4884   1.937   0.347   6.888 -1.2629  0.1837 -0.7736
34211SOL     OW 4885   7.030   5.797   7.388  0.3180 -0.0257 -0.1221
34211SOL    HW1 4886   7.120   5.776   7.415  0.7163  1.2206 -0.4345
34211SOL    HW2 4887   7.001   5.864   7.449 -0.5554 -0.6978  0.2153
34212SOL     OW 4888  10.435   3.263   5.495  0.0189  0.2831  0.1775
34212SOL    HW1 4889  10.445   3.334   5.558 -0.9641  0.9487 -0.3983
34212SOL    HW2 4890  10.524   3.231   5.481  0.3053  0.3603  1.6122
34213SOL     OW 4891   9.135   2.095   2.694 -0.2737  0.6163  0.0317
34213SOL    HW1 4892   9.183   2.164   2.647  0.9745 -1.4974 -2.0233
34213SOL    HW2 4893   9.113   2.031   2.626 -1.4310 -0.9874  1.8259
34214SOL     OW 4894   7.127   2.873   3.838 -0.3451 -0.0064  0.4066
34214SOL    HW1 4895   7.198   2.836   3.786 -1.7048 -1.4055 -0.5564
34214SOL    HW2 4896   7.121   2.964   3.811  2.2289  0.7075  1.8595
34215SOL     OW 4897   3.226   8.648   3.330 -0.5485 -0.1441 -0.5545
34215SOL    HW1 4898   3.249   8.617   3.418  0.8421 -0.2280 -0.9127
34215SOL    HW2 4899   3.251   8.576   3.272 -1.6997 -0.1925 -1.0032
34216SOL     OW 4900   7.704   9.498   1.348  0.2243 -0.6727 -0.2389
34216SOL    HW1 4901   7.629   9.441   1.333 -0.0780 -1.1282  2.4618
34216SOL    HW2 4902   7.668   9.587   1.344 -0.4291 -0.8765  0.6715
34217SOL     OW 4903   9.080   7.227   2.346 -0.2475  0.4902  0.3293
34217SOL    HW1 4904   9.021   7.301   2.361 -1.9437 -0.4527 -1.2455
34217SOL    HW2 4905   9.024   7.150   2.352  0.4780 -0.3856 -2.5238
34218SOL     OW 4906   6.051   7.255   2.164 -0.6570 -0.0978 -0.1420
34218SOL    HW1 4907   6.121   7.243   2.099 -0.3333  1.5163 -0.1517
34218SOL    HW2 4908   5.990   7.315   2.122 -2.4583 -2.0199 -0.3998
34219SOL     OW 4909   9.259   0.201   8.662  0.6066 -0.2242 -0.1234
34219SOL    HW1 4910   9.308   0.264   8.609  0.3570  1.2046  1.2516
34219SOL    HW2 4911   9.197   0.161   8.601  1.1664  0.4346 -1.1560
34220SOL     OW 4912   1.613   8.081   0.391 -0.0815  0.2353  0.6565
34220SOL    HW1 4913   1.592   8.034   0.471 -0.7071  1.7956  1.4445
34220SOL    HW2 4914   1.528   8.104   0.353  0.1706  1.6831  0.8971
34221SOL     OW 4915   3.015  10.092   3.963  0.2566  0.5367 -0.1820
34221SOL    HW1 4916   3.029  10.184   3.940 -0.7363  0.4158 -1.4023
34221SOL    HW2 4917   2.951  10.095   4.033 -1.1831  0.7481 -1.4565
34222SOL     OW 4918   9.946   2.222   7.470 -0.5784 -0.3334 -0.3524
34222SOL    HW1 4919   9.924   2.220   7.563  0.7037  0.6143 -0.0142
34222SOL    HW2 4920   9.929   2.133   7.440 -0.4785 -0.7971  0.9110
34223SOL     OW 4921   4.088   4.223   2.013 -0.2848  0.0012  0.0029
34223SOL    HW1 4922   4.139   4.298   2.044 -2.4141  1.1931  0.8814
34223SOL    HW2 4923   4.142   4.184   1.945  1.3122  1.8028  0.1366
34224SOL     OW 4924   8.276   9.204   9.617  0.6352 -0.4423  0.5742
34224SOL    HW1 4925   8.183   9.182   9.622  0.5818 -0.5426 -0.5388
34224SOL    HW2 4926   8.307   9.201   9.707 -0.3492 -0.8146  0.9077
34225SOL     OW 4927   6.827   3.309  10.137 -0.2879  0.4829  0.0694
34225SOL    HW1 4928   6.896   3.355  10.089 -0.9353  1.5495  0.1358
34225SOL    HW2 4929   6.768   3.378  10.167 -1.8132 -0.4553 -0.6532
34226SOL     OW 4930   2.634   1.440   4.800 -0.5235  0.3348  0.9592
34226SOL    HW1 4931   2.544   1.471   4.791 -0.8323 -0.7758 -0.0899
34226SOL    HW2 4932   2.625   1.347   4.820  0.3925  0.1726  0.6550
34227SOL     OW 4933   4.819   7.010   8.179 -0.2752  0.2751  0.1303
34227SOL    HW1 4934   4.769   7.082   8.217  0.5657  1.4172 -0.8459
34227SOL    HW2 4935   4.908   7.024   8.212  0.3363  0.9208 -1.7170
34228SOL     OW 4936   3.810   5.539  10.072  0.3098 -0.5127  0.1570
34228SOL    HW1 4937   3.781   5.578  10.155  1.9437  1.4508 -0.1007
34228SOL    HW2 4938   3.754   5.579  10.006  0.0065 -0.9051  0.1793
34229SOL     OW 4939   5.784   4.214   0.237  0.3867  0.2289 -0.1101
34229SOL    HW1 4940   5.760   4.247   0.151 -0.0987 -1.9174 -0.8386
34229SOL    HW2 4941   5.787   4.119   0.228 -0.1083 -0.1108  2.3284
34230SOL     OW 4942   1.038   3.502   7.843  0.1024  0.0358  0.0160
34230SOL    HW1 4943   1.061   3.411   7.857  0.0318 -0.1184 -0.7812
34230SOL    HW2 4944   1.042   3.513   7.747  0.4198  0.9432  0.1216
34231SOL     OW 4945   8.779   0.671   5.838 -0.0221 -0.4471 -0.6499
34231SOL    HW1 4946   8.775   0.609   5.911  1.4001 -0.0451 -0.1842
34231SOL    HW2 4947   8.820   0.621   5.767 -0.9377 -0.6874 -1.0195
34232SOL     OW 4948   5.635   1.880   3.043  0.0044 -0.5261 -0.1148
34232SOL    HW1 4949   5.675   1.800   3.077  1.7326 -0.1614 -1.1473
34232SOL    HW2 4950   5.625   1.936   3.119 -1.1138 -1.6527  0.6043
34233SOL     OW 4951   0.518   8.039   6.160 -0.0245  0.3856 -0.4081
34233SOL    HW1 4952   0.517   8.110   6.096  0.0851  0.4331 -0.3570
34233SOL    HW2 4953   0.595   8.056   6.214  0.4335 -0.1986 -0.8670
34234SOL     OW 4954   8.614   5.751   3.299  0.2455  0.0945  0.1498
34234SOL    HW1 4955   8.609   5.723   3.390  0.8796 -1.6429 -0.3051
34234SOL    HW2 4956   8.671   5.686   3.257 -0.7687  0.3077 -1.6798
34235SOL     OW 4957   7.429   5.051   5.206 -0.1771 -0.2538  0.0373
34235SOL    HW1 4958   7.423   5.123   5.268 -0.1571  0.9158 -1.2776
34235SOL    HW2 4959   7.499   4.995   5.240  0.7584  1.0745  0.3628
34236SOL     OW 4960   2.945   3.675  10.057  0.9989  0.3563  0.4911
34236SOL    HW1 4961   2.961   3.625  10.138 -1.4581 -2.2004 -0.4351
34236SOL    HW2 4962   2.917   3.761  10.087  1.5846 -0.0319  2.3073
34237SOL     OW 4963   1.314   2.763   2.796  0.1505 -0.6714 -0.5265
34237SOL    HW1 4964   1.399   2.760   2.840 -0.5353 -0.7361  0.8622
34237SOL    HW2 4965   1.335   2.774   2.704  1.6298  1.5467  0.0020
34238SOL     OW 4966   3.236   6.376   1.779  0.1252 -0.3514 -0.1679
34238SOL    HW1 4967   3.206   6.387   1.869  0.0360 -2.6810  0.1612
34238SOL    HW2 4968   3.318   6.424   1.774 -0.0499  0.1029  1.0524
34239SOL     OW 4969   4.032   2.168   1.439  0.2266 -0.6141  0.0515
34239SOL    HW1 4970   4.050   2.261   1.455 -0.2479 -0.4900 -0.0971
34239SOL    HW2 4971   3.981   2.141   1.515 -0.6300 -0.4457 -0.4453
34240SOL     OW 4972   9.018   7.125   8.963 -0.5847  0.3156  0.2249
34240SOL    HW1 4973   9.102   7.116   9.007 -0.2294 -0.6866 -0.6019
34240SOL    HW2 4974   8.963   7.175   9.024  0.3056  0.1489  1.1813
34241SOL     OW 4975   6.800   8.279   4.223 -0.5180 -0.2002  0.6241
34241SOL    HW1 4976   6.890   8.249   4.212 -0.6226 -0.9684  1.7335
34241SOL    HW2 4977   6.803   8.372   4.198  0.2600 -0.5538 -0.7423
34242SOL     OW 4978   4.921   8.204   1.442  0.2370 -0.2718  0.1763
34242SOL    HW1 4979   4.973   8.238   1.369 -0.3514 -1.7538 -0.9875
34242SOL    HW2 4980   4.863   8.276   1.465  1.6413  0.8408  0.4063
34243SOL     OW 4981  10.337  10.644   8.167  0.2851  0.0232 -0.6499
34243SOL    HW1 4982  10.421  10.635   8.211  0.2293 -0.2628 -0.5940
34243SOL    HW2 4983  10.315  10.555   8.139  0.0572  0.1143 -0.7667
34244SOL     OW 4984  10.245   8.378   7.990  1.2831 -0.2229 -0.1924
34244SOL    HW1 4985  10.162   8.332   7.985  1.5617 -0.6540 -1.2009
34244SOL    HW2 4986  10.230   8.451   8.050 -0.1372  0.3589 -1.2187
34245SOL     OW 4987   4.318   7.425   4.979  0.0997  0.2374  0.4465
34245SOL    HW1 4988   4.231   7.388   4.970 -0.8759  1.7318  2.6939
34245SOL    HW2 4989   4.343   7.406   5.070  2.5331 -0.9155 -0.3667
34246SOL     OW 4990   7.342   7.888  10.009  0.5322 -0.7637  0.1756
34246SOL    HW1 4991   7.266   7.835  10.033  0.4404 -0.0600  1.5239
34246SOL    HW2 4992   7.410   7.823   9.989 -0.6490 -1.4321 -2.0952
34247SOL     OW 4993   8.271   0.786   0.607 -0.4439  0.5569 -0.3181
34247SOL    HW1 4994   8.310   0.755   0.526  0.1892 -1.1636  0.6056
34247SOL    HW2 4995   8.177   0.780   0.592 -0.4422 -3.4547  0.2847
34248SOL     OW 4996   3.197   6.642   4.344 -0.1134 -0.7155 -0.0500
34248SOL    HW1 4997   3.239   6.581   4.284 -0.2276 -0.2980 -0.5667
34248SOL    HW2 4998   3.262   6.658   4.412  0.1422 -0.9388 -0.2414
34249SOL     OW 4999   8.384   9.725   0.155  0.5006  0.1057 -0.0410
34249SOL    HW1 5000   8.290   9.717   0.138  0.5388 -3.1770  0.7326
34249SOL    HW2 5001   8.426   9.703   0.072  0.6365  1.1335 -0.2629
34250SOL     OW 5002   6.970   8.558   4.721 -0.1731 -0.1243  0.0453
34250SOL    HW1 5003   6.946   8.484   4.777  0.9045  0.3442  1.1728
34250SOL    HW2 5004   6.887   8.592   4.689 -0.7900 -0.6916  1.0023
34251SOL     OW 5005   1.300   3.074   7.474  0.0762  0.0348  0.4505
34251SOL    HW1 5006   1.303   3.100   7.382  1.2121 -1.1457  0.1219
34251SOL    HW2 5007   1.381   3.110   7.511  0.2589 -0.6043  0.6732
34252SOL     OW 5008   1.624   7.359   3.423  0.2580  0.2627 -0.2846
34252SOL    HW1 5009   1.623   7.264   3.432 -1.0189  0.3166  0.5118
34252SOL    HW2 5010   1.697   7.389   3.477  0.2587 -0.2292 -0.0151
34253SOL     OW 5011   9.803  10.271   3.356 -0.5379 -0.2648 -0.2259
34253SOL    HW1 5012   9.792  10.307   3.268  1.4249  0.3228 -0.2935
34253SOL    HW2 5013   9.775  10.180   3.348 -1.9661  0.2099 -1.0179
34254SOL     OW 5014   3.271   1.036   5.022  0.1041  0.1020 -0.2678
34254SOL    HW1 5015   3.339   1.050   5.088  1.1436 -0.4666 -1.1886
34254SOL    HW2 5016   3.265   1.120   4.975 -1.6112  0.9746  1.3633
34255SOL     OW 5017   1.729   7.444   4.496  0.0098 -0.6926  0.2814
34255SOL    HW1 5018   1.765   7.463   4.582  0.1663 -1.8404  0.4887
34255SOL    HW2 5019   1.782   7.496   4.435  0.7841 -0.9169  0.7597
34256SOL     OW 5020   1.887   4.422   5.035 -0.2313  0.1668 -0.1092
34256SOL    HW1 5021   1.929   4.376   5.109  0.7492 -0.6036 -1.1095
34256SOL    HW2 5022   1.940   4.501   5.024  0.2758 -0.2364 -0.6361
34257SOL     OW 5023   5.073   8.406   5.820 -0.2923 -0.5965 -0.1866
34257SOL    HW1 5024   5.126   8.431   5.896 -0.2688 -1.6171  0.1468
34257SOL    HW2 5025   5.085   8.478   5.758  3.5106 -1.8413 -1.1604
34258SOL     OW 5026   6.173   5.928   5.850 -0.1907 -0.1222  0.1568
34258SOL    HW1 5027   6.263   5.959   5.844 -0.2609 -0.1484 -2.9210
34258SOL    HW2 5028   6.172   5.870   5.926  2.3408  0.0113  0.3715
34259SOL     OW 5029   2.922   9.425   9.909 -0.6096 -0.7442  0.1320
34259SOL    HW1 5030   2.969   9.354   9.952  0.0033  0.5450  1.7087
34259SOL    HW2 5031   2.833   9.419   9.943 -0.2645 -0.0721  1.2170
34260SOL     OW 5032   8.744   1.850   4.842 -0.0930  0.0065  0.1895
34260SOL    HW1 5033   8.788   1.887   4.766 -0.6498 -1.9996 -1.1717
34260SOL    HW2 5034   8.789   1.890   4.917  1.1867  1.2142 -1.1518
34261SOL     OW 5035   5.709   2.301   9.434  0.0601 -0.2100  0.0268
34261SOL    HW1 5036   5.799   2.308   9.466  0.6809 -0.4675 -1.5416
34261SOL    HW2 5037   5.715   2.326   9.342 -1.6855  0.8374  0.1577
34262SOL     OW 5038   5.879   4.964   1.020  0.7943 -0.1582 -0.0907
34262SOL    HW1 5039   5.842   4.988   0.935  0.2773 -0.8600 -0.0738
34262SOL    HW2 5040   5.969   4.938   1.001  0.5179 -0.8344 -0.5173
34263SOL     OW 5041   2.782   3.666   8.045 -0.2356  0.2444 -0.6998
34263SOL    HW1 5042   2.872   3.647   8.018 -0.7170  0.5465 -2.6465
34263SOL    HW2 5043   2.751   3.583   8.083  0.4325 -0.2750 -1.2566
34264SOL     OW 5044   8.419   3.627   7.474  0.0584 -0.3364 -0.0160
34264SOL    HW1 5045   8.507   3.589   7.477 -0.1688 -1.0535 -1.3972
34264SOL    HW2 5046   8.395   3.622   7.382 -0.5757  1.8729 -0.0155
34265SOL     OW 5047   5.743   7.389   3.106  0.5319  0.0947  0.0313
34265SOL    HW1 5048   5.688   7.464   3.127  1.1455  0.8133 -0.8372
34265SOL    HW2 5049   5.688   7.333   3.052 -0.9374 -1.5851  3.0326
34266SOL     OW 5050   5.965   8.040   7.087 -0.1845  0.0477 -0.1741
34266SOL    HW1 5051   6.046   8.004   7.052  0.4300  0.0176  1.1881
34266SOL    HW2 5052   5.993   8.117   7.136 -1.1924  1.0069 -1.0487
34267SOL     OW 5053   5.857   8.353   2.902 -0.6969  0.4839  0.0438
34267SOL    HW1 5054   5.896   8.345   2.989 -0.7232  1.4212  0.1557
34267SOL    HW2 5055   5.832   8.264   2.878  0.6134  0.0049  0.3877
34268SOL     OW 5056   4.427   1.477   4.872  0.4936 -0.0061 -0.1876
34268SOL    HW1 5057   4.423   1.381   4.869 -0.1152 -0.0667  1.5169
34268SOL    HW2 5058   4.477   1.496   4.951 -0.5201  1.0774  0.2148
34269SOL     OW 5059   7.413   4.905   1.640 -0.5689 -0.1197 -0.2986
34269SOL    HW1 5060   7.423   4.999   1.622  4.1733 -0.6383 -1.6489
34269SOL    HW2 5061   7.429   4.898   1.734  1.5621  0.3461 -0.5596
34270SOL     OW 5062   9.129   5.215   4.185  0.7028  0.4631  0.0740
34270SOL    HW1 5063   9.097   5.265   4.261  1.9395  1.5356 -0.0864
34270SOL    HW2 5064   9.192   5.273   4.143 -2.4840  1.4678 -3.9366
34271SOL     OW 5065   5.043   3.956   7.252 -0.2633 -0.3621 -0.2724
34271SOL    HW1 5066   5.050   4.032   7.195  1.0009 -0.8973 -0.8723
34271SOL    HW2 5067   4.950   3.952   7.275 -0.5627  0.6385 -1.2191
34272SOL     OW 5068   0.275   0.168   9.714  0.0822  0.1169 -0.2736
34272SOL    HW1 5069   0.299   0.236   9.777  0.2115 -0.2837  0.1194
34272SOL    HW2 5070   0.208   0.208   9.660  0.0116  0.4908  0.0828
34273SOL     OW 5071   6.259   3.764   5.166  0.0739  0.4317  0.3483
34273SOL    HW1 5072   6.278   3.676   5.135 -3.3910 -0.0191 -1.0131
34273SOL    HW2 5073   6.265   3.819   5.088 -1.2006  0.7052  0.4147
34274SOL     OW 5074   1.363   6.118   9.879 -0.3231  0.0757  0.0175
34274SOL    HW1 5075   1.315   6.063   9.817 -0.8669  0.8295 -0.2498
34274SOL    HW2 5076   1.353   6.074   9.963  2.1626 -2.0882 -0.6935
34275SOL     OW 5077   1.489   7.725   7.841  0.4427 -0.2281  0.3190
34275SOL    HW1 5078   1.463   7.633   7.832  0.1417 -0.0466 -0.7504
34275SOL    HW2 5079   1.535   7.728   7.925  0.7051 -1.4143  0.2429
34276SOL     OW 5080   2.585   2.470   8.696  0.2359  0.4314 -0.3289
34276SOL    HW1 5081   2.613   2.420   8.773 -1.2679 -0.6220 -0.4104
34276SOL    HW2 5082   2.491   2.483   8.709 -0.2549 -0.5650 -2.3694
34277SOL     OW 5083   2.660   5.648   2.355 -0.4315  0.0503  0.1361
34277SOL    HW1 5084   2.606   5.590   2.409 -1.4210  0.7134 -0.1270
34277SOL    HW2 5085   2.703   5.590   2.293 -3.4819 -0.2251 -1.9409
34278SOL     OW 5086   9.463   8.008   8.429  0.0426  0.0367 -0.1532
34278SOL    HW1 5087   9.404   7.933   8.426  0.7035 -0.4785 -0.3070
34278SOL    HW2 5088   9.412   8.076   8.475 -0.8767 -0.2065 -0.7864
34279SOL     OW 5089   8.450   3.689   5.098 -0.2622 -0.4895 -0.5065
34279SOL    HW1 5090   8.367   3.642   5.092 -0.1768 -0.9757  1.4619
34279SOL    HW2 5091   8.430   3.768   5.147 -0.1882  1.1289 -2.9168
34280SOL     OW 5092   3.918   5.671   2.700  0.5387  0.3098 -0.1540
34280SOL    HW1 5093   3.910   5.599   2.638 -1.1954  0.2966  0.0380
34280SOL    HW2 5094   3.943   5.629   2.783 -2.8189 -0.5092  0.6063
34281SOL     OW 5095   2.389   6.936   5.215 -0.1947 -0.5570 -0.0633
34281SOL    HW1 5096   2.322   6.972   5.273 -0.6609 -0.5056 -0.6149
34281SOL    HW2 5097   2.376   6.983   5.132 -0.0202 -1.1398 -0.4274
34282SOL     OW 5098   7.721   7.197  10.261 -0.1344 -0.7462  0.1725
34282SOL    HW1 5099   7.721   7.104  10.282 -1.6502 -0.7848  0.1345
34282SOL    HW2 5100   7.677   7.239  10.335 -1.7699 -0.3952 -0.9315
34283SOL     OW 5101   6.307   5.821   2.714  0.0493  0.5438 -0.4162
34283SOL    HW1 5102   6.214   5.802   2.727 -0.1823  1.6398 -0.3578
34283SOL    HW2 5103   6.347   5.803   2.799 -0.0881 -0.0427 -0.4749
34284SOL     OW 5104   4.954   1.141   2.661  0.2090 -0.1297  0.5729
34284SOL    HW1 5105   4.892   1.091   2.608  0.8313  0.2296 -0.5145
34284SOL    HW2 5106   4.913   1.227   2.670  0.1208 -0.1784  0.6347
34285SOL     OW 5107   6.988   4.137   1.777  0.1909  0.5344 -0.2161
34285SOL    HW1 5108   7.070   4.185   1.769  0.5900  0.1769  1.2685
34285SOL    HW2 5109   6.977   4.092   1.694  1.7188  0.2637 -0.2924
34286SOL     OW 5110   4.771   4.722   6.178  0.7466 -0.2107  0.1081
34286SOL    HW1 5111   4.780   4.687   6.089 -0.0090 -0.6085  0.1856
34286SOL    HW2 5112   4.823   4.803   6.177  3.4145 -1.7963  0.2218
34287SOL     OW 5113   9.872   7.523   9.508  0.0150  0.3286  0.2972
34287SOL    HW1 5114   9.799   7.481   9.554 -1.4242  1.1690 -1.1430
34287SOL    HW2 5115   9.856   7.617   9.518  0.5108  0.5254 -0.6540
34288SOL     OW 5116   3.266   5.711   9.209  0.0463  0.0783  0.0915
34288SOL    HW1 5117   3.310   5.628   9.227  0.2322  0.2114  0.2589
34288SOL    HW2 5118   3.223   5.734   9.291  1.3881  0.9833  0.5812
34289SOL     OW 5119   3.906   4.198   2.202 -0.0015 -0.4668 -0.6358
34289SOL    HW1 5120   3.970   4.212   2.133 -0.7699  1.3599 -1.0239
34289SOL    HW2 5121   3.879   4.286   2.229  0.0718 -1.1126  1.8258
34290SOL     OW 5122   0.263   5.463   0.717 -0.7942  0.1481  0.2642
34290SOL    HW1 5123   0.187   5.489   0.769  0.0832 -0.0526  1.7119
34290SOL    HW2 5124   0.291   5.379   0.754  0.6524  0.6405  0.3815
34291SOL     OW 5125   4.182   0.815   2.458  0.4821  0.6193  0.4717
34291SOL    HW1 5126   4.174   0.904   2.424 -1.6095 -0.5911 -2.7607
34291SOL    HW2 5127   4.254   0.777   2.408  0.4994  0.1276  0.8663
34292SOL     OW 5128   1.702   3.504   9.398 -0.1376  0.2511 -0.1647
34292SOL    HW1 5129   1.630   3.524   9.338  0.6175  0.4924 -0.9949
34292SOL    HW2 5130   1.676   3.421   9.439 -0.0658 -0.5876 -1.7624
34293SOL     OW 5131   0.378   9.192   8.939  0.1078  0.0479 -0.3403
34293SOL    HW1 5132   0.435   9.229   9.006  1.2832 -1.3383 -0.5092
34293SOL    HW2 5133   0.384   9.253   8.866 -0.8174  1.3337  0.6230
34294SOL     OW 5134   7.702   8.097   7.624 -0.4065 -0.0958 -0.4920
34294SOL    HW1 5135   7.664   8.153   7.691  1.0812  0.2055  0.1362
34294SOL    HW2 5136   7.779   8.058   7.666 -0.6803 -1.6117 -1.3240
34295SOL     OW 5137   2.386   6.477   2.775 -0.7448 -0.4820  0.0340
34295SOL    HW1 5138   2.359   6.481   2.866  0.8687 -0.9698  0.5609
34295SOL    HW2 5139   2.380   6.567   2.744 -2.2904 -0.4672  0.2873
34296SOL     OW 5140   6.481   2.354   7.370 -0.4346 -0.2035  0.7889
34296SOL    HW1 5141   6.500   2.436   7.415 -1.1475 -0.1161  0.9421
34296SOL    HW2 5142   6.560   2.301   7.383  0.0533  0.4775  0.6313
34297SOL     OW 5143   6.052   7.512   3.669  0.3315  0.2716 -0.1134
34297SOL    HW1 5144   6.049   7.604   3.695  1.4520  0.4622 -0.6043
34297SOL    HW2 5145   5.960   7.484   3.666 -0.1283  1.7951 -1.4501
34298SOL     OW 5146   1.448  10.525   2.734  0.2519  0.0364  0.2752
34298SOL    HW1 5147   1.454  10.511   2.640  0.9162 -1.4977  0.5057
34298SOL    HW2 5148   1.538  10.524   2.765 -0.0263 -1.2517  1.1219
34299SOL     OW 5149   2.395   7.404   0.067 -0.1031  0.1665 -0.1459
34299SOL    HW1 5150   2.430   7.451  -0.008 -1.4206  0.8726 -0.3457
34299SOL    HW2 5151   2.379   7.315   0.034  1.3113 -0.1417 -0.0811
34300SOL     OW 5152   3.921   7.404  10.582  0.1742 -0.1204 -0.0968
34300SOL    HW1 5153   3.968   7.470  10.531 -1.4647  0.1500 -1.3604
34300SOL    HW2 5154   3.947   7.321  10.542  2.5202 -0.3658  1.7266
34301SOL     OW 5155   5.218   8.171   0.575  0.4935  0.0463 -0.4110
34301SOL    HW1 5156   5.307   8.206   0.579 -0.2414  1.9868  0.5483
34301SOL    HW2 5157   5.185   8.178   0.665 -0.2949 -1.6774 -0.5116
34302SOL     OW 5158   7.724   8.943   4.353 -0.0871  0.2663  0.3571
34302SOL    HW1 5159   7.762   8.929   4.266  0.1771  1.1218  0.3193
34302SOL    HW2 5160   7.740   9.036   4.371 -0.5970  0.2197  1.1024
34303SOL     OW 5161   4.898   8.187   8.653  0.7512  0.0838  0.5731
34303SOL    HW1 5162   4.909   8.107   8.704  2.3357  0.3304  0.6685
34303SOL    HW2 5163   4.890   8.157   8.563 -0.6518 -0.2754  0.7980
34304SOL     OW 5164   3.337   8.216   4.514  0.0110  0.2537  0.0823
34304SOL    HW1 5165   3.398   8.150   4.548  0.5984  1.2119  0.9230
34304SOL    HW2 5166   3.262   8.164   4.483  0.2164 -0.7856  1.2275
34305SOL     OW 5167   8.627   8.118   4.184 -0.2212 -0.4502  0.1845
34305SOL    HW1 5168   8.533   8.112   4.201 -0.8451  0.3786 -2.5010
34305SOL    HW2 5169   8.655   8.028   4.170 -0.5193 -0.7317  1.3201
34306SOL     OW 5170   1.439   0.682   4.180  0.4028  0.0428  0.1117
34306SOL    HW1 5171   1.422   0.747   4.113  1.1730  0.3152  0.1735
34306SOL    HW2 5172   1.534   0.681   4.189  0.6754 -2.8999 -1.7188
34307SOL     OW 5173   5.044   0.538  10.616 -0.2439 -0.0743  0.7256
34307SOL    HW1 5174   5.026   0.482  10.692  1.5653 -0.9073  0.5773
34307SOL    HW2 5175   5.072   0.477  10.548  0.5282  0.8882  0.1627
34308SOL     OW 5176   0.186   9.711   5.726 -0.3986  0.0196  0.8443
34308SOL    HW1 5177   0.103   9.704   5.679  0.5248 -1.6241 -0.6893
34308SOL    HW2 5178   0.184   9.641   5.791  0.8199 -1.9220 -1.0695
34309SOL     OW 5179   7.126   0.673   6.977 -0.0019 -1.0414  0.1696
34309SOL    HW1 5180   7.085   0.686   6.891 -1.0103  0.5588  0.8502
34309SOL    HW2 5181   7.061   0.706   7.039  2.5388  2.4015  1.2901
34310SOL     OW 5182   6.219   8.062   2.465  0.4835  0.2277 -0.4381
34310SOL    HW1 5183   6.187   8.140   2.418 -0.3942  0.5876  0.7159
34310SOL    HW2 5184   6.144   8.002   2.464  0.3567  0.3510  0.7297
34311SOL     OW 5185   7.058   0.006   5.564 -0.3882  0.0362 -0.8469
34311SOL    HW1 5186   7.134  -0.042   5.597 -0.2145  0.8857  0.0592
34311SOL    HW2 5187   7.047  -0.024   5.474  1.2221  0.1300 -1.0986
34312SOL     OW 5188   6.970   7.180   8.028  0.1607 -0.0033 -0.0710
34312SOL    HW1 5189   7.038   7.156   7.966 -0.0107  2.2852 -1.2692
34312SOL    HW2 5190   6.889   7.175   7.977  0.0118  1.8525 -0.0736
34313SOL     OW 5191   1.555   4.820   7.538 -0.0051  0.3587 -0.5043
34313SOL    HW1 5192   1.496   4.857   7.604  1.6381  0.7521  0.8008
34313SOL    HW2 5193   1.611   4.894   7.513  3.3681 -1.0668  2.1637
34314SOL     OW 5194   6.905   5.730   5.497 -0.1403 -0.1447  0.2948
34314SOL    HW1 5195   6.925   5.823   5.512 -0.3674 -0.0051 -0.2612
34314SOL    HW2 5196   6.951   5.684   5.568  4.3785 -0.0763 -2.1791
34315SOL     OW 5197   0.763   6.132   8.819  0.0540 -0.2139 -0.0637
34315SOL    HW1 5198   0.678   6.099   8.789 -0.0409 -0.2285  0.2192
34315SOL    HW2 5199   0.823   6.059   8.807  0.3022  0.1970 -1.4719
34316SOL     OW 5200   1.234   4.775   4.412 -0.0531 -0.3403 -0.4786
34316SOL    HW1 5201   1.293   4.701   4.399 -0.1727 -1.2700  3.2705
34316SOL    HW2 5202   1.147   4.739   4.396  0.0411 -0.3805 -0.9024
34317SOL     OW 5203  10.504   8.370   3.001  0.2691 -0.3403 -0.5320
34317SOL    HW1 5204  10.534   8.306   2.937 -0.4506 -1.4755  0.2158
34317SOL    HW2 5205  10.474   8.317   3.075 -2.4379  0.7009 -0.7520
34318SOL     OW 5206   6.336   1.483   0.618 -0.2507  0.2492 -0.2991
34318SOL    HW1 5207   6.370   1.460   0.704  1.2049 -0.9364 -1.1408
34318SOL    HW2 5208   6.359   1.575   0.607  0.2665  0.1935  0.2642
34319SOL     OW 5209   5.970  10.562   9.146  0.0826  0.8201 -0.0320
34319SOL    HW1 5210   6.063  10.578   9.156  0.0105  1.4252 -0.2881
34319SOL    HW2 5211   5.958  10.471   9.174  0.9340  0.3487 -1.1004
34320SOL     OW 5212   6.601   0.633  10.616 -0.5677 -1.0074 -0.2124
34320SOL    HW1 5213   6.569   0.611  10.703 -0.2939 -0.0355  0.1393
34320SOL    HW2 5214   6.552   0.711  10.591  1.7179  0.7690  0.5024
34321SOL     OW 5215   8.212   0.698   8.179 -0.1121  0.4994 -0.1464
34321SOL    HW1 5216   8.162   0.724   8.101 -2.0829  0.7511  1.1452
34321SOL    HW2 5217   8.154   0.638   8.225  0.2170  1.7867  2.0622
34322SOL     OW 5218   8.413   1.914   1.577 -0.4694  0.5523 -0.2620
34322SOL    HW1 5219   8.318   1.928   1.572 -0.9981 -2.6374 -1.5187
34322SOL    HW2 5220   8.423   1.828   1.617  1.9968  1.3101  0.9642
34323SOL     OW 5221   6.913   5.892   4.864 -0.8703 -0.3415  0.3726
34323SOL    HW1 5222   6.997   5.936   4.859 -0.5172 -0.6715  2.4781
34323SOL    HW2 5223   6.914   5.848   4.949 -1.7586 -3.2377 -0.9861
34324SOL     OW 5224   8.526   8.857   3.058 -0.6622 -0.5588 -0.2049
34324SOL    HW1 5225   8.449   8.803   3.078 -0.4761 -0.3728  1.0558
34324SOL    HW2 5226   8.586   8.842   3.131 -0.5887  1.3328  0.1541
34325SOL     OW 5227   5.181   4.737   7.702  0.3539 -0.3770 -0.5755
34325SOL    HW1 5228   5.199   4.646   7.679  2.6968  0.0571 -0.7559
34325SOL    HW2 5229   5.089   4.750   7.681 -0.0859 -2.7375 -0.3730
34326SOL     OW 5230   4.839   9.985   4.299 -0.6605 -0.3577  0.1088
34326SOL    HW1 5231   4.922  10.017   4.334 -1.1694  0.8458  0.2835
34326SOL    HW2 5232   4.775  10.049   4.331 -1.5072 -0.7159 -0.8563
34327SOL     OW 5233   1.289   1.190   3.654 -0.8014 -0.0695 -0.1987
34327SOL    HW1 5234   1.224   1.143   3.705  0.0389 -0.5945  0.4216
34327SOL    HW2 5235   1.298   1.139   3.573  0.2541 -1.1588  0.5538
34328SOL     OW 5236   2.606   8.543   4.649 -0.6097 -0.4047 -0.6414
34328SOL    HW1 5237   2.529   8.490   4.627 -0.2259 -0.6658 -1.4244
34328SOL    HW2 5238   2.680   8.493   4.614  0.0894 -0.8954  1.4022
34329SOL     OW 5239   7.581   6.631   8.690  0.3531 -0.1801  0.0477
34329SOL    HW1 5240   7.558   6.601   8.602 -0.3927 -0.2709  0.2670
34329SOL    HW2 5241   7.564   6.725   8.688 -1.9346 -0.5185  0.7623
34330SOL     OW 5242   3.517   4.375   7.401  0.4725  0.7443  0.0933
34330SOL    HW1 5243   3.565   4.300   7.434 -0.9036 -0.0408  0.3818
34330SOL    HW2 5244   3.446   4.389   7.464  0.2608  1.8065 -0.3536
34331SOL     OW 5245   2.065   5.721   4.147 -0.0536  0.2163 -0.3475
34331SOL    HW1 5246   2.017   5.685   4.073 -1.8509  1.0628  0.3601
34331SOL    HW2 5247   2.154   5.687   4.137 -0.9190 -1.8860 -1.3830
34332SOL     OW 5248   9.941  10.156   1.251 -0.3579  0.5811  0.5854
34332SOL    HW1 5249   9.953  10.241   1.207 -0.8285  0.7135  0.6992
34332SOL    HW2 5250   9.886  10.177   1.326 -2.2895 -0.1397 -0.5410
34333SOL     OW 5251   1.880   7.655   0.628  0.2587 -0.0051 -0.3852
34333SOL    HW1 5252   1.902   7.569   0.664 -0.4154  0.4739  1.2525
34333SOL    HW2 5253   1.960   7.707   0.639 -0.1039  0.2966  0.9929
34334SOL     OW 5254   0.489   3.853   0.100  0.1753 -0.0486 -0.3279
34334SOL    HW1 5255   0.412   3.876   0.048 -0.3984 -0.1441  0.4630
34334SOL    HW2 5256   0.455   3.797   0.170  0.9610 -0.0812  0.0374
34335SOL     OW 5257   0.573   6.749   9.869  0.4239  0.2773  0.0769
34335SOL    HW1 5258   0.603   6.790   9.950 -2.8816  1.9771  0.6054
34335SOL    HW2 5259   0.604   6.658   9.875  3.3310  1.2456  1.4575
34336SOL     OW 5260   6.592   9.871   6.400  0.1545 -0.1786 -0.3406
34336SOL    HW1 5261   6.503   9.836   6.394 -0.9713  2.5901 -1.2374
34336SOL    HW2 5262   6.643   9.818   6.339 -1.0949 -1.1410 -0.5845
34337SOL     OW 5263   2.351   9.298   0.853  0.4789 -0.2453  0.3736
34337SOL    HW1 5264   2.284   9.354   0.813 -0.1676 -0.6433  0.8915
34337SOL    HW2 5265   2.357   9.328   0.944  2.0116  0.7168 -0.0020
34338SOL     OW 5266   7.662  10.385   7.721 -0.0805 -0.4333  0.6489
34338SOL    HW1 5267   7.585  10.387   7.777 -0.0963 -2.0029  0.7385
34338SOL    HW2 5268   7.724  10.328   7.766 -0.0363 -1.6240 -0.8114
34339SOL     OW 5269   1.491   2.599   6.759 -0.4222  0.0045  0.1105
34339SOL    HW1 5270   1.448   2.518   6.729 -0.5683  0.5355 -1.1898
34339SOL    HW2 5271   1.528   2.576   6.844 -2.2866 -0.8201  0.7668
34340SOL     OW 5272   2.217   5.665   0.546 -0.2986 -0.1673  0.5388
34340SOL    HW1 5273   2.126   5.640   0.562 -0.0491 -0.7539  1.0803
34340SOL    HW2 5274   2.256   5.675   0.633  0.1114  0.2436  0.3132
34341SOL     OW 5275   4.461  10.223   3.579 -0.0876 -0.6335  0.0117
34341SOL    HW1 5276   4.409  10.301   3.560  1.1141 -0.1149 -1.2728
34341SOL    HW2 5277   4.469  10.223   3.674 -1.6009 -0.1976  0.1671
34342SOL     OW 5278   5.700   3.301   6.564  0.4187  0.3152 -0.0020
34342SOL    HW1 5279   5.622   3.356   6.555  0.2763 -0.0615 -1.2326
34342SOL    HW2 5280   5.693   3.237   6.493  1.1233 -0.6301  0.7474
34343SOL     OW 5281   3.502   5.354   3.995  0.1455  0.3896 -0.1972
34343SOL    HW1 5282   3.438   5.362   3.923 -1.0250  0.7985  0.8514
34343SOL    HW2 5283   3.459   5.296   4.058  0.6422  0.9836  0.6991
34344SOL     OW 5284  10.493   5.506   6.205  0.6963  0.4623 -0.0014
34344SOL    HW1 5285  10.557   5.436   6.219  1.0665  0.4474 -1.5933
34344SOL    HW2 5286  10.534   5.584   6.242  2.0108  0.6128 -1.6685
34345SOL     OW 5287   3.816   9.029   0.563 -0.2114  0.2579  0.1817
34345SOL    HW1 5288   3.849   9.098   0.505 -2.1458  0.2607 -0.9881
34345SOL    HW2 5289   3.761   9.075   0.626 -1.6252 -0.2044 -0.6889
34346SOL     OW 5290   4.005   7.108   4.871  0.0057  0.3801  0.5098
34346SOL    HW1 5291   4.050   7.074   4.794  0.7824 -0.2571  1.2243
34346SOL    HW2 5292   4.073   7.113   4.938 -0.9615 -0.5503  1.6062
34347SOL     OW 5293   2.611   5.321   9.865 -0.1071 -0.7370 -0.3886
34347SOL    HW1 5294   2.549   5.360   9.804  0.0551 -1.8906 -1.3282
34347SOL    HW2 5295   2.693   5.369   9.849 -0.6090  0.5239  0.5830
34348SOL     OW 5296   2.109   6.538  10.461  0.2788 -0.1711 -0.0079
34348SOL    HW1 5297   2.085   6.616  10.411  1.6988 -0.2875 -0.9423
34348SOL    HW2 5298   2.032   6.482  10.458 -0.3874  0.7392 -0.2393
34349SOL     OW 5299   8.530   7.129   9.898  0.8882 -0.0018 -0.5555
34349SOL    HW1 5300   8.598   7.115   9.963  0.5379 -2.1728 -0.5569
34349SOL    HW2 5301   8.569   7.100   9.816  0.8596  1.3972 -1.0936
34350SOL     OW 5302   9.488   8.384  10.110 -0.2165  0.7852  0.1736
34350SOL    HW1 5303   9.443   8.413  10.031 -0.4236  0.2534  0.0901
34350SOL    HW2 5304   9.427   8.405  10.181 -2.0313 -2.6327 -0.1710
34351SOL     OW 5305   7.921   5.254   5.498  0.3338  0.5185  0.8744
34351SOL    HW1 5306   7.907   5.294   5.412  0.7702  1.5983  1.2877
34351SOL    HW2 5307   7.838   5.210   5.518  0.9698 -1.8060 -1.1136
34352SOL     OW 5308   9.842   8.318   5.810 -0.0682 -0.6240  0.1002
34352SOL    HW1 5309   9.845   8.336   5.904 -1.1925 -2.2613  0.4895
34352SOL    HW2 5310   9.932   8.330   5.781  0.0308  1.4182  1.0487
34353SOL     OW 5311   1.998   4.943   0.672  0.5171  0.0200 -0.0785
34353SOL    HW1 5312   2.063   4.933   0.742  0.2471 -2.7802 -0.1413
34353SOL    HW2 5313   1.957   4.857   0.664 -2.4030  1.3539 -0.8843
34354SOL     OW 5314  10.548   4.373   7.774  0.6191  0.2198 -0.2127
34354SOL    HW1 5315  10.642   4.369   7.758  0.6328  1.3716 -0.4725
34354SOL    HW2 5316  10.508   4.351   7.690  0.6777  1.5692 -0.6163
34355SOL     OW 5317   9.448   2.404  10.372  0.2209 -0.0318 -0.1485
34355SOL    HW1 5318   9.370   2.401  10.317  0.8845 -0.0161 -1.1109
34355SOL    HW2 5319   9.414   2.401  10.462 -0.8684 -0.2591 -0.5514
34356SOL     OW 5320   9.228   2.597   0.178  0.5429 -0.6572 -0.0761
34356SOL    HW1 5321   9.238   2.659   0.251 -2.8051 -0.4287  0.3490
34356SOL    HW2 5322   9.253   2.512   0.215  2.8946  0.0120  0.0293
34357SOL     OW 5323   6.582   9.273  10.364  1.0874  0.1871 -0.1163
34357SOL    HW1 5324   6.512   9.277  10.300  2.3082  0.7635 -1.4584
34357SOL    HW2 5325   6.581   9.359  10.407  0.6525  0.0065  0.2480
34358SOL     OW 5326   3.220   6.570   9.482  0.2416 -0.2124 -0.5531
34358SOL    HW1 5327   3.233   6.541   9.392  1.4891 -0.7171 -0.2333
34358SOL    HW2 5328   3.147   6.517   9.514 -1.2766  1.0935 -1.7390
34359SOL     OW 5329   0.283  10.124   5.800  0.0045 -0.1902 -0.2355
34359SOL    HW1 5330   0.238  10.113   5.884 -0.3504 -1.3519 -0.5590
34359SOL    HW2 5331   0.240  10.199   5.759  1.2250  1.4286  1.2630
34360SOL     OW 5332   8.419   2.832   0.234  0.3149 -0.0650 -0.0805
34360SOL    HW1 5333   8.359   2.854   0.163 -0.0957 -0.1952  0.2234
34360SOL    HW2 5334   8.363   2.799   0.304  0.8766 -1.5769 -0.3215
34361SOL     OW 5335   8.360   9.622   2.099 -0.0125 -0.3803 -0.1237
34361SOL    HW1 5336   8.431   9.674   2.062  0.4711 -0.0891  1.1426
34361SOL    HW2 5337   8.289   9.629   2.036  0.0197  1.8578  0.0160
34362SOL     OW 5338   7.349   3.481   4.220  0.3091 -0.3886  0.1131
34362SOL    HW1 5339   7.332   3.451   4.309  2.7927 -0.6687  0.5862
34362SOL    HW2 5340   7.296   3.560   4.211 -0.6364 -0.8156  1.5201
34363SOL     OW 5341   9.333   1.028  10.540 -0.4311 -0.3851  0.7157
34363SOL    HW1 5342   9.354   1.030  10.446 -0.9969 -2.2118  0.4985
34363SOL    HW2 5343   9.256   0.971  10.545  1.3141 -2.7878  2.5580
34364SOL     OW 5344   8.176   1.017   9.897 -0.3988 -0.4730 -0.0609
34364SOL    HW1 5345   8.180   1.078   9.824  0.9058  0.4605  0.7467
34364SOL    HW2 5346   8.098   0.965   9.881  0.0867 -0.5801 -2.3299
34365SOL     OW 5347   8.334   0.662   9.820 -0.2793  0.7866 -0.1074
34365SOL    HW1 5348   8.386   0.741   9.806  1.4447 -0.5224 -1.7722
34365SOL    HW2 5349   8.250   0.681   9.779  0.7716  1.1449 -2.2463
34366SOL     OW 5350   7.051   4.092   4.806 -0.2698  0.3227  0.2934
34366SOL    HW1 5351   7.070   4.068   4.715 -1.4259  2.0020 -0.4357
34366SOL    HW2 5352   7.135   4.123   4.840  0.0100  0.3813 -0.4236
34367SOL     OW 5353   0.846   3.502   0.260 -0.3344 -0.0896 -0.3173
34367SOL    HW1 5354   0.920   3.463   0.213  0.2523 -0.9392  1.2366
34367SOL    HW2 5355   0.791   3.539   0.191  2.1021  1.6668 -1.4990
34368SOL     OW 5356   0.536   6.639   7.044  0.0473 -0.0269 -0.1398
34368SOL    HW1 5357   0.550   6.701   7.116  0.4880 -0.3149  0.0315
34368SOL    HW2 5358   0.600   6.569   7.061 -0.0519 -0.2414 -0.6475
34369SOL     OW 5359   7.466   1.636   1.235 -0.1598  0.0692  0.2640
34369SOL    HW1 5360   7.525   1.675   1.170  0.3705 -1.2114 -0.0618
34369SOL    HW2 5361   7.522   1.619   1.311 -0.3118 -0.2915  0.2994
34370SOL     OW 5362   5.439   7.524   8.715  0.0283  0.8428 -0.1050
34370SOL    HW1 5363   5.470   7.443   8.675 -0.4601 -0.0741  1.2947
34370SOL    HW2 5364   5.511   7.554   8.770  0.0218  1.0830 -0.2257
34371SOL     OW 5365   8.298   2.041   7.133  0.0081  0.0348 -0.0651
34371SOL    HW1 5366   8.246   2.016   7.210  1.3649  1.2926  1.3228
34371SOL    HW2 5367   8.388   2.023   7.158  0.4477 -0.1538 -1.6494
34372SOL     OW 5368   1.232   1.396   2.262  0.0544 -0.9604  0.2546
34372SOL    HW1 5369   1.201   1.361   2.345  1.6061 -0.0875  1.2455
34372SOL    HW2 5370   1.213   1.328   2.198  0.5526 -2.4584  1.6504
34373SOL     OW 5371   8.169   8.950   5.530 -0.4028 -0.4241 -0.3306
34373SOL    HW1 5372   8.241   9.006   5.558  1.5793 -2.0008 -1.9220
34373SOL    HW2 5373   8.130   8.997   5.456 -1.0662  0.4422  0.5460
34374SOL     OW 5374   7.812   9.083   7.204 -0.6982  0.7656  0.3124
34374SOL    HW1 5375   7.853   9.126   7.130 -0.0480 -0.9894 -0.4078
34374SOL    HW2 5376   7.728   9.051   7.170  0.4054 -1.6963 -0.3099
34375SOL     OW 5377   7.625   7.303  10.482  0.3172 -0.0159  0.3729
34375SOL    HW1 5378   7.593   7.390  10.459 -1.5154 -0.9194 -0.6393
34375SOL    HW2 5379   7.565   7.272  10.549  0.3121 -0.9212 -0.0376
34376SOL     OW 5380   1.035   7.780   0.782 -0.1620 -0.0081  0.6144
34376SOL    HW1 5381   1.026   7.858   0.837 -0.2262  1.3643 -1.2486
34376SOL    HW2 5382   1.128   7.778   0.759 -0.6456  1.2273 -1.6555
34377SOL     OW 5383   7.330   6.322   8.925  0.7291 -0.1880 -0.2486
34377SOL    HW1 5384   7.310   6.324   8.832  0.2449 -1.9996 -0.2294
34377SOL    HW2 5385   7.332   6.229   8.947 -0.6547  0.1971  1.8421
34378SOL     OW 5386   2.200   8.226   7.015 -1.0351 -0.2527 -0.2191
34378SOL    HW1 5387   2.139   8.168   7.061 -1.2800 -0.3957 -0.7144
34378SOL    HW2 5388   2.222   8.294   7.079 -1.3178 -0.4852  0.1268
34379SOL     OW 5389   9.709   0.002   2.559 -0.0936  0.3592  0.5737
34379SOL    HW1 5390   9.661   0.025   2.638  0.1928  0.1589  0.8086
34379SOL    HW2 5391   9.801   0.004   2.585 -0.0634 -1.6894  0.8050
34380SOL     OW 5392   6.248   9.147   1.027 -0.6389 -0.4901 -0.3711
34380SOL    HW1 5393   6.176   9.126   0.967 -0.4909  2.6764 -1.8797
34380SOL    HW2 5394   6.223   9.230   1.067  1.2409 -0.3748  0.7019
34381SOL     OW 5395   1.664   5.127   3.870 -0.1201  0.2546 -0.0983
34381SOL    HW1 5396   1.662   5.099   3.779 -0.1157  1.9456 -0.6554
34381SOL    HW2 5397   1.581   5.173   3.883 -0.2716 -0.2500  0.8719
34382SOL     OW 5398   8.496   0.320   1.920 -0.0880 -0.6594 -0.1424
34382SOL    HW1 5399   8.467   0.247   1.976 -0.1174 -0.4258  0.1488
34382SOL    HW2 5400   8.449   0.307   1.837 -0.6873 -0.5379  0.1712
34383SOL     OW 5401   8.634   8.497   2.365  0.3791 -0.2413  0.1134
34383SOL    HW1 5402   8.583   8.563   2.319 -1.0721 -0.4928  1.2770
34383SOL    HW2 5403   8.584   8.416   2.353 -0.3717 -0.2207  2.5135
34384SOL     OW 5404   9.522   4.135   7.208 -0.1346  0.5763  0.1350
34384SOL    HW1 5405   9.473   4.215   7.186 -0.4039  0.5131  0.4937
34384SOL    HW2 5406   9.502   4.120   7.301  1.9018  1.4893  0.7734
34385SOL     OW 5407   6.871   7.243   4.313 -0.5951  0.0859 -0.0622
34385SOL    HW1 5408   6.849   7.166   4.365  0.6427  0.5501  1.2250
34385SOL    HW2 5409   6.857   7.216   4.222 -2.0721 -0.9988  0.4482
34386SOL     OW 5410   5.850   7.792   6.570 -0.1676  0.6132  0.0405
34386SOL    HW1 5411   5.887   7.735   6.636 -0.6104  1.1617  0.7771
34386SOL    HW2 5412   5.790   7.850   6.618 -1.3059  0.3298 -0.9788
34387SOL     OW 5413   7.375   3.584   2.502 -0.4259 -0.0237 -0.1449
34387SOL    HW1 5414   7.304   3.530   2.465  0.4582  0.2008 -2.3622
34387SOL    HW2 5415   7.357   3.672   2.470 -0.6783  0.6029  1.6658
34388SOL     OW 5416   3.238   8.429   9.066  0.0260  0.6525  0.2618
34388SOL    HW1 5417   3.321   8.382   9.062 -0.2552  0.1525  0.1186
34388SOL    HW2 5418   3.173   8.360   9.082 -0.4690  0.9187 -0.5563
34389SOL     OW 5419   2.268   9.995   9.513  0.4002 -0.3392 -0.2511
34389SOL    HW1 5420   2.303  10.080   9.542  0.3206 -0.8401  1.4543
34389SOL    HW2 5421   2.287   9.936   9.586 -3.4675 -0.7806  0.5942
34390SOL     OW 5422   7.128   8.497   3.534 -0.1299 -0.0902 -0.2524
34390SOL    HW1 5423   7.034   8.479   3.538  0.0122 -0.6622  2.0688
34390SOL    HW2 5424   7.141   8.573   3.591  0.8929 -0.4373  0.0003
34391SOL     OW 5425   3.068   4.548   1.570 -0.3097  0.5054 -0.5265
34391SOL    HW1 5426   3.099   4.598   1.495  1.3666  1.1885  0.5625
34391SOL    HW2 5427   2.991   4.595   1.602  1.0175  2.2343  0.2520
34392SOL     OW 5428   5.081  10.185   6.109 -0.3024  0.3120 -0.2407
34392SOL    HW1 5429   4.989  10.172   6.130 -0.2931  0.5669 -0.0329
34392SOL    HW2 5430   5.122  10.099   6.121 -0.8755 -0.3251 -2.3155
34393SOL     OW 5431   8.133   3.764   1.886  0.1144  0.4009  0.0731
34393SOL    HW1 5432   8.047   3.727   1.868 -0.1955  0.3303  1.6125
34393SOL    HW2 5433   8.186   3.689   1.914  0.6871  0.4503 -0.8140
34394SOL     OW 5434   8.423   8.200  10.588  0.1630  0.2475 -0.2118
34394SOL    HW1 5435   8.425   8.113  10.628 -0.7475  0.1517 -0.3554
34394SOL    HW2 5436   8.335   8.207  10.550  0.2206  1.2369 -0.1849
34395SOL     OW 5437   6.469   7.649   0.105  0.0022 -0.3204 -0.3401
34395SOL    HW1 5438   6.381   7.611   0.098  0.8302 -2.2486 -0.7396
34395SOL    HW2 5439   6.457   7.741   0.080 -1.9565 -0.4485 -0.0309
34396SOL     OW 5440   6.910  10.642   5.810 -0.0547 -0.1018  0.5692
34396SOL    HW1 5441   6.937  10.676   5.725 -0.3812  1.4294  1.0500
34396SOL    HW2 5442   6.916  10.547   5.801  1.3997  0.0782 -0.6651
34397SOL     OW 5443  10.584   2.710   6.495  0.1219 -0.4765  0.4321
34397SOL    HW1 5444  10.509   2.747   6.541  1.0415  1.7279  0.2872
34397SOL    HW2 5445  10.618   2.644   6.555  0.1552  1.0013  2.1359
34398SOL     OW 5446   4.809  10.129   7.156  0.4593  0.1829  0.7378
34398SOL    HW1 5447   4.761  10.051   7.128  1.3259  0.0667 -0.5109
34398SOL    HW2 5448   4.846  10.106   7.241 -2.1417  0.4925  2.0669
34399SOL     OW 5449   3.899   7.588   4.963 -0.2097 -0.1110  0.3294
34399SOL    HW1 5450   3.916   7.577   4.869 -0.5105  1.7107  0.0224
34399SOL    HW2 5451   3.980   7.559   5.005 -0.3975 -1.8424 -0.3928
34400SOL     OW 5452   3.657   8.396   0.524 -0.1605  0.3890 -0.0564
34400SOL    HW1 5453   3.654   8.430   0.614 -1.0113 -0.3574  0.2050
34400SOL    HW2 5454   3.655   8.301   0.534  0.5133  0.2803 -0.8488
34401SOL     OW 5455  10.416   3.066  10.540  0.1422 -0.8908  0.4721
34401SOL    HW1 5456  10.400   3.018  10.459  0.2628  1.6141 -1.1499
34401SOL    HW2 5457  10.511   3.066  10.550  0.3746  1.1309 -1.0295
34402SOL     OW 5458   9.565   8.724   2.180 -0.2147  0.3906 -0.3534
34402SOL    HW1 5459   9.644   8.760   2.220 -0.4594 -0.3595  0.8784
34402SOL    HW2 5460   9.545   8.782   2.107  0.3765  1.7007  0.5020
34403SOL     OW 5461   6.751   2.758   0.781  0.0593 -0.6714 -0.0941
34403SOL    HW1 5462   6.714   2.777   0.867 -0.9026 -0.5166 -0.5253
34403SOL    HW2 5463   6.846   2.750   0.796 -0.1433 -1.0964  1.0408
34404SOL     OW 5464  10.453   2.281   7.295 -0.2644 -0.1587 -0.2547
34404SOL    HW1 5465  10.495   2.293   7.380  1.9511 -0.1110 -1.2783
34404SOL    HW2 5466  10.390   2.353   7.289  1.4966  1.5085  0.2437
34405SOL     OW 5467   3.144   8.045   7.261  0.3243 -0.5645  0.5395
34405SOL    HW1 5468   3.108   8.058   7.348 -1.4132 -0.5722 -0.1271
34405SOL    HW2 5469   3.086   8.095   7.203  2.3563  0.7575 -0.4758
34406SOL     OW 5470   7.392   2.736   4.553  0.6719  0.2784 -0.2951
34406SOL    HW1 5471   7.474   2.774   4.585  1.6029 -1.2975 -0.7091
34406SOL    HW2 5472   7.343   2.715   4.632  1.8065 -1.1368  0.0795
34407SOL     OW 5473   2.173   7.898   3.876  0.3967  0.2081  0.1372
34407SOL    HW1 5474   2.141   7.970   3.931  0.1310 -0.0584  0.3292
34407SOL    HW2 5475   2.267   7.897   3.890  0.2172 -0.5406  1.4023
34408SOL     OW 5476   2.337   1.878   8.078 -0.2829  0.0465 -0.3384
34408SOL    HW1 5477   2.261   1.897   8.133 -1.7210 -2.6046 -1.2119
34408SOL    HW2 5478   2.410   1.872   8.140 -1.3244 -0.1156  0.9309
34409SOL     OW 5479   7.109   2.277   4.800 -0.1430 -0.6762 -0.3178
34409SOL    HW1 5480   7.059   2.216   4.745  0.3360 -0.0376 -1.5059
34409SOL    HW2 5481   7.163   2.326   4.738 -0.4936  0.9432  0.5806
34410SOL     OW 5482   8.873   6.240   0.195 -0.3911 -0.0275  0.1104
34410SOL    HW1 5483   8.860   6.288   0.113  2.1035  1.6154  0.5684
34410SOL    HW2 5484   8.924   6.163   0.169  1.3942  1.0737  0.1859
34411SOL     OW 5485   2.297   0.536   1.043 -0.0291  0.9739  0.2696
34411SOL    HW1 5486   2.337   0.593   1.109  1.5469  1.4327 -1.0096
34411SOL    HW2 5487   2.366   0.474   1.020 -0.5998  0.7179 -0.8144
34412SOL     OW 5488   4.538  10.013   5.235  0.1529  0.5284  0.0615
34412SOL    HW1 5489   4.620  10.051   5.206  1.0409 -0.5642  1.0510
34412SOL    HW2 5490   4.492  10.084   5.280  1.7920  0.4711  1.9272
34413SOL     OW 5491   4.264   9.426   3.001 -0.5301  1.0059  0.7652
34413SOL    HW1 5492   4.284   9.336   2.975 -1.0393  1.0978  0.0043
34413SOL    HW2 5493   4.303   9.436   3.088 -0.0018  0.2236  0.6261
34414SOL     OW 5494   9.592   8.852   0.339 -0.5747 -0.0128  0.4467
34414SOL    HW1 5495   9.583   8.810   0.424  1.2788  0.4376  0.9017
34414SOL    HW2 5496   9.505   8.890   0.322 -0.6267  1.0744  2.7695
34415SOL     OW 5497   4.255   4.402   7.530 -0.0750  0.5540  0.3098
34415SOL    HW1 5498   4.225   4.476   7.583 -1.0299  0.4633 -0.0713
34415SOL    HW2 5499   4.174   4.367   7.490  0.5215  0.1474 -0.5795
34416SOL     OW 5500  10.063   9.225   5.754  0.3101  0.7863 -0.4054
34416SOL    HW1 5501  10.042   9.229   5.660  1.3466  1.6948 -0.6140
34416SOL    HW2 5502  10.128   9.154   5.760  1.6955  1.9740 -0.6991
34417SOL     OW 5503   2.536   2.679   3.144  0.1848 -0.2037  0.0275
34417SOL    HW1 5504   2.560   2.764   3.182  0.0589 -0.3451  0.4302
34417SOL    HW2 5505   2.440   2.678   3.148  0.2329 -1.0211  1.4944
34418SOL     OW 5506   7.497   1.520   5.583 -0.2280 -0.1048  0.2513
34418SOL    HW1 5507   7.527   1.538   5.672  1.4149  0.4561 -0.3776
34418SOL    HW2 5508   7.567   1.467   5.545 -1.7073 -1.7999 -0.1999
34419SOL     OW 5509   9.931   0.500   4.326  1.1718  0.0956  0.5435
34419SOL    HW1 5510   9.929   0.514   4.421 -0.4213  0.0374  0.5389
34419SOL    HW2 5511   9.925   0.588   4.289  0.0657  0.0150  0.5097
34420SOL     OW 5512   9.932   5.795  10.142 -0.0343  0.0029 -0.3985
34420SOL    HW1 5513   9.879   5.724  10.179 -2.6217  0.4059 -2.9992
34420SOL    HW2 5514   9.893   5.875  10.178  0.3696  0.2531 -0.5115
34421SOL     OW 5515   6.793  10.209  10.492  0.1631  0.2087  0.2338
34421SOL    HW1 5516   6.727  10.277  10.506 -1.0547 -0.2803 -2.4581
34421SOL    HW2 5517   6.743  10.128  10.484  1.2584 -0.4625 -0.0955
34422SOL     OW 5518   5.547   4.622   5.399 -0.3120 -0.0958  0.6416
34422SOL    HW1 5519   5.604   4.555   5.361  2.8274  2.9252 -0.5221
34422SOL    HW2 5520   5.485   4.644   5.330  1.4194  1.0505 -0.6496
34423SOL     OW 5521   8.379   1.931   9.516 -0.0659  0.2748 -0.3183
34423SOL    HW1 5522   8.419   1.950   9.600 -0.4980  3.4306 -0.7177
34423SOL    HW2 5523   8.443   1.876   9.470  1.2881  0.6227  1.1047
34424SOL     OW 5524   8.020   1.302   2.259  0.0272 -0.0605  0.1008
34424SOL    HW1 5525   7.972   1.315   2.177  1.6754  0.1859 -0.8735
34424SOL    HW2 5526   8.001   1.211   2.283 -2.3961  0.5669  0.7865
34425SOL     OW 5527   4.656   8.421   9.755  0.1605 -0.2754  0.0037
34425SOL    HW1 5528   4.735   8.394   9.708  0.9111  4.0566 -1.6910
34425SOL    HW2 5529   4.586   8.370   9.714  1.6163 -1.3470 -1.2769
34426SOL     OW 5530   2.307   7.170   4.374 -0.1407 -0.2568 -0.3856
34426SOL    HW1 5531   2.229   7.125   4.405  0.9287 -1.0677  1.2765
34426SOL    HW2 5532   2.336   7.222   4.448  1.8987 -1.3967 -0.3071
34427SOL     OW 5533   5.196   7.469   8.570  0.4500  0.1043  0.6527
34427SOL    HW1 5534   5.277   7.518   8.582  0.6250 -0.4385  1.9094
34427SOL    HW2 5535   5.140   7.498   8.643 -0.2775  0.0739  0.1183
34428SOL     OW 5536   4.380   7.479   2.272 -0.0060 -0.0477 -0.6055
34428SOL    HW1 5537   4.400   7.459   2.363  1.2117  1.7010 -0.4459
34428SOL    HW2 5538   4.300   7.531   2.275 -0.3533 -0.5696 -0.6143
34429SOL     OW 5539   6.346   1.650   9.402  0.5008 -0.5543 -0.2730
34429SOL    HW1 5540   6.323   1.633   9.493  0.6900 -0.5667 -0.2281
34429SOL    HW2 5541   6.433   1.611   9.391  0.5873 -0.3340 -0.3883
34430SOL     OW 5542   1.569  10.274   4.344 -0.5592  0.0951 -0.2447
34430SOL    HW1 5543   1.535  10.190   4.374  0.8434  0.1343  1.5874
34430SOL    HW2 5544   1.657  10.280   4.381  0.7981  0.8260 -3.2970
34431SOL     OW 5545   8.553   0.997   6.482 -0.1390 -0.1384 -0.3567
34431SOL    HW1 5546   8.544   1.060   6.410  1.7054  0.6042  0.0298
34431SOL    HW2 5547   8.504   0.920   6.451 -1.1318  0.8957 -1.4990
34432SOL     OW 5548   3.948   3.656   0.959  0.3406 -0.4837 -0.6026
34432SOL    HW1 5549   3.867   3.664   0.907  0.5917  0.8757 -0.8253
34432SOL    HW2 5550   3.947   3.733   1.016  2.0282  0.1983 -1.4183
34433SOL     OW 5551   2.999   2.646   0.351 -0.0478  0.2713 -0.2366
34433SOL    HW1 5552   3.064   2.705   0.387 -0.2887  0.4481 -0.0889
34433SOL    HW2 5553   2.960   2.694   0.277  0.9856 -0.3849 -1.2462
34434SOL     OW 5554   3.221   2.766   0.499  1.0142  0.2601 -0.3006
34434SOL    HW1 5555   3.236   2.769   0.593 -0.8302  0.3148  0.0406
34434SOL    HW2 5556   3.308   2.774   0.460  1.8142  0.2173  1.3864
34435SOL     OW 5557   5.983   2.445   5.902 -0.2917  0.0176  0.2778
34435SOL    HW1 5558   5.952   2.358   5.877  1.9688 -0.8173  0.1437
34435SOL    HW2 5559   6.002   2.489   5.819 -0.4340  0.2511  0.3670
34436SOL     OW 5560   1.649   2.782   9.957 -0.2699  0.3182  0.0412
34436SOL    HW1 5561   1.614   2.699   9.925  0.6910 -0.2280  0.3582
34436SOL    HW2 5562   1.599   2.800  10.037  0.4444 -0.6838  0.7410
34437SOL     OW 5563   2.986   4.945   6.639  0.2709 -0.5292  0.9985
34437SOL    HW1 5564   2.898   4.980   6.654  0.5354 -0.2528  1.9912
34437SOL    HW2 5565   2.971   4.857   6.604 -0.3962 -0.1325  0.2641
34438SOL     OW 5566   5.046   0.728   1.865 -0.0884 -0.2251  0.0585
34438SOL    HW1 5567   5.068   0.658   1.805 -0.9908  1.8495 -2.9181
34438SOL    HW2 5568   5.090   0.805   1.830 -1.1626  1.2399  1.7252
34439SOL     OW 5569   1.052   9.338   1.785 -0.4381  0.7769  0.8060
34439SOL    HW1 5570   1.083   9.401   1.720  0.7208 -0.4072  0.1450
34439SOL    HW2 5571   1.130   9.286   1.807 -1.0632  0.4140  2.3124
34440SOL     OW 5572   1.096   1.664   7.840  0.3143 -0.6410 -0.4003
34440SOL    HW1 5573   1.004   1.674   7.866  0.5957 -0.2208  0.4750
34440SOL    HW2 5574   1.096   1.677   7.746 -0.2877  1.2496 -0.1888
34441SOL     OW 5575   0.113   8.103   6.512 -0.3422 -0.1368 -0.6198
34441SOL    HW1 5576   0.199   8.146   6.514  0.5487 -1.6045 -2.9499
34441SOL    HW2 5577   0.134   8.009   6.514 -1.8652 -0.5194 -1.5001
34442SOL     OW 5578   2.579   3.054   0.268 -0.0023 -0.2415 -0.5340
34442SOL    HW1 5579   2.582   3.142   0.228  2.4595 -1.4685 -3.5708
34442SOL    HW2 5580   2.657   3.051   0.323  0.5224 -0.7992 -1.2814
34443SOL     OW 5581   9.745   5.491   8.207 -0.2627  0.0011  0.4058
34443SOL    HW1 5582   9.650   5.494   8.216 -0.2547 -0.7067  0.8481
34443SOL    HW2 5583   9.759   5.450   8.121 -0.4094 -3.5048  1.8900
34444SOL     OW 5584   1.472   3.708   5.922  0.3337 -0.0741 -0.2068
34444SOL    HW1 5585   1.567   3.716   5.931  0.3590 -0.0146 -0.5054
34444SOL    HW2 5586   1.437   3.793   5.950  0.2217 -0.7193  1.7940
34445SOL     OW 5587   7.599   3.562   8.400  0.2754 -0.1512  0.0647
34445SOL    HW1 5588   7.680   3.609   8.418  0.1942  0.1782 -0.3975
34445SOL    HW2 5589   7.627   3.472   8.381  0.4793 -0.1689  0.4330
34446SOL     OW 5590   9.428   4.846   9.385 -0.1479  0.2065  0.6257
34446SOL    HW1 5591   9.513   4.806   9.365 -0.2967 -0.2647  0.9263
34446SOL    HW2 5592   9.409   4.818   9.475 -0.3105  0.8597  0.7944
34447SOL     OW 5593   6.486   7.546   2.401  0.5903 -0.2496 -0.0375
34447SOL    HW1 5594   6.509   7.549   2.494 -0.0406  1.7207  0.0916
34447SOL    HW2 5595   6.390   7.551   2.400  0.5968 -0.2176 -0.7959
34448SOL     OW 5596  10.537   7.546   6.479  0.6796  0.0288  0.1035
34448SOL    HW1 5597  10.559   7.521   6.389 -1.9348  0.2511 -0.6747
34448SOL    HW2 5598  10.568   7.636   6.487 -1.2347  0.8719 -1.4603
34449SOL     OW 5599   5.367  10.350   8.846  0.4031  0.0429 -0.4188
34449SOL    HW1 5600   5.433  10.354   8.915  1.6317 -2.2160 -1.3747
34449SOL    HW2 5601   5.285  10.336   8.892  1.0507 -0.3362  0.6533
34450SOL     OW 5602   7.044   5.181   7.517  0.3278 -0.6921 -0.3197
34450SOL    HW1 5603   7.049   5.233   7.436  0.2114  1.1757  0.8047
34450SOL    HW2 5604   7.123   5.205   7.566 -1.1095  0.7155  1.4829
34451SOL     OW 5605   5.027   4.519   8.310  0.3063  0.0083  0.5587
34451SOL    HW1 5606   5.048   4.552   8.222 -2.2646  0.8298  0.1647
34451SOL    HW2 5607   4.990   4.432   8.294  0.0109  0.0818  0.8401
34452SOL     OW 5608   6.724   3.922   0.434  0.0385  0.2660 -0.5438
34452SOL    HW1 5609   6.667   3.893   0.363  0.2670  0.8577 -0.9761
34452SOL    HW2 5610   6.813   3.900   0.405  0.2961  2.0397 -1.2354
34453SOL     OW 5611   0.480   1.270   9.803  0.5093 -0.2202 -0.3522
34453SOL    HW1 5612   0.399   1.264   9.753  0.7659 -0.5356 -0.7445
34453SOL    HW2 5613   0.477   1.356   9.846 -0.8321 -0.9254  1.0615
34454SOL     OW 5614   3.521   1.540   6.743 -0.2266 -0.4227  0.1882
34454SOL    HW1 5615   3.443   1.583   6.709  0.5232 -0.1065 -1.1924
34454SOL    HW2 5616   3.592   1.601   6.726  0.6985 -1.7154 -0.7931
34455SOL     OW 5617   2.477   9.604   7.015 -0.0231  0.0786  0.2229
34455SOL    HW1 5618   2.572   9.596   7.022 -0.2457 -1.6598  2.3121
34455SOL    HW2 5619   2.458   9.584   6.923  1.5568 -0.2476 -0.0630
34456SOL     OW 5620   2.293   3.255   9.562  0.3001 -0.7681  0.3068
34456SOL    HW1 5621   2.272   3.167   9.592 -1.0497 -0.5611  0.0413
34456SOL    HW2 5622   2.386   3.253   9.543  0.6539 -1.6411  1.9728
34457SOL     OW 5623   1.847   2.748  10.304  0.0889 -0.9090 -0.2578
34457SOL    HW1 5624   1.801   2.831  10.291  0.3467 -0.6589  0.3796
34457SOL    HW2 5625   1.792   2.700  10.366  1.6553  0.2277  2.1488
34458SOL     OW 5626   8.220   2.528   4.321 -0.1093  0.2281  0.1206
34458SOL    HW1 5627   8.191   2.448   4.364 -0.6504  1.2502  1.7126
34458SOL    HW2 5628   8.178   2.525   4.235 -0.6480 -0.8749  0.4045
34459SOL     OW 5629   8.726   9.294   1.730  0.2713  0.3664  0.1026
34459SOL    HW1 5630   8.698   9.247   1.652 -1.2991  0.5467  0.5246
34459SOL    HW2 5631   8.782   9.364   1.697  1.9602 -1.2155 -0.6024
34460SOL     OW 5632   1.586   9.700   5.024 -0.2726 -0.0523  0.0947
34460SOL    HW1 5633   1.520   9.712   5.092 -0.4477 -0.2012 -0.0491
34460SOL    HW2 5634   1.540   9.717   4.942 -0.5118 -1.5435 -0.1162
34461SOL     OW 5635   8.162   1.446   4.853 -0.0416 -0.5825 -0.3572
34461SOL    HW1 5636   8.159   1.425   4.759 -4.0447  1.8392 -1.0004
34461SOL    HW2 5637   8.071   1.446   4.881  0.7873  1.3765  2.9266
34462SOL     OW 5638   6.388   6.721   6.197 -0.0841 -0.0873  0.4355
34462SOL    HW1 5639   6.293   6.709   6.201 -0.3841  2.0294  0.5446
34462SOL    HW2 5640   6.402   6.811   6.224  1.8284  0.2062 -1.3291
34463SOL     OW 5641   8.828   3.407   0.465  0.3255  0.4677  0.0546
34463SOL    HW1 5642   8.733   3.421   0.462  0.3730  0.9130  0.5295
34463SOL    HW2 5643   8.839   3.314   0.445 -0.3759 -0.1893  2.3853
34464SOL     OW 5644   4.832   4.387   0.747  0.1642  0.2614 -0.2998
34464SOL    HW1 5645   4.902   4.410   0.686  0.3626  0.8819  0.1482
34464SOL    HW2 5646   4.869   4.319   0.803  0.1176 -0.0167 -0.6025
34465SOL     OW 5647   8.314   9.727   3.851  0.4723  0.3018  0.5351
34465SOL    HW1 5648   8.237   9.781   3.871  0.1091  0.2944 -0.7422
34465SOL    HW2 5649   8.279   9.638   3.844  0.0815  0.5917 -2.4448
34466SOL     OW 5650   6.911   7.089   3.804 -0.8012 -0.0112  0.4847
34466SOL    HW1 5651   6.966   7.016   3.774  0.8175  1.2751  0.1213
34466SOL    HW2 5652   6.842   7.096   3.738  1.0352  0.9224 -1.4526
34467SOL     OW 5653   0.585   8.949   5.161 -0.5457 -0.0033 -0.0904
34467SOL    HW1 5654   0.540   8.866   5.143 -0.2494 -0.4253  1.0048
34467SOL    HW2 5655   0.605   8.984   5.075 -1.5570 -0.5846 -0.5846
34468SOL     OW 5656   5.477  10.150   7.121  0.2166  0.0210 -0.1715
34468SOL    HW1 5657   5.477  10.242   7.096 -0.2562 -0.1176 -0.7055
34468SOL    HW2 5658   5.407  10.111   7.068 -1.3159 -0.1547  1.8584
34469SOL     OW 5659   0.834   6.073   2.477 -0.0586 -0.3257 -0.2376
34469SOL    HW1 5660   0.854   6.053   2.385  0.0936  0.3822 -0.3595
34469SOL    HW2 5661   0.886   6.010   2.527  1.0761  0.3067 -0.5960
34470SOL     OW 5662   7.896   1.681   4.792  0.3408  0.4681 -0.3032
34470SOL    HW1 5663   7.817   1.689   4.845 -0.6962 -1.0635 -1.5515
34470SOL    HW2 5664   7.896   1.591   4.760  1.8959  0.8049 -1.4065
34471SOL     OW 5665   0.660   0.707   6.842  0.8137 -0.7297  0.5775
34471SOL    HW1 5666   0.689   0.731   6.754 -1.0380  1.2354  0.4156
34471SOL    HW2 5667   0.718   0.755   6.901 -0.1799  0.8318  0.3228
34472SOL     OW 5668   9.615   6.808  10.447 -0.3983 -0.3525 -0.2870
34472SOL    HW1 5669   9.658   6.748  10.508 -0.9905  0.7790  1.2760
34472SOL    HW2 5670   9.522   6.785  10.452 -0.6892  0.9694  0.6670
34473SOL     OW 5671   2.695   0.596   0.359 -0.2562 -1.0224  0.4288
34473SOL    HW1 5672   2.623   0.546   0.321 -0.1327 -0.1071 -1.0599
34473SOL    HW2 5673   2.662   0.686   0.363  0.9920 -0.4848 -0.8402
34474SOL     OW 5674   8.285   7.658   7.030  0.0079 -0.1328  0.6843
34474SOL    HW1 5675   8.200   7.631   7.066  0.1261  0.0292  1.0871
34474SOL    HW2 5676   8.265   7.735   6.978 -0.3446 -1.0179 -0.5290
34475SOL     OW 5677   4.394   5.881   7.418 -0.2068 -0.7698 -0.9079
34475SOL    HW1 5678   4.342   5.949   7.375  0.6054  0.1549 -0.4882
34475SOL    HW2 5679   4.340   5.803   7.415 -1.6659  0.1788 -0.3873
34476SOL     OW 5680  10.036   2.814   4.850  0.2596 -0.8411 -0.5071
34476SOL    HW1 5681   9.972   2.755   4.810  0.9618 -1.3154 -0.9496
34476SOL    HW2 5682  10.079   2.856   4.775  0.8083 -0.9054 -0.2302
34477SOL     OW 5683  10.414   8.639   5.018 -0.2270 -0.1746 -0.0851
34477SOL    HW1 5684  10.339   8.694   4.996 -0.7679 -0.1416  1.6982
34477SOL    HW2 5685  10.391   8.552   4.987 -0.3272  0.1312 -0.9018
34478SOL     OW 5686   0.435   6.468   8.575 -0.2733 -0.2908 -1.0367
34478SOL    HW1 5687   0.369   6.499   8.513 -2.0765 -1.3025  0.2853
34478SOL    HW2 5688   0.444   6.374   8.556  0.2812 -0.3017 -0.7457
34479SOL     OW 5689   9.566   0.942   4.845  0.2451 -0.1790 -0.6644
34479SOL    HW1 5690   9.520   0.956   4.762 -0.7722  0.1444 -0.0554
34479SOL    HW2 5691   9.501   0.903   4.903  0.0010  2.3872  0.9347
34480SOL     OW 5692   8.493   8.817  10.577 -0.3713  0.1698  0.1042
34480SOL    HW1 5693   8.563   8.753  10.566  1.2940  1.9012  0.0727
34480SOL    HW2 5694   8.502   8.847  10.668 -1.2714  0.2160  0.1878
34481SOL     OW 5695  10.159   3.884   0.140  0.2387 -0.4000  0.0002
34481SOL    HW1 5696  10.086   3.927   0.185  1.1512 -1.6525  2.9210
34481SOL    HW2 5697  10.117   3.825   0.077 -1.1382  0.6442 -0.1238
34482SOL     OW 5698   7.384   0.985   9.911  0.0277 -0.3052  0.1959
34482SOL    HW1 5699   7.459   0.935   9.944  0.3530  0.9228  1.4228
34482SOL    HW2 5700   7.313   0.920   9.905  1.0702 -1.4174 -0.6855
34483SOL     OW 5701   1.321   9.359   1.256 -0.2253  0.0294 -0.3003
34483SOL    HW1 5702   1.238   9.381   1.298  0.1734  1.7987 -0.3958
34483SOL    HW2 5703   1.295   9.317   1.173 -1.0105  0.1465 -0.1201
34484SOL     OW 5704   4.358  10.587   3.722  0.4449  0.5601  0.1449
34484SOL    HW1 5705   4.266  10.611   3.713 -0.0853 -1.7922 -1.7902
34484SOL    HW2 5706   4.404  10.643   3.659  0.5718  2.5690  1.9504
34485SOL     OW 5707   0.318   1.599   0.216 -0.1034  0.3336 -0.3566
34485SOL    HW1 5708   0.249   1.600   0.150 -0.1580 -0.0096 -0.3078
34485SOL    HW2 5709   0.378   1.669   0.190  0.6654 -0.7397 -1.5962
34486SOL     OW 5710   1.896   9.442   2.849 -0.1034 -0.0568  0.3103
34486SOL    HW1 5711   1.887   9.350   2.873 -1.5970  0.1097  0.4879
34486SOL    HW2 5712   1.959   9.442   2.777  1.2900 -1.0094  1.4668
34487SOL     OW 5713   7.151   3.088   2.959  0.4519 -0.5883 -0.0957
34487SOL    HW1 5714   7.241   3.056   2.957  0.2783 -1.1382  0.7223
34487SOL    HW2 5715   7.110   3.048   2.883  1.0637  0.2089 -0.8787
34488SOL     OW 5716   0.324   8.658   5.887 -0.2451 -0.3671 -0.2208
34488SOL    HW1 5717   0.333   8.735   5.831 -0.8570 -1.5820 -2.1264
34488SOL    HW2 5718   0.265   8.600   5.838 -0.2823 -1.7934  1.4132
34489SOL     OW 5719   2.474   4.005   1.082  0.3141 -0.3627 -0.4810
34489SOL    HW1 5720   2.545   3.953   1.120  1.1757 -0.3574 -1.9702
34489SOL    HW2 5721   2.413   3.941   1.046 -1.5257 -0.4415  2.4417
34490SOL     OW 5722   1.662   5.937   0.028  0.3608  0.4914  0.3681
34490SOL    HW1 5723   1.651   5.843   0.016 -1.6483  0.1862  3.4683
34490SOL    HW2 5724   1.681   5.970  -0.060  2.7708 -2.9044 -0.6180
34491SOL     OW 5725   6.271   3.856  10.266  0.7670 -0.2589 -0.4022
34491SOL    HW1 5726   6.289   3.949  10.278 -3.4732  0.9050 -1.3742
34491SOL    HW2 5727   6.335   3.827  10.201  1.2201  2.3970 -1.2545
34492SOL     OW 5728   6.556   6.470   6.250  0.1889 -0.5214 -0.2109
34492SOL    HW1 5729   6.502   6.549   6.240 -2.4893 -1.8647  2.1989
34492SOL    HW2 5730   6.609   6.487   6.328  0.1806 -0.7953 -0.1438
34493SOL     OW 5731   2.801  10.213   9.608 -0.2604  0.3945 -0.7102
34493SOL    HW1 5732   2.836  10.292   9.568  1.8957  0.0913  0.4179
34493SOL    HW2 5733   2.859  10.143   9.579  0.4154 -0.0714  1.5732
34494SOL     OW 5734   4.702   4.791   7.352  0.0494  0.3279  0.0444
34494SOL    HW1 5735   4.676   4.756   7.438 -0.7435 -2.3865 -1.2071
34494SOL    HW2 5736   4.791   4.759   7.340  0.2420  0.9007 -0.0613
34495SOL     OW 5737   4.950   9.763   2.861 -0.5737 -0.6592  0.3122
34495SOL    HW1 5738   5.026   9.710   2.838 -0.0406 -0.1772  0.9169
34495SOL    HW2 5739   4.954   9.838   2.802 -0.0234 -0.1533  0.9666
34496SOL     OW 5740   5.938   4.002   2.026 -0.2870 -0.0053 -0.2339
34496SOL    HW1 5741   6.017   4.057   2.022 -0.0369  0.3331  4.2169
34496SOL    HW2 5742   5.866   4.064   2.018 -0.1180  0.0356 -1.6688
34497SOL     OW 5743   6.513   9.289   8.319 -0.1786  0.0458 -0.4087
34497SOL    HW1 5744   6.522   9.270   8.226  0.7004  0.6749 -0.4602
34497SOL    HW2 5745   6.596   9.262   8.357 -0.1814  0.6472  0.0409
34498SOL     OW 5746   6.530   3.869  10.102 -0.2224  0.4862 -0.5547
34498SOL    HW1 5747   6.536   3.957  10.063 -0.5152 -0.1176 -2.0138
34498SOL    HW2 5748   6.607   3.823  10.068 -1.3588 -0.5662 -1.8292
34499SOL     OW 5749   5.039   6.193   5.510 -0.9716  0.2638 -0.0456
34499SOL    HW1 5750   4.956   6.241   5.508 -0.3021  1.5104 -2.3039
34499SOL    HW2 5751   5.091   6.234   5.441  1.3374 -0.8417  0.9363
34500SOL     OW 5752   5.297   5.677   2.431 -0.0123  0.0019  0.2431
34500SOL    HW1 5753   5.323   5.675   2.523 -0.4480  0.1038  0.3664
34500SOL    HW2 5754   5.211   5.717   2.431  0.2719  0.6182 -0.2770
34501SOL     OW 5755   4.750   2.230   5.563 -0.1093  0.3352  0.2816
34501SOL    HW1 5756   4.682   2.243   5.497 -0.7388 -0.5270  0.7386
34501SOL    HW2 5757   4.739   2.304   5.623 -0.8443  0.0603  0.5069
34502SOL     OW 5758   2.864   4.870   6.937  0.5282  0.1637  0.0778
34502SOL    HW1 5759   2.877   4.795   6.996  2.4995  0.7366  0.4366
34502SOL    HW2 5760   2.829   4.832   6.857  0.1995 -0.9528  0.7318
34503SOL     OW 5761   6.603   4.838   5.754 -0.2479 -0.0824  0.0788
34503SOL    HW1 5762   6.663   4.768   5.779 -0.3988  0.0329  0.8075
34503SOL    HW2 5763   6.595   4.831   5.659 -0.5342 -1.2684  0.1735
34504SOL     OW 5764   5.565   9.009   3.745  0.0029  0.0010 -0.1901
34504SOL    HW1 5765   5.502   8.950   3.703 -0.5447  1.2887 -1.2708
34504SOL    HW2 5766   5.597   9.064   3.674  0.5784  0.9265  0.7579
34505SOL     OW 5767   1.006   3.965   0.668 -0.2811  0.4189 -0.0780
34505SOL    HW1 5768   1.048   4.014   0.739  0.9675 -1.3884  0.4989
34505SOL    HW2 5769   1.021   4.019   0.590  0.1551  1.4331  0.6845
34506SOL     OW 5770   8.532   0.056   8.484  0.7130 -0.4100 -0.1814
34506SOL    HW1 5771   8.464   0.047   8.550 -0.1744 -0.3859 -1.0599
34506SOL    HW2 5772   8.523   0.146   8.452  1.8713 -0.0555  0.4347
34507SOL     OW 5773   6.002   5.060   7.449 -0.2703  0.0963  0.2698
34507SOL    HW1 5774   6.019   5.125   7.517 -0.2806  0.8843 -0.4643
34507SOL    HW2 5775   6.029   4.977   7.488 -0.3069  0.5282  1.2409
34508SOL     OW 5776   8.027  10.413   6.165  0.6393 -0.1392  0.0347
34508SOL    HW1 5777   7.970  10.345   6.128 -0.2537  0.5879  0.0397
34508SOL    HW2 5778   8.112  10.370   6.174  0.4425 -0.8445 -1.2512
34509SOL     OW 5779   5.946   5.448   3.191 -0.0873 -0.2269  0.6355
34509SOL    HW1 5780   5.973   5.536   3.217  1.3368 -0.5781  0.4126
34509SOL    HW2 5781   5.870   5.462   3.134  0.3880  0.8814  0.2520
34510SOL     OW 5782   1.786   4.765   2.819 -0.2650  0.1863  0.2205
34510SOL    HW1 5783   1.712   4.825   2.825 -0.3197 -0.0050  1.7315
34510SOL    HW2 5784   1.811   4.767   2.726 -1.0027  1.6351  0.0231
34511SOL     OW 5785  10.107   2.715   7.001  0.9106 -0.5553  0.0755
34511SOL    HW1 5786  10.028   2.678   7.039  1.2005 -0.5009  0.7517
34511SOL    HW2 5787  10.077   2.763   6.924  0.2500 -0.2732  0.5023
34512SOL     OW 5788   4.991   3.289   7.498 -0.4836 -0.0370  0.4641
34512SOL    HW1 5789   5.047   3.358   7.534 -2.0205  0.6416  1.6337
34512SOL    HW2 5790   5.016   3.285   7.405  1.6626  0.0432  0.9737
34513SOL     OW 5791   8.895   1.531   4.690 -0.6271  0.0620  0.6114
34513SOL    HW1 5792   8.813   1.556   4.732 -0.1742  4.8292 -0.7599
34513SOL    HW2 5793   8.872   1.517   4.598 -0.0625  0.7595  0.3496
34514SOL     OW 5794   1.128   2.070   0.056  0.2329  0.1830 -0.1093
34514SOL    HW1 5795   1.070   2.009   0.101 -0.1192 -1.0129 -2.0920
34514SOL    HW2 5796   1.154   2.133   0.124 -2.5333  0.1532  1.0867
34515SOL     OW 5797   1.723   5.432   1.941 -0.3413 -0.3096  0.0418
34515SOL    HW1 5798   1.644   5.443   1.888  0.2548  1.2095 -0.5774
34515SOL    HW2 5799   1.741   5.338   1.937 -0.6409 -0.3248 -2.0269
34516SOL     OW 5800   9.113   3.502  10.008  0.0490  0.4077  0.8119
34516SOL    HW1 5801   9.021   3.527  10.013 -0.1612 -0.3168  0.6450
34516SOL    HW2 5802   9.115   3.427   9.949  0.7912  0.6090  0.5647
34517SOL     OW 5803   1.005   6.884   5.785 -0.4406 -0.4076  0.1232
34517SOL    HW1 5804   1.071   6.864   5.719  0.4218 -0.2748  0.9312
34517SOL    HW2 5805   1.044   6.855   5.868  0.6446  3.8232  1.3451
34518SOL     OW 5806   8.496   1.645   7.014 -0.4539 -0.0519 -0.0030
34518SOL    HW1 5807   8.514   1.736   7.036 -0.0461 -0.1761  0.1740
34518SOL    HW2 5808   8.466   1.648   6.923 -4.6961  0.7948  1.2112
34519SOL     OW 5809   5.377   4.432   7.273  0.1699  0.4776  0.3238
34519SOL    HW1 5810   5.396   4.356   7.218  0.3568  0.0904  0.9158
34519SOL    HW2 5811   5.462   4.474   7.284  0.1431  0.5188  0.3709
34520SOL     OW 5812   3.505   0.366   3.357  0.0857  0.0368  0.3010
34520SOL    HW1 5813   3.594   0.399   3.346 -0.2486  0.8851  0.0505
34520SOL    HW2 5814   3.480   0.335   3.270  0.9641 -2.4151  0.8545
34521SOL     OW 5815   2.791   5.433   9.178 -0.2275  0.2637 -0.6602
34521SOL    HW1 5816   2.784   5.362   9.243 -0.2990 -0.9097 -1.9029
34521SOL    HW2 5817   2.843   5.500   9.222 -0.1141 -0.5784  0.5546
34522SOL     OW 5818   7.786   1.819   0.542  0.1623 -0.0721  0.4187
34522SOL    HW1 5819   7.694   1.793   0.548  0.0287  0.2721 -0.0558
34522SOL    HW2 5820   7.830   1.771   0.612 -0.1004 -1.4591 -0.3292
34523SOL     OW 5821   2.068   2.924   9.157 -0.2114  0.6231  0.2910
34523SOL    HW1 5822   2.080   2.939   9.251 -0.5494 -0.8668  0.5877
34523SOL    HW2 5823   1.995   2.981   9.133 -0.1519  0.9787  0.9382
34524SOL     OW 5824   9.010   3.554   0.309 -0.1937  0.1146 -0.3413
34524SOL    HW1 5825   8.945   3.507   0.361  0.0383  0.5846  0.3785
34524SOL    HW2 5826   9.070   3.485   0.279  0.4835 -0.0077  1.1925
34525SOL     OW 5827   9.830   4.553   2.585 -0.2622 -0.6211  0.3178
34525SOL    HW1 5828   9.736   4.562   2.571 -0.1613 -2.7333 -2.4954
34525SOL    HW2 5829   9.839   4.476   2.641 -0.2017 -1.2317 -0.5144
34526SOL     OW 5830   3.711   3.993   8.421  0.0877  0.1284  0.3466
34526SOL    HW1 5831   3.709   4.083   8.389 -0.9040 -0.8298 -2.5243
34526SOL    HW2 5832   3.620   3.973   8.443 -0.0340 -0.7384 -0.8524
34527SOL     OW 5833   0.933   6.764   6.515  0.0113  0.0759 -0.0719
34527SOL    HW1 5834   0.990   6.715   6.574  0.4596 -1.2488 -1.5553
34527SOL    HW2 5835   0.982   6.844   6.495 -0.1067  0.5026  1.2361
34528SOL     OW 5836   4.752   2.627   7.756  0.4096 -0.0038  0.0098
34528SOL    HW1 5837   4.691   2.618   7.683 -0.0203  0.1940  0.3355
34528SOL    HW2 5838   4.728   2.711   7.796 -0.2482 -0.7069  1.1684
34529SOL     OW 5839   4.912   3.671   0.666 -0.2223  0.4738 -0.1177
34529SOL    HW1 5840   4.873   3.660   0.752 -1.7311 -2.3004 -1.0692
34529SOL    HW2 5841   4.997   3.627   0.672 -0.7010 -0.4756 -0.2861
34530SOL     OW 5842   3.714   7.489   3.774  0.4990  0.1134  0.2650
34530SOL    HW1 5843   3.667   7.444   3.844  0.7540  0.8236  0.9091
34530SOL    HW2 5844   3.802   7.505   3.810  0.0659  2.1970  0.5556
34531SOL     OW 5845   7.385   7.890   6.838 -0.0221  0.4052  0.3537
34531SOL    HW1 5846   7.410   7.873   6.747 -0.0299 -0.7362  0.5497
34531SOL    HW2 5847   7.469   7.900   6.884  0.0274 -0.7086  0.5196
34532SOL     OW 5848   5.847   5.263   9.282  0.2556 -0.0525 -0.0172
34532SOL    HW1 5849   5.846   5.219   9.196 -1.5193 -1.1158  0.4906
34532SOL    HW2 5850   5.780   5.331   9.274  1.4483  1.1325 -0.0805
34533SOL     OW 5851   7.285   9.673   4.457 -0.2265 -0.0448 -0.6324
34533SOL    HW1 5852   7.297   9.590   4.502 -0.9086  0.2342  0.0859
34533SOL    HW2 5853   7.300   9.653   4.364  2.2805 -0.4136 -0.2114
34534SOL     OW 5854   9.255   1.104   8.704 -0.3110  0.1096  0.0667
34534SOL    HW1 5855   9.324   1.045   8.734 -0.0512  0.5775  0.4174
34534SOL    HW2 5856   9.202   1.120   8.782  0.8110  1.9426  0.5286
34535SOL     OW 5857   8.734   4.821   3.945  0.1654  0.4178  0.2766
34535SOL    HW1 5858   8.740   4.909   3.909 -1.2244  0.8716  1.0923
34535SOL    HW2 5859   8.699   4.833   4.033 -1.7350 -1.0298 -0.2072
34536SOL     OW 5860   7.607   8.164   4.297  0.0237  0.6902 -0.1588
34536SOL    HW1 5861   7.686   8.212   4.273 -0.2532  0.8388 -0.7961
34536SOL    HW2 5862   7.542   8.190   4.232 -0.6479  0.8133  0.5521
34537SOL     OW 5863   7.070   8.560   1.756 -0.3562  0.1288 -0.4621
34537SOL    HW1 5864   7.069   8.654   1.737  0.6779  0.1603 -0.4224
34537SOL    HW2 5865   6.978   8.534   1.750 -0.5841  1.0066 -1.1523
34538SOL     OW 5866   7.261   1.457   2.627  0.0894  0.2812 -0.2566
34538SOL    HW1 5867   7.201   1.499   2.689 -2.0012  0.4295 -2.2717
34538SOL    HW2 5868   7.251   1.363   2.645  0.7462  0.3740  0.6831
34539SOL     OW 5869   2.944   2.213   7.946 -0.3368 -0.0220  0.2423
34539SOL    HW1 5870   2.998   2.193   8.023 -0.3229 -0.9145  0.0154
34539SOL    HW2 5871   2.868   2.258   7.982  0.6130  1.3914  0.5505
34540SOL     OW 5872   3.706  10.238   9.571 -0.1961  0.3115  0.0019
34540SOL    HW1 5873   3.661  10.272   9.648  1.6537 -1.2024  1.8510
34540SOL    HW2 5874   3.758  10.312   9.539 -3.4847  1.9896 -1.9853
34541SOL     OW 5875   7.844   7.725   1.389  0.7012 -0.4871  0.3519
34541SOL    HW1 5876   7.857   7.652   1.449 -1.5693 -1.1675  0.0913
34541SOL    HW2 5877   7.831   7.684   1.304  1.1765  0.3451 -0.1373
34542SOL     OW 5878   5.623   7.286   2.538  0.1370 -0.0726  0.4924
34542SOL    HW1 5879   5.550   7.337   2.573 -0.4671 -0.7171  0.2005
34542SOL    HW2 5880   5.636   7.216   2.602 -0.4324 -0.7715 -0.1247
34543SOL     OW 5881   9.036   8.744  10.392 -0.4462 -0.7700 -0.1933
34543SOL    HW1 5882   9.035   8.664  10.444 -1.2588 -0.2405  0.6306
34543SOL    HW2 5883   9.128   8.766  10.384 -0.1627 -2.0817 -0.9177
34544SOL     OW 5884   9.985   8.864   7.999  0.3055 -0.0494  0.3359
34544SOL    HW1 5885  10.034   8.870   7.917  0.1149  1.5237  0.3016
34544SOL    HW2 5886  10.030   8.796   8.049  0.5764 -0.8671 -0.9527
34545SOL     OW 5887   8.027   8.233   3.467  0.0121 -0.0266 -0.2443
34545SOL    HW1 5888   7.948   8.191   3.502 -0.5619  1.2116  0.0002
34545SOL    HW2 5889   8.064   8.168   3.407 -1.1698 -0.6478 -0.3336
34546SOL     OW 5890  10.036   6.312  10.438 -0.2847  0.5659  0.1513
34546SOL    HW1 5891  10.099   6.376  10.472 -0.7737  0.5253  1.1744
34546SOL    HW2 5892  10.081   6.270  10.365  0.2417  1.7158 -0.2150
34547SOL     OW 5893   7.473   7.947   6.070 -0.1798  0.2377  0.2526
34547SOL    HW1 5894   7.492   7.972   5.980 -1.1050  0.3251  0.0767
34547SOL    HW2 5895   7.545   7.985   6.121 -1.2273  2.8430 -0.0684
34548SOL     OW 5896   8.087   6.684   1.280 -0.3713  0.3518  0.7260
34548SOL    HW1 5897   8.043   6.626   1.342  0.8612 -0.5475  0.8083
34548SOL    HW2 5898   8.076   6.640   1.195 -0.1304  0.3983  0.6678
34549SOL     OW 5899   0.767   5.106   2.280 -0.0182 -0.2920  0.3560
34549SOL    HW1 5900   0.825   5.066   2.345  0.8832 -0.4777 -0.5270
34549SOL    HW2 5901   0.691   5.049   2.277  0.2309 -0.6543  0.7659
34550SOL     OW 5902   5.195   0.694   6.824 -0.5258  0.0524  0.3376
34550SOL    HW1 5903   5.106   0.727   6.810  0.1405  1.9127  0.2890
34550SOL    HW2 5904   5.234   0.756   6.886  1.0296 -0.2474 -0.3101
34551SOL     OW 5905   2.334   6.957   1.658 -0.1109  0.6167 -0.3569
34551SOL    HW1 5906   2.266   6.994   1.714  0.0639  0.9180 -0.3402
34551SOL    HW2 5907   2.331   6.863   1.676 -1.0499  0.5260 -0.9444
34552SOL     OW 5908   5.854   4.837   6.617  0.6891 -0.7686 -0.2323
34552SOL    HW1 5909   5.894   4.809   6.535 -0.7356 -0.2385 -1.1501
34552SOL    HW2 5910   5.767   4.797   6.616  0.3298 -0.0458  0.5910
34553SOL     OW 5911   5.569   1.316  10.063  0.1594  0.3341 -0.2331
34553SOL    HW1 5912   5.569   1.326  10.158  1.5221  1.4883 -0.3164
34553SOL    HW2 5913   5.494   1.260  10.044  1.5015 -2.3160  1.7424
34554SOL     OW 5914   5.958   0.896   0.317 -0.5693  0.6290 -0.2528
34554SOL    HW1 5915   5.898   0.841   0.267 -2.5486  0.4111  2.1803
34554SOL    HW2 5916   5.906   0.972   0.343  0.2724  0.6431  1.5800
34555SOL     OW 5917   9.618   8.765   0.591  0.0328  0.1064  0.1327
34555SOL    HW1 5918   9.697   8.735   0.636  0.7603  1.6743 -0.0447
34555SOL    HW2 5919   9.607   8.856   0.619 -1.2481  0.1738 -0.4970
34556SOL     OW 5920   7.450   0.675   1.832  0.3062  0.1734  0.1423
34556SOL    HW1 5921   7.528   0.619   1.836  1.0974  1.0940 -1.4199
34556SOL    HW2 5922   7.484   0.761   1.808 -1.0775  0.9204  0.7355
34557SOL     OW 5923   7.886   3.461   0.470  0.3415 -0.2772  0.1770
34557SOL    HW1 5924   7.932   3.443   0.387  0.4313 -0.7117  0.3207
34557SOL    HW2 5925   7.814   3.398   0.471  0.6884 -0.6666  0.7082
34558SOL     OW 5926  10.110   2.482   9.269 -0.0631  0.0462  0.3309
34558SOL    HW1 5927  10.119   2.391   9.240  0.4197  0.2099 -0.0437
34558SOL    HW2 5928  10.017   2.492   9.288 -0.2038 -0.3859 -0.1088
34559SOL     OW 5929   6.887   7.052   4.509 -0.4624  0.2860 -0.3641
34559SOL    HW1 5930   6.928   6.968   4.489  1.8759  1.0098  1.0541
34559SOL    HW2 5931   6.836   7.036   4.588 -2.4431 -0.4285 -1.7070
34560SOL     OW 5932   4.476   7.349   9.423  0.4707 -0.2164 -0.3822
34560SOL    HW1 5933   4.444   7.379   9.508  0.5940 -1.6697  0.2026
34560SOL    HW2 5934   4.423   7.272   9.403  0.6958 -0.1098 -1.4524
34561SOL     OW 5935   1.999   1.130   3.523 -0.0756 -0.0027 -0.4047
34561SOL    HW1 5936   1.941   1.054   3.519 -0.2774  0.1034  0.3423
34561SOL    HW2 5937   2.053   1.123   3.445 -1.3973  0.1435 -1.3687
34562SOL     OW 5938   7.805   4.544   0.286  0.5055 -0.6338  0.2442
34562SOL    HW1 5939   7.771   4.506   0.206 -0.9825  1.1251 -0.0196
34562SOL    HW2 5940   7.728   4.562   0.340  1.0533  2.0395  0.2878
34563SOL     OW 5941   2.446   8.222   9.950 -0.5835  0.0080  0.3487
34563SOL    HW1 5942   2.440   8.256  10.039 -1.2076  1.3712 -0.1904
34563SOL    HW2 5943   2.540   8.221   9.932 -0.2627 -2.2326  1.7003
34564SOL     OW 5944   6.519  10.481  10.269  0.0913 -0.3072  0.0484
34564SOL    HW1 5945   6.486  10.541  10.336 -1.4025 -0.5305 -0.4492
34564SOL    HW2 5946   6.481  10.396  10.293  0.4509 -0.6163 -0.4626
34565SOL     OW 5947   8.505  10.170   6.068 -0.1323  0.6475 -0.0397
34565SOL    HW1 5948   8.513  10.152   6.161  1.6837  1.9359  0.1016
34565SOL    HW2 5949   8.441  10.240   6.062  0.0629  0.8556  0.2873
34566SOL     OW 5950   8.467   3.283   5.929  0.4991  0.0112 -0.2688
34566SOL    HW1 5951   8.512   3.232   5.996 -0.4518  1.6780  1.7718
34566SOL    HW2 5952   8.518   3.270   5.850  2.4806 -0.9758  1.0983
34567SOL     OW 5953   9.527   8.513   3.062  0.2839  0.1136  0.3885
34567SOL    HW1 5954   9.610   8.469   3.084 -0.5681 -0.8831  1.7840
34567SOL    HW2 5955   9.462   8.443   3.065 -0.6246  0.8792 -0.7320
34568SOL     OW 5956   1.749   5.190   1.094 -0.0782 -0.3153  0.3864
34568SOL    HW1 5957   1.806   5.253   1.138 -0.7272  1.0354 -0.6123
34568SOL    HW2 5958   1.807   5.145   1.032 -0.1200  1.4943 -1.0877
34569SOL     OW 5959  10.575   3.164   9.111  0.2048 -0.5014  0.9841
34569SOL    HW1 5960  10.543   3.074   9.113  1.7928 -1.0877  1.0373
34569SOL    HW2 5961  10.588   3.187   9.202  0.1985 -0.3627  0.9491
34570SOL     OW 5962   1.172  10.488   2.376 -0.1536  0.0426  0.4760
34570SOL    HW1 5963   1.151  10.499   2.284 -1.7446  0.7148  0.8937
34570SOL    HW2 5964   1.104  10.535   2.423  1.5893  1.2516  1.9729
34571SOL     OW 5965   6.623   9.406   8.639 -0.1394 -0.0678  0.3621
34571SOL    HW1 5966   6.602   9.483   8.692 -3.6888 -0.2762 -0.5094
34571SOL    HW2 5967   6.585   9.424   8.553  0.1436 -2.2368 -0.2889
34572SOL     OW 5968   1.687   3.126   8.871 -0.0782  0.4937 -0.2275
34572SOL    HW1 5969   1.624   3.078   8.818 -0.2249  0.1467  0.2632
34572SOL    HW2 5970   1.635   3.191   8.918 -0.1130  0.0292  0.3844
34573SOL     OW 5971   0.614   6.022   4.731 -0.9762 -0.5501  0.1086
34573SOL    HW1 5972   0.592   5.942   4.684  1.1277 -0.6391 -0.8414
34573SOL    HW2 5973   0.695   6.002   4.777 -1.9639  0.1503  2.3162
34574SOL     OW 5974   3.928   8.729   5.552  0.1521 -0.2170  0.0657
34574SOL    HW1 5975   3.903   8.752   5.463  1.5145 -2.2343 -0.9136
34574SOL    HW2 5976   4.023   8.723   5.550  0.1358 -1.6679  1.2575
34575SOL     OW 5977   0.181   5.309   8.961 -0.4907 -0.7778  0.1396
34575SOL    HW1 5978   0.106   5.367   8.947  0.6578  0.8127  0.3549
34575SOL    HW2 5979   0.160   5.263   9.043 -1.7313 -1.2150 -0.3998
34576SOL     OW 5980   4.279   7.506   5.978 -0.0892 -0.8473  0.0953
34576SOL    HW1 5981   4.254   7.563   6.051 -0.3931 -4.1158  2.8136
34576SOL    HW2 5982   4.206   7.511   5.917 -1.8022 -1.0057  2.0228
34577SOL     OW 5983   1.444   9.566   4.329  0.5093 -0.2956  0.0053
34577SOL    HW1 5984   1.491   9.509   4.268  0.3071  0.4489 -0.8788
34577SOL    HW2 5985   1.493   9.648   4.328 -0.2398  0.1641 -0.1693
34578SOL     OW 5986   1.018   1.818   4.795 -0.1061  0.3348  0.1076
34578SOL    HW1 5987   0.938   1.816   4.848  0.2022 -0.3913  0.5646
34578SOL    HW2 5988   1.083   1.772   4.848  0.2968 -0.1234 -0.7643
34579SOL     OW 5989   0.727   2.909   4.333 -0.5433  0.2226 -0.0668
34579SOL    HW1 5990   0.684   2.889   4.417 -1.9523  0.8435 -0.6143
34579SOL    HW2 5991   0.713   3.003   4.320  0.0668  0.2253 -0.7896
34580SOL     OW 5992   6.841   2.673   3.342  0.0008  0.9419  0.0834
34580SOL    HW1 5993   6.758   2.719   3.354 -0.0524  1.3169 -1.5135
34580SOL    HW2 5994   6.825   2.613   3.269  1.1336  1.0470 -0.2762
34581SOL     OW 5995   9.526   6.172   8.392 -0.4628 -0.4814 -0.6958
34581SOL    HW1 5996   9.447   6.194   8.342 -0.6700 -0.2369 -0.2596
34581SOL    HW2 5997   9.498   6.104   8.453 -0.5472  0.2189  0.0556
34582SOL     OW 5998   3.400   9.820   9.842 -0.3438 -0.1086  0.3288
34582SOL    HW1 5999   3.480   9.781   9.877 -2.2715 -1.9930  3.0175
34582SOL    HW2 6000   3.399   9.909   9.877  0.0713 -0.4156  1.1357
34583SOL     OW 6001   0.034   2.544   4.907  0.4660  0.1751  0.2211
34583SOL    HW1 6002   0.060   2.629   4.942  0.1987 -0.4962  2.1146
34583SOL    HW2 6003   0.023   2.488   4.983  0.6258 -1.5851 -0.9847
34584SOL     OW 6004   3.834   5.189   5.383  0.3612 -0.0687 -0.4479
34584SOL    HW1 6005   3.887   5.110   5.369  0.7958  0.2181 -0.4285
34584SOL    HW2 6006   3.744   5.156   5.394  0.4534 -0.5128 -1.0274
34585SOL     OW 6007   8.333   9.365   4.850  0.2593 -0.3557 -0.1008
34585SOL    HW1 6008   8.261   9.306   4.830 -0.6878  0.8758 -0.4393
34585SOL    HW2 6009   8.407   9.331   4.800  0.2949 -2.3241  1.1608
34586SOL     OW 6010   1.278   9.169   3.650  0.3203  0.4342 -0.8453
34586SOL    HW1 6011   1.316   9.252   3.678 -1.1009  0.8787 -0.1230
34586SOL    HW2 6012   1.352   9.108   3.646  1.0745  1.2139  0.6128
34587SOL     OW 6013   9.608   0.974   9.870  0.5659  0.2213 -0.1886
34587SOL    HW1 6014   9.562   0.940   9.794  0.7451 -3.0055  1.0159
34587SOL    HW2 6015   9.590   1.068   9.869 -2.8379 -0.3197 -1.8908
34588SOL     OW 6016   3.156   5.289   5.084 -0.1553  0.2511  0.2490
34588SOL    HW1 6017   3.067   5.254   5.088 -0.2837  0.6371  0.8764
34588SOL    HW2 6018   3.212   5.213   5.105 -0.3641  0.1459  0.4242
34589SOL     OW 6019  10.128   1.007   6.834 -0.3952  0.4033 -0.3831
34589SOL    HW1 6020  10.218   0.974   6.842 -0.7561 -0.1729  2.6530
34589SOL    HW2 6021  10.081   0.937   6.787  0.2517 -0.4155  0.1567
34590SOL     OW 6022   8.201   7.142   3.287 -0.0117 -0.1729  0.5190
34590SOL    HW1 6023   8.107   7.144   3.270 -0.0151  1.6054  0.6372
34590SOL    HW2 6024   8.219   7.221   3.337  1.6501 -0.1501 -0.0467
34591SOL     OW 6025   0.330   9.575   0.125  0.4723  0.1061 -0.2236
34591SOL    HW1 6026   0.414   9.622   0.126  0.6300 -0.1616  0.8892
34591SOL    HW2 6027   0.294   9.588   0.213 -0.1523 -0.6593 -0.3512
34592SOL     OW 6028   0.526   1.567  10.233 -0.2412 -0.0314 -0.5883
34592SOL    HW1 6029   0.610   1.553  10.189 -0.7990  0.1207 -1.7386
34592SOL    HW2 6030   0.536   1.652  10.276  0.4318 -0.3347 -0.1266
34593SOL     OW 6031   2.751  10.487   5.293 -0.0320 -0.0478 -0.1382
34593SOL    HW1 6032   2.723  10.579   5.300 -0.2606 -0.1336  0.0819
34593SOL    HW2 6033   2.798  10.470   5.374  1.2375  0.2825 -0.7755
34594SOL     OW 6034   7.437   9.760   7.313 -0.3052 -0.0483  0.2201
34594SOL    HW1 6035   7.403   9.672   7.298  0.0899 -0.1440 -0.1589
34594SOL    HW2 6036   7.525   9.746   7.348 -0.0867  0.1919 -0.2216
34595SOL     OW 6037   5.290   0.833  10.107  0.4067  0.3163 -0.2774
34595SOL    HW1 6038   5.251   0.770  10.047  0.8672 -0.2006 -0.0455
34595SOL    HW2 6039   5.364   0.786  10.146 -0.2161  0.4363  1.1086
34596SOL     OW 6040   4.547   5.053   7.754  0.2633  0.3886  0.2230
34596SOL    HW1 6041   4.624   5.083   7.804  0.8949 -0.8367  0.0152
34596SOL    HW2 6042   4.485   5.125   7.762  0.6624  0.5869  2.0832
34597SOL     OW 6043   4.951   3.588   4.028 -0.4739  0.2138 -0.1732
34597SOL    HW1 6044   4.884   3.622   3.970 -0.9651  0.2389  0.3968
34597SOL    HW2 6045   4.927   3.620   4.115 -0.4957 -0.8845  0.2510
34598SOL     OW 6046   5.846   5.555   4.209 -0.1764  0.4681  0.3996
34598SOL    HW1 6047   5.826   5.642   4.241 -1.5126  1.8335 -3.4782
34598SOL    HW2 6048   5.773   5.533   4.151  1.9802 -1.4240 -1.8963
34599SOL     OW 6049   3.099   1.449   7.544  0.3716  0.2846 -0.3233
34599SOL    HW1 6050   3.173   1.421   7.490  0.6254  1.5537 -0.6602
34599SOL    HW2 6051   3.030   1.472   7.481  0.2318  0.5914 -0.0609
34600SOL     OW 6052   0.590   2.989   2.399  0.2444 -0.2300  0.2414
34600SOL    HW1 6053   0.568   2.993   2.306 -1.9210  1.5117  0.7361
34600SOL    HW2 6054   0.670   3.040   2.407  0.6050 -0.6288 -0.6927
34601SOL     OW 6055   7.178   5.187   9.814  0.0876  0.2508  0.1354
34601SOL    HW1 6056   7.140   5.099   9.819  0.6862  0.0488  1.7315
34601SOL    HW2 6057   7.116   5.242   9.862 -0.0283  0.6149 -0.4227
34602SOL     OW 6058   7.093   9.973   2.855  0.0578  0.1599  0.1699
34602SOL    HW1 6059   7.007   9.969   2.813  0.1512 -1.4609  0.0635
34602SOL    HW2 6060   7.152  10.006   2.786 -0.4160  1.0154  0.1631
34603SOL     OW 6061   3.904   8.771   0.936  0.1380  0.0924 -0.2949
34603SOL    HW1 6062   3.940   8.767   1.024  0.5416 -2.4273 -0.5052
34603SOL    HW2 6063   3.809   8.769   0.949  0.1572  1.1492  0.0952
34604SOL     OW 6064  10.621   0.732   5.919 -0.8132 -0.3718 -0.3001
34604SOL    HW1 6065  10.543   0.749   5.972 -1.5269 -0.2606 -1.3556
34604SOL    HW2 6066  10.669   0.814   5.920 -0.2237 -0.7000  1.0959
34605SOL     OW 6067   0.874   4.698   0.886 -0.9375  1.0135 -0.0353
34605SOL    HW1 6068   0.900   4.657   0.803  1.2968  1.6558  0.2767
34605SOL    HW2 6069   0.843   4.625   0.940 -0.5239  0.2843 -0.7557
34606SOL     OW 6070   5.310   6.037   6.888  0.4989 -0.1258  0.3501
34606SOL    HW1 6071   5.244   5.984   6.933  0.1053  0.7150  0.7885
34606SOL    HW2 6072   5.342   6.098   6.954  1.4967 -0.3113  0.0562
34607SOL     OW 6073  10.524  10.381   6.112 -0.7176 -0.3567 -0.0963
34607SOL    HW1 6074  10.535  10.474   6.092 -1.1912 -0.2705  0.0137
34607SOL    HW2 6075  10.429  10.367   6.107 -0.5787 -1.0650 -1.0915
34608SOL     OW 6076  10.043   2.954   7.723  0.0004  0.5707 -0.0481
34608SOL    HW1 6077  10.090   2.894   7.781 -0.1076  2.1738  1.7782
34608SOL    HW2 6078  10.101   2.962   7.646 -0.7730 -3.1239 -1.2192
34609SOL     OW 6079   3.541   9.415   7.661 -0.3626  0.3880  0.0004
34609SOL    HW1 6080   3.569   9.438   7.749 -0.9180  0.7270  0.0959
34609SOL    HW2 6081   3.586   9.333   7.641 -0.8635 -0.1157  0.9123
34610SOL     OW 6082   7.466   0.934   4.553  0.1341  0.2520 -0.1248
34610SOL    HW1 6083   7.490   0.846   4.584  2.6927  2.0524  3.9792
34610SOL    HW2 6084   7.372   0.939   4.566  0.0738 -1.5920  0.4970
34611SOL     OW 6085   1.301   3.610   4.688 -0.4141  0.0866 -0.2599
34611SOL    HW1 6086   1.334   3.538   4.634 -0.1736  0.4111 -0.5529
34611SOL    HW2 6087   1.282   3.680   4.626  0.4180  0.6740  0.1201
34612SOL     OW 6088   6.827   8.538   4.166  0.4529  0.4911 -0.3743
34612SOL    HW1 6089   6.860   8.511   4.080 -2.7956 -2.3035 -0.9561
34612SOL    HW2 6090   6.787   8.623   4.150  1.3194  0.7632 -1.2137
34613SOL     OW 6091   1.978   4.964   7.129  0.0079  0.4703 -0.1855
34613SOL    HW1 6092   2.008   5.029   7.192 -1.1838  0.4964  0.3815
34613SOL    HW2 6093   2.054   4.947   7.074  1.1465  0.3070  1.3726
34614SOL     OW 6094   2.540  10.463   4.290 -0.3219 -0.0158 -0.0793
34614SOL    HW1 6095   2.463  10.415   4.256 -0.3843  0.1710 -0.2033
34614SOL    HW2 6096   2.602  10.462   4.217 -1.3538  2.4483 -1.1176
34615SOL     OW 6097   7.319   7.756   5.288  0.3403 -0.6858 -0.2775
34615SOL    HW1 6098   7.268   7.676   5.298  2.8388 -2.2395  0.8996
34615SOL    HW2 6099   7.410   7.729   5.301  1.4391  2.0789 -1.4504
34616SOL     OW 6100   0.765   8.906   5.675 -0.0880  0.7832  0.4382
34616SOL    HW1 6101   0.765   8.935   5.584 -0.3388 -0.7105 -0.0695
34616SOL    HW2 6102   0.691   8.951   5.715 -1.7862 -0.7309 -0.8748
34617SOL     OW 6103   0.284   6.632   4.566  0.0847  0.3274 -0.2593
34617SOL    HW1 6104   0.188   6.640   4.570  0.1643  1.0214  0.5219
34617SOL    HW2 6105   0.303   6.553   4.617  0.0329  1.1297  1.0539
34618SOL     OW 6106   2.130   2.121   5.460 -0.6209 -0.4936 -0.7029
34618SOL    HW1 6107   2.161   2.031   5.469 -2.8725 -1.2016  0.8843
34618SOL    HW2 6108   2.040   2.112   5.429 -0.8139  1.2179 -0.7034
34619SOL     OW 6109   5.022  10.383   5.909 -0.2749  0.2048 -0.2756
34619SOL    HW1 6110   5.059  10.350   5.991 -0.4685  0.3055 -0.1493
34619SOL    HW2 6111   4.955  10.445   5.935 -0.1893  0.4003 -0.5112
34620SOL     OW 6112   3.213  10.052   1.575  0.0855 -0.3291 -0.3725
34620SOL    HW1 6113   3.267  10.073   1.651 -0.1180  0.4744 -0.4422
34620SOL    HW2 6114   3.125  10.042   1.611 -0.4038  2.1029 -0.7482
34621SOL     OW 6115   0.142   2.291  10.270 -0.0951  0.3763 -0.2973
34621SOL    HW1 6116   0.076   2.358  10.252 -0.0029  0.8444  0.9980
34621SOL    HW2 6117   0.197   2.329  10.339  0.4087 -0.7378 -0.0569
34622SOL     OW 6118   0.957   8.122  10.479 -0.0709 -0.1792  0.1633
34622SOL    HW1 6119   1.030   8.156  10.529 -1.0288  0.2671  1.3001
34622SOL    HW2 6120   0.969   8.027  10.480  2.3704 -0.0308 -2.6543
34623SOL     OW 6121   0.620   6.539   7.791  0.0997  0.0790 -0.0591
34623SOL    HW1 6122   0.586   6.588   7.716 -0.1866  3.1569  1.9418
34623SOL    HW2 6123   0.714   6.557   7.790 -0.0353  0.8983  0.7985
34624SOL     OW 6124   7.510   3.851   6.349  0.1079 -0.1633 -0.2693
34624SOL    HW1 6125   7.603   3.861   6.371  0.1306  0.4612 -0.6298
34624SOL    HW2 6126   7.493   3.918   6.283 -0.4280 -0.7481 -0.7395
34625SOL     OW 6127   6.745   5.755   8.707 -0.1549  0.5495  0.7137
34625SOL    HW1 6128   6.822   5.808   8.685  0.9769 -1.6213 -0.8936
34625SOL    HW2 6129   6.705   5.734   8.623 -1.1187 -0.3683  1.3759
34626SOL     OW 6130   0.965   9.710   2.154  0.2299 -0.2122 -0.1144
34626SOL    HW1 6131   1.060   9.696   2.150  0.4022  1.1635 -1.6880
34626SOL    HW2 6132   0.928   9.632   2.113  0.6373 -0.9069  0.7984
34627SOL     OW 6133   3.675   6.689   5.219 -0.1008  0.4815  0.3054
34627SOL    HW1 6134   3.712   6.739   5.146 -2.7321  0.1494 -1.3902
34627SOL    HW2 6135   3.603   6.744   5.252  0.3589  0.1350  1.9671
34628SOL     OW 6136   1.400   1.988   1.416  0.4896  0.1881 -0.9259
34628SOL    HW1 6137   1.441   1.910   1.453 -1.0454 -0.3626 -0.3230
34628SOL    HW2 6138   1.465   2.021   1.353  1.7526 -0.7475 -0.1711
34629SOL     OW 6139   8.984   5.240  10.341 -0.2024 -0.0223 -0.1952
34629SOL    HW1 6140   8.904   5.190  10.357  1.2223 -2.4138  0.0055
34629SOL    HW2 6141   9.036   5.229  10.421  0.7461  0.6194 -0.6958
34630SOL     OW 6142   1.573   2.292   9.281 -0.5636 -0.2254 -0.0593
34630SOL    HW1 6143   1.624   2.215   9.257  1.4355  1.0561 -0.1061
34630SOL    HW2 6144   1.557   2.282   9.375 -1.0868 -1.0895 -0.2241
34631SOL     OW 6145   9.600   5.453   8.467  0.1684 -0.0547  0.0425
34631SOL    HW1 6146   9.554   5.384   8.515  1.6843 -0.3099  1.1778
34631SOL    HW2 6147   9.556   5.456   8.382  0.3697 -2.7979 -0.2494
34632SOL     OW 6148   6.250   1.898   5.780  1.1265 -0.2179  0.3338
34632SOL    HW1 6149   6.332   1.864   5.745  1.2345 -0.3028  0.6691
34632SOL    HW2 6150   6.229   1.840   5.853  0.3234 -0.7266 -0.2771
34633SOL     OW 6151   0.793   5.746   8.173  0.1046 -0.3774  0.3149
34633SOL    HW1 6152   0.864   5.742   8.237 -0.0285 -0.6369  0.4470
34633SOL    HW2 6153   0.795   5.661   8.129 -0.1979 -0.4331  0.4032
34634SOL     OW 6154   2.569   6.958   1.118  0.1111 -0.1161 -0.5448
34634SOL    HW1 6155   2.524   6.978   1.199  0.5328 -0.2392 -0.2776
34634SOL    HW2 6156   2.558   6.863   1.107  0.3595 -0.1579 -0.4428
34635SOL     OW 6157   8.448   1.392   2.867 -0.7189 -0.1519 -0.2163
34635SOL    HW1 6158   8.364   1.439   2.867 -1.1566 -0.8248  1.8765
34635SOL    HW2 6159   8.503   1.443   2.927 -0.2873 -0.7900 -0.0680
34636SOL     OW 6160   3.136   2.690   2.021 -0.1369  0.8468 -0.9162
34636SOL    HW1 6161   3.154   2.607   1.979 -0.0106  0.4765 -0.1535
34636SOL    HW2 6162   3.043   2.687   2.042  0.1227  0.3488  0.2443
34637SOL     OW 6163   1.091   4.047   6.014 -0.3775 -0.7760  0.2615
34637SOL    HW1 6164   1.066   4.020   6.103 -1.0289 -1.1974 -0.0449
34637SOL    HW2 6165   1.013   4.090   5.980  0.0331 -0.1833  0.0593
34638SOL     OW 6166   2.683   5.722   8.815 -0.5068  0.2994  0.1159
34638SOL    HW1 6167   2.605   5.771   8.788 -0.3491  0.6742  0.3297
34638SOL    HW2 6168   2.678   5.720   8.910  1.7833  3.8533  0.5009
34639SOL     OW 6169   6.980  10.243   5.317 -0.4789 -0.1472 -0.0570
34639SOL    HW1 6170   7.047  10.175   5.317 -1.3442 -1.0205  0.5534
34639SOL    HW2 6171   6.983  10.280   5.229  0.0700 -0.9003 -0.3617
34640SOL     OW 6172   4.551   0.947   0.743  0.1125 -0.1501  0.1918
34640SOL    HW1 6173   4.547   0.892   0.821  0.9260 -0.6022 -0.0645
34640SOL    HW2 6174   4.481   0.914   0.686  0.1937 -0.5145  0.2989
34641SOL     OW 6175   4.758   8.479   5.760 -0.2017  0.0491 -0.6965
34641SOL    HW1 6176   4.775   8.405   5.818 -0.3843  0.0419 -0.6480
34641SOL    HW2 6177   4.785   8.556   5.810 -1.8009  0.1836  0.0312
34642SOL     OW 6178   2.425   5.556   4.341  0.4805  0.3238 -0.3911
34642SOL    HW1 6179   2.507   5.541   4.295  1.0539  1.7770  0.1259
34642SOL    HW2 6180   2.438   5.637   4.390 -0.3292 -0.7900  1.8313
34643SOL     OW 6181   6.926   7.471   1.097  0.1039 -0.1583 -0.1496
34643SOL    HW1 6182   6.863   7.399   1.106  0.1677 -0.2061 -0.0818
34643SOL    HW2 6183   6.872   7.548   1.078  0.0738 -0.3264 -0.7619
34644SOL     OW 6184   4.229   9.946   0.790 -0.5609 -0.4290 -0.1762
34644SOL    HW1 6185   4.150   9.962   0.841 -0.5150  1.1281 -0.5662
34644SOL    HW2 6186   4.227  10.011   0.721  1.9192  0.7993  0.7923
34645SOL     OW 6187   3.697   5.912   4.708  0.1475 -0.2770 -0.1698
34645SOL    HW1 6188   3.627   5.944   4.650  0.8446 -0.2288 -0.9895
34645SOL    HW2 6189   3.659   5.920   4.796 -0.2571  1.3891 -0.4588
34646SOL     OW 6190   3.800   1.367  10.324  0.6229 -0.3549  0.0495
34646SOL    HW1 6191   3.881   1.340  10.367  0.8988  0.1199 -0.1582
34646SOL    HW2 6192   3.736   1.375  10.395  0.7132 -0.8921  0.1924
34647SOL     OW 6193  10.182   1.352   9.036 -0.3378  0.5103  0.4424
34647SOL    HW1 6194  10.230   1.424   8.996 -0.2905 -0.2778 -1.0055
34647SOL    HW2 6195  10.197   1.362   9.130  1.1473  1.3496  0.1504
34648SOL     OW 6196   5.220   7.658   3.676  0.3457 -0.1838  0.1144
34648SOL    HW1 6197   5.212   7.580   3.730 -1.9003 -0.0825  0.0276
34648SOL    HW2 6198   5.294   7.706   3.714  0.0008 -1.0115  1.9157
34649SOL     OW 6199   6.375  10.572   7.163 -0.0057  0.1727 -0.1847
34649SOL    HW1 6200   6.331  10.637   7.217 -1.4483  0.3345 -1.5152
34649SOL    HW2 6201   6.453  10.549   7.214  0.6980  3.0681  0.2235
34650SOL     OW 6202   3.792   5.410   8.005 -0.1778  0.0649 -0.2507
34650SOL    HW1 6203   3.735   5.351   8.054 -1.2355  0.7902 -0.5957
34650SOL    HW2 6204   3.855   5.442   8.070  1.5796 -2.7431 -0.3572
34651SOL     OW 6205  10.509   2.754   8.719 -0.0918 -0.2170 -0.3267
34651SOL    HW1 6206  10.414   2.763   8.710  0.0729  0.1656 -1.8380
34651SOL    HW2 6207  10.529   2.670   8.678  0.0168 -1.2474  1.7289
34652SOL     OW 6208   3.316   0.335   1.863 -0.1645 -0.0966 -0.5550
34652SOL    HW1 6209   3.228   0.371   1.861 -0.7541 -1.1286  2.0440
34652SOL    HW2 6210   3.305   0.241   1.845  0.8501  0.2089 -3.2396
34653SOL     OW 6211  10.428   0.454   1.839  0.0573 -0.4868  0.1570
34653SOL    HW1 6212  10.374   0.522   1.798 -2.1317 -2.0820  0.2117
34653SOL    HW2 6213  10.382   0.373   1.820  2.2598 -1.9135  0.6373
34654SOL     OW 6214   4.450   6.055   8.224  0.5256  0.0765  0.0200
34654SOL    HW1 6215   4.404   6.034   8.306  0.9077 -0.0852  0.1944
34654SOL    HW2 6216   4.542   6.050   8.247  0.7171 -2.1320 -0.9380
34655SOL     OW 6217   7.369   4.196   2.794 -0.0198 -0.3546  0.7897
34655SOL    HW1 6218   7.322   4.195   2.711  1.7369  0.6737 -0.2755
34655SOL    HW2 6219   7.302   4.220   2.859 -0.9872  0.9571 -0.6260
34656SOL     OW 6220   8.333   3.213   7.100  0.2027  0.3264  0.0764
34656SOL    HW1 6221   8.342   3.176   7.188 -0.1795  1.2760  0.5235
34656SOL    HW2 6222   8.271   3.285   7.111 -1.9039 -1.1300 -1.4238
34657SOL     OW 6223   2.599   3.133   3.048 -0.1652 -0.5333 -0.3469
34657SOL    HW1 6224   2.630   3.075   3.119  0.7243  1.2301  0.7731
34657SOL    HW2 6225   2.632   3.092   2.968  2.3321 -0.4765  0.5676
34658SOL     OW 6226   3.746   6.459   0.886  0.2478 -0.5172 -0.6407
34658SOL    HW1 6227   3.791   6.492   0.964 -0.3996 -2.2924  0.5490
34658SOL    HW2 6228   3.706   6.377   0.915 -0.2402 -1.0874 -2.7889
34659SOL     OW 6229   9.252   8.042   4.356 -0.2028 -0.4146  0.2322
34659SOL    HW1 6230   9.274   8.133   4.337 -0.4102 -0.1077  1.3592
34659SOL    HW2 6231   9.277   7.994   4.277  1.5215  0.3589  0.2594
34660SOL     OW 6232   5.860   3.120   7.801  0.7296  0.1423  0.2160
34660SOL    HW1 6233   5.799   3.169   7.746 -0.3645 -1.2153  0.1766
34660SOL    HW2 6234   5.922   3.081   7.739  1.7356  1.5700  0.2602
34661SOL     OW 6235  10.019   1.317   0.997  0.5391  0.7638  0.0804
34661SOL    HW1 6236   9.941   1.358   0.960  0.3420  1.3879  1.1481
34661SOL    HW2 6237  10.062   1.275   0.922 -1.4033 -0.5824 -0.3528
34662SOL     OW 6238   5.412   3.764   2.691  0.2599 -0.0314 -0.1021
34662SOL    HW1 6239   5.385   3.682   2.649  0.9037 -0.3878  0.1685
34662SOL    HW2 6240   5.362   3.832   2.645 -2.3810 -0.7844  1.4376
34663SOL     OW 6241   2.145   1.702   5.661  0.0636  0.4246 -0.5465
34663SOL    HW1 6242   2.173   1.681   5.750  2.4146  2.8549 -0.5922
34663SOL    HW2 6243   2.225   1.693   5.608 -0.2887  2.9322 -1.6176
34664SOL     OW 6244   1.641   5.032   3.617 -0.1630 -0.2494 -0.2201
34664SOL    HW1 6245   1.652   5.019   3.523 -0.4775 -0.6987 -0.2000
34664SOL    HW2 6246   1.585   4.959   3.645 -1.8913  1.1027 -0.0464
34665SOL     OW 6247   4.031   9.327   2.462  0.1513  0.1508  0.4013
34665SOL    HW1 6248   3.999   9.332   2.372 -2.3309 -0.9137  1.1413
34665SOL    HW2 6249   4.030   9.234   2.483 -1.4803  0.5061  2.1964
34666SOL     OW 6250   2.481   9.230   3.956 -0.9326  0.6578 -0.2469
34666SOL    HW1 6251   2.441   9.152   3.919  0.7742 -0.4562  0.1399
34666SOL    HW2 6252   2.441   9.240   4.042  1.2423 -1.9304  1.2286
34667SOL     OW 6253   3.249   3.287   3.839  0.3395  0.0190  0.3907
34667SOL    HW1 6254   3.197   3.258   3.914  0.1932  2.0618  1.1602
34667SOL    HW2 6255   3.193   3.352   3.795  0.8513 -0.3651 -0.8873
34668SOL     OW 6256   6.596   8.104   7.880 -0.4017  0.1378  0.3220
34668SOL    HW1 6257   6.560   8.080   7.795  0.9068  2.2002 -0.8937
34668SOL    HW2 6258   6.640   8.025   7.911 -1.9424 -1.0153 -0.2944
34669SOL     OW 6259   8.107   9.584  10.022 -0.3238 -0.0899 -0.2680
34669SOL    HW1 6260   8.036   9.648  10.034 -0.8622 -0.2354 -2.3762
34669SOL    HW2 6261   8.183   9.637   9.999 -0.1390 -0.0612  0.3742
34670SOL     OW 6262  10.322   1.742   2.611 -0.1980 -0.1401  0.0164
34670SOL    HW1 6263  10.406   1.696   2.602 -0.0826  0.1831 -0.5827
34670SOL    HW2 6264  10.327   1.786   2.696 -0.1582 -0.9236  0.4290
34671SOL     OW 6265  10.214   1.333   7.304  0.1719 -0.5595  0.3590
34671SOL    HW1 6266  10.270   1.355   7.230 -0.4142  0.4122  0.1830
34671SOL    HW2 6267  10.159   1.262   7.271 -0.0075 -0.2108 -0.1138
34672SOL     OW 6268   2.097   3.946   1.171  0.0721  0.1590 -0.5969
34672SOL    HW1 6269   2.167   3.933   1.107 -0.4384  1.5578 -1.4587
34672SOL    HW2 6270   2.112   4.033   1.207 -0.6358  0.0547 -0.0169
34673SOL     OW 6271   3.041   4.988   4.894 -0.0415 -0.4685  0.6736
34673SOL    HW1 6272   2.999   5.050   4.953  0.4041  0.5707 -0.0617
34673SOL    HW2 6273   2.984   4.910   4.896 -0.1413 -0.3802  2.2728
34674SOL     OW 6274   7.414  10.554   4.334  0.3030 -0.3100  0.1773
34674SOL    HW1 6275   7.352  10.608   4.384 -1.3633 -0.6341 -1.4573
34674SOL    HW2 6276   7.409  10.468   4.375 -0.6524 -0.4398 -0.1899
34675SOL     OW 6277   8.468   7.491   3.617  0.0157  0.2073  0.0411
34675SOL    HW1 6278   8.495   7.522   3.530  0.6034 -3.2766 -1.1733
34675SOL    HW2 6279   8.408   7.419   3.599  0.7395 -1.1219  2.4935
34676SOL     OW 6280   8.223   6.167   1.998  0.3235 -0.1377 -0.2010
34676SOL    HW1 6281   8.263   6.082   1.982 -0.3154 -0.4255 -0.3217
34676SOL    HW2 6282   8.232   6.214   1.915 -1.0861 -0.8385 -0.7870
34677SOL     OW 6283   7.549   7.845   1.394  0.1127  0.2423  0.3690
34677SOL    HW1 6284   7.460   7.808   1.387 -0.0842  0.7904 -0.0929
34677SOL    HW2 6285   7.606   7.776   1.361 -0.3702  0.8277 -1.8976
34678SOL     OW 6286   4.321   0.903   0.592 -0.1034 -0.2176  0.3171
34678SOL    HW1 6287   4.252   0.843   0.562 -0.3257 -0.2017  0.7848
34678SOL    HW2 6288   4.308   0.982   0.539 -0.6336 -0.1078  0.6012
34679SOL     OW 6289   1.887   9.359   0.695 -0.1199 -0.0323  0.2354
34679SOL    HW1 6290   1.879   9.273   0.736 -0.1616 -0.3874 -0.4916
34679SOL    HW2 6291   1.816   9.410   0.733 -0.4978 -0.5195  0.1949
34680SOL     OW 6292   3.032   8.007   3.740 -0.2962  0.0685  0.0363
34680SOL    HW1 6293   2.938   8.020   3.733 -0.4517 -0.4812  0.9082
34680SOL    HW2 6294   3.046   7.914   3.726 -0.0730 -0.1308  1.3795
34681SOL     OW 6295   1.994   0.723   8.933 -0.2044  0.6539  0.0157
34681SOL    HW1 6296   2.062   0.655   8.931 -0.3611  0.4523  1.0274
34681SOL    HW2 6297   1.992   0.757   8.843  0.4417 -0.1149 -0.3080
34682SOL     OW 6298   3.818  10.459   2.405  0.2299 -0.1300  0.5561
34682SOL    HW1 6299   3.780  10.373   2.423 -0.2765 -0.1840 -0.6616
34682SOL    HW2 6300   3.884  10.471   2.472 -0.1636 -1.1798  1.1463
34683SOL     OW 6301   2.700   8.602   0.020 -0.1813 -0.4215 -0.2035
34683SOL    HW1 6302   2.737   8.689   0.033 -0.3981 -0.5902  1.8290
34683SOL    HW2 6303   2.755   8.544   0.074  0.2150 -1.6460 -1.8287
34684SOL     OW 6304   9.573   6.851   3.134  0.3277 -0.2657  0.1848
34684SOL    HW1 6305   9.487   6.824   3.101 -1.2065  3.3964  0.6993
34684SOL    HW2 6306   9.627   6.860   3.056 -0.6399  0.0256 -0.4686
34685SOL     OW 6307   4.591   4.516   0.622 -0.1646 -0.3820  0.0965
34685SOL    HW1 6308   4.530   4.499   0.694  0.8030 -0.3531  0.9456
34685SOL    HW2 6309   4.676   4.488   0.655  0.6900  1.6497 -0.1800
34686SOL     OW 6310   0.548  10.200   5.509 -0.2680  0.3005  0.0331
34686SOL    HW1 6311   0.596  10.117   5.501 -0.0018  0.6144 -2.3251
34686SOL    HW2 6312   0.477  10.180   5.569  0.8808 -1.0965  1.0201
34687SOL     OW 6313   3.479   4.573   5.653  0.5103  0.1640  0.0928
34687SOL    HW1 6314   3.509   4.493   5.610 -0.5026 -0.7408  1.0384
34687SOL    HW2 6315   3.552   4.598   5.710  0.3318 -0.8069  0.7597
34688SOL     OW 6316   3.131   8.340   7.716  0.1153 -0.3406  0.3062
34688SOL    HW1 6317   3.121   8.399   7.641 -1.3182 -0.3239  0.4817
34688SOL    HW2 6318   3.210   8.370   7.760 -0.1499  0.9585 -0.0582
34689SOL     OW 6319  10.070   7.026   0.080  0.5603  0.4794  0.1116
34689SOL    HW1 6320  10.035   7.084   0.011  1.6110  1.5557  0.4559
34689SOL    HW2 6321  10.094   6.946   0.033  1.6867  1.3617 -0.8945
34690SOL     OW 6322   5.438   2.417   9.190 -0.3596 -0.2416 -0.5973
34690SOL    HW1 6323   5.355   2.464   9.185 -0.5387 -0.1453  1.8200
34690SOL    HW2 6324   5.418   2.330   9.156 -0.9804  0.2992 -1.6704
34691SOL     OW 6325   6.727   4.579   0.426  0.2945  0.1395  0.1401
34691SOL    HW1 6326   6.765   4.528   0.355 -0.8861 -0.4390 -0.1036
34691SOL    HW2 6327   6.643   4.536   0.444  0.1225  0.8791  1.2035
34692SOL     OW 6328   6.158   8.566   0.868 -0.1062 -0.3284 -0.3107
34692SOL    HW1 6329   6.219   8.494   0.852  0.5002  0.2300 -0.5662
34692SOL    HW2 6330   6.155   8.574   0.963  2.4465  1.4484 -0.2742
34693SOL     OW 6331   1.900   0.359   8.315 -0.0977  0.3611 -0.0396
34693SOL    HW1 6332   1.864   0.310   8.241  0.1812  1.6169 -1.0493
34693SOL    HW2 6333   1.859   0.321   8.392  1.4456 -2.6567 -0.5845
34694SOL     OW 6334   6.805  10.434   7.700 -0.2301  0.5924 -0.2993
34694SOL    HW1 6335   6.760  10.452   7.618 -1.3039  1.7590  0.5048
34694SOL    HW2 6336   6.735  10.408   7.761  0.2295  1.8420  0.8081
34695SOL     OW 6337   8.296   5.714   0.908 -0.1685  0.1868  0.2269
34695SOL    HW1 6338   8.360   5.725   0.837  0.7154 -0.8415  0.8256
34695SOL    HW2 6339   8.349   5.715   0.987 -1.1237  1.0840  0.8711
34696SOL     OW 6340   7.719   9.324   2.555 -0.1737  0.2528  0.1617
34696SOL    HW1 6341   7.675   9.240   2.553  0.1149  0.0103  1.9861
34696SOL    HW2 6342   7.762   9.327   2.640  0.3315  1.9924 -0.0975
34697SOL     OW 6343   4.064   9.544   0.539  0.5648 -0.3025 -0.2338
34697SOL    HW1 6344   4.069   9.449   0.526  0.4886 -0.6427  1.9291
34697SOL    HW2 6345   4.145   9.565   0.585  0.7518  0.7593 -1.0324
34698SOL     OW 6346   3.311   5.709   1.460  0.0038 -0.1714  0.6472
34698SOL    HW1 6347   3.367   5.786   1.472  1.1137 -0.5212 -1.7928
34698SOL    HW2 6348   3.234   5.742   1.415  1.1178 -0.6271 -1.7217
34699SOL     OW 6349   7.702   5.134   9.284 -0.4368  0.2686  0.4967
34699SOL    HW1 6350   7.710   5.075   9.208  0.4999 -0.2523  0.9820
34699SOL    HW2 6351   7.780   5.189   9.280  0.1553 -0.4628  1.6550
34700SOL     OW 6352   5.802   5.192   8.220 -0.2500 -0.3901 -0.3653
34700SOL    HW1 6353   5.729   5.131   8.229  0.5953 -1.2821  0.7886
34700SOL    HW2 6354   5.866   5.162   8.286  0.9664  0.6139 -1.0587
34701SOL     OW 6355   1.422   4.352   6.635 -0.1385 -0.2836  0.0012
34701SOL    HW1 6356   1.340   4.365   6.683 -0.2356 -1.2094  0.1068
34701SOL    HW2 6357   1.489   4.390   6.691 -0.3053 -0.9672  0.6755
34702SOL     OW 6358   5.673   6.944   2.649  0.0255  0.0850 -0.5910
34702SOL    HW1 6359   5.734   7.003   2.693 -0.0640 -1.3875  1.7008
34702SOL    HW2 6360   5.599   6.936   2.709 -1.0429 -0.5099 -1.9303
34703SOL     OW 6361   8.959   4.177   5.349 -0.1226  0.8558 -0.3821
34703SOL    HW1 6362   8.879   4.227   5.365 -0.1768  1.1815 -1.6126
34703SOL    HW2 6363   8.972   4.181   5.254  1.1381  0.4687 -0.2466
34704SOL     OW 6364   3.493   0.527   6.919 -0.5799 -0.4960 -0.2360
34704SOL    HW1 6365   3.461   0.444   6.884 -1.0966 -0.9161  1.1896
34704SOL    HW2 6366   3.437   0.545   6.994 -0.6057  1.2541 -0.6300
34705SOL     OW 6367   6.070   1.212   0.560 -0.0278 -0.7633 -0.7151
34705SOL    HW1 6368   6.161   1.234   0.578  0.2185  0.0720 -2.7406
34705SOL    HW2 6369   6.032   1.195   0.647  1.2579  1.9571  0.4998
34706SOL     OW 6370   7.716   5.818   6.281  0.1209  0.4345 -0.5125
34706SOL    HW1 6371   7.806   5.791   6.261 -0.1654 -0.8762 -0.1695
34706SOL    HW2 6372   7.666   5.736   6.280 -1.2026  1.2137 -1.3462
34707SOL     OW 6373   3.225   8.633   8.658  0.2937 -0.2508 -0.3325
34707SOL    HW1 6374   3.309   8.627   8.704  0.5379 -0.4138 -0.8001
34707SOL    HW2 6375   3.216   8.726   8.637  1.5665 -0.5701 -2.5124
34708SOL     OW 6376  10.031   1.702   3.634 -0.1101  0.3731  0.2522
34708SOL    HW1 6377  10.019   1.637   3.565 -0.0195  1.7684 -1.1448
34708SOL    HW2 6378   9.980   1.778   3.604  0.9003  1.4339  1.1213
34709SOL     OW 6379   1.296   1.105   7.448 -0.1252  0.3105  0.2278
34709SOL    HW1 6380   1.297   1.126   7.355 -1.2215  0.6410  0.2729
34709SOL    HW2 6381   1.302   1.010   7.452  0.6280  0.3375 -0.1458
34710SOL     OW 6382   3.159   3.973   9.262  0.2799  0.2335 -0.4002
34710SOL    HW1 6383   3.252   3.962   9.240  0.1064 -1.8227 -0.2581
34710SOL    HW2 6384   3.157   4.053   9.315  1.9301  0.4528 -0.5989
34711SOL     OW 6385   9.832  10.458   4.090 -0.9027  0.4150 -0.5525
34711SOL    HW1 6386   9.847  10.513   4.014  0.3081 -0.0918 -0.6933
34711SOL    HW2 6387   9.740  10.431   4.082 -0.4522 -0.6687 -2.5279
34712SOL     OW 6388   7.040   2.818   3.203  0.1533  0.1340 -0.2791
34712SOL    HW1 6389   6.978   2.776   3.263  0.0066 -0.3118 -0.7325
34712SOL    HW2 6390   7.040   2.761   3.126  1.4904 -0.1495 -0.0951
34713SOL     OW 6391   4.968   0.294   0.922 -0.1221  0.6692 -0.9136
34713SOL    HW1 6392   5.027   0.221   0.903 -0.8505 -0.4001  0.7176
34713SOL    HW2 6393   4.973   0.306   1.016 -0.9762  1.9247 -0.9885
34714SOL     OW 6394   7.274   3.618   0.010 -0.0837 -0.1530  0.5260
34714SOL    HW1 6395   7.370   3.624   0.013 -0.1211  1.0705 -0.0295
34714SOL    HW2 6396   7.256   3.531  -0.025  0.8752  0.2243 -1.0031
34715SOL     OW 6397   9.622   5.629   0.589 -0.2918 -0.0970 -0.2118
34715SOL    HW1 6398   9.670   5.555   0.552  1.6177 -0.3911  2.6045
34715SOL    HW2 6399   9.556   5.590   0.646 -1.4721  0.3971 -1.1758
34716SOL     OW 6400   0.263   6.950   6.501 -0.4137  0.1218  0.5245
34716SOL    HW1 6401   0.227   6.863   6.521  0.0755  0.1011  1.3636
34716SOL    HW2 6402   0.329   6.964   6.569 -0.1727  0.9620  0.1208
34717SOL     OW 6403   1.382   2.955   9.269  0.4844 -0.9617 -0.3401
34717SOL    HW1 6404   1.355   2.941   9.360 -1.2841  1.8630 -0.2995
34717SOL    HW2 6405   1.476   2.936   9.269  0.2458 -2.5635  1.6587
34718SOL     OW 6406   5.187   9.934   9.549  0.3191 -0.1173  0.2449
34718SOL    HW1 6407   5.276   9.939   9.514  0.6583 -1.3018  0.8823
34718SOL    HW2 6408   5.194   9.876   9.625 -1.2308 -1.3095 -0.4546
34719SOL     OW 6409   8.672   6.922   6.169  0.2778  0.6746  0.0193
34719SOL    HW1 6410   8.685   6.914   6.264 -0.8597 -0.8996  0.0804
34719SOL    HW2 6411   8.743   6.870   6.131 -0.6322 -0.6883  0.1094
34720SOL     OW 6412   9.692   1.685   3.131 -0.4296 -0.1139  0.1153
34720SOL    HW1 6413   9.761   1.721   3.186  0.5901 -1.6009 -0.1176
34720SOL    HW2 6414   9.611   1.710   3.175  0.2757  0.8337  0.9340
34721SOL     OW 6415   9.213   7.766   1.567  0.1537  0.2790 -0.3530
34721SOL    HW1 6416   9.236   7.692   1.511 -1.4471 -0.3492 -0.2358
34721SOL    HW2 6417   9.118   7.776   1.555  0.6141  4.1126 -2.5981
34722SOL     OW 6418   7.975  10.006   0.661  0.0676  0.5075  0.3238
34722SOL    HW1 6419   7.964  10.101   0.648 -0.4394  0.3971 -0.0960
34722SOL    HW2 6420   7.894   9.968   0.627  1.8389 -0.4201 -3.4558
34723SOL     OW 6421   8.390   5.092   4.144 -0.2799  0.7785 -0.0663
34723SOL    HW1 6422   8.441   5.082   4.225 -1.0717  0.2520  0.3722
34723SOL    HW2 6423   8.313   5.037   4.156 -1.3337  2.1072 -0.4208
34724SOL     OW 6424   7.602   2.841  10.255  0.5925  0.0053  0.0981
34724SOL    HW1 6425   7.517   2.822  10.293  0.6439  1.1127  0.7988
34724SOL    HW2 6426   7.638   2.912  10.308  1.1682  0.8014 -1.2862
34725SOL     OW 6427   8.666  10.601   2.143 -0.6212  0.2117 -0.4426
34725SOL    HW1 6428   8.715  10.683   2.139  0.3398 -0.3591 -1.0307
34725SOL    HW2 6429   8.707  10.551   2.214 -1.0406  0.1420 -0.2444
34726SOL     OW 6430   8.639   8.175   4.474 -0.0597  0.5564 -0.4825
34726SOL    HW1 6431   8.620   8.082   4.490 -1.2883  1.1769  2.3612
34726SOL    HW2 6432   8.691   8.176   4.394  0.1417 -2.5932 -0.5051
34727SOL     OW 6433   0.451   7.213  10.537  0.2304  0.1081 -1.1047
34727SOL    HW1 6434   0.368   7.168  10.554  0.8722 -0.8322 -0.4318
34727SOL    HW2 6435   0.439   7.299  10.577  0.0531 -0.4863  0.1585
34728SOL     OW 6436   4.388   0.656   6.256 -0.2852 -0.2422  0.2995
34728SOL    HW1 6437   4.323   0.612   6.201 -0.6564  0.8296 -0.1381
34728SOL    HW2 6438   4.472   0.626   6.223 -0.5194 -0.0873 -0.4497
34729SOL     OW 6439   2.750   2.357   6.368 -0.2443  0.3305  0.0620
34729SOL    HW1 6440   2.802   2.436   6.386 -2.7385  1.7725  1.3833
34729SOL    HW2 6441   2.758   2.345   6.273  3.2291 -0.1475  0.2885
34730SOL     OW 6442   9.168   5.461   2.989 -0.3914  0.3811 -0.4718
34730SOL    HW1 6443   9.175   5.448   2.894 -0.1045  0.0459 -0.4079
34730SOL    HW2 6444   9.093   5.407   3.015 -1.3706  1.5881 -0.7106
34731SOL     OW 6445   0.413   1.630   8.699  0.2478 -0.3598  0.5060
34731SOL    HW1 6446   0.400   1.621   8.605  0.1449 -0.2289  0.5063
34731SOL    HW2 6447   0.476   1.702   8.709  1.3976 -1.3367  0.4865
34732SOL     OW 6448   2.957   3.305   8.117 -0.1045  0.2136 -0.4729
34732SOL    HW1 6449   2.987   3.321   8.028  1.0268 -1.2801 -0.3980
34732SOL    HW2 6450   2.959   3.210   8.127 -0.8707  0.3174  0.9270
34733SOL     OW 6451   9.056   0.838   4.956 -0.1502 -0.2723  0.4945
34733SOL    HW1 6452   9.066   0.919   5.005 -2.1470 -0.3111  1.0478
34733SOL    HW2 6453   9.039   0.771   5.022  1.9056 -1.2807  0.0831
34734SOL     OW 6454   4.532   5.629   6.267  0.2736 -0.4710  0.5495
34734SOL    HW1 6455   4.620   5.664   6.280  0.1307  0.5283 -0.9565
34734SOL    HW2 6456   4.539   5.537   6.292  0.8739  0.3264  3.7960
34735SOL     OW 6457   3.046   2.827   5.782 -0.3950  0.1882  0.1414
34735SOL    HW1 6458   3.084   2.866   5.861 -0.1076  0.6171 -0.2014
34735SOL    HW2 6459   3.054   2.732   5.796  0.3645  0.2672  0.2892
34736SOL     OW 6460   1.114   0.953   0.075 -0.2908 -0.0085 -0.4306
34736SOL    HW1 6461   1.130   0.867   0.115 -2.0629 -0.0536  0.2797
34736SOL    HW2 6462   1.199   0.979   0.041  0.6292 -1.3722  0.6689
34737SOL     OW 6463   4.753   0.895   1.378  0.1036  0.5231  0.2718
34737SOL    HW1 6464   4.676   0.878   1.433  0.7603 -0.1658  1.0024
34737SOL    HW2 6465   4.816   0.936   1.436  1.4147 -1.6705  0.5040
34738SOL     OW 6466   9.228   1.878   4.850 -0.4761 -0.5033 -0.6074
34738SOL    HW1 6467   9.308   1.826   4.860 -0.3526 -0.5442 -1.6844
34738SOL    HW2 6468   9.178   1.833   4.782 -1.0641 -0.0471 -0.4909
34739SOL     OW 6469   6.957   7.379   1.570 -0.1161 -0.1591  0.1465
34739SOL    HW1 6470   6.904   7.438   1.623  2.5463  1.4909  1.1617
34739SOL    HW2 6471   7.033   7.431   1.543  0.1997 -1.8521 -2.7391
34740SOL     OW 6472   6.489   6.399   4.327  0.1724 -0.9161 -0.6049
34740SOL    HW1 6473   6.491   6.311   4.291 -0.5492 -1.7072  1.1731
34740SOL    HW2 6474   6.401   6.409   4.362  0.2924  0.4565 -0.6173
34741SOL     OW 6475   3.216  10.319   4.804 -0.3482 -0.1630  0.2977
34741SOL    HW1 6476   3.284  10.376   4.769 -1.1341  0.4009 -0.3587
34741SOL    HW2 6477   3.195  10.259   4.732  0.7340 -1.5728  1.0995
34742SOL     OW 6478   2.549   2.130   0.398  0.2334 -0.7422  0.4511
34742SOL    HW1 6479   2.521   2.041   0.379 -0.3167 -0.3405 -0.6944
34742SOL    HW2 6480   2.634   2.120   0.441  1.0443 -1.7585 -1.2865
34743SOL     OW 6481   3.395   0.976   4.354  0.5437  0.3215 -0.1557
34743SOL    HW1 6482   3.355   0.908   4.300 -0.2136  1.8168 -1.5696
34743SOL    HW2 6483   3.345   0.976   4.435  0.5643 -0.7930 -0.1302
34744SOL     OW 6484   8.917   7.077   0.737 -0.0693 -0.0694 -0.4576
34744SOL    HW1 6485   8.984   7.135   0.700  1.0522  0.2977  1.9334
34744SOL    HW2 6486   8.881   7.126   0.811 -0.7625 -1.5133  0.2055
34745SOL     OW 6487   6.385   6.501   3.259 -0.3786  0.1300 -0.1764
34745SOL    HW1 6488   6.470   6.522   3.221 -0.7983 -1.2276 -1.9990
34745SOL    HW2 6489   6.382   6.405   3.261 -2.2083  0.1180 -1.0327
34746SOL     OW 6490   4.732   8.940   9.500 -0.0578  0.2303 -0.2094
34746SOL    HW1 6491   4.648   8.897   9.511 -0.1821  0.7185  0.9504
34746SOL    HW2 6492   4.711   9.028   9.469  0.1172 -0.0641 -1.2064
34747SOL     OW 6493   4.649  10.435   2.121  0.1254 -0.7183 -0.3384
34747SOL    HW1 6494   4.663  10.505   2.057  0.2455 -0.3776  0.0610
34747SOL    HW2 6495   4.579  10.382   2.083  0.3361 -0.6375 -0.8530
34748SOL     OW 6496   4.488   4.952   3.184 -0.1754  0.0351  0.3289
34748SOL    HW1 6497   4.466   4.868   3.224 -0.9224 -0.7036 -1.5090
34748SOL    HW2 6498   4.581   4.946   3.164  0.4837  0.8305  2.7680
34749SOL     OW 6499   1.665   0.726   5.745  0.3966 -0.0230  0.1222
34749SOL    HW1 6500   1.693   0.766   5.662 -0.9605  0.6086 -0.0519
34749SOL    HW2 6501   1.697   0.636   5.740  1.3678  0.3454 -0.5584
34750SOL     OW 6502   2.411   2.291   6.343  0.4501  0.0553  0.1914
34750SOL    HW1 6503   2.460   2.298   6.261  0.4582 -1.8212 -0.0033
34750SOL    HW2 6504   2.363   2.209   6.335  0.7628 -0.3740  2.2266
34751SOL     OW 6505   5.251   9.615   5.944 -0.0885 -0.2493 -0.3811
34751SOL    HW1 6506   5.209   9.543   5.991 -0.3694  0.1375 -0.0372
34751SOL    HW2 6507   5.339   9.620   5.982 -0.0766 -0.3867 -0.3876
34752SOL     OW 6508   2.510   8.219   8.229 -0.2084  0.7025  0.1913
34752SOL    HW1 6509   2.441   8.170   8.183 -2.2991  2.6982  1.0638
34752SOL    HW2 6510   2.550   8.273   8.160 -1.3067  1.4564  0.1149
34753SOL     OW 6511  10.065   7.254   6.581 -0.1984 -0.1045 -0.4490
34753SOL    HW1 6512   9.983   7.248   6.533 -1.0020  1.8687  0.5717
34753SOL    HW2 6513  10.097   7.342   6.565  0.6218 -0.1240  0.8750
34754SOL     OW 6514   8.179   6.655   0.384  0.2542  0.3966  0.1719
34754SOL    HW1 6515   8.239   6.685   0.316 -1.4634  0.8177 -1.2617
34754SOL    HW2 6516   8.127   6.587   0.341  1.1775 -1.6428  2.0638
34755SOL     OW 6517   3.539   4.543  10.177 -0.0230  0.1164  0.2388
34755SOL    HW1 6518   3.498   4.457  10.192 -0.3063 -0.1935 -1.9734
34755SOL    HW2 6519   3.540   4.552  10.082  0.6178  2.2978  0.4151
34756SOL     OW 6520   3.598   3.907   6.155 -0.2043  0.3609  0.1229
34756SOL    HW1 6521   3.642   3.969   6.213  1.0659  0.7183 -1.1716
34756SOL    HW2 6522   3.507   3.935   6.154 -0.1108  0.7649  1.3773
34757SOL     OW 6523   0.024   8.427   9.745 -0.4076  0.2712 -0.2887
34757SOL    HW1 6524   0.043   8.513   9.708  1.0366  0.4237  0.7229
34757SOL    HW2 6525   0.107   8.380   9.742 -0.6765 -0.3493  1.0407
34758SOL     OW 6526   6.931   9.503   1.448  0.5044  0.1378  0.4478
34758SOL    HW1 6527   6.922   9.442   1.521  1.5988 -0.5293  0.0425
34758SOL    HW2 6528   7.021   9.533   1.453 -0.5692  3.5939  2.0446
34759SOL     OW 6529   9.449   2.665   0.714  0.3024  0.3976  0.2104
34759SOL    HW1 6530   9.392   2.705   0.780  0.4422 -1.7775  1.7273
34759SOL    HW2 6531   9.538   2.679   0.747  0.4398  0.3489 -0.1358
34760SOL     OW 6532   6.881   9.360   1.196 -0.0694 -0.1363  0.1800
34760SOL    HW1 6533   6.894   9.386   1.287  1.6506  0.9359 -0.3302
34760SOL    HW2 6534   6.882   9.441   1.146 -3.7605 -0.4098 -0.6149
34761SOL     OW 6535   4.855   0.393   4.465  0.1303  0.1410 -0.5284
34761SOL    HW1 6536   4.779   0.449   4.449  0.7579  1.1104 -0.1888
34761SOL    HW2 6537   4.879   0.360   4.378  0.1724  0.9545 -0.8346
34762SOL     OW 6538   8.966   6.117   4.671 -0.6771 -0.5175 -0.3903
34762SOL    HW1 6539   8.976   6.055   4.743  0.8418 -1.2624 -1.2202
34762SOL    HW2 6540   8.988   6.068   4.593 -3.0642  0.0556 -1.5126
34763SOL     OW 6541   2.621   8.635   4.148  0.1832 -0.2194  0.1669
34763SOL    HW1 6542   2.661   8.709   4.102  0.7811 -1.1525 -0.8659
34763SOL    HW2 6543   2.619   8.565   4.083  2.7415 -2.2024  1.9983
34764SOL     OW 6544   9.857   6.689   2.389 -0.2235  0.2717  0.2950
34764SOL    HW1 6545   9.767   6.717   2.368 -0.3527  0.2041  0.7419
34764SOL    HW2 6546   9.847   6.633   2.466  0.1393 -0.2566 -0.0458
34765SOL     OW 6547  10.308   9.975   4.213 -0.3954 -0.8474 -0.4072
34765SOL    HW1 6548  10.294  10.066   4.238 -2.0962 -0.9340 -0.8828
34765SOL    HW2 6549  10.341   9.980   4.123 -0.9735 -0.6961 -0.6162
34766SOL     OW 6550   5.865   4.468   6.969  0.4548  0.0370 -0.1974
34766SOL    HW1 6551   5.933   4.496   6.908  0.4160 -1.5492 -1.0011
34766SOL    HW2 6552   5.903   4.393   7.015 -0.6727 -0.7670 -0.5387
34767SOL     OW 6553   2.529   9.498   4.336  0.4281  0.2432  0.5658
34767SOL    HW1 6554   2.582   9.524   4.411  1.7644  0.7911 -0.5245
34767SOL    HW2 6555   2.588   9.504   4.261 -0.6118 -1.1716 -0.4298
34768SOL     OW 6556   3.307   0.809   3.864 -0.0880 -0.6843 -0.9904
34768SOL    HW1 6557   3.383   0.867   3.860  0.6028 -1.5304 -0.4934
34768SOL    HW2 6558   3.288   0.801   3.957 -0.3806 -0.9931 -1.0757
34769SOL     OW 6559   5.211   0.880   9.117  0.2931 -0.5618 -0.6115
34769SOL    HW1 6560   5.125   0.861   9.154  0.8993  1.8899  2.5295
34769SOL    HW2 6561   5.266   0.807   9.147 -0.1766 -0.8950 -0.5374
34770SOL     OW 6562   6.341   2.614   5.744 -0.0232 -0.6649  0.6403
34770SOL    HW1 6563   6.374   2.560   5.673 -1.8739 -0.3317 -0.5183
34770SOL    HW2 6564   6.340   2.556   5.820  1.3905 -1.1957  0.2822
34771SOL     OW 6565   6.916   9.520   0.459 -0.0516 -0.1199 -0.2189
34771SOL    HW1 6566   6.864   9.559   0.529  0.3240  0.2388 -0.1338
34771SOL    HW2 6567   7.005   9.549   0.477  0.2756 -1.2098 -0.0333
34772SOL     OW 6568   8.432   9.448   3.595 -0.6820  0.2430  0.1607
34772SOL    HW1 6569   8.436   9.353   3.591  2.5949  0.2996 -2.2823
34772SOL    HW2 6570   8.513   9.474   3.640  0.8411  1.7903 -3.1230
34773SOL     OW 6571   3.505   8.979   7.629 -0.3029  0.2109  0.1837
34773SOL    HW1 6572   3.549   9.060   7.604  0.2700 -0.1450  0.0252
34773SOL    HW2 6573   3.455   8.954   7.551 -1.0281  0.7577  0.4522
34774SOL     OW 6574   4.460   1.837   2.411 -0.6823  0.5764 -0.0344
34774SOL    HW1 6575   4.409   1.756   2.418 -1.1947  0.7685 -1.3473
34774SOL    HW2 6576   4.458   1.859   2.318 -0.2381  1.9045  0.2499
34775SOL     OW 6577   7.767   0.079   6.820  0.0405 -0.4181  0.0128
34775SOL    HW1 6578   7.830   0.036   6.878  0.3502 -1.7654 -1.2865
34775SOL    HW2 6579   7.728   0.008   6.769 -1.4363  0.5609 -0.2787
34776SOL     OW 6580   8.676   4.251   7.123  0.8858  0.0019  0.1021
34776SOL    HW1 6581   8.602   4.255   7.063  0.1366  0.6234  1.0286
34776SOL    HW2 6582   8.699   4.158   7.126  1.1612 -0.0062 -1.3738
34777SOL     OW 6583   7.783   5.703   7.457  0.4358 -0.0230 -0.0642
34777SOL    HW1 6584   7.765   5.616   7.421 -1.4946 -0.3397  1.5108
34777SOL    HW2 6585   7.697   5.737   7.481  1.5018  0.1330  4.2104
34778SOL     OW 6586   2.125   6.124   0.707 -0.0477  0.4553  1.1544
34778SOL    HW1 6587   2.054   6.060   0.698  1.8558 -1.7997  1.1444
34778SOL    HW2 6588   2.098   6.180   0.780 -1.6283 -0.6331  1.4472
34779SOL     OW 6589   3.571   3.704   4.771 -0.1791 -0.2362  0.4195
34779SOL    HW1 6590   3.650   3.689   4.719  0.2074  1.3158  0.5040
34779SOL    HW2 6591   3.515   3.628   4.752  1.4064 -1.4938  0.5365
34780SOL     OW 6592   5.630   5.804   7.142 -0.2958 -0.3616  0.0294
34780SOL    HW1 6593   5.681   5.729   7.111  2.0395  1.1367 -0.0778
34780SOL    HW2 6594   5.694   5.875   7.147 -1.9088  1.0615  2.3463
34781SOL     OW 6595   5.901   5.493   4.696  0.0691  0.2798 -0.5979
34781SOL    HW1 6596   5.873   5.473   4.786  0.3420 -0.5311 -0.6827
34781SOL    HW2 6597   5.849   5.434   4.641  0.7494 -0.0752 -0.8754
34782SOL     OW 6598   7.408   8.878   6.467 -0.2692 -0.1271  0.0046
34782SOL    HW1 6599   7.454   8.954   6.432 -1.1400 -0.1862 -1.3351
34782SOL    HW2 6600   7.476   8.827   6.511  0.5705  0.7406 -0.2533
34783SOL     OW 6601   3.996   4.508   5.535  0.0439 -0.4947  0.4367
34783SOL    HW1 6602   3.944   4.437   5.573 -2.0835  0.2599 -0.8709
34783SOL    HW2 6603   4.027   4.472   5.452 -0.0897 -0.2698  0.2906
34784SOL     OW 6604   9.990   2.134   4.494  0.2956 -0.0797  0.4482
34784SOL    HW1 6605   9.936   2.154   4.570  0.0530 -0.3621  0.3572
34784SOL    HW2 6606   9.944   2.060   4.452 -0.4564  1.0757 -0.8575
34785SOL     OW 6607  10.254   7.457   2.886 -0.1288  0.0785 -0.2948
34785SOL    HW1 6608  10.272   7.400   2.811 -1.4187  0.9951 -1.3402
34785SOL    HW2 6609  10.339   7.467   2.929  1.0531  0.9405 -2.6575
34786SOL     OW 6610  10.345   2.489   1.086 -0.1437  0.1483  0.6382
34786SOL    HW1 6611  10.402   2.539   1.028 -0.3926 -0.6876 -0.3787
34786SOL    HW2 6612  10.258   2.528   1.073  0.2214  1.7053  2.5146
34787SOL     OW 6613   7.106   1.041   5.123  0.3751  0.0669  0.3259
34787SOL    HW1 6614   7.048   1.090   5.065 -0.2984  0.0003  0.9215
34787SOL    HW2 6615   7.175   1.104   5.146  0.8652 -0.0226 -0.8255
34788SOL     OW 6616   4.875   1.956   7.164  0.0396 -0.1285 -1.1826
34788SOL    HW1 6617   4.841   1.988   7.248  1.8828  0.2240 -0.5129
34788SOL    HW2 6618   4.808   1.978   7.100 -0.3142  1.9061 -0.1755
34789SOL     OW 6619   8.191   0.837   9.441 -0.0423 -0.1793  0.2165
34789SOL    HW1 6620   8.157   0.841   9.352  3.4987 -2.3497 -1.4797
34789SOL    HW2 6621   8.231   0.923   9.456  1.5613 -0.5841 -1.4145
34790SOL     OW 6622   7.377  10.608   9.851 -0.2517  0.3561  0.3066
34790SOL    HW1 6623   7.291  10.643   9.871 -0.5692  0.0706 -0.5400
34790SOL    HW2 6624   7.362  10.516   9.830  0.2559  0.3018  0.1522
34791SOL     OW 6625   4.499   2.116   4.725 -0.5725  0.0377 -0.4086
34791SOL    HW1 6626   4.425   2.174   4.742 -0.8639  0.4263 -2.5916
34791SOL    HW2 6627   4.569   2.174   4.695  0.9662 -0.2352  2.3311
34792SOL     OW 6628   9.939  10.311   0.693  0.4826  0.6845  0.0047
34792SOL    HW1 6629   9.844  10.310   0.704  0.4132  0.0715 -0.5942
34792SOL    HW2 6630   9.973  10.300   0.781  0.0520  3.5031  0.6148
34793SOL     OW 6631   7.116   6.456   5.345  0.6925  0.2011  0.0327
34793SOL    HW1 6632   7.056   6.384   5.325  1.0788  0.2423 -1.3739
34793SOL    HW2 6633   7.071   6.506   5.413  0.2012 -1.0801  0.6909
34794SOL     OW 6634   0.811   3.839   8.453  0.1900 -0.6634 -0.5811
34794SOL    HW1 6635   0.870   3.876   8.388  0.5037  0.2335  0.1918
34794SOL    HW2 6636   0.817   3.744   8.440  1.0681 -0.5366 -1.1387
34795SOL     OW 6637   6.361   0.366   0.560  0.0028 -0.1595  0.5099
34795SOL    HW1 6638   6.374   0.313   0.639  0.4376  0.0903  0.6062
34795SOL    HW2 6639   6.270   0.394   0.565 -0.2026 -0.7988  0.5209
34796SOL     OW 6640   8.165   6.495   7.804  0.0965  0.1324 -0.1252
34796SOL    HW1 6641   8.122   6.558   7.747  0.5011  0.5248  0.0013
34796SOL    HW2 6642   8.101   6.477   7.873 -0.1417  0.1556 -0.3376
34797SOL     OW 6643   6.421   9.536   1.644  0.3172 -0.4825  0.2217
34797SOL    HW1 6644   6.405   9.523   1.551  1.7687 -1.3815  0.0741
34797SOL    HW2 6645   6.387   9.456   1.685  1.5201 -1.0052  0.2298
34798SOL     OW 6646   7.209   1.010   1.545 -0.1852 -0.0129  0.0643
34798SOL    HW1 6647   7.304   1.020   1.548 -0.3578  1.8569  0.8916
34798SOL    HW2 6648   7.184   0.988   1.635 -0.5805  0.1478 -0.0003
34799SOL     OW 6649   2.915   1.939   4.606  0.1238  0.3174 -0.2831
34799SOL    HW1 6650   2.875   1.867   4.558  3.3933 -1.7581 -0.2031
34799SOL    HW2 6651   2.971   1.983   4.542  0.7705  0.6153  0.4610
34800SOL     OW 6652   1.115   1.572  10.095  0.2410  0.1240  0.7715
34800SOL    HW1 6653   1.149   1.485  10.117 -0.2758  0.2730  2.2605
34800SOL    HW2 6654   1.060   1.596  10.170 -0.7780  1.1305 -0.2706
34801SOL     OW 6655   3.421   5.633   6.521  0.0446 -0.2585 -0.2145
34801SOL    HW1 6656   3.407   5.687   6.599  0.5543  1.4423 -1.2438
34801SOL    HW2 6657   3.478   5.562   6.551 -0.5310 -0.1751  1.1507
34802SOL     OW 6658   7.589   4.721   2.598  0.1866  0.3088 -0.6581
34802SOL    HW1 6659   7.522   4.672   2.550 -0.1438  0.0282  0.0801
34802SOL    HW2 6660   7.671   4.676   2.577  0.0565  0.2377 -1.0223
34803SOL     OW 6661   6.206   0.977   3.837 -0.2555  0.5267  0.6303
34803SOL    HW1 6662   6.191   1.063   3.797 -2.2027 -0.5543 -1.2127
34803SOL    HW2 6663   6.244   0.925   3.767 -0.6676 -0.5592  1.1930
34804SOL     OW 6664   2.828   3.748   6.578  0.2286  0.6856 -0.0274
34804SOL    HW1 6665   2.841   3.782   6.666  0.2368  0.3236  0.1163
34804SOL    HW2 6666   2.733   3.742   6.569  0.2408 -0.4732  0.4394
34805SOL     OW 6667   2.042   1.692   1.830 -0.3092  0.5067 -0.2556
34805SOL    HW1 6668   2.017   1.672   1.920 -1.1951 -0.8203 -0.7490
34805SOL    HW2 6669   2.009   1.617   1.780  1.0903  0.7137 -1.5362
34806SOL     OW 6670   7.073  10.554   5.325  0.2845 -0.5601 -0.6357
34806SOL    HW1 6671   7.033  10.469   5.347  0.1227 -0.0785  1.0104
34806SOL    HW2 6672   7.167  10.538   5.329  0.2695 -0.3853  0.9224
34807SOL     OW 6673   0.633  10.154   3.659 -0.1794  0.0276  0.4477
34807SOL    HW1 6674   0.613  10.151   3.566 -1.3275 -0.3457  0.7000
34807SOL    HW2 6675   0.575  10.222   3.694 -0.3918 -0.4491  1.0353
34808SOL     OW 6676   3.748   4.373   0.794  0.4662 -0.5534 -0.1963
34808SOL    HW1 6677   3.682   4.309   0.819 -0.2903  0.7159  1.2362
34808SOL    HW2 6678   3.722   4.453   0.840  2.9236  0.0194  0.3268
34809SOL     OW 6679   6.649   9.994  10.472  0.1386  0.5046  0.1630
34809SOL    HW1 6680   6.688   9.912  10.504 -0.5643  0.3873  0.7437
34809SOL    HW2 6681   6.611   9.970  10.387  0.6033  0.4183 -0.0214
34810SOL     OW 6682  10.248   6.896   4.601  0.2203 -0.0663 -0.4391
34810SOL    HW1 6683  10.314   6.870   4.537  0.0389 -2.2178  0.1918
34810SOL    HW2 6684  10.292   6.889   4.686 -0.3875 -0.0511 -0.1179
34811SOL     OW 6685   2.746   4.076   9.699 -0.4383 -0.0672 -0.4917
34811SOL    HW1 6686   2.831   4.090   9.739 -0.8130 -0.4375  0.4569
34811SOL    HW2 6687   2.703   4.010   9.753 -1.1122 -0.3047 -1.2839
34812SOL     OW 6688   0.865   7.022   1.713  0.6343 -0.0601  0.3068
34812SOL    HW1 6689   0.948   7.070   1.717  0.7598 -0.1433 -0.9133
34812SOL    HW2 6690   0.801   7.082   1.752  1.1518  0.2634  0.6719
34813SOL     OW 6691   9.657   5.559   1.249  0.9431 -0.2194 -0.3374
34813SOL    HW1 6692   9.681   5.613   1.174  2.3070 -0.5891 -0.2104
34813SOL    HW2 6693   9.741   5.541   1.292  0.5439 -2.4041 -0.3594
34814SOL     OW 6694   5.208   0.374   2.549  0.1249  0.2480 -0.4956
34814SOL    HW1 6695   5.201   0.279   2.545 -2.2595  0.4079 -1.4245
34814SOL    HW2 6696   5.250   0.392   2.634 -1.5335 -1.5676  0.7845
34815SOL     OW 6697   7.555   8.275   1.152 -0.3478  0.5858 -0.0163
34815SOL    HW1 6698   7.606   8.194   1.154  0.3342  0.9170 -2.1948
34815SOL    HW2 6699   7.465   8.247   1.167 -0.1918 -0.6573 -1.2240
34816SOL     OW 6700   1.159   5.298   0.255  0.2572  0.3401 -0.1406
34816SOL    HW1 6701   1.164   5.204   0.272 -0.4441  0.1545 -0.8839
34816SOL    HW2 6702   1.217   5.337   0.320  0.7700 -0.6246  0.0076
34817SOL     OW 6703   1.078   7.035   8.430  0.4736 -0.0424  0.3738
34817SOL    HW1 6704   1.059   6.974   8.501  1.3540 -0.0854  0.5881
34817SOL    HW2 6705   1.070   7.121   8.470  1.8443 -0.0797  0.7830
34818SOL     OW 6706  10.212   3.724   9.050  0.7711  0.0312  0.0190
34818SOL    HW1 6707  10.180   3.660   9.114  0.2945  0.1104 -0.1360
34818SOL    HW2 6708  10.140   3.733   8.988  1.5594 -0.7300 -1.0429
34819SOL     OW 6709   6.170   0.119   6.037  0.7000 -0.6433  0.1855
34819SOL    HW1 6710   6.248   0.063   6.035  1.6117  0.5280  1.4486
34819SOL    HW2 6711   6.182   0.175   6.113 -0.2701  1.1568 -0.9183
34820SOL     OW 6712   6.481   0.753   3.699 -0.5167 -0.0433 -0.4465
34820SOL    HW1 6713   6.407   0.734   3.642 -0.6592 -0.1319 -0.2321
34820SOL    HW2 6714   6.544   0.683   3.681 -0.2940  0.2812 -0.9551
34821SOL     OW 6715   4.742   2.904   3.912  0.2190  0.0235 -0.6391
34821SOL    HW1 6716   4.776   2.958   3.984 -2.4012  0.1872  0.6159
34821SOL    HW2 6717   4.714   2.968   3.846 -1.6089  0.2402  0.2589
34822SOL     OW 6718   1.750   4.861   6.995  0.3773 -0.0378 -0.0914
34822SOL    HW1 6719   1.833   4.876   7.040  0.7908  0.8019 -1.0970
34822SOL    HW2 6720   1.690   4.831   7.063  1.0505  0.9537  0.9538
34823SOL     OW 6721   2.433   8.748   1.739  0.2902 -0.0238  0.0873
34823SOL    HW1 6722   2.364   8.686   1.718  0.8114  0.0939 -2.3212
34823SOL    HW2 6723   2.497   8.698   1.789  0.7185 -1.5306 -1.8253
34824SOL     OW 6724  10.479   3.798  10.232 -0.2286  0.4843  0.4325
34824SOL    HW1 6725  10.407   3.861  10.235 -0.5902  0.0529  1.1520
34824SOL    HW2 6726  10.540   3.829  10.299 -0.7934 -0.3742  1.3604
34825SOL     OW 6727   6.691   9.197   1.494 -0.0715 -0.4352 -0.1835
34825SOL    HW1 6728   6.628   9.178   1.424 -1.0399  1.1450  0.2256
34825SOL    HW2 6729   6.696   9.116   1.544 -1.8852 -0.5771 -0.1624
34826SOL     OW 6730   6.354   4.224   0.602 -0.0808 -0.4230  0.5353
34826SOL    HW1 6731   6.406   4.149   0.571 -0.7713 -0.5392 -0.3682
34826SOL    HW2 6732   6.267   4.188   0.618 -0.2147  0.0342  0.8579
34827SOL     OW 6733   6.247   9.028   3.422  0.5858 -0.5354 -0.1065
34827SOL    HW1 6734   6.242   9.121   3.444  1.7671 -0.7656  1.2776
34827SOL    HW2 6735   6.217   8.982   3.500 -1.0616 -1.3523 -1.1484
34828SOL     OW 6736  10.648   1.675   9.750 -0.2296  0.8405 -0.8057
34828SOL    HW1 6737  10.740   1.681   9.775 -0.6995  1.4053  0.9022
34828SOL    HW2 6738  10.643   1.717   9.664  1.3592 -0.6512 -1.6754
34829SOL     OW 6739   5.736   2.607   6.846  0.0058 -0.0241  0.9866
34829SOL    HW1 6740   5.767   2.517   6.834  0.3858 -0.1502  2.6792
34829SOL    HW2 6741   5.799   2.661   6.799  1.5268 -0.4474  2.4412
34830SOL     OW 6742   6.952   0.204   1.018  0.1296  0.2353  0.0662
34830SOL    HW1 6743   6.992   0.270   1.074  2.1556 -0.2905 -0.7066
34830SOL    HW2 6744   6.932   0.132   1.078  1.7747 -0.1024  0.2487
34831SOL     OW 6745   8.558   5.788   1.294 -0.7551  0.0739 -0.2988
34831SOL    HW1 6746   8.564   5.748   1.207 -0.8755  1.1589 -0.8181
34831SOL    HW2 6747   8.647   5.820   1.311 -0.8510  0.3095 -0.2401
34832SOL     OW 6748   1.006   9.984   8.063 -0.3990  0.0707  0.4114
34832SOL    HW1 6749   0.938  10.039   8.101 -0.6677 -0.2115  0.3428
34832SOL    HW2 6750   0.979   9.894   8.083  0.5019 -0.0144  1.3193
34833SOL     OW 6751   1.785   5.343   9.568 -0.2147  0.1710 -0.2513
34833SOL    HW1 6752   1.825   5.256   9.570 -1.5226 -0.4545 -0.0396
34833SOL    HW2 6753   1.775   5.363   9.475 -2.9945 -1.4527 -0.4244
34834SOL     OW 6754   2.100   9.094   2.021  0.0318  0.4610  0.4905
34834SOL    HW1 6755   2.174   9.153   2.012  0.7750 -0.5197 -0.0155
34834SOL    HW2 6756   2.024   9.146   1.994  0.8393  0.7906 -1.3016
34835SOL     OW 6757   8.528   0.009   9.357 -0.0784 -0.0802  0.3208
34835SOL    HW1 6758   8.453  -0.050   9.353  0.2774 -0.5280  0.1164
34835SOL    HW2 6759   8.601  -0.043   9.321  0.5888 -0.0650  1.6040
34836SOL     OW 6760   6.384   7.030   8.302 -0.0171 -0.8019 -0.6296
34836SOL    HW1 6761   6.391   6.987   8.387  0.6628 -0.6229 -0.5866
34836SOL    HW2 6762   6.473   7.025   8.266  0.1122  0.6726 -0.5743
34837SOL     OW 6763   6.069   8.653   0.098 -0.1068  0.0223  0.0830
34837SOL    HW1 6764   6.134   8.587   0.072  1.1977  1.0954  0.4864
34837SOL    HW2 6765   6.085   8.726   0.039 -1.8011 -0.1465 -0.6179
34838SOL     OW 6766  10.354   3.501   9.239  0.5460  0.0154  0.0634
34838SOL    HW1 6767  10.359   3.435   9.170 -0.4763 -1.8322  1.6385
34838SOL    HW2 6768  10.260   3.513   9.254  0.7370  1.2372  0.3478
34839SOL     OW 6769   0.210   6.465   6.477 -0.4675  0.1069  0.0688
34839SOL    HW1 6770   0.269   6.474   6.402 -0.7076  1.8562  0.0551
34839SOL    HW2 6771   0.166   6.550   6.483 -3.8745 -1.4196 -0.6395
34840SOL     OW 6772   6.619   0.021   1.034 -0.7467 -0.6562 -0.1106
34840SOL    HW1 6773   6.696   0.003   1.088 -1.4198 -4.4364 -0.1822
34840SOL    HW2 6774   6.647   0.001   0.944 -0.4288  3.0315 -1.0195
34841SOL     OW 6775   5.755   2.541   2.691 -0.6313  0.2841  0.2002
34841SOL    HW1 6776   5.687   2.564   2.626 -0.7198 -0.3041  0.0810
34841SOL    HW2 6777   5.754   2.613   2.753 -0.7904  0.6886 -0.2642
34842SOL     OW 6778   3.825   1.574   9.373 -0.2343 -0.0885  0.2642
34842SOL    HW1 6779   3.858   1.664   9.379  1.5350 -0.6845 -0.1126
34842SOL    HW2 6780   3.903   1.519   9.383 -0.5716 -1.5556 -3.5837
34843SOL     OW 6781   3.462  10.620   7.843 -0.1725 -0.5275  0.5277
34843SOL    HW1 6782   3.548  10.620   7.800 -0.4060 -1.4035  0.0334
34843SOL    HW2 6783   3.476  10.571   7.924 -0.1509 -0.4666  0.5605
34844SOL     OW 6784   1.251   4.179  10.105 -0.0211 -0.3739 -0.2562
34844SOL    HW1 6785   1.172   4.233  10.101  0.8679  0.9349 -0.9868
34844SOL    HW2 6786   1.221   4.091  10.083 -1.4611 -0.1378  0.6306
34845SOL     OW 6787   2.513   3.860   6.340 -0.1233  0.3491  0.1963
34845SOL    HW1 6788   2.488   3.948   6.311 -0.6270  0.1101 -0.1109
34845SOL    HW2 6789   2.519   3.866   6.435  1.4524  1.1256  0.0928
34846SOL     OW 6790   2.294   4.887   7.235 -0.2325  0.1573 -0.0581
34846SOL    HW1 6791   2.295   4.820   7.167 -1.6018 -0.9841  0.9661
34846SOL    HW2 6792   2.312   4.969   7.189 -2.2888 -0.3905 -2.0372
34847SOL     OW 6793   7.085   3.802   7.781  0.5948  0.1869 -0.2806
34847SOL    HW1 6794   7.120   3.724   7.823  0.0115 -0.5816 -1.1778
34847SOL    HW2 6795   7.058   3.859   7.853  2.1668  0.1132  0.4043
34848SOL     OW 6796   7.807   2.822   3.862  0.0470 -0.2170 -0.6305
34848SOL    HW1 6797   7.736   2.824   3.926  1.5055 -0.6229  1.0672
34848SOL    HW2 6798   7.765   2.797   3.780 -1.9364  0.6390  0.0693
34849SOL     OW 6799   8.777  10.100   2.518  0.2692  0.0846  0.3833
34849SOL    HW1 6800   8.724  10.027   2.485  0.8117  0.5066 -1.5439
34849SOL    HW2 6801   8.713  10.163   2.551 -0.5004  0.6144 -1.9478
34850SOL     OW 6802   7.464   8.686   6.836  0.3170 -0.6428 -0.0103
34850SOL    HW1 6803   7.490   8.693   6.744  1.2438 -0.2051  0.2851
34850SOL    HW2 6804   7.381   8.638   6.833 -0.8858  1.3837 -1.2622
34851SOL     OW 6805   4.040   1.390   7.170 -0.1932 -0.7888 -0.7987
34851SOL    HW1 6806   4.086   1.307   7.182 -0.7602 -0.7769  2.6342
34851SOL    HW2 6807   3.947   1.367   7.182 -0.4802  0.1291 -1.2134
34852SOL     OW 6808   0.403   1.331   4.843  0.2154  0.1730 -0.0626
34852SOL    HW1 6809   0.411   1.262   4.909 -3.3725 -0.7836 -0.4389
34852SOL    HW2 6810   0.349   1.293   4.775  1.4839  2.1004 -2.2806
34853SOL     OW 6811   2.133   8.995   8.475  0.2815  0.2266  0.0759
34853SOL    HW1 6812   2.071   8.923   8.484 -0.8918  1.1051 -0.8539
34853SOL    HW2 6813   2.080   9.074   8.480  1.5487  1.0645  1.0650
34854SOL     OW 6814   3.096   5.577   1.668  0.0932 -0.8630 -0.0261
34854SOL    HW1 6815   3.018   5.611   1.712  0.6606  0.1078  0.2597
34854SOL    HW2 6816   3.169   5.625   1.707  0.6580 -0.2525 -1.7342
34855SOL     OW 6817   2.802   8.778   6.492  0.9262  0.5961  0.1764
34855SOL    HW1 6818   2.854   8.721   6.549 -2.3498 -1.1222  1.7248
34855SOL    HW2 6819   2.766   8.844   6.551 -0.0957  0.6189 -0.4354
34856SOL     OW 6820   2.897   2.492   2.894 -0.4689  0.0413 -0.3733
34856SOL    HW1 6821   2.953   2.461   2.822 -1.6516  0.0739 -1.3363
34856SOL    HW2 6822   2.912   2.429   2.964  3.0148  1.6618  0.5535
34857SOL     OW 6823   4.993   6.768   6.571  0.3908 -0.1544  0.3188
34857SOL    HW1 6824   5.008   6.723   6.654 -0.3901  0.3977  0.7704
34857SOL    HW2 6825   4.992   6.698   6.506  0.1820 -0.6860  0.8854
34858SOL     OW 6826   8.261   1.261   4.671  0.3109 -0.7137  0.1997
34858SOL    HW1 6827   8.177   1.217   4.681 -0.5502  0.2469 -2.1979
34858SOL    HW2 6828   8.314   1.202   4.618  0.5033 -0.5139  0.1646
34859SOL     OW 6829   4.998   3.305   5.428  0.0380  0.1610  0.4513
34859SOL    HW1 6830   4.920   3.348   5.463  0.6570  1.9632 -0.2503
34859SOL    HW2 6831   5.065   3.317   5.495 -0.0510 -0.6852  0.7073
34860SOL     OW 6832   1.136  10.243   8.481  0.2305 -0.1178  0.3393
34860SOL    HW1 6833   1.130  10.221   8.574 -0.8356 -0.6358  0.1595
34860SOL    HW2 6834   1.168  10.164   8.439 -1.2122 -0.5702  0.0227
34861SOL     OW 6835   3.651   9.966   0.399  0.8283  0.4827  0.1656
34861SOL    HW1 6836   3.657   9.899   0.467 -0.0925 -0.2738 -0.4746
34861SOL    HW2 6837   3.689  10.044   0.439  1.6101 -0.3273  1.0428
34862SOL     OW 6838   9.958   2.765   9.496  0.1071 -0.7156 -0.7491
34862SOL    HW1 6839   9.955   2.699   9.427  0.4144 -2.1626  0.5648
34862SOL    HW2 6840  10.044   2.753   9.537 -1.2100 -2.0891  1.8915
34863SOL     OW 6841   6.466   9.017   8.559 -0.3090  0.1844 -0.1096
34863SOL    HW1 6842   6.525   9.064   8.499  0.3703  0.1484  0.5197
34863SOL    HW2 6843   6.483   9.056   8.645  0.8360 -1.6881  0.5694
34864SOL     OW 6844   9.352   9.893   9.124 -0.0601  0.0086  0.1535
34864SOL    HW1 6845   9.295   9.848   9.062  0.7410 -0.2128 -0.4410
34864SOL    HW2 6846   9.440   9.863   9.101  0.4554  1.5008  0.0567
34865SOL     OW 6847   2.193   5.697   8.503  0.1723  0.8472  0.3952
34865SOL    HW1 6848   2.173   5.752   8.579  1.0112  1.9888 -0.1837
34865SOL    HW2 6849   2.219   5.759   8.435 -1.0712 -0.1090 -1.0117
34866SOL     OW 6850   6.667   7.833  10.215 -0.3224 -0.1441  0.6839
34866SOL    HW1 6851   6.680   7.926  10.235  1.7718  0.0551 -1.1191
34866SOL    HW2 6852   6.642   7.833  10.122  0.7797 -1.3797  0.3527
34867SOL     OW 6853   5.698   0.522   3.071  0.0513  0.6119 -0.0702
34867SOL    HW1 6854   5.622   0.503   3.127  0.3681  0.4074  0.2937
34867SOL    HW2 6855   5.661   0.571   2.997 -0.4728  0.3045 -0.0174
34868SOL     OW 6856   8.066   8.846   6.482 -0.2168  0.0084 -0.0422
34868SOL    HW1 6857   8.070   8.914   6.549 -0.9808  0.7461 -0.7135
34868SOL    HW2 6858   8.017   8.887   6.410 -1.3589 -1.5078 -0.1724
34869SOL     OW 6859   7.635   7.760  10.540  0.5632  0.3703  0.0570
34869SOL    HW1 6860   7.664   7.734  10.627 -1.0370 -3.3255 -0.3457
34869SOL    HW2 6861   7.693   7.713  10.480  0.2921  1.1709 -0.8735
34870SOL     OW 6862   4.137   1.799   1.258 -0.0181 -0.1161  0.1787
34870SOL    HW1 6863   4.050   1.798   1.298 -0.5576 -0.0858 -0.9427
34870SOL    HW2 6864   4.177   1.880   1.290 -0.7357  0.3033  0.0488
34871SOL     OW 6865   1.254   5.369   4.897  0.0947  0.7049 -0.1201
34871SOL    HW1 6866   1.336   5.372   4.847  0.5761 -0.9885  0.4883
34871SOL    HW2 6867   1.194   5.425   4.848  1.1459  0.6933 -1.4791
34872SOL     OW 6868   9.733   6.204   8.141  0.8116  0.0362 -0.2420
34872SOL    HW1 6869   9.664   6.170   8.197  0.0216 -3.7308 -3.0772
34872SOL    HW2 6870   9.811   6.153   8.166  1.7631  1.8516  0.6565
34873SOL     OW 6871   0.286   7.358   2.432  0.8049  0.3845 -0.1094
34873SOL    HW1 6872   0.240   7.419   2.490 -2.7017 -0.7535 -1.4358
34873SOL    HW2 6873   0.277   7.397   2.344 -1.2643 -1.7293 -0.9451
34874SOL     OW 6874   8.609   8.565   1.758 -0.0749  0.4613 -0.3754
34874SOL    HW1 6875   8.627   8.570   1.664  0.5384 -3.3379 -0.6144
34874SOL    HW2 6876   8.688   8.526   1.795 -0.4417  1.6021  1.7295
34875SOL     OW 6877   4.894   1.967   9.405  0.1673  0.0931  0.2637
34875SOL    HW1 6878   4.949   2.008   9.338  1.5351  0.2447  1.4185
34875SOL    HW2 6879   4.819   1.932   9.357  1.1749  0.0683 -1.3674
34876SOL     OW 6880   3.989   8.667   6.443 -0.1458 -0.0343  0.6876
34876SOL    HW1 6881   3.902   8.705   6.432 -0.2733 -0.9168 -2.1373
34876SOL    HW2 6882   4.049   8.735   6.409 -0.1161 -0.9044 -1.1355
34877SOL     OW 6883   1.784   2.353   5.051  0.7485 -0.3770  0.2206
34877SOL    HW1 6884   1.798   2.260   5.033  1.4014 -0.1514 -0.5114
34877SOL    HW2 6885   1.844   2.398   4.991 -1.0136  0.5683 -0.9385
34878SOL     OW 6886   0.073   8.689   6.155 -0.2986 -0.1510 -0.2920
34878SOL    HW1 6887   0.039   8.745   6.085  1.7936 -1.1845 -2.2675
34878SOL    HW2 6888   0.160   8.725   6.174  0.0639 -1.2281  0.1684
34879SOL     OW 6889   4.540   0.339   9.066  0.1984 -0.1009 -0.0324
34879SOL    HW1 6890   4.462   0.344   9.120 -1.2694 -1.6354 -1.8839
34879SOL    HW2 6891   4.602   0.286   9.117 -0.0250  0.8953  1.3229
34880SOL     OW 6892   7.126   4.662   8.299  0.0695 -0.0601 -0.2844
34880SOL    HW1 6893   7.201   4.602   8.293 -0.7607 -1.2181  0.4999
34880SOL    HW2 6894   7.056   4.609   8.337 -0.2457  1.8018  1.9823
34881SOL     OW 6895   6.930   9.474   6.258 -0.2407  0.1775  0.3403
34881SOL    HW1 6896   6.988   9.401   6.238 -0.1469  0.1660  0.6606
34881SOL    HW2 6897   6.863   9.437   6.315 -0.2250  0.3280  0.4577
34882SOL     OW 6898   5.238   4.684   1.867  0.1922 -0.7565 -0.4339
34882SOL    HW1 6899   5.182   4.761   1.864  0.2103 -0.7631 -2.1561
34882SOL    HW2 6900   5.180   4.613   1.895  0.0547 -0.2251  0.6494
34883SOL     OW 6901   5.220   8.493   2.743  1.2378 -0.1354  0.3279
34883SOL    HW1 6902   5.313   8.472   2.731  1.0487 -2.6299  2.3436
34883SOL    HW2 6903   5.190   8.432   2.811 -1.9901  0.2780 -0.5393
34884SOL     OW 6904   2.553   1.304   5.336 -0.2033 -0.0009  0.3909
34884SOL    HW1 6905   2.532   1.395   5.313  1.6644  0.1208 -1.0440
34884SOL    HW2 6906   2.526   1.253   5.260  0.7887 -0.3505  0.2593
34885SOL     OW 6907   8.322   5.230   1.941  0.5381 -0.0724 -0.5919
34885SOL    HW1 6908   8.294   5.143   1.968 -1.5075  1.0750  1.3395
34885SOL    HW2 6909   8.292   5.240   1.851  0.2890 -1.1282 -0.6283
34886SOL     OW 6910   9.111   9.399   0.087  0.7461  0.3983 -0.4661
34886SOL    HW1 6911   9.037   9.458   0.074  0.2074 -0.5767 -2.1909
34886SOL    HW2 6912   9.083   9.342   0.159  0.3041  0.7659 -0.3426
34887SOL     OW 6913   2.918   9.600   0.748 -0.6991 -0.1448 -0.6475
34887SOL    HW1 6914   2.979   9.527   0.747  0.6128  0.8966 -1.7410
34887SOL    HW2 6915   2.970   9.675   0.718 -0.8481  2.1922  4.0631
34888SOL     OW 6916   2.290   4.495   6.484 -0.2481  0.5516  0.0334
34888SOL    HW1 6917   2.270   4.584   6.513  4.9460  1.4119  2.1588
34888SOL    HW2 6918   2.324   4.506   6.395  3.2576  1.4596  1.3188
34889SOL     OW 6919   6.036   9.406   9.563  0.5458  0.0888  0.2604
34889SOL    HW1 6920   5.949   9.425   9.598 -0.7333 -0.4804 -2.4368
34889SOL    HW2 6921   6.021   9.369   9.477  3.4200 -1.7699  0.4065
34890SOL     OW 6922   8.090   9.514   1.953 -0.2883  0.3327 -0.8041
34890SOL    HW1 6923   8.066   9.572   2.026 -0.2230  1.1089 -1.3852
34890SOL    HW2 6924   8.062   9.427   1.982 -1.4321  0.8161 -0.3846
34891SOL     OW 6925   9.445   9.325   7.934  0.3151  0.1294 -0.1921
34891SOL    HW1 6926   9.410   9.281   7.857  0.6135  1.1558 -0.9309
34891SOL    HW2 6927   9.486   9.255   7.985 -1.8879 -0.9566  0.2209
34892SOL     OW 6928   0.330   8.132   2.445 -0.4216 -0.0732 -1.0607
34892SOL    HW1 6929   0.383   8.053   2.438  1.6731  1.2447 -0.9925
34892SOL    HW2 6930   0.375   8.196   2.389 -0.8922  1.6396  0.4161
34893SOL     OW 6931   8.829   4.893   1.794 -0.0492 -0.8003 -0.1121
34893SOL    HW1 6932   8.740   4.904   1.827 -0.1002  0.5537 -0.6445
34893SOL    HW2 6933   8.818   4.857   1.706  0.0204 -2.4072  0.4984
34894SOL     OW 6934   7.597   8.159   8.308  0.9227  0.2431 -0.0094
34894SOL    HW1 6935   7.640   8.192   8.386  3.2407 -0.6762 -0.8102
34894SOL    HW2 6936   7.669   8.127   8.253 -0.8516 -1.9289 -1.2033
34895SOL     OW 6937   2.448   5.180  10.037 -0.0349 -0.3453  0.0678
34895SOL    HW1 6938   2.412   5.099  10.000 -2.3138  0.3470  0.6545
34895SOL    HW2 6939   2.498   5.218   9.965 -2.6823 -0.0377 -1.7641
34896SOL     OW 6940   1.946   8.787   7.786 -0.8575  1.0930  0.4954
34896SOL    HW1 6941   1.962   8.808   7.694  0.6687  0.7330  0.6542
34896SOL    HW2 6942   1.865   8.736   7.786 -0.2931  0.1594 -0.7770
34897SOL     OW 6943   6.054   3.907   0.871  0.2822  0.1073  0.1421
34897SOL    HW1 6944   5.978   3.921   0.814 -0.4070 -0.4400  0.9098
34897SOL    HW2 6945   6.027   3.838   0.931  2.1035 -1.6043 -0.8625
34898SOL     OW 6946   0.103   6.998   2.459 -0.1026  0.2840 -0.3659
34898SOL    HW1 6947   0.180   7.019   2.512 -0.3706  1.3954 -0.3976
34898SOL    HW2 6948   0.075   6.912   2.490  1.6537 -0.5435 -0.9534
34899SOL     OW 6949   7.776  10.647   6.220  0.3667  0.0957 -0.0835
34899SOL    HW1 6950   7.803  10.696   6.297 -0.6406  1.3668 -0.5164
34899SOL    HW2 6951   7.684  10.625   6.236  0.2534  0.0473 -0.7659
34900SOL     OW 6952   2.875   1.578   4.722  0.4530 -0.6386 -0.4961
34900SOL    HW1 6953   2.790   1.541   4.745  1.2115 -2.3610 -0.2842
34900SOL    HW2 6954   2.854   1.649   4.661 -1.1584 -0.6099  0.0392
34901SOL     OW 6955  10.622   3.740   6.663 -0.8129  0.0669 -0.0815
34901SOL    HW1 6956  10.550   3.800   6.642  0.3671  1.2440 -0.9423
34901SOL    HW2 6957  10.591   3.690   6.738 -1.2275  2.9101  1.7699
34902SOL     OW 6958   1.393   2.837   2.481  0.3237  0.5540 -0.2034
34902SOL    HW1 6959   1.372   2.922   2.520 -0.5616 -0.5893  2.0490
34902SOL    HW2 6960   1.402   2.854   2.388 -0.5117  2.9779  0.0900
34903SOL     OW 6961   0.279   8.481   2.540  0.2871 -0.1680  0.4662
34903SOL    HW1 6962   0.202   8.430   2.512  0.8561 -1.9375  1.9679
34903SOL    HW2 6963   0.329   8.421   2.595  2.5734  1.0777 -0.1515
34904SOL     OW 6964   9.286   6.834   6.149 -0.1549  0.6784 -0.3905
34904SOL    HW1 6965   9.315   6.920   6.179  0.1087  0.1273  1.0374
34904SOL    HW2 6966   9.207   6.852   6.098 -0.3428  1.7451  0.2371
34905SOL     OW 6967   1.539   5.778   5.983 -0.6501  0.5673 -0.1252
34905SOL    HW1 6968   1.456   5.824   5.986  0.4573  2.6584  0.2491
34905SOL    HW2 6969   1.548   5.739   6.070 -1.0425  0.6874 -0.0300
34906SOL     OW 6970   2.829   7.217   9.752  0.2988 -0.4513 -0.5288
34906SOL    HW1 6971   2.832   7.140   9.809 -0.5325  0.6104  1.0281
34906SOL    HW2 6972   2.740   7.218   9.718 -0.0581  0.4078  0.3687
34907SOL     OW 6973   8.582  10.399   9.472 -0.0470  0.0887  0.0207
34907SOL    HW1 6974   8.622  10.392   9.558 -1.4682 -1.2619  0.6198
34907SOL    HW2 6975   8.656  10.410   9.412  1.2226 -1.9158  1.1014
34908SOL     OW 6976   8.246   7.268   3.830 -0.2162  0.3103 -0.1638
34908SOL    HW1 6977   8.216   7.337   3.889 -1.2603  0.4898 -0.8688
34908SOL    HW2 6978   8.303   7.213   3.884 -0.6555  0.8054  0.8367
34909SOL     OW 6979   1.558   5.601   7.315  0.3097  0.0127  0.2359
34909SOL    HW1 6980   1.612   5.680   7.314  2.3928 -1.3422 -1.4979
34909SOL    HW2 6981   1.585   5.555   7.395 -1.3889  1.2673  1.6145
34910SOL     OW 6982   3.519   4.272   9.275 -0.4837 -0.4531  0.0327
34910SOL    HW1 6983   3.439   4.319   9.251  0.4494  2.0802  1.5249
34910SOL    HW2 6984   3.492   4.213   9.345 -0.8602  1.6678  1.8118
34911SOL     OW 6985  10.253  10.332   6.198 -0.1591 -0.3775  0.6622
34911SOL    HW1 6986  10.197  10.408   6.185  1.1002  0.4503 -0.1561
34911SOL    HW2 6987  10.204  10.259   6.160 -1.8205 -0.2135  2.3417
34912SOL     OW 6988   3.254   5.793   2.091  0.2790  0.3687 -0.4292
34912SOL    HW1 6989   3.332   5.789   2.146  0.4621 -1.2786 -0.7418
34912SOL    HW2 6990   3.229   5.885   2.090  2.9654  1.1798 -1.3381
34913SOL     OW 6991   5.780   9.657   1.069  0.2015 -0.1548 -0.4906
34913SOL    HW1 6992   5.708   9.708   1.030  1.0577  1.2779 -0.2540
34913SOL    HW2 6993   5.758   9.653   1.162  0.7688  0.9143 -0.2959
34914SOL     OW 6994   7.978   2.775   6.581  0.2521  0.1489 -0.3112
34914SOL    HW1 6995   7.978   2.793   6.675 -0.9509 -0.3100 -0.2040
34914SOL    HW2 6996   7.995   2.860   6.540  0.9550  0.3233  0.3074
34915SOL     OW 6997   1.274   8.612   1.677 -0.0353 -0.4183  0.2360
34915SOL    HW1 6998   1.364   8.591   1.703  0.1520  0.2587  0.1588
34915SOL    HW2 6999   1.238   8.661   1.752  0.5352  1.6245 -0.7552
34916SOL     OW 7000   3.826   2.365   9.283 -0.5508 -0.6797  0.6837
34916SOL    HW1 7001   3.862   2.453   9.298  0.2596 -1.0544  1.0350
34916SOL    HW2 7002   3.733   2.374   9.300 -0.5284  0.1927  0.3817
34917SOL     OW 7003   2.648   7.266   5.775 -0.2512 -0.6400 -0.4262
34917SOL    HW1 7004   2.644   7.257   5.870  0.2213 -0.3445 -0.3755
34917SOL    HW2 7005   2.625   7.358   5.758  0.0723 -0.5818 -0.5650
34918SOL     OW 7006   9.181   3.356   4.326  0.2089 -0.1075  0.2206
34918SOL    HW1 7007   9.237   3.379   4.253 -0.5627 -0.6780 -0.5810
34918SOL    HW2 7008   9.120   3.291   4.290 -2.4811  2.1404  0.3760
34919SOL     OW 7009   4.177   6.022   7.063 -0.4856  0.1400  0.2011
34919SOL    HW1 7010   4.141   6.088   7.004 -0.2598 -0.5829 -0.7730
34919SOL    HW2 7011   4.106   5.959   7.074 -0.2100 -0.2128 -0.0494
34920SOL     OW 7012   6.935   6.897   2.295 -0.0655 -0.1110 -0.2577
34920SOL    HW1 7013   6.960   6.882   2.386 -1.6840 -0.6416  0.1393
34920SOL    HW2 7014   6.931   6.809   2.256 -1.4104 -0.0780 -0.2414
34921SOL     OW 7015   1.058   1.845   4.299  0.0590 -0.3330 -0.1706
34921SOL    HW1 7016   1.068   1.826   4.392 -1.3326  0.7834  0.2331
34921SOL    HW2 7017   1.023   1.934   4.296 -3.8188 -1.6984 -1.5462
34922SOL     OW 7018   4.511   1.341   9.235  0.1194  0.3420 -0.1597
34922SOL    HW1 7019   4.550   1.400   9.299  0.2172 -1.4554  1.5358
34922SOL    HW2 7020   4.485   1.398   9.162  0.4524  2.4059  1.2535
34923SOL     OW 7021   1.877   6.397  10.473  0.1797  0.0651 -0.0709
34923SOL    HW1 7022   1.838   6.313  10.450  0.3921  0.7524 -3.4153
34923SOL    HW2 7023   1.836   6.420  10.557 -0.7550 -2.7536  0.3636
34924SOL     OW 7024   4.617   8.727   3.966  0.1221 -0.4109 -0.0792
34924SOL    HW1 7025   4.578   8.669   3.900 -1.0842  0.2752 -0.0012
34924SOL    HW2 7026   4.542   8.769   4.007  0.9683  1.7995 -0.6628
34925SOL     OW 7027   1.866   0.286   5.242 -0.0563 -0.4788 -0.0805
34925SOL    HW1 7028   1.806   0.337   5.297 -0.8262  1.9270 -2.8604
34925SOL    HW2 7029   1.810   0.220   5.202  0.4450 -2.0334  1.6381
34926SOL     OW 7030   0.391   7.885   4.402  0.5646  0.4165 -0.3832
34926SOL    HW1 7031   0.404   7.872   4.308  0.2602  0.9722 -0.5100
34926SOL    HW2 7032   0.350   7.972   4.408 -1.4278 -0.5062  0.1164
34927SOL     OW 7033   9.645   6.779   8.462 -0.8762 -0.1840  0.2986
34927SOL    HW1 7034   9.723   6.743   8.506 -0.1248  1.2562  0.2142
34927SOL    HW2 7035   9.597   6.824   8.532 -0.7406  0.3615  0.0492
34928SOL     OW 7036   0.700   3.408   3.315  0.8631 -0.6736  0.2205
34928SOL    HW1 7037   0.655   3.352   3.379  0.7408  0.1801  0.8999
34928SOL    HW2 7038   0.693   3.496   3.351  0.1366 -0.0472 -1.3408
34929SOL     OW 7039   2.447   9.979   3.355 -0.1600  0.4195 -0.0669
34929SOL    HW1 7040   2.358   9.979   3.320 -0.0994  0.6569 -0.2210
34929SOL    HW2 7041   2.438   9.940   3.442 -0.1938 -0.9218 -0.6494
34930SOL     OW 7042   6.232   0.501   7.624 -0.1266 -0.3461 -0.2940
34930SOL    HW1 7043   6.201   0.559   7.555 -1.0970 -1.0100 -0.4432
34930SOL    HW2 7044   6.292   0.554   7.675  1.1300 -0.0220 -2.0235
34931SOL     OW 7045  10.109   8.776   4.749 -0.0115  0.1741  0.6114
34931SOL    HW1 7046  10.072   8.856   4.713 -0.2313  0.3457  1.2100
34931SOL    HW2 7047  10.133   8.724   4.672 -1.7626 -0.0832  0.1943
34932SOL     OW 7048   6.882   1.259  10.174 -0.0686  0.4000 -0.0850
34932SOL    HW1 7049   6.882   1.355  10.174  1.6702  0.4283  0.6275
34932SOL    HW2 7050   6.926   1.235  10.093 -2.3287  0.1268 -1.3014
34933SOL     OW 7051   2.770   4.342   6.268 -0.2220  0.0305 -0.4846
34933SOL    HW1 7052   2.858   4.307   6.287  0.4889  1.6840 -0.5778
34933SOL    HW2 7053   2.767   4.426   6.313 -2.0909 -0.3652  0.1858
34934SOL     OW 7054   7.915   5.208   6.717 -0.0453  0.3679 -0.0474
34934SOL    HW1 7055   7.910   5.136   6.654 -2.3111  1.2532 -0.9573
34934SOL    HW2 7056   7.849   5.188   6.783  0.5944  0.7010  0.7120
34935SOL     OW 7057   6.210   5.844   6.197 -0.4971 -0.1951 -0.5991
34935SOL    HW1 7058   6.224   5.899   6.274  3.0972  0.0602 -1.2585
34935SOL    HW2 7059   6.161   5.768   6.230 -3.2342  1.9945  0.8470
34936SOL     OW 7060   5.705   2.664   1.972 -0.0217 -0.3745 -0.5645
34936SOL    HW1 7061   5.734   2.754   1.986  0.3227 -0.5895  0.1377
34936SOL    HW2 7062   5.786   2.614   1.963 -0.0860 -1.0534  1.8632
34937SOL     OW 7063   0.272   6.878   8.028 -0.4434  0.0433  0.2610
34937SOL    HW1 7064   0.245   6.839   7.945  0.3041 -2.4219  1.0799
34937SOL    HW2 7065   0.365   6.897   8.016 -0.7513  1.4737 -0.0537
34938SOL     OW 7066   4.429   7.378  10.609  0.2279  0.0151 -0.0851
34938SOL    HW1 7067   4.412   7.465  10.572 -1.5376 -0.2453  0.0025
34938SOL    HW2 7068   4.523   7.364  10.597  0.2493  1.2176 -1.6418
34939SOL     OW 7069   8.007   4.842   5.569  0.1307 -0.0476 -0.0731
34939SOL    HW1 7070   7.999   4.747   5.579  0.8438 -0.2372 -1.1893
34939SOL    HW2 7071   8.012   4.857   5.475 -0.2650  1.1366  0.0640
34940SOL     OW 7072   1.238   7.509   1.762 -0.2465  0.0298  0.3541
34940SOL    HW1 7073   1.240   7.506   1.666  1.5771  2.4302  0.2278
34940SOL    HW2 7074   1.199   7.594   1.783  0.4288  0.0246  1.7215
34941SOL     OW 7075   2.176   2.107  10.035 -0.1862 -0.0825  0.1764
34941SOL    HW1 7076   2.219   2.070  10.112  0.8631  1.4757  0.4013
34941SOL    HW2 7077   2.082   2.099  10.052 -0.0759  2.7608  3.0297
34942SOL     OW 7078   9.544   9.642   7.991  0.8483 -0.1173 -0.2252
34942SOL    HW1 7079   9.617   9.622   7.931  1.0093 -2.3066  0.6082
34942SOL    HW2 7080   9.586   9.665   8.073  0.6030 -0.5740  0.0289
34943SOL     OW 7081   8.310   7.011   8.565  0.0551 -0.2881  0.4899
34943SOL    HW1 7082   8.276   7.092   8.528  1.3440  0.0652  0.0437
34943SOL    HW2 7083   8.267   7.005   8.651 -0.2556  0.7221  0.4236
34944SOL     OW 7084   5.398   8.430   6.493 -0.4060 -0.4559  0.4283
34944SOL    HW1 7085   5.431   8.390   6.574  0.0420 -0.3465  0.3049
34944SOL    HW2 7086   5.304   8.436   6.505 -0.6696 -2.7965 -0.0900
34945SOL     OW 7087   5.734   0.879   9.730 -0.1487 -0.0185 -0.0064
34945SOL    HW1 7088   5.689   0.826   9.666  0.9275 -0.2279 -0.6156
34945SOL    HW2 7089   5.665   0.929   9.774 -1.0387 -1.0078 -0.2612
34946SOL     OW 7090   6.319   5.506   8.885 -0.1026 -0.0657 -0.1157
34946SOL    HW1 7091   6.367   5.537   8.961  2.1372 -0.6687 -1.2122
34946SOL    HW2 7092   6.346   5.415   8.874 -2.3121 -0.7716 -0.2086
34947SOL     OW 7093   8.435   7.804   7.637  0.3146  0.4792 -0.3231
34947SOL    HW1 7094   8.394   7.838   7.716  1.7566  0.5154  0.4413
34947SOL    HW2 7095   8.382   7.728   7.613  0.4083 -0.1119  1.2376
34948SOL     OW 7096   3.854   2.479   3.094 -0.7073 -0.1813 -0.1891
34948SOL    HW1 7097   3.935   2.450   3.050 -1.7112 -0.7838 -1.7310
34948SOL    HW2 7098   3.784   2.456   3.033 -2.0541  0.4458  1.0551
34949SOL     OW 7099   4.258   3.902  10.343 -0.5816  0.1470  0.3817
34949SOL    HW1 7100   4.278   3.812  10.370 -0.8635 -0.4218 -1.2098
34949SOL    HW2 7101   4.334   3.952  10.373 -0.1144 -0.7245  0.7248
34950SOL     OW 7102   8.939   0.418   9.538 -0.0609  0.3244 -0.5647
34950SOL    HW1 7103   8.882   0.472   9.483 -0.6512  1.0678  0.7179
34950SOL    HW2 7104   8.884   0.345   9.566  0.6303 -0.7909 -2.0009
34951SOL     OW 7105   7.230   1.754   5.553 -0.0620  0.1473  0.1243
34951SOL    HW1 7106   7.177   1.823   5.593 -0.9147 -0.0618 -0.5896
34951SOL    HW2 7107   7.320   1.784   5.563 -0.3608  0.9233  0.6361
34952SOL     OW 7108   0.583   1.880   3.246 -0.1472  0.8173  0.1242
34952SOL    HW1 7109   0.507   1.916   3.291 -0.5307 -1.2118  1.2349
34952SOL    HW2 7110   0.648   1.950   3.247 -0.5183  1.2365  2.9696
34953SOL     OW 7111   0.090   9.606   1.105  0.3280 -0.1772  0.1035
34953SOL    HW1 7112   0.068   9.531   1.160  1.9766 -1.7574 -1.2430
34953SOL    HW2 7113   0.020   9.669   1.120  0.1106 -0.9821  3.0809
34954SOL     OW 7114   5.332   2.468   5.617 -0.1689 -0.2229 -0.1223
34954SOL    HW1 7115   5.282   2.391   5.643 -1.5542  0.3787 -0.9079
34954SOL    HW2 7116   5.412   2.432   5.578  0.6526 -1.1694  2.2797
34955SOL     OW 7117   6.408   0.679   9.961  0.3763 -0.3066  1.0080
34955SOL    HW1 7118   6.315   0.697   9.946  0.5733 -0.8455 -1.1455
34955SOL    HW2 7119   6.417   0.585   9.950  1.3845 -0.0970 -0.1601
34956SOL     OW 7120   7.014   1.188   4.630 -0.4254 -0.0659  0.1672
34956SOL    HW1 7121   7.078   1.121   4.654 -1.3351 -1.5697 -1.4163
34956SOL    HW2 7122   7.066   1.258   4.591  0.5368  0.1625  1.7987
34957SOL     OW 7123   6.980   2.657   4.852  0.2418 -0.6520 -0.2374
34957SOL    HW1 7124   6.979   2.578   4.907 -0.1044 -1.3044 -1.1621
34957SOL    HW2 7125   6.931   2.632   4.773 -2.3352  1.3050  0.5878
34958SOL     OW 7126   7.146  10.326   4.507  0.4343 -0.4596 -1.0268
34958SOL    HW1 7127   7.107  10.252   4.554  1.8610 -0.0984  0.8502
34958SOL    HW2 7128   7.214  10.287   4.453 -0.6625 -0.7817 -2.2337
34959SOL     OW 7129   8.013   7.358   7.605  0.2558  0.2261 -0.3169
34959SOL    HW1 7130   7.991   7.368   7.513 -0.2922 -1.4038 -0.4094
34959SOL    HW2 7131   8.054   7.271   7.611 -0.3671 -0.0107  1.0714
34960SOL     OW 7132   8.428   7.144   5.136  0.1158  0.0740  0.8257
34960SOL    HW1 7133   8.516   7.159   5.170  0.6346 -0.0814 -0.3978
34960SOL    HW2 7134   8.429   7.184   5.049 -0.7251 -0.7210  0.4317
34961SOL     OW 7135   5.891   0.925   2.639 -0.2375 -0.2761  0.2939
34961SOL    HW1 7136   5.836   0.877   2.700 -0.0810 -0.5368  0.2311
34961SOL    HW2 7137   5.915   1.005   2.686 -0.1973 -0.4307  0.5347
34962SOL     OW 7138   4.883   8.235   6.367 -0.4925  0.3051  0.7410
34962SOL    HW1 7139   4.904   8.142   6.369 -0.1813  0.3405 -0.5024
34962SOL    HW2 7140   4.788   8.238   6.354 -0.4426  0.1590  0.3296
34963SOL     OW 7141   0.096   6.942   0.213 -0.1545 -0.0699  0.0990
34963SOL    HW1 7142   0.027   6.994   0.252  0.7210 -0.5759  2.4997
34963SOL    HW2 7143   0.128   6.887   0.285  0.7132 -2.0229 -1.6693
34964SOL     OW 7144   9.024   4.603   1.893  0.3562  0.8082 -0.7623
34964SOL    HW1 7145   9.114   4.571   1.884  0.1729 -0.2094  0.6862
34964SOL    HW2 7146   8.974   4.526   1.922 -0.5834  1.8385  0.4515
34965SOL     OW 7147   6.038  10.203   3.407 -0.2937  0.1760 -0.6725
34965SOL    HW1 7148   6.054  10.215   3.501 -0.7022  0.9658 -0.6899
34965SOL    HW2 7149   5.993  10.119   3.400  0.5295 -0.3106 -0.2573
34966SOL     OW 7150   6.116   4.894   7.109  0.1317 -0.1731  0.5830
34966SOL    HW1 7151   6.030   4.852   7.118  0.0531 -0.1298  0.0487
34966SOL    HW2 7152   6.172   4.825   7.072  0.2820 -0.1438  0.7547
34967SOL     OW 7153   5.531   1.559   9.586  0.5475 -0.0920  0.7578
34967SOL    HW1 7154   5.450   1.610   9.578  0.5555 -0.3175 -1.4374
34967SOL    HW2 7155   5.509   1.488   9.646  0.1664  1.7081  2.8840
34968SOL     OW 7156   4.490   6.088   1.237  0.1764 -0.1369 -0.1473
34968SOL    HW1 7157   4.559   6.050   1.184  0.5636  1.5772 -0.9410
34968SOL    HW2 7158   4.534   6.117   1.317  0.0759 -0.4064  0.0083
34969SOL     OW 7159   9.319   3.265   2.033  0.0451  0.0376  0.3913
34969SOL    HW1 7160   9.286   3.353   2.047  1.3736  0.8820 -1.4202
34969SOL    HW2 7161   9.361   3.242   2.116  0.4842  1.4949  0.5980
34970SOL     OW 7162   7.216   6.501   3.670 -0.0053 -0.2751  0.2351
34970SOL    HW1 7163   7.139   6.502   3.613  0.9039  1.3953 -1.0442
34970SOL    HW2 7164   7.189   6.449   3.745 -2.0874 -0.4582 -0.5676
34971SOL     OW 7165   8.099   0.007   7.402 -0.1033  0.1874  0.0694
34971SOL    HW1 7166   8.052  -0.073   7.427  1.0362 -0.5840 -0.1755
34971SOL    HW2 7167   8.167   0.017   7.469  0.0141  0.7367 -0.1264
34972SOL     OW 7168   4.713   8.662   4.911 -0.3461  0.1323  0.4059
34972SOL    HW1 7169   4.700   8.572   4.880 -0.0218  0.7269 -1.6191
34972SOL    HW2 7170   4.808   8.670   4.920 -0.4220  0.0524  1.3811
34973SOL     OW 7171   9.116   9.847   5.139  0.0011 -0.5193 -0.1907
34973SOL    HW1 7172   9.035   9.875   5.182 -0.3502 -2.7017  0.7168
34973SOL    HW2 7173   9.089   9.779   5.077  1.0900 -1.2393  0.0797
34974SOL     OW 7174  10.210   5.090   7.637 -0.2621  0.9079  0.8017
34974SOL    HW1 7175  10.191   5.183   7.626 -2.7979  0.3594 -0.0458
34974SOL    HW2 7176  10.124   5.049   7.647  0.4234 -1.7734 -2.4711
34975SOL     OW 7177   4.107   7.007   3.855 -0.0618 -0.1919 -0.0584
34975SOL    HW1 7178   4.042   7.063   3.811 -0.0292 -0.0777  0.0376
34975SOL    HW2 7179   4.059   6.968   3.928  0.1480  0.4119  0.4129
34976SOL     OW 7180   7.921   5.510   1.371 -0.3327 -0.6956  0.0507
34976SOL    HW1 7181   7.879   5.428   1.346 -0.5669 -0.5165 -0.1473
34976SOL    HW2 7182   8.013   5.498   1.347 -0.2504 -1.1150  0.5525
34977SOL     OW 7183   8.520   2.540   0.567 -1.1187 -0.3383 -0.1301
34977SOL    HW1 7184   8.465   2.486   0.625  0.3308 -1.0141  0.6798
34977SOL    HW2 7185   8.585   2.578   0.625 -0.9403  0.7457 -1.0151
34978SOL     OW 7186   2.990   0.413  10.406  0.3441 -0.4065 -0.1675
34978SOL    HW1 7187   3.063   0.390  10.349 -0.6410 -1.3440 -1.0886
34978SOL    HW2 7188   2.913   0.410  10.350 -0.6066 -0.9688  1.1090
34979SOL     OW 7189   9.758   5.764   7.808  0.2170  0.2320 -0.2484
34979SOL    HW1 7190   9.731   5.683   7.851  0.0850  1.1681  1.5329
34979SOL    HW2 7191   9.676   5.809   7.788  0.2344 -0.5346 -2.2961
34980SOL     OW 7192   4.976  10.398   6.732 -0.8632 -1.1855 -0.2429
34980SOL    HW1 7193   4.956  10.316   6.686  0.3443 -1.3663 -0.4908
34980SOL    HW2 7194   5.018  10.369   6.813  0.5764 -0.8123 -0.8330
34981SOL     OW 7195   7.878   7.805   9.406  0.0944  0.3348 -0.0512
34981SOL    HW1 7196   7.824   7.862   9.351  1.7502  1.6153 -0.4528
34981SOL    HW2 7197   7.962   7.851   9.411  0.3664 -0.3211  2.5996
34982SOL     OW 7198   6.332   5.511   5.265  0.1119  0.3898  0.1970
34982SOL    HW1 7199   6.239   5.494   5.282  0.2063 -1.2811 -0.7383
34982SOL    HW2 7200   6.332   5.570   5.190 -0.2175 -1.0047 -0.9415
34983SOL     OW 7201   8.506   2.998   8.944  0.0004 -0.7052  0.3275
34983SOL    HW1 7202   8.497   3.001   9.040 -0.2454 -2.3363  0.3814
34983SOL    HW2 7203   8.589   2.952   8.930  0.4505  0.2686 -0.2537
34984SOL     OW 7204   3.152   9.417   5.383  0.0665 -0.1026 -0.4016
34984SOL    HW1 7205   3.101   9.355   5.330  2.0657 -1.6111 -0.6451
34984SOL    HW2 7206   3.213   9.456   5.321  0.1163  0.7013  0.1443
34985SOL     OW 7207   2.072   8.949   1.255 -0.2423 -0.6056  0.3370
34985SOL    HW1 7208   2.047   8.900   1.176 -0.2814 -0.1594  0.0665
34985SOL    HW2 7209   2.104   9.032   1.222 -0.9241 -0.1342  0.8203
34986SOL     OW 7210   6.753   2.122   8.847 -0.4195  0.4529 -0.2302
34986SOL    HW1 7211   6.690   2.169   8.792 -1.6054 -0.3845  0.3808
34986SOL    HW2 7212   6.783   2.050   8.791 -2.2803 -0.9223  0.4333
34987SOL     OW 7213   2.199   0.770   8.588  1.2227  0.5595 -0.1217
34987SOL    HW1 7214   2.143   0.743   8.516  0.6105 -0.6647  0.7691
34987SOL    HW2 7215   2.285   0.780   8.550  0.9028 -0.0383 -1.0292
34988SOL     OW 7216   5.010   8.617   0.088 -0.2272  0.1873  0.0245
34988SOL    HW1 7217   4.939   8.653   0.141 -1.0932 -1.1951 -0.1514
34988SOL    HW2 7218   4.966   8.574   0.015  0.8884  0.8017 -1.0336
34989SOL     OW 7219   9.906  10.118   3.008  0.5073 -0.2525  0.1417
34989SOL    HW1 7220   9.948  10.147   2.927  0.1389 -1.5282 -0.5370
34989SOL    HW2 7221   9.893  10.024   2.995  0.8494 -0.5659  1.8726
34990SOL     OW 7222   1.645   5.362   0.431  0.1565 -0.4946  0.5590
34990SOL    HW1 7223   1.722   5.321   0.392  1.0465  1.7093 -0.1396
34990SOL    HW2 7224   1.577   5.294   0.427  1.2293 -1.5422 -1.4930
34991SOL     OW 7225   2.721   6.742   8.053  0.1375 -0.4879 -0.2577
34991SOL    HW1 7226   2.811   6.733   8.023 -0.3331  0.8564 -2.2509
34991SOL    HW2 7227   2.681   6.657   8.035  0.9629 -1.0905  0.6236
34992SOL     OW 7228   3.288  10.177   5.597 -0.4786 -0.3879 -0.0247
34992SOL    HW1 7229   3.312  10.174   5.504 -1.8324 -0.9849 -0.3806
34992SOL    HW2 7230   3.316  10.264   5.626  1.1888 -0.6963 -0.6258
34993SOL     OW 7231   2.935  10.347   4.693 -0.2363  0.3854  0.2422
34993SOL    HW1 7232   3.022  10.369   4.727 -0.5114 -0.9295  1.9676
34993SOL    HW2 7233   2.953  10.300   4.612  0.5712  1.5673 -0.2938
34994SOL     OW 7234   1.105   1.602   9.662 -0.6194 -0.4331 -0.0064
34994SOL    HW1 7235   1.198   1.597   9.684 -0.4173 -0.6476 -0.8514
34994SOL    HW2 7236   1.062   1.631   9.742  0.1429 -0.6132  0.4738
34995SOL     OW 7237   4.259   1.976   0.670 -0.3260  0.2175  0.4083
34995SOL    HW1 7238   4.318   1.902   0.684 -0.0773  0.7230  2.3481
34995SOL    HW2 7239   4.316   2.053   0.672 -0.8907  0.6329  1.2049
34996SOL     OW 7240   0.249   6.765   6.858  0.2083  0.3767  0.7993
34996SOL    HW1 7241   0.181   6.829   6.836  0.9259  0.4024 -1.6024
34996SOL    HW2 7242   0.291   6.802   6.936 -0.0416  2.3507  0.0547
34997SOL     OW 7243   0.105   9.431   5.615  0.3048  0.4083  0.0262
34997SOL    HW1 7244   0.107   9.422   5.520 -1.3130 -0.6236  0.0421
34997SOL    HW2 7245   0.042   9.502   5.631  1.4435  1.3765  0.3207
34998SOL     OW 7246   4.394   7.276   8.184  0.4921  0.9512 -0.0395
34998SOL    HW1 7247   4.452   7.229   8.125 -0.2666  0.7305 -0.6263
34998SOL    HW2 7248   4.438   7.274   8.269 -0.4803 -2.7460  0.5340
34999SOL     OW 7249   3.805   5.061   8.755  0.0360 -0.1876 -0.0698
34999SOL    HW1 7250   3.716   5.051   8.790  0.0439  0.9490  0.3088
34999SOL    HW2 7251   3.862   5.033   8.827  0.0021 -0.3782 -0.1152
35000SOL     OW 7252   1.711   6.436   0.788 -0.6047  0.5771 -0.2691
35000SOL    HW1 7253   1.778   6.463   0.726  1.3731 -0.9506  1.1022
35000SOL    HW2 7254   1.717   6.499   0.860 -1.2188  0.8946 -0.4811
35001SOL     OW 7255   4.119   6.856   8.089  0.3346  0.0656 -0.0139
35001SOL    HW1 7256   4.201   6.867   8.041 -0.7598  1.3789 -1.7410
35001SOL    HW2 7257   4.108   6.939   8.136 -0.6982  0.5715 -1.0617
35002SOL     OW 7258   4.754   8.974   6.576 -0.5608  0.0315  0.0277
35002SOL    HW1 7259   4.826   9.025   6.612 -1.3665  0.5451  0.9538
35002SOL    HW2 7260   4.796   8.909   6.520  0.5252  1.3032 -0.6788
35003SOL     OW 7261   3.460  10.276   3.506 -0.6446  0.3921 -0.2504
35003SOL    HW1 7262   3.455  10.371   3.498 -2.7594  0.3525 -0.0981
35003SOL    HW2 7263   3.456  10.244   3.416 -0.5625  0.4515 -0.2746
35004SOL     OW 7264   4.187   8.083   6.285 -0.6630  0.1745  0.2848
35004SOL    HW1 7265   4.176   8.170   6.322 -0.6125 -0.0287  0.7772
35004SOL    HW2 7266   4.139   8.087   6.202 -0.9485  0.5673  0.4632
35005SOL     OW 7267   9.048   3.022   8.710  0.2145  0.1906 -0.7820
35005SOL    HW1 7268   8.974   3.051   8.658  0.4451 -2.1980 -2.6559
35005SOL    HW2 7269   9.125   3.049   8.659  0.6142  1.2018  0.3146
35006SOL     OW 7270   3.001   6.758   1.824  0.7269  0.1965 -0.1023
35006SOL    HW1 7271   2.984   6.752   1.918  0.5201 -0.7789 -0.1932
35006SOL    HW2 7272   3.096   6.769   1.818  0.8266 -0.4779  0.1974
35007SOL     OW 7273   4.262   9.823   3.681  0.2937 -0.2182  0.0270
35007SOL    HW1 7274   4.204   9.785   3.615  0.2849 -1.1111  0.5407
35007SOL    HW2 7275   4.282   9.911   3.647  0.2327 -0.6258 -1.1245
35008SOL     OW 7276   5.040   1.366   1.786  0.6287  0.4003  0.4385
35008SOL    HW1 7277   4.972   1.429   1.761  0.4456  1.2289  2.7727
35008SOL    HW2 7278   5.105   1.371   1.716 -0.1852  1.9845 -0.2511
35009SOL     OW 7279   5.447   4.498  10.010 -0.6032 -0.5396  0.3667
35009SOL    HW1 7280   5.466   4.405  10.019 -0.7533 -0.7907 -1.5526
35009SOL    HW2 7281   5.495   4.525   9.933 -0.6903  0.9566  0.8050
35010SOL     OW 7282   9.952   3.193   6.788 -0.0704  0.0919 -0.0982
35010SOL    HW1 7283   9.873   3.141   6.779 -1.1342  1.6929 -0.5646
35010SOL    HW2 7284   9.942   3.263   6.723  0.7544  1.4793  1.1947
35011SOL     OW 7285   4.166  10.101   8.509  0.3841  0.4766 -0.4695
35011SOL    HW1 7286   4.079  10.085   8.473 -0.3421 -0.6894  1.6352
35011SOL    HW2 7287   4.217  10.025   8.482  0.1873  0.2167 -0.1264
35012SOL     OW 7288   8.465   6.046   0.296 -0.2913 -0.5214  0.2221
35012SOL    HW1 7289   8.392   5.990   0.268 -0.4473 -0.3406  0.2640
35012SOL    HW2 7290   8.535   5.985   0.320 -0.7458 -0.7251  1.0651
35013SOL     OW 7291   0.957   0.233   2.783 -0.3177 -0.3925  0.3184
35013SOL    HW1 7292   0.899   0.281   2.842 -1.0102 -1.2749  0.3822
35013SOL    HW2 7293   1.011   0.300   2.743 -0.3170  0.2993  1.4243
35014SOL     OW 7294   1.179   4.407   3.147 -0.1195  0.2696  0.0853
35014SOL    HW1 7295   1.189   4.344   3.218  0.3143  0.5487  0.2821
35014SOL    HW2 7296   1.261   4.400   3.098  0.4466  1.5107  0.8008
35015SOL     OW 7297   2.717   7.025   5.089 -0.0958  0.0557 -0.1170
35015SOL    HW1 7298   2.694   7.118   5.092 -2.0177 -0.4250  0.9229
35015SOL    HW2 7299   2.761   7.015   5.004 -1.1419  1.6377 -0.9044
35016SOL     OW 7300   8.144   6.109   6.417  0.0330 -0.2195 -0.2629
35016SOL    HW1 7301   8.133   6.024   6.376  2.0438 -0.5306 -0.2654
35016SOL    HW2 7302   8.215   6.096   6.481 -0.0980  1.2739  0.2293
35017SOL     OW 7303   1.729   8.909   5.946  0.0199  0.3341  0.1093
35017SOL    HW1 7304   1.740   8.943   5.857  1.2528 -0.1095  0.0744
35017SOL    HW2 7305   1.652   8.852   5.940  0.5382 -0.2922 -0.8753
35018SOL     OW 7306   6.417   3.482   6.059  0.2259  0.7792  0.2912
35018SOL    HW1 7307   6.427   3.479   5.964  1.7549 -0.3829  0.4333
35018SOL    HW2 7308   6.477   3.551   6.087  2.0525 -0.8367  0.5773
35019SOL     OW 7309   1.247   9.611   6.195 -0.1309 -0.3883  0.3365
35019SOL    HW1 7310   1.283   9.665   6.266  2.4406 -0.4384 -0.8318
35019SOL    HW2 7311   1.321   9.557   6.166 -0.8108  0.2547 -2.9697
35020SOL     OW 7312   1.338   0.556   4.647  0.4511  0.0023 -0.9869
35020SOL    HW1 7313   1.243   0.567   4.642  0.3727  1.7520  2.0158
35020SOL    HW2 7314   1.373   0.637   4.610  0.7493 -0.2482 -1.2538
35021SOL     OW 7315   1.701   8.766   4.218 -0.0346 -0.4684  0.0609
35021SOL    HW1 7316   1.673   8.714   4.143  0.5305 -1.3220  0.4263
35021SOL    HW2 7317   1.711   8.703   4.289  0.5997  0.1426  0.5346
35022SOL     OW 7318   5.438  10.534   6.613  0.2578  0.4192 -0.1476
35022SOL    HW1 7319   5.397  10.612   6.577 -0.1478  0.0151 -0.5687
35022SOL    HW2 7320   5.393  10.519   6.696 -0.4362 -0.0001 -0.5904
35023SOL     OW 7321   3.060   2.096   5.895 -0.0196  0.5093 -0.6659
35023SOL    HW1 7322   3.075   2.189   5.879  0.7417  0.4906 -0.1192
35023SOL    HW2 7323   3.015   2.065   5.817 -1.6162  1.6458 -0.2501
35024SOL     OW 7324   3.906   9.949  10.613  0.5824  0.8300 -0.4207
35024SOL    HW1 7325   3.920  10.019  10.677 -0.1027  0.4218  0.1821
35024SOL    HW2 7326   3.883   9.995  10.532  2.5838  1.4019 -0.7188
35025SOL     OW 7327   0.954   7.257   8.616  0.2320 -0.4597  0.1145
35025SOL    HW1 7328   0.876   7.229   8.568 -0.4975 -0.9999  1.5727
35025SOL    HW2 7329   0.958   7.200   8.692  2.2349 -0.6308 -0.0550
35026SOL     OW 7330   9.684   9.561   3.046 -0.0248  0.1160 -0.1561
35026SOL    HW1 7331   9.718   9.481   3.085 -2.5264 -0.6092  0.7327
35026SOL    HW2 7332   9.675   9.622   3.120  2.6493  1.6196 -0.9438
35027SOL     OW 7333   6.035   5.578   0.365 -0.1571 -0.1498  0.2927
35027SOL    HW1 7334   6.099   5.619   0.307 -1.1438  0.6228 -0.2884
35027SOL    HW2 7335   5.963   5.640   0.369 -0.4951 -0.5962  1.6576
35028SOL     OW 7336   5.199   8.165   0.307  0.2570 -0.4047  0.1508
35028SOL    HW1 7337   5.217   8.172   0.401  0.7997 -0.8393  0.0855
35028SOL    HW2 7338   5.283   8.185   0.265 -0.7435  3.4073 -0.4153
35029SOL     OW 7339   7.936   8.073  10.408  0.6631  0.1299 -0.2694
35029SOL    HW1 7340   8.012   8.048  10.355 -0.6918 -1.2480 -1.6737
35029SOL    HW2 7341   7.917   7.995  10.461  0.6638  0.7221  0.6134
35030SOL     OW 7342   5.104   3.686   3.805 -0.1278  0.3727 -0.0347
35030SOL    HW1 7343   5.162   3.609   3.800  0.3594  0.8268 -1.8675
35030SOL    HW2 7344   5.067   3.681   3.893  1.1408 -1.0633  0.4749
35031SOL     OW 7345   9.270   1.377   2.349 -0.2822  0.3400 -0.0057
35031SOL    HW1 7346   9.302   1.367   2.439 -0.1096 -1.2356 -0.2018
35031SOL    HW2 7347   9.307   1.459   2.318  1.5794 -0.2209  0.6089
35032SOL     OW 7348   9.368   9.657   8.315  0.2282  0.0984 -0.4961
35032SOL    HW1 7349   9.324   9.615   8.241 -0.3223  0.8606 -0.6085
35032SOL    HW2 7350   9.443   9.701   8.277  1.1459 -1.2267 -0.3009
35033SOL     OW 7351   4.777   6.589   2.747  0.2531 -0.3085 -0.0302
35033SOL    HW1 7352   4.854   6.571   2.802 -1.3880 -2.0262  1.9170
35033SOL    HW2 7353   4.711   6.527   2.779 -1.5697  0.2466 -2.4519
35034SOL     OW 7354   7.670   9.904   6.584 -0.1127 -0.0821 -0.2338
35034SOL    HW1 7355   7.603   9.927   6.520  1.7451  0.5168 -2.0724
35034SOL    HW2 7356   7.693   9.813   6.563  1.4344  0.5324 -1.3651
35035SOL     OW 7357   8.678   1.921   2.168 -0.0045  0.0073  0.2025
35035SOL    HW1 7358   8.654   2.014   2.175 -2.0175 -0.3932 -0.5569
35035SOL    HW2 7359   8.769   1.922   2.139  0.8352  1.7009  2.5645
35036SOL     OW 7360   4.172   6.970  10.412 -0.0845 -0.1562  0.0681
35036SOL    HW1 7361   4.083   6.953  10.382 -0.1394  0.5973 -0.2141
35036SOL    HW2 7362   4.219   7.000  10.335 -0.8209  4.0835  1.0444
35037SOL     OW 7363   8.443   4.266   6.241  0.0478 -0.4916 -0.0577
35037SOL    HW1 7364   8.360   4.310   6.258 -0.0680 -1.1819  1.3354
35037SOL    HW2 7365   8.420   4.175   6.222  0.4496 -0.6053 -0.0239
35038SOL     OW 7366  10.147  10.625   0.710  0.7238  0.2674  0.1617
35038SOL    HW1 7367  10.237  10.658   0.710  0.9836 -0.3761  1.0812
35038SOL    HW2 7368  10.148  10.554   0.646  0.3784  1.4421 -1.1890
35039SOL     OW 7369   1.493   2.413   9.634 -0.0870 -0.1238  0.9046
35039SOL    HW1 7370   1.436   2.338   9.618 -0.2642 -0.1336  1.5460
35039SOL    HW2 7371   1.517   2.405   9.726  1.4800 -0.4897  0.5011
35040SOL     OW 7372   5.778   4.842   1.247 -0.2742  0.1498 -0.4447
35040SOL    HW1 7373   5.697   4.883   1.278 -1.1462 -1.4177 -0.5575
35040SOL    HW2 7374   5.815   4.905   1.185 -0.5860  1.5656  0.7521
35041SOL     OW 7375   2.586   5.173   8.847  0.0053  0.5789  0.5369
35041SOL    HW1 7376   2.601   5.240   8.914  1.0516 -0.4810  1.4119
35041SOL    HW2 7377   2.555   5.221   8.771 -0.9136  1.8576  1.6819
35042SOL     OW 7378   1.863   5.083   9.051  0.2861  0.4176 -0.2049
35042SOL    HW1 7379   1.792   5.141   9.024 -0.4619  0.5317  1.7802
35042SOL    HW2 7380   1.900   5.125   9.129  0.9329 -0.8354  0.1994
35043SOL     OW 7381   9.724   6.829   2.904 -0.0651 -0.1960 -0.5580
35043SOL    HW1 7382   9.680   6.832   2.819  0.0963 -0.4601 -0.6530
35043SOL    HW2 7383   9.778   6.749   2.900  0.1014 -0.0983 -0.2878
35044SOL     OW 7384   4.314   9.298   8.698 -0.0584 -0.6855 -0.4036
35044SOL    HW1 7385   4.382   9.325   8.637  1.3650 -2.1260  0.4636
35044SOL    HW2 7386   4.259   9.376   8.710  1.9110  0.7888 -0.4964
35045SOL     OW 7387   9.555  10.043   2.470  0.6563  0.6706 -0.2643
35045SOL    HW1 7388   9.503   9.965   2.456  1.4458  0.1456 -0.3389
35045SOL    HW2 7389   9.584  10.069   2.383  2.4486 -0.4143 -0.0375
35046SOL     OW 7390   7.982   7.999   4.335 -0.1605  0.2933  0.1295
35046SOL    HW1 7391   7.909   8.015   4.395  0.2000  2.4020  0.0869
35046SOL    HW2 7392   8.060   8.014   4.388  0.2508 -1.2297 -0.0145
35047SOL     OW 7393   7.646   3.929   8.610  0.5123 -0.1069  0.1877
35047SOL    HW1 7394   7.735   3.962   8.622 -0.1562  1.8915  0.0005
35047SOL    HW2 7395   7.589   4.002   8.635 -1.0910 -1.3818  0.4407
35048SOL     OW 7396  10.104   9.781   8.942 -0.3231 -0.1093 -0.5498
35048SOL    HW1 7397  10.084   9.768   8.849  0.2071  2.7822 -1.1591
35048SOL    HW2 7398  10.143   9.868   8.946  1.3273 -0.8651  2.1785
35049SOL     OW 7399   8.703   7.715   7.767  0.1678 -0.0362  0.3085
35049SOL    HW1 7400   8.630   7.700   7.707  1.7198  1.1433 -1.9840
35049SOL    HW2 7401   8.713   7.810   7.770  2.8737 -0.1691 -1.1665
35050SOL     OW 7402   3.419   3.698   3.303 -0.6883  0.0561  0.3197
35050SOL    HW1 7403   3.324   3.693   3.298 -0.9040  1.4947  2.0993
35050SOL    HW2 7404   3.437   3.787   3.334  1.2494 -0.1490 -0.0696
35051SOL     OW 7405  10.031   0.985   5.209  0.0470 -0.2899  0.1374
35051SOL    HW1 7406  10.121   0.974   5.179  0.0859 -0.0089  0.1529
35051SOL    HW2 7407   9.979   0.929   5.151  0.4032 -1.7008  1.1003
35052SOL     OW 7408   7.013   7.925   7.510 -0.3085 -0.3411  0.0267
35052SOL    HW1 7409   7.083   7.905   7.449 -1.0736  0.3978 -1.1332
35052SOL    HW2 7410   6.964   7.996   7.468 -0.2682  0.9102  1.9679
35053SOL     OW 7411  10.648   5.282   0.655  0.6220 -0.6657 -0.0521
35053SOL    HW1 7412  10.673   5.374   0.651  1.3583 -0.8630 -0.2157
35053SOL    HW2 7413  10.580   5.272   0.589  0.4666 -0.2186  0.0386
35054SOL     OW 7414   8.527   5.193   6.677 -0.0138 -0.4223 -0.1833
35054SOL    HW1 7415   8.547   5.143   6.756  0.4156  2.8900  2.0102
35054SOL    HW2 7416   8.445   5.239   6.698 -0.0987  0.2597 -1.8244
35055SOL     OW 7417   5.060   1.174   3.953  0.4333 -0.1373  0.0761
35055SOL    HW1 7418   5.076   1.236   3.882 -1.2735 -0.8898 -1.0077
35055SOL    HW2 7419   5.074   1.088   3.913 -0.8201 -0.5828  0.5710
35056SOL     OW 7420   6.383   8.142   5.091 -0.6906 -0.1861 -0.8069
35056SOL    HW1 7421   6.441   8.070   5.114 -1.0621 -0.6669 -1.3342
35056SOL    HW2 7422   6.324   8.150   5.166 -2.0414 -1.8927 -1.6033
35057SOL     OW 7423   4.347   2.423   1.268  0.0911 -0.1755  0.5067
35057SOL    HW1 7424   4.353   2.491   1.335  0.5425  0.5751 -0.2782
35057SOL    HW2 7425   4.382   2.464   1.189  2.6167 -2.0085  0.5414
35058SOL     OW 7426   3.394   6.371   2.607 -0.3424  0.2388  0.0328
35058SOL    HW1 7427   3.384   6.296   2.665  0.6892 -0.0225 -0.1057
35058SOL    HW2 7428   3.395   6.333   2.519 -3.5720  0.7596 -0.3709
35059SOL     OW 7429   9.842   7.210   1.901  0.5814  0.0880 -0.0873
35059SOL    HW1 7430   9.853   7.124   1.941  0.8047  0.7460  1.3189
35059SOL    HW2 7431   9.754   7.237   1.924  0.6583  0.4179 -0.1697
35060SOL     OW 7432   1.222   6.509   7.332 -0.2879  0.1162  0.2166
35060SOL    HW1 7433   1.191   6.487   7.245  0.4020 -0.6509  0.1536
35060SOL    HW2 7434   1.307   6.551   7.317  0.2746 -0.8738  0.5609
35061SOL     OW 7435   5.512   2.506  10.407  0.1955  0.4846  0.2009
35061SOL    HW1 7436   5.589   2.464  10.367 -1.8996 -1.8349 -1.7214
35061SOL    HW2 7437   5.548   2.559  10.477  3.7599  1.3053 -1.9848
35062SOL     OW 7438   6.187   0.247   8.787  0.0265  0.3997  0.3361
35062SOL    HW1 7439   6.247   0.185   8.746 -0.6508 -0.4136  0.5561
35062SOL    HW2 7440   6.123   0.193   8.832 -0.2281  1.2669  1.0526
35063SOL     OW 7441   4.366   1.678   1.742 -0.2115  0.2793 -0.3095
35063SOL    HW1 7442   4.294   1.738   1.724 -1.6428 -0.1814  3.0446
35063SOL    HW2 7443   4.329   1.591   1.729  0.3729  0.0535 -0.5057
35064SOL     OW 7444   2.574   2.966   4.015  0.2205  0.3440 -0.2526
35064SOL    HW1 7445   2.540   3.051   3.988 -1.7963  0.6104  2.6201
35064SOL    HW2 7446   2.638   2.987   4.083  1.4505 -0.3953 -1.1613
35065SOL     OW 7447   0.971   0.504   8.016  0.4164 -0.3424 -0.5864
35065SOL    HW1 7448   1.012   0.437   8.070  1.3375  0.6002 -0.0746
35065SOL    HW2 7449   0.905   0.545   8.073  0.8552  0.1383 -0.4153
35066SOL     OW 7450   7.021   1.696   6.201  0.3372  0.8457 -0.2620
35066SOL    HW1 7451   7.066   1.698   6.286  0.1508  1.2323 -0.1694
35066SOL    HW2 7452   6.976   1.612   6.200  0.3039  0.8584  0.0408
35067SOL     OW 7453   5.362   3.795   7.333 -0.0948  0.5325  0.6137
35067SOL    HW1 7454   5.363   3.887   7.307  0.2494  0.4037  0.1699
35067SOL    HW2 7455   5.358   3.746   7.250 -0.8903  0.1542  0.8578
35068SOL     OW 7456   2.077   0.948   8.079 -0.3006  0.1977 -0.2308
35068SOL    HW1 7457   2.068   0.962   8.173  0.5630 -0.4785 -0.0374
35068SOL    HW2 7458   2.084   1.036   8.043  0.9628  0.4414  0.5239
35069SOL     OW 7459   8.627   7.493  10.083 -0.4929  0.7022  0.5759
35069SOL    HW1 7460   8.667   7.569  10.041 -1.7781  0.9261 -0.3057
35069SOL    HW2 7461   8.599   7.525  10.169  0.5873  0.7113  0.9402
35070SOL     OW 7462   6.811   9.656   2.856 -0.0878 -0.0778 -0.5485
35070SOL    HW1 7463   6.725   9.661   2.899  0.5008  1.0455  0.5647
35070SOL    HW2 7464   6.829   9.745   2.828  0.3950 -0.4483 -1.4642
35071SOL     OW 7465  10.535   4.708   6.640  0.4211  0.0088  0.2603
35071SOL    HW1 7466  10.492   4.789   6.611 -1.2703 -0.7097  0.6039
35071SOL    HW2 7467  10.628   4.726   6.632  0.0805  1.2848 -1.6238
35072SOL     OW 7468   3.655   8.314  10.643  0.4878 -0.3815  0.3592
35072SOL    HW1 7469   3.571   8.281  10.611 -0.3852  2.7144 -1.0274
35072SOL    HW2 7470   3.647   8.312  10.738 -1.9830  1.4114  0.3067
35073SOL     OW 7471   1.323   3.909   4.890 -0.1737  0.7706 -0.4634
35073SOL    HW1 7472   1.240   3.863   4.883  0.6776 -0.7744 -0.9261
35073SOL    HW2 7473   1.308   3.975   4.958 -1.6060  0.1609 -0.1435
35074SOL     OW 7474   0.583   8.617   6.276 -0.1483 -0.6481  0.4308
35074SOL    HW1 7475   0.582   8.676   6.201 -2.1616 -0.2408  0.7269
35074SOL    HW2 7476   0.505   8.640   6.326 -1.6362 -4.2245  0.0489
35075SOL     OW 7477  10.612   8.973   3.526 -0.3961 -0.4269 -0.1726
35075SOL    HW1 7478  10.706   8.951   3.522  0.0913  1.4910 -0.3021
35075SOL    HW2 7479  10.598   8.997   3.618 -0.4209  0.5460 -0.4173
35076SOL     OW 7480   0.966   1.865   0.649  0.5229  0.0141 -0.0481
35076SOL    HW1 7481   1.044   1.830   0.692 -0.5801  0.1729  2.2144
35076SOL    HW2 7482   0.894   1.812   0.682 -0.3922 -0.0546 -1.9943
35077SOL     OW 7483  10.174   9.013   0.714  0.2258  0.3391  0.5210
35077SOL    HW1 7484  10.201   8.951   0.781  0.1137 -1.6996 -1.2316
35077SOL    HW2 7485  10.193   8.969   0.631  2.1991  3.5210 -0.9033
35078SOL     OW 7486   1.615   0.469   7.342 -0.1522  0.0648  0.1105
35078SOL    HW1 7487   1.660   0.505   7.418  1.1439  0.0824 -0.6323
35078SOL    HW2 7488   1.635   0.375   7.344 -1.0959 -0.1427  0.4272
35079SOL     OW 7489   1.256   5.585   3.957 -0.3839 -0.1419 -0.1069
35079SOL    HW1 7490   1.331   5.541   3.996  0.5372  0.0728 -1.5694
35079SOL    HW2 7491   1.222   5.641   4.027  1.0863  0.0722  0.4714
35080SOL     OW 7492   0.458   7.672   0.780  0.1144  0.0592 -0.7026
35080SOL    HW1 7493   0.554   7.675   0.789  0.1938 -0.7974 -1.2313
35080SOL    HW2 7494   0.428   7.750   0.828  1.1098  0.7288 -1.1170
35081SOL     OW 7495   6.948   4.463   2.950  0.6197  0.1130 -0.7204
35081SOL    HW1 7496   6.907   4.454   2.864  0.0095  0.3538 -0.4616
35081SOL    HW2 7497   7.008   4.537   2.940  0.2597  0.3934 -0.8319
35082SOL     OW 7498  10.324   4.365   5.376 -0.6359 -0.2213 -0.2296
35082SOL    HW1 7499  10.232   4.350   5.399 -0.7636  1.5970  0.6040
35082SOL    HW2 7500  10.340   4.457   5.398  0.4122  0.5511 -3.6031
35083SOL     OW 7501   8.433   9.537   5.899  0.2326 -0.3714 -0.4596
35083SOL    HW1 7502   8.356   9.551   5.954 -0.2312 -1.7868 -0.6983
35083SOL    HW2 7503   8.506   9.576   5.949 -0.4777  0.1259  0.2141
35084SOL     OW 7504   7.051   8.198   4.226 -0.1049 -0.0906 -0.2145
35084SOL    HW1 7505   7.136   8.241   4.226  0.7719 -1.7217 -1.7283
35084SOL    HW2 7506   7.048   8.150   4.309  0.8651 -0.7750 -0.5678
35085SOL     OW 7507   2.362   2.931   5.887 -0.6211 -0.1266 -0.1213
35085SOL    HW1 7508   2.438   2.932   5.944 -0.3534 -1.1148 -0.4428
35085SOL    HW2 7509   2.362   3.017   5.844  0.2024 -0.0611  0.0077
35086SOL     OW 7510   5.778  10.014   4.661  0.2162 -0.3729  0.0265
35086SOL    HW1 7511   5.702  10.039   4.714 -0.0652  0.5475 -0.7981
35086SOL    HW2 7512   5.826   9.953   4.717 -0.3558  0.1630  1.1438
35087SOL     OW 7513   3.703   1.145   6.950  0.1429  0.3227 -0.3175
35087SOL    HW1 7514   3.637   1.186   6.894 -0.6630 -0.2772  0.1760
35087SOL    HW2 7515   3.675   1.054   6.958  1.4276 -0.1331 -0.6740
35088SOL     OW 7516   0.347   0.870   3.871  0.4961  0.0551  0.1376
35088SOL    HW1 7517   0.435   0.837   3.852  0.9616  0.7321  0.9906
35088SOL    HW2 7518   0.311   0.894   3.786  1.6403  0.9540 -0.1220
35089SOL     OW 7519   2.104  10.209   8.336 -0.0252 -0.2508 -0.1706
35089SOL    HW1 7520   2.016  10.184   8.307  0.0363 -0.3314 -0.2888
35089SOL    HW2 7521   2.113  10.166   8.422 -0.0097 -0.4421 -0.2669
35090SOL     OW 7522   9.211   0.837   4.381  0.9287  0.2758  0.5726
35090SOL    HW1 7523   9.285   0.780   4.361  0.0808 -0.9647  0.8649
35090SOL    HW2 7524   9.203   0.834   4.476 -0.3626 -0.7737  0.4590
35091SOL     OW 7525   9.290   2.060   3.389  0.1173  0.1367 -0.3105
35091SOL    HW1 7526   9.254   2.001   3.322 -1.7882  1.7419 -0.7882
35091SOL    HW2 7527   9.250   2.031   3.471 -0.3419  0.3746 -0.4482
35092SOL     OW 7528   4.818   6.013   6.460  0.0425 -0.4987  0.9407
35092SOL    HW1 7529   4.909   5.987   6.477 -0.0113 -1.2851  0.0959
35092SOL    HW2 7530   4.765   5.944   6.500 -0.1166 -1.3126 -0.5837
35093SOL     OW 7531   1.870   5.757   9.077 -0.8368  0.2532  0.6032
35093SOL    HW1 7532   1.805   5.827   9.075 -4.5484 -2.8658 -2.6526
35093SOL    HW2 7533   1.848   5.706   9.154 -2.0108 -0.5297 -0.2329
35094SOL     OW 7534   2.320   6.988   6.448  0.1195  0.2429 -0.2278
35094SOL    HW1 7535   2.263   6.987   6.525  0.2930  2.7788  0.0355
35094SOL    HW2 7536   2.264   6.964   6.375 -0.7170  0.4294  0.3468
35095SOL     OW 7537   2.193   0.455   2.025  0.2940 -0.0478 -0.5303
35095SOL    HW1 7538   2.183   0.543   1.989 -1.5429 -0.2436 -0.6330
35095SOL    HW2 7539   2.287   0.441   2.029  0.6548  2.1220  0.0030
35096SOL     OW 7540   8.715   4.877   2.451  0.0945 -0.8118 -0.2810
35096SOL    HW1 7541   8.725   4.817   2.525 -0.4631  0.0219  0.4851
35096SOL    HW2 7542   8.715   4.964   2.490 -1.5039 -0.4114 -1.1077
35097SOL     OW 7543   5.372   4.952  10.499 -0.2974  0.0497  0.4685
35097SOL    HW1 7544   5.325   5.030  10.471 -0.1641  0.2199  0.7061
35097SOL    HW2 7545   5.355   4.887  10.431  2.0993  1.2052 -1.3806
35098SOL     OW 7546   7.940   9.242   3.831  0.0718  0.5025 -0.3415
35098SOL    HW1 7547   8.030   9.246   3.861  0.1438 -1.0156 -0.2397
35098SOL    HW2 7548   7.892   9.204   3.905 -0.2972 -0.3700 -1.0039
35099SOL     OW 7549   6.428   3.306   4.322  0.4660  0.2025 -0.0649
35099SOL    HW1 7550   6.504   3.336   4.272  0.6708  2.7775  1.5681
35099SOL    HW2 7551   6.450   3.326   4.413 -1.4302 -0.6953  0.6540
35100SOL     OW 7552   4.238   1.647   5.739 -0.1131 -0.3000 -0.0995
35100SOL    HW1 7553   4.170   1.591   5.776  0.6456 -1.0405  0.2072
35100SOL    HW2 7554   4.251   1.614   5.650 -0.1204 -0.1973 -0.1383
35101SOL     OW 7555   7.015   2.670   1.470  0.1658 -0.4054 -0.0060
35101SOL    HW1 7556   7.025   2.737   1.538  0.5753  0.4405 -0.8921
35101SOL    HW2 7557   7.105   2.638   1.454  0.3798  0.8936 -1.6252
35102SOL     OW 7558   0.488   2.558   5.537 -0.0569  0.1126  0.5605
35102SOL    HW1 7559   0.567   2.567   5.590  0.7208 -0.7214 -0.4197
35102SOL    HW2 7560   0.520   2.540   5.449 -1.3318  1.1298 -0.1387
35103SOL     OW 7561   7.577   3.358   9.609 -0.3522  0.2009 -0.6500
35103SOL    HW1 7562   7.664   3.372   9.573 -0.7329 -0.0982 -1.7246
35103SOL    HW2 7563   7.551   3.271   9.577  0.1636 -1.1304  2.1765
35104SOL     OW 7564   8.988   7.875   6.325  0.3999  0.0744  0.0363
35104SOL    HW1 7565   8.906   7.827   6.328  1.3072 -1.4884  1.5598
35104SOL    HW2 7566   9.017   7.880   6.416  0.7255  2.9381 -0.1391
35105SOL     OW 7567   6.503  10.168   5.188 -0.0239  0.1261 -0.1177
35105SOL    HW1 7568   6.442  10.242   5.197  0.5784  0.6267 -0.0801
35105SOL    HW2 7569   6.518  10.138   5.278 -1.2695 -0.8873 -0.2205
35106SOL     OW 7570   2.969   4.084   1.548 -0.2244 -0.2505  0.3161
35106SOL    HW1 7571   3.059   4.055   1.563 -0.3305 -0.1483  1.1690
35106SOL    HW2 7572   2.973   4.135   1.467  0.5265 -0.0384  0.4883
35107SOL     OW 7573   3.645   0.897   8.952 -0.5125 -0.8281  0.1265
35107SOL    HW1 7574   3.662   0.930   8.864 -0.9438 -2.0757 -0.4366
35107SOL    HW2 7575   3.599   0.969   8.995  1.3323  0.5214 -0.0302
35108SOL     OW 7576   7.273   7.211   2.339 -0.6866  0.4054 -0.1308
35108SOL    HW1 7577   7.213   7.193   2.411 -1.5202  2.1769 -0.3246
35108SOL    HW2 7578   7.263   7.137   2.280 -1.0193 -0.3981  0.9069
35109SOL     OW 7579   4.285   1.471   9.636  0.1238 -0.4274 -0.0253
35109SOL    HW1 7580   4.351   1.411   9.602  1.6440  0.7581  0.7113
35109SOL    HW2 7581   4.334   1.535   9.687 -1.6083  0.5011  0.5768
35110SOL     OW 7582   7.587   5.945   3.110  0.1893 -0.0786 -0.4243
35110SOL    HW1 7583   7.614   5.932   3.201 -0.8890 -0.9766 -0.2204
35110SOL    HW2 7584   7.634   6.024   3.083 -1.1785  1.5471  1.6338
35111SOL     OW 7585   2.103   1.471   9.770  0.1816  0.0939  0.4158
35111SOL    HW1 7586   2.131   1.559   9.793 -0.6045  0.2902  0.6255
35111SOL    HW2 7587   2.071   1.433   9.852 -2.0005  0.5595 -0.1599
35112SOL     OW 7588   3.084   7.589   8.579  0.0920  0.0740  0.1061
35112SOL    HW1 7589   3.062   7.660   8.639  0.0819  1.1362 -1.1112
35112SOL    HW2 7590   3.137   7.529   8.631 -1.7974 -0.2063  1.8104
35113SOL     OW 7591   6.762   5.908   1.924 -0.2751 -0.6086 -0.1303
35113SOL    HW1 7592   6.713   5.980   1.884 -1.5968 -0.5382  1.5142
35113SOL    HW2 7593   6.823   5.950   1.985 -2.7115 -0.8205  2.6717
35114SOL     OW 7594   4.195   7.721   6.882 -0.3667 -0.6902 -0.2089
35114SOL    HW1 7595   4.236   7.656   6.824  1.1960 -0.1154  0.2360
35114SOL    HW2 7596   4.131   7.765   6.826  1.7074  0.4500 -1.8155
35115SOL     OW 7597   8.848   4.686   6.074 -1.2060  0.0352 -0.2897
35115SOL    HW1 7598   8.776   4.626   6.094  0.5359 -1.3258  2.6328
35115SOL    HW2 7599   8.913   4.670   6.143  1.1871  2.3958 -1.7644
35116SOL     OW 7600   6.139  10.272   4.683  0.1670  0.0364 -0.1434
35116SOL    HW1 7601   6.129  10.352   4.734 -0.4363  0.4341 -0.8584
35116SOL    HW2 7602   6.092  10.205   4.733 -1.4292  0.6738 -0.7272
35117SOL     OW 7603   4.628   0.936   3.462 -0.0688 -0.4835 -0.0199
35117SOL    HW1 7604   4.634   0.855   3.512 -0.6030 -0.7751 -0.4131
35117SOL    HW2 7605   4.684   0.998   3.509  1.8656 -1.5949 -0.7502
35118SOL     OW 7606   9.401   5.238   6.063  0.7828 -0.2064 -0.6282
35118SOL    HW1 7607   9.370   5.176   5.996 -0.1805 -2.6351  1.8578
35118SOL    HW2 7608   9.496   5.232   6.058  0.7422 -0.1739 -1.8778
35119SOL     OW 7609   9.314   6.522   9.764 -0.8912  0.4339  0.1728
35119SOL    HW1 7610   9.281   6.453   9.822 -0.4058  0.0958  0.0604
35119SOL    HW2 7611   9.270   6.508   9.681  0.8500 -1.1785 -0.5521
35120SOL     OW 7612   7.862   0.569   0.675 -0.0001 -0.1070  0.1788
35120SOL    HW1 7613   7.774   0.590   0.706 -0.3203 -1.6834  0.4323
35120SOL    HW2 7614   7.892   0.499   0.733  1.7353  0.8894  0.5702
35121SOL     OW 7615   9.069   9.073   7.085 -0.6001 -0.5072  0.7228
35121SOL    HW1 7616   8.985   9.041   7.053 -0.3626 -1.5644  1.1243
35121SOL    HW2 7617   9.117   8.994   7.110  0.5455  0.0733  0.4294
35122SOL     OW 7618   5.585   9.298   4.534 -0.0452  0.2637  0.1162
35122SOL    HW1 7619   5.667   9.292   4.485  0.1489  0.1023  0.4520
35122SOL    HW2 7620   5.602   9.249   4.615  0.9311  3.5733  2.1328
35123SOL     OW 7621   4.079   6.223   2.528  0.6919  0.4691  0.1231
35123SOL    HW1 7622   4.002   6.223   2.585 -1.2011  1.3340 -2.2444
35123SOL    HW2 7623   4.124   6.141   2.549 -0.5227  0.2179  2.0082
35124SOL     OW 7624   3.490   1.939   9.155 -0.5639 -0.1754  0.3088
35124SOL    HW1 7625   3.541   1.935   9.236  0.5254 -0.3345 -0.3634
35124SOL    HW2 7626   3.418   1.999   9.175  2.0399  3.2858  0.1070
35125SOL     OW 7627   1.838   8.511   7.550  0.4942 -0.1195  0.0735
35125SOL    HW1 7628   1.931   8.520   7.569  0.1767  1.4584  1.1204
35125SOL    HW2 7629   1.794   8.546   7.627 -0.9635  0.1695 -0.8392
35126SOL     OW 7630   5.867   7.443   4.194 -0.9316  0.2964 -0.0368
35126SOL    HW1 7631   5.797   7.461   4.132 -0.2908  0.5665 -0.7000
35126SOL    HW2 7632   5.866   7.348   4.204 -0.7807  0.2131 -0.7792
35127SOL     OW 7633  10.215   8.715   8.900 -0.2118  0.0642  0.0071
35127SOL    HW1 7634  10.138   8.744   8.850 -1.2003  0.5817  1.7272
35127SOL    HW2 7635  10.180   8.654   8.965  0.9016 -0.0455  0.5322
35128SOL     OW 7636  10.236   0.524   9.944  0.3323 -0.6023 -0.1089
35128SOL    HW1 7637  10.152   0.562   9.971  0.1403 -0.8090 -0.3989
35128SOL    HW2 7638  10.215   0.478   9.863  0.8449 -0.2015 -0.4715
35129SOL     OW 7639   2.925   7.447   4.857 -0.3297 -0.1290  0.3922
35129SOL    HW1 7640   2.867   7.389   4.809 -1.7665  0.1524  1.6874
35129SOL    HW2 7641   2.881   7.532   4.856 -0.4195 -0.1098  2.1378
35130SOL     OW 7642   1.716   0.781   9.175 -0.1713 -0.4858 -0.3944
35130SOL    HW1 7643   1.769   0.844   9.224  1.4555 -1.1256 -1.2452
35130SOL    HW2 7644   1.763   0.768   9.093 -1.8483 -0.8503 -1.3566
35131SOL     OW 7645   3.314  10.647   8.703  0.0697 -0.5548  0.0156
35131SOL    HW1 7646   3.362  10.566   8.686 -0.5122 -0.8996 -0.0241
35131SOL    HW2 7647   3.355  10.712   8.646  2.1052 -0.2206  1.7294
35132SOL     OW 7648  10.369   9.837   1.043  0.1478  0.4643  0.2864
35132SOL    HW1 7649  10.441   9.869   0.989 -0.1591  2.1557  0.8085
35132SOL    HW2 7650  10.350   9.909   1.103 -0.2822 -0.9230  1.9008
35133SOL     OW 7651   8.843  10.359   2.981 -0.2468  0.2351  0.0458
35133SOL    HW1 7652   8.861  10.265   2.978 -1.2016  0.0570 -1.4890
35133SOL    HW2 7653   8.761  10.367   3.029  0.2564  0.3804  0.9005
35134SOL     OW 7654   3.543   4.680   0.246  0.4383  0.0363  0.3989
35134SOL    HW1 7655   3.526   4.655   0.337  3.0900  2.0126  1.5630
35134SOL    HW2 7656   3.589   4.605   0.208  1.2253 -0.0032  1.3922
35135SOL     OW 7657   6.658   5.322   9.528  0.3398 -0.6878  0.0873
35135SOL    HW1 7658   6.661   5.285   9.616  0.0815 -3.5575 -0.9741
35135SOL    HW2 7659   6.742   5.297   9.489  1.0568  1.7831 -0.0995
35136SOL     OW 7660   8.585   9.989   5.038  0.4426 -0.0843  0.7506
35136SOL    HW1 7661   8.669  10.034   5.047 -0.2579  0.8710  3.4183
35136SOL    HW2 7662   8.608   9.896   5.040  1.4848  0.1465  0.4460
35137SOL     OW 7663   8.089   9.017   0.482 -0.6995  0.5761 -0.5513
35137SOL    HW1 7664   8.100   9.024   0.577 -0.6612  1.4682 -0.6170
35137SOL    HW2 7665   8.114   8.927   0.462 -1.5147  0.1260  0.3944
35138SOL     OW 7666   8.403   2.507   8.740 -0.4294 -0.6269 -0.2306
35138SOL    HW1 7667   8.311   2.527   8.725 -0.1426 -1.1101 -3.1197
35138SOL    HW2 7668   8.403   2.417   8.773 -0.9994 -0.3402  0.5974
35139SOL     OW 7669  10.028   9.421   2.493  0.3090  0.7737  0.2127
35139SOL    HW1 7670  10.063   9.423   2.404 -0.6242  1.2720 -0.1646
35139SOL    HW2 7671  10.104   9.429   2.550  0.8689  1.0040 -0.5620
35140SOL     OW 7672  10.144   9.269   9.688  0.3296  0.0427 -0.2719
35140SOL    HW1 7673  10.210   9.256   9.620 -0.7477 -1.0140 -1.1583
35140SOL    HW2 7674  10.127   9.181   9.721  1.3826  0.6157  1.9482
35141SOL     OW 7675  10.166   9.994   1.498  0.2709  0.3339 -0.0542
35141SOL    HW1 7676  10.170   9.982   1.592  1.6348 -1.1140 -0.2518
35141SOL    HW2 7677  10.087  10.047   1.483 -0.4055 -0.0864  1.8115
35142SOL     OW 7678   6.741  10.585   5.521 -0.7604 -0.1625  0.0331
35142SOL    HW1 7679   6.733  10.536   5.439  0.7356  0.4741 -0.5429
35142SOL    HW2 7680   6.823  10.555   5.560 -0.3954  1.0184  0.2381
35143SOL     OW 7681   8.428   7.562   7.977  0.4806 -0.6220  0.3950
35143SOL    HW1 7682   8.391   7.650   7.975 -1.2381 -1.3001  0.3422
35143SOL    HW2 7683   8.359   7.506   7.940  0.8145 -2.2205  2.0352
35144SOL     OW 7684   8.493   7.185   5.682  0.0476 -0.4478 -0.4274
35144SOL    HW1 7685   8.575   7.229   5.661 -1.1493  2.3746  0.3039
35144SOL    HW2 7686   8.426   7.239   5.640 -1.5424 -1.5455  0.5988
35145SOL     OW 7687   6.640   2.364   5.966  0.1002 -0.5027 -0.7700
35145SOL    HW1 7688   6.701   2.438   5.959 -0.3002 -0.2671 -2.0175
35145SOL    HW2 7689   6.690   2.297   6.013  0.7451  0.2610 -0.3199
35146SOL     OW 7690  10.400   8.540   8.391 -0.3347  0.2131 -0.3701
35146SOL    HW1 7691  10.374   8.554   8.300 -0.4445  0.2462 -0.3337
35146SOL    HW2 7692  10.470   8.604   8.406  0.8869 -0.9261 -0.9558
35147SOL     OW 7693   0.062   2.581   1.160 -0.1570  0.3586 -0.1494
35147SOL    HW1 7694   0.046   2.674   1.177 -1.9945 -0.1549  1.2368
35147SOL    HW2 7695   0.033   2.537   1.240  1.9498 -1.3261 -0.2406
35148SOL     OW 7696   5.813  10.138   9.470 -0.4659  0.6810  0.0292
35148SOL    HW1 7697   5.751  10.126   9.542  2.3598  0.0721  2.5681
35148SOL    HW2 7698   5.840  10.230   9.477  0.7993  0.2745  0.6380
35149SOL     OW 7699   8.548   4.777   0.197 -0.8004  0.4754 -0.4482
35149SOL    HW1 7700   8.549   4.710   0.128  0.1789  0.4331 -0.4146
35149SOL    HW2 7701   8.599   4.739   0.268  0.6292  1.6105 -0.8067
35150SOL     OW 7702   5.349   0.559   1.806 -0.0062 -0.0280  0.8126
35150SOL    HW1 7703   5.311   0.566   1.894 -3.0262 -1.5118 -0.2409
35150SOL    HW2 7704   5.406   0.482   1.811 -0.2931 -0.2121  1.4395
35151SOL     OW 7705   6.723   0.803   5.832  0.1083 -0.2216  0.1850
35151SOL    HW1 7706   6.713   0.893   5.863 -0.1336 -0.6386  1.3327
35151SOL    HW2 7707   6.763   0.756   5.905 -0.6574 -1.2632 -0.0398
35152SOL     OW 7708   8.693   6.775   8.815 -0.1923 -0.0726  0.1808
35152SOL    HW1 7709   8.610   6.797   8.857 -0.5404  1.4091 -1.1851
35152SOL    HW2 7710   8.706   6.843   8.748  2.1568 -0.2166  0.3813
35153SOL     OW 7711  10.049  10.490   6.926 -0.1438 -0.1741  0.3961
35153SOL    HW1 7712  10.051  10.584   6.944 -0.9892 -0.0484 -0.1181
35153SOL    HW2 7713   9.959  10.463   6.945 -0.6301 -0.3579 -1.8191
35154SOL     OW 7714   3.770   0.301   8.179  0.0520  0.0272 -0.1757
35154SOL    HW1 7715   3.750   0.364   8.248  0.0004 -0.1530 -0.0255
35154SOL    HW2 7716   3.685   0.279   8.140  0.1680  0.8404 -0.9271
35155SOL     OW 7717   1.818  10.499   7.155 -0.3466 -0.2693  0.0178
35155SOL    HW1 7718   1.735  10.543   7.136 -0.0882  1.5732  2.5891
35155SOL    HW2 7719   1.851  10.472   7.069 -2.9444  0.1092 -1.1980
35156SOL     OW 7720   7.359   8.710   3.720 -0.4535 -0.3002 -0.5040
35156SOL    HW1 7721   7.275   8.755   3.712  0.5647  1.9259  0.5760
35156SOL    HW2 7722   7.384   8.689   3.630 -0.0494  3.1802 -1.3236
35157SOL     OW 7723   0.098   5.902   5.833  0.0670 -0.1032  0.0472
35157SOL    HW1 7724   0.193   5.906   5.845  0.4426 -0.6219 -2.2901
35157SOL    HW2 7725   0.086   5.875   5.742 -2.3401  0.3588  0.1515
35158SOL     OW 7726   6.527   5.889   2.182  0.5170  0.0536  0.2468
35158SOL    HW1 7727   6.537   5.981   2.161 -1.1098  0.0812 -0.5377
35158SOL    HW2 7728   6.582   5.843   2.118 -0.3061  0.3959 -0.7296
35159SOL     OW 7729   0.121   4.803   9.216 -0.3623 -0.0797  0.5448
35159SOL    HW1 7730   0.092   4.712   9.212  0.9033 -0.4671 -0.3541
35159SOL    HW2 7731   0.216   4.799   9.206 -0.3753  1.3970 -0.5672
35160SOL     OW 7732   3.795   3.512   6.756  0.3521 -0.0355 -0.6145
35160SOL    HW1 7733   3.848   3.514   6.677  0.2084 -0.3314 -0.7195
35160SOL    HW2 7734   3.723   3.453   6.736  1.1459 -1.3776  0.2461
35161SOL     OW 7735   8.330   5.847  10.536  0.4266  0.8589  0.3129
35161SOL    HW1 7736   8.399   5.907  10.560  0.6678  1.7653 -2.2776
35161SOL    HW2 7737   8.338   5.837  10.441 -1.9230 -0.3548  0.1395
35162SOL     OW 7738   9.301   0.850   7.973 -0.4645  0.5646  0.0365
35162SOL    HW1 7739   9.358   0.827   8.046  0.6877  1.5210 -0.5253
35162SOL    HW2 7740   9.274   0.940   7.991  0.4824  1.1010 -1.0812
35163SOL     OW 7741   8.826   6.285  10.579 -0.1650 -0.7251 -0.0159
35163SOL    HW1 7742   8.849   6.197  10.549 -0.3723 -1.2132  1.1908
35163SOL    HW2 7743   8.734   6.295  10.557 -0.5465 -1.4139  1.1523
35164SOL     OW 7744   8.950   1.763   8.918  0.2144 -0.1899  0.2017
35164SOL    HW1 7745   8.983   1.699   8.855 -0.3271  0.0864 -0.3716
35164SOL    HW2 7746   8.982   1.847   8.886 -2.2804  0.3072 -1.3042
35165SOL     OW 7747   0.741   4.257   9.983  0.2755 -0.1384 -0.5429
35165SOL    HW1 7748   0.705   4.202   9.913 -0.4039  1.0953 -1.2059
35165SOL    HW2 7749   0.700   4.343   9.969  2.6888  1.0592 -0.6662
35166SOL     OW 7750   2.182   1.204   1.101 -0.1748  0.0130 -0.7456
35166SOL    HW1 7751   2.165   1.223   1.009  1.3731  1.0053 -0.8601
35166SOL    HW2 7752   2.253   1.264   1.126 -1.6752  0.9768  1.5647
35167SOL     OW 7753   3.246   4.650   5.845  0.0518 -0.1627  0.0117
35167SOL    HW1 7754   3.332   4.625   5.813  0.1883  0.2567  0.0392
35167SOL    HW2 7755   3.240   4.611   5.933  0.3562  0.1040  0.1525
35168SOL     OW 7756   0.569   8.216   5.975 -0.3809 -0.0012  0.7131
35168SOL    HW1 7757   0.536   8.306   5.978 -0.3419 -0.0143  1.7831
35168SOL    HW2 7758   0.658   8.224   5.940 -0.7746  0.2420 -0.2825
35169SOL     OW 7759   9.693  10.325   6.732 -0.1090 -0.0516 -0.2090
35169SOL    HW1 7760   9.710  10.245   6.781  0.1041  0.7855  1.1365
35169SOL    HW2 7761   9.606  10.312   6.694 -0.2151 -0.7822  0.2665
35170SOL     OW 7762   4.926   1.380   8.378 -0.0532  0.0696 -0.1578
35170SOL    HW1 7763   4.976   1.360   8.299 -1.5042  0.8804 -1.3222
35170SOL    HW2 7764   4.839   1.402   8.347 -0.8571 -0.2255  1.7379
35171SOL     OW 7765  10.441   9.257  10.584  0.2591  0.5606 -0.7944
35171SOL    HW1 7766  10.487   9.225  10.506  1.2676  0.3756 -0.1451
35171SOL    HW2 7767  10.385   9.183  10.611  0.1191  0.5267 -1.1763
35172SOL     OW 7768   1.502   4.322   9.987 -0.2290  0.1784  0.6440
35172SOL    HW1 7769   1.596   4.324   9.966 -0.3760 -1.9437 -0.4828
35172SOL    HW2 7770   1.476   4.414   9.985  1.4829  0.7157 -0.7312
35173SOL     OW 7771   9.571   4.060  10.295  0.8170 -0.0361 -0.2675
35173SOL    HW1 7772   9.640   4.010  10.338  0.0747  0.2073  1.2862
35173SOL    HW2 7773   9.514   3.994  10.257  1.5191 -0.2576 -0.9641
35174SOL     OW 7774   4.610   6.821   4.535 -0.2614  0.4935 -0.2985
35174SOL    HW1 7775   4.574   6.763   4.602  1.3903 -1.6716 -1.1773
35174SOL    HW2 7776   4.680   6.868   4.580 -1.3117  1.5381  0.2996
35175SOL     OW 7777  10.226   6.786   0.010  0.5574 -0.3408 -0.6167
35175SOL    HW1 7778  10.319   6.768   0.015  0.4736 -0.3978  1.1196
35175SOL    HW2 7779  10.188   6.744   0.087 -0.7595  0.5422 -0.7420
35176SOL     OW 7780   4.450   2.720   2.894  0.2039 -0.1285  0.0059
35176SOL    HW1 7781   4.359   2.749   2.903  0.2116 -0.2647  0.5187
35176SOL    HW2 7782   4.462   2.708   2.800  0.0341  1.0048 -0.1800
35177SOL     OW 7783   8.987   4.729   1.090 -0.2352  0.4226 -1.0257
35177SOL    HW1 7784   8.927   4.757   1.020  0.9060  1.6513 -1.5480
35177SOL    HW2 7785   8.972   4.792   1.160 -0.4479 -0.0382 -0.6475
35178SOL     OW 7786   7.111   7.311   0.988 -0.1846  0.8527  0.1747
35178SOL    HW1 7787   7.055   7.375   1.031  0.2662  1.1793  0.2818
35178SOL    HW2 7788   7.060   7.229   0.988 -0.0046  0.7258  1.7311
35179SOL     OW 7789   2.459   0.431   2.548 -0.1228  0.7423 -0.4702
35179SOL    HW1 7790   2.455   0.382   2.466  1.3414  0.2613 -0.2946
35179SOL    HW2 7791   2.402   0.506   2.534 -0.7779  0.0739 -1.5113
35180SOL     OW 7792   9.462   7.333   8.445 -0.3007 -0.2527 -0.2144
35180SOL    HW1 7793   9.459   7.283   8.363  2.4514  1.2657 -1.3578
35180SOL    HW2 7794   9.530   7.290   8.497  0.1397  0.6112 -0.0560
35181SOL     OW 7795   0.783   0.513   4.150 -0.0148 -0.2827  0.3057
35181SOL    HW1 7796   0.760   0.606   4.142  1.0941  0.2253  2.3126
35181SOL    HW2 7797   0.699   0.467   4.150 -0.6944  0.9066  1.1381
35182SOL     OW 7798   8.046   5.989  10.036 -0.1669  0.0315  0.3199
35182SOL    HW1 7799   7.979   6.026  10.094  0.5533  0.5741  0.8213
35182SOL    HW2 7800   8.081   5.914  10.084  0.5783  0.6072  0.6927
35183SOL     OW 7801   9.787   8.858   1.011 -0.1536  0.0309 -0.2998
35183SOL    HW1 7802   9.773   8.944   0.971 -4.3783 -0.9065 -1.3081
35183SOL    HW2 7803   9.776   8.873   1.105  0.8920  0.8161 -0.2877
35184SOL     OW 7804   7.889   7.199   4.080 -0.1188 -1.2474 -0.1879
35184SOL    HW1 7805   7.867   7.163   3.995 -0.4134 -0.1927 -0.5750
35184SOL    HW2 7806   7.809   7.192   4.131 -0.0017 -1.6878 -0.0592
35185SOL     OW 7807   5.428   4.054   4.907 -0.2623 -0.1101 -0.0868
35185SOL    HW1 7808   5.484   4.130   4.892 -0.9559  0.5451  0.4909
35185SOL    HW2 7809   5.350   4.091   4.949  0.3687 -1.4020  2.4406
35186SOL     OW 7810   8.003   2.203   9.755  0.5150 -0.4961  0.3611
35186SOL    HW1 7811   7.988   2.158   9.673 -1.4078  0.5382  0.0762
35186SOL    HW2 7812   8.093   2.180   9.780  1.0779 -0.9890 -1.9032
35187SOL     OW 7813  10.057   4.339   6.181  0.1439 -0.3751  0.1402
35187SOL    HW1 7814   9.967   4.323   6.150  0.8444 -1.3179 -1.5596
35187SOL    HW2 7815  10.086   4.254   6.214  0.9165 -0.4903 -0.7767
35188SOL     OW 7816   1.255   6.808   2.936  0.3071 -0.4924 -0.0972
35188SOL    HW1 7817   1.331   6.749   2.935  0.0129 -0.9937  1.8621
35188SOL    HW2 7818   1.183   6.754   2.904 -0.0550 -1.4301  2.1144
35189SOL     OW 7819   0.262   2.731   2.798  0.0213 -0.1348 -0.6653
35189SOL    HW1 7820   0.320   2.785   2.744  0.7419  0.2518  0.4460
35189SOL    HW2 7821   0.174   2.759   2.775  0.2163 -0.9737 -2.6551
35190SOL     OW 7822   7.494   8.273   0.788  0.2162 -0.1617  0.0367
35190SOL    HW1 7823   7.500   8.367   0.802 -1.3489 -0.2982  2.0070
35190SOL    HW2 7824   7.583   8.247   0.765  1.0482  1.5657  1.0932
35191SOL     OW 7825  10.136   4.197   5.864  0.3516 -0.4030  0.1990
35191SOL    HW1 7826  10.096   4.283   5.880  0.1814 -0.6192  0.9429
35191SOL    HW2 7827  10.062   4.137   5.859  0.5788 -0.9611  2.5216
35192SOL     OW 7828   8.015  10.545  10.589 -0.1673 -0.0502  0.4494
35192SOL    HW1 7829   8.071  10.623  10.594 -1.8397  1.1580  1.5465
35192SOL    HW2 7830   7.962  10.549  10.669 -1.9394 -1.0254 -0.6203
35193SOL     OW 7831   8.171   1.689   7.295  0.4903  0.3394  0.0445
35193SOL    HW1 7832   8.191   1.597   7.307 -1.6312 -0.3184 -0.9278
35193SOL    HW2 7833   8.123   1.693   7.212  1.4234  2.4797 -0.4752
35194SOL     OW 7834   0.004   8.847   4.163  0.2582 -0.1619  0.2018
35194SOL    HW1 7835  -0.076   8.840   4.111 -0.2191 -0.1715  0.9323
35194SOL    HW2 7836   0.047   8.926   4.129  0.9604 -1.2331 -1.5606
35195SOL     OW 7837   8.515   3.033   3.328 -0.3883  0.4616 -0.3633
35195SOL    HW1 7838   8.448   3.037   3.396 -0.8659  1.7625 -0.8814
35195SOL    HW2 7839   8.471   3.062   3.249  0.3596 -0.3134 -1.0864
35196SOL     OW 7840   0.489   0.551   7.011  0.2392  0.2462  0.1599
35196SOL    HW1 7841   0.429   0.476   7.007  1.8407 -1.1386  0.9840
35196SOL    HW2 7842   0.525   0.558   6.923  0.7595 -0.5596  0.2999
35197SOL     OW 7843   0.633   5.666   1.796  0.6757  0.0890 -0.0122
35197SOL    HW1 7844   0.582   5.585   1.802  0.8599 -0.1527 -1.4420
35197SOL    HW2 7845   0.639   5.696   1.886  0.0474 -1.1441  0.4736
35198SOL     OW 7846   0.238   1.730   3.485  0.1621  0.0815 -0.1584
35198SOL    HW1 7847   0.236   1.658   3.549 -1.5917 -0.1747 -0.4513
35198SOL    HW2 7848   0.231   1.809   3.538 -0.3459 -0.0857  0.0281
35199SOL     OW 7849   7.242   9.858  10.316  0.0583  0.1617 -0.4888
35199SOL    HW1 7850   7.282   9.813  10.242 -1.1457  1.4955 -2.0004
35199SOL    HW2 7851   7.155   9.884  10.285 -0.7508  0.1841  1.6130
35200SOL     OW 7852   0.490   8.019   4.759 -0.5734  0.0803  0.0616
35200SOL    HW1 7853   0.430   8.091   4.738 -1.5034 -0.3688  1.0130
35200SOL    HW2 7854   0.436   7.941   4.750  0.9704 -0.7671 -3.0437
35201SOL     OW 7855   9.712   5.856   1.251  0.4060 -0.0451 -0.5407
35201SOL    HW1 7856   9.617   5.863   1.259  0.4333  0.2481 -0.4797
35201SOL    HW2 7857   9.739   5.810   1.331  0.3506  0.1855 -0.3868
35202SOL     OW 7858   5.893   2.171   3.824  0.2180  0.3837 -0.2253
35202SOL    HW1 7859   5.803   2.164   3.792 -0.9975  0.0890  2.9736
35202SOL    HW2 7860   5.915   2.264   3.813 -0.0061  0.2613 -2.0304
35203SOL     OW 7861   2.336   2.494   2.264  0.2819  0.0367  0.1459
35203SOL    HW1 7862   2.423   2.515   2.299  0.0998  0.5711  0.2896
35203SOL    HW2 7863   2.342   2.516   2.171  0.3607 -0.1167  0.1145
35204SOL     OW 7864   8.057   2.727  10.351  0.4782 -0.1488 -0.1584
35204SOL    HW1 7865   8.037   2.645  10.307  2.4528 -0.2757 -0.8888
35204SOL    HW2 7866   8.112   2.775  10.289  1.9364  0.3947  1.4910
35205SOL     OW 7867   6.386   4.223   7.766  0.6503 -0.9932  0.2883
35205SOL    HW1 7868   6.388   4.290   7.697  2.1652  0.5669  1.7330
35205SOL    HW2 7869   6.448   4.255   7.831 -1.7959 -1.6032  3.1125
35206SOL     OW 7870   2.498   2.344   9.442  0.0503  0.1614  0.0146
35206SOL    HW1 7871   2.425   2.382   9.490  1.1418  0.6891  1.3254
35206SOL    HW2 7872   2.564   2.414   9.440  1.3780 -1.0292  0.8373
35207SOL     OW 7873   6.835   7.571  10.629 -0.2898  0.1085  0.1138
35207SOL    HW1 7874   6.794   7.492  10.593 -1.3973  0.8966 -0.4297
35207SOL    HW2 7875   6.810   7.640  10.568  0.1715  0.9836  0.8973
35208SOL     OW 7876   7.150   6.290   4.449  0.0466 -0.2929 -0.2825
35208SOL    HW1 7877   7.208   6.351   4.403  0.7642 -0.5835  0.2274
35208SOL    HW2 7878   7.097   6.346   4.506  0.2043 -0.0839 -0.3382
35209SOL     OW 7879   0.301   4.609   0.073 -0.4168 -0.0931  0.9699
35209SOL    HW1 7880   0.216   4.643   0.099 -0.9379 -1.4870  1.1737
35209SOL    HW2 7881   0.309   4.631  -0.020 -1.6010 -1.1123  0.6050
35210SOL     OW 7882   7.480   8.404   4.141  0.2040 -0.1467 -0.3531
35210SOL    HW1 7883   7.419   8.429   4.210  1.5003  2.8079 -0.1496
35210SOL    HW2 7884   7.425   8.365   4.073 -1.3983 -0.8781  1.2768
35211SOL     OW 7885  10.057   5.635   6.776 -0.3250  0.0079  0.0505
35211SOL    HW1 7886  10.051   5.600   6.865  0.4701 -1.6691 -0.5276
35211SOL    HW2 7887  10.147   5.617   6.749 -0.4572  0.7986 -0.9946
35212SOL     OW 7888   8.414   2.367  10.260 -0.2276 -0.1992  0.6175
35212SOL    HW1 7889   8.408   2.463  10.259  0.7695 -0.0791 -2.2651
35212SOL    HW2 7890   8.323   2.337  10.271 -0.7783  1.0971 -0.1874
35213SOL     OW 7891   6.142   9.212   6.512 -0.0123 -0.2936 -0.3071
35213SOL    HW1 7892   6.164   9.219   6.605 -1.6378  2.3193 -0.0053
35213SOL    HW2 7893   6.206   9.151   6.476  0.3834 -1.7300  2.6040
35214SOL     OW 7894   4.475   3.860   1.536 -0.1538 -0.5890  0.3793
35214SOL    HW1 7895   4.446   3.838   1.625 -0.9418  0.1786  0.3291
35214SOL    HW2 7896   4.513   3.779   1.502  0.8599 -0.6995  1.6865
35215SOL     OW 7897   4.488   1.704   5.843 -0.3911 -0.2282 -0.3958
35215SOL    HW1 7898   4.405   1.676   5.805 -0.2827 -1.1114 -0.0001
35215SOL    HW2 7899   4.555   1.656   5.794 -0.1832 -0.4227  0.0677
35216SOL     OW 7900   5.202   9.102   0.925  0.0284  0.1571  0.3040
35216SOL    HW1 7901   5.245   9.163   0.985 -0.5488  0.0877  0.7904
35216SOL    HW2 7902   5.274   9.064   0.874  0.4247  0.9855  0.2302
35217SOL     OW 7903   8.546   0.037   3.822  0.2010  0.3060 -0.8213
35217SOL    HW1 7904   8.633   0.047   3.785  0.6871 -2.8929 -0.8932
35217SOL    HW2 7905   8.561   0.035   3.917  0.3249 -0.6193 -0.8438
35218SOL     OW 7906   1.380   0.187   0.219 -0.4284 -0.4999 -0.0865
35218SOL    HW1 7907   1.350   0.097   0.225 -1.3914 -0.2102 -0.4291
35218SOL    HW2 7908   1.319   0.237   0.273 -0.3573  0.0545 -0.5029
35219SOL     OW 7909   3.805   1.707   4.106  0.4596 -0.3556  0.4584
35219SOL    HW1 7910   3.842   1.734   4.190  1.3703 -0.7150  0.1843
35219SOL    HW2 7911   3.878   1.715   4.044  0.0467 -0.9710 -0.1194
35220SOL     OW 7912   3.239   3.338   5.095  0.1676 -0.2258 -0.0738
35220SOL    HW1 7913   3.146   3.341   5.072  0.3269  2.1704 -0.5876
35220SOL    HW2 7914   3.284   3.352   5.012  0.8433  3.4635  0.7839
35221SOL     OW 7915   7.308   3.438   1.822 -0.5285  0.1355  1.1342
35221SOL    HW1 7916   7.274   3.526   1.834 -0.6055  0.4358 -0.9184
35221SOL    HW2 7917   7.319   3.429   1.728  2.3147 -0.9858  1.4622
35222SOL     OW 7918   7.292   6.170   1.552 -0.0230 -0.1261 -0.4542
35222SOL    HW1 7919   7.254   6.241   1.500 -1.1046 -1.2413 -1.2532
35222SOL    HW2 7920   7.360   6.212   1.604 -0.3509  1.4151 -1.2107
35223SOL     OW 7921   6.528   0.491   4.027 -0.2297  0.5641  0.1956
35223SOL    HW1 7922   6.526   0.401   4.059 -0.3998  0.6425  0.4130
35223SOL    HW2 7923   6.456   0.496   3.964  1.6799 -0.2973 -2.1813
35224SOL     OW 7924   5.117   2.160   7.705 -0.7614 -0.1858  0.9094
35224SOL    HW1 7925   5.056   2.164   7.631  0.9277 -2.4724 -0.7585
35224SOL    HW2 7926   5.077   2.097   7.765 -1.6732  0.9665  1.5616
35225SOL     OW 7927   7.904   6.615   8.483 -0.0148 -0.4412 -0.0306
35225SOL    HW1 7928   7.977   6.560   8.512 -0.7118 -1.5725 -0.3603
35225SOL    HW2 7929   7.828   6.557   8.485 -1.3593  1.2211  2.2785
35226SOL     OW 7930   1.040   5.563   8.691  0.0892 -0.1171  0.1401
35226SOL    HW1 7931   1.026   5.598   8.779  1.6836  0.0017  0.3804
35226SOL    HW2 7932   1.067   5.639   8.639  0.6102 -0.4402 -0.0736
35227SOL     OW 7933   2.996   3.672   5.117 -0.4196 -0.0222 -0.9232
35227SOL    HW1 7934   3.021   3.683   5.208  1.1634  0.1832 -1.3410
35227SOL    HW2 7935   2.977   3.761   5.086  0.8399  0.1639 -1.2381
35228SOL     OW 7936   4.762   0.941   1.969  0.8868  0.3082  0.3709
35228SOL    HW1 7937   4.834   0.964   1.910  0.3045 -1.3762 -1.1042
35228SOL    HW2 7938   4.787   0.856   2.005 -0.1840 -0.1515  0.0871
35229SOL     OW 7939   1.782   1.721   9.884 -0.4473 -0.6460 -0.8189
35229SOL    HW1 7940   1.766   1.643   9.832  2.0858 -0.5479 -1.8901
35229SOL    HW2 7941   1.874   1.742   9.869 -1.0303  2.6129 -0.6406
35230SOL     OW 7942   3.382   7.150   7.591 -0.1682 -0.7359  0.0406
35230SOL    HW1 7943   3.310   7.190   7.543 -0.2776 -1.7717 -0.7065
35230SOL    HW2 7944   3.461   7.178   7.545 -0.0610  0.5081  0.9399
35231SOL     OW 7945   2.978   3.095   3.038 -0.1195  0.1306  0.4241
35231SOL    HW1 7946   3.017   3.051   2.962  1.3684  0.9724  0.6561
35231SOL    HW2 7947   2.904   3.040   3.063  0.6473 -1.2894 -0.3487
35232SOL     OW 7948   3.374   6.634   5.012 -0.2607 -0.1607  0.3201
35232SOL    HW1 7949   3.426   6.555   4.997 -1.0946 -0.4790 -1.1845
35232SOL    HW2 7950   3.388   6.687   4.933 -0.4863  0.7339  0.8720
35233SOL     OW 7951  10.513   7.861   5.149  0.1915 -0.1800 -0.6112
35233SOL    HW1 7952  10.546   7.951   5.151 -1.9220  0.6867 -1.9069
35233SOL    HW2 7953  10.484   7.847   5.059  2.2470 -2.9142 -1.0038
35234SOL     OW 7954   3.801   7.498   1.695  0.3298  0.5158  0.5313
35234SOL    HW1 7955   3.748   7.450   1.759 -1.6622 -0.6291 -1.7929
35234SOL    HW2 7956   3.879   7.524   1.743 -1.2106  0.0821  3.4944
35235SOL     OW 7957   4.057   5.197   7.699  0.2418 -0.1836 -0.3637
35235SOL    HW1 7958   3.989   5.157   7.753  0.4318  0.0546  0.0584
35235SOL    HW2 7959   4.010   5.257   7.641  0.2645  1.6346  1.4028
35236SOL     OW 7960   0.404   8.285   6.282 -0.1607 -0.4827 -0.2128
35236SOL    HW1 7961   0.360   8.368   6.301 -0.2336 -1.0115  2.3095
35236SOL    HW2 7962   0.343   8.237   6.227 -0.9434  0.4130 -0.1490
35237SOL     OW 7963   6.747   5.343   1.961  0.2377 -0.2571  0.7731
35237SOL    HW1 7964   6.787   5.301   1.885 -1.1176 -3.7904  1.7722
35237SOL    HW2 7965   6.653   5.336   1.945 -0.0928  2.5837  1.0564
35238SOL     OW 7966   0.229   5.929   6.890 -0.2526 -0.7665 -0.1123
35238SOL    HW1 7967   0.274   5.921   6.806  1.0942 -1.3536  0.6427
35238SOL    HW2 7968   0.210   6.023   6.897  0.6622 -0.5418 -0.5424
35239SOL     OW 7969  10.303   0.731   3.183 -0.2737 -0.3351 -0.0218
35239SOL    HW1 7970  10.332   0.822   3.185  1.0293 -0.7441  0.6200
35239SOL    HW2 7971  10.245   0.722   3.258 -1.4476  0.2766 -0.8290
35240SOL     OW 7972   6.051   0.691   1.658 -0.1495  0.1931  0.5207
35240SOL    HW1 7973   5.971   0.713   1.706 -0.7982  0.4265 -0.6290
35240SOL    HW2 7974   6.055   0.755   1.587 -0.8816 -1.9571 -1.5788
35241SOL     OW 7975   2.878   3.958  10.100  0.5355  0.1217 -0.4573
35241SOL    HW1 7976   2.911   3.965  10.011 -0.2245 -0.4388 -0.7913
35241SOL    HW2 7977   2.783   3.968  10.091  0.4768  0.3289  0.3214
35242SOL     OW 7978   2.193  10.393   9.927 -0.2802  0.6441 -0.3381
35242SOL    HW1 7979   2.263  10.343   9.969 -1.6666 -1.9783 -0.9336
35242SOL    HW2 7980   2.121  10.391   9.991 -1.6606 -1.5338 -1.8043
35243SOL     OW 7981   3.327   0.996   3.246  0.1402  0.0526 -0.2732
35243SOL    HW1 7982   3.294   0.965   3.161  1.2962  0.9640 -1.0862
35243SOL    HW2 7983   3.296   1.086   3.252 -1.5791 -0.5678  1.2023
35244SOL     OW 7984   4.613   2.403   2.779 -0.5783  0.8219  0.2668
35244SOL    HW1 7985   4.539   2.399   2.840 -0.2284 -1.7539  0.6409
35244SOL    HW2 7986   4.690   2.412   2.834 -0.3954  0.3257  0.0974
35245SOL     OW 7987  10.137   5.278   6.784 -0.2619  0.3351  0.0982
35245SOL    HW1 7988  10.200   5.216   6.819  0.4904  0.0660 -1.6336
35245SOL    HW2 7989  10.055   5.257   6.829  0.3228 -0.9279  0.6147
35246SOL     OW 7990   7.006   3.226   5.869 -0.0757  0.1566  0.2539
35246SOL    HW1 7991   6.949   3.204   5.943 -2.4351  2.5640 -0.7007
35246SOL    HW2 7992   7.079   3.275   5.907 -1.2106  1.2727  1.0487
35247SOL     OW 7993   1.941  10.440  10.444  0.1481  0.5455 -0.3206
35247SOL    HW1 7994   1.850  10.469  10.434  0.0039  0.0376 -0.5280
35247SOL    HW2 7995   1.991  10.501  10.390 -0.1077  0.6400 -0.4571
35248SOL     OW 7996  10.357   0.792   1.946 -0.0022  0.3279  0.5770
35248SOL    HW1 7997  10.382   0.882   1.966  1.7725 -0.3067  1.3995
35248SOL    HW2 7998  10.402   0.739   2.012 -0.9366 -1.1803  0.0575
35249SOL     OW 7999   0.219   0.157   1.714 -0.4088  0.2389 -0.1748
35249SOL    HW1 8000   0.269   0.126   1.789 -0.8336 -3.8801 -1.3484
35249SOL    HW2 8001   0.171   0.233   1.747 -0.2318 -1.0788  3.5957
35250SOL     OW 8002   1.954   3.741   8.118 -0.1329  0.4249  0.2605
35250SOL    HW1 8003   2.042   3.772   8.099 -0.0439  0.3273  0.5027
35250SOL    HW2 8004   1.968   3.664   8.174 -0.3042 -0.6650 -1.1390
35251SOL     OW 8005   0.845   5.339  10.113 -0.7032  0.4001  0.2765
35251SOL    HW1 8006   0.884   5.393  10.044  1.7272 -1.5287  0.0222
35251SOL    HW2 8007   0.916   5.321  10.174 -1.7959 -1.2366  1.1728
35252SOL     OW 8008   4.258   0.809   5.068 -0.3397 -0.2472 -0.1761
35252SOL    HW1 8009   4.302   0.729   5.038  0.4579 -1.1044  2.9070
35252SOL    HW2 8010   4.169   0.801   5.034 -0.0976 -2.1463 -0.4986
35253SOL     OW 8011   3.134  10.626   9.705 -0.2414  0.1671  0.3764
35253SOL    HW1 8012   3.169  10.551   9.753 -0.9731 -1.0751 -0.9275
35253SOL    HW2 8013   3.152  10.701   9.760  0.8567 -0.9258  1.5688
35254SOL     OW 8014   0.446   6.157   4.984 -0.2928  0.8183 -0.1561
35254SOL    HW1 8015   0.419   6.232   5.037  1.3130  0.8843  0.6225
35254SOL    HW2 8016   0.521   6.189   4.934 -1.6364  0.6996 -2.3732
35255SOL     OW 8017   6.692  10.071   2.074 -0.0573  0.2274  0.8702
35255SOL    HW1 8018   6.710  10.044   2.164 -1.2992 -1.6813  0.6095
35255SOL    HW2 8019   6.633  10.004   2.040  0.8944  0.5057 -1.5890
35256SOL     OW 8020   8.041   7.582   4.330 -0.1315 -0.2202 -0.3217
35256SOL    HW1 8021   7.959   7.561   4.286  0.8722  0.1569 -2.4727
35256SOL    HW2 8022   8.047   7.678   4.325  0.4802 -0.2500 -0.2221
35257SOL     OW 8023   6.487   4.421   2.995 -0.6133 -0.5757 -0.6060
35257SOL    HW1 8024   6.563   4.365   3.006  0.0532  0.5206  0.6386
35257SOL    HW2 8025   6.515   4.506   3.028 -1.8529  0.2915 -1.6960
35258SOL     OW 8026   9.067   6.100  10.062  0.1937 -0.0534 -0.3731
35258SOL    HW1 8027   9.069   6.130  10.153 -0.2021 -1.2233  0.0468
35258SOL    HW2 8028   9.053   6.005  10.069 -0.1347 -0.1152 -1.6631
35259SOL     OW 8029   0.316  10.304   3.493 -0.4536 -0.0542 -0.2944
35259SOL    HW1 8030   0.324  10.392   3.456  1.7572 -0.9232 -2.1077
35259SOL    HW2 8031   0.314  10.319   3.588  2.0599  1.9273 -0.4156
35260SOL     OW 8032   7.097   5.001   8.689  0.3993  0.4504  0.0384
35260SOL    HW1 8033   7.080   4.927   8.748 -1.0960  0.1379 -0.7256
35260SOL    HW2 8034   7.102   4.961   8.602 -1.0442  1.2752 -0.4656
35261SOL     OW 8035   7.108   1.976   6.092  0.1557  0.2087  0.1895
35261SOL    HW1 8036   7.054   1.903   6.122  0.1327 -0.0177 -0.3971
35261SOL    HW2 8037   7.058   2.054   6.115 -0.8388 -0.0187 -1.1285
35262SOL     OW 8038   6.558   0.044   2.083 -0.0130  0.2073  0.3745
35262SOL    HW1 8039   6.634   0.003   2.041  0.7193 -0.2513  2.0674
35262SOL    HW2 8040   6.489  -0.023   2.079  0.5777 -0.4779  1.3851
35263SOL     OW 8041  10.627  10.307   8.106  0.1348 -0.4957 -0.5861
35263SOL    HW1 8042  10.712  10.342   8.132 -0.0567  0.1372 -0.8007
35263SOL    HW2 8043  10.631  10.300   8.011 -0.6054  1.0396 -0.7498
35264SOL     OW 8044  10.599   4.054   7.653 -0.0791  0.2769  0.4244
35264SOL    HW1 8045  10.586   3.983   7.716 -0.8718 -0.4759 -0.5506
35264SOL    HW2 8046  10.667   4.108   7.692  0.6499 -1.0956  1.1564
35265SOL     OW 8047   9.782   3.916   9.489 -0.3236 -0.8261 -0.0900
35265SOL    HW1 8048   9.837   3.838   9.480 -0.4350 -0.8383 -0.6748
35265SOL    HW2 8049   9.703   3.884   9.532  0.0274 -0.8483  0.5609
35266SOL     OW 8050   8.197   2.530   7.717 -0.3640  0.0169  0.5279
35266SOL    HW1 8051   8.261   2.556   7.651 -0.3352  0.5793  0.7615
35266SOL    HW2 8052   8.219   2.440   7.739 -0.5379 -0.2551 -0.4112
35267SOL     OW 8053   1.384   7.467   2.296 -0.0597  0.2111 -0.2057
35267SOL    HW1 8054   1.428   7.550   2.316 -1.1227  0.9325 -0.7478
35267SOL    HW2 8055   1.405   7.451   2.204  0.9031 -0.6226  0.1410
35268SOL     OW 8056   1.360   6.744   5.044 -0.5001  0.1723 -0.0735
35268SOL    HW1 8057   1.315   6.828   5.057  1.9622  1.7141 -0.7758
35268SOL    HW2 8058   1.418   6.760   4.970  0.6772 -1.9015  0.3387
35269SOL     OW 8059   2.779   5.269   4.816  0.2518 -0.1486  0.5384
35269SOL    HW1 8060   2.847   5.259   4.750 -1.8367  0.6160 -1.8909
35269SOL    HW2 8061   2.819   5.325   4.883  1.2596  2.7164 -2.1784
35270SOL     OW 8062   8.746   5.877   8.234 -0.2873 -0.1543  0.4152
35270SOL    HW1 8063   8.668   5.833   8.268 -0.5788  0.5321  0.6526
35270SOL    HW2 8064   8.749   5.854   8.142 -0.9223  0.0167  0.3453
35271SOL     OW 8065   8.574   3.438   9.989 -0.0564 -0.3434  0.2613
35271SOL    HW1 8066   8.531   3.521  10.010 -1.7448 -1.0312 -0.2779
35271SOL    HW2 8067   8.523   3.402   9.916  1.3075 -1.3487 -0.2481
35272SOL     OW 8068   5.488   4.978   5.844  0.3089 -0.0724 -0.3116
35272SOL    HW1 8069   5.573   4.965   5.802 -0.1875 -0.4445 -1.2210
35272SOL    HW2 8070   5.465   4.892   5.879  0.2006 -0.0274 -0.2704
35273SOL     OW 8071   0.279   2.859   7.948  0.2945 -1.0268 -0.0450
35273SOL    HW1 8072   0.311   2.838   7.860  0.2252  1.3322 -0.6939
35273SOL    HW2 8073   0.348   2.828   8.007  0.0578 -3.2316 -0.8065
35274SOL     OW 8074   8.081   6.211   5.744  0.0066  0.1657  0.0347
35274SOL    HW1 8075   8.163   6.211   5.694 -0.8090  0.6179 -1.3378
35274SOL    HW2 8076   8.032   6.286   5.710 -1.9440 -1.4139 -0.8060
35275SOL     OW 8077   3.707   8.788   9.322  0.2515 -0.5146 -0.4547
35275SOL    HW1 8078   3.641   8.840   9.277  1.5597  0.9665 -0.7510
35275SOL    HW2 8079   3.729   8.718   9.260 -1.5380 -1.4957 -0.0428
35276SOL     OW 8080   2.195   0.534   7.965 -0.0433 -0.1858  0.5198
35276SOL    HW1 8081   2.151   0.616   7.942  1.9562  0.4009 -1.6209
35276SOL    HW2 8082   2.175   0.476   7.892  1.9226 -0.1676 -0.0932
35277SOL     OW 8083   0.381   3.473   1.560 -0.4187  0.1052 -0.6770
35277SOL    HW1 8084   0.453   3.419   1.593 -0.5730  0.2501 -0.0777
35277SOL    HW2 8085   0.357   3.433   1.477 -0.5190 -0.7404 -0.2561
35278SOL     OW 8086   5.011   8.970   2.979 -0.4670  0.1660 -0.2366
35278SOL    HW1 8087   5.056   9.029   2.918  0.2880  0.1778  0.3060
35278SOL    HW2 8088   5.074   8.900   2.994 -1.2132 -0.5889 -0.5838
35279SOL     OW 8089   7.179   6.818   2.950 -0.0257 -0.0500  0.5242
35279SOL    HW1 8090   7.152   6.730   2.976  1.1920 -0.0474  1.8995
35279SOL    HW2 8091   7.102   6.872   2.966 -0.5689 -0.7510  0.3171
35280SOL     OW 8092   5.052  10.264   7.763  0.1365 -0.4302 -0.4960
35280SOL    HW1 8093   4.962  10.240   7.739 -0.7568 -0.7056  2.7248
35280SOL    HW2 8094   5.095  10.181   7.781  1.1757 -0.3134 -2.2105
35281SOL     OW 8095   5.179   4.214   7.993  0.3453 -0.2473  0.1600
35281SOL    HW1 8096   5.115   4.231   7.924  1.0901  0.7888 -0.2877
35281SOL    HW2 8097   5.258   4.259   7.965  1.6093 -2.2692  0.2255
35282SOL     OW 8098   4.899   5.050   6.126 -0.1471  0.2085 -0.8232
35282SOL    HW1 8099   4.950   5.046   6.045  2.8708  1.1378  0.8471
35282SOL    HW2 8100   4.922   5.134   6.165 -0.4881 -0.7224  1.5675
35283SOL     OW 8101   4.062   6.816   6.342 -0.5020  0.9228 -0.3448
35283SOL    HW1 8102   4.045   6.911   6.343  0.8205  1.1891 -0.6889
35283SOL    HW2 8103   4.153   6.809   6.311 -0.2121 -0.4111  0.7417
35284SOL     OW 8104   7.128   1.269   2.881 -0.3852 -0.4906 -0.5145
35284SOL    HW1 8105   7.063   1.287   2.814  0.7310  0.4661 -1.3787
35284SOL    HW2 8106   7.187   1.205   2.841 -0.1166 -0.4471 -0.1944
35285SOL     OW 8107  10.499   1.947   3.991 -0.0865 -0.3205  0.2772
35285SOL    HW1 8108  10.471   2.007   3.923  0.6102 -1.5349 -1.1347
35285SOL    HW2 8109  10.592   1.963   4.002 -0.2675  0.1636  1.2934
35286SOL     OW 8110   7.631   9.417   1.043 -0.6949  0.5930 -0.1060
35286SOL    HW1 8111   7.650   9.324   1.029  2.7909  0.4612  3.5996
35286SOL    HW2 8112   7.707   9.463   1.009 -1.2226  1.8449  0.3432
35287SOL     OW 8113   7.139   6.026   4.680 -0.3142  0.6230 -0.1062
35287SOL    HW1 8114   7.141   5.933   4.660  0.9329  0.6560 -0.2004
35287SOL    HW2 8115   7.223   6.043   4.723 -0.5546  1.6881 -0.0400
35288SOL     OW 8116   5.275  10.643   3.948 -0.0158 -0.0396  0.1886
35288SOL    HW1 8117   5.230  10.709   4.000  3.0752  0.1291  3.0409
35288SOL    HW2 8118   5.342  10.608   4.007  0.1314 -3.9998 -1.9885
35289SOL     OW 8119   2.020   6.894   2.416 -0.1758  0.1751  0.4733
35289SOL    HW1 8120   2.096   6.952   2.413  0.8638 -1.1281  0.7262
35289SOL    HW2 8121   2.006   6.877   2.510 -1.8338  1.6985  0.5563
35290SOL     OW 8122   9.996   9.223   7.975  0.3366  0.2567 -0.2888
35290SOL    HW1 8123  10.087   9.223   7.946  0.2082 -0.8574 -0.7360
35290SOL    HW2 8124   9.948   9.179   7.905 -0.0606 -2.1109  1.3357
35291SOL     OW 8125   2.842   8.634   9.878 -0.5970 -0.9348  0.4104
35291SOL    HW1 8126   2.930   8.657   9.909  0.1255 -1.6875 -0.9294
35291SOL    HW2 8127   2.783   8.665   9.946  0.4469  2.4877 -0.0602
35292SOL     OW 8128   2.210   1.529   3.458  0.1969 -0.0899 -0.2173
35292SOL    HW1 8129   2.247   1.508   3.544  1.3333 -1.0931 -0.9128
35292SOL    HW2 8130   2.129   1.477   3.454 -0.4950  0.8876  0.6943
35293SOL     OW 8131   8.815   6.195   1.738 -0.1294  0.3391  0.1054
35293SOL    HW1 8132   8.909   6.193   1.756  0.3824  1.8264 -2.0165
35293SOL    HW2 8133   8.785   6.107   1.762  1.4368  0.3555  2.4061
35294SOL     OW 8134   2.378   6.326   9.550  0.8314  0.5502  0.1565
35294SOL    HW1 8135   2.418   6.357   9.469  0.2794 -1.4829 -0.9808
35294SOL    HW2 8136   2.415   6.239   9.563 -2.3894 -1.0809 -0.4733
35295SOL     OW 8137   9.494   9.047   9.978  0.3568 -0.8102  0.5560
35295SOL    HW1 8138   9.469   9.080  10.064  0.0553 -1.1128  0.5855
35295SOL    HW2 8139   9.572   9.097   9.955 -1.3072  1.5605 -0.3648
35296SOL     OW 8140   5.124   9.412   1.760 -0.3092 -0.3613  0.3735
35296SOL    HW1 8141   5.177   9.491   1.750 -2.2450  1.1383  1.3706
35296SOL    HW2 8142   5.143   9.381   1.849 -1.2892  0.3578  0.8478
35297SOL     OW 8143  10.329   7.054   8.766  0.3035 -0.6677 -0.2178
35297SOL    HW1 8144  10.342   7.149   8.764 -1.1147 -0.3897  1.0958
35297SOL    HW2 8145  10.339   7.025   8.676 -0.9083  1.0012 -0.9307
35298SOL     OW 8146   7.105   2.127  10.092 -0.1051 -0.2254  0.2720
35298SOL    HW1 8147   7.031   2.188  10.095 -0.2868 -0.3696 -0.7586
35298SOL    HW2 8148   7.158   2.150  10.168 -0.6488  0.6032  0.4198
35299SOL     OW 8149   7.499   3.910   7.913 -0.4251  0.3114  0.1996
35299SOL    HW1 8150   7.481   3.817   7.929 -0.6244 -0.2542 -2.8174
35299SOL    HW2 8151   7.595   3.916   7.914 -0.3699 -0.2163 -0.8808
35300SOL     OW 8152   2.601   9.099   3.702 -0.0899 -0.1573  0.0905
35300SOL    HW1 8153   2.644   9.184   3.706  0.6339 -0.5470  0.8793
35300SOL    HW2 8154   2.544   9.104   3.625  1.1786  0.4613 -0.8468
35301SOL     OW 8155   0.325   1.821   6.475 -0.0513  0.3122  0.0618
35301SOL    HW1 8156   0.403   1.852   6.429 -0.6895 -0.0474 -1.3168
35301SOL    HW2 8157   0.259   1.889   6.459 -0.5035 -0.1804 -0.2181
35302SOL     OW 8158   3.338   5.485   9.653 -0.2130  0.2818 -0.5418
35302SOL    HW1 8159   3.360   5.486   9.747 -1.1535  1.8985 -0.2905
35302SOL    HW2 8160   3.400   5.423   9.615  0.9155  0.3887  0.9880
35303SOL     OW 8161   7.805   6.144  10.616  0.2491  0.2465 -0.3221
35303SOL    HW1 8162   7.853   6.112  10.693 -1.7009  1.2818  1.4580
35303SOL    HW2 8163   7.802   6.069  10.557  2.3649 -0.3918  0.3090
35304SOL     OW 8164   3.531   3.267   4.249 -0.0580  0.3752 -0.2995
35304SOL    HW1 8165   3.553   3.340   4.307  0.5960  0.5459 -0.7533
35304SOL    HW2 8166   3.580   3.284   4.169 -0.9490  0.1401 -0.9149
35305SOL     OW 8167   9.660   1.396   2.427  0.2589  0.4368  0.4669
35305SOL    HW1 8168   9.590   1.330   2.425  1.4441 -0.8641 -0.8255
35305SOL    HW2 8169   9.654   1.440   2.342  0.4392  0.9404  0.7143
35306SOL     OW 8170   8.039   0.623   9.135  0.6505  0.3347  0.4297
35306SOL    HW1 8171   8.028   0.564   9.209 -0.2189  0.2660  0.2544
35306SOL    HW2 8172   8.054   0.709   9.175 -0.7437  0.4700  0.7115
35307SOL     OW 8173   4.464   8.413   4.320 -0.1698  0.3943 -0.6636
35307SOL    HW1 8174   4.411   8.350   4.369  2.2719  0.9966  3.1069
35307SOL    HW2 8175   4.402   8.480   4.292 -2.0842 -1.3222 -0.7814
35308SOL     OW 8176   9.454   5.979   9.213 -0.1651  0.4715  0.0492
35308SOL    HW1 8177   9.468   6.054   9.271  0.4981 -0.3115  0.9333
35308SOL    HW2 8178   9.535   5.973   9.162 -0.1244  0.2299  0.1408
35309SOL     OW 8179   5.983   2.427   6.302 -0.2316 -0.2984 -0.0215
35309SOL    HW1 8180   5.932   2.494   6.257  0.7634  0.8348  0.4731
35309SOL    HW2 8181   5.960   2.345   6.258 -0.8144  0.4837 -1.2214
35310SOL     OW 8182   7.479   3.646   5.472  0.1232  0.2245  0.7974
35310SOL    HW1 8183   7.555   3.599   5.507  0.3321  0.3658  0.5378
35310SOL    HW2 8184   7.462   3.605   5.387 -1.4587 -1.2989  1.7835
35311SOL     OW 8185   2.432   0.235   1.418  0.5091 -0.0027  0.3844
35311SOL    HW1 8186   2.500   0.171   1.398  0.7958  0.1850  0.7528
35311SOL    HW2 8187   2.467   0.319   1.387 -1.1173 -0.3991 -3.0344
35312SOL     OW 8188   8.891   2.878   1.506 -0.3667  0.1788  0.4688
35312SOL    HW1 8189   8.894   2.974   1.502 -1.1738  0.1473 -1.8055
35312SOL    HW2 8190   8.798   2.857   1.512 -0.2440 -0.4844  0.0854
35313SOL     OW 8191   5.541   3.630   6.225  0.0917 -0.1547 -1.3680
35313SOL    HW1 8192   5.617   3.666   6.180  0.0001  0.6777 -0.8738
35313SOL    HW2 8193   5.467   3.658   6.171 -0.0124  0.7788 -0.7668
35314SOL     OW 8194   5.062   5.268   5.521  0.5604  0.6580  0.3241
35314SOL    HW1 8195   4.991   5.226   5.569 -0.4172  2.2176  0.3211
35314SOL    HW2 8196   5.081   5.207   5.449 -2.4673  1.2134 -1.1137
35315SOL     OW 8197  10.376   7.277   1.928  0.2834  0.2284 -0.2185
35315SOL    HW1 8198  10.302   7.338   1.924 -1.2412 -1.5873 -2.0453
35315SOL    HW2 8199  10.392   7.266   2.022 -2.5604 -0.1831  0.3199
35316SOL     OW 8200   7.508   3.367   6.134  0.1445  0.6019  0.0439
35316SOL    HW1 8201   7.553   3.417   6.202 -0.1823  1.0108 -0.0378
35316SOL    HW2 8202   7.456   3.303   6.182  0.1047  0.7282  0.1700
35317SOL     OW 8203   3.038   6.776   2.096  0.0393 -0.1383  0.2960
35317SOL    HW1 8204   3.071   6.695   2.136  1.9535  0.7056  0.5307
35317SOL    HW2 8205   3.099   6.844   2.125 -1.1860  1.3032 -0.3733
35318SOL     OW 8206   6.794   6.033   6.008 -0.0666 -0.2077 -0.6683
35318SOL    HW1 8207   6.844   6.040   6.090  0.9647  0.6639 -1.3285
35318SOL    HW2 8208   6.754   5.947   6.011 -0.1735 -0.1300  0.8257
35319SOL     OW 8209   4.786   3.088   1.644 -0.8648 -0.1553 -0.3614
35319SOL    HW1 8210   4.867   3.121   1.684 -0.7647  0.6876 -1.2056
35319SOL    HW2 8211   4.721   3.094   1.713 -0.2487 -0.6880  0.2844
35320SOL     OW 8212   9.740   7.236   9.927  0.1264 -0.3008  0.9045
35320SOL    HW1 8213   9.718   7.157   9.977 -0.9938 -1.0167 -0.6606
35320SOL    HW2 8214   9.687   7.305   9.968 -0.8009 -0.8828  0.7273
35321SOL     OW 8215   9.871  10.497   3.805  0.1779 -0.4344  0.2594
35321SOL    HW1 8216   9.943  10.482   3.744 -0.8837 -0.1616 -1.1147
35321SOL    HW2 8217   9.792  10.490   3.751 -0.9222 -2.2008  1.9937
35322SOL     OW 8218   3.971   0.067   8.635 -0.0498  0.1864 -0.1745
35322SOL    HW1 8219   4.039   0.020   8.683 -1.3267 -0.3579  1.1820
35322SOL    HW2 8220   3.893   0.058   8.690 -0.9690  1.6694 -1.1757
35323SOL     OW 8221   2.797   3.839   6.825 -0.6707  0.3350  0.4010
35323SOL    HW1 8222   2.826   3.891   6.900  0.1448 -1.7487  1.5994
35323SOL    HW2 8223   2.702   3.835   6.834 -0.5585 -0.2044  1.5851
35324SOL     OW 8224  10.103   0.074   3.439  0.5180 -0.1094 -0.1546
35324SOL    HW1 8225  10.165   0.020   3.389  1.0232 -1.9717  2.3005
35324SOL    HW2 8226  10.019   0.032   3.425  0.6189 -0.4760  0.2960
35325SOL     OW 8227   2.159   2.260   0.828 -0.1751  0.1871 -0.2895
35325SOL    HW1 8228   2.169   2.222   0.741  0.4462  1.2805 -0.7175
35325SOL    HW2 8229   2.172   2.187   0.888 -0.3466 -0.5310 -1.1032
35326SOL     OW 8230   0.547   9.817   4.294 -0.0229 -0.0240  0.0220
35326SOL    HW1 8231   0.592   9.893   4.258 -0.5610  0.0607 -0.4790
35326SOL    HW2 8232   0.611   9.746   4.287  1.0525  0.6938  1.9146
35327SOL     OW 8233   5.724   2.544   3.299 -0.2251  0.1562 -0.3497
35327SOL    HW1 8234   5.766   2.482   3.240  1.7044  0.0795  0.9975
35327SOL    HW2 8235   5.701   2.491   3.376 -1.2010  0.5707 -0.3383
35328SOL     OW 8236   9.903   6.747   9.935  0.2905  0.1893 -0.3999
35328SOL    HW1 8237   9.915   6.770   9.843 -1.4181  1.2388 -0.4132
35328SOL    HW2 8238   9.980   6.695   9.957  0.5310 -0.4734 -2.5355
35329SOL     OW 8239   6.855   7.221   8.960 -0.0011  0.8078 -0.0261
35329SOL    HW1 8240   6.920   7.210   8.891 -1.7307 -0.0829 -1.6170
35329SOL    HW2 8241   6.816   7.134   8.971 -1.5285  1.4762  0.2057
35330SOL     OW 8242   0.842   0.313  10.131  0.1802 -0.0922  0.6579
35330SOL    HW1 8243   0.756   0.348  10.151  1.1628  2.6546  0.4133
35330SOL    HW2 8244   0.887   0.310  10.215  0.3932  0.0278  0.5477
35331SOL     OW 8245   4.631   3.294   0.241 -0.2847 -0.1549 -0.5824
35331SOL    HW1 8246   4.571   3.349   0.292  0.0500  0.1742 -0.5415
35331SOL    HW2 8247   4.668   3.353   0.175 -0.4468 -0.4951 -0.9802
35332SOL     OW 8248  10.201   0.124   2.862  0.3079  0.4763  0.0530
35332SOL    HW1 8249  10.144   0.099   2.935 -0.2381  2.8317  0.5210
35332SOL    HW2 8250  10.152   0.100   2.783 -0.0274 -0.1589  0.4461
35333SOL     OW 8251   7.204   2.232   3.617 -0.0783  0.1302  0.5135
35333SOL    HW1 8252   7.275   2.291   3.643 -1.7337  2.7818 -0.5491
35333SOL    HW2 8253   7.125   2.273   3.652 -1.4073 -1.0127 -0.9995
35334SOL     OW 8254  10.475   5.762   3.799 -0.1282  0.4039 -0.4063
35334SOL    HW1 8255  10.533   5.686   3.797 -2.7188 -1.7141 -1.3160
35334SOL    HW2 8256  10.465   5.783   3.892  0.7674 -0.2603 -0.1493
35335SOL     OW 8257   3.746   1.997   3.798  0.1548 -0.2780  0.0903
35335SOL    HW1 8258   3.699   1.970   3.877  1.4258 -1.0331  0.6254
35335SOL    HW2 8259   3.809   1.926   3.782  0.5683  0.3142 -1.0497
35336SOL     OW 8260   0.027   1.145   2.851  0.6049  0.5359 -0.4722
35336SOL    HW1 8261   0.005   1.137   2.758  1.4507  1.8891 -0.8228
35336SOL    HW2 8262   0.111   1.100   2.859  0.4411  0.2524 -0.3057
35337SOL     OW 8263   9.341   3.312   5.306 -0.2063  0.1058 -0.0269
35337SOL    HW1 8264   9.288   3.381   5.346 -0.9196  0.7259 -1.9384
35337SOL    HW2 8265   9.300   3.296   5.221  0.3978 -2.1563  0.0234
35338SOL     OW 8266   0.481   4.268   2.268  0.0297 -0.1509  0.5578
35338SOL    HW1 8267   0.536   4.204   2.223  0.1013  0.1302  0.2348
35338SOL    HW2 8268   0.526   4.286   2.350 -0.6259 -1.4438  1.2338
35339SOL     OW 8269   9.091   9.809   1.450  0.1310 -0.1569 -0.2362
35339SOL    HW1 8270   9.100   9.719   1.419 -1.3810 -0.2411 -0.5479
35339SOL    HW2 8271   9.006   9.838   1.415 -0.1503  0.8413  1.1551
35340SOL     OW 8272   9.242   1.288   1.489  0.0465 -0.0350  0.3863
35340SOL    HW1 8273   9.247   1.192   1.487  0.7608  0.0132 -0.9584
35340SOL    HW2 8274   9.231   1.314   1.398  0.5762  1.2033  0.6540
35341SOL     OW 8275   0.460   1.770   4.511  0.2914 -0.0364  0.3359
35341SOL    HW1 8276   0.464   1.687   4.559  2.6317  0.3051  0.8705
35341SOL    HW2 8277   0.425   1.833   4.575  1.7444  0.0551  1.0697
35342SOL     OW 8278   0.475   4.832   4.858 -0.1586  0.3857 -0.5838
35342SOL    HW1 8279   0.445   4.861   4.772 -1.8055 -0.1705 -0.2311
35342SOL    HW2 8280   0.435   4.893   4.920 -1.3778 -0.9265 -0.0350
35343SOL     OW 8281   1.430   3.488   1.191 -0.2374 -0.3224  0.3696
35343SOL    HW1 8282   1.351   3.542   1.182 -0.1486 -0.2656 -0.1134
35343SOL    HW2 8283   1.502   3.546   1.166 -0.1020 -0.5454  0.2383
35344SOL     OW 8284   5.903   4.187   9.123 -0.2522  0.1072 -0.3400
35344SOL    HW1 8285   5.873   4.270   9.087  0.5520  0.2256 -0.7476
35344SOL    HW2 8286   5.824   4.132   9.125 -1.0071  1.1768  0.8532
35345SOL     OW 8287   0.058   1.659   8.840 -0.6085  0.9348  0.1518
35345SOL    HW1 8288   0.092   1.728   8.896 -0.4211 -1.3821  3.1509
35345SOL    HW2 8289   0.136   1.619   8.801 -0.6572  1.8477 -0.8989
35346SOL     OW 8290   7.416   6.500   7.691 -0.0902  0.2541  0.2407
35346SOL    HW1 8291   7.509   6.502   7.667 -0.2106  0.1629 -0.2478
35346SOL    HW2 8292   7.413   6.447   7.770  0.4373  1.3445  1.0178
35347SOL     OW 8293   1.781   7.999   7.049 -0.3247  0.7920 -0.0827
35347SOL    HW1 8294   1.718   7.976   7.117  0.9194  1.4370  1.3437
35347SOL    HW2 8295   1.733   7.988   6.967 -1.7925 -0.2622  0.8702
35348SOL     OW 8296   7.732   5.582   9.340  0.4739  0.0987 -0.2110
35348SOL    HW1 8297   7.726   5.651   9.407 -0.9023  0.8582 -1.0706
35348SOL    HW2 8298   7.800   5.523   9.372  1.1060  1.4184  0.9606
35349SOL     OW 8299   0.568   4.939   6.942 -0.3996  0.4613 -0.2163
35349SOL    HW1 8300   0.489   4.992   6.955 -0.1282  0.7132  0.4645
35349SOL    HW2 8301   0.618   4.950   7.023  1.1150  1.6028 -1.2501
35350SOL     OW 8302   7.589   4.631   8.148 -0.3642 -0.3687 -0.2181
35350SOL    HW1 8303   7.660   4.567   8.137  0.9537  1.3625 -2.8768
35350SOL    HW2 8304   7.631   4.709   8.183 -0.5007  1.1871 -3.2051
35351SOL     OW 8305   9.419   6.994   9.949  0.4054  0.7079  0.4296
35351SOL    HW1 8306   9.438   7.051  10.023  1.1331  2.1737 -0.8220
35351SOL    HW2 8307   9.492   7.009   9.888 -0.9287  0.7509 -1.2359
35352SOL     OW 8308   6.628   2.666   3.740  0.3600  0.1326  0.2877
35352SOL    HW1 8309   6.656   2.601   3.804  0.6726  1.9029  2.0714
35352SOL    HW2 8310   6.663   2.749   3.774 -2.2637  1.6316 -0.4079
35353SOL     OW 8311   6.334   0.744   7.353  0.7569 -0.1346  0.4701
35353SOL    HW1 8312   6.251   0.733   7.400  0.3015  1.4050  0.1096
35353SOL    HW2 8313   6.324   0.829   7.308  1.9630 -0.6086 -0.7513
35354SOL     OW 8314   9.592   1.465   9.169  0.1158 -0.3536  0.3389
35354SOL    HW1 8315   9.641   1.547   9.170 -2.0336  1.0431 -1.1137
35354SOL    HW2 8316   9.548   1.463   9.254 -0.5822  0.5366  0.0192
35355SOL     OW 8317   6.906   2.202   9.603 -0.4651 -0.8254  0.4262
35355SOL    HW1 8318   6.900   2.118   9.557  0.1802 -0.7148  0.1208
35355SOL    HW2 8319   6.865   2.265   9.544 -1.3199 -0.9932  0.8403
35356SOL     OW 8320   3.607   6.349   7.688 -0.3169 -0.2948  0.1611
35356SOL    HW1 8321   3.538   6.293   7.654 -1.9410  0.6023  1.7796
35356SOL    HW2 8322   3.613   6.422   7.626 -1.0699 -0.2196  0.1743
35357SOL     OW 8323   1.417  10.381   8.509 -0.3971  1.0818 -0.2558
35357SOL    HW1 8324   1.453  10.406   8.594  0.0432  0.8018 -0.3582
35357SOL    HW2 8325   1.326  10.410   8.512 -0.3668  1.1253  0.2879
35358SOL     OW 8326   2.978   2.460   4.997  0.2507 -0.0819 -0.2949
35358SOL    HW1 8327   2.949   2.440   5.087  0.5366  0.7562 -0.0119
35358SOL    HW2 8328   2.976   2.375   4.953 -0.8316 -0.3614  0.2292
35359SOL     OW 8329   1.954   2.775   8.940  0.1398  0.4098  0.1353
35359SOL    HW1 8330   1.881   2.723   8.906 -0.8918  2.4475 -1.0218
35359SOL    HW2 8331   1.937   2.782   9.034 -0.3488 -0.3410  0.1084
35360SOL     OW 8332   7.731   2.062   3.994 -0.0261  0.2626 -0.2479
35360SOL    HW1 8333   7.666   2.024   3.935 -1.4137  0.3399  1.1897
35360SOL    HW2 8334   7.814   2.023   3.965 -0.4079  1.3024 -3.0880
35361SOL     OW 8335   0.105   6.933   5.980 -0.5877  0.2743 -0.0517
35361SOL    HW1 8336   0.186   6.983   5.991  0.5953 -1.0764 -2.0273
35361SOL    HW2 8337   0.035   6.998   5.989  0.5210  1.2486  3.2711
35362SOL     OW 8338   1.973   0.414   0.826 -0.7580  0.2892 -0.3003
35362SOL    HW1 8339   2.004   0.465   0.901  0.6867 -0.5822 -0.2683
35362SOL    HW2 8340   2.004   0.325   0.843 -1.9521 -0.2968 -1.0809
35363SOL     OW 8341   2.742   7.741   8.422 -0.1001  0.0285  0.2817
35363SOL    HW1 8342   2.809   7.673   8.421 -0.0633  0.0514  0.8295
35363SOL    HW2 8343   2.750   7.781   8.508 -0.5694  0.2796  0.2118
35364SOL     OW 8344   4.447   9.869   1.524  0.2452  0.0331 -0.6379
35364SOL    HW1 8345   4.531   9.829   1.546  1.0530  0.7707 -2.1764
35364SOL    HW2 8346   4.395   9.797   1.488 -0.5983 -0.8748  2.1804
35365SOL     OW 8347   3.311   7.262   8.938  0.5277 -0.3002  0.0765
35365SOL    HW1 8348   3.386   7.287   8.884  2.7370 -3.5524  1.3008
35365SOL    HW2 8349   3.312   7.323   9.011  0.5428  1.1071 -1.0735
35366SOL     OW 8350   7.341   9.891   7.538 -0.5425  0.1983  0.0163
35366SOL    HW1 8351   7.300   9.815   7.581  0.4493 -0.2742  0.1442
35366SOL    HW2 8352   7.341   9.868   7.445 -2.1780  0.9803 -0.2147
35367SOL     OW 8353   2.814   2.835   9.435 -0.2265 -0.6876 -0.5455
35367SOL    HW1 8354   2.806   2.851   9.529  1.3271  0.7207 -0.6107
35367SOL    HW2 8355   2.908   2.827   9.420 -0.1946  2.0919 -2.3989
35368SOL     OW 8356   4.658   3.235   2.357 -0.0669  0.2849  0.2086
35368SOL    HW1 8357   4.621   3.189   2.282 -1.1603  1.7742 -0.2136
35368SOL    HW2 8358   4.742   3.192   2.373 -0.1380 -0.5220 -1.4207
35369SOL     OW 8359   8.043   8.333   4.576 -0.1703 -0.0502 -0.2182
35369SOL    HW1 8360   7.992   8.284   4.640 -0.2751 -0.2382 -0.4460
35369SOL    HW2 8361   7.979   8.364   4.512 -0.1201  0.4694 -0.0259
35370SOL     OW 8362   4.583   3.777  10.564 -0.4638  0.3721 -0.1036
35370SOL    HW1 8363   4.538   3.838  10.506  1.6650  1.8341 -0.3214
35370SOL    HW2 8364   4.662   3.824  10.593  2.4920 -2.9455 -1.9884
35371SOL     OW 8365   6.308   1.874   4.352 -0.1798  0.6113 -0.0119
35371SOL    HW1 8366   6.387   1.915   4.317  1.5049 -2.6725 -0.4799
35371SOL    HW2 8367   6.254   1.854   4.275 -0.4257  0.8799  0.0900
35372SOL     OW 8368   6.852   6.094   1.366  0.4194 -0.0521  0.4391
35372SOL    HW1 8369   6.904   6.025   1.327  0.4859  1.0702 -1.5669
35372SOL    HW2 8370   6.761   6.067   1.353  0.3114  1.4362 -2.9995
35373SOL     OW 8371   7.194   9.720   5.230 -0.0529 -0.2132 -0.0270
35373SOL    HW1 8372   7.286   9.710   5.253  0.4078  1.8105 -0.7573
35373SOL    HW2 8373   7.192   9.714   5.134 -1.0080 -2.2263  0.0769
35374SOL     OW 8374   1.875   5.037   7.500 -0.6623 -0.1741  0.3021
35374SOL    HW1 8375   1.907   5.126   7.484 -0.8719 -0.2987 -0.8740
35374SOL    HW2 8376   1.780   5.044   7.496 -0.6964 -1.0161 -3.4247
35375SOL     OW 8377   2.598   3.670   9.592 -0.3310  0.8509 -0.4584
35375SOL    HW1 8378   2.638   3.752   9.619 -0.2060  0.4160  0.7479
35375SOL    HW2 8379   2.592   3.618   9.672 -3.3686  0.9154 -0.5211
35376SOL     OW 8380   3.542   0.694   3.502  0.3566 -0.0700 -0.4872
35376SOL    HW1 8381   3.484   0.690   3.426 -1.2994  1.3012  0.6339
35376SOL    HW2 8382   3.502   0.760   3.559  1.6868 -0.8679  1.4579
35377SOL     OW 8383   4.149   3.310   7.326 -0.0647 -1.1177 -0.1351
35377SOL    HW1 8384   4.143   3.374   7.254 -1.3741 -0.9177  0.1282
35377SOL    HW2 8385   4.228   3.260   7.306  0.6612  0.1926 -0.6701
35378SOL     OW 8386   2.044   1.221   3.982 -0.3688  0.0147  0.1544
35378SOL    HW1 8387   2.116   1.196   3.925 -0.5159  1.4501 -0.7032
35378SOL    HW2 8388   1.975   1.250   3.923 -1.9092 -1.8535  0.9211
35379SOL     OW 8389   6.845   9.695   3.843 -0.3713  0.4839 -0.3406
35379SOL    HW1 8390   6.796   9.614   3.858 -0.3349  0.1870 -1.6730
35379SOL    HW2 8391   6.779   9.760   3.820 -0.4165  0.8890  0.8963
35380SOL     OW 8392   3.599   0.540   9.593  0.3627 -0.2910 -0.0884
35380SOL    HW1 8393   3.597   0.453   9.634 -0.9530 -0.6661 -0.8881
35380SOL    HW2 8394   3.608   0.522   9.499 -1.3163  0.3424 -0.4142
35381SOL     OW 8395   3.414   7.777   3.676  0.6158 -0.6163 -0.1152
35381SOL    HW1 8396   3.377   7.728   3.749 -1.3943  0.3295 -0.4134
35381SOL    HW2 8397   3.505   7.749   3.671 -0.6194 -5.1879 -0.9758
35382SOL     OW 8398   1.305   5.791   1.721 -0.2049  0.2176 -0.2928
35382SOL    HW1 8399   1.294   5.747   1.636 -1.1049  0.9736 -0.5896
35382SOL    HW2 8400   1.216   5.797   1.756  0.1537  0.0110  0.6646
35383SOL     OW 8401   2.084   1.673   7.776  1.0538 -0.1887  0.2833
35383SOL    HW1 8402   2.016   1.640   7.716  0.2114  0.1697  1.0119
35383SOL    HW2 8403   2.090   1.766   7.756  0.5578 -0.0098  0.9428
35384SOL     OW 8404  10.152   0.930   5.943  0.5667 -0.1263 -0.1129
35384SOL    HW1 8405  10.097   1.008   5.936  1.1835  0.5056  1.6253
35384SOL    HW2 8406  10.132   0.894   6.029  1.3326 -1.0811 -0.3228
35385SOL     OW 8407   9.196   7.932   8.165  0.0715 -0.0885 -0.1504
35385SOL    HW1 8408   9.176   7.995   8.235  1.6709  0.4226 -0.1243
35385SOL    HW2 8409   9.214   7.850   8.212 -1.1721 -0.3745 -0.1342
35386SOL     OW 8410   7.622  10.164   2.096 -0.1806 -0.1232 -0.5198
35386SOL    HW1 8411   7.625  10.201   2.185  1.8485 -0.5539 -0.3670
35386SOL    HW2 8412   7.664  10.078   2.105  1.7405  0.5785 -2.2055
35387SOL     OW 8413   8.976   5.674   9.116 -0.1443 -0.5932 -0.4559
35387SOL    HW1 8414   9.062   5.704   9.087  0.7672 -2.6714 -0.1050
35387SOL    HW2 8415   8.969   5.707   9.206 -0.2651  0.5706 -0.8699
35388SOL     OW 8416   3.640   2.718  10.237 -0.0708  0.1933  0.0307
35388SOL    HW1 8417   3.580   2.668  10.183 -0.5758 -1.3906  1.9313
35388SOL    HW2 8418   3.684   2.777  10.176 -1.0354 -1.0343 -1.9583
35389SOL     OW 8419   9.627   8.334  10.459  0.4147 -0.3013  0.2057
35389SOL    HW1 8420   9.538   8.364  10.443  1.0214  0.7821 -1.2808
35389SOL    HW2 8421   9.634   8.253  10.408  0.6186  0.2169 -0.6052
35390SOL     OW 8422  10.203   2.780   9.202  0.0687 -0.7508  0.4867
35390SOL    HW1 8423  10.221   2.836   9.276 -0.0570 -1.2961  0.9380
35390SOL    HW2 8424  10.215   2.691   9.235  1.1382 -0.9789 -0.4417
35391SOL     OW 8425   7.441   4.630   1.761 -0.4169  0.5301 -0.0945
35391SOL    HW1 8426   7.478   4.542   1.766  1.1834  1.1265 -0.9055
35391SOL    HW2 8427   7.403   4.636   1.673  2.3165  1.6647 -1.2911
35392SOL     OW 8428   2.480   4.229   8.282 -0.2234 -0.6275  0.2263
35392SOL    HW1 8429   2.510   4.187   8.202  0.5265 -0.7688  0.5654
35392SOL    HW2 8430   2.413   4.291   8.254 -0.1357 -0.8426 -0.4727
35393SOL     OW 8431   0.812   3.448   9.993 -0.1017  0.0168  0.0001
35393SOL    HW1 8432   0.871   3.470   9.921 -1.9924  1.1886 -1.2689
35393SOL    HW2 8433   0.799   3.530  10.041 -0.2558 -0.3582  0.6189
35394SOL     OW 8434   1.505   6.641   9.480 -0.1975  0.1624 -0.0088
35394SOL    HW1 8435   1.455   6.659   9.400  1.6848  1.2343 -1.0133
35394SOL    HW2 8436   1.587   6.688   9.468  1.4854 -2.2764  1.1275
35395SOL     OW 8437   6.923   1.982   6.944  0.0958 -0.1855  0.2158
35395SOL    HW1 8438   7.009   1.943   6.957  0.8330  1.1583 -0.3499
35395SOL    HW2 8439   6.923   2.009   6.852 -1.5016 -1.4521 -0.1920
35396SOL     OW 8440   7.757   7.009   7.500  0.1035 -0.7796 -0.1158
35396SOL    HW1 8441   7.708   6.994   7.581  0.2095  1.4122  0.4103
35396SOL    HW2 8442   7.689   7.019   7.433 -0.1566  0.6599  0.3263
35397SOL     OW 8443   3.926   3.360   3.408 -0.2453 -0.3326  0.6105
35397SOL    HW1 8444   3.969   3.381   3.492  0.4535  1.5121 -0.1488
35397SOL    HW2 8445   3.833   3.375   3.424 -0.4679 -2.4912  1.7305
35398SOL     OW 8446   2.771   0.306   3.393  0.5754  0.2281 -0.0102
35398SOL    HW1 8447   2.751   0.389   3.435 -0.5368 -0.1019  0.1415
35398SOL    HW2 8448   2.722   0.308   3.311 -2.0414 -1.5086  1.3636
35399SOL     OW 8449   1.958   6.193   3.180  0.0716 -0.4108  0.0306
35399SOL    HW1 8450   2.037   6.139   3.186 -0.5052 -1.3566 -0.5717
35399SOL    HW2 8451   1.903   6.147   3.117  0.2396  1.7915 -1.8316
35400SOL     OW 8452   3.576   7.220   5.358  0.1415  0.5668  0.6638
35400SOL    HW1 8453   3.489   7.244   5.324  0.2630 -1.8829 -1.6337
35400SOL    HW2 8454   3.558   7.180   5.443 -1.0378 -0.1365  0.1097
35401SOL     OW 8455   4.404   9.816   4.142  0.0411  0.4187  0.3275
35401SOL    HW1 8456   4.325   9.779   4.104 -0.4841  1.7350  0.0606
35401SOL    HW2 8457   4.476   9.773   4.096 -0.5277 -0.4547  0.2440
35402SOL     OW 8458   1.556   3.775   0.692 -0.1710  0.5467  0.3300
35402SOL    HW1 8459   1.544   3.843   0.626  1.6147  0.6805  0.1117
35402SOL    HW2 8460   1.541   3.819   0.775  0.3515  1.0542  0.1554
35403SOL     OW 8461   9.507   2.400   6.023 -0.3770 -0.1710  0.5072
35403SOL    HW1 8462   9.570   2.346   6.071  0.3345 -1.2207 -1.4884
35403SOL    HW2 8463   9.423   2.356   6.035 -0.6764  0.8340  2.5803
35404SOL     OW 8464   8.609   3.991   5.671 -0.1680 -0.0202  0.0446
35404SOL    HW1 8465   8.564   4.070   5.641  1.3696  0.3459 -1.5416
35404SOL    HW2 8466   8.702   4.014   5.664  0.2829 -1.3832  1.2857
35405SOL     OW 8467   8.851   6.857   0.611  0.2497  0.3292  0.0238
35405SOL    HW1 8468   8.777   6.816   0.656 -0.9025  1.1108 -1.0846
35405SOL    HW2 8469   8.871   6.934   0.664 -0.6553  0.8729 -0.4031
35406SOL     OW 8470   4.049   0.754   2.024 -0.6084  0.3457 -0.1758
35406SOL    HW1 8471   4.016   0.737   1.935 -0.3213 -2.3147  0.1202
35406SOL    HW2 8472   4.144   0.756   2.014 -0.5206 -0.9847  0.1526
35407SOL     OW 8473   2.763   2.737   2.952  0.5596  0.0853  0.0949
35407SOL    HW1 8474   2.810   2.667   2.908  1.0345  1.3825 -1.5606
35407SOL    HW2 8475   2.691   2.693   2.997  0.8259 -1.4513 -0.9078
35408SOL     OW 8476   8.981   5.524   0.288 -0.1803 -0.1432 -0.4297
35408SOL    HW1 8477   8.935   5.460   0.234  0.4095 -1.4599  0.5634
35408SOL    HW2 8478   8.917   5.551   0.353  0.5347 -2.5712  1.4487
35409SOL     OW 8479   7.607  10.214   9.035 -0.1342  0.0329 -0.3302
35409SOL    HW1 8480   7.596  10.161   9.113  0.4616 -0.0634 -0.3058
35409SOL    HW2 8481   7.557  10.294   9.052  1.2093  0.6881  0.8019
35410SOL     OW 8482   0.904   5.851   4.534  0.1755 -0.2908  0.3111
35410SOL    HW1 8483   0.912   5.790   4.607  2.6927  0.3234  0.6433
35410SOL    HW2 8484   0.994   5.877   4.515 -0.6707  1.8984 -1.0249
35411SOL     OW 8485  10.172   7.420   8.329  0.2604 -0.3635  0.4278
35411SOL    HW1 8486  10.197   7.494   8.384  1.7087 -1.8059  1.8251
35411SOL    HW2 8487  10.212   7.439   8.244  0.7469  0.3861  0.8101
35412SOL     OW 8488   0.440   9.942   3.924  0.0938  0.0319  0.1336
35412SOL    HW1 8489   0.407   9.910   4.009 -1.5179  2.5045  0.5520
35412SOL    HW2 8490   0.372  10.002   3.893  0.4433 -1.0855 -3.1694
35413SOL     OW 8491   9.224   1.278   3.040 -0.5417 -0.1436 -0.7886
35413SOL    HW1 8492   9.276   1.200   3.023 -0.5264 -0.2671 -0.1876
35413SOL    HW2 8493   9.199   1.310   2.953 -0.5159 -0.7949 -1.0359
35414SOL     OW 8494   9.691   0.802   0.863 -0.7972 -0.6873  0.1767
35414SOL    HW1 8495   9.625   0.858   0.904  0.1413  0.1562  0.5833
35414SOL    HW2 8496   9.756   0.863   0.828  0.5929 -1.5195  1.2043
35415SOL     OW 8497   9.848   9.337   7.620  0.0161 -0.2357  0.0810
35415SOL    HW1 8498   9.850   9.248   7.656 -1.1198 -0.2839  0.0766
35415SOL    HW2 8499   9.758   9.367   7.637  0.6881  1.3392  1.0933
35416SOL     OW 8500   5.517   1.416   6.349  0.9975 -0.0927  0.1846
35416SOL    HW1 8501   5.586   1.354   6.326 -0.3701 -1.5790 -0.1025
35416SOL    HW2 8502   5.488   1.389   6.436  0.5350  0.2753  0.1526
35417SOL     OW 8503   8.830   0.879   2.653 -0.6883 -0.6152 -0.2530
35417SOL    HW1 8504   8.828   0.786   2.678 -0.4269 -0.7496 -0.7190
35417SOL    HW2 8505   8.921   0.905   2.666 -1.1574  0.1724  1.9464
35418SOL     OW 8506   1.748   1.871   7.070  0.0954  0.3718  0.2916
35418SOL    HW1 8507   1.779   1.836   6.986 -0.9752 -0.3840  0.1783
35418SOL    HW2 8508   1.678   1.810   7.096  0.6523  0.3891  1.9161
35419SOL     OW 8509   1.471   8.511   8.573  0.5448  0.5556 -0.0920
35419SOL    HW1 8510   1.439   8.438   8.520 -0.6352  0.2718  0.9716
35419SOL    HW2 8511   1.547   8.475   8.620  0.2486  0.1520  0.0794
35420SOL     OW 8512   2.225   2.178   7.101  0.1429 -0.2873  0.1375
35420SOL    HW1 8513   2.141   2.137   7.082 -1.0983  2.0363  0.2143
35420SOL    HW2 8514   2.220   2.201   7.194  1.8523 -2.1399  0.7606
35421SOL     OW 8515   8.018   5.302   2.539 -0.2810 -0.4715  0.4204
35421SOL    HW1 8516   8.067   5.280   2.459 -0.9966  0.4155 -0.2928
35421SOL    HW2 8517   8.076   5.359   2.588  0.4088 -1.5138  0.8491
35422SOL     OW 8518   9.512   1.403   0.359 -0.3482  0.4440 -0.2934
35422SOL    HW1 8519   9.542   1.350   0.286 -0.0371  0.2654 -0.0408
35422SOL    HW2 8520   9.547   1.358   0.437 -3.5396 -1.3819  0.2489
35423SOL     OW 8521   7.891   0.857   5.214 -0.6195 -0.1931  0.9946
35423SOL    HW1 8522   7.950   0.787   5.186 -0.8845 -0.4156  0.9850
35423SOL    HW2 8523   7.856   0.826   5.298 -2.6831 -1.2670 -0.1850
35424SOL     OW 8524   2.212   2.047   6.270  0.3456 -0.5574 -0.3285
35424SOL    HW1 8525   2.178   1.958   6.260 -2.0354  0.0944  1.1390
35424SOL    HW2 8526   2.208   2.064   6.364 -0.4472  1.5099 -0.6922
35425SOL     OW 8527   6.055   2.962   6.721  0.0369 -0.3850 -0.1809
35425SOL    HW1 8528   5.968   2.923   6.719 -0.0788 -0.1023 -0.9357
35425SOL    HW2 8529   6.041   3.053   6.746  0.2685 -0.6875  1.1533
35426SOL     OW 8530   3.142   2.339   6.357 -0.1605 -0.2218  0.1675
35426SOL    HW1 8531   3.227   2.346   6.401 -0.7854  0.4349  1.3176
35426SOL    HW2 8532   3.162   2.352   6.264  0.8443  1.1198  0.5484
35427SOL     OW 8533   7.986  10.426   4.296 -0.1734  0.0545 -0.1347
35427SOL    HW1 8534   7.896  10.450   4.273 -0.2971 -0.7271 -0.4966
35427SOL    HW2 8535   7.977  10.357   4.361  0.1681 -0.0169 -0.1612
35428SOL     OW 8536  10.561   6.037   3.331  0.0922 -0.2811  0.2552
35428SOL    HW1 8537  10.624   5.967   3.315  0.6515  0.3280 -0.2644
35428SOL    HW2 8538  10.518   6.013   3.413  1.6965 -0.2233  1.1410
35429SOL     OW 8539   5.502   2.304   1.409 -0.4453 -0.2488  0.2202
35429SOL    HW1 8540   5.419   2.350   1.393 -0.4086  0.5020  1.9699
35429SOL    HW2 8541   5.482   2.241   1.478  0.4810  0.0647  0.7878
35430SOL     OW 8542   8.376   1.312   6.911  0.3331  0.0158 -0.3303
35430SOL    HW1 8543   8.331   1.237   6.872  0.8572 -0.7389  0.4701
35430SOL    HW2 8544   8.434   1.344   6.842  0.5705 -0.7205 -0.4818
35431SOL     OW 8545   8.253   6.783   3.819 -0.5311 -0.5084  0.2202
35431SOL    HW1 8546   8.243   6.811   3.728 -1.7029 -0.2079  0.4289
35431SOL    HW2 8547   8.196   6.841   3.869  2.0604  1.0780  1.5145
35432SOL     OW 8548   1.374   7.895   7.316 -0.5504  0.4104  0.6967
35432SOL    HW1 8549   1.283   7.919   7.298 -0.4409  0.1072 -0.3544
35432SOL    HW2 8550   1.373   7.861   7.405 -1.3453  1.0142  0.9295
35433SOL     OW 8551   6.198   7.872   0.162  0.7138 -0.6397 -0.2963
35433SOL    HW1 8552   6.130   7.932   0.191 -1.5369 -2.9077 -0.5292
35433SOL    HW2 8553   6.280   7.919   0.177 -0.8001  1.6568  1.3930
35434SOL     OW 8554   8.983  10.235   2.010 -0.4011 -0.4255  0.1603
35434SOL    HW1 8555   8.984  10.147   1.972  0.4354 -0.2733 -0.1793
35434SOL    HW2 8556   8.968  10.220   2.103 -0.9006 -0.8883  0.0123
35435SOL     OW 8557   1.276   2.610   3.029 -0.5208  0.8075 -0.6694
35435SOL    HW1 8558   1.370   2.591   3.022 -0.4485  1.2668 -0.9552
35435SOL    HW2 8559   1.260   2.676   2.962 -0.6584  2.1816  0.6697
35436SOL     OW 8560   9.225   3.826   9.052 -0.5750 -0.7316 -0.2383
35436SOL    HW1 8561   9.184   3.859   9.132  0.4650  0.5036 -0.1860
35436SOL    HW2 8562   9.163   3.850   8.983  0.1423  1.4437 -0.2039
35437SOL     OW 8563   0.728   8.524   2.688  0.0828 -0.0030  0.2412
35437SOL    HW1 8564   0.675   8.461   2.639  0.1206 -0.3357  0.6245
35437SOL    HW2 8565   0.666   8.566   2.748 -0.6284  2.5255 -2.0439
35438SOL     OW 8566   0.054   2.348   6.609  0.3415 -0.3148  0.3344
35438SOL    HW1 8567  -0.019   2.300   6.647 -0.1939  0.6427  0.5381
35438SOL    HW2 8568   0.041   2.439   6.636  1.7151 -0.1498  0.5443
35439SOL     OW 8569  10.475   5.879   4.503  0.4120 -0.8146 -0.3764
35439SOL    HW1 8570  10.489   5.920   4.589  0.1578  0.5849 -0.9654
35439SOL    HW2 8571  10.449   5.789   4.523 -1.2263 -0.0772  1.0873
35440SOL     OW 8572   7.952   3.737   0.382 -0.1105  0.3118  0.9945
35440SOL    HW1 8573   7.927   3.656   0.427  0.3762  0.1276  0.9452
35440SOL    HW2 8574   7.878   3.796   0.395  0.4394  0.6345  2.9700
35441SOL     OW 8575   8.056   2.007   9.146 -0.0203  0.3367 -0.1689
35441SOL    HW1 8576   8.057   2.099   9.117  1.6102  0.1920 -0.6556
35441SOL    HW2 8577   8.121   2.004   9.216 -1.1019 -0.1730  0.8569
35442SOL     OW 8578   1.083  10.101   5.987  0.7614 -0.0722  0.4048
35442SOL    HW1 8579   1.064  10.194   5.996  0.7878  0.4072 -3.0089
35442SOL    HW2 8580   1.015  10.057   6.039 -0.1392  1.8276  0.9141
35443SOL     OW 8581   1.195   9.405  10.170  0.4078 -0.7239 -0.5820
35443SOL    HW1 8582   1.272   9.348  10.166 -0.1221 -1.3821 -2.1631
35443SOL    HW2 8583   1.220   9.483  10.121  0.8247  0.0673  0.8341
35444SOL     OW 8584   4.843   8.648   1.747 -0.0122  0.4334  0.0583
35444SOL    HW1 8585   4.932   8.624   1.722 -0.7026 -1.1728 -0.9985
35444SOL    HW2 8586   4.836   8.623   1.840  0.5463  0.3399  0.0761
35445SOL     OW 8587   1.277   1.502   2.992  0.0700  0.1162  0.1056
35445SOL    HW1 8588   1.284   1.505   3.087  0.8441  1.7214  0.0314
35445SOL    HW2 8589   1.319   1.419   2.967  0.9906  0.2658  1.0863
35446SOL     OW 8590   0.165   6.184   9.954  0.4977 -0.2635 -0.4920
35446SOL    HW1 8591   0.252   6.216   9.979 -0.6825  2.6101  0.3221
35446SOL    HW2 8592   0.179   6.145   9.868  2.5896  0.2139 -0.4363
35447SOL     OW 8593   0.547   8.594   9.308 -0.6298  0.3107 -0.0746
35447SOL    HW1 8594   0.548   8.658   9.379 -3.1339  0.3460  0.0157
35447SOL    HW2 8595   0.625   8.614   9.257 -1.4098  3.6641 -0.1935
35448SOL     OW 8596   9.770   6.670   6.707 -0.0970  0.2149  0.9135
35448SOL    HW1 8597   9.808   6.587   6.678 -0.4192  0.0569  0.9304
35448SOL    HW2 8598   9.805   6.684   6.794  0.0367  0.1455  0.8703
35449SOL     OW 8599   5.277   6.793   3.580  0.4696  0.2690 -0.0780
35449SOL    HW1 8600   5.240   6.775   3.667 -0.6415 -2.9352 -1.0524
35449SOL    HW2 8601   5.371   6.779   3.591  0.2252 -1.1650  0.4460
35450SOL     OW 8602   5.651   2.453   1.245  0.2437  0.1498  0.1980
35450SOL    HW1 8603   5.601   2.412   1.315  1.5947 -1.0093  0.5239
35450SOL    HW2 8604   5.714   2.386   1.217 -0.2428  0.5722 -2.1349
35451SOL     OW 8605   7.977   1.902   3.687 -0.0984  0.4269 -0.1020
35451SOL    HW1 8606   8.061   1.897   3.643 -0.9953 -0.6236 -1.7931
35451SOL    HW2 8607   7.996   1.879   3.778  1.3065 -0.6145 -0.6376
35452SOL     OW 8608   4.894   7.869   9.592  0.1141 -0.2013 -0.2879
35452SOL    HW1 8609   4.877   7.898   9.503  0.9535 -2.8804 -1.4009
35452SOL    HW2 8610   4.807   7.865   9.633 -0.2210  1.6138 -0.7274
35453SOL     OW 8611   3.878   8.283   5.875  0.1634 -0.6502 -0.1990
35453SOL    HW1 8612   3.820   8.226   5.825  1.1397 -0.4566 -1.6018
35453SOL    HW2 8613   3.857   8.371   5.846  0.2397 -0.4692  0.2758
35454SOL     OW 8614   2.944   2.192   2.609  0.6974 -0.0711 -0.2607
35454SOL    HW1 8615   2.864   2.211   2.560  0.7986  0.0118 -0.3934
35454SOL    HW2 8616   2.914   2.179   2.699  0.3152 -1.7811 -0.6060
35455SOL     OW 8617   1.743   4.957   2.309  0.1469  0.3317 -0.5100
35455SOL    HW1 8618   1.833   4.968   2.278 -0.2468  0.2025 -1.7545
35455SOL    HW2 8619   1.706   4.889   2.253 -0.1813 -0.9609  1.2053
35456SOL     OW 8620   3.397   5.462   2.026 -0.6217  0.2892 -0.1319
35456SOL    HW1 8621   3.432   5.373   2.022 -2.3828 -0.3911 -1.8497
35456SOL    HW2 8622   3.334   5.467   1.955  0.7011  3.5177 -1.2896
35457SOL     OW 8623   4.146   4.975  10.557 -0.0596 -0.3725  0.5623
35457SOL    HW1 8624   4.097   5.040  10.507 -0.2832 -0.0725  1.1605
35457SOL    HW2 8625   4.231   5.016  10.572 -0.1130 -0.3231  0.7266
35458SOL     OW 8626   9.561   6.308   4.488  0.3207  0.1209 -0.3474
35458SOL    HW1 8627   9.574   6.214   4.477  0.1702 -0.0927  1.1085
35458SOL    HW2 8628   9.650   6.343   4.501  0.3013  0.0540 -0.0324
35459SOL     OW 8629   3.636   4.525   9.917  0.3848 -0.5737 -0.1795
35459SOL    HW1 8630   3.689   4.503   9.841  0.6551  1.0426 -0.5012
35459SOL    HW2 8631   3.690   4.586   9.967  0.0074 -1.2242  1.0626
35460SOL     OW 8632   9.948   0.628   0.474  0.3810 -0.0776 -0.0933
35460SOL    HW1 8633   9.939   0.615   0.380 -0.9518  2.4594 -0.3910
35460SOL    HW2 8634   9.989   0.547   0.505 -0.4909 -1.5964 -2.6036
35461SOL     OW 8635   7.843   7.585   7.821  0.0914  0.6748  0.0833
35461SOL    HW1 8636   7.831   7.642   7.745  1.1398  1.2001  0.2932
35461SOL    HW2 8637   7.806   7.635   7.894 -0.2898  0.4668  0.0330
35462SOL     OW 8638   1.988   7.474   0.919  0.1999 -0.3122 -0.7964
35462SOL    HW1 8639   2.011   7.481   1.012 -0.5915  1.3674 -0.6855
35462SOL    HW2 8640   2.072   7.474   0.873  0.5944 -1.0646 -0.1035
35463SOL     OW 8641   5.622   2.206  10.116  0.2969 -0.2582  0.5500
35463SOL    HW1 8642   5.646   2.152  10.041  0.3434  0.2199  0.2150
35463SOL    HW2 8643   5.533   2.235  10.097 -0.2787 -1.3617  1.4029
35464SOL     OW 8644   4.627   7.546   9.549 -0.0226  0.0604  0.2092
35464SOL    HW1 8645   4.633   7.611   9.479 -0.0029  2.0280  1.9568
35464SOL    HW2 8646   4.600   7.465   9.504 -1.4115  1.5712 -1.8549
35465SOL     OW 8647   8.111   2.217  10.281 -0.5743  0.1997  0.2771
35465SOL    HW1 8648   8.154   2.253  10.358  0.9253 -1.4383  0.2689
35465SOL    HW2 8649   8.062   2.290  10.244  0.5662  1.6121  1.4631
35466SOL     OW 8650   7.040   6.420  10.443 -0.1364  0.0878 -0.0288
35466SOL    HW1 8651   7.075   6.487  10.385 -0.0146 -0.4803 -0.6137
35466SOL    HW2 8652   7.066   6.449  10.531 -0.2612  0.9072 -0.2538
35467SOL     OW 8653   6.328   6.168   0.109  0.1620 -0.0652  0.6608
35467SOL    HW1 8654   6.327   6.125   0.024 -1.9400 -1.3893  1.2744
35467SOL    HW2 8655   6.416   6.205   0.117  0.9909 -1.4766 -1.2894
35468SOL     OW 8656  10.348   2.919   9.399  0.8523 -0.1445  0.4851
35468SOL    HW1 8657  10.339   2.861   9.474  1.8593  1.1568  1.6651
35468SOL    HW2 8658  10.343   3.007   9.435  0.4656  0.5239 -1.1049
35469SOL     OW 8659   9.921   8.284   2.349  0.0823 -0.4464  0.2559
35469SOL    HW1 8660   9.873   8.259   2.427 -0.4136 -0.1241  0.0618
35469SOL    HW2 8661   9.854   8.314   2.288  0.5137 -0.1498 -0.0841
35470SOL     OW 8662   3.446   1.547   9.174 -0.5061  0.1438 -0.5736
35470SOL    HW1 8663   3.490   1.564   9.258 -1.0904  1.8443 -0.5596
35470SOL    HW2 8664   3.359   1.586   9.185 -1.6874 -2.2583 -0.9517
35471SOL     OW 8665   0.638   0.332   3.337  0.3130 -0.1376  0.5458
35471SOL    HW1 8666   0.566   0.332   3.275  0.7123  1.6377  0.0245
35471SOL    HW2 8667   0.671   0.242   3.336  0.1030 -0.2414 -1.5851
35472SOL     OW 8668   8.557   4.479   6.611 -0.1949 -0.3355 -0.2378
35472SOL    HW1 8669   8.618   4.451   6.680 -1.2709 -0.0162  0.8751
35472SOL    HW2 8670   8.572   4.573   6.603  2.7726 -0.8496 -3.3388
35473SOL     OW 8671   8.454   4.450   8.570  0.4027  0.0024  0.1246
35473SOL    HW1 8672   8.402   4.473   8.493  1.1394  1.9312  0.1592
35473SOL    HW2 8673   8.412   4.371   8.604 -1.7363  0.7733 -0.5585
35474SOL     OW 8674   1.261   8.144   5.866  0.3559 -0.1496 -0.1645
35474SOL    HW1 8675   1.353   8.172   5.859  0.0071  1.1866  0.2255
35474SOL    HW2 8676   1.222   8.206   5.928 -1.6632  1.6679 -2.9859
35475SOL     OW 8677   9.579   8.973   6.616  0.5069 -0.4984  0.5373
35475SOL    HW1 8678   9.541   9.060   6.610  0.2616 -0.6887 -1.1831
35475SOL    HW2 8679   9.659   8.985   6.667  0.8451  0.8590 -0.2661
35476SOL     OW 8680   9.093   2.776   0.678  0.0297 -0.2116  0.7958
35476SOL    HW1 8681   9.161   2.798   0.615  0.0594 -0.2147  0.8269
35476SOL    HW2 8682   9.042   2.856   0.688 -0.6645 -0.5287 -0.0822
35477SOL     OW 8683   9.406   4.892  10.074 -0.2073  0.1015  0.5118
35477SOL    HW1 8684   9.469   4.820  10.080  0.3506  0.4060 -1.1776
35477SOL    HW2 8685   9.327   4.852  10.038 -0.1641  0.1668  0.3417
35478SOL     OW 8686   1.420   3.869   9.524  0.1215 -0.2322 -0.5209
35478SOL    HW1 8687   1.351   3.935   9.533  1.6730  1.3078  1.0971
35478SOL    HW2 8688   1.469   3.896   9.447  0.1824 -0.0656 -0.4239
35479SOL     OW 8689   5.590   1.185   9.514 -0.1238  0.2674 -0.4710
35479SOL    HW1 8690   5.590   1.226   9.428 -2.1137 -0.0659 -0.6682
35479SOL    HW2 8691   5.516   1.125   9.512 -0.0834  0.1005  1.4027
35480SOL     OW 8692   2.671   9.628   5.953 -0.1989 -0.2608 -0.5817
35480SOL    HW1 8693   2.639   9.682   6.026  2.5261  0.8582 -0.0970
35480SOL    HW2 8694   2.638   9.540   5.973  0.7209 -0.0843  2.3109
35481SOL     OW 8695   7.568   7.417   0.911 -0.6641  0.1137  0.1458
35481SOL    HW1 8696   7.635   7.456   0.968 -0.3406  0.1162 -0.2323
35481SOL    HW2 8697   7.521   7.356   0.968  0.9153 -1.3573 -0.0461
35482SOL     OW 8698   5.356   6.447   5.134 -0.2626  0.3867 -0.3294
35482SOL    HW1 8699   5.427   6.384   5.126 -1.0532 -0.4647 -1.0177
35482SOL    HW2 8700   5.398   6.533   5.127  0.6492 -0.1081 -1.1780
35483SOL     OW 8701   1.097  10.507   8.408  0.6077 -0.4316  0.1466
35483SOL    HW1 8702   1.134  10.426   8.444 -0.7152 -1.0857  0.0923
35483SOL    HW2 8703   1.173  10.557   8.379  1.4529 -1.7186  0.0529
35484SOL     OW 8704   6.991   4.543   8.554  0.6183 -0.4245 -0.0016
35484SOL    HW1 8705   6.899   4.557   8.579  0.7669 -1.7026  1.3695
35484SOL    HW2 8706   6.996   4.450   8.532  1.6276 -0.4112  0.1306
35485SOL     OW 8707   7.952  10.213   7.598  0.8810 -0.1410  0.3387
35485SOL    HW1 8708   7.940  10.256   7.682  1.1345  1.2796 -0.3180
35485SOL    HW2 8709   7.965  10.285   7.536 -0.9737 -1.0372 -1.2060
35486SOL     OW 8710   5.106   8.559   1.227  0.5195 -1.1824 -0.1951
35486SOL    HW1 8711   5.018   8.564   1.265  1.0891 -1.8678  1.3238
35486SOL    HW2 8712   5.095   8.585   1.136 -0.8367  1.1027  0.5569
35487SOL     OW 8713   6.254   4.737   3.059 -0.1147  0.1921  0.1124
35487SOL    HW1 8714   6.248   4.687   2.978 -0.7355  0.2154  0.1330
35487SOL    HW2 8715   6.284   4.824   3.031 -0.5964  0.2858 -0.1381
35488SOL     OW 8716   7.353   8.655   1.658 -0.3599  0.1444  0.1142
35488SOL    HW1 8717   7.335   8.623   1.746 -0.6419  0.3827  0.1439
35488SOL    HW2 8718   7.436   8.703   1.666  0.1678 -0.7193  0.0332
35489SOL     OW 8719   8.139   0.962   8.720 -0.8583  0.5562 -0.6551
35489SOL    HW1 8720   8.136   0.888   8.660  1.6277 -0.3412  0.1653
35489SOL    HW2 8721   8.231   0.966   8.748 -1.4303  2.4133  1.2405
35490SOL     OW 8722   7.726   0.250   3.483  0.3555 -0.5335 -0.7732
35490SOL    HW1 8723   7.686   0.324   3.528  1.5539 -0.0169 -0.5142
35490SOL    HW2 8724   7.657   0.183   3.480 -0.7477  0.5629 -0.9828
35491SOL     OW 8725   1.530   8.373   0.622 -0.0705  0.0812  0.5372
35491SOL    HW1 8726   1.535   8.277   0.613 -0.2486  0.2728 -3.0873
35491SOL    HW2 8727   1.465   8.399   0.557 -0.7226  2.6350  2.1161
35492SOL     OW 8728   3.211   9.532   5.818  0.6492 -0.1787 -0.0548
35492SOL    HW1 8729   3.301   9.538   5.848  0.5487  0.5350  0.1088
35492SOL    HW2 8730   3.208   9.587   5.740  0.4916 -0.6490 -0.3806
35493SOL     OW 8731   6.259   0.265   2.326  0.3034 -0.6394 -0.0130
35493SOL    HW1 8732   6.181   0.219   2.356 -0.5501  0.7394 -0.0445
35493SOL    HW2 8733   6.328   0.236   2.386 -0.8365  0.2178  1.7978
35494SOL     OW 8734   6.904   0.060   4.805 -0.2793  0.4434 -0.2396
35494SOL    HW1 8735   6.906   0.154   4.823  0.7671  0.0519  2.0686
35494SOL    HW2 8736   6.821   0.031   4.842  0.6591  0.0668  1.6927
35495SOL     OW 8737   6.034   2.230   7.210 -0.1810 -0.3292 -0.0169
35495SOL    HW1 8738   6.085   2.162   7.166 -0.3605  0.2254 -1.1167
35495SOL    HW2 8739   6.060   2.223   7.302  0.8834 -0.9252 -0.3402
35496SOL     OW 8740   4.736   7.247   3.744  0.2710  0.1515  0.2783
35496SOL    HW1 8741   4.694   7.328   3.717  1.5797  0.4103 -1.0896
35496SOL    HW2 8742   4.828   7.271   3.760  1.2936 -1.4143 -2.4748
35497SOL     OW 8743   4.005   4.480   8.997 -0.0981  0.1716 -0.1928
35497SOL    HW1 8744   4.056   4.547   8.952 -0.1009  0.1560 -0.2187
35497SOL    HW2 8745   3.932   4.462   8.937 -0.2707  0.3729 -0.0444
35498SOL     OW 8746   1.463   7.530   1.141 -0.2624  0.2030  0.6134
35498SOL    HW1 8747   1.520   7.584   1.195  1.7145  1.0123 -2.0542
35498SOL    HW2 8748   1.443   7.585   1.065 -3.2965 -0.6845  0.6333
35499SOL     OW 8749   9.212   7.262   3.891  0.3476 -0.3425 -0.6255
35499SOL    HW1 8750   9.203   7.197   3.961 -0.5864  0.1079 -0.3169
35499SOL    HW2 8751   9.225   7.209   3.812 -0.9084 -0.9324 -0.4554
35500SOL     OW 8752   1.691   3.871   3.985 -0.2461 -0.3694  0.7089
35500SOL    HW1 8753   1.687   3.834   3.897 -2.5366  0.7544  0.2747
35500SOL    HW2 8754   1.640   3.951   3.980 -1.0852 -0.6572  3.2418
35501SOL     OW 8755   7.468  10.599   3.032  0.0262 -0.2332  0.5126
35501SOL    HW1 8756   7.541  10.661   3.029  0.8256 -1.0664  1.6823
35501SOL    HW2 8757   7.504  10.517   2.997 -0.6199 -0.3938  0.2102
35502SOL     OW 8758   6.973  10.016   1.984 -0.1474 -0.4098 -0.6426
35502SOL    HW1 8759   6.884  10.018   2.019  0.2596  0.5930  0.3992
35502SOL    HW2 8760   6.963  10.038   1.892 -1.1984 -2.6533 -1.1457
35503SOL     OW 8761   4.064   0.060   6.002 -0.0268 -0.2251  0.2113
35503SOL    HW1 8762   4.017   0.051   6.084  0.1451 -1.7895  0.1700
35503SOL    HW2 8763   4.152   0.027   6.021 -0.3946 -1.9956 -0.9245
35504SOL     OW 8764   7.674   0.544   1.166 -0.0705  1.2514  0.0088
35504SOL    HW1 8765   7.592   0.593   1.176 -0.3150  0.7363  0.6078
35504SOL    HW2 8766   7.684   0.533   1.072 -0.5299  1.5839 -0.0855
35505SOL     OW 8767   4.686   6.229   4.982 -0.5583  0.3623 -0.1118
35505SOL    HW1 8768   4.623   6.283   5.030 -0.8609 -0.2863  0.2392
35505SOL    HW2 8769   4.699   6.153   5.039  1.1656  0.8532  0.2126
35506SOL     OW 8770  10.211   2.808   3.869  0.0040  0.3032 -0.3386
35506SOL    HW1 8771  10.202   2.880   3.806  1.5370  0.0368 -0.8923
35506SOL    HW2 8772  10.197   2.729   3.818 -0.5661  0.1468  0.0457
35507SOL     OW 8773   1.274   8.762   9.672  0.0996 -0.3975 -0.1702
35507SOL    HW1 8774   1.217   8.741   9.746 -0.0089 -1.4220 -0.5308
35507SOL    HW2 8775   1.290   8.856   9.680 -0.2881 -0.4091  0.8862
35508SOL     OW 8776   7.998   5.702   0.691 -0.5572  0.5199  0.2280
35508SOL    HW1 8777   8.028   5.659   0.771 -1.6313 -1.6500 -0.4604
35508SOL    HW2 8778   8.079   5.727   0.645  0.2471 -2.3450 -0.1089
35509SOL     OW 8779   7.911   1.939   3.290  0.1705  0.4136 -0.1210
35509SOL    HW1 8780   7.981   2.004   3.296 -0.8693  1.4798  0.7074
35509SOL    HW2 8781   7.856   1.955   3.366 -0.9914 -0.4134 -0.7639
35510SOL     OW 8782   5.894   4.660   3.213  0.3709 -0.4480  0.4188
35510SOL    HW1 8783   5.932   4.743   3.184  0.8013 -0.4788  0.8629
35510SOL    HW2 8784   5.964   4.596   3.198  0.9670 -0.3166  2.3231
35511SOL     OW 8785   5.588   9.879   2.962 -0.3698 -0.1086 -0.5241
35511SOL    HW1 8786   5.619   9.793   2.990  0.1389 -0.1211 -1.0846
35511SOL    HW2 8787   5.660   9.939   2.983  0.8786 -0.4044 -3.4004
35512SOL     OW 8788   0.517   6.099   9.419 -0.5007  0.3123  0.1266
35512SOL    HW1 8789   0.432   6.055   9.421 -1.0100  1.2791  0.8184
35512SOL    HW2 8790   0.544   6.102   9.511 -0.5096  1.4568  0.1065
35513SOL     OW 8791   8.110   4.821   7.279  0.0497 -0.1536  0.0627
35513SOL    HW1 8792   8.074   4.853   7.362 -0.1948 -1.1773  0.3679
35513SOL    HW2 8793   8.075   4.881   7.213 -0.3122  0.2657  0.6256
35514SOL     OW 8794   5.288   9.777   4.534 -0.0852  0.0207  0.3880
35514SOL    HW1 8795   5.314   9.688   4.556  3.9763  0.4806 -1.5613
35514SOL    HW2 8796   5.313   9.829   4.611  0.9927 -0.1279  0.1584
35515SOL     OW 8797   0.834   9.070   7.675  0.3505  0.3928 -0.3898
35515SOL    HW1 8798   0.876   9.008   7.614 -0.3124 -0.2345 -0.2169
35515SOL    HW2 8799   0.847   9.155   7.633 -2.0590 -0.2075 -2.6276
35516SOL     OW 8800   3.350   3.778   4.393 -0.0118 -0.4316  0.0536
35516SOL    HW1 8801   3.325   3.688   4.413  0.4844 -0.4612  0.5548
35516SOL    HW2 8802   3.445   3.775   4.380 -0.0633 -0.0711 -0.4175
35517SOL     OW 8803   0.626   4.385   8.140  0.3979  0.5600  0.7073
35517SOL    HW1 8804   0.619   4.324   8.213 -2.0844 -0.3148 -0.1298
35517SOL    HW2 8805   0.720   4.397   8.127  1.0604 -3.2570  0.8426
35518SOL     OW 8806   9.301   5.357   6.745 -0.4718 -0.6452 -0.2097
35518SOL    HW1 8807   9.283   5.382   6.655 -1.6548 -1.9505 -0.3764
35518SOL    HW2 8808   9.389   5.318   6.742  0.5059  1.4517 -0.3135
35519SOL     OW 8809   4.865   6.008   1.948  0.1807  0.3657  0.0733
35519SOL    HW1 8810   4.919   6.006   2.027  1.8452  1.3604 -0.9927
35519SOL    HW2 8811   4.775   6.016   1.981  0.9501  2.6204  1.8603
35520SOL     OW 8812   0.037   5.268   3.808 -0.3065  0.1018  0.2375
35520SOL    HW1 8813  -0.003   5.267   3.895 -0.4002  0.1078  0.1939
35520SOL    HW2 8814   0.031   5.359   3.781  0.7709  0.3314  0.7150
35521SOL     OW 8815   4.134   6.469   6.455 -0.3867 -0.3633  0.3440
35521SOL    HW1 8816   4.075   6.540   6.431 -0.4974 -0.8729 -0.9705
35521SOL    HW2 8817   4.111   6.397   6.396  0.7358 -0.9820  0.6206
35522SOL     OW 8818   7.206   8.861   5.767  0.6740 -0.3147  0.2411
35522SOL    HW1 8819   7.257   8.782   5.786  0.1051 -0.2190  2.3010
35522SOL    HW2 8820   7.225   8.879   5.675  2.4758 -1.6359  0.2985
35523SOL     OW 8821   3.610   1.349   3.129 -0.4447 -0.2018 -0.5507
35523SOL    HW1 8822   3.703   1.327   3.125 -0.2563  0.7529 -2.8101
35523SOL    HW2 8823   3.565   1.267   3.108  0.0114 -0.1316 -1.9133
35524SOL     OW 8824   7.893   2.732   4.602 -0.3093  0.2697 -0.0444
35524SOL    HW1 8825   7.975   2.739   4.553 -1.2257 -1.1616 -1.9005
35524SOL    HW2 8826   7.885   2.639   4.622 -1.8966  0.2284 -0.7110
35525SOL     OW 8827   8.948   2.590   4.518 -0.6646 -0.2749 -0.1642
35525SOL    HW1 8828   8.971   2.607   4.609 -0.2763 -0.7785 -0.1653
35525SOL    HW2 8829   9.031   2.599   4.470 -0.9680  0.5707 -0.5584
35526SOL     OW 8830   6.026   9.863   7.196  0.0361 -0.2729 -0.4313
35526SOL    HW1 8831   6.015   9.898   7.284 -2.6272 -1.6849 -0.1145
35526SOL    HW2 8832   5.992   9.931   7.138  0.7130  0.1784 -0.3120
35527SOL     OW 8833   3.772   6.073   2.127  0.5623 -0.5959  0.3686
35527SOL    HW1 8834   3.846   6.101   2.181  0.1924 -0.3007  0.7236
35527SOL    HW2 8835   3.768   6.139   2.057  1.2968 -1.2059 -0.2625
35528SOL     OW 8836   9.596   1.410   6.696 -0.2155  0.2585 -0.3092
35528SOL    HW1 8837   9.650   1.452   6.763 -1.2183  1.4600 -0.2171
35528SOL    HW2 8838   9.609   1.464   6.618 -0.2963 -0.1954 -0.6432
35529SOL     OW 8839   6.801   2.254   2.214 -0.5066 -0.4068  0.0878
35529SOL    HW1 8840   6.728   2.195   2.197  0.1321 -1.6839  1.5374
35529SOL    HW2 8841   6.880   2.200   2.204  0.0863  0.1047  1.6157
35530SOL     OW 8842   7.014   9.338  10.257  0.9997  0.7854  0.8580
35530SOL    HW1 8843   7.040   9.412  10.202 -1.0676  2.3183  1.8324
35530SOL    HW2 8844   6.921   9.325  10.238  1.0933 -0.9553  1.4215
35531SOL     OW 8845   8.840   5.750   4.657 -0.3752  0.1679  0.5388
35531SOL    HW1 8846   8.772   5.798   4.705  0.9737  2.5638  0.2013
35531SOL    HW2 8847   8.906   5.730   4.723 -0.0558  0.5060  0.3247
35532SOL     OW 8848   4.052   4.506   9.274  0.8330  0.4352  0.2189
35532SOL    HW1 8849   4.063   4.480   9.183 -0.3304  0.8137 -0.0392
35532SOL    HW2 8850   3.973   4.462   9.303  0.6985  1.0249  0.7801
35533SOL     OW 8851   7.276   2.207   2.405  0.0808 -0.0916  0.0654
35533SOL    HW1 8852   7.270   2.141   2.336  1.2585 -1.3796  1.1054
35533SOL    HW2 8853   7.354   2.258   2.383 -0.8908  1.0642 -0.7965
35534SOL     OW 8854   4.008   2.328   0.899 -0.7306  0.6013 -0.9239
35534SOL    HW1 8855   4.068   2.396   0.869 -1.4053  1.1655 -1.0196
35534SOL    HW2 8856   4.065   2.261   0.938 -0.0790  1.3836 -0.5019
35535SOL     OW 8857   4.534  10.306   2.910 -0.0910 -0.5511 -0.9372
35535SOL    HW1 8858   4.622  10.298   2.873  0.8039  0.7036  0.7547
35535SOL    HW2 8859   4.526  10.398   2.934 -2.0299 -0.5672 -1.3598
35536SOL     OW 8860   8.189   7.375   8.234  0.3313 -0.0436  0.2447
35536SOL    HW1 8861   8.180   7.375   8.139  0.5264 -0.9751  0.2151
35536SOL    HW2 8862   8.141   7.452   8.263 -1.4269 -0.8227 -0.4712
35537SOL     OW 8863   9.968  10.035   0.607  0.4992  0.2341  0.6168
35537SOL    HW1 8864   9.993   9.998   0.692 -0.2703 -0.5276  0.5312
35537SOL    HW2 8865   9.962  10.129   0.622  1.4291  0.2152  1.1289
35538SOL     OW 8866   6.351   2.443   0.346 -0.1276  0.4608 -0.6178
35538SOL    HW1 8867   6.368   2.357   0.385  1.1814  0.5425 -0.9837
35538SOL    HW2 8868   6.435   2.487   0.346 -0.3773  1.0135 -2.2056
35539SOL     OW 8869   7.124   6.877   6.749 -0.1948 -0.0264  0.0658
35539SOL    HW1 8870   7.110   6.922   6.666 -0.0005 -0.6536 -0.3119
35539SOL    HW2 8871   7.218   6.858   6.751  0.3193  2.3436  1.6540
35540SOL     OW 8872   7.494   0.319   6.800  0.1698 -0.2877 -0.1006
35540SOL    HW1 8873   7.476   0.411   6.782 -0.5725 -0.1369  1.2538
35540SOL    HW2 8874   7.480   0.274   6.717 -0.8635  0.6266 -0.4389
35541SOL     OW 8875   9.077   6.341   5.687 -0.1918  0.2982  0.5155
35541SOL    HW1 8876   9.120   6.272   5.637 -2.3568 -0.5801 -0.2705
35541SOL    HW2 8877   9.081   6.310   5.778  0.5873  0.1239  0.4284
35542SOL     OW 8878   1.620   9.093   1.748 -0.0694 -0.0435 -0.4837
35542SOL    HW1 8879   1.554   9.078   1.681  1.1093 -0.0986 -1.6756
35542SOL    HW2 8880   1.701   9.055   1.711  0.4059 -0.9814  1.3890
35543SOL     OW 8881   6.455   7.927  10.640  0.2142  0.1519 -0.0524
35543SOL    HW1 8882   6.424   7.955  10.554 -1.8404 -1.7206 -0.0133
35543SOL    HW2 8883   6.533   7.980  10.656  0.2364  1.0712 -2.7315
35544SOL     OW 8884   2.184   8.941   6.912  0.0003  0.4273 -0.3858
35544SOL    HW1 8885   2.174   9.000   6.987  0.4025 -1.3397  1.1761
35544SOL    HW2 8886   2.126   8.867   6.932  0.5962 -0.3747 -1.5074
35545SOL     OW 8887   6.619   7.097   3.358 -0.3287 -0.6091 -0.3899
35545SOL    HW1 8888   6.551   7.076   3.293 -0.9481  1.4306 -0.4646
35545SOL    HW2 8889   6.634   7.191   3.347  0.9009 -0.5907  1.1782
35546SOL     OW 8890   6.985   6.873   9.357  0.5327 -0.0038  0.5355
35546SOL    HW1 8891   7.041   6.795   9.346  1.0785  0.6775 -2.7284
35546SOL    HW2 8892   7.022   6.919   9.432  0.5193 -2.5672  2.2318
35547SOL     OW 8893   6.137   0.884   3.522  0.2349 -0.6955 -0.0818
35547SOL    HW1 8894   6.216   0.917   3.480 -0.1293 -1.3356 -1.3093
35547SOL    HW2 8895   6.154   0.791   3.536 -0.1517 -0.7577 -0.0110
35548SOL     OW 8896   7.275   9.032   6.954 -0.0290 -0.4263 -0.5644
35548SOL    HW1 8897   7.209   8.964   6.965 -1.0738  0.6682  0.2161
35548SOL    HW2 8898   7.286   9.041   6.859  0.0133 -1.5445 -0.6757
35549SOL     OW 8899   1.233   3.482   8.810  0.1855  0.3307  0.2907
35549SOL    HW1 8900   1.263   3.559   8.762  0.1022 -0.3021 -0.8122
35549SOL    HW2 8901   1.311   3.429   8.823  0.1849  0.4381  0.7425
35550SOL     OW 8902   3.993   6.412   4.384 -0.0081 -0.1003  0.2796
35550SOL    HW1 8903   4.084   6.411   4.414 -0.0812 -0.3168  0.5007
35550SOL    HW2 8904   3.976   6.504   4.362  0.0115  0.0948  1.0395
35551SOL     OW 8905   0.682   9.055   9.856  0.4496 -0.4863 -0.3974
35551SOL    HW1 8906   0.636   9.128   9.816  0.2783 -0.4215 -0.0906
35551SOL    HW2 8907   0.633   8.977   9.827  0.0520 -0.4073  0.0442
35552SOL     OW 8908  10.138   6.728   2.281 -0.0357  0.0708  0.8595
35552SOL    HW1 8909  10.122   6.653   2.224  0.3513  0.3271  0.3993
35552SOL    HW2 8910  10.223   6.711   2.321  0.4413  0.6465  0.1126
35553SOL     OW 8911   3.921   8.371   0.738  0.2204 -0.6099 -0.1448
35553SOL    HW1 8912   3.967   8.385   0.655  1.9360 -0.0260  0.8533
35553SOL    HW2 8913   3.859   8.300   0.720  2.2430 -2.1919 -1.3062
35554SOL     OW 8914   3.123   6.376   8.889 -0.0247 -0.6095 -0.0503
35554SOL    HW1 8915   3.193   6.413   8.835 -1.1359  0.0102 -1.1121
35554SOL    HW2 8916   3.144   6.403   8.978  0.3387  0.7682 -0.5390
35555SOL     OW 8917   6.702   7.583   0.229  0.5175 -0.1763 -0.1061
35555SOL    HW1 8918   6.619   7.587   0.180  0.5753  0.6214 -0.1589
35555SOL    HW2 8919   6.769   7.572   0.162  0.4099 -1.4526 -0.0150
35556SOL     OW 8920   1.176   1.589   4.936  0.2479  0.0782 -0.2084
35556SOL    HW1 8921   1.087   1.569   4.963  0.3253 -1.8524 -1.1954
35556SOL    HW2 8922   1.215   1.503   4.918  1.8776  0.9551 -1.0835
35557SOL     OW 8923   6.707   9.719   6.928 -0.0068 -0.7575  0.0799
35557SOL    HW1 8924   6.736   9.731   6.837 -0.2420 -0.2452  0.0675
35557SOL    HW2 8925   6.773   9.765   6.980 -1.6514  2.0181 -0.0494
35558SOL     OW 8926   4.784   3.931   0.811  0.3483 -0.7664 -0.1796
35558SOL    HW1 8927   4.832   3.883   0.743 -1.6071 -0.7325 -1.6583
35558SOL    HW2 8928   4.696   3.895   0.809 -0.7568  1.7138 -0.2169
35559SOL     OW 8929   1.173   2.995  10.162 -0.2650 -0.6114  0.1058
35559SOL    HW1 8930   1.122   2.958  10.234 -0.6242 -0.9942 -0.3356
35559SOL    HW2 8931   1.122   3.071  10.134 -0.4739 -0.8511 -0.1746
35560SOL     OW 8932   9.401   1.954   8.876 -0.5932 -0.4093 -0.1830
35560SOL    HW1 8933   9.455   2.012   8.929  0.4686 -1.7742  0.2959
35560SOL    HW2 8934   9.379   1.881   8.935  0.0259 -1.6143 -1.3896
35561SOL     OW 8935   6.014   4.526   4.556 -0.2228  0.0681  0.3323
35561SOL    HW1 8936   6.020   4.565   4.468  2.2065  1.7657  1.1217
35561SOL    HW2 8937   6.057   4.441   4.547 -0.1075  0.1704 -0.1526
35562SOL     OW 8938   9.356   9.230   5.669  0.3031 -0.1638 -0.5632
35562SOL    HW1 8939   9.340   9.213   5.761 -0.9540 -0.6157 -0.8420
35562SOL    HW2 8940   9.414   9.160   5.641  0.2316 -0.3529 -0.2435
35563SOL     OW 8941  10.483   7.506   7.865  0.4190  0.1057  0.3200
35563SOL    HW1 8942  10.434   7.586   7.846 -1.5464 -1.1844 -0.4233
35563SOL    HW2 8943  10.455   7.481   7.953  0.6706 -0.0006  0.3705
35564SOL     OW 8944   0.897   6.186  10.071  0.0828  0.6379 -0.3477
35564SOL    HW1 8945   0.969   6.206  10.131 -0.7504 -1.1397  1.4025
35564SOL    HW2 8946   0.933   6.121  10.011  0.5300  1.3830 -0.8996
35565SOL     OW 8947   7.763   3.065   1.073 -0.0773  0.4731  0.0829
35565SOL    HW1 8948   7.704   3.111   1.014  0.6520  0.5860 -0.5723
35565SOL    HW2 8949   7.850   3.078   1.035  0.1600 -1.4191 -0.1409
35566SOL     OW 8950   8.777   0.431   6.009  0.4113 -0.2375 -0.0357
35566SOL    HW1 8951   8.765   0.387   5.924 -0.5669 -1.6720  0.7907
35566SOL    HW2 8952   8.816   0.364   6.065  1.3111  0.7841  0.5882
35567SOL     OW 8953   7.722   9.293   1.804 -0.0323  0.3921 -0.2506
35567SOL    HW1 8954   7.697   9.293   1.896  0.5143 -0.8289 -0.0817
35567SOL    HW2 8955   7.745   9.202   1.786 -0.4829  0.5498 -1.6971
35568SOL     OW 8956   3.399   6.322   4.212 -0.0813  0.1155  0.4308
35568SOL    HW1 8957   3.355   6.394   4.166  0.9294  0.6686  0.3000
35568SOL    HW2 8958   3.332   6.288   4.272 -0.9575  0.3404 -0.3967
35569SOL     OW 8959  10.185   6.960   6.060 -0.0587 -0.1851  0.2376
35569SOL    HW1 8960  10.111   6.971   6.120 -0.3137 -0.3801 -0.0365
35569SOL    HW2 8961  10.257   7.006   6.102 -0.0188 -0.9713  1.0753
35570SOL     OW 8962  10.301   4.098   3.890 -0.4651 -0.5751  0.3488
35570SOL    HW1 8963  10.303   4.188   3.858 -1.8299  0.0834  2.0047
35570SOL    HW2 8964  10.393   4.077   3.908  0.5757 -1.2863 -4.4670
35571SOL     OW 8965   2.531   4.595   1.645  0.1852 -0.4441 -0.6091
35571SOL    HW1 8966   2.512   4.684   1.674  0.5989 -0.0900 -1.4081
35571SOL    HW2 8967   2.530   4.543   1.726  0.5958  0.3977 -0.0478
35572SOL     OW 8968   4.804   8.683   0.263 -0.0412 -0.3699 -0.3215
35572SOL    HW1 8969   4.741   8.614   0.242  0.0423 -0.3686 -0.5868
35572SOL    HW2 8970   4.764   8.763   0.228 -0.0350 -0.3212 -0.2150
35573SOL     OW 8971   7.157   8.744   2.276  0.6587  0.5888 -0.3886
35573SOL    HW1 8972   7.198   8.660   2.256  0.3153  0.5630 -1.0323
35573SOL    HW2 8973   7.230   8.803   2.294  0.9061  0.1777 -0.0116
35574SOL     OW 8974   6.213   5.401   3.517  0.0029 -0.0615  0.0947
35574SOL    HW1 8975   6.156   5.334   3.481 -1.0952  0.1671  1.3340
35574SOL    HW2 8976   6.156   5.478   3.527  1.6634  1.8119 -3.2311
35575SOL     OW 8977   3.211   3.916   9.708 -0.6000  0.0293  0.4561
35575SOL    HW1 8978   3.296   3.928   9.752 -1.1345  2.3201  0.9983
35575SOL    HW2 8979   3.171   3.842   9.753  0.2418  0.2471  1.6083
35576SOL     OW 8980   0.291   5.389   7.872  0.5897  0.1862 -0.3023
35576SOL    HW1 8981   0.226   5.377   7.941  2.3010  1.4821  1.6943
35576SOL    HW2 8982   0.277   5.479   7.842 -0.2369 -0.4131 -1.8410
35577SOL     OW 8983   0.884   4.032   8.182  0.3146 -0.1639 -0.2662
35577SOL    HW1 8984   0.953   3.966   8.186 -0.7198 -1.2657 -0.1711
35577SOL    HW2 8985   0.803   3.982   8.177 -0.5954  1.0769  1.2574
35578SOL     OW 8986   1.633   9.156  10.176 -0.6036 -0.1258 -0.4423
35578SOL    HW1 8987   1.672   9.083  10.128  2.1837 -0.8999  2.6524
35578SOL    HW2 8988   1.659   9.234  10.126  1.2116 -0.9390 -0.8311
35579SOL     OW 8989   6.348   4.949   6.217 -0.2756  0.5155  0.0693
35579SOL    HW1 8990   6.290   4.889   6.264 -0.2279  1.5311  1.4968
35579SOL    HW2 8991   6.316   4.949   6.127  0.7008 -2.8538 -0.3991
35580SOL     OW 8992   2.230   8.709   9.403  0.5900  0.0519  0.4957
35580SOL    HW1 8993   2.147   8.737   9.364  0.9120 -1.8766 -1.7775
35580SOL    HW2 8994   2.238   8.762   9.482 -1.9043  1.5884 -0.1704
35581SOL     OW 8995   4.570   3.004   6.376 -0.2866 -0.3608  0.6574
35581SOL    HW1 8996   4.522   3.027   6.297 -0.2943 -0.4875  0.6258
35581SOL    HW2 8997   4.642   2.949   6.346 -1.7270 -2.5545  0.9731
35582SOL     OW 8998   0.344   0.806   9.526  0.3223  0.0473  0.2427
35582SOL    HW1 8999   0.366   0.778   9.437 -2.0718 -0.8021 -0.1555
35582SOL    HW2 9000   0.325   0.900   9.517  1.2706  0.2470  0.1429
35583SOL     OW 9001   7.681   7.399   1.446 -0.4252  0.2129  0.4049
35583SOL    HW1 9002   7.742   7.440   1.507 -1.1790 -0.9668  2.0556
35583SOL    HW2 9003   7.719   7.313   1.427 -0.9165 -0.0146  0.4212
35584SOL     OW 9004   2.379   8.550   4.918  0.5288  0.1126 -0.0397
35584SOL    HW1 9005   2.435   8.592   4.854  2.1846 -0.6770  0.8364
35584SOL    HW2 9006   2.292   8.550   4.878  1.6867 -1.3282 -2.7896
35585SOL     OW 9007   1.045   1.702   3.327 -0.1216  0.2854  0.4273
35585SOL    HW1 9008   0.958   1.722   3.362  0.6901  0.4651  2.4811
35585SOL    HW2 9009   1.084   1.787   3.308  0.4959  0.3676  1.9064
35586SOL     OW 9010   6.521   9.628   2.643  0.5679  0.2695 -0.0442
35586SOL    HW1 9011   6.582   9.687   2.598  0.5536 -1.1347 -2.0580
35586SOL    HW2 9012   6.462   9.598   2.573 -2.2423  1.2517  1.7156
35587SOL     OW 9013   8.544   4.748   6.565 -0.3505  0.6168  0.1494
35587SOL    HW1 9014   8.557   4.842   6.554 -0.9285  0.6313 -0.4321
35587SOL    HW2 9015   8.504   4.719   6.483 -0.9459  0.0141  0.6370
35588SOL     OW 9016   7.270   1.848  10.463 -0.2053 -0.5367  0.2740
35588SOL    HW1 9017   7.216   1.927  10.473  2.2830  1.0853  1.8734
35588SOL    HW2 9018   7.277   1.836  10.368 -1.2009  0.7341  0.0015
35589SOL     OW 9019   3.479   4.962   2.184 -0.6570 -0.0328 -0.0557
35589SOL    HW1 9020   3.406   5.012   2.149 -1.3827 -0.1085  1.2929
35589SOL    HW2 9021   3.554   5.022   2.180 -1.6612  1.5248  2.2301
35590SOL     OW 9022   9.976   9.473   9.720 -0.0928 -0.4714  0.8106
35590SOL    HW1 9023  10.009   9.536   9.655 -1.1496 -0.9034 -0.1879
35590SOL    HW2 9024  10.036   9.399   9.713  0.8130  0.1636  1.5790
35591SOL     OW 9025   4.671   3.866   9.878 -0.2528  0.2438 -0.4577
35591SOL    HW1 9026   4.669   3.907   9.965 -0.1898  1.4691 -1.0110
35591SOL    HW2 9027   4.730   3.921   9.827 -0.3235 -0.4384 -1.2954
35592SOL     OW 9028   2.358   9.745   7.195 -0.1597 -0.0733  0.3044
35592SOL    HW1 9029   2.399   9.701   7.121 -0.5742 -0.9915  0.6102
35592SOL    HW2 9030   2.423   9.740   7.265  0.2657  0.8681  0.0021
35593SOL     OW 9031   8.675   5.530   5.877 -0.0592 -0.1829 -0.4816
35593SOL    HW1 9032   8.638   5.468   5.940  0.5252  1.6949  1.8695
35593SOL    HW2 9033   8.735   5.477   5.824  0.2467 -1.6883  1.2587
35594SOL     OW 9034   4.122   1.965   8.849  0.0513  0.3677  0.0651
35594SOL    HW1 9035   4.053   2.031   8.851  0.5533  0.9025 -0.2402
35594SOL    HW2 9036   4.075   1.882   8.860 -0.3739  0.8969  3.2294
35595SOL     OW 9037   7.595   6.000   5.175 -0.5418  0.5028  0.3246
35595SOL    HW1 9038   7.610   5.947   5.097  1.1846  0.3699  0.7022
35595SOL    HW2 9039   7.600   6.091   5.144  1.0360  0.4641  0.3850
35596SOL     OW 9040   0.631   3.382   5.281  0.1018  0.4670  0.3754
35596SOL    HW1 9041   0.690   3.401   5.208 -0.1502  0.4314  0.1619
35596SOL    HW2 9042   0.617   3.288   5.278 -1.0365  0.6296 -0.4142
35597SOL     OW 9043   0.585   3.242   3.513  0.2244 -0.3281  0.5311
35597SOL    HW1 9044   0.517   3.179   3.491  0.2429  0.4144 -2.0395
35597SOL    HW2 9045   0.667   3.194   3.503  0.2083 -1.3542  4.0814
35598SOL     OW 9046   1.842   1.226   9.626  0.3802  0.1472 -0.7472
35598SOL    HW1 9047   1.852   1.154   9.688  0.2621 -1.2342 -2.2774
35598SOL    HW2 9048   1.930   1.242   9.592  0.1760 -0.3552 -1.5469
35599SOL     OW 9049   1.637   4.358   2.518 -0.2485  0.4146  1.0468
35599SOL    HW1 9050   1.643   4.265   2.496 -0.0909  1.1247 -2.5559
35599SOL    HW2 9051   1.558   4.365   2.572 -0.1829 -1.7862  1.5013
35600SOL     OW 9052   0.322   1.539   9.455 -0.4271  0.3892 -0.8456
35600SOL    HW1 9053   0.298   1.476   9.522 -0.0003 -0.4076 -1.4192
35600SOL    HW2 9054   0.244   1.594   9.444 -1.3299 -0.9256 -1.3198
35601SOL     OW 9055   6.880   2.230   7.835  0.7767  0.8314  0.0686
35601SOL    HW1 9056   6.971   2.209   7.814  2.0635  1.7581  3.9038
35601SOL    HW2 9057   6.837   2.146   7.845  1.2118  0.3761 -1.6201
35602SOL     OW 9058   2.328   3.591   7.085 -0.6738 -0.5660 -0.2007
35602SOL    HW1 9059   2.323   3.593   6.990 -2.2129 -1.5343 -0.1788
35602SOL    HW2 9060   2.283   3.510   7.110 -0.8368 -0.0326  1.3747
35603SOL     OW 9061   7.589   3.222   3.982  0.4295  1.0223  0.2490
35603SOL    HW1 9062   7.671   3.242   4.029  1.5198 -1.5478 -0.4142
35603SOL    HW2 9063   7.618   3.190   3.896 -1.3261  0.8620 -0.3145
35604SOL     OW 9064   0.880   3.102   0.120  0.4829 -0.0468 -0.0341
35604SOL    HW1 9065   0.973   3.086   0.108  0.4189  0.1652 -0.8355
35604SOL    HW2 9066   0.838   3.018   0.103  0.3914  0.2546 -1.3673
35605SOL     OW 9067   9.958   3.684   1.819 -0.3543 -0.6215 -0.0335
35605SOL    HW1 9068   9.954   3.643   1.733 -1.1597  0.2354 -0.4194
35605SOL    HW2 9069   9.922   3.618   1.878 -3.3198  0.0817 -0.8827
35606SOL     OW 9070   8.181   8.359   7.263 -0.2989  0.6911  0.3745
35606SOL    HW1 9071   8.243   8.395   7.200  0.8168  0.2228  1.1691
35606SOL    HW2 9072   8.199   8.407   7.344 -0.0267 -0.3641  0.9658
35607SOL     OW 9073   1.711   4.385   4.628  0.1163  0.7452 -0.5251
35607SOL    HW1 9074   1.772   4.452   4.596  0.9154  0.3599  0.1339
35607SOL    HW2 9075   1.624   4.422   4.613  0.5243  1.5275 -1.0243
35608SOL     OW 9076   8.860   6.531   9.542  0.4232 -0.1513 -0.6650
35608SOL    HW1 9077   8.911   6.584   9.603 -1.1708  0.8974 -0.1828
35608SOL    HW2 9078   8.793   6.591   9.508 -0.9196 -1.6232 -0.7603
35609SOL     OW 9079   0.377   6.003  10.606 -0.0102 -0.0504 -0.4081
35609SOL    HW1 9080   0.360   5.997  10.512 -0.2929 -2.0137 -0.2745
35609SOL    HW2 9081   0.458   6.052  10.612  0.2272 -0.2357 -1.7022
35610SOL     OW 9082   7.217   1.387   0.073 -0.2061  0.5258 -0.7330
35610SOL    HW1 9083   7.236   1.480   0.083  0.4802  0.3965 -0.8013
35610SOL    HW2 9084   7.134   1.374   0.119  0.2365  0.9560  0.1985
35611SOL     OW 9085   7.234   3.993   0.220  0.2815  0.0477  0.4447
35611SOL    HW1 9086   7.256   4.078   0.260 -0.6518  0.1183  0.8316
35611SOL    HW2 9087   7.208   3.938   0.294  0.9066 -0.5967  0.1977
35612SOL     OW 9088   1.079   1.085   8.272  0.4400  0.4931  0.3401
35612SOL    HW1 9089   1.009   1.077   8.207  2.1795  0.4584 -1.6092
35612SOL    HW2 9090   1.042   1.142   8.340 -1.7884 -0.2908 -0.1238
35613SOL     OW 9091   6.179   0.721   4.285 -0.2311 -0.7313  0.7520
35613SOL    HW1 9092   6.085   0.740   4.282 -0.3858 -1.3770  1.1033
35613SOL    HW2 9093   6.194   0.667   4.208 -0.4169 -1.6785  1.3538
35614SOL     OW 9094   8.983   9.046   5.585 -0.0199 -0.2846 -0.3390
35614SOL    HW1 9095   9.073   9.031   5.614 -0.0168  1.2735  0.6025
35614SOL    HW2 9096   8.930   8.986   5.637  0.3432 -0.0443  0.3242
35615SOL     OW 9097   2.816   2.215   3.072 -0.2179 -0.1131 -0.1929
35615SOL    HW1 9098   2.726   2.247   3.085 -0.1414 -0.3476  1.0236
35615SOL    HW2 9099   2.832   2.157   3.146  1.1895  0.4860 -0.0013
35616SOL     OW 9100   6.699   7.320   8.760  0.7350 -0.4540 -0.8016
35616SOL    HW1 9101   6.643   7.246   8.737  0.4839 -0.5748  0.1829
35616SOL    HW2 9102   6.720   7.307   8.853 -0.0440  1.1876 -0.3642
35617SOL     OW 9103   5.911   5.049   0.148 -0.2254  0.5327  0.3976
35617SOL    HW1 9104   5.978   5.117   0.142 -0.2698  0.5764  0.4004
35617SOL    HW2 9105   5.845   5.074   0.083 -0.3325  0.5933  0.5290
35618SOL     OW 9106   2.034   1.054   7.461  0.2569 -0.3503 -0.1842
35618SOL    HW1 9107   1.959   1.009   7.423  0.1882  0.1612 -0.6744
35618SOL    HW2 9108   2.101   0.987   7.469 -0.6293 -1.1108  1.3965
35619SOL     OW 9109   8.463   9.504   8.336 -0.7031 -0.0626 -0.1797
35619SOL    HW1 9110   8.375   9.516   8.300  0.0292  0.2971 -1.9238
35619SOL    HW2 9111   8.495   9.423   8.295  1.2489  1.8506 -2.7987
35620SOL     OW 9112   6.976   1.781   5.141 -0.0204 -0.7064  0.0645
35620SOL    HW1 9113   7.002   1.871   5.121  2.1450 -1.6102 -1.4937
35620SOL    HW2 9114   6.995   1.771   5.235 -1.3706  0.7461  0.5381
35621SOL     OW 9115   5.810   2.387   3.073  0.1453  0.3752 -0.5560
35621SOL    HW1 9116   5.726   2.378   3.028  0.5320 -2.4958 -0.8659
35621SOL    HW2 9117   5.855   2.457   3.026 -1.6323  1.2139 -1.0731
35622SOL     OW 9118   2.296   1.669   2.056  0.5859  0.1392  0.2197
35622SOL    HW1 9119   2.250   1.632   1.981  1.8374 -0.1709 -0.4291
35622SOL    HW2 9120   2.247   1.639   2.133  0.1658 -0.8071 -0.4042
35623SOL     OW 9121   9.857   7.681   0.848 -0.4765 -0.1893 -0.2824
35623SOL    HW1 9122   9.813   7.655   0.929 -1.4325 -0.1547 -0.7920
35623SOL    HW2 9123   9.787   7.695   0.785  0.2801 -0.4665 -1.2039
35624SOL     OW 9124   4.979   0.926   0.304 -0.4452  0.2839 -0.0223
35624SOL    HW1 9125   4.905   0.919   0.243 -1.6887  0.8563  1.3494
35624SOL    HW2 9126   5.011   0.837   0.313 -0.5315  0.1248 -1.1630
35625SOL     OW 9127   1.628   2.855   1.785 -0.0502  0.4015 -0.6564
35625SOL    HW1 9128   1.720   2.867   1.809 -0.2875 -0.3559  0.7178
35625SOL    HW2 9129   1.631   2.813   1.699  0.9351 -1.3503  0.1890
35626SOL     OW 9130   4.211   7.872   4.839 -0.1337 -0.2555 -0.7770
35626SOL    HW1 9131   4.263   7.809   4.889 -0.4555  0.7291  0.8802
35626SOL    HW2 9132   4.215   7.952   4.891  1.7901  1.7231 -3.6733
35627SOL     OW 9133   5.155   2.643   2.648  0.1259  0.1406  1.0015
35627SOL    HW1 9134   5.077   2.658   2.595  0.5820 -0.2914  0.1800
35627SOL    HW2 9135   5.149   2.706   2.719 -0.7452  0.4130  0.6957
35628SOL     OW 9136   9.570   1.052   5.368 -0.4815  0.2850  0.4173
35628SOL    HW1 9137   9.552   0.978   5.426  0.4649 -0.0749  0.2646
35628SOL    HW2 9138   9.532   1.026   5.284 -0.8713  0.3318  0.5747
35629SOL     OW 9139   6.318   3.550   4.998  0.1832 -0.4559  0.3040
35629SOL    HW1 9140   6.253   3.483   5.018  0.0530 -0.6677 -0.7669
35629SOL    HW2 9141   6.368   3.514   4.925  1.4789 -0.2679  1.0754
35630SOL     OW 9142   9.492   9.237   6.702 -0.3664  0.2602  0.1825
35630SOL    HW1 9143   9.422   9.232   6.768  0.3037 -2.1319  0.8127
35630SOL    HW2 9144   9.552   9.304   6.736 -2.0921  2.0707 -0.1797
35631SOL     OW 9145   6.883   9.358   2.389 -0.3047  0.2276  0.7173
35631SOL    HW1 9146   6.881   9.418   2.463  1.1564  0.1320  0.8587
35631SOL    HW2 9147   6.845   9.277   2.423 -0.3040  0.4068  1.1495
35632SOL     OW 9148   1.205   0.993   3.449 -0.1939 -0.6716  0.1582
35632SOL    HW1 9149   1.127   1.021   3.497  0.3882 -0.9146  1.2985
35632SOL    HW2 9150   1.187   1.015   3.358 -1.2713 -0.0152  0.5108
35633SOL     OW 9151   7.345   8.176   6.861 -0.4767 -0.2665  0.1730
35633SOL    HW1 9152   7.404   8.226   6.804  0.1531 -1.1853 -0.0046
35633SOL    HW2 9153   7.353   8.086   6.830 -1.2932 -0.5448  0.7394
35634SOL     OW 9154   0.867   3.188   4.125  0.5589 -0.3272  0.1243
35634SOL    HW1 9155   0.937   3.123   4.117  0.3457 -0.5816  0.3292
35634SOL    HW2 9156   0.851   3.217   4.035 -0.2759 -1.5410 -0.1343
35635SOL     OW 9157   8.452   1.776   5.144 -0.4055 -0.1433  0.5887
35635SOL    HW1 9158   8.422   1.866   5.154 -1.0735  0.0624 -2.3157
35635SOL    HW2 9159   8.384   1.734   5.092  0.1208 -2.2301  1.4975
35636SOL     OW 9160   6.836   0.179   3.178 -0.0016  0.0820  0.1160
35636SOL    HW1 9161   6.926   0.157   3.202  0.1821  0.6230 -0.0783
35636SOL    HW2 9162   6.839   0.271   3.155 -0.7752  0.3375  0.9553
35637SOL     OW 9163   0.063   7.158  10.467  0.1716 -0.7289 -0.2325
35637SOL    HW1 9164   0.089   7.187  10.555  0.4986 -2.1655  0.1667
35637SOL    HW2 9165   0.145   7.149  10.420  0.0201 -0.3076 -0.5813
35638SOL     OW 9166   3.374   8.144   7.525 -0.6180 -0.3961  0.3390
35638SOL    HW1 9167   3.339   8.177   7.608  1.4673  1.8165  0.4865
35638SOL    HW2 9168   3.320   8.186   7.458 -2.5096 -2.4352  0.4861
35639SOL     OW 9169   6.832   9.779   3.429 -0.2201  0.4318  0.1805
35639SOL    HW1 9170   6.925   9.785   3.449  0.6294 -0.0619 -3.0977
35639SOL    HW2 9171   6.814   9.685   3.425 -0.6449  0.5224 -0.1094
35640SOL     OW 9172   7.105   5.774   2.239  0.2475  0.4969  0.2513
35640SOL    HW1 9173   7.195   5.756   2.264  0.2346 -1.6311 -0.9666
35640SOL    HW2 9174   7.052   5.721   2.299  0.0646 -1.5938 -1.6168
35641SOL     OW 9175   0.194   1.511   5.216 -0.0779  0.4069 -0.4869
35641SOL    HW1 9176   0.216   1.601   5.241 -1.4979  0.6660 -0.1198
35641SOL    HW2 9177   0.192   1.513   5.120  0.1270  0.7005 -0.4883
35642SOL     OW 9178   9.991   1.508   5.320 -0.5127 -0.4592 -0.1008
35642SOL    HW1 9179  10.080   1.499   5.355  0.3732  0.0725 -2.1199
35642SOL    HW2 9180   9.977   1.429   5.269 -1.5651 -0.9412  0.8850
35643SOL     OW 9181   8.517   8.134   1.220 -0.0081  0.0599  0.3836
35643SOL    HW1 9182   8.473   8.064   1.267  0.8039  0.4483  1.7706
35643SOL    HW2 9183   8.556   8.189   1.288 -1.2656  2.3423 -0.6071
35644SOL     OW 9184   3.026   0.025   9.002  0.1802 -0.5059  0.1433
35644SOL    HW1 9185   3.014   0.097   8.939 -1.5748 -1.6394 -0.8958
35644SOL    HW2 9186   2.938   0.007   9.035  1.1804  1.2867  4.4967
35645SOL     OW 9187   0.980   7.591   4.443  0.6580 -0.1632 -1.1012
35645SOL    HW1 9188   0.991   7.625   4.355  0.2699  0.7682 -0.8009
35645SOL    HW2 9189   0.961   7.668   4.497  0.0625 -0.8175 -0.3478
35646SOL     OW 9190   4.562   0.783   0.944 -0.5906  0.1243  0.1052
35646SOL    HW1 9191   4.497   0.715   0.964 -0.8719  0.0027 -1.1242
35646SOL    HW2 9192   4.641   0.756   0.992 -1.8493  1.1104  2.9065
35647SOL     OW 9193   2.793   8.428   4.938  0.3920  0.1134  0.0968
35647SOL    HW1 9194   2.803   8.511   4.890  2.3986  0.4868  1.0642
35647SOL    HW2 9195   2.865   8.428   5.000 -1.9124 -0.5089  2.9593
35648SOL     OW 9196   8.223   2.510   5.076 -0.0681 -0.3801 -0.6700
35648SOL    HW1 9197   8.166   2.454   5.023 -0.3973  0.0121 -0.7341
35648SOL    HW2 9198   8.164   2.552   5.138  0.1908 -0.1559 -0.5761
35649SOL     OW 9199   5.901   6.944   2.183 -0.4807  0.2928 -0.2643
35649SOL    HW1 9200   5.953   6.970   2.108  1.2159 -1.3105  0.2739
35649SOL    HW2 9201   5.925   7.005   2.252 -1.6546  1.4438 -0.8303
35650SOL     OW 9202   3.763   2.150   9.863  0.5017 -0.2857 -0.1439
35650SOL    HW1 9203   3.848   2.110   9.844  0.2185 -1.0062  0.0593
35650SOL    HW2 9204   3.742   2.121   9.952  1.3387  2.1870  0.9444
35651SOL     OW 9205   6.255   3.814   7.275  0.5504 -0.0425 -0.5632
35651SOL    HW1 9206   6.319   3.785   7.210  1.5600  1.7726 -0.4310
35651SOL    HW2 9207   6.189   3.861   7.224  1.7523  2.0665 -0.2473
35652SOL     OW 9208   2.966   3.466   9.869 -0.2393 -0.1404 -0.0748
35652SOL    HW1 9209   2.986   3.504   9.783 -1.1741 -0.1358 -0.2934
35652SOL    HW2 9210   2.935   3.540   9.921  0.3831 -0.1308  0.2981
35653SOL     OW 9211   7.930   4.556   6.347  0.0437  0.0033 -0.2298
35653SOL    HW1 9212   7.889   4.573   6.432  0.0740  0.5151 -0.3183
35653SOL    HW2 9213   7.987   4.631   6.332 -0.6217  0.3419 -1.1147
35654SOL     OW 9214   4.619   3.567   6.999  0.6987 -0.2698 -0.4610
35654SOL    HW1 9215   4.657   3.639   7.049 -1.0044 -0.7753  1.7011
35654SOL    HW2 9216   4.603   3.498   7.064 -2.5332 -0.5911 -1.4467
35655SOL     OW 9217   5.599   0.286   0.807 -0.4130  0.4959  0.2217
35655SOL    HW1 9218   5.666   0.295   0.874  0.0739 -0.3837 -0.1281
35655SOL    HW2 9219   5.538   0.358   0.824  0.3931  1.0548  0.7944
35656SOL     OW 9220   5.834   9.159  10.561  0.4763  0.5586 -0.3828
35656SOL    HW1 9221   5.880   9.106  10.626  1.7115  0.7597 -1.0632
35656SOL    HW2 9222   5.869   9.247  10.573  0.8328  0.5745 -1.3869
35657SOL     OW 9223  10.645   8.989   8.916 -0.0518 -0.2035  0.9631
35657SOL    HW1 9224  10.589   8.915   8.896  0.2767 -0.3111  0.4277
35657SOL    HW2 9225  10.588   9.066   8.907  0.3594 -0.1163 -1.7293
35658SOL     OW 9226   6.704   7.268   0.639 -0.3242 -0.0412  0.4176
35658SOL    HW1 9227   6.661   7.305   0.716 -1.0793 -1.5358  0.7665
35658SOL    HW2 9228   6.794   7.298   0.644 -0.9928  2.1590  0.3579
35659SOL     OW 9229   6.279   2.157   8.102 -0.1620 -0.4839  0.1711
35659SOL    HW1 9230   6.271   2.139   8.008  2.2278 -0.4546 -0.0979
35659SOL    HW2 9231   6.260   2.073   8.144  1.4269 -1.2280 -0.5287
35660SOL     OW 9232   0.385   4.271   5.683 -0.2834  0.0116  0.8099
35660SOL    HW1 9233   0.291   4.286   5.693  0.1459  1.3728  3.7326
35660SOL    HW2 9234   0.403   4.194   5.736 -0.1003 -2.1370 -2.1457
35661SOL     OW 9235   0.711   3.120   7.417  0.1038  0.0771  0.1023
35661SOL    HW1 9236   0.721   3.088   7.507  0.0394  1.3932  0.5906
35661SOL    HW2 9237   0.800   3.142   7.389  0.2103 -0.9063 -0.4032
35662SOL     OW 9238   5.451   8.357   5.573  0.0985 -0.2046  0.4405
35662SOL    HW1 9239   5.531   8.324   5.613  0.1738 -0.4766  0.0738
35662SOL    HW2 9240   5.432   8.439   5.620  2.2569  1.5081 -1.4206
35663SOL     OW 9241   9.701   4.913   0.970  0.0748 -0.2110  0.3329
35663SOL    HW1 9242   9.609   4.890   0.954 -0.1995  1.6345 -1.2347
35663SOL    HW2 9243   9.750   4.859   0.907 -0.3868  1.7898 -1.9044
35664SOL     OW 9244   3.981   4.115   8.191  0.8578  0.2378 -0.6240
35664SOL    HW1 9245   4.016   4.203   8.204  0.4978  0.1667  1.0718
35664SOL    HW2 9246   4.007   4.067   8.270  0.6334 -1.0388 -1.3014
35665SOL     OW 9247   4.473   9.711   0.212  0.3202  0.4819  0.4927
35665SOL    HW1 9248   4.394   9.764   0.213  1.4951  2.3956 -1.3426
35665SOL    HW2 9249   4.459   9.647   0.282 -3.3221 -0.0273 -0.4803
35666SOL     OW 9250   5.612   0.149   4.603  0.2567  0.4232  0.3709
35666SOL    HW1 9251   5.688   0.110   4.561  0.4281 -0.5231  1.4818
35666SOL    HW2 9252   5.566   0.074   4.643  0.5607  1.3091  2.5304
35667SOL     OW 9253   1.161   2.191   5.414 -0.3306  0.7348  0.0428
35667SOL    HW1 9254   1.217   2.114   5.419 -1.2244 -0.0719 -1.5288
35667SOL    HW2 9255   1.221   2.264   5.402  0.4301 -0.1435 -1.9431
35668SOL     OW 9256   7.843   0.230   6.035 -0.5880  0.6574 -0.2264
35668SOL    HW1 9257   7.878   0.316   6.058 -0.8642  0.4213  1.1875
35668SOL    HW2 9258   7.777   0.212   6.102 -1.9236  0.1719 -1.6027
35669SOL     OW 9259   8.316   7.523   4.278 -0.7002  0.3200 -0.2953
35669SOL    HW1 9260   8.319   7.432   4.307  0.9260 -0.1095 -1.6791
35669SOL    HW2 9261   8.239   7.559   4.323 -0.7991 -1.4339  1.0729
35670SOL     OW 9262   1.634   5.729   1.334  0.6811  0.5665 -0.3053
35670SOL    HW1 9263   1.690   5.721   1.257  1.2686  0.4130  0.1356
35670SOL    HW2 9264   1.564   5.665   1.319  0.7260  0.6222 -0.7692
35671SOL     OW 9265   7.078  10.598   6.055  0.0497 -0.2749  0.0181
35671SOL    HW1 9266   7.092  10.685   6.093 -1.7618  0.6800 -1.3078
35671SOL    HW2 9267   6.986  10.599   6.028  0.1611 -2.4039 -0.5937
35672SOL     OW 9268   4.231   5.311   3.020 -0.2203  0.2877 -0.5161
35672SOL    HW1 9269   4.322   5.340   3.018 -0.3164  0.7368  0.7262
35672SOL    HW2 9270   4.217   5.271   2.935  1.6450 -1.3201 -0.1482
35673SOL     OW 9271   9.302   1.864   9.908  0.0926 -0.0509 -0.6193
35673SOL    HW1 9272   9.224   1.916   9.926  1.0442  1.3176 -0.2685
35673SOL    HW2 9273   9.318   1.816   9.989 -0.7743 -0.9145 -0.9345
35674SOL     OW 9274   4.000   9.517  10.280 -0.4293  0.4963 -0.7319
35674SOL    HW1 9275   4.000   9.567  10.362  2.9505  0.4219 -0.5430
35674SOL    HW2 9276   3.998   9.425  10.307  0.0687  0.4761 -0.7642
35675SOL     OW 9277   6.489   2.310   2.963  0.6651 -0.3110  0.0949
35675SOL    HW1 9278   6.495   2.301   2.868  1.6639 -1.8223  0.2721
35675SOL    HW2 9279   6.395   2.309   2.981  0.2967  2.6174 -1.0368
35676SOL     OW 9280   6.167   8.116   2.055 -0.0098 -0.2196  0.1311
35676SOL    HW1 9281   6.123   8.172   1.992 -1.3239 -1.7883 -0.4103
35676SOL    HW2 9282   6.131   8.143   2.140 -0.4824 -0.1090 -0.1017
35677SOL     OW 9283   6.494   8.453   0.931  0.8096  0.0156  0.1638
35677SOL    HW1 9284   6.524   8.400   1.005  0.0030 -0.8141 -0.0808
35677SOL    HW2 9285   6.425   8.508   0.968 -0.0705 -0.8835 -0.0853
35678SOL     OW 9286   7.400   4.513   2.514  0.4364 -0.1345 -0.8729
35678SOL    HW1 9287   7.386   4.426   2.476 -0.3316 -0.5417  0.2806
35678SOL    HW2 9288   7.324   4.564   2.485 -0.0440 -0.3851 -0.0669
35679SOL     OW 9289   5.859   0.020   4.863  0.5690  0.3135 -0.0778
35679SOL    HW1 9290   5.828  -0.070   4.857 -0.3157  0.6207 -0.1843
35679SOL    HW2 9291   5.953   0.015   4.843  0.9296 -0.8329  1.7142
35680SOL     OW 9292   6.408   3.904  10.558  0.8901  0.0644 -0.6586
35680SOL    HW1 9293   6.422   3.972  10.624  0.4096 -0.4504 -0.0084
35680SOL    HW2 9294   6.463   3.930  10.484  1.7283  0.4631  0.0864
35681SOL     OW 9295   9.112   3.118   2.089 -0.0571 -0.2418 -0.3216
35681SOL    HW1 9296   9.177   3.175   2.048 -1.2298  2.5106  1.3206
35681SOL    HW2 9297   9.154   3.032   2.092  1.5581  0.2586 -3.5952
35682SOL     OW 9298   4.433   3.518   6.534 -0.3910 -0.8603  0.3656
35682SOL    HW1 9299   4.517   3.474   6.522 -0.4458 -0.8604 -0.0065
35682SOL    HW2 9300   4.426   3.577   6.459 -0.9468 -1.2169  0.1331
35683SOL     OW 9301   6.330   9.568   9.978 -0.3673  0.5606  0.4265
35683SOL    HW1 9302   6.363   9.483  10.005  1.7563  1.4277  0.7542
35683SOL    HW2 9303   6.280   9.551   9.898 -0.0522 -0.9899  0.5468
35684SOL     OW 9304   7.385   0.644   9.056 -0.0001 -0.4570  0.0847
35684SOL    HW1 9305   7.319   0.656   8.987  1.3965 -0.5163 -1.3342
35684SOL    HW2 9306   7.453   0.591   9.014  2.2414  1.8413  0.5198
35685SOL     OW 9307   9.165   4.031   1.743 -0.0474  0.3641 -0.5167
35685SOL    HW1 9308   9.167   3.999   1.653 -0.3521  0.2136 -0.4714
35685SOL    HW2 9309   9.221   3.971   1.792 -0.3279  0.1190 -0.5002
35686SOL     OW 9310   3.175   4.903   2.085  0.2478 -0.0181 -0.2264
35686SOL    HW1 9311   3.109   4.968   2.060 -1.7790 -1.9182 -0.1569
35686SOL    HW2 9312   3.171   4.901   2.181 -1.0789 -1.4973 -0.2734
35687SOL     OW 9313   9.465   5.211  10.458  0.5669  0.3794 -0.7253
35687SOL    HW1 9314   9.496   5.177  10.374  1.3676  1.9772 -1.1280
35687SOL    HW2 9315   9.392   5.154  10.482  1.4692 -1.1977 -1.6088
35688SOL     OW 9316   1.351   0.280   6.704 -0.1390  0.3083 -0.2096
35688SOL    HW1 9317   1.355   0.317   6.616  0.8623  3.1484  0.9055
35688SOL    HW2 9318   1.442   0.264   6.728 -0.3660  0.0421  0.5025
35689SOL     OW 9319   3.926   1.056   0.939  0.2484  0.4158 -0.1781
35689SOL    HW1 9320   4.012   1.015   0.925  0.2177  0.3130 -0.0637
35689SOL    HW2 9321   3.935   1.143   0.900  0.7829  0.8591  0.8946
35690SOL     OW 9322   1.419   3.999   6.289 -0.0032  0.0408 -0.4067
35690SOL    HW1 9323   1.438   3.907   6.303  0.7276  0.5219  2.5472
35690SOL    HW2 9324   1.407   4.035   6.377 -0.5938  2.7082 -1.4555
35691SOL     OW 9325   5.484   1.396   1.307 -0.3540  0.3608 -0.7807
35691SOL    HW1 9326   5.541   1.361   1.238  0.4835  0.7610 -0.3154
35691SOL    HW2 9327   5.468   1.322   1.365 -0.6138  0.1554 -1.1099
35692SOL     OW 9328   7.863   8.088   8.470  0.6879  0.0732 -0.0391
35692SOL    HW1 9329   7.921   8.080   8.394  1.4403 -0.6020  0.5916
35692SOL    HW2 9330   7.832   7.999   8.486 -0.5459  0.4197 -0.3623
35693SOL     OW 9331   9.266   6.569   3.454  0.2446 -0.5040  0.3584
35693SOL    HW1 9332   9.341   6.510   3.446  0.4987 -0.3091  1.1670
35693SOL    HW2 9333   9.286   6.642   3.396  0.2542 -0.8877 -0.1227
35694SOL     OW 9334   8.321   8.381   4.994 -0.2291 -0.0901  0.2667
35694SOL    HW1 9335   8.238   8.335   5.007 -0.9719  0.8780 -0.8503
35694SOL    HW2 9336   8.296   8.465   4.955  1.2940  0.1723 -0.2100
35695SOL     OW 9337   6.017   2.687  10.393  0.4584  0.4557  0.2938
35695SOL    HW1 9338   6.044   2.595  10.402 -1.1705 -0.3680 -2.2961
35695SOL    HW2 9339   6.094   2.731  10.357  1.3307  0.2121  1.7742
35696SOL     OW 9340   1.999   0.860   4.605 -0.0172 -0.3942 -0.2621
35696SOL    HW1 9341   2.074   0.813   4.640 -0.2672 -0.4511  0.2086
35696SOL    HW2 9342   2.002   0.844   4.510  0.8929  0.0915 -0.3301
35697SOL     OW 9343   0.986   4.993   2.077 -0.0069  0.2857  0.1219
35697SOL    HW1 9344   0.949   4.946   2.152  1.0069 -0.9641 -0.1107
35697SOL    HW2 9345   1.013   5.078   2.112  0.8199 -0.4311  1.3069
35698SOL     OW 9346   9.411   4.868   5.095  0.0037 -0.2934 -0.1092
35698SOL    HW1 9347   9.351   4.904   5.160 -0.1582 -0.1909 -0.3131
35698SOL    HW2 9348   9.489   4.923   5.101 -0.3778  0.3248 -0.6689
35699SOL     OW 9349   3.158   6.317   7.047 -0.0576  0.0345  0.5473
35699SOL    HW1 9350   3.204   6.315   6.963  0.4360  1.4823  0.7365
35699SOL    HW2 9351   3.222   6.287   7.111  0.7769  2.2065  0.8333
35700SOL     OW 9352   9.762   2.941   5.365 -0.0922  0.5513 -0.6848
35700SOL    HW1 9353   9.679   2.905   5.334  0.1027 -0.3236 -0.2502
35700SOL    HW2 9354   9.781   2.891   5.444  0.6896  0.9547 -0.6087
35701SOL     OW 9355   9.703   1.618   5.334 -0.0235 -0.3806  0.3928
35701SOL    HW1 9356   9.625   1.617   5.278  0.1482 -1.5378  0.1486
35701SOL    HW2 9357   9.679   1.568   5.411  0.3040 -0.2787  0.5654
35702SOL     OW 9358   4.395  10.218   2.639  0.4870 -0.1812 -0.8165
35702SOL    HW1 9359   4.348  10.257   2.713 -0.5717 -1.7893 -0.5959
35702SOL    HW2 9360   4.487  10.229   2.661  0.2017 -1.0791  1.0281
35703SOL     OW 9361   5.024   9.767   5.448  0.2761 -0.0953 -0.0851
35703SOL    HW1 9362   4.945   9.815   5.423  1.1124  1.1079 -0.4746
35703SOL    HW2 9363   5.096   9.826   5.429  1.3319 -1.3807 -0.2616
35704SOL     OW 9364  10.330   0.257   1.662 -0.7171  0.0294 -0.2185
35704SOL    HW1 9365  10.342   0.166   1.633 -0.1033  0.1543 -0.3755
35704SOL    HW2 9366  10.240   0.260   1.692 -1.9982  0.2951 -3.6340
35705SOL     OW 9367  10.649  10.619   3.438  0.1122  0.2244 -0.6501
35705SOL    HW1 9368  10.619  10.703   3.403 -1.2383  0.1910  0.3373
35705SOL    HW2 9369  10.644  10.559   3.363 -1.4802  0.4456 -0.7630
35706SOL     OW 9370   6.159  10.440  10.143  0.3426 -0.4587  0.2962
35706SOL    HW1 9371   6.147  10.472  10.232 -0.2211 -1.0650  0.4464
35706SOL    HW2 9372   6.079  10.466  10.097  0.4781 -0.4580  0.0548
35707SOL     OW 9373   0.185   3.615   8.056 -0.2424 -0.2658  1.2969
35707SOL    HW1 9374   0.212   3.539   8.106 -0.6186 -1.5701 -0.3888
35707SOL    HW2 9375   0.175   3.583   7.967 -2.0128  1.3791  0.8313
35708SOL     OW 9376   7.896   5.551   6.201  1.0044 -0.0762  0.1970
35708SOL    HW1 9377   7.828   5.497   6.242  0.4868 -0.7396 -1.4607
35708SOL    HW2 9378   7.900   5.520   6.110  1.0505  2.3253 -0.6850
35709SOL     OW 9379   5.272   8.231   4.079 -0.1520  0.4010 -0.3715
35709SOL    HW1 9380   5.347   8.287   4.058  1.1230 -0.9707  0.3438
35709SOL    HW2 9381   5.256   8.182   3.998  0.2446  0.1283 -0.2875
35710SOL     OW 9382   3.193   0.152   3.892 -0.0242 -0.1785 -0.1443
35710SOL    HW1 9383   3.248   0.193   3.959 -1.3689 -1.1033  1.6372
35710SOL    HW2 9384   3.116   0.122   3.940 -1.1506 -0.7339 -2.1796
35711SOL     OW 9385   9.484  10.568   3.594  0.4054 -0.1606 -1.0183
35711SOL    HW1 9386   9.485  10.644   3.653  0.1026  0.5596 -1.9072
35711SOL    HW2 9387   9.577  10.547   3.581  0.4627 -1.1572  0.7116
35712SOL     OW 9388   1.934   1.659   6.254  0.1262 -0.2447 -0.3310
35712SOL    HW1 9389   1.868   1.704   6.201  0.3128  0.5838  0.1191
35712SOL    HW2 9390   1.960   1.583   6.202 -0.9369 -0.3973 -0.6665
35713SOL     OW 9391   0.036   9.907   7.311  0.1828 -1.0580  0.5925
35713SOL    HW1 9392  -0.021   9.848   7.361  0.4640 -0.8542  1.1641
35713SOL    HW2 9393   0.058   9.977   7.373 -2.7506  1.4506 -0.9146
35714SOL     OW 9394   1.889   5.849   4.721 -0.1381  0.2636  0.1526
35714SOL    HW1 9395   1.934   5.806   4.793 -1.1877  1.0924  1.3284
35714SOL    HW2 9396   1.893   5.942   4.741  1.8971  0.8150 -2.2353
35715SOL     OW 9397   4.823   8.600   9.169  0.3145 -0.0080  0.6330
35715SOL    HW1 9398   4.838   8.663   9.239  2.4701  2.0603 -1.5067
35715SOL    HW2 9399   4.814   8.654   9.090 -0.1680 -2.2922 -0.9731
35716SOL     OW 9400   7.064   8.865   3.245  0.1899  0.0460  0.2899
35716SOL    HW1 9401   7.112   8.895   3.322  0.5341  0.5955 -0.1265
35716SOL    HW2 9402   7.054   8.771   3.258 -1.8143  0.4572  2.1178
35717SOL     OW 9403  10.068   1.762   2.498  0.1235  0.1178  0.0858
35717SOL    HW1 9404  10.161   1.746   2.516  0.3317  0.5412 -0.5752
35717SOL    HW2 9405  10.022   1.709   2.563  0.8252 -0.1529  0.3778
35718SOL     OW 9406   3.129   2.958   2.488  0.1058  0.2274  0.2704
35718SOL    HW1 9407   3.182   3.029   2.452 -0.7425  0.6999 -0.1032
35718SOL    HW2 9408   3.149   2.882   2.433 -0.3427  0.6594 -0.5190
35719SOL     OW 9409   2.970  10.607   9.504 -0.8862 -0.0722 -0.1447
35719SOL    HW1 9410   2.997  10.682   9.452 -1.0945  1.0036  1.2211
35719SOL    HW2 9411   3.026  10.610   9.582  1.3456 -3.2231 -1.4055
35720SOL     OW 9412   2.872   7.454   3.876 -0.3902  0.2416  0.3443
35720SOL    HW1 9413   2.960   7.430   3.847 -0.5977 -0.4235  0.2688
35720SOL    HW2 9414   2.826   7.479   3.796 -1.7033 -3.8283 -0.3823
35721SOL     OW 9415   3.663   7.854   2.258 -0.4656  0.5862 -0.0614
35721SOL    HW1 9416   3.710   7.785   2.307 -1.0052 -0.4462 -0.9652
35721SOL    HW2 9417   3.684   7.836   2.166 -0.2839  1.8978 -0.2926
35722SOL     OW 9418   0.616   1.590   3.205 -0.1758 -0.7669 -0.5174
35722SOL    HW1 9419   0.597   1.683   3.215 -1.8041 -1.0531 -0.7434
35722SOL    HW2 9420   0.704   1.588   3.166  0.3783  0.6267  0.5440
35723SOL     OW 9421   5.470   5.168   6.453 -0.4421 -0.3662 -0.1530
35723SOL    HW1 9422   5.538   5.214   6.502  0.4115 -0.5428 -1.1226
35723SOL    HW2 9423   5.516   5.130   6.378 -1.3875 -1.5596 -0.1688
35724SOL     OW 9424   9.749   8.988   6.064 -0.1643  0.3539 -0.1907
35724SOL    HW1 9425   9.655   9.002   6.056 -0.4183 -0.9754  0.2580
35724SOL    HW2 9426   9.784   9.073   6.090 -1.1234  1.0736 -1.1414
35725SOL     OW 9427   9.356   8.795   9.947  0.2368  0.0880 -0.5374
35725SOL    HW1 9428   9.344   8.890   9.954 -2.8621 -0.2949  0.9245
35725SOL    HW2 9429   9.337   8.774   9.856  0.0105  0.7805 -0.6541
35726SOL     OW 9430   6.904   0.077   9.415  0.4707 -0.1843 -0.3997
35726SOL    HW1 9431   6.855  -0.003   9.433 -1.8016  0.8315 -1.6738
35726SOL    HW2 9432   6.897   0.129   9.495 -1.7881  0.5101 -0.9939
35727SOL     OW 9433   2.230   6.265  10.391 -0.1215 -0.2330 -0.7925
35727SOL    HW1 9434   2.226   6.264  10.295  0.0888  0.4061 -0.8108
35727SOL    HW2 9435   2.199   6.352  10.415 -1.1208 -0.7333 -0.2289
35728SOL     OW 9436   5.187   1.633   3.886  0.2681 -0.4193  0.6465
35728SOL    HW1 9437   5.221   1.570   3.949 -0.4162 -0.5278  0.9175
35728SOL    HW2 9438   5.111   1.672   3.930  1.0245  1.0464  0.7411
35729SOL     OW 9439   5.703  10.377   0.384  0.0330 -0.2911  0.3330
35729SOL    HW1 9440   5.625  10.432   0.375  0.8396  1.0634  1.2466
35729SOL    HW2 9441   5.713  10.335   0.299 -0.0226  1.8314 -0.7780
35730SOL     OW 9442   3.432  10.526   0.003  0.0979 -0.2085  0.1358
35730SOL    HW1 9443   3.509  10.578  -0.018 -0.0103 -0.3149 -0.5262
35730SOL    HW2 9444   3.359  10.587  -0.005 -0.3496 -1.0174 -3.2897
35731SOL     OW 9445   7.064   2.597   3.874 -0.2578  0.2372 -0.2708
35731SOL    HW1 9446   7.085   2.558   3.958  1.3390 -1.3499 -1.3347
35731SOL    HW2 9447   7.082   2.690   3.885 -1.1357  0.2425  1.4193
35732SOL     OW 9448   2.760   4.438   9.944 -0.0810 -0.0074  0.1393
35732SOL    HW1 9449   2.722   4.507   9.889 -1.6571 -0.7477  0.2327
35732SOL    HW2 9450   2.819   4.484  10.004 -1.1781  1.2866  0.2657
35733SOL     OW 9451   1.578   9.241   0.168 -0.2688 -0.2719 -0.0590
35733SOL    HW1 9452   1.624   9.299   0.228  0.3616  2.3641 -2.8346
35733SOL    HW2 9453   1.647   9.198   0.119 -0.7382 -0.3450 -0.6725
35734SOL     OW 9454   3.563   1.955   0.154  0.0864 -0.3722  0.3932
35734SOL    HW1 9455   3.641   2.006   0.130  0.1960 -0.1709  1.1347
35734SOL    HW2 9456   3.589   1.907   0.232 -0.5841 -0.1707  0.7482
35735SOL     OW 9457   0.174   0.315   9.145 -0.1984  0.1036  0.6716
35735SOL    HW1 9458   0.180   0.410   9.156  0.2079  0.0679  0.7429
35735SOL    HW2 9459   0.094   0.302   9.093  1.0181  0.6441 -1.4148
35736SOL     OW 9460   7.606   2.241   1.895  0.1571  0.3397  0.1129
35736SOL    HW1 9461   7.695   2.240   1.930  0.8021  4.0176 -0.9686
35736SOL    HW2 9462   7.618   2.225   1.801 -0.5463 -0.6393  0.1721
35737SOL     OW 9463   5.389   8.205   7.348  0.0971  0.4119 -0.1979
35737SOL    HW1 9464   5.365   8.292   7.380 -1.6402 -0.1850  0.2335
35737SOL    HW2 9465   5.476   8.189   7.385 -0.1856  1.3735  0.9328
35738SOL     OW 9466   4.422  10.431   3.966 -0.3921 -0.3467 -0.4196
35738SOL    HW1 9467   4.334  10.419   4.004 -0.6341  0.6852 -0.6148
35738SOL    HW2 9468   4.407  10.485   3.889  0.5143  0.6286  0.0565
35739SOL     OW 9469   4.052   1.879   2.891  0.3721 -0.7584  0.4537
35739SOL    HW1 9470   3.991   1.855   2.961  1.7448 -0.3893  1.8341
35739SOL    HW2 9471   3.998   1.928   2.828 -0.6621  0.0357  1.8890
35740SOL     OW 9472   8.002   8.933   1.996  0.0087 -0.1385  0.4410
35740SOL    HW1 9473   8.033   8.865   1.936 -2.7438 -0.8515 -0.2861
35740SOL    HW2 9474   7.934   8.890   2.048  0.8118  1.0791  2.6458
35741SOL     OW 9475   6.429   3.998   5.911  0.5092 -0.2188  0.5193
35741SOL    HW1 9476   6.348   4.050   5.904 -0.0428 -0.9582  1.3026
35741SOL    HW2 9477   6.499   4.064   5.913 -0.1694  0.5096  1.2945
35742SOL     OW 9478   9.107   3.180   5.746  0.0012  0.5150 -0.0510
35742SOL    HW1 9479   9.172   3.124   5.705  0.4768  0.5333  0.6591
35742SOL    HW2 9480   9.023   3.136   5.731 -0.0541  1.2837 -2.3514
35743SOL     OW 9481   6.178   1.849   7.723  0.1632 -0.3076 -0.1743
35743SOL    HW1 9482   6.166   1.882   7.634 -0.2298 -1.0374 -0.4016
35743SOL    HW2 9483   6.130   1.767   7.724  0.2525 -0.3538  0.6881
35744SOL     OW 9484   2.119   7.234   0.189 -0.6282  0.6945 -0.0647
35744SOL    HW1 9485   2.199   7.272   0.226 -1.2088  1.3037  0.5875
35744SOL    HW2 9486   2.050   7.259   0.250 -1.6695  1.8826 -1.6586
35745SOL     OW 9487   8.742   3.188   5.233  0.0887 -0.0953 -0.2943
35745SOL    HW1 9488   8.826   3.164   5.195 -0.0351  1.3171 -1.5714
35745SOL    HW2 9489   8.722   3.274   5.195 -1.8553 -0.3288  0.0758
35746SOL     OW 9490   6.050   3.070   8.744 -0.2669 -0.0155 -0.1394
35746SOL    HW1 9491   6.102   3.052   8.822 -2.2644 -2.1021  0.8284
35746SOL    HW2 9492   6.096   3.026   8.673  2.1066  2.7142 -0.4735
35747SOL     OW 9493   2.209   8.180   1.142  0.2191 -0.2366 -0.1120
35747SOL    HW1 9494   2.236   8.216   1.226  0.1335 -0.8592  0.1853
35747SOL    HW2 9495   2.205   8.085   1.156  1.3108 -0.4502 -1.1344
35748SOL     OW 9496   3.641   2.693   0.122  0.7283 -0.7063 -0.7748
35748SOL    HW1 9497   3.563   2.638   0.122  1.0027 -1.1397 -1.9494
35748SOL    HW2 9498   3.641   2.735   0.036  0.5793  1.0788  0.0736
35749SOL     OW 9499   0.990   5.678   8.323  0.1028 -0.0716 -0.0443
35749SOL    HW1 9500   0.994   5.582   8.320  0.5429 -0.1160  1.1674
35749SOL    HW2 9501   1.081   5.706   8.317  0.0262  0.2347  0.1908
35750SOL     OW 9502   9.084   8.200   1.331 -0.1711 -0.2951  0.1834
35750SOL    HW1 9503   9.149   8.154   1.278  0.4067 -0.9071  1.3993
35750SOL    HW2 9504   9.133   8.272   1.372 -0.4251 -0.3090  0.5147
35751SOL     OW 9505   7.592  10.062   4.518 -0.0560 -0.0033  0.3717
35751SOL    HW1 9506   7.539  10.029   4.446  0.0222 -0.6081  0.5859
35751SOL    HW2 9507   7.645   9.987   4.545  0.9074  0.5941  0.1605
35752SOL     OW 9508  10.423   2.036   1.716 -0.2326  0.5918 -0.1045
35752SOL    HW1 9509  10.487   1.975   1.753 -1.4750 -0.2387  0.7694
35752SOL    HW2 9510  10.475   2.098   1.665  1.0152 -1.8807 -2.0361
35753SOL     OW 9511   4.680   7.764   8.012  0.1581  0.0981 -0.5069
35753SOL    HW1 9512   4.756   7.804   8.053  1.5233 -1.4887 -1.3376
35753SOL    HW2 9513   4.676   7.676   8.049 -0.5393 -0.2514 -1.3662
35754SOL     OW 9514   4.509   9.441   3.565 -0.1692 -0.0371 -0.0045
35754SOL    HW1 9515   4.488   9.517   3.620 -1.1817 -1.5993  1.9143
35754SOL    HW2 9516   4.424   9.398   3.551  0.5828 -1.7373  0.4199
35755SOL     OW 9517   4.294   8.271   1.689 -0.5161  0.2190 -0.5747
35755SOL    HW1 9518   4.282   8.319   1.771  2.5837 -0.3196  0.3351
35755SOL    HW2 9519   4.326   8.336   1.627  1.1318 -0.0650 -0.0901
35756SOL     OW 9520   3.452   6.276   6.517  0.3931  0.5558 -0.2458
35756SOL    HW1 9521   3.381   6.264   6.581  1.4224  2.7059  1.4460
35756SOL    HW2 9522   3.415   6.334   6.451  0.4374  1.4141  0.4627
35757SOL     OW 9523   0.739   8.101   7.447 -0.3263 -0.4845 -0.4605
35757SOL    HW1 9524   0.707   8.180   7.491 -1.7267 -1.5309  0.4830
35757SOL    HW2 9525   0.833   8.102   7.462 -0.3930  0.6990  0.0277
35758SOL     OW 9526  10.451   7.815   9.316 -0.2286  0.2891  0.2796
35758SOL    HW1 9527  10.491   7.881   9.372 -3.2842  0.7530  2.1344
35758SOL    HW2 9528  10.432   7.742   9.375 -0.5004 -0.6368 -0.8982
35759SOL     OW 9529   7.751   5.104   2.778 -0.2602  0.1502 -0.5369
35759SOL    HW1 9530   7.675   5.078   2.830 -0.3546 -0.6627 -1.0556
35759SOL    HW2 9531   7.808   5.151   2.839 -0.6517 -0.2348  0.1328
35760SOL     OW 9532   9.931  10.207  10.257 -0.0639 -0.1227  0.6001
35760SOL    HW1 9533   9.885  10.151  10.194 -0.0639 -0.8568  1.2363
35760SOL    HW2 9534   9.918  10.163  10.341  1.6149 -0.2192  0.8304
35761SOL     OW 9535   2.620   3.583   6.937  0.2852 -1.0122 -0.2431
35761SOL    HW1 9536   2.673   3.504   6.952  1.0667 -0.8418 -1.9313
35761SOL    HW2 9537   2.533   3.550   6.915  0.7726 -1.4631 -1.5930
35762SOL     OW 9538   7.398   6.859  10.360  0.4537 -0.3009 -0.1466
35762SOL    HW1 9539   7.336   6.793  10.328 -0.3714  1.4663 -2.4020
35762SOL    HW2 9540   7.342   6.929  10.393  1.2509  0.7013 -0.8837
35763SOL     OW 9541   5.076   3.055   8.280  0.3963  0.0690 -0.5184
35763SOL    HW1 9542   5.162   3.095   8.288  0.6425 -0.7304  1.5284
35763SOL    HW2 9543   5.015   3.123   8.310  0.3234  0.5194 -1.6474
35764SOL     OW 9544   0.665   7.067   6.054  0.5426 -0.7704  0.2267
35764SOL    HW1 9545   0.744   7.097   6.009  1.5122 -1.1902  1.5819
35764SOL    HW2 9546   0.609   7.144   6.057  1.4936 -0.0684  0.4915
35765SOL     OW 9547   4.241   1.961   3.978  0.0447 -0.2636  0.6568
35765SOL    HW1 9548   4.220   1.879   4.024  1.4701 -0.8156  0.3745
35765SOL    HW2 9549   4.330   1.949   3.948  0.5474  1.6866  1.2188
35766SOL     OW 9550   9.568   4.720   4.401  0.2231 -0.1766  0.3457
35766SOL    HW1 9551   9.570   4.660   4.476 -0.3798  0.4994  0.9182
35766SOL    HW2 9552   9.619   4.796   4.430 -1.1699  0.6929  0.6274
35767SOL     OW 9553   2.024   8.079   8.000  0.7385 -0.4183 -0.5074
35767SOL    HW1 9554   1.987   7.997   7.966 -0.2732 -0.1163 -0.1863
35767SOL    HW2 9555   1.950   8.122   8.042  1.3838  0.4244 -0.2162
35768SOL     OW 9556   9.273   4.436   1.557 -0.4651  0.2060  0.2919
35768SOL    HW1 9557   9.189   4.405   1.592 -0.0899  0.0729  1.0873
35768SOL    HW2 9558   9.273   4.407   1.466 -0.4067 -1.5658  0.8308
35769SOL     OW 9559   8.997   8.732   7.817  0.7835  0.5732 -0.5146
35769SOL    HW1 9560   9.071   8.744   7.758  0.2179  1.5950 -1.0501
35769SOL    HW2 9561   8.921   8.724   7.759  0.2840  1.0678  0.0586
35770SOL     OW 9562   8.524   3.480   1.281  0.3233  0.0509 -0.0470
35770SOL    HW1 9563   8.579   3.553   1.312 -0.8044  0.7547  0.3507
35770SOL    HW2 9564   8.503   3.431   1.360 -0.5753  0.4716 -0.0040
35771SOL     OW 9565   2.702   4.906   5.974 -0.1536  0.5264 -0.4136
35771SOL    HW1 9566   2.739   4.949   5.897  0.3986  0.7074 -0.0543
35771SOL    HW2 9567   2.733   4.958   6.048 -0.4111  0.1631 -0.0446
35772SOL     OW 9568   8.209   1.054   5.889  0.0295  0.5730 -0.2514
35772SOL    HW1 9569   8.219   0.970   5.933  1.7550  0.6148 -0.5020
35772SOL    HW2 9570   8.151   1.105   5.946  0.1570 -0.2639  0.6459
35773SOL     OW 9571   6.718   9.687  10.517 -0.4387  0.0339 -0.1444
35773SOL    HW1 9572   6.668   9.632  10.577  1.5846 -0.7192  0.9440
35773SOL    HW2 9573   6.776   9.738  10.573  1.3977 -0.5537 -1.4144
35774SOL     OW 9574   0.794   7.946   4.440  0.0289 -0.4609  0.1121
35774SOL    HW1 9575   0.816   7.914   4.353 -0.2780 -0.8773  0.1878
35774SOL    HW2 9576   0.716   7.999   4.427  0.0941 -0.3658  0.1063
35775SOL     OW 9577   8.227   9.212   5.653  1.0384  0.1983  0.2693
35775SOL    HW1 9578   8.147   9.261   5.670  1.0355 -0.4111  2.2525
35775SOL    HW2 9579   8.250   9.234   5.562 -1.0872  0.7551 -0.1900
35776SOL     OW 9580   0.544   4.060   6.357 -0.0126  0.4121 -0.3967
35776SOL    HW1 9581   0.481   4.104   6.414  0.0439  0.5946 -0.4719
35776SOL    HW2 9582   0.629   4.094   6.387 -0.0369  1.1767 -1.1513
35777SOL     OW 9583  10.213   7.200  10.198 -0.4126  0.1438  0.1241
35777SOL    HW1 9584  10.284   7.136  10.203 -0.1513  0.4478  0.3875
35777SOL    HW2 9585  10.149   7.161  10.139 -0.3624 -0.4568  0.4669
35778SOL     OW 9586   8.196  10.536   5.825  0.4285 -0.1708 -0.3105
35778SOL    HW1 9587   8.119  10.547   5.880  0.3173 -2.2025  0.0016
35778SOL    HW2 9588   8.269  10.560   5.882  0.1219  0.6148 -0.2350
35779SOL     OW 9589   5.719  10.334   5.360  0.1785  0.0604  0.0866
35779SOL    HW1 9590   5.728  10.315   5.266  0.4404 -1.1542  0.3314
35779SOL    HW2 9591   5.651  10.401   5.365 -0.3653 -0.3896 -0.9366
35780SOL     OW 9592   6.254   1.592   1.973 -0.2396 -0.0816 -0.2912
35780SOL    HW1 9593   6.294   1.506   1.959  0.2615 -0.0107  0.6847
35780SOL    HW2 9594   6.168   1.572   2.010  1.3524 -0.1666  3.7995
35781SOL     OW 9595  10.593  10.589   1.015 -0.2307 -0.6796  0.4131
35781SOL    HW1 9596  10.578  10.679   0.985  0.8240 -0.3165  0.9000
35781SOL    HW2 9597  10.619  10.598   1.107  0.1602 -1.4512  0.3933
35782SOL     OW 9598   6.425   0.354   1.533 -0.4694 -0.1971  0.0053
35782SOL    HW1 9599   6.346   0.407   1.526  0.3774  1.2365  0.8042
35782SOL    HW2 9600   6.496   0.415   1.517  0.5492 -1.1392  0.7570
35783SOL     OW 9601   4.157   9.573   8.756  0.6546  0.1641  0.1415
35783SOL    HW1 9602   4.202   9.657   8.753  1.5428 -0.2228  1.7135
35783SOL    HW2 9603   4.101   9.579   8.834  1.7152 -1.1431  1.0438
35784SOL     OW 9604   3.757   6.443   8.149  0.0444  0.6015 -0.1498
35784SOL    HW1 9605   3.823   6.508   8.125  0.4070 -0.5009 -2.3983
35784SOL    HW2 9606   3.712   6.423   8.067 -0.9702 -0.9862  0.7360
35785SOL     OW 9607   1.329  10.141   7.607  0.2208 -0.0260  0.4094
35785SOL    HW1 9608   1.348  10.190   7.528 -1.3386 -3.0769 -2.0757
35785SOL    HW2 9609   1.393  10.069   7.608 -2.7501 -2.9911 -1.1192
35786SOL     OW 9610   1.009   0.491   5.334  0.1190 -0.0634 -0.1413
35786SOL    HW1 9611   1.070   0.448   5.274  2.5814  0.9262  1.4521
35786SOL    HW2 9612   1.021   0.584   5.316  0.7899  0.2416  1.6760
35787SOL     OW 9613   8.400   7.927   2.385  1.0523  0.1570  0.0753
35787SOL    HW1 9614   8.389   7.910   2.478  1.4435  0.5329  0.1957
35787SOL    HW2 9615   8.440   7.847   2.350  0.6438 -0.0926  0.1731
35788SOL     OW 9616   4.749   3.730   8.655  0.0410 -0.2045 -0.0692
35788SOL    HW1 9617   4.758   3.820   8.626 -0.0752  0.1227  0.8697
35788SOL    HW2 9618   4.769   3.732   8.748  1.5053 -1.4051 -0.3123
35789SOL     OW 9619   9.976   0.254  10.283  0.2856  0.4870 -0.4998
35789SOL    HW1 9620   9.995   0.294  10.368 -0.8857 -0.0102  0.0192
35789SOL    HW2 9621   9.955   0.163  10.304  0.8648  0.1241 -1.4309
35790SOL     OW 9622   9.759   6.123   9.880  0.1859  0.4275 -0.3160
35790SOL    HW1 9623   9.842   6.076   9.895  0.4720  1.2428  0.7669
35790SOL    HW2 9624   9.786   6.212   9.856 -0.3745  0.3974 -1.0943
35791SOL     OW 9625   2.954   9.856   3.633 -0.1331 -0.5476 -0.9588
35791SOL    HW1 9626   3.047   9.877   3.636 -1.0046  4.4222 -1.4414
35791SOL    HW2 9627   2.926   9.882   3.545 -2.3233  0.1959 -0.1117
35792SOL     OW 9628   1.779   1.235   0.187  0.1387 -0.2624 -0.4735
35792SOL    HW1 9629   1.785   1.271   0.098 -1.5987 -1.0927 -0.9767
35792SOL    HW2 9630   1.844   1.283   0.237  0.1955  1.2017 -1.8779
35793SOL     OW 9631   1.750   8.591   5.799 -0.0926  0.7106  0.1237
35793SOL    HW1 9632   1.828   8.646   5.800 -0.0017  0.6730  2.5756
35793SOL    HW2 9633   1.678   8.652   5.820 -0.2906  0.2739  0.7354
35794SOL     OW 9634   9.702   4.863   7.282 -0.5264 -0.1006  0.2072
35794SOL    HW1 9635   9.759   4.926   7.327 -0.4187 -0.4119  0.5124
35794SOL    HW2 9636   9.757   4.827   7.212 -0.3533 -0.3911  0.4932
35795SOL     OW 9637   9.831   3.521   6.977 -0.5389  0.3841 -0.3002
35795SOL    HW1 9638   9.821   3.499   7.069 -1.3194 -2.6790 -0.9987
35795SOL    HW2 9639   9.794   3.609   6.969  1.8137  1.8076  2.6407
35796SOL     OW 9640   8.489   9.860   5.460  0.3766 -0.1459 -0.1835
35796SOL    HW1 9641   8.469   9.947   5.426 -1.7895 -0.1269  0.9551
35796SOL    HW2 9642   8.405   9.828   5.494  1.4814 -1.9822  0.9715
35797SOL     OW 9643  10.508   7.275   9.572 -0.4868  0.5735 -0.1048
35797SOL    HW1 9644  10.592   7.231   9.568 -0.7222  0.1975 -1.9414
35797SOL    HW2 9645  10.509   7.336   9.498 -2.2692 -0.3490 -0.9715
35798SOL     OW 9646   6.216   4.148   3.472 -0.6405  0.4978 -0.4723
35798SOL    HW1 9647   6.277   4.134   3.545 -0.9579 -1.3307 -0.5264
35798SOL    HW2 9648   6.237   4.236   3.441  0.9025  0.5181  0.5100
35799SOL     OW 9649   3.372   0.110   4.362 -0.4759 -0.0779  0.3333
35799SOL    HW1 9650   3.297   0.164   4.342  0.0025  0.7185  0.6613
35799SOL    HW2 9651   3.422   0.159   4.427  0.0130 -0.8679  0.5820
35800SOL     OW 9652  10.398   7.927   9.868  0.3243 -0.3415  0.1456
35800SOL    HW1 9653  10.470   7.908   9.808  0.8668 -1.2894  1.0604
35800SOL    HW2 9654  10.407   8.020   9.888  0.6725 -0.2235 -0.5366
35801SOL     OW 9655   7.897   6.359   0.285  0.0025  0.1012  0.0818
35801SOL    HW1 9656   7.815   6.311   0.298 -0.7793  0.8289 -1.7612
35801SOL    HW2 9657   7.966   6.296   0.307 -1.0406 -0.6693  1.2264
35802SOL     OW 9658   4.410   1.550   6.590 -0.2129  0.3907 -0.0820
35802SOL    HW1 9659   4.382   1.550   6.682  1.9364  1.9046  0.6619
35802SOL    HW2 9660   4.444   1.462   6.575  0.3677  0.4355  0.9089
35803SOL     OW 9661   1.026   1.430   4.352  0.4288  0.0817  0.1128
35803SOL    HW1 9662   0.938   1.405   4.381  1.1947 -1.3759  1.3583
35803SOL    HW2 9663   1.016   1.519   4.318 -1.3001  0.4218  1.3791
35804SOL     OW 9664   4.068   9.049   0.319  0.0952  0.2632 -0.3877
35804SOL    HW1 9665   4.100   9.041   0.229  0.6922  0.0673 -0.1566
35804SOL    HW2 9666   3.987   8.997   0.320  0.8340 -0.9149 -0.4449
35805SOL     OW 9667   5.082   0.423   1.303  0.0420  0.1481  0.0813
35805SOL    HW1 9668   4.999   0.467   1.289 -0.4303 -1.1196 -1.3708
35805SOL    HW2 9669   5.114   0.457   1.387 -1.1763  1.7947 -0.0854
35806SOL     OW 9670   9.565   0.751   4.111  0.2018 -0.1798 -0.2366
35806SOL    HW1 9671   9.595   0.683   4.050 -0.6416  0.0662 -0.9528
35806SOL    HW2 9672   9.473   0.763   4.089 -0.3725 -0.7369  1.7396
35807SOL     OW 9673   3.563   0.528   7.438 -0.4482  0.1422 -0.0098
35807SOL    HW1 9674   3.525   0.498   7.356  2.4914 -0.0283 -1.4530
35807SOL    HW2 9675   3.566   0.449   7.493  1.2642 -0.8231 -1.3566
35808SOL     OW 9676   6.008   4.846   6.391  1.0469  0.2012 -0.1961
35808SOL    HW1 9677   6.095   4.812   6.366  1.0018  0.2471 -0.4221
35808SOL    HW2 9678   5.949   4.808   6.326  0.8421 -0.1339  0.1825
35809SOL     OW 9679   6.473   8.913   0.163  0.0530  0.1712 -0.3263
35809SOL    HW1 9680   6.534   8.882   0.096  1.0703 -1.4191  1.2426
35809SOL    HW2 9681   6.513   8.994   0.196  1.4126 -0.8578  0.6895
35810SOL     OW 9682   6.005   1.405   1.560  0.0245  0.3656 -0.3234
35810SOL    HW1 9683   6.089   1.367   1.536 -0.5780 -1.3994  0.1850
35810SOL    HW2 9684   5.946   1.380   1.489 -1.2109 -2.8494  1.6316
35811SOL     OW 9685   1.592   0.980   1.091 -0.2296  0.2680 -0.2858
35811SOL    HW1 9686   1.561   0.962   1.179 -0.9283  0.9660 -0.3808
35811SOL    HW2 9687   1.630   1.068   1.096 -2.3773  1.3350 -1.1600
35812SOL     OW 9688  10.217   7.318   2.657 -0.4300 -0.3972 -0.3501
35812SOL    HW1 9689  10.223   7.225   2.633 -0.5324 -0.7782  1.0449
35812SOL    HW2 9690  10.123   7.335   2.661 -0.4212 -0.0006 -1.3714
35813SOL     OW 9691   7.678   8.697   8.618 -0.6684 -0.0389 -0.6282
35813SOL    HW1 9692   7.657   8.788   8.641 -1.4399  0.4430 -2.9320
35813SOL    HW2 9693   7.624   8.679   8.541 -0.1103 -2.2940 -0.5591
35814SOL     OW 9694   1.960   5.564   3.957 -0.1899 -0.4256  0.4027
35814SOL    HW1 9695   1.976   5.512   3.878  1.6715  0.2525  0.2960
35814SOL    HW2 9696   1.996   5.511   4.028  0.1672 -0.0403  0.5100
35815SOL     OW 9697   5.315   6.747   4.147 -0.4154 -0.1686  0.1696
35815SOL    HW1 9698   5.223   6.731   4.170 -0.3379  0.8963  1.3154
35815SOL    HW2 9699   5.334   6.834   4.182  0.9132 -0.1827 -0.4544
35816SOL     OW 9700   0.260   3.398  10.349  0.1999 -0.5207  0.6234
35816SOL    HW1 9701   0.261   3.367  10.439  1.1520 -2.0508  0.1190
35816SOL    HW2 9702   0.196   3.342  10.305  1.7384 -1.6871 -0.2355
35817SOL     OW 9703   9.885   4.263   7.381  0.4437  0.0307  0.1985
35817SOL    HW1 9704   9.812   4.319   7.355  0.0126 -0.6572 -0.0781
35817SOL    HW2 9705   9.960   4.323   7.388  0.8119  0.2027 -3.3860
35818SOL     OW 9706   5.879  10.244   7.430  0.3766 -0.5664  0.2169
35818SOL    HW1 9707   5.946  10.298   7.472 -0.8850  0.6093  0.7742
35818SOL    HW2 9708   5.864  10.287   7.345  1.3874 -1.7085 -0.5769
35819SOL     OW 9709   3.976   1.189   4.520 -0.0274 -0.2022  0.0648
35819SOL    HW1 9710   3.933   1.223   4.598  0.0687  0.0575  0.0055
35819SOL    HW2 9711   4.069   1.185   4.543  0.0085 -0.0696 -0.0546
35820SOL     OW 9712   4.419   7.945   5.699 -0.1974  0.1715 -0.5506
35820SOL    HW1 9713   4.356   7.991   5.754  0.5864 -0.1690  0.6759
35820SOL    HW2 9714   4.446   8.009   5.634 -0.2968  0.9619  0.1677
35821SOL     OW 9715   8.787   2.798   8.866  0.3623  0.3804 -0.2837
35821SOL    HW1 9716   8.779   2.801   8.771 -0.2317  1.8364 -0.2197
35821SOL    HW2 9717   8.709   2.751   8.896  0.1738  0.5653 -0.4840
35822SOL     OW 9718   0.020   3.803   8.169 -0.3039  0.3181  0.4020
35822SOL    HW1 9719   0.081   3.876   8.163 -0.5727  0.7638  2.3125
35822SOL    HW2 9720   0.072   3.726   8.146  0.1478  1.0106 -0.9924
35823SOL     OW 9721  10.246   8.413   8.965 -0.2403  1.1457  0.5275
35823SOL    HW1 9722  10.228   8.366   8.883  0.5677  1.8040 -0.0380
35823SOL    HW2 9723  10.327   8.461   8.948 -1.7549  3.8871  0.5759
35824SOL     OW 9724   3.741   8.633   9.991  0.6823 -0.5414  0.2968
35824SOL    HW1 9725   3.720   8.635   9.898  0.9065 -2.3217  0.1751
35824SOL    HW2 9726   3.817   8.576   9.998  1.4322  0.5353  1.4592
35825SOL     OW 9727   1.434   0.859   8.400  0.1711  0.2966 -0.2518
35825SOL    HW1 9728   1.500   0.928   8.400 -0.2760  0.7286  0.5345
35825SOL    HW2 9729   1.442   0.818   8.486 -0.6317  0.3997 -0.1199
35826SOL     OW 9730   6.049   8.921   1.166 -0.3325  0.3947 -0.5136
35826SOL    HW1 9731   5.963   8.958   1.182 -1.2370 -1.8229  0.0405
35826SOL    HW2 9732   6.038   8.865   1.089  0.9289  0.9627 -1.1606
35827SOL     OW 9733   0.468   9.276   9.248 -0.0576 -0.2569  0.2626
35827SOL    HW1 9734   0.550   9.293   9.202 -0.2319 -2.3325 -0.9381
35827SOL    HW2 9735   0.477   9.324   9.331  1.8115  0.5844 -0.3606
35828SOL     OW 9736   4.497  10.287   4.517 -0.2913  0.6427 -0.0570
35828SOL    HW1 9737   4.486  10.374   4.557 -0.5627  0.6955 -0.2461
35828SOL    HW2 9738   4.421  10.277   4.461 -0.0356  0.4622 -0.3742
35829SOL     OW 9739   3.011   1.754   2.190 -0.2488 -0.2263 -0.1441
35829SOL    HW1 9740   2.970   1.668   2.182  0.8962 -0.8567  0.4946
35829SOL    HW2 9741   3.046   1.773   2.103  0.4381 -0.9158 -0.0292
35830SOL     OW 9742   9.166   5.878   3.329 -0.1995  0.0023  0.6320
35830SOL    HW1 9743   9.124   5.801   3.291  0.4665  0.1032 -0.3571
35830SOL    HW2 9744   9.180   5.937   3.254  0.2890  0.6132  1.1914
35831SOL     OW 9745   0.217   9.696   3.869 -0.3345 -0.1521 -0.2462
35831SOL    HW1 9746   0.244   9.729   3.954  0.0308 -0.1956 -0.3472
35831SOL    HW2 9747   0.295   9.700   3.815 -1.0334  1.8721 -1.2171
35832SOL     OW 9748   2.619   5.946   8.546 -0.2709  0.8128 -0.2041
35832SOL    HW1 9749   2.586   5.939   8.635 -0.1683  0.9516 -0.1538
35832SOL    HW2 9750   2.642   5.857   8.521 -2.0936  0.4616 -0.7898
35833SOL     OW 9751   4.740   0.602   6.679  0.7542 -0.1143  0.0283
35833SOL    HW1 9752   4.668   0.542   6.699  0.2913  0.2899 -0.3839
35833SOL    HW2 9753   4.745   0.602   6.584  0.0914  1.2295 -0.0346
35834SOL     OW 9754   8.895   3.155   1.490  0.1006  0.2679  0.7242
35834SOL    HW1 9755   8.834   3.161   1.563 -0.2244 -0.1175  0.4906
35834SOL    HW2 9756   8.980   3.178   1.527 -0.0069 -0.2315  1.2951
35835SOL     OW 9757   0.364   9.197   2.845  0.3342  0.1603  0.1316
35835SOL    HW1 9758   0.354   9.282   2.801 -0.3107 -0.4103 -0.8635
35835SOL    HW2 9759   0.451   9.166   2.818  0.2075  0.1060 -0.2145
35836SOL     OW 9760  10.272   5.482   1.980  0.1892 -0.2138  0.1141
35836SOL    HW1 9761  10.181   5.511   1.979  0.1790 -0.2517 -0.1706
35836SOL    HW2 9762  10.291   5.466   2.072 -0.2358 -0.6438  0.1363
35837SOL     OW 9763   8.702   2.322  10.327 -0.2764 -0.2398  0.3185
35837SOL    HW1 9764   8.667   2.270  10.255 -0.3353 -0.4802  0.5208
35837SOL    HW2 9765   8.628   2.337  10.385 -0.5123  0.9666 -0.2544
35838SOL     OW 9766  10.405   5.854   5.024  0.0963  0.5354 -0.3306
35838SOL    HW1 9767  10.447   5.913   5.087  0.9946  0.0089 -0.4110
35838SOL    HW2 9768  10.341   5.908   4.979 -0.0500  1.1020  0.5355
35839SOL     OW 9769   2.882   2.705   3.465  0.5237  0.2077 -0.2729
35839SOL    HW1 9770   2.850   2.645   3.397 -0.5425 -0.8363  1.0764
35839SOL    HW2 9771   2.969   2.671   3.488  0.0466 -0.6970  0.2819
35840SOL     OW 9772   7.796   8.639   9.728  0.2730 -0.5018  0.2661
35840SOL    HW1 9773   7.780   8.640   9.822 -0.1183 -0.4802  0.1990
35840SOL    HW2 9774   7.857   8.566   9.715  0.7330 -0.1786  0.5989
35841SOL     OW 9775   9.364   9.228   1.918  0.3402 -0.3234  0.0554
35841SOL    HW1 9776   9.434   9.290   1.942 -0.8621  0.9056  0.5163
35841SOL    HW2 9777   9.331   9.196   2.002 -0.6718  0.3051 -0.0866
35842SOL     OW 9778   0.891  10.568   9.240 -0.1091 -0.0070  0.0282
35842SOL    HW1 9779   0.964  10.629   9.240 -0.3229  0.2667  1.0816
35842SOL    HW2 9780   0.866  10.560   9.332 -0.8404 -0.7765 -0.2202
35843SOL     OW 9781   9.141   9.158   1.258 -0.3305 -0.3500  0.2249
35843SOL    HW1 9782   9.190   9.134   1.337  1.0121  0.3199 -0.3695
35843SOL    HW2 9783   9.155   9.085   1.198  1.4863  0.5954 -0.5893
35844SOL     OW 9784   3.394   8.936   9.725 -0.1012 -0.1758 -0.2191
35844SOL    HW1 9785   3.360   9.019   9.692  0.1864 -0.1317 -0.4054
35844SOL    HW2 9786   3.440   8.897   9.650 -1.2612 -1.0732 -0.4921
35845SOL     OW 9787   6.478   3.301   4.588  0.1057  0.2597  0.1437
35845SOL    HW1 9788   6.461   3.335   4.676  1.4733  0.0214  0.5092
35845SOL    HW2 9789   6.440   3.213   4.588 -0.6142  0.5580  0.2136
35846SOL     OW 9790   9.890   7.026   4.708 -0.5842 -0.1594  0.1373
35846SOL    HW1 9791   9.877   6.937   4.743 -0.1331 -0.0571  0.5688
35846SOL    HW2 9792   9.832   7.029   4.631  0.5154 -1.3616 -0.8006
35847SOL     OW 9793   8.469   7.487   7.227 -0.0300 -0.0178 -0.7059
35847SOL    HW1 9794   8.437   7.533   7.149  0.6429 -1.5170 -1.9081
35847SOL    HW2 9795   8.391   7.446   7.265 -0.2894  0.3571 -0.8247
35848SOL     OW 9796   3.456   1.895   5.270 -0.1335 -0.1655  0.4272
35848SOL    HW1 9797   3.419   1.983   5.262  0.8704  0.4120  1.7946
35848SOL    HW2 9798   3.380   1.838   5.278 -0.8771  0.3252 -2.0721
35849SOL     OW 9799   3.798   1.689  10.655  0.3088  0.0853  0.1048
35849SOL    HW1 9800   3.834   1.758  10.711 -0.1825  1.2607 -0.9888
35849SOL    HW2 9801   3.848   1.695  10.573 -2.6084  2.1468 -1.6782
35850SOL     OW 9802   7.784   7.300   1.100  0.0530 -0.2676 -0.0304
35850SOL    HW1 9803   7.838   7.360   1.151 -1.3719 -0.6874  2.0867
35850SOL    HW2 9804   7.825   7.214   1.114 -1.0012 -0.5600  1.4334
35851SOL     OW 9805   2.872   4.179   1.048 -0.1945  0.4166 -0.7013
35851SOL    HW1 9806   2.937   4.108   1.041 -0.2463  0.3241 -0.2935
35851SOL    HW2 9807   2.797   4.148   0.997 -1.0307 -0.7646  1.1269
35852SOL     OW 9808   9.450   8.150   9.663  0.4951 -0.3765  0.3202
35852SOL    HW1 9809   9.370   8.161   9.611  0.5160  2.1118  0.6695
35852SOL    HW2 9810   9.460   8.234   9.709  3.2744 -0.6304  0.3431
35853SOL     OW 9811   3.525   6.265   8.210 -0.0384 -0.6454 -0.5184
35853SOL    HW1 9812   3.528   6.287   8.304  1.6487 -2.7419 -0.0075
35853SOL    HW2 9813   3.583   6.329   8.169 -2.7673  1.9741 -0.6370
35854SOL     OW 9814   3.738   5.425   5.497 -0.0399 -0.0110 -0.2853
35854SOL    HW1 9815   3.753   5.342   5.451  1.0389  0.4548 -0.8349
35854SOL    HW2 9816   3.824   5.449   5.532 -0.1720  1.2026 -0.7197
35855SOL     OW 9817   1.731   2.091   4.948 -0.2575 -0.2135 -0.4795
35855SOL    HW1 9818   1.769   2.004   4.963  1.9633  0.5013 -1.6072
35855SOL    HW2 9819   1.744   2.107   4.854 -1.5895  0.9288 -0.5065
35856SOL     OW 9820   6.815   0.121   2.801  0.5406 -0.1488 -0.5584
35856SOL    HW1 9821   6.806   0.211   2.833 -0.1478 -1.1274  2.2450
35856SOL    HW2 9822   6.725   0.093   2.783  0.5093 -0.9820  0.7824
35857SOL     OW 9823   1.130   2.640   3.294  0.2679  0.3852 -0.1176
35857SOL    HW1 9824   1.131   2.549   3.325  1.6905  0.8291  1.2397
35857SOL    HW2 9825   1.183   2.639   3.214  0.5406  0.0754  0.0666
35858SOL     OW 9826   1.853   4.470   3.136 -0.8118 -0.0280  0.3822
35858SOL    HW1 9827   1.887   4.555   3.162  0.7701 -0.1664 -1.0591
35858SOL    HW2 9828   1.916   4.407   3.171 -1.7478 -0.5943  1.0853
35859SOL     OW 9829   6.928   6.855   7.690  0.7201 -0.0060 -0.1821
35859SOL    HW1 9830   7.020   6.835   7.710  0.5412 -0.4993  0.1532
35859SOL    HW2 9831   6.908   6.798   7.616  0.1418 -1.2910  0.9185
35860SOL     OW 9832  10.369  10.377   0.166 -0.5185 -0.0777  0.0642
35860SOL    HW1 9833  10.464  10.364   0.173 -0.3873  1.0599  0.6360
35860SOL    HW2 9834  10.344  10.327   0.088  0.9386  1.4624 -1.4826
35861SOL     OW 9835   4.837   4.355   3.632  0.6449 -0.8223  0.3772
35861SOL    HW1 9836   4.874   4.310   3.708  0.8296  1.0583  1.4681
35861SOL    HW2 9837   4.870   4.445   3.640  0.8526 -0.6172 -2.0654
35862SOL     OW 9838   0.367   5.391   4.589  0.3926  0.5304 -0.0196
35862SOL    HW1 9839   0.321   5.450   4.530  1.7790  1.0650 -0.6261
35862SOL    HW2 9840   0.448   5.369   4.542  0.7714 -0.3419  0.9985
35863SOL     OW 9841   7.989   1.944   4.232  0.1921 -0.2007 -0.2024
35863SOL    HW1 9842   7.935   2.006   4.279  2.9243  1.3766  1.0949
35863SOL    HW2 9843   8.020   1.883   4.300  1.7183  0.2353 -0.4835
35864SOL     OW 9844   0.064   1.701   3.058  0.4207  0.5109 -0.0686
35864SOL    HW1 9845   0.142   1.721   3.110 -0.8007  2.2189  1.2294
35864SOL    HW2 9846   0.034   1.617   3.093  0.7641  0.6591  0.6101
35865SOL     OW 9847   5.162   4.151   5.636  0.1025 -0.2602 -0.3319
35865SOL    HW1 9848   5.067   4.149   5.619  0.2249 -1.7477 -1.0346
35865SOL    HW2 9849   5.193   4.226   5.586 -0.4311 -1.0506 -1.9300
35866SOL     OW 9850   4.632   7.775   9.322 -0.4635  1.0023 -0.0349
35866SOL    HW1 9851   4.718   7.816   9.326 -0.9389  1.9791  0.2588
35866SOL    HW2 9852   4.576   7.829   9.377 -1.1955  0.1786  0.0591
35867SOL     OW 9853   0.214   3.622   2.003  0.0421 -0.2322  0.5024
35867SOL    HW1 9854   0.305   3.593   1.997  0.1334  0.0682  0.3504
35867SOL    HW2 9855   0.169   3.575   1.933  0.2602  0.2366  0.0324
35868SOL     OW 9856   3.724   7.785   0.281 -0.4361 -0.0845 -0.0313
35868SOL    HW1 9857   3.779   7.775   0.203 -0.5343 -0.8306 -0.0135
35868SOL    HW2 9858   3.682   7.870   0.270  0.1593  0.1698 -0.4014
35869SOL     OW 9859   8.375   5.949   6.507  0.0179 -0.5916  0.2929
35869SOL    HW1 9860   8.358   5.857   6.529 -1.9483 -0.0878  1.1646
35869SOL    HW2 9861   8.351   5.956   6.414  1.4822 -1.2243 -0.1522
35870SOL     OW 9862   6.169   7.190   6.376  0.1118 -0.5952  0.1827
35870SOL    HW1 9863   6.104   7.121   6.364 -0.4116 -0.2134  0.7763
35870SOL    HW2 9864   6.167   7.240   6.294 -0.0517 -0.8252  0.0446
35871SOL     OW 9865   3.440   9.996   7.165  0.7303  0.1475 -0.6501
35871SOL    HW1 9866   3.435  10.038   7.079  0.9400 -2.2474 -1.9323
35871SOL    HW2 9867   3.354   9.953   7.175  0.5412  0.7684  0.5743
35872SOL     OW 9868  10.140   8.275   0.747 -0.0105 -0.1839 -0.6632
35872SOL    HW1 9869  10.191   8.263   0.667 -0.0135 -0.8010 -0.5724
35872SOL    HW2 9870  10.157   8.366   0.772  0.0575 -0.0120 -1.3133
35873SOL     OW 9871   1.250   7.534   8.684 -0.2237 -0.4708  0.0840
35873SOL    HW1 9872   1.314   7.476   8.724 -0.9354 -1.3327 -0.0008
35873SOL    HW2 9873   1.302   7.601   8.640  0.6027 -0.8757  0.4315
35874SOL     OW 9874   7.087   9.971   5.297 -1.0527  0.1109  0.0877
35874SOL    HW1 9875   7.080   9.979   5.202 -0.4673  1.3416  0.1315
35874SOL    HW2 9876   7.132   9.888   5.311 -0.6556  0.1838 -0.7256
35875SOL     OW 9877   2.044   4.948   5.403  0.3129  0.1806 -0.1608
35875SOL    HW1 9878   1.978   4.888   5.367  0.5757 -1.9212  2.5489
35875SOL    HW2 9879   1.994   5.010   5.456  0.2831  0.7132 -0.7926
35876SOL     OW 9880   5.057   3.956   4.628  0.2301 -0.0747 -0.2715
35876SOL    HW1 9881   4.976   3.907   4.644  0.5641  0.0806  2.2516
35876SOL    HW2 9882   5.077   3.997   4.711  3.4467 -0.8741 -0.5324
35877SOL     OW 9883   9.215   7.163   2.114 -0.4461 -0.2408  0.2917
35877SOL    HW1 9884   9.176   7.221   2.180 -0.4346  0.4160 -0.2653
35877SOL    HW2 9885   9.281   7.113   2.162  0.8359  1.5054  0.4562
35878SOL     OW 9886   7.973   1.653   9.912 -0.5948  0.4151 -0.1817
35878SOL    HW1 9887   7.912   1.591   9.873  2.5492 -2.3227 -1.2779
35878SOL    HW2 9888   7.995   1.615   9.997 -0.2834  1.2742  0.1406
35879SOL     OW 9889  10.593   6.584  10.539  0.0296  0.1559  1.0545
35879SOL    HW1 9890  10.597   6.638  10.618 -0.5155  1.5158  0.1836
35879SOL    HW2 9891  10.502   6.555  10.535 -0.2401  1.0437  0.3391
35880SOL     OW 9892   5.549   2.119   0.827  0.3951  0.7325  0.2482
35880SOL    HW1 9893   5.491   2.114   0.751 -0.5987  1.2483  0.9351
35880SOL    HW2 9894   5.490   2.108   0.902  1.5521 -1.3679  0.9241
35881SOL     OW 9895   1.381   1.640   1.928 -0.3054  0.2597 -0.1728
35881SOL    HW1 9896   1.403   1.572   1.864 -1.0636  0.0708 -0.2435
35881SOL    HW2 9897   1.325   1.701   1.880 -1.4034 -0.2214  0.4856
35882SOL     OW 9898   1.931   2.905   3.310 -0.1570  0.7304  0.2842
35882SOL    HW1 9899   1.936   2.921   3.216 -0.1168 -2.6929 -0.4415
35882SOL    HW2 9900   1.960   2.987   3.350  0.0330  2.2328 -2.6618
35883SOL     OW 9901   5.412   0.519   3.614  0.1324 -0.2917  0.1495
35883SOL    HW1 9902   5.483   0.490   3.557  0.4336  0.4070  0.1632
35883SOL    HW2 9903   5.420   0.465   3.692 -0.9114 -1.9806 -0.8630
35884SOL     OW 9904  10.359   9.319  10.050  0.2006  0.1813  0.3935
35884SOL    HW1 9905  10.317   9.399  10.018  0.4246  0.5050  0.8969
35884SOL    HW2 9906  10.352   9.326  10.146  0.5958 -0.1981  0.4489
35885SOL     OW 9907   3.124   1.578   4.382  0.1651  0.9432 -0.5094
35885SOL    HW1 9908   3.187   1.588   4.453  0.5364 -0.5174 -0.5992
35885SOL    HW2 9909   3.067   1.655   4.389 -1.5608 -0.4495  3.1289
35886SOL     OW 9910   6.858   7.052   3.209 -0.8603 -0.2534 -0.2807
35886SOL    HW1 9911   6.921   7.115   3.243 -1.7179  1.1086 -1.1272
35886SOL    HW2 9912   6.790   7.047   3.276 -0.6865 -0.4430 -0.1181
35887SOL     OW 9913   1.415   9.024   1.028  0.1731 -0.4456 -0.2480
35887SOL    HW1 9914   1.330   9.067   1.036  0.5015  0.0663  0.4784
35887SOL    HW2 9915   1.475   9.093   1.000  0.3915 -0.7710 -0.5957
35888SOL     OW 9916   2.282   6.335   3.615 -0.1314 -0.0236  0.2912
35888SOL    HW1 9917   2.230   6.383   3.551  0.5361  0.8117  0.3624
35888SOL    HW2 9918   2.294   6.396   3.687  0.0738 -0.5674  0.7200
35889SOL     OW 9919   3.837   3.908   4.999  0.1172 -0.4729  0.4727
35889SOL    HW1 9920   3.801   3.842   4.939 -0.0354 -0.0434  0.0911
35889SOL    HW2 9921   3.928   3.916   4.973 -0.3672  1.0179 -0.9068
35890SOL     OW 9922   9.757  10.515   8.112 -0.5996 -0.1608 -0.0659
35890SOL    HW1 9923   9.722  10.546   8.028 -0.4343  0.4842  0.0994
35890SOL    HW2 9924   9.841  10.476   8.089 -1.5689 -2.1363 -0.5377
35891SOL     OW 9925   7.872   3.224   5.407 -0.1803 -0.0143  0.4902
35891SOL    HW1 9926   7.831   3.197   5.325 -0.8525 -0.5819  1.0003
35891SOL    HW2 9927   7.933   3.293   5.381 -0.8948  0.3130 -0.3972
35892SOL     OW 9928   5.344   6.015   4.732 -0.4322 -0.1728 -0.3463
35892SOL    HW1 9929   5.367   5.995   4.641  2.1717  1.7419 -0.2526
35892SOL    HW2 9930   5.296   6.098   4.727  1.6980  1.1710  0.0486
35893SOL     OW 9931   6.203  10.178   4.122  0.2807 -0.2671  0.3072
35893SOL    HW1 9932   6.149  10.201   4.197  0.3672  0.4759  0.1488
35893SOL    HW2 9933   6.293  10.181   4.155  0.2098 -2.3377  0.7910
35894SOL     OW 9934   1.503   2.268   3.890  0.2298  0.1714 -0.3548
35894SOL    HW1 9935   1.516   2.363   3.887  0.2758  0.1590 -0.6284
35894SOL    HW2 9936   1.592   2.232   3.885  0.2829  0.1286  0.8293
35895SOL     OW 9937   6.222   0.005   5.300 -0.8538  0.0493  0.2933
35895SOL    HW1 9938   6.166   0.079   5.327  0.0563  0.5530  0.8371
35895SOL    HW2 9939   6.160  -0.063   5.274 -1.7089  1.4077 -1.3720
35896SOL     OW 9940   1.506  10.445  10.154 -0.0325 -0.0171 -0.8243
35896SOL    HW1 9941   1.583  10.407  10.197 -0.7534 -2.1689 -1.2955
35896SOL    HW2 9942   1.542  10.496  10.081  0.9815 -1.3209 -1.2933
35897SOL     OW 9943   3.294   9.691   8.746 -0.4392  0.0162 -0.0686
35897SOL    HW1 9944   3.300   9.785   8.766  0.4226  0.0550 -0.4398
35897SOL    HW2 9945   3.228   9.658   8.806  1.4432  0.2746  2.3181
35898SOL     OW 9946   3.220   7.325   1.746 -0.6460 -0.3349 -0.1701
35898SOL    HW1 9947   3.217   7.331   1.651 -0.4402  0.2170 -0.1411
35898SOL    HW2 9948   3.204   7.232   1.764 -3.7897  0.0066 -0.6056
35899SOL     OW 9949   9.188   4.183   3.142  0.1365 -0.7447  0.4244
35899SOL    HW1 9950   9.257   4.117   3.148  0.6921 -0.3015 -0.7356
35899SOL    HW2 9951   9.126   4.146   3.079  1.1347  0.3645 -1.3162
35900SOL     OW 9952   1.294   4.969   8.526 -0.5136 -0.3867 -0.8425
35900SOL    HW1 9953   1.331   4.882   8.537  2.0112  0.8156  1.4123
35900SOL    HW2 9954   1.211   4.967   8.574 -0.8931 -1.7238 -1.5120
35901SOL     OW 9955   3.343   4.046   6.143  0.1663 -0.3245 -0.0891
35901SOL    HW1 9956   3.303   3.960   6.157 -1.2558  0.2829 -0.1476
35901SOL    HW2 9957   3.290   4.085   6.073  0.0496  1.0269  0.7192
35902SOL     OW 9958   9.890   8.434   7.597  0.4207 -0.0613 -0.7704
35902SOL    HW1 9959   9.830   8.370   7.559  0.0038  0.2562 -0.6461
35902SOL    HW2 9960   9.952   8.454   7.527  1.4330 -1.6812 -0.3891
35903SOL     OW 9961   1.548   3.116   7.571 -0.3381 -0.0708 -0.0338
35903SOL    HW1 9962   1.511   3.101   7.658  2.7932  0.5846  1.5803
35903SOL    HW2 9963   1.611   3.044   7.559  1.2512  1.3437 -0.4997
35904SOL     OW 9964  10.594   9.698   1.795  0.0787 -0.6793 -0.1321
35904SOL    HW1 9965  10.574   9.609   1.766  1.1618 -0.9586 -0.0665
35904SOL    HW2 9966  10.690   9.701   1.798  0.3219  1.7368 -4.1196
35905SOL     OW 9967   9.037   8.437   8.976  0.0706  0.0024 -0.6486
35905SOL    HW1 9968   9.128   8.441   8.946  0.4837  2.2263  0.6681
35905SOL    HW2 9969   9.008   8.528   8.976 -1.3996 -0.4138  1.1055
35906SOL     OW 9970   3.091   9.156   1.892 -0.2952 -0.1331 -0.1093
35906SOL    HW1 9971   2.999   9.143   1.870 -0.6755 -0.7159  1.6635
35906SOL    HW2 9972   3.103   9.251   1.896 -1.4515 -0.0145  1.9053
35907SOL     OW 9973  10.569   8.765   4.420 -0.0722  0.2782 -0.2025
35907SOL    HW1 9974  10.606   8.782   4.334  0.4933 -0.2573 -0.0740
35907SOL    HW2 9975  10.549   8.852   4.455 -0.0771  0.5107 -0.7738
35908SOL     OW 9976   0.546   7.639   2.689  0.4597  0.5095 -0.4957
35908SOL    HW1 9977   0.474   7.689   2.727  0.7480 -0.7495  1.9111
35908SOL    HW2 9978   0.624   7.673   2.731  0.7112 -1.5257  0.8391
35909SOL     OW 9979   6.950   2.236   5.200 -0.5500 -0.1121 -0.2939
35909SOL    HW1 9980   6.860   2.202   5.202 -2.1462  3.5935 -1.0674
35909SOL    HW2 9981   6.954   2.299   5.271  1.1334  0.4555 -0.8450
35910SOL     OW 9982   4.908   7.685   4.718 -0.0012  0.5678  0.0225
35910SOL    HW1 9983   4.947   7.771   4.733  1.8021 -0.1792 -0.0176
35910SOL    HW2 9984   4.886   7.653   4.806 -1.0972  1.2357  0.0008
35911SOL     OW 9985   4.148   4.696   5.800  0.2807 -0.4775  0.6563
35911SOL    HW1 9986   4.179   4.786   5.805  0.4628 -0.5385  0.6317
35911SOL    HW2 9987   4.213   4.651   5.745  0.4975 -0.7560  1.1402
35912SOL     OW 9988   9.528   9.419   7.156  0.2810  0.2120 -0.1447
35912SOL    HW1 9989   9.526   9.378   7.070 -1.0109  0.1805 -0.1108
35912SOL    HW2 9990   9.443   9.461   7.166  0.4756  0.3838  1.0382
35913SOL     OW 9991   1.816   9.030   0.662 -0.2630 -0.3127  0.2701
35913SOL    HW1 9992   1.906   9.029   0.628 -0.5006  0.6199 -0.4440
35913SOL    HW2 9993   1.762   9.014   0.584 -0.7454 -0.1099  0.5649
35914SOL     OW 9994   2.940   9.863   2.093 -0.0614  0.6018  0.3746
35914SOL    HW1 9995   2.882   9.815   2.034  0.4796  2.6395 -2.0165
35914SOL    HW2 9996   3.022   9.815   2.090 -0.2151  0.3578 -0.0972
35915SOL     OW 9997   3.955   1.884   6.646 -0.3403 -0.4287  0.4121
35915SOL    HW1 9998   4.040   1.919   6.618 -0.7859  1.1369  0.9144
35915SOL    HW2 9999   3.970   1.854   6.736  0.1423 -1.9820 -0.1513
35916SOL     OW10000   8.380   3.607   7.219 -0.3595 -0.3266  0.0267
35916SOL    HW110001   8.447   3.637   7.158 -1.5486  2.6329  0.0019
35916SOL    HW210002   8.323   3.551   7.166 -0.2335  0.5441 -1.0680
35917SOL     OW10003   3.443   7.285   7.870  0.0549 -0.0786 -0.2012
35917SOL    HW110004   3.403   7.203   7.842 -2.1469  1.2873 -1.3536
35917SOL    HW210005   3.537   7.267   7.871 -0.3377 -2.5085 -0.6428
35918SOL     OW10006   4.111   4.172   9.432  0.0364 -0.6339  0.1910
35918SOL    HW110007   4.089   4.097   9.377  1.3351 -0.6161 -0.3938
35918SOL    HW210008   4.187   4.211   9.390  0.1282  0.2868  1.1680
35919SOL     OW10009  10.263   6.732   2.857 -0.0287 -0.2674 -0.1897
35919SOL    HW110010  10.221   6.661   2.809 -1.5582  1.3258 -1.3290
35919SOL    HW210011  10.248   6.710   2.949  0.0872 -1.7118 -0.4877
35920SOL     OW10012   7.829   6.828   6.286  0.0576  0.4489 -0.2805
35920SOL    HW110013   7.816   6.878   6.366  1.5016  0.2809  0.0997
35920SOL    HW210014   7.809   6.889   6.216  0.6858  1.2215  0.1888
35921SOL     OW10015   7.763   2.628   1.778  0.7455 -0.5963  0.0757
35921SOL    HW110016   7.695   2.588   1.724 -0.2424  1.2827 -0.1756
35921SOL    HW210017   7.813   2.683   1.716  0.1418  0.9037  0.8667
35922SOL     OW10018   9.665   9.283   7.355 -0.5111  0.0423  0.0765
35922SOL    HW110019   9.728   9.334   7.405  1.1186 -0.2657 -1.5837
35922SOL    HW210020   9.630   9.344   7.290  2.4815 -1.0352 -2.8669
35923SOL     OW10021   5.242   0.478   5.416  0.0297 -0.0859 -0.0976
35923SOL    HW110022   5.176   0.486   5.347 -0.9777  0.4438  0.8828
35923SOL    HW210023   5.315   0.533   5.386 -1.2882  1.9519  0.2201
35924SOL     OW10024   8.446   5.274   3.488 -0.1403  0.4439 -0.0156
35924SOL    HW110025   8.527   5.234   3.458  0.6245  1.5709  0.4858
35924SOL    HW210026   8.410   5.212   3.551  2.0063  1.3064  2.2322
35925SOL     OW10027   8.354   7.438   0.542 -0.2740 -0.0780 -0.0301
35925SOL    HW110028   8.292   7.409   0.609  0.5016 -2.0419 -0.0971
35925SOL    HW210029   8.330   7.389   0.464  1.0455 -0.5241 -0.1835
35926SOL     OW10030   6.921   1.916   2.065 -0.2769 -0.3771 -0.1279
35926SOL    HW110031   6.907   1.880   2.153  0.1976 -0.0438  0.0895
35926SOL    HW210032   6.944   1.840   2.011  0.3418 -0.4569  0.2430
35927SOL     OW10033   6.147   4.362   1.757  0.0230  0.4772 -1.0423
35927SOL    HW110034   6.083   4.293   1.737  0.0839  0.1391 -0.1165
35927SOL    HW210035   6.129   4.385   1.848  0.4583  1.2069 -1.1377
35928SOL     OW10036   0.652   1.509   0.598 -1.0370 -0.1095 -0.2492
35928SOL    HW110037   0.698   1.426   0.590 -2.0053 -0.8892  1.7528
35928SOL    HW210038   0.564   1.492   0.567 -1.2904  0.1026  0.3265
35929SOL     OW10039   9.337   4.351  10.651 -0.1325 -0.3200  0.1555
35929SOL    HW110040   9.369   4.288  10.715  0.4076 -0.2328 -0.0214
35929SOL    HW210041   9.271   4.401  10.698  2.6383  2.1091  1.8313
35930SOL     OW10042   9.257   9.193   3.979  0.3098  0.1329  0.4188
35930SOL    HW110043   9.191   9.151   4.034 -0.3202  0.7292  0.1309
35930SOL    HW210044   9.212   9.268   3.940  1.2056  0.6491  0.3486
35931SOL     OW10045   2.763   4.560   7.483  0.4743 -0.2046  0.1276
35931SOL    HW110046   2.696   4.537   7.418  0.0649 -1.1764  0.8665
35931SOL    HW210047   2.775   4.654   7.473  0.3769 -0.3171 -1.3100
35932SOL     OW10048   7.029   2.370   6.314 -0.2635  0.1302 -0.1249
35932SOL    HW110049   7.052   2.463   6.311  0.3295 -0.0336 -2.2381
35932SOL    HW210050   7.110   2.327   6.343 -1.1786  0.3714  3.1856
35933SOL     OW10051   6.678   4.621   2.056  0.2201 -0.0835 -0.2821
35933SOL    HW110052   6.711   4.675   2.127  0.6532 -0.4667 -0.1899
35933SOL    HW210053   6.629   4.551   2.100  1.3800 -0.9325 -0.2954
35934SOL     OW10054   6.229   0.193   4.388 -0.5378 -0.3214 -0.0536
35934SOL    HW110055   6.190   0.193   4.300 -0.0485 -1.5780 -0.3022
35934SOL    HW210056   6.175   0.131   4.437 -0.5793  0.0964  0.4314
35935SOL     OW10057   6.281   8.378   3.698  0.0514 -0.1201  0.0471
35935SOL    HW110058   6.341   8.442   3.735  1.2434 -1.7311  1.0648
35935SOL    HW210059   6.338   8.306   3.670 -0.9716  0.2593 -3.3958
35936SOL     OW10060   4.646   9.731   2.755  0.8233 -0.3475 -0.1125
35936SOL    HW110061   4.556   9.700   2.745  1.5914 -2.9553  0.3027
35936SOL    HW210062   4.693   9.688   2.684  1.5635  1.9840 -1.0954
35937SOL     OW10063   2.580   0.126   2.171 -0.8313 -0.0403 -0.5424
35937SOL    HW110064   2.545   0.072   2.241 -0.8113 -0.0808 -0.5636
35937SOL    HW210065   2.592   0.065   2.098 -0.1350 -0.1435 -0.3434
35938SOL     OW10066   4.135   1.859  10.341 -0.5247  0.1819  0.0460
35938SOL    HW110067   4.204   1.889  10.401 -0.7569 -0.1193  0.4719
35938SOL    HW210068   4.167   1.882  10.254 -0.6492  1.5819  0.3393
35939SOL     OW10069   5.778   2.865   2.218 -0.3364  0.4494 -0.5375
35939SOL    HW110070   5.848   2.927   2.199  1.7116 -1.9599 -1.4453
35939SOL    HW210071   5.822   2.780   2.222 -2.7024 -0.8313  2.2527
35940SOL     OW10072   1.132   0.635   9.751  0.4676  0.1774  0.0600
35940SOL    HW110073   1.143   0.542   9.731 -0.2358  0.0483  0.2415
35940SOL    HW210074   1.159   0.681   9.672 -0.8228 -0.2542 -0.6367
35941SOL     OW10075   0.249   0.637   2.232  0.5802 -0.1019  0.2906
35941SOL    HW110076   0.184   0.689   2.185 -0.2999 -1.7189 -0.3929
35941SOL    HW210077   0.249   0.671   2.321  0.6465  1.5646 -0.3073
35942SOL     OW10078   4.219   3.756   2.396 -0.4745 -0.0783 -0.1000
35942SOL    HW110079   4.194   3.848   2.403 -0.1463 -0.0618  1.2284
35942SOL    HW210080   4.228   3.727   2.487  2.7269 -0.4829 -0.4109
35943SOL     OW10081  10.461   6.010   2.241  0.0241  0.2509 -0.1126
35943SOL    HW110082  10.444   5.916   2.255  1.3365  0.1997  1.4484
35943SOL    HW210083  10.530   6.012   2.175  0.7292  0.0599  0.6080
35944SOL     OW10084   2.417   0.153  10.608  0.1540 -0.9098  0.4071
35944SOL    HW110085   2.506   0.187  10.593 -0.2606  0.0235 -0.0647
35944SOL    HW210086   2.377   0.217  10.667 -1.5756  1.1425 -2.6889
35945SOL     OW10087   1.128   3.905   7.784 -0.4330 -0.1457 -0.6301
35945SOL    HW110088   1.086   3.944   7.861  2.4351  0.8410  0.5454
35945SOL    HW210089   1.113   3.968   7.714 -0.3785  0.5001 -0.0686
35946SOL     OW10090   5.981   4.545   3.538 -0.1371 -0.3921 -0.4687
35946SOL    HW110091   5.982   4.457   3.577 -2.5801 -1.0785 -1.7198
35946SOL    HW210092   6.034   4.536   3.459 -0.0535 -0.6492 -0.3838
35947SOL     OW10093   5.598   5.569   5.739 -0.1457 -0.2870 -0.1366
35947SOL    HW110094   5.571   5.611   5.657 -1.1904 -0.3891  0.1463
35947SOL    HW210095   5.682   5.610   5.759 -0.5459  0.7745 -0.5291
35948SOL     OW10096   7.820   1.794   2.872  0.3057  0.0294  0.1469
35948SOL    HW110097   7.785   1.877   2.840 -0.8131 -1.2081 -2.1063
35948SOL    HW210098   7.908   1.789   2.834 -0.4482 -0.7355 -1.6354
35949SOL     OW10099   3.071   9.147   5.849 -0.5019  0.1754 -0.4707
35949SOL    HW110100   3.067   9.241   5.831 -0.2522  0.2369 -0.2083
35949SOL    HW210101   3.138   9.114   5.788 -1.5212 -0.0603 -1.4959
35950SOL     OW10102   1.692   1.788   3.969 -0.1453 -0.4956  0.0624
35950SOL    HW110103   1.732   1.870   3.994  2.8040 -1.3701 -1.3629
35950SOL    HW210104   1.642   1.809   3.890 -1.3697  0.3067  1.0058
35951SOL     OW10105   0.083   1.260   1.195 -0.0298 -0.0852  0.2706
35951SOL    HW110106   0.125   1.192   1.247 -0.8468 -0.2368  0.7459
35951SOL    HW210107   0.149   1.328   1.187  0.8329 -0.9533 -0.2752
35952SOL     OW10108   5.259   7.894   9.077  0.1102 -0.0517 -0.1391
35952SOL    HW110109   5.229   7.970   9.027 -1.2119  0.7161  1.6760
35952SOL    HW210110   5.354   7.891   9.064  0.3402  2.5268  0.4999
35953SOL     OW10111   8.335   6.290   5.456 -0.1024  0.5310 -0.0532
35953SOL    HW110112   8.410   6.247   5.416 -0.2169  1.2934 -1.1375
35953SOL    HW210113   8.339   6.265   5.548  1.5869  0.7028 -0.0524
35954SOL     OW10114   4.914   5.369   8.005  0.6450  0.3320  0.8233
35954SOL    HW110115   4.949   5.458   8.004 -1.1914  1.1440 -1.9018
35954SOL    HW210116   4.921   5.340   7.914  2.0755 -2.7491  1.7731
35955SOL     OW10117   4.452   8.402   5.802  0.3751  0.3239 -0.5503
35955SOL    HW110118   4.399   8.341   5.751 -0.0040 -0.2018  0.4601
35955SOL    HW210119   4.542   8.376   5.784  0.2048 -1.4188  0.8939
35956SOL     OW10120   4.253   6.836   4.791 -0.3224 -0.1109  0.1476
35956SOL    HW110121   4.243   6.909   4.730  2.4558 -1.2748 -1.9157
35956SOL    HW210122   4.330   6.858   4.843 -0.0605 -1.1055  0.1964
35957SOL     OW10123   3.135  10.152   4.317  0.1176 -0.7163  0.3785
35957SOL    HW110124   3.182  10.146   4.234  2.1325 -0.7961  1.4726
35957SOL    HW210125   3.132  10.245   4.337  0.6132 -0.7775  0.7452
35958SOL     OW10126   5.159   6.703   4.953 -0.5067  0.8827  0.0266
35958SOL    HW110127   5.239   6.698   5.005 -0.2392 -0.9635 -0.4934
35958SOL    HW210128   5.098   6.642   4.997 -0.6635  0.1782 -1.1375
35959SOL     OW10129  10.150   6.301   0.984 -0.0915  0.0211 -0.4080
35959SOL    HW110130  10.113   6.261   0.905 -2.5489 -0.3063  0.8175
35959SOL    HW210131  10.113   6.250   1.057  0.7272  1.3792  1.0187
35960SOL     OW10132   0.887   6.196   9.046 -0.2402  0.0353  0.5137
35960SOL    HW110133   0.810   6.163   9.001 -0.8408 -1.6866  2.6382
35960SOL    HW210134   0.855   6.274   9.092 -0.2422  0.3527 -0.0139
35961SOL     OW10135   9.445   5.787   3.273  0.2664  0.7753 -0.0360
35961SOL    HW110136   9.365   5.835   3.292  0.2497  0.9982 -0.6624
35961SOL    HW210137   9.420   5.725   3.204  0.6440  0.8745 -0.2640
35962SOL     OW10138   9.633   7.734   4.073  0.2193  0.2879 -0.0508
35962SOL    HW110139   9.608   7.774   3.990  1.4847 -1.4384 -1.3361
35962SOL    HW210140   9.656   7.807   4.130 -1.5183  1.5477 -0.9097
35963SOL     OW10141   5.400   4.613   5.170  0.0510 -0.3069 -0.0796
35963SOL    HW110142   5.361   4.699   5.156 -0.4167 -0.2320  1.4498
35963SOL    HW210143   5.453   4.597   5.093 -0.0764  1.2374 -0.5073
35964SOL     OW10144   1.738   4.143   5.581  0.3599  0.2499 -0.1495
35964SOL    HW110145   1.681   4.189   5.519  1.2176 -1.4574 -2.3372
35964SOL    HW210146   1.682   4.126   5.656 -0.8537  2.0317 -0.5630
35965SOL     OW10147   8.433   1.236   1.471  0.3509  0.0457 -0.0023
35965SOL    HW110148   8.513   1.224   1.419  0.7935  1.0753  0.4237
35965SOL    HW210149   8.431   1.160   1.529  1.1027  0.0728  0.0751
35966SOL     OW10150   7.957   3.462   4.973 -0.0966 -0.2929 -0.4631
35966SOL    HW110151   7.975   3.431   4.884 -1.7283 -0.1435 -0.8695
35966SOL    HW210152   8.042   3.493   5.005  1.0531 -2.6929 -1.0019
35967SOL     OW10153  10.112   7.690   0.788 -0.7043  0.4960 -0.2275
35967SOL    HW110154  10.159   7.675   0.870 -1.0497 -2.1304 -0.4130
35967SOL    HW210155  10.021   7.701   0.814 -0.7320  0.2406 -0.2141
35968SOL     OW10156   9.808   8.798   3.561 -0.0879  0.2948 -0.0444
35968SOL    HW110157   9.876   8.839   3.508  0.9327  0.8846  1.6578
35968SOL    HW210158   9.803   8.708   3.528  0.1773  0.7501 -1.4108
35969SOL     OW10159   5.473   5.577   1.607  0.3443  0.0900  0.2890
35969SOL    HW110160   5.461   5.588   1.701 -0.7115 -0.4615  0.2349
35969SOL    HW210161   5.564   5.549   1.597  0.8728  1.4731  1.0178
35970SOL     OW10162   1.828   5.472   7.032 -0.3507  0.1976 -0.0503
35970SOL    HW110163   1.856   5.390   7.073 -1.1445 -0.3130 -0.5103
35970SOL    HW210164   1.848   5.539   7.097  1.1855 -0.2261 -0.0346
35971SOL     OW10165   6.693   9.124   0.494 -0.2443 -0.2893 -0.2634
35971SOL    HW110166   6.757   9.159   0.556 -0.8283  0.7601 -0.2443
35971SOL    HW210167   6.739   9.051   0.452  1.3200  1.0493 -0.9588
35972SOL     OW10168   7.440   0.933   9.410 -0.2014 -0.6437  0.3681
35972SOL    HW110169   7.430   0.861   9.472  1.3850 -3.2365 -2.1482
35972SOL    HW210170   7.375   0.915   9.342 -1.1367  1.4922  0.6291
35973SOL     OW10171   6.161   9.165   8.967 -0.1035  0.7227  0.3250
35973SOL    HW110172   6.135   9.079   9.000  0.5456  0.9860  1.5982
35973SOL    HW210173   6.151   9.158   8.872 -1.6645 -0.2061  0.5079
35974SOL     OW10174   9.672   2.501   1.807 -0.4088  0.0543  0.3371
35974SOL    HW110175   9.669   2.481   1.713  0.8454 -0.3772  0.3652
35974SOL    HW210176   9.678   2.415   1.849  1.2003  0.3069  0.6815
35975SOL     OW10177   4.288   7.924   2.644 -0.0878 -0.5101 -0.1234
35975SOL    HW110178   4.380   7.945   2.633 -0.1377  0.1741  0.6752
35975SOL    HW210179   4.246   7.962   2.567  0.1806  0.0255 -0.0143
35976SOL     OW10180   3.231   6.836   8.163 -0.2849  0.0790 -0.1736
35976SOL    HW110181   3.168   6.820   8.233  0.3471  1.8177  0.8407
35976SOL    HW210182   3.256   6.748   8.133 -3.4437 -0.6876 -0.9252
35977SOL     OW10183   6.675   8.226   9.959  0.3960 -0.3972  0.0254
35977SOL    HW110184   6.582   8.227   9.983  0.2509 -1.4350 -0.4159
35977SOL    HW210185   6.717   8.178  10.031  0.8774  1.4971  1.0701
35978SOL     OW10186   3.195   4.095   8.067  0.5418  0.6079 -0.2314
35978SOL    HW110187   3.291   4.091   8.067  0.5389  0.4864 -0.5986
35978SOL    HW210188   3.174   4.167   8.008  0.3988  0.3143 -0.5441
35979SOL     OW10189   4.948   2.399   5.323 -0.2082 -0.4137  0.6335
35979SOL    HW110190   4.983   2.314   5.351  1.1026  0.8279  3.1395
35979SOL    HW210191   4.907   2.382   5.238  0.7619 -3.3436  0.6510
35980SOL     OW10192   3.767   8.298   7.911 -0.6656  0.6048 -0.1200
35980SOL    HW110193   3.782   8.363   7.980  0.9246 -0.3028  0.4409
35980SOL    HW210194   3.690   8.250   7.939 -1.0686  1.3899  0.1265
35981SOL     OW10195   7.130   2.743   2.035 -0.1186 -0.3277 -0.0372
35981SOL    HW110196   7.068   2.688   2.083 -0.0135 -0.7500 -0.3820
35981SOL    HW210197   7.079   2.821   2.012 -0.3639 -0.4270  0.1548
35982SOL     OW10198   6.683   5.470   3.675  0.5197 -0.4005  0.4743
35982SOL    HW110199   6.596   5.461   3.636 -1.1024  0.1791  3.6388
35982SOL    HW210200   6.708   5.561   3.658  0.2064 -0.3846  0.1027
35983SOL     OW10201   6.681   5.339   7.752  0.0513  0.2338  0.0262
35983SOL    HW110202   6.680   5.415   7.694 -0.5637 -0.0831 -0.3957
35983SOL    HW210203   6.732   5.273   7.704  0.5386  0.3575  0.3671
35984SOL     OW10204   1.921   2.530   1.859  0.0211 -0.3771  0.2818
35984SOL    HW110205   1.870   2.459   1.899 -0.5294 -0.8812 -1.2342
35984SOL    HW210206   1.957   2.491   1.779  2.2841  0.1670  0.9730
35985SOL     OW10207   0.855   2.420   4.392  0.3241  0.3484  0.3951
35985SOL    HW110208   0.837   2.474   4.316 -1.5275 -1.6856 -0.7386
35985SOL    HW210209   0.779   2.362   4.399  1.1570 -0.5977  2.8723
35986SOL     OW10210   8.472   4.768   9.162 -0.6415  0.1372 -0.2076
35986SOL    HW110211   8.544   4.766   9.226  0.2231  1.7724 -1.0658
35986SOL    HW210212   8.490   4.694   9.104 -0.9417 -0.8290  0.8881
35987SOL     OW10213   8.997   8.319   3.399  0.9278  0.2748  0.2064
35987SOL    HW110214   9.022   8.266   3.323 -1.8323 -0.4126 -0.3346
35987SOL    HW210215   9.032   8.270   3.474  3.0284  0.5611 -0.5153
35988SOL     OW10216   7.282   4.111   2.518 -0.3051 -0.0259  0.3302
35988SOL    HW110217   7.314   4.176   2.456 -1.6086 -0.8650 -1.2846
35988SOL    HW210218   7.216   4.062   2.470 -1.5294 -0.5822  2.4478
35989SOL     OW10219   3.416   0.309   5.381  0.9886 -0.1115 -0.3823
35989SOL    HW110220   3.325   0.306   5.352  0.7386  0.8982  0.2285
35989SOL    HW210221   3.438   0.218   5.402 -0.0555 -0.2919 -0.0335
35990SOL     OW10222   9.541   8.683   4.434  0.8122 -0.3722  0.0683
35990SOL    HW110223   9.579   8.597   4.449  1.9639  0.4490  2.4169
35990SOL    HW210224   9.452   8.676   4.468  0.5732 -0.8697 -0.6386
35991SOL     OW10225   2.686   4.671   8.827  0.3252 -0.0657  0.3907
35991SOL    HW110226   2.590   4.674   8.822  0.3010  1.4441  1.1280
35991SOL    HW210227   2.712   4.615   8.754 -1.1537 -1.1418  0.6447
35992SOL     OW10228   5.373   2.427   0.934  0.4044 -0.1300 -0.3927
35992SOL    HW110229   5.459   2.460   0.961  0.5636 -0.8744  0.0592
35992SOL    HW210230   5.321   2.429   1.014  0.5215 -1.2488 -0.2653
35993SOL     OW10231   2.052   0.638   0.134 -0.0727 -0.3465  0.4244
35993SOL    HW110232   2.027   0.609   0.047 -0.9064 -0.7101  0.7729
35993SOL    HW210233   2.011   0.575   0.194 -0.1354  0.3155  1.1021
35994SOL     OW10234   7.262   5.227   3.147  0.0728 -0.1182 -0.2652
35994SOL    HW110235   7.187   5.251   3.201 -0.4970 -2.8673  0.3492
35994SOL    HW210236   7.325   5.297   3.161 -2.0094  1.8209 -0.1051
35995SOL     OW10237   7.965   4.858   1.951 -0.1628 -0.5405 -0.2020
35995SOL    HW110238   7.982   4.764   1.945 -0.2137 -0.6152  0.6610
35995SOL    HW210239   7.879   4.863   1.993  1.0637 -0.1002  2.4036
35996SOL     OW10240   3.493   8.777   2.411 -0.2354  0.4021 -0.0937
35996SOL    HW110241   3.508   8.828   2.332 -1.6305 -0.6423 -1.0773
35996SOL    HW210242   3.449   8.698   2.381 -0.1596 -0.3607  1.6510
35997SOL     OW10243   5.599   0.668   2.165  0.6738 -0.1498 -0.8554
35997SOL    HW110244   5.641   0.735   2.111 -0.5517  0.3560 -1.2327
35997SOL    HW210245   5.574   0.600   2.103  0.5166 -0.2219 -0.7118
35998SOL     OW10246   5.040   0.497   5.610 -0.2624  0.5921 -0.1866
35998SOL    HW110247   5.112   0.507   5.547  0.5158  0.6587  0.6981
35998SOL    HW210248   5.012   0.587   5.628 -0.7858  0.5555 -0.7480
35999SOL     OW10249   3.505   7.316   4.565 -0.0512  0.4024  0.0342
35999SOL    HW110250   3.494   7.288   4.656  0.2013  0.4881  0.0910
35999SOL    HW210251   3.487   7.237   4.514  1.5463 -0.1216  0.2283
36000SOL     OW10252   6.349  10.082   5.606 -0.0848 -0.2493 -0.1687
36000SOL    HW110253   6.293  10.132   5.666  0.0962 -0.1525 -0.0812
36000SOL    HW210254   6.292  10.013   5.573 -0.1975 -0.2843  0.0914
36001SOL     OW10255   1.924   4.017   5.046  0.4342 -0.2794 -0.0416
36001SOL    HW110256   1.956   3.989   4.960  0.3365  0.8277 -0.4615
36001SOL    HW210257   1.887   4.104   5.030 -1.4713 -0.9049  0.7142
36002SOL     OW10258   1.492   5.286   2.165 -0.1300 -0.5358  0.1322
36002SOL    HW110259   1.464   5.376   2.151 -1.9963 -0.8105  1.6177
36002SOL    HW210260   1.456   5.238   2.090 -2.0554 -0.5295  0.9795
36003SOL     OW10261   2.303   4.107   4.995  0.0791  0.0978  0.5147
36003SOL    HW110262   2.388   4.104   4.950 -0.8647  0.7905 -1.4491
36003SOL    HW210263   2.262   4.023   4.973  0.5474 -0.6104  2.1826
36004SOL     OW10264   6.046   9.729   8.864 -0.4931  0.5020 -0.5095
36004SOL    HW110265   5.987   9.800   8.891  0.9632  1.2150  0.9910
36004SOL    HW210266   6.022   9.655   8.919 -0.2998  0.6548 -0.2158
36005SOL     OW10267   7.052   3.062  10.182 -0.1747 -0.0751 -0.2387
36005SOL    HW110268   7.145   3.070  10.164 -0.0255  1.2584  0.9146
36005SOL    HW210269   7.010   3.072  10.097  0.7286 -0.7493 -0.7756
36006SOL     OW10270   1.902   6.504   7.700 -0.1412  0.1607 -0.1710
36006SOL    HW110271   1.821   6.545   7.732  0.2966  1.8945 -1.1889
36006SOL    HW210272   1.880   6.474   7.612  0.5819  1.5419 -0.8431
36007SOL     OW10273   9.288   1.011   3.027  0.1141 -0.5945  0.8859
36007SOL    HW110274   9.197   0.984   3.015 -0.4118  1.2066  0.4905
36007SOL    HW210275   9.309   0.987   3.117 -0.5199 -1.6467  0.7672
36008SOL     OW10276   2.391   3.303   8.849 -0.1249 -0.2439 -0.3329
36008SOL    HW110277   2.421   3.227   8.900  0.9330  0.4575  0.1412
36008SOL    HW210278   2.428   3.289   8.762  0.3053 -0.1392 -0.1693
36009SOL     OW10279   3.298   0.860  10.499  0.1002 -0.2276  0.8193
36009SOL    HW110280   3.264   0.832  10.584  0.2954  2.5040  1.9052
36009SOL    HW210281   3.220   0.881  10.447  0.0026 -0.6374  0.8025
36010SOL     OW10282   9.315   4.659   8.516  0.0290 -0.1370 -0.5158
36010SOL    HW110283   9.366   4.597   8.464 -1.0540 -1.1849 -0.4058
36010SOL    HW210284   9.224   4.632   8.502 -0.4997  1.5534 -0.5780
36011SOL     OW10285   3.683   7.967   6.696 -0.4669 -0.6364  0.1267
36011SOL    HW110286   3.734   8.046   6.716 -0.5972 -0.4245 -0.3613
36011SOL    HW210287   3.593   7.997   6.690 -0.3616 -0.5240 -1.5204
36012SOL     OW10288   7.559   2.696   3.410 -0.0197  0.1241 -0.3612
36012SOL    HW110289   7.542   2.756   3.338  0.8121 -0.3866 -1.0014
36012SOL    HW210290   7.499   2.623   3.394 -0.1604  0.2196 -0.2738
36013SOL     OW10291   4.348   9.097   9.163  0.1251 -0.1183 -0.1129
36013SOL    HW110292   4.363   9.005   9.182 -1.2218 -0.1863  0.7606
36013SOL    HW210293   4.376   9.143   9.243 -1.4336  0.0019  0.3820
36014SOL     OW10294   4.557   7.843   2.260 -0.0666 -0.4414  0.2234
36014SOL    HW110295   4.605   7.781   2.206  1.3382  0.4402  0.4193
36014SOL    HW210296   4.560   7.805   2.348  2.0334  0.5386  0.6278
36015SOL     OW10297   5.180   1.022  10.319 -0.3710  0.0050  0.8293
36015SOL    HW110298   5.272   0.998  10.328  0.4236  2.3931 -0.0960
36015SOL    HW210299   5.148   1.030  10.409  0.5174 -0.2069  1.1765
36016SOL     OW10300   7.935   5.582   2.377  0.7161  0.6148  0.2898
36016SOL    HW110301   7.967   5.588   2.467  0.0320  0.7284  0.5267
36016SOL    HW210302   8.007   5.539   2.330 -0.1910 -2.6261  1.5476
36017SOL     OW10303   3.450   0.446   1.304 -0.1375  0.0429 -0.0204
36017SOL    HW110304   3.543   0.461   1.288 -0.4440  1.1421 -0.9280
36017SOL    HW210305   3.435   0.481   1.392  0.4826 -1.0002  0.5085
36018SOL     OW10306   1.091   2.852   8.855 -0.4325 -0.9459  0.0660
36018SOL    HW110307   1.152   2.893   8.917 -0.2391 -1.8209  0.4834
36018SOL    HW210308   1.100   2.903   8.775  1.5198 -1.5777 -0.1696
36019SOL     OW10309   0.160   5.806   4.584 -0.3396 -0.1502  0.0869
36019SOL    HW110310   0.083   5.799   4.640 -0.4920 -0.0818 -0.1128
36019SOL    HW210311   0.233   5.817   4.645 -0.2274 -2.1255  0.3822
36020SOL     OW10312   6.737   7.790   3.054  0.0193  0.4959 -0.4915
36020SOL    HW110313   6.661   7.795   3.112 -0.2210  2.7491 -0.9180
36020SOL    HW210314   6.702   7.800   2.966  0.5965 -0.9756 -0.9342
36021SOL     OW10315   1.822   2.044   3.986  0.6176 -0.3737 -0.1435
36021SOL    HW110316   1.776   2.060   4.068  0.4170 -0.4906 -0.2320
36021SOL    HW210317   1.837   2.131   3.950 -0.0875 -0.3601 -0.4134
36022SOL     OW10318   2.231   1.584   0.292 -0.0555  0.0220 -0.2200
36022SOL    HW110319   2.156   1.529   0.315 -0.7033  0.6982 -0.6792
36022SOL    HW210320   2.194   1.672   0.280  0.4719 -0.0200 -2.4244
36023SOL     OW10321   2.639   7.409   3.334 -0.3875 -0.2663 -0.0915
36023SOL    HW110322   2.665   7.399   3.242 -1.4343 -0.9821 -0.3273
36023SOL    HW210323   2.712   7.371   3.383  0.0317 -0.1841 -0.6407
36024SOL     OW10324   5.636   3.060   5.898 -0.3078  0.2628  0.1896
36024SOL    HW110325   5.647   3.058   5.803  1.0569  0.0239  0.3257
36024SOL    HW210326   5.623   2.968   5.922  0.2350  0.2109  0.3075
36025SOL     OW10327   4.329   4.324   9.865 -0.8476 -0.1875  0.4039
36025SOL    HW110328   4.279   4.341   9.785 -0.5287 -1.0556  0.0084
36025SOL    HW210329   4.267   4.280   9.923 -0.9040 -0.1188  0.3959
36026SOL     OW10330   3.600   7.225   2.236 -0.0012  0.4751  0.3225
36026SOL    HW110331   3.555   7.140   2.233 -0.2514  0.6000  0.5245
36026SOL    HW210332   3.669   7.213   2.302  1.5188 -0.3234 -1.3205
36027SOL     OW10333   5.111   6.911   2.372  0.0646 -0.6862 -0.1289
36027SOL    HW110334   5.117   6.971   2.446 -1.3310 -0.8152  0.1073
36027SOL    HW210335   5.194   6.863   2.374  1.4129  1.5014 -0.6006
36028SOL     OW10336   1.179   8.056   3.534 -0.2599 -0.0340  0.5565
36028SOL    HW110337   1.146   8.046   3.623  2.2780 -0.1107  1.5857
36028SOL    HW210338   1.228   7.975   3.518 -0.3378  0.1657 -0.7403
36029SOL     OW10339   6.489   4.334   5.270  0.0621  0.1307  0.0242
36029SOL    HW110340   6.511   4.294   5.355 -0.1226 -0.6159 -0.2701
36029SOL    HW210341   6.501   4.428   5.284  0.7679 -0.0414  0.6638
36030SOL     OW10342   3.038   6.799   6.981  0.4218 -0.2607 -0.3724
36030SOL    HW110343   2.973   6.748   6.933 -0.5408  1.6933 -1.2455
36030SOL    HW210344   3.075   6.859   6.915  0.8162  0.8102  0.7849
36031SOL     OW10345   1.188   8.640   1.938  0.6979 -0.1296 -0.3814
36031SOL    HW110346   1.119   8.673   1.995  0.6314  1.0754 -1.1021
36031SOL    HW210347   1.151   8.562   1.897 -0.1406  0.3394 -0.5417
36032SOL     OW10348   6.604  10.573   3.457 -0.4809  0.5434 -0.4305
36032SOL    HW110349   6.622  10.666   3.470 -0.3208  0.5615 -0.7660
36032SOL    HW210350   6.666  10.547   3.389  0.3682 -0.1122  0.5568
36033SOL     OW10351   5.963   3.040   7.187  0.2125 -0.5764 -0.4369
36033SOL    HW110352   5.890   3.060   7.129  0.2872 -0.9106 -0.6524
36033SOL    HW210353   5.963   3.110   7.252 -0.5669 -0.8025 -0.1811
36034SOL     OW10354   0.523   4.490   1.798  0.1220  0.2704 -0.2907
36034SOL    HW110355   0.453   4.443   1.843  0.0906  1.5313  1.0289
36034SOL    HW210356   0.498   4.582   1.804  1.3112  0.6507 -0.8361
36035SOL     OW10357   6.627   0.916   7.798 -0.5705 -0.0234  0.0539
36035SOL    HW110358   6.660   0.859   7.867  1.5986  0.2812 -0.6723
36035SOL    HW210359   6.558   0.968   7.841 -0.6985 -1.2598  1.4181
36036SOL     OW10360   4.472   4.642   5.850 -0.0219  0.2086 -0.3842
36036SOL    HW110361   4.464   4.687   5.934  2.5794  1.0321 -0.4915
36036SOL    HW210362   4.528   4.566   5.869 -1.5605 -1.1286 -0.8981
36037SOL     OW10363   0.879   0.690   8.820 -0.2692  0.0859 -0.5184
36037SOL    HW110364   0.970   0.664   8.808  0.4050  1.8644  0.4184
36037SOL    HW210365   0.829   0.626   8.769  1.4035 -1.5708 -0.1793
36038SOL     OW10366   4.370   0.729   3.514 -0.1833  0.6018  0.2537
36038SOL    HW110367   4.394   0.647   3.471 -0.9675  1.0864 -1.1690
36038SOL    HW210368   4.453   0.765   3.544  0.4101  0.2741 -0.9383
36039SOL     OW10369   8.189   4.790   0.243 -0.4335 -0.1922 -0.1846
36039SOL    HW110370   8.131   4.750   0.178 -0.2180  2.6813 -2.3123
36039SOL    HW210371   8.276   4.760   0.217 -0.3006  1.2842 -1.5881
36040SOL     OW10372   1.226   4.941  10.628 -0.3135  0.3948 -0.3041
36040SOL    HW110373   1.144   4.938  10.578  0.5383  0.0855 -1.7351
36040SOL    HW210374   1.265   4.855  10.615  0.8968  0.9981 -0.7940
36041SOL     OW10375   2.542   7.318   9.688 -0.1699 -0.0883 -0.2459
36041SOL    HW110376   2.545   7.413   9.699  0.2124 -0.1675  0.3814
36041SOL    HW210377   2.537   7.305   9.593  0.7499  0.5391 -0.3990
36042SOL     OW10378   4.416  10.363   7.976 -0.3294 -0.3285 -0.2438
36042SOL    HW110379   4.409  10.338   8.068 -0.2380 -2.1396 -0.7023
36042SOL    HW210380   4.342  10.320   7.933  1.2848 -1.9822 -1.4997
36043SOL     OW10381   6.746   3.090   2.843 -0.0175  0.1954  0.1462
36043SOL    HW110382   6.796   3.036   2.781 -0.1109  0.5427 -0.2333
36043SOL    HW210383   6.788   3.074   2.928  0.0730 -0.3298  0.0060
36044SOL     OW10384   0.592   4.116   8.282  0.0413 -0.8385 -0.2059
36044SOL    HW110385   0.604   4.053   8.353 -0.1067  0.2364  0.8047
36044SOL    HW210386   0.517   4.168   8.309  1.1657  0.8534 -0.1642
36045SOL     OW10387   1.116   0.126   6.322  0.0179 -0.1002  0.2648
36045SOL    HW110388   1.164   0.043   6.330  0.9214  0.4499  0.6698
36045SOL    HW210389   1.079   0.124   6.234  0.5130 -0.6804  0.0633
36046SOL     OW10390   7.995   8.769  10.431 -0.2245  0.2375  0.4340
36046SOL    HW110391   7.976   8.833  10.499 -0.2375 -0.0373  0.6902
36046SOL    HW210392   8.067   8.718  10.466 -1.9683 -1.6808  1.4439
36047SOL     OW10393   1.705   6.768   1.201 -0.4071 -0.0695 -0.4005
36047SOL    HW110394   1.619   6.758   1.241  0.0212 -1.3975  0.2528
36047SOL    HW210395   1.766   6.774   1.274  0.0834  0.7049 -0.8548
36048SOL     OW10396   4.556   8.656   2.154 -0.3884  0.6022 -0.1488
36048SOL    HW110397   4.584   8.706   2.231 -0.5532  0.7562 -0.1855
36048SOL    HW210398   4.537   8.569   2.188  2.8193 -0.3652 -0.5954
36049SOL     OW10399   2.890   5.588   6.846  0.3711 -0.1696  0.3402
36049SOL    HW110400   2.887   5.590   6.942 -0.1633 -0.2822  0.3253
36049SOL    HW210401   2.928   5.503   6.825 -2.5601 -1.5832  0.3938
36050SOL     OW10402   3.397   3.105   3.717  0.5222  0.2872 -0.2293
36050SOL    HW110403   3.357   3.192   3.711  2.5715  1.2739 -0.2652
36050SOL    HW210404   3.402   3.088   3.811 -1.1778 -0.4667 -0.2396
36051SOL     OW10405   2.873   1.091   7.412 -0.4673  0.2194 -0.2515
36051SOL    HW110406   2.850   1.114   7.502 -2.4708  1.5852 -1.0450
36051SOL    HW210407   2.860   0.996   7.408  0.1132  0.0599  0.9803
36052SOL     OW10408   2.297   6.268   4.302 -0.3422 -0.3227  0.1958
36052SOL    HW110409   2.299   6.268   4.206  0.4601 -0.3537  0.2076
36052SOL    HW210410   2.381   6.230   4.327  0.5326  1.9531  0.9356
36053SOL     OW10411   2.884   3.070   3.375  0.0716 -0.7079  0.5980
36053SOL    HW110412   2.881   3.166   3.376 -0.4821 -0.7170 -0.0213
36053SOL    HW210413   2.975   3.050   3.355 -0.3334 -0.2786 -1.9720
36054SOL     OW10414   1.807   6.776   0.094  1.0877  0.2197 -0.1246
36054SOL    HW110415   1.776   6.792   0.004 -0.1047  1.1053  0.4160
36054SOL    HW210416   1.879   6.837   0.106  1.0834  0.2828 -0.4006
36055SOL     OW10417   9.701   7.943   4.648 -0.5885  0.4865  0.3469
36055SOL    HW110418   9.645   7.866   4.638  1.6075 -1.4959  2.2596
36055SOL    HW210419   9.642   8.017   4.631 -3.2708 -1.4984  0.3134
36056SOL     OW10420   2.633   5.555   3.174 -0.2482 -0.4453 -0.3432
36056SOL    HW110421   2.540   5.548   3.192 -0.0399 -0.6257  0.7047
36056SOL    HW210422   2.673   5.573   3.259  0.9506 -2.8723 -0.3071
36057SOL     OW10423   8.308   9.442   1.807 -0.0619  0.1215  0.0741
36057SOL    HW110424   8.261   9.375   1.756  0.3858 -0.9123  0.9858
36057SOL    HW210425   8.238   9.489   1.853 -0.3577  0.0095 -0.2500
36058SOL     OW10426   0.069   5.793   2.138 -0.6403 -0.3827 -0.0158
36058SOL    HW110427   0.112   5.772   2.221 -0.4788  0.5618  0.1519
36058SOL    HW210428   0.003   5.724   2.127 -0.0543 -1.0289  0.4402
36059SOL     OW10429   2.002   4.252   1.162  0.1262 -0.6123  0.1663
36059SOL    HW110430   1.970   4.339   1.137  0.8013 -0.1310  0.8941
36059SOL    HW210431   1.962   4.236   1.248  1.1280 -0.3799  0.6898
36060SOL     OW10432   5.871   4.640   2.737  0.2775 -0.0222  0.1587
36060SOL    HW110433   5.819   4.693   2.677  0.7482  1.8675  1.3331
36060SOL    HW210434   5.942   4.699   2.764  1.5526 -1.6887  0.5726
36061SOL     OW10435  10.070   6.381   0.569 -0.5137  0.1380 -0.2063
36061SOL    HW110436  10.114   6.343   0.494 -0.2709  0.5010 -0.2523
36061SOL    HW210437   9.992   6.424   0.532 -0.4025  0.3028 -0.2516
36062SOL     OW10438   0.686   8.410   1.594  0.2493  0.3309  0.2286
36062SOL    HW110439   0.625   8.483   1.606 -0.3724 -0.0538 -0.4773
36062SOL    HW210440   0.721   8.422   1.505 -0.1921 -0.4572 -0.0645
36063SOL     OW10441   5.716   4.664   4.296 -0.0519 -0.4455 -0.1310
36063SOL    HW110442   5.624   4.676   4.275 -0.2959 -0.3307  0.9329
36063SOL    HW210443   5.743   4.746   4.337  0.1483 -0.9467  0.7839
36064SOL     OW10444   8.000   1.905   8.517  0.4617  0.3443  0.1913
36064SOL    HW110445   8.012   1.991   8.557 -0.0515  0.7727 -0.5656
36064SOL    HW210446   8.015   1.919   8.424  2.4426 -0.8045  0.2804
36065SOL     OW10447   5.429   7.391   7.427  0.0313  0.0089 -0.3984
36065SOL    HW110448   5.502   7.345   7.469  1.3523  1.6139 -0.8570
36065SOL    HW210449   5.359   7.389   7.493  0.6309 -1.1203  0.2460
36066SOL     OW10450   6.991   6.943   9.643 -0.2071  0.5082  0.5643
36066SOL    HW110451   6.957   6.853   9.637  1.9398 -0.3803  0.9309
36066SOL    HW210452   6.987   6.964   9.736  1.1936 -0.0118  0.7550
36067SOL     OW10453   6.745   9.637   8.134  0.8448  0.3518  0.3003
36067SOL    HW110454   6.794   9.712   8.101  0.4469 -0.1063 -1.4477
36067SOL    HW210455   6.801   9.599   8.202  1.8536  1.1768 -0.0519
36068SOL     OW10456   5.065   2.229   3.417  0.2928 -0.6846 -0.5034
36068SOL    HW110457   5.115   2.153   3.388  1.6102  0.2438 -0.7660
36068SOL    HW210458   5.089   2.299   3.356  2.8616  1.2343  2.4377
36069SOL     OW10459   7.009   4.491   7.196 -0.2203 -0.4206  0.1549
36069SOL    HW110460   6.958   4.419   7.232 -0.4669  0.2341  1.1728
36069SOL    HW210461   6.945   4.552   7.161  0.0022 -0.8277 -0.9992
36070SOL     OW10462   1.947   8.496  10.565  0.2509  0.2941 -0.4181
36070SOL    HW110463   1.900   8.570  10.603 -1.0846 -0.1493 -1.1575
36070SOL    HW210464   2.012   8.536  10.507  1.1304  0.9252  0.9730
36071SOL     OW10465   2.471  10.399   5.928  0.1391  0.6797 -0.0507
36071SOL    HW110466   2.523  10.478   5.910 -0.5401  0.9119 -1.0810
36071SOL    HW210467   2.422  10.420   6.008  1.5407  0.4813  0.9034
36072SOL     OW10468   3.528   9.996   1.024  0.2841  0.2405  0.2465
36072SOL    HW110469   3.583   9.994   1.102 -1.8523  2.1613  1.9706
36072SOL    HW210470   3.499  10.087   1.018 -1.4873 -0.3638 -1.4210
36073SOL     OW10471   4.860   8.739   5.840 -0.4495 -0.4715  0.3153
36073SOL    HW110472   4.777   8.786   5.850  1.3306  2.5523  2.4416
36073SOL    HW210473   4.908   8.789   5.774  0.9813 -0.0813  1.6109
36074SOL     OW10474   9.900   8.622   4.724 -1.1445 -0.2202 -0.2058
36074SOL    HW110475   9.964   8.693   4.733 -0.4612 -1.0576  2.8495
36074SOL    HW210476   9.939   8.564   4.659 -0.0125  0.5383 -0.2517
36075SOL     OW10477   0.713   8.649   5.937 -0.0991  0.3211  0.1578
36075SOL    HW110478   0.652   8.703   5.988 -0.3329 -0.5771  0.8554
36075SOL    HW210479   0.705   8.561   5.975  0.4247 -0.1664 -0.8231
36076SOL     OW10480   0.336   6.806   2.384 -0.6954 -0.3335  0.5871
36076SOL    HW110481   0.387   6.733   2.418 -1.6646 -0.9509  0.7822
36076SOL    HW210482   0.262   6.814   2.445 -0.0811  1.4803  1.1606
36077SOL     OW10483  10.356   4.623   2.423 -0.0470 -0.1857  0.5763
36077SOL    HW110484  10.271   4.591   2.394 -1.1529  1.5262  1.7330
36077SOL    HW210485  10.400   4.547   2.460 -1.1226 -1.0654  0.0836
36078SOL     OW10486   8.801   7.078  10.350 -0.4359 -0.5625  0.5644
36078SOL    HW110487   8.793   7.158  10.298 -0.1661 -1.0261 -0.2130
36078SOL    HW210488   8.813   7.109  10.439  0.5001  0.2841  0.1683
36079SOL     OW10489   2.439   9.359   4.817  0.0073 -0.2906 -0.0902
36079SOL    HW110490   2.434   9.453   4.800 -2.0329 -0.1656  0.8991
36079SOL    HW210491   2.389   9.346   4.897 -0.0280 -2.2738 -0.3727
36080SOL     OW10492   6.721   1.245   3.924  0.8196  0.0377  0.2825
36080SOL    HW110493   6.802   1.234   3.974  0.5502  0.0402  0.7233
36080SOL    HW210494   6.668   1.305   3.977 -1.1603 -3.0819  2.0978
36081SOL     OW10495   6.984   9.913   5.780 -0.1576  0.4048 -0.1878
36081SOL    HW110496   6.924   9.907   5.854 -0.8021  0.8105 -0.6666
36081SOL    HW210497   7.041   9.837   5.789 -0.1399  0.5127  0.7941
36082SOL     OW10498   9.718   6.162   0.456 -0.0362  0.1836  0.2376
36082SOL    HW110499   9.698   6.192   0.368  0.0409 -0.0818  0.1279
36082SOL    HW210500   9.638   6.179   0.506  0.2329  1.1871  0.3428
36083SOL     OW10501   3.586   2.537   2.927  0.5231  0.1537  0.2165
36083SOL    HW110502   3.528   2.493   2.989 -0.3253  0.4587 -0.3556
36083SOL    HW210503   3.539   2.615   2.900  1.4332  0.6971  0.1591
36084SOL     OW10504   9.626   5.203   1.221 -0.3703 -0.1122 -0.5108
36084SOL    HW110505   9.672   5.240   1.296 -1.0628  0.0154 -0.1360
36084SOL    HW210506   9.692   5.197   1.152 -0.4866  2.9721 -1.0178
36085SOL     OW10507   4.753   4.470   2.965  0.2570  0.4134  0.0794
36085SOL    HW110508   4.786   4.534   3.028 -0.7727 -0.4285  1.5303
36085SOL    HW210509   4.704   4.522   2.901  2.1043  1.3829 -0.6342
36086SOL     OW10510   0.767   1.432   8.898 -0.4104 -0.1243 -0.1375
36086SOL    HW110511   0.683   1.387   8.906 -0.5049  0.3874  3.0234
36086SOL    HW210512   0.751   1.521   8.929  1.2712 -0.0597  0.7232
36087SOL     OW10513   5.904   1.726   8.984 -0.6094 -0.7026  0.3224
36087SOL    HW110514   5.935   1.636   8.978  0.4580 -0.3707  0.7074
36087SOL    HW210515   5.895   1.754   8.892  2.3589 -0.1243  0.1162
36088SOL     OW10516   2.804   4.089   8.288  0.6936  0.3755 -0.4010
36088SOL    HW110517   2.801   4.130   8.201  1.8383 -1.3716 -1.3323
36088SOL    HW210518   2.810   3.995   8.270  3.2335  0.0696  1.4808
36089SOL     OW10519   1.679   6.809   7.257  0.0172  0.2222  0.4356
36089SOL    HW110520   1.761   6.789   7.213 -0.6145  1.5419 -1.4866
36089SOL    HW210521   1.622   6.735   7.237  0.1186  0.2351  0.1004
36090SOL     OW10522   4.221   8.820   4.610 -0.0927 -0.2128 -0.5815
36090SOL    HW110523   4.185   8.759   4.675 -1.3632 -0.5193 -1.5226
36090SOL    HW210524   4.152   8.829   4.545  0.5457  1.3141 -1.0976
36091SOL     OW10525   4.163   0.708   1.137 -0.0331  0.1705 -0.7161
36091SOL    HW110526   4.103   0.771   1.174  0.3302 -0.3475  0.8116
36091SOL    HW210527   4.171   0.733   1.045 -1.1851  1.3075 -0.5225
36092SOL     OW10528   7.786   7.390   5.055  0.6573 -0.4677 -0.5356
36092SOL    HW110529   7.728   7.315   5.045 -0.5614  0.6328 -2.2588
36092SOL    HW210530   7.841   7.388   4.977 -0.1853  1.0345 -1.2134
36093SOL     OW10531   0.721   6.284   2.167  0.1799 -0.7124  0.2067
36093SOL    HW110532   0.696   6.374   2.184  1.5967 -0.6682  2.4235
36093SOL    HW210533   0.751   6.250   2.251  0.5567 -2.9825 -0.7495
36094SOL     OW10534   8.355   5.808   4.664 -0.0507  0.0213 -0.5686
36094SOL    HW110535   8.417   5.878   4.643  1.6973 -1.5981 -1.1056
36094SOL    HW210536   8.394   5.729   4.626 -2.8956 -0.9705 -1.6911
36095SOL     OW10537  10.550   4.215   0.929  0.0916 -0.0706 -0.0918
36095SOL    HW110538  10.621   4.170   0.883 -0.4066 -0.3302 -0.6191
36095SOL    HW210539  10.478   4.216   0.867 -0.8557 -1.0852  0.9309
36096SOL     OW10540   8.035   6.255   4.272  0.0952 -0.1083  0.1902
36096SOL    HW110541   8.065   6.342   4.295  1.5547 -0.7290  0.7715
36096SOL    HW210542   8.002   6.263   4.183 -2.0465  1.5178  1.0363
36097SOL     OW10543   0.330   5.286   7.220  0.0640 -0.1553 -0.8424
36097SOL    HW110544   0.251   5.336   7.199 -1.6287 -2.4206 -0.2944
36097SOL    HW210545   0.316   5.255   7.309  2.2628  0.5313 -0.1976
36098SOL     OW10546   1.958   9.029   9.014 -0.0183 -0.4197 -0.0300
36098SOL    HW110547   1.947   9.122   9.032 -0.7987 -0.6127  0.5396
36098SOL    HW210548   1.973   8.990   9.101  0.7260 -0.7763 -0.3085
36099SOL     OW10549   5.559   3.193   2.048  0.6615 -0.4554 -0.0284
36099SOL    HW110550   5.529   3.267   1.995  0.9778  0.1499  0.6316
36099SOL    HW210551   5.611   3.232   2.118  2.1343 -1.3849 -0.5324
36100SOL     OW10552   6.568   6.956   8.100 -0.5077 -0.8160 -0.0435
36100SOL    HW110553   6.652   6.976   8.139 -0.7438  0.4363 -0.1451
36100SOL    HW210554   6.585   6.952   8.006 -0.7951  0.8684 -0.1999
36101SOL     OW10555   7.091   5.741   0.579  0.5271 -0.4283  0.2675
36101SOL    HW110556   7.008   5.788   0.579  0.2722 -0.7384 -2.1822
36101SOL    HW210557   7.079   5.671   0.515  2.9082 -0.0091 -0.7621
36102SOL     OW10558   4.302   4.292   9.290  0.2850 -0.3105 -0.0016
36102SOL    HW110559   4.386   4.334   9.274  1.1500 -2.1198 -0.5637
36102SOL    HW210560   4.263   4.281   9.204 -0.3511  0.1568  0.2187
36103SOL     OW10561   0.103   2.398   0.640 -0.3805  0.8106 -0.6988
36103SOL    HW110562   0.091   2.391   0.546 -1.0081 -0.6922 -0.5304
36103SOL    HW210563   0.166   2.470   0.651  1.2775 -0.3066 -2.3783
36104SOL     OW10564   5.089   3.833   8.690  0.3731 -0.0031  0.4799
36104SOL    HW110565   5.058   3.803   8.605  0.8827  0.4880  0.1111
36104SOL    HW210566   5.121   3.922   8.674  1.1197 -0.1604  1.0309
36105SOL     OW10567   5.273   4.372   5.540  0.0422  0.5535 -0.3744
36105SOL    HW110568   5.290   4.393   5.448 -0.8012  2.2090 -0.1747
36105SOL    HW210569   5.229   4.449   5.575  0.4451 -0.0023  1.4653
36106SOL     OW10570   1.818   5.939   6.077 -0.0409  0.4935 -0.4826
36106SOL    HW110571   1.779   5.905   5.997  1.6067  1.3557 -1.7140
36106SOL    HW210572   1.752   5.997   6.114 -1.4329 -1.1251 -0.3384
36107SOL     OW10573   6.766   6.045   2.453  0.3598  0.8588  0.0447
36107SOL    HW110574   6.713   5.971   2.483 -2.5066  2.4510 -0.6823
36107SOL    HW210575   6.797   6.018   2.366  0.2796  0.0854  0.2451
36108SOL     OW10576   7.859   8.336   6.470 -0.0420 -0.1129 -0.2604
36108SOL    HW110577   7.849   8.296   6.383 -1.4655 -1.0550  0.3054
36108SOL    HW210578   7.882   8.427   6.451 -2.9610  0.4300 -1.7168
36109SOL     OW10579   5.239   1.028   3.714 -0.4586  0.1877  0.3487
36109SOL    HW110580   5.244   0.945   3.666 -0.8912 -0.3762  1.2382
36109SOL    HW210581   5.197   1.089   3.654  0.2963 -0.0967 -0.4925
36110SOL     OW10582   9.941   1.340   8.349  0.1581 -0.0406 -0.2881
36110SOL    HW110583  10.004   1.316   8.282 -1.2378  0.8732 -2.0358
36110SOL    HW210584   9.865   1.373   8.299 -0.2768  2.3322  1.7410
36111SOL     OW10585  10.199   3.936   4.493 -0.2677  0.3962  0.1633
36111SOL    HW110586  10.143   4.004   4.528 -0.7359  0.2347 -0.2562
36111SOL    HW210587  10.287   3.974   4.494 -0.4422  0.7900  0.4708
36112SOL     OW10588   0.891   5.793   5.808  0.4457  0.1191  0.6941
36112SOL    HW110589   0.853   5.706   5.824  2.5701 -0.6152  2.1247
36112SOL    HW210590   0.830   5.854   5.849 -1.2272 -0.6045 -0.5655
36113SOL     OW10591   7.839   0.338   0.941  0.4954 -0.0813 -0.0157
36113SOL    HW110592   7.920   0.389   0.944 -0.1069  0.9570 -0.6886
36113SOL    HW210593   7.852   0.277   0.868  1.4786 -1.4071  1.2035
36114SOL     OW10594   6.565   4.629   4.493  0.0301 -0.3671 -0.0433
36114SOL    HW110595   6.616   4.704   4.463  0.4157 -1.1266 -1.3561
36114SOL    HW210596   6.487   4.629   4.437 -0.1407 -0.7368  0.1913
36115SOL     OW10597   4.001   7.528   8.796 -0.5285  0.5932  0.3199
36115SOL    HW110598   4.064   7.541   8.725 -0.6089  1.5834  0.4164
36115SOL    HW210599   4.040   7.459   8.850  1.1070  2.0134  1.0615
36116SOL     OW10600   0.879   7.024   3.191 -0.0732  0.4208  0.0331
36116SOL    HW110601   0.938   7.040   3.117 -0.1171  2.4242  0.3764
36116SOL    HW210602   0.918   6.950   3.237  0.7612  0.0745 -1.1607
36117SOL     OW10603   8.866   7.522   3.657 -0.0083  0.6009 -0.4172
36117SOL    HW110604   8.847   7.487   3.744 -2.3421 -1.0364 -1.4951
36117SOL    HW210605   8.916   7.453   3.613  2.7640  2.1270  0.0886
36118SOL     OW10606   3.617   7.265   3.157 -0.4028  0.2395  0.2714
36118SOL    HW110607   3.625   7.352   3.118  1.4898  0.2913  0.6771
36118SOL    HW210608   3.538   7.270   3.210  0.1174  2.0017  0.9565
36119SOL     OW10609   5.889   9.529   1.787 -0.0130  0.4294  0.5501
36119SOL    HW110610   5.912   9.602   1.843 -0.7456  1.7777 -0.8275
36119SOL    HW210611   5.917   9.451   1.835 -0.0402  1.5534  2.4580
36120SOL     OW10612   4.657   0.018   4.737 -0.1341 -0.1002 -0.0499
36120SOL    HW110613   4.726   0.068   4.694 -2.1441  1.8509 -1.2257
36120SOL    HW210614   4.604  -0.017   4.666 -0.7193 -1.0842  0.8313
36121SOL     OW10615   7.348   9.480   5.260 -0.5904  0.0293 -0.2210
36121SOL    HW110616   7.262   9.445   5.280 -0.2464 -0.1337  1.0581
36121SOL    HW210617   7.380   9.517   5.343  0.1004  1.1193 -0.9344
36122SOL     OW10618   1.770   5.160  10.265 -0.3648  0.1262 -0.4937
36122SOL    HW110619   1.746   5.179  10.356 -1.3277 -0.3140 -0.6432
36122SOL    HW210620   1.842   5.098  10.272 -0.2686  0.2886 -0.0296
36123SOL     OW10621   7.158   1.827   3.746  0.0491 -0.5322 -0.0698
36123SOL    HW110622   7.125   1.887   3.813  2.4563  1.0079 -0.1220
36123SOL    HW210623   7.162   1.742   3.790  1.6390  0.4460  1.8730
36124SOL     OW10624   7.492   8.139   2.868 -0.5504  0.1289 -0.2356
36124SOL    HW110625   7.576   8.170   2.902 -0.5018  1.7324 -1.6909
36124SOL    HW210626   7.428   8.163   2.936  0.0004  0.0273  0.3234
36125SOL     OW10627   1.907   5.096   6.242 -0.0112 -0.4374  0.3707
36125SOL    HW110628   1.898   5.001   6.236  0.3624 -0.4902  0.6237
36125SOL    HW210629   1.830   5.130   6.197 -0.9298 -0.8721  1.5482
36126SOL     OW10630   0.794   3.818   1.733 -0.5795 -0.4668  0.3953
36126SOL    HW110631   0.795   3.888   1.799 -1.3498 -0.3344  0.2758
36126SOL    HW210632   0.886   3.809   1.707 -0.5179  0.8037  0.1083
36127SOL     OW10633   9.188   0.466   4.263 -0.3114 -0.1752  0.0758
36127SOL    HW110634   9.213   0.375   4.247  0.9200  0.3573 -1.3603
36127SOL    HW210635   9.201   0.478   4.357 -0.2851 -1.4181  0.2537
36128SOL     OW10636   3.220   5.380   0.692  0.1537  0.1547  0.1709
36128SOL    HW110637   3.306   5.338   0.691  0.0325 -0.0917 -1.1473
36128SOL    HW210638   3.172   5.336   0.762  0.9859  0.0782  0.7001
36129SOL     OW10639   0.777   6.487   2.687  0.5852  0.1006  0.2450
36129SOL    HW110640   0.750   6.571   2.649  0.9505 -0.4591 -1.3466
36129SOL    HW210641   0.732   6.483   2.772 -2.2248  0.3909 -1.0979
36130SOL     OW10642  10.419   7.337   9.964  0.1606 -0.1165  0.4785
36130SOL    HW110643  10.504   7.353  10.006  1.3188 -1.0163 -1.3756
36130SOL    HW210644  10.369   7.288  10.029  1.4164 -0.3639  1.2909
36131SOL     OW10645   4.839   0.606   1.074 -0.0084 -0.0229 -0.3912
36131SOL    HW110646   4.807   0.526   1.116  0.3065 -0.3967 -0.8506
36131SOL    HW210647   4.922   0.580   1.033  0.7982  0.8798  0.6205
36132SOL     OW10648  10.126   6.127  10.273 -0.3402  0.2002  0.1118
36132SOL    HW110649  10.153   6.037  10.257 -3.1651 -0.7733  0.2903
36132SOL    HW210650  10.094   6.159  10.188 -0.1445  0.7442  0.2339
36133SOL     OW10651   6.704   4.231   8.210 -0.6525 -0.0293 -0.6784
36133SOL    HW110652   6.673   4.321   8.210  0.8358  0.5233 -1.2323
36133SOL    HW210653   6.689   4.200   8.299  1.8882  1.9547  0.5925
36134SOL     OW10654   1.131   4.634  10.216 -1.2375 -0.5817  0.5388
36134SOL    HW110655   1.205   4.597  10.263 -0.2440  2.4926  1.6034
36134SOL    HW210656   1.056   4.617  10.272 -0.8267 -1.0079  0.9647
36135SOL     OW10657   4.476   1.231   9.543  0.1933 -0.2985 -0.0424
36135SOL    HW110658   4.551   1.197   9.494 -0.2722 -0.1860 -0.8563
36135SOL    HW210659   4.514   1.287   9.610  0.8891 -1.1353  0.2719
36136SOL     OW10660   0.668   6.826   8.530  0.2152 -0.2735 -0.7395
36136SOL    HW110661   0.681   6.758   8.465 -1.2156  0.0576 -1.4093
36136SOL    HW210662   0.641   6.903   8.480  0.8268  0.5102  0.0948
36137SOL     OW10663   5.785   2.804   7.276  0.1067  0.1800 -0.1135
36137SOL    HW110664   5.708   2.795   7.220 -1.1043 -2.5664  1.7864
36137SOL    HW210665   5.838   2.872   7.233 -2.1073  0.3373 -2.8831
36138SOL     OW10666   8.024   7.944   6.704  0.1915  0.2457  0.8763
36138SOL    HW110667   8.018   7.986   6.790 -0.0688  1.7453  0.1346
36138SOL    HW210668   8.060   8.011   6.646  1.9443 -1.2419  0.1353
36139SOL     OW10669   3.020   1.510   6.370 -0.4225 -0.2337 -0.2483
36139SOL    HW110670   3.032   1.482   6.279  1.9315  0.4250 -0.1974
36139SOL    HW210671   2.986   1.433   6.415 -0.3640 -0.9571 -1.4051
36140SOL     OW10672   6.551   5.640   7.673 -0.0170 -0.1289  0.1469
36140SOL    HW110673   6.578   5.647   7.765 -0.0216  1.0371  0.0849
36140SOL    HW210674   6.509   5.724   7.655  2.1776  0.7108 -1.6000
36141SOL     OW10675   5.677   9.135   3.541 -0.3942 -0.3206  0.5659
36141SOL    HW110676   5.762   9.147   3.499  0.3044  2.3382  2.4016
36141SOL    HW210677   5.613   9.146   3.471  0.6860 -2.7625 -0.9281
36142SOL     OW10678   0.169   5.902   7.504  0.0127  0.4836  0.2961
36142SOL    HW110679   0.180   5.907   7.599  2.1337  3.6476  0.0497
36142SOL    HW210680   0.233   5.964   7.469 -1.2446  0.0627 -3.1803
36143SOL     OW10681   2.826   8.414   1.265  0.2143  0.2579 -0.0351
36143SOL    HW110682   2.753   8.460   1.306  0.3848  0.3834  0.1322
36143SOL    HW210683   2.787   8.366   1.192  0.1759  1.3870 -0.7662
36144SOL     OW10684   5.202   3.300   7.936  0.0976 -0.0926 -0.2893
36144SOL    HW110685   5.224   3.223   7.883 -2.0743 -0.8591 -0.1872
36144SOL    HW210686   5.114   3.282   7.968  1.4439  0.0374  4.1247
36145SOL     OW10687   0.259   7.358   5.426  0.3841  0.1005  0.0670
36145SOL    HW110688   0.250   7.265   5.405  0.1222 -0.1441  1.1911
36145SOL    HW210689   0.177   7.380   5.470  0.4497  0.8688 -0.1855
36146SOL     OW10690   6.703   3.093   6.344 -0.0834 -0.3048  0.4555
36146SOL    HW110691   6.628   3.068   6.290  0.6096 -3.1948  0.6442
36146SOL    HW210692   6.666   3.144   6.416 -1.6688 -0.5114 -0.1791
36147SOL     OW10693   1.404   8.825   1.213 -0.2841  0.0373 -0.0993
36147SOL    HW110694   1.481   8.790   1.168  1.1789  1.1173  1.4158
36147SOL    HW210695   1.370   8.893   1.154  0.4010  0.0844 -0.4506
36148SOL     OW10696   4.203   3.943   8.751 -0.7067  0.4438  0.2814
36148SOL    HW110697   4.163   3.859   8.771 -2.1248  1.0298  0.0120
36148SOL    HW210698   4.163   4.004   8.813  0.2688  0.9537  0.4433
36149SOL     OW10699   5.770  10.067   6.288  0.4511 -0.4269  0.4066
36149SOL    HW110700   5.836  10.003   6.262  0.5544 -0.8098  1.5510
36149SOL    HW210701   5.688  10.034   6.251  0.7692 -0.3622 -0.3631
36150SOL     OW10702   9.572   1.290   7.853  0.2884 -0.5098 -0.3988
36150SOL    HW110703   9.592   1.345   7.776 -0.8854  1.0532  0.3444
36150SOL    HW210704   9.657   1.263   7.886  0.8959  0.5110 -1.0678
36151SOL     OW10705   1.396   5.152  10.577 -0.0290  0.7814 -0.1937
36151SOL    HW110706   1.327   5.206  10.618 -0.6120 -0.4218  0.4638
36151SOL    HW210707   1.374   5.062  10.602  1.8076  0.3640  0.0604
36152SOL     OW10708  10.553  10.025   7.093  0.5016  0.1294  0.1957
36152SOL    HW110709  10.537  10.117   7.111 -0.2150 -0.0540  0.5149
36152SOL    HW210710  10.626  10.001   7.150  0.4994  0.4197  0.3197
36153SOL     OW10711   0.852   9.804   4.473 -0.1224  0.1297  0.2404
36153SOL    HW110712   0.836   9.747   4.397  3.3459  0.4549 -0.9050
36153SOL    HW210713   0.905   9.750   4.532  1.0140  1.2971  0.3213
36154SOL     OW10714   9.648   0.516   5.850  0.4931 -0.1559 -0.1938
36154SOL    HW110715   9.615   0.452   5.787 -1.0768 -0.1256  0.5537
36154SOL    HW210716   9.573   0.572   5.869  1.4269  0.9539  0.3475
36155SOL     OW10717   2.544   5.010  10.446  0.4195 -0.0199 -0.2367
36155SOL    HW110718   2.599   5.006  10.524  1.4377  0.8702 -0.8720
36155SOL    HW210719   2.606   5.010  10.373 -0.4043  1.1761 -0.9740
36156SOL     OW10720   3.860   3.622   9.810 -0.2450  0.2356  0.3687
36156SOL    HW110721   3.795   3.581   9.868  1.3111  0.9646  2.8023
36156SOL    HW210722   3.889   3.700   9.859  0.1869  1.6988 -2.0708
36157SOL     OW10723   9.036   7.698   3.714  0.4926  0.0104 -0.1902
36157SOL    HW110724   8.974   7.633   3.682  0.5899  0.2231 -0.8227
36157SOL    HW210725   9.026   7.696   3.809 -0.2827 -0.1481 -0.2723
36158SOL     OW10726   8.439   3.894   7.435  0.3808 -0.1001 -0.3954
36158SOL    HW110727   8.445   3.813   7.486  1.1390  1.9595  3.0935
36158SOL    HW210728   8.379   3.950   7.485  0.8836  1.9778 -1.9719
36159SOL     OW10729   9.305   8.366   1.849 -0.0863 -0.4034  0.5533
36159SOL    HW110730   9.334   8.275   1.843 -0.1467 -0.4914  1.4648
36159SOL    HW210731   9.368   8.407   1.909  0.2244  0.2777 -0.2194
36160SOL     OW10732   1.093   6.638   0.398 -0.1458  0.0956 -0.1173
36160SOL    HW110733   1.145   6.588   0.334  0.7018  1.3247 -0.4258
36160SOL    HW210734   1.072   6.574   0.466  1.3942 -0.5670 -0.2061
36161SOL     OW10735   2.920   5.266   5.911 -0.1854 -0.3690  0.4182
36161SOL    HW110736   2.896   5.355   5.938  0.7516  0.3722 -1.0024
36161SOL    HW210737   2.953   5.278   5.821 -2.5805 -2.5318 -0.8747
36162SOL     OW10738  10.390   0.196  10.290 -0.2835 -0.2079  0.2616
36162SOL    HW110739  10.466   0.151  10.253  1.4040  1.9398  0.8945
36162SOL    HW210740  10.322   0.187  10.223  0.3447 -2.5516 -0.1454
36163SOL     OW10741   0.707   7.864   6.470 -0.0752 -0.3998 -0.1352
36163SOL    HW110742   0.658   7.861   6.553 -0.4989 -0.5200 -0.3884
36163SOL    HW210743   0.778   7.926   6.487  1.1366 -2.0174  1.0216
36164SOL     OW10744   6.437   7.292   7.563  0.1939  0.3964  0.3444
36164SOL    HW110745   6.443   7.249   7.648 -0.0070 -0.3894 -0.0271
36164SOL    HW210746   6.349   7.330   7.562  0.1619  0.3258  0.4550
36165SOL     OW10747   3.452  10.070   4.402  0.1724 -0.0513  0.0410
36165SOL    HW110748   3.430   9.983   4.435 -0.7359 -0.2796 -1.1010
36165SOL    HW210749   3.440  10.063   4.307  0.3892  1.2407 -0.0970
36166SOL     OW10750  10.285   9.799  10.344  0.2053 -0.3808  0.0139
36166SOL    HW110751  10.362   9.758  10.304 -0.6520 -1.5468 -0.5118
36166SOL    HW210752  10.283   9.763  10.433  0.6490  0.1908  0.2592
36167SOL     OW10753   0.155   6.341   1.087  0.3351  0.2986 -1.0307
36167SOL    HW110754   0.238   6.389   1.089 -0.1893  1.2306  1.5330
36167SOL    HW210755   0.089   6.409   1.077 -0.3783  0.2113  2.0434
36168SOL     OW10756   8.601   4.445   1.420 -0.1665  0.1215  0.3276
36168SOL    HW110757   8.625   4.528   1.380  0.1062  0.0155  0.2712
36168SOL    HW210758   8.667   4.430   1.488 -0.1366 -0.1139  0.2492
36169SOL     OW10759   7.637   3.329   2.693 -0.1559 -0.5618 -0.7998
36169SOL    HW110760   7.607   3.396   2.753 -3.0847 -0.6819 -1.9652
36169SOL    HW210761   7.706   3.372   2.642 -0.0859  0.6577  0.2763
36170SOL     OW10762   3.836   6.139   4.609  0.3605 -0.2002  0.0443
36170SOL    HW110763   3.881   6.157   4.691  0.1181  0.2117  0.0871
36170SOL    HW210764   3.812   6.046   4.615 -1.3512  0.2892  1.2774
36171SOL     OW10765   1.361   4.697  10.630  0.1807  0.2014  0.4344
36171SOL    HW110766   1.350   4.666  10.719 -0.2405  1.1081  0.7078
36171SOL    HW210767   1.295   4.650  10.579  1.5524 -1.6337  0.2365
36172SOL     OW10768   0.184   6.270   3.582  0.2833 -0.0001  0.0710
36172SOL    HW110769   0.213   6.332   3.514  2.6817 -0.9741  0.1055
36172SOL    HW210770   0.225   6.303   3.662 -1.3394  0.3164  0.7949
36173SOL     OW10771   9.214   5.488   0.114  0.0767  0.2534 -0.2077
36173SOL    HW110772   9.128   5.490   0.156 -0.2299  0.1684 -0.8229
36173SOL    HW210773   9.197   5.453   0.027  0.8101 -0.2113 -0.1674
36174SOL     OW10774   1.528   9.036   3.670  0.0568 -0.5604 -0.7067
36174SOL    HW110775   1.603   9.070   3.718  1.4272 -0.5302 -2.7391
36174SOL    HW210776   1.500   8.960   3.721 -0.9957  1.5596  2.1341
36175SOL     OW10777   3.905   4.786   5.651  0.7072  0.1334  0.4846
36175SOL    HW110778   3.914   4.710   5.593  3.5947  0.9647 -0.3206
36175SOL    HW210779   3.968   4.770   5.721  1.9073  2.0272 -0.0719
36176SOL     OW10780   0.909   7.188   7.583 -0.0426  0.3076  0.2290
36176SOL    HW110781   0.862   7.267   7.610 -0.5706 -0.2875  1.1167
36176SOL    HW210782   0.861   7.157   7.506 -1.1487 -0.2901  1.1205
36177SOL     OW10783  10.289   7.364   0.654 -0.1546  0.3195 -0.0016
36177SOL    HW110784  10.354   7.363   0.584 -0.6922  0.7815 -0.5189
36177SOL    HW210785  10.215   7.413   0.618  1.0230  4.1829  2.1741
36178SOL     OW10786   3.596   9.028   5.277 -0.1370 -0.7050 -0.0261
36178SOL    HW110787   3.670   8.974   5.250  0.1134 -0.4356  0.1155
36178SOL    HW210788   3.531   8.966   5.309  0.0488 -0.9383 -0.1030
36179SOL     OW10789   3.918   8.618   5.109 -0.2020  0.2863 -0.2679
36179SOL    HW110790   3.847   8.558   5.132  0.2158 -0.5870 -1.1414
36179SOL    HW210791   3.985   8.604   5.176  0.3435 -1.0592 -1.0518
36180SOL     OW10792   5.071   9.673   4.736  0.4254  0.4246 -0.2480
36180SOL    HW110793   4.978   9.676   4.759  0.3274 -1.6889 -0.1939
36180SOL    HW210794   5.073   9.697   4.643 -0.2840 -0.2653 -0.4579
36181SOL     OW10795   3.979   4.919   2.726 -0.5495 -0.1644  0.0801
36181SOL    HW110796   3.967   4.990   2.789 -0.3502 -0.7643  0.8163
36181SOL    HW210797   4.015   4.847   2.778 -0.8812 -0.8546 -0.6172
36182SOL     OW10798   2.740   3.816   8.425 -0.2278 -0.2118  0.0107
36182SOL    HW110799   2.824   3.829   8.382  1.7493 -0.4441  3.4943
36182SOL    HW210800   2.676   3.850   8.361  2.4479  0.3751 -2.6085
36183SOL     OW10801   0.395   5.241   9.333 -0.5187  0.2796  0.0197
36183SOL    HW110802   0.413   5.320   9.385  0.9107  0.1893 -0.2963
36183SOL    HW210803   0.395   5.170   9.397  0.0129  0.3255  0.0797
36184SOL     OW10804   2.509   0.431   5.749 -0.2605 -0.1979 -0.1006
36184SOL    HW110805   2.499   0.345   5.708 -0.4973  0.4947 -1.5618
36184SOL    HW210806   2.423   0.472   5.741 -0.5363 -0.2814  1.7824
36185SOL     OW10807   1.098   6.704   7.778 -0.1469 -0.5486  0.2225
36185SOL    HW110808   1.037   6.778   7.786  0.0042 -0.4506  0.4769
36185SOL    HW210809   1.152   6.710   7.856  1.5190  0.5640 -0.9490
36186SOL     OW10810   6.918   4.237   6.950 -0.1638 -0.5663  0.2793
36186SOL    HW110811   6.893   4.171   6.885  0.6839  1.4589 -2.3155
36186SOL    HW210812   6.918   4.319   6.901  2.5987  0.8426  2.3491
36187SOL     OW10813  10.619   2.298   5.105 -0.0224 -0.1981 -0.0613
36187SOL    HW110814  10.544   2.241   5.094  0.3717 -0.7525  0.0649
36187SOL    HW210815  10.594   2.359   5.174 -0.2793 -0.5048  0.1158
36188SOL     OW10816   6.313   3.795   0.314  0.5576  0.1732 -0.0005
36188SOL    HW110817   6.402   3.767   0.292 -0.3057 -1.3163 -1.8077
36188SOL    HW210818   6.266   3.795   0.231 -1.3856 -0.0215  1.0377
36189SOL     OW10819   2.630   6.453   7.723  0.3037  0.3633  0.7434
36189SOL    HW110820   2.689   6.462   7.798 -0.9013  1.9683  1.5405
36189SOL    HW210821   2.545   6.484   7.755 -0.7059 -0.7435 -0.7379
36190SOL     OW10822   8.671   3.587   7.039 -0.0668  0.2270  0.7827
36190SOL    HW110823   8.676   3.647   6.965 -0.8286  0.3718  0.8411
36190SOL    HW210824   8.760   3.584   7.073  0.2609  0.2573 -0.0555
36191SOL     OW10825   7.953   2.474   3.523  0.7999  0.7251  0.3104
36191SOL    HW110826   7.982   2.399   3.575  0.9395 -1.0729 -2.1530
36191SOL    HW210827   8.023   2.538   3.531  1.5721 -0.1711  0.9921
36192SOL     OW10828   3.584   9.415   3.416  0.5913 -0.4331 -0.3415
36192SOL    HW110829   3.564   9.381   3.330 -2.6247  1.1233 -0.3537
36192SOL    HW210830   3.515   9.381   3.473 -2.4941  4.8494 -0.2134
36193SOL     OW10831   5.961   5.310   8.011  0.2480 -0.0076  0.1451
36193SOL    HW110832   6.007   5.390   8.033  1.9288 -0.8237 -0.2497
36193SOL    HW210833   5.915   5.285   8.092  1.3337  0.2891  0.8678
36194SOL     OW10834   5.035   6.767   8.549  0.0867 -0.0808 -0.2578
36194SOL    HW110835   5.034   6.724   8.464  0.1675 -2.2549  0.7612
36194SOL    HW210836   5.104   6.723   8.598  1.1085  2.1688  0.4637
36195SOL     OW10837   1.329   4.434   1.161  0.3031 -0.5358  0.2322
36195SOL    HW110838   1.347   4.374   1.233 -0.5916 -1.5448 -0.3366
36195SOL    HW210839   1.237   4.458   1.173  0.1090 -0.8072 -0.6159
36196SOL     OW10840   6.204   8.367   0.488  0.3615  0.4304 -0.2099
36196SOL    HW110841   6.152   8.447   0.486  1.3595  1.0950 -1.6082
36196SOL    HW210842   6.212   8.346   0.581 -2.8133 -0.0439  0.0405
36197SOL     OW10843   6.503   5.094   4.516 -0.2001  0.2150  0.3959
36197SOL    HW110844   6.436   5.073   4.580  0.1062 -0.4814  0.4954
36197SOL    HW210845   6.491   5.030   4.446 -1.1263  1.5279 -0.7138
36198SOL     OW10846   5.616   2.064   9.863 -0.3509  0.1718 -0.4210
36198SOL    HW110847   5.708   2.063   9.836  0.1677 -0.1868  1.2382
36198SOL    HW210848   5.584   1.978   9.839  0.1297 -0.1814  0.1679
36199SOL     OW10849   0.853  10.578   5.442  0.7456  0.1065 -0.1442
36199SOL    HW110850   0.779  10.547   5.495  0.1761  0.8559 -0.4934
36199SOL    HW210851   0.836  10.544   5.354 -0.1512  1.7714 -0.6554
36200SOL     OW10852   5.843   0.221   3.250 -0.3465  0.3500  0.4484
36200SOL    HW110853   5.916   0.176   3.206 -0.5484 -0.5363  0.9928
36200SOL    HW210854   5.852   0.313   3.224  1.2689  0.3559  0.9047
36201SOL     OW10855  10.552   8.383   5.383  0.1911 -0.1818 -0.4463
36201SOL    HW110856  10.472   8.374   5.332 -0.4756  1.3066  0.2912
36201SOL    HW210857  10.622   8.387   5.317 -0.6286  1.5013 -1.2652
36202SOL     OW10858   4.330   9.636   2.853  0.1944 -0.3405  0.3546
36202SOL    HW110859   4.306   9.720   2.894  1.8449  1.3001 -1.8206
36202SOL    HW210860   4.316   9.572   2.922 -0.0512  1.8612  2.5083
36203SOL     OW10861   6.874   2.624  10.276 -0.2811  0.0627  0.0197
36203SOL    HW110862   6.962   2.659  10.264 -0.6068  0.9251  0.0214
36203SOL    HW210863   6.827   2.650  10.197 -0.1747 -1.6088 -0.6238
36204SOL     OW10864   7.979   6.033   3.163 -0.0335  0.0844  0.0017
36204SOL    HW110865   7.911   6.056   3.100  0.1828 -0.4158 -0.4237
36204SOL    HW210866   7.963   6.090   3.238 -1.5282 -0.6826  0.3131
36205SOL     OW10867   2.981   3.420   5.019 -0.1344 -0.4117 -0.3064
36205SOL    HW110868   2.972   3.441   4.926  0.2043 -0.9511 -0.4683
36205SOL    HW210869   3.016   3.500   5.059  0.9587 -0.6002 -0.8723
36206SOL     OW10870  10.412   0.628   0.867  0.3550  0.5614 -0.9268
36206SOL    HW110871  10.324   0.661   0.847  0.2517  1.1942  0.4897
36206SOL    HW210872  10.457   0.701   0.908  1.1322 -0.1463 -0.4803
36207SOL     OW10873   1.780   5.649   9.318  0.1486  0.0851  0.4511
36207SOL    HW110874   1.807   5.692   9.400 -1.8287  0.7009  0.8335
36207SOL    HW210875   1.812   5.559   9.328  0.9783  0.4509  1.3643
36208SOL     OW10876   7.775   0.604   2.659  0.1563 -0.2380  0.0753
36208SOL    HW110877   7.777   0.575   2.750 -4.6164 -3.1333 -0.4306
36208SOL    HW210878   7.734   0.690   2.662  0.2247 -0.2233  0.6495
36209SOL     OW10879   4.615   2.316   7.874 -0.2236 -0.5522 -0.2874
36209SOL    HW110880   4.591   2.391   7.928  0.3203  0.8386 -1.8912
36209SOL    HW210881   4.701   2.289   7.907  1.6222  2.2864 -2.3112
36210SOL     OW10882   4.236   2.006   1.368 -0.4463  0.5839  0.6336
36210SOL    HW110883   4.296   2.033   1.438 -0.3919  2.0317  0.0813
36210SOL    HW210884   4.163   2.068   1.374 -1.1800 -0.2422  0.3727
36211SOL     OW10885   6.936   7.984   1.004  0.2215 -0.5141  0.3033
36211SOL    HW110886   6.937   8.055   1.068 -0.3731  0.1889 -0.4357
36211SOL    HW210887   6.996   7.918   1.040 -0.3111 -0.2702  1.6986
36212SOL     OW10888   1.231   0.623   3.808  0.3928  0.6497 -0.0797
36212SOL    HW110889   1.179   0.686   3.858 -2.4224 -0.5843 -1.2401
36212SOL    HW210890   1.242   0.664   3.722 -0.1062  0.2338 -0.3470
36213SOL     OW10891   1.138   6.912   4.380  0.2336  0.0525  0.4539
36213SOL    HW110892   1.143   6.998   4.340  0.5413 -0.3918 -0.4884
36213SOL    HW210893   1.049   6.883   4.362 -0.3114  0.7138  1.9482
36214SOL     OW10894   2.340   1.361   3.290 -0.2142  0.2863  1.0037
36214SOL    HW110895   2.323   1.381   3.198  0.8127  0.0089  0.7357
36214SOL    HW210896   2.290   1.426   3.338 -2.6672 -1.0020  0.3396
36215SOL     OW10897   1.218   4.325   6.102  0.1143 -0.4175  0.2658
36215SOL    HW110898   1.160   4.250   6.112  0.5456 -0.7790  0.1048
36215SOL    HW210899   1.284   4.295   6.039 -0.2369  0.4062 -0.5207
36216SOL     OW10900   9.575   4.945   3.054  0.6731 -0.4726 -0.5467
36216SOL    HW110901   9.522   4.946   2.974  0.8212  0.0277 -0.6426
36216SOL    HW210902   9.623   4.862   3.050  0.2831 -0.6927 -0.7126
36217SOL     OW10903   1.720   0.477   6.291 -0.0085  0.2620 -0.2158
36217SOL    HW110904   1.742   0.570   6.292  2.0414 -0.1482  1.9483
36217SOL    HW210905   1.671   0.463   6.371 -1.2355 -0.3747 -1.0452
36218SOL     OW10906   9.408   6.087   5.971 -0.2460  0.2415 -0.4033
36218SOL    HW110907   9.410   6.145   5.894  0.0326  0.1305 -0.4810
36218SOL    HW210908   9.481   6.117   6.025 -0.4776  0.3573 -0.1517
36219SOL     OW10909   3.952   1.299   1.663 -0.5402 -0.3911  0.5464
36219SOL    HW110910   3.961   1.334   1.575  1.0883 -1.8972  0.0432
36219SOL    HW210911   3.964   1.204   1.653  0.2166 -0.5524  2.4386
36220SOL     OW10912   9.229   6.603   0.018 -0.0926 -0.5884 -0.1520
36220SOL    HW110913   9.192   6.688   0.042  2.2671  0.1136  1.3400
36220SOL    HW210914   9.227   6.552   0.100  2.1032 -0.5094  0.0051
36221SOL     OW10915   8.311   5.923   2.847 -0.4412  0.3797 -0.0896
36221SOL    HW110916   8.371   5.956   2.913  0.3313  1.3737 -1.2447
36221SOL    HW210917   8.368   5.885   2.780 -0.9661  2.4155 -1.7931
36222SOL     OW10918   3.565   9.621   3.585 -0.1426 -0.2469  0.2081
36222SOL    HW110919   3.472   9.639   3.601 -0.5292 -1.3243 -0.6617
36222SOL    HW210920   3.564   9.539   3.535  1.2218  0.3732 -0.8693
36223SOL     OW10921   8.595   5.650   1.064  0.4924  0.1003  0.0330
36223SOL    HW110922   8.597   5.570   1.011 -1.3753  0.7805 -1.1611
36223SOL    HW210923   8.638   5.716   1.010  0.8640  0.2168  0.4640
36224SOL     OW10924   0.686   2.054   7.886 -0.6177  0.0888 -0.1307
36224SOL    HW110925   0.728   2.047   7.800 -0.3425 -0.1187  0.0208
36224SOL    HW210926   0.610   2.110   7.871 -1.6605 -1.4383 -0.9299
36225SOL     OW10927   4.169   4.089   0.459  0.5743 -0.2455 -0.2231
36225SOL    HW110928   4.240   4.031   0.434 -0.2856 -0.9993 -1.0026
36225SOL    HW210929   4.092   4.031   0.466  0.0247  0.5419  0.5691
36226SOL     OW10930   6.320  10.496   3.704  0.2640 -0.5572 -0.0027
36226SOL    HW110931   6.263  10.539   3.641  0.5815  0.5556  0.4379
36226SOL    HW210932   6.266  10.427   3.743 -1.1440  1.0817  1.1105
36227SOL     OW10933   0.378   2.941   8.703  0.6646  0.4423  0.4598
36227SOL    HW110934   0.287   2.932   8.678  0.7147 -0.9418  0.6541
36227SOL    HW210935   0.389   2.879   8.776  1.3698  1.7613  1.5169
36228SOL     OW10936   2.500   4.787   0.145 -0.2195  0.0256 -0.0492
36228SOL    HW110937   2.521   4.865   0.197  1.5135 -1.1746  1.1296
36228SOL    HW210938   2.583   4.743   0.133 -1.2725 -2.0530 -0.0677
36229SOL     OW10939   5.397   1.622   6.057  0.4391 -0.0823  0.1692
36229SOL    HW110940   5.392   1.670   6.139 -0.6332  2.2654 -1.1660
36229SOL    HW210941   5.455   1.674   6.001  1.9121 -2.1212 -0.3066
36230SOL     OW10942   1.454   3.661   7.466  0.2073 -0.3376 -0.0351
36230SOL    HW110943   1.376   3.699   7.504  0.7792  0.2753  0.5565
36230SOL    HW210944   1.432   3.570   7.450 -0.5655 -0.2077  0.2677
36231SOL     OW10945   2.840   4.910   6.240  0.0461 -0.0180 -0.0413
36231SOL    HW110946   2.781   4.902   6.314 -2.7418  0.6245 -2.0262
36231SOL    HW210947   2.915   4.855   6.262 -0.7032  0.0566  3.1279
36232SOL     OW10948   6.413   2.470   0.662 -0.1107 -0.4613  0.6817
36232SOL    HW110949   6.331   2.443   0.620  0.5573 -1.9895  0.3090
36232SOL    HW210950   6.392   2.471   0.756 -0.7169 -0.2465  0.5506
36233SOL     OW10951   5.747   5.675   3.006  0.8022 -0.2208  0.4958
36233SOL    HW110952   5.723   5.661   2.914 -2.0266  2.6299  0.6393
36233SOL    HW210953   5.703   5.604   3.053 -0.3949  0.0922 -0.1017
36234SOL     OW10954   8.081   9.136   4.689  0.1755 -0.5719 -0.0656
36234SOL    HW110955   8.093   9.139   4.784  0.6479 -3.0385 -0.0017
36234SOL    HW210956   8.063   9.045   4.669 -1.1409  0.0849 -2.2506
36235SOL     OW10957   5.359   1.100  10.043  0.1359  0.0892 -0.1118
36235SOL    HW110958   5.428   1.058   9.992  0.2290 -0.3147  0.3464
36235SOL    HW210959   5.343   1.041  10.116 -1.0273 -0.0534 -0.4551
36236SOL     OW10960   1.757   3.725   7.783  0.2224  0.2807 -0.2998
36236SOL    HW110961   1.845   3.762   7.779  0.0085  0.7850 -0.3622
36236SOL    HW210962   1.738   3.699   7.693  0.3256  0.1209 -0.2769
36237SOL     OW10963   5.429   2.019   7.458  0.4003 -0.1868  0.3354
36237SOL    HW110964   5.466   2.050   7.376 -0.3851  1.2847  0.5009
36237SOL    HW210965   5.383   1.938   7.435  0.8739 -0.2185 -0.5138
36238SOL     OW10966   4.476  10.213   1.806 -0.3432  0.0311 -0.0400
36238SOL    HW110967   4.449  10.288   1.753  0.3995  0.6514  0.4390
36238SOL    HW210968   4.415  10.143   1.782 -0.6748  0.6128 -0.9246
36239SOL     OW10969   0.765   9.954   2.872  0.0541 -0.4590  0.2437
36239SOL    HW110970   0.674   9.974   2.851  0.1888 -0.8606 -0.7570
36239SOL    HW210971   0.816   9.998   2.804  0.5744 -0.7584  0.4331
36240SOL     OW10972   4.908   0.064   2.214  0.1379 -0.1898 -0.6197
36240SOL    HW110973   4.833   0.093   2.267  0.1916  1.3335 -1.3403
36240SOL    HW210974   4.968   0.139   2.214  0.5625 -0.4992 -2.0619
36241SOL     OW10975   2.264   6.781   9.070 -0.0852  0.0332 -0.2211
36241SOL    HW110976   2.210   6.845   9.024 -1.1521 -0.7526 -0.1094
36241SOL    HW210977   2.303   6.728   9.000  1.7453  1.4690 -0.3790
36242SOL     OW10978   2.641   4.122   5.654  0.0057 -0.1734 -0.0149
36242SOL    HW110979   2.585   4.052   5.687  0.1879 -1.2047 -1.7327
36242SOL    HW210980   2.725   4.078   5.636  0.5260  0.7674  0.0575
36243SOL     OW10981   4.148   9.287   0.430  0.1409 -0.6994 -0.4747
36243SOL    HW110982   4.111   9.205   0.396  0.4917 -0.9209 -0.3193
36243SOL    HW210983   4.237   9.265   0.455  0.4237 -0.1308 -0.9615
36244SOL     OW10984   6.977   9.351   8.457  0.0541  0.4071  0.2718
36244SOL    HW110985   7.005   9.384   8.543 -1.2879 -0.3872  1.0352
36244SOL    HW210986   7.033   9.275   8.441 -0.1503  0.1443  0.7739
36245SOL     OW10987   7.180   6.140  10.508  0.6614 -0.2535 -0.1553
36245SOL    HW110988   7.167   6.199  10.582  1.2006  1.3908 -1.3102
36245SOL    HW210989   7.260   6.170  10.467 -0.1891 -0.4118 -2.0458
36246SOL     OW10990   6.334   2.185   8.875 -0.4867  0.0127  0.3724
36246SOL    HW110991   6.411   2.234   8.847 -1.0648  1.3829  1.0949
36246SOL    HW210992   6.368   2.122   8.938  0.0974  0.3862  0.4439
36247SOL     OW10993   6.561   5.333   1.066 -0.4308  0.2487  0.5193
36247SOL    HW110994   6.549   5.241   1.044  0.1879 -0.0930  1.5430
36247SOL    HW210995   6.604   5.332   1.152  0.3433  1.4713  0.1800
36248SOL     OW10996   2.920   8.285   8.883 -0.2522  0.1403 -0.3989
36248SOL    HW110997   2.896   8.299   8.791 -2.1289  1.1874  0.1997
36248SOL    HW210998   2.857   8.336   8.933  1.6927  0.8786  1.4697
36249SOL     OW10999   8.191   8.114   7.177  0.4249  0.0147 -0.1286
36249SOL    HW111000   8.153   8.193   7.216 -0.6997 -1.3968  1.8182
36249SOL    HW211001   8.217   8.060   7.252  0.4146 -1.8230 -1.3753
36250SOL     OW11002   4.996   9.527  10.106  0.4901  0.0608  0.1832
36250SOL    HW111003   4.900   9.532  10.113  0.6456  1.9778  1.9000
36250SOL    HW211004   5.013   9.526  10.011 -1.1967  0.0346 -0.1534
36251SOL     OW11005   2.707  10.600   6.640 -0.3870  0.3586  0.2366
36251SOL    HW111006   2.730  10.637   6.725  0.2408 -1.3169  0.8544
36251SOL    HW211007   2.687  10.508   6.659  0.6652 -0.2965 -1.5354
36252SOL     OW11008   1.654   2.978   0.612 -0.0085 -0.1015  0.5758
36252SOL    HW111009   1.568   3.016   0.592  0.3875 -0.3598 -2.0234
36252SOL    HW211010   1.636   2.885   0.627 -0.3290  0.0701  1.2576
36253SOL     OW11011   0.963   4.652   7.338 -0.3328 -0.1132  0.0646
36253SOL    HW111012   0.916   4.596   7.277 -1.4443 -0.4499  1.1829
36253SOL    HW211013   1.030   4.695   7.285 -0.9879 -0.7063 -1.2857
36254SOL     OW11014   0.814   3.563   8.391 -0.3362 -0.2579 -0.5028
36254SOL    HW111015   0.733   3.513   8.387  0.0107 -0.8627 -0.0546
36254SOL    HW211016   0.868   3.526   8.321  0.5501 -1.6606  0.8547
36255SOL     OW11017   6.589   1.304   9.976 -0.1696  0.4099  0.2788
36255SOL    HW111018   6.657   1.245   9.943 -1.3832  0.7038 -3.2360
36255SOL    HW211019   6.619   1.391   9.953 -0.7571  0.7218  0.6593
36256SOL     OW11020   4.108   6.321   7.026 -0.4981 -0.2115 -0.0350
36256SOL    HW111021   4.064   6.377   6.963 -0.5141  0.5960  0.6771
36256SOL    HW211022   4.045   6.311   7.098  0.4250  0.9117  0.9671
36257SOL     OW11023   7.002  10.434   2.505 -0.2756 -0.4077  0.0965
36257SOL    HW111024   7.061  10.421   2.430  0.7453 -0.2061  0.8341
36257SOL    HW211025   7.060  10.432   2.581 -1.0359  1.1577  0.7723
36258SOL     OW11026   7.833   1.892  10.553  0.2138 -0.1214  0.4568
36258SOL    HW111027   7.918   1.915  10.591 -0.0367  1.4235  0.1341
36258SOL    HW211028   7.805   1.815  10.603  1.6283 -0.4464  0.8040
36259SOL     OW11029   4.079   2.394   4.186 -0.2556  0.1943 -0.0922
36259SOL    HW111030   4.091   2.309   4.230  2.7509  0.2045 -0.6893
36259SOL    HW211031   4.099   2.459   4.254  0.2576  0.3273 -0.3666
36260SOL     OW11032   1.667   9.627   3.942 -0.3912 -0.7521  0.0057
36260SOL    HW111033   1.736   9.691   3.961  0.1028 -1.0540 -0.7008
36260SOL    HW211034   1.589   9.679   3.924 -0.7156 -0.4284  2.1057
36261SOL     OW11035   4.109   3.166   0.155  0.3955  0.4383  0.2677
36261SOL    HW111036   4.083   3.074   0.147  2.5960 -0.4880  2.5294
36261SOL    HW211037   4.033   3.215   0.124 -0.5565 -2.1056 -1.8412
36262SOL     OW11038   1.950   7.261   7.926 -0.2598  0.3100  0.2663
36262SOL    HW111039   2.029   7.234   7.973 -0.8232 -1.4647  0.2853
36262SOL    HW211040   1.883   7.270   7.994 -1.0465 -2.1563 -0.0655
36263SOL     OW11041   6.405   9.931   1.117 -0.1599  0.2536  0.3141
36263SOL    HW111042   6.481   9.881   1.148  1.5562  2.5660  0.1237
36263SOL    HW211043   6.379   9.985   1.192 -0.7783  0.4518 -0.0336
36264SOL     OW11044   3.947   0.713   2.493  0.5516  0.5687 -0.1276
36264SOL    HW111045   4.033   0.753   2.488  0.3701  0.8350 -1.1962
36264SOL    HW211046   3.921   0.699   2.402  1.1574 -3.1599  0.1107
36265SOL     OW11047   9.908   6.276   8.398  0.0321  0.4695 -0.1535
36265SOL    HW111048   9.817   6.297   8.375 -0.3216 -0.6170  0.2089
36265SOL    HW211049   9.925   6.192   8.356  0.8783  0.6693 -0.2225
36266SOL     OW11050   8.798   1.914   8.406 -0.1803 -0.7037  0.0914
36266SOL    HW111051   8.815   2.002   8.440 -0.5991  0.5359 -2.6164
36266SOL    HW211052   8.868   1.899   8.343 -0.4959 -2.0688  0.0412
36267SOL     OW11053   7.402   3.094   6.450 -0.1713  0.5054 -0.3972
36267SOL    HW111054   7.345   3.139   6.388 -0.6505  0.6596  0.1433
36267SOL    HW211055   7.431   3.163   6.510 -3.3603 -0.2752  2.3368
36268SOL     OW11056   0.599   4.328   2.513 -0.0094 -0.2305  0.3900
36268SOL    HW111057   0.654   4.400   2.481  1.3658 -1.7022 -0.7129
36268SOL    HW211058   0.636   4.250   2.473 -1.9054 -1.5011  0.9662
36269SOL     OW11059   2.348   7.651   5.085 -0.0402  0.0151 -0.1704
36269SOL    HW111060   2.392   7.724   5.041 -1.5247  1.5649  0.7831
36269SOL    HW211061   2.349   7.580   5.021  2.8247  0.2912 -0.5911
36270SOL     OW11062   0.926   6.511   7.740  0.2830 -0.0209 -0.1702
36270SOL    HW111063   0.940   6.487   7.649  0.0642  1.7097 -0.7118
36270SOL    HW211064   0.984   6.586   7.754 -0.3898  0.3483  0.8167
36271SOL     OW11065   0.435   1.155   0.881  0.1121 -0.3791  0.8673
36271SOL    HW111066   0.407   1.236   0.922 -0.4404 -0.1829  0.1162
36271SOL    HW211067   0.392   1.154   0.796 -0.9123 -2.0598  1.3465
36272SOL     OW11068   2.656  10.583  10.370  0.2102 -0.2181 -0.3578
36272SOL    HW111069   2.738  10.610  10.412 -0.8438  0.8974  1.1058
36272SOL    HW211070   2.669  10.491  10.348  1.1104 -0.6797  1.8647
36273SOL     OW11071   5.962   2.166   8.150 -0.1513 -0.0808 -0.0546
36273SOL    HW111072   5.926   2.188   8.064  0.6773 -1.6256 -0.8435
36273SOL    HW211073   5.990   2.075   8.142  2.5638  0.5569  0.9211
36274SOL     OW11074   6.622   7.834   9.962  0.3161  0.6518 -0.5244
36274SOL    HW111075   6.625   7.746   9.926  1.5356  0.2399  0.5037
36274SOL    HW211076   6.653   7.891   9.891  1.0101  0.0646 -0.6995
36275SOL     OW11077   2.694   7.746   9.609 -0.1228 -0.6939  0.3502
36275SOL    HW111078   2.637   7.716   9.680 -0.7713  1.5407  0.8762
36275SOL    HW211079   2.764   7.794   9.654  0.4936 -0.8418 -0.4350
36276SOL     OW11080   7.646   4.079   1.922 -0.5242  0.2060  0.4913
36276SOL    HW111081   7.709   4.082   1.851 -0.7602  0.0719  0.2729
36276SOL    HW211082   7.698   4.085   2.002 -0.0050 -2.3021  0.4107
36277SOL     OW11083   7.243   7.670   5.621 -0.5416  0.2770  0.0928
36277SOL    HW111084   7.289   7.751   5.599  0.2964 -0.2706 -0.2325
36277SOL    HW211085   7.159   7.698   5.656 -0.4181  1.2696 -0.3994
36278SOL     OW11086   1.275   4.435   9.725  0.0653  0.1236  0.0751
36278SOL    HW111087   1.214   4.464   9.794 -1.6837 -0.1555 -1.2765
36278SOL    HW211088   1.289   4.513   9.671  1.9094  0.5013  1.0190
36279SOL     OW11089   4.373   4.857   4.285 -0.1585 -0.1264 -0.3656
36279SOL    HW111090   4.465   4.844   4.309 -0.5798 -0.5799  1.1480
36279SOL    HW211091   4.352   4.785   4.227  0.3678 -0.1811 -0.4934
36280SOL     OW11092   0.555   3.384   6.214 -0.3470 -0.0351 -0.1349
36280SOL    HW111093   0.559   3.468   6.260  0.1808 -0.3332  0.3681
36280SOL    HW211094   0.646   3.362   6.196 -0.3407 -1.4704  1.5054
36281SOL     OW11095   0.995   7.638   6.226  0.1297  0.7125  0.1028
36281SOL    HW111096   1.033   7.694   6.293 -2.1258  0.9745  1.2732
36281SOL    HW211097   1.043   7.556   6.233 -0.9280  0.2234  3.1296
36282SOL     OW11098   2.199   5.132   4.477 -0.0066  0.8012 -0.0500
36282SOL    HW111099   2.248   5.187   4.539 -1.1920 -0.4636  2.1424
36282SOL    HW211100   2.109   5.133   4.510 -1.1640  1.6126 -2.9237
36283SOL     OW11101   5.877   6.646   8.588  0.7971 -0.2624  0.2658
36283SOL    HW111102   5.876   6.596   8.670  0.0900 -1.0155 -0.1929
36283SOL    HW211103   5.917   6.729   8.612  1.6873 -0.9116  1.1234
36284SOL     OW11104   6.601   9.022   5.877 -0.2289  0.3184 -0.2505
36284SOL    HW111105   6.631   8.992   5.791 -0.9698 -0.7457 -0.1630
36284SOL    HW211106   6.598   8.942   5.930  0.9554  1.0725  1.0094
36285SOL     OW11107   8.173   8.967   3.834  0.6341 -1.0530 -0.4828
36285SOL    HW111108   8.241   8.904   3.858  0.7505 -0.7465  0.0105
36285SOL    HW211109   8.163   9.022   3.912 -0.9741 -1.7993 -0.1161
36286SOL     OW11110   5.446   9.053   2.267 -0.7555 -0.2928  0.0116
36286SOL    HW111111   5.443   9.142   2.233  1.5096 -0.4749 -0.8552
36286SOL    HW211112   5.492   9.061   2.350 -2.0623 -0.4642  0.7713
36287SOL     OW11113   5.960   2.517   9.506  0.2934 -0.2609  0.2956
36287SOL    HW111114   5.960   2.567   9.425  2.3337 -0.5911  0.0302
36287SOL    HW211115   5.976   2.426   9.479 -0.4618 -0.6097  0.9735
36288SOL     OW11116   7.515   4.481  10.042 -0.3675 -0.4804  0.1085
36288SOL    HW111117   7.474   4.551  10.093 -1.7376 -1.4458  0.3943
36288SOL    HW211118   7.462   4.475   9.963  0.2495 -0.6425 -0.2972
36289SOL     OW11119   6.371   9.984   1.752  0.0588  0.4925 -0.1884
36289SOL    HW111120   6.444   9.924   1.737  0.5632  0.1368  3.0255
36289SOL    HW211121   6.304   9.956   1.690  2.0453 -0.1642 -2.1812
36290SOL     OW11122   1.057   5.593   3.436 -0.3257  0.4132 -0.0709
36290SOL    HW111123   0.963   5.597   3.454 -0.2395 -0.5352  0.7161
36290SOL    HW211124   1.088   5.520   3.490  0.3766 -1.1790 -2.4835
36291SOL     OW11125   6.942   7.858   8.881 -0.2089  0.1967  0.1188
36291SOL    HW111126   6.877   7.862   8.810 -0.3733 -2.2351  0.0520
36291SOL    HW211127   7.010   7.801   8.847  0.9999  1.0767  0.9941
36292SOL     OW11128   7.841   5.732   9.128  0.4309 -0.1341  0.0328
36292SOL    HW111129   7.796   5.682   9.196  2.0231 -0.3221  1.0042
36292SOL    HW211130   7.890   5.799   9.176  1.6803 -0.3378 -0.8932
36293SOL     OW11131   6.055   1.711   4.681 -0.5689  0.6311 -0.1986
36293SOL    HW111132   6.014   1.726   4.766  0.7681 -0.0270  0.6086
36293SOL    HW211133   6.053   1.796   4.638  1.1353  1.7010  1.6280
36294SOL     OW11134   0.108   1.921   8.370  0.2989  0.4721  0.6651
36294SOL    HW111135   0.083   1.919   8.462  1.9863  1.5470  1.2090
36294SOL    HW211136   0.055   1.854   8.328 -1.3422  0.7583  2.1983
36295SOL     OW11137   7.012   0.376   2.890  0.0551  0.0403 -0.3550
36295SOL    HW111138   7.100   0.397   2.921  0.2439  0.8391 -1.3703
36295SOL    HW211139   7.023   0.359   2.796 -0.7804 -0.4558 -0.3721
36296SOL     OW11140   2.742   2.264   2.423 -0.1464  0.5681 -0.4759
36296SOL    HW111141   2.711   2.220   2.344 -1.5511 -1.8693  1.2596
36296SOL    HW211142   2.662   2.283   2.472  0.7653 -0.8780  1.7228
36297SOL     OW11143   1.392   4.245   0.626  0.1399 -1.1336 -0.3913
36297SOL    HW111144   1.374   4.283   0.712  1.4819  0.4346 -0.7521
36297SOL    HW211145   1.473   4.287   0.598 -1.2155 -0.1558 -3.2285
36298SOL     OW11146   5.940   5.401   5.851  0.0305 -0.0112  0.4241
36298SOL    HW111147   5.985   5.486   5.846 -0.5865  0.2474 -3.1066
36298SOL    HW211148   6.009   5.339   5.877  1.0444  1.2150  0.7828
36299SOL     OW11149   6.200   9.806   5.033 -0.0406 -0.0593 -0.0856
36299SOL    HW111150   6.140   9.878   5.051  0.8135  0.7151 -0.2313
36299SOL    HW211151   6.208   9.806   4.937 -0.6134 -0.8329 -0.1347
36300SOL     OW11152   0.180   8.959   7.142  0.1401 -0.5671 -0.4144
36300SOL    HW111153   0.237   8.981   7.069  0.5929 -0.2905  0.0239
36300SOL    HW211154   0.097   8.935   7.100  0.4769 -0.6842 -1.0342
36301SOL     OW11155   2.661   5.373   7.418  0.6021  0.7416  0.0529
36301SOL    HW111156   2.723   5.445   7.430 -0.0016  1.4399 -0.8728
36301SOL    HW211157   2.703   5.314   7.356  1.1095  0.2636  0.8344
36302SOL     OW11158   0.077   4.316  10.235  0.1181 -0.5047  0.0742
36302SOL    HW111159   0.021   4.310  10.312  0.0306  2.1480  0.3116
36302SOL    HW211160   0.122   4.400  10.244  0.6327 -0.4157 -2.4124
36303SOL     OW11161   4.655  10.451   0.667  0.8995 -0.3176 -0.1758
36303SOL    HW111162   4.633  10.358   0.679  0.1190 -0.0844  0.2761
36303SOL    HW211163   4.630  10.492   0.750  0.1851  0.4835 -0.7802
36304SOL     OW11164   2.692   3.008   2.098 -0.6064  0.3103 -0.0879
36304SOL    HW111165   2.634   2.934   2.079 -0.6003  0.1308  0.5786
36304SOL    HW211166   2.741   2.981   2.175 -0.0488  0.7011 -0.2954
36305SOL     OW11167   1.432   9.388   3.625  0.0676  0.2345  0.0283
36305SOL    HW111168   1.472   9.417   3.542 -0.0676  1.2458  0.2989
36305SOL    HW211169   1.506   9.382   3.686  0.6383 -3.3349 -0.8400
36306SOL     OW11170   5.275   6.078   3.749 -0.2273  0.1290 -0.1011
36306SOL    HW111171   5.301   6.154   3.697 -0.4495 -0.3717 -0.9776
36306SOL    HW211172   5.184   6.097   3.775 -0.8722 -0.5399 -1.7334
36307SOL     OW11173   3.937   0.650   6.636  0.3888  0.3619 -0.0003
36307SOL    HW111174   3.844   0.638   6.654  0.3580  0.6862  0.0504
36307SOL    HW211175   3.972   0.686   6.717  0.7495 -0.7022  0.3417
36308SOL     OW11176   1.362   4.322   2.565 -0.7276  0.4886 -0.3145
36308SOL    HW111177   1.314   4.403   2.547 -2.4954 -0.2472  0.8039
36308SOL    HW211178   1.319   4.285   2.642 -1.7780 -2.8668 -2.3093
36309SOL     OW11179   7.316   1.158   0.838  0.1994  0.4513 -0.2178
36309SOL    HW111180   7.242   1.160   0.777  0.3264  2.9713 -0.4245
36309SOL    HW211181   7.306   1.239   0.890  1.2937 -0.5369  1.6410
36310SOL     OW11182   5.144   2.420   1.643 -0.3051 -0.2731 -0.2549
36310SOL    HW111183   5.050   2.424   1.628 -0.2423 -0.8986 -0.8429
36310SOL    HW211184   5.176   2.506   1.614 -0.4440 -0.7693 -1.9933
36311SOL     OW11185   5.112   2.010   9.231 -0.9389 -0.1797 -0.1522
36311SOL    HW111186   5.182   2.037   9.290 -1.3397  1.6461 -0.4725
36311SOL    HW211187   5.155   1.996   9.147 -0.6801 -0.8983  0.0902
36312SOL     OW11188   5.035   8.836   8.778  0.1578 -0.5538  0.5338
36312SOL    HW111189   5.108   8.874   8.729  0.4375 -1.3753  0.2953
36312SOL    HW211190   5.023   8.895   8.853 -1.0479  1.3850 -1.0928
36313SOL     OW11191   0.028   5.363   5.669 -0.2229  0.3162 -0.0788
36313SOL    HW111192   0.027   5.372   5.765 -0.1593 -0.7541  0.0438
36313SOL    HW211193   0.089   5.430   5.639  1.2407 -0.5495  0.8048
36314SOL     OW11194   1.210   4.430   4.121  0.0933 -0.0935 -0.0469
36314SOL    HW111195   1.219   4.508   4.066 -1.2571  0.4876  0.5205
36314SOL    HW211196   1.116   4.419   4.132  0.2580 -1.8136 -0.1065
36315SOL     OW11197   8.092   4.419   8.730 -0.4623 -0.4734  0.2515
36315SOL    HW111198   8.088   4.323   8.734  0.5210 -0.5709 -0.7553
36315SOL    HW211199   8.109   4.445   8.820 -3.0581 -1.0711  1.0149
36316SOL     OW11200   2.514   1.810   6.309  0.2635  0.1545  0.6722
36316SOL    HW111201   2.586   1.871   6.323 -0.9992  1.1520  4.1081
36316SOL    HW211202   2.444   1.864   6.270  0.3214 -0.0091  0.3396
36317SOL     OW11203  10.272   6.754   8.181 -0.2817 -0.2563 -0.0122
36317SOL    HW111204  10.283   6.746   8.276 -1.2603 -2.1117 -0.0194
36317SOL    HW211205  10.242   6.668   8.152  0.4255  0.1296 -2.0938
36318SOL     OW11206   0.380   6.359   0.143 -0.4482  0.0618 -0.1398
36318SOL    HW111207   0.406   6.303   0.071 -0.6041 -1.4774  0.9634
36318SOL    HW211208   0.446   6.429   0.144  1.0942 -1.3226 -0.1635
36319SOL     OW11209   2.445   5.212   1.515  0.1160  0.0823 -0.0741
36319SOL    HW111210   2.400   5.155   1.452 -0.1839  0.1839  0.0490
36319SOL    HW211211   2.378   5.273   1.545 -0.4316 -1.5435  2.2478
36320SOL     OW11212   7.673   9.495   9.969 -0.0364 -0.0846 -0.1929
36320SOL    HW111213   7.654   9.507  10.062  0.0848 -0.9198 -0.0569
36320SOL    HW211214   7.757   9.448   9.968 -0.0247 -0.0536 -0.7273
36321SOL     OW11215   8.272   3.300  10.320  0.6010 -0.1744  0.0583
36321SOL    HW111216   8.296   3.332  10.407  0.8443 -0.8904  0.2672
36321SOL    HW211217   8.343   3.330  10.263  1.0610 -0.7086  0.3339
36322SOL     OW11218   4.274   2.100   0.190 -0.2434 -0.0015 -0.2475
36322SOL    HW111219   4.333   2.099   0.115 -0.4762 -1.1418 -0.4222
36322SOL    HW211220   4.240   2.190   0.192 -0.4510 -0.0175 -1.6815
36323SOL     OW11221   7.797  10.333   9.315 -0.3054  0.3125 -0.2218
36323SOL    HW111222   7.823  10.296   9.231  1.2799  0.7915  0.0148
36323SOL    HW211223   7.855  10.408   9.327  1.0228 -0.9772  2.2555
36324SOL     OW11224   5.775   6.132   6.496  0.2017  0.0876  0.2134
36324SOL    HW111225   5.761   6.215   6.541 -0.8404 -0.5346  1.0804
36324SOL    HW211226   5.836   6.153   6.425  0.1331  1.5339  0.5575
36325SOL     OW11227   1.245   8.058   0.564  0.2764  0.2254 -0.5048
36325SOL    HW111228   1.251   7.985   0.626  1.1286  0.2419 -0.5454
36325SOL    HW211229   1.256   8.136   0.619  5.3822  0.1912 -0.9677
36326SOL     OW11230   9.120   1.414   4.825 -0.3304  0.3089 -0.4922
36326SOL    HW111231   9.133   1.470   4.902 -0.9271 -1.3414  0.9009
36326SOL    HW211232   9.036   1.442   4.789 -0.2123  0.8778 -0.3350
36327SOL     OW11233   5.487   8.432   3.183 -0.1649 -0.4589  0.1199
36327SOL    HW111234   5.536   8.353   3.204  0.0810 -0.6428 -1.0553
36327SOL    HW211235   5.396   8.410   3.200  0.0588 -0.4409  1.3862
36328SOL     OW11236   8.749   7.485   1.483 -0.1200 -0.0477 -0.0213
36328SOL    HW111237   8.821   7.506   1.423  0.1554  1.6970  0.8463
36328SOL    HW211238   8.750   7.390   1.488  1.1065 -0.1424 -1.2655
36329SOL     OW11239   9.724   3.039   1.485 -0.1547  0.2586 -0.2778
36329SOL    HW111240   9.714   3.059   1.578 -2.3510 -4.0725  0.6840
36329SOL    HW211241   9.636   3.050   1.449  0.4250  0.7148 -1.6103
36330SOL     OW11242   1.293   9.285   9.266 -0.6117  0.6852  0.6866
36330SOL    HW111243   1.243   9.234   9.330  0.2218 -1.7983 -0.4977
36330SOL    HW211244   1.231   9.302   9.195 -0.4424 -0.4589  0.2249
36331SOL     OW11245  10.238   9.734   8.358 -0.1068  0.5866  0.3617
36331SOL    HW111246  10.222   9.695   8.444  2.1440 -0.3443  0.4260
36331SOL    HW211247  10.164   9.794   8.345 -0.0303  1.5062  3.3676
36332SOL     OW11248   8.724   4.902   9.809  0.3437  0.0069  0.0481
36332SOL    HW111249   8.768   4.870   9.730  1.6197  0.7647  0.4282
36332SOL    HW211250   8.789   4.957   9.852 -0.9333  1.0341  0.7291
36333SOL     OW11251   8.252   7.872   6.383 -0.0547 -0.0793  0.6388
36333SOL    HW111252   8.276   7.782   6.404 -2.2782 -0.7455  0.5050
36333SOL    HW211253   8.300   7.892   6.303  1.5676 -0.6102  1.4375
36334SOL     OW11254   3.409   9.270   7.958  0.0367  0.0649 -0.6088
36334SOL    HW111255   3.496   9.304   7.938 -0.1409 -0.2402 -2.0395
36334SOL    HW211256   3.399   9.284   8.052  0.8971  1.7765 -0.7237
36335SOL     OW11257   1.073   5.877   0.889 -0.8844 -0.0804 -0.1254
36335SOL    HW111258   1.126   5.813   0.936  0.8774  1.3725 -0.0168
36335SOL    HW211259   1.052   5.943   0.954  0.4615  1.2808 -1.0029
36336SOL     OW11260   1.117   1.750   4.545 -0.0611  0.1714 -0.1978
36336SOL    HW111261   1.063   1.773   4.621  0.7803  0.8894  0.1926
36336SOL    HW211262   1.140   1.658   4.560 -1.6463 -0.3231 -0.6701
36337SOL     OW11263  10.127   3.265   9.609 -0.3222  0.5964 -0.0780
36337SOL    HW111264  10.159   3.292   9.694 -1.4807 -0.0901  0.6074
36337SOL    HW211265  10.080   3.341   9.575 -1.2719  0.3614  0.6537
36338SOL     OW11266   7.097   4.748   4.004 -0.0937  0.0817  0.5853
36338SOL    HW111267   7.159   4.820   4.004 -0.8808  0.7720  0.9055
36338SOL    HW211268   7.065   4.743   4.094 -0.7313 -0.0568  0.3597
36339SOL     OW11269   7.471   9.657   3.707 -0.5434  0.1219 -0.7736
36339SOL    HW111270   7.429   9.675   3.623 -1.6451  1.3219 -0.0145
36339SOL    HW211271   7.416   9.703   3.771  0.6586 -0.1897  0.5259
36340SOL     OW11272   1.144   4.268   4.767 -0.0953  1.3167 -0.3758
36340SOL    HW111273   1.130   4.296   4.677  2.1957  3.7236 -0.1063
36340SOL    HW211274   1.238   4.253   4.773 -0.1753  1.3660  1.6505
36341SOL     OW11275  10.640   0.160   6.492 -0.2040 -0.5400  0.0365
36341SOL    HW111276  10.607   0.205   6.414  1.6312  1.2029  0.1792
36341SOL    HW211277  10.564   0.152   6.549 -0.7866  1.7752 -0.3140
36342SOL     OW11278  10.596   7.449  10.409  1.0079  0.0348 -0.1150
36342SOL    HW111279  10.605   7.464  10.315 -1.3151  0.8067 -0.2636
36342SOL    HW211280  10.636   7.363  10.423 -0.9106 -1.3391 -2.2858
36343SOL     OW11281   1.200   8.095   1.536  0.3687 -0.1420 -0.1896
36343SOL    HW111282   1.229   8.088   1.445 -0.7823 -0.0444 -0.5911
36343SOL    HW211283   1.166   8.009   1.558 -1.3812  0.3961 -0.6162
36344SOL     OW11284   8.416   0.398   9.807 -0.3725 -0.4598 -0.1674
36344SOL    HW111285   8.430   0.386   9.713  0.8638 -0.2738 -0.0271
36344SOL    HW211286   8.400   0.492   9.817 -1.9758 -0.6830 -0.3370
36345SOL     OW11287   7.942   1.365   2.901 -0.0400  0.0699 -0.1102
36345SOL    HW111288   7.925   1.378   2.994  0.5150  3.2995 -0.3435
36345SOL    HW211289   7.889   1.432   2.858  0.6053 -0.5970 -2.0494
36346SOL     OW11290  10.030   2.426   4.953 -0.0865  0.1395 -0.2328
36346SOL    HW111291  10.126   2.434   4.953 -0.0738  0.2572  1.2704
36346SOL    HW211292  10.001   2.488   4.887  0.8733  0.0831 -0.7305
36347SOL     OW11293   8.105  10.054   3.486 -0.0215  0.5026 -0.1677
36347SOL    HW111294   8.050   9.979   3.507 -0.6760  0.6123 -1.4207
36347SOL    HW211295   8.082  10.119   3.553  1.2420 -0.7078  1.5001
36348SOL     OW11296   8.598   6.640   4.459  0.3902  0.1819  0.4952
36348SOL    HW111297   8.626   6.550   4.445  0.2431 -0.0171  1.4421
36348SOL    HW211298   8.676   6.686   4.490  0.5478  0.4685 -0.2904
36349SOL     OW11299   2.741   4.956   4.576  0.2970 -0.5583 -0.1077
36349SOL    HW111300   2.670   4.892   4.576  0.1672 -0.4203 -0.7384
36349SOL    HW211301   2.703   5.035   4.615 -0.0177 -0.3612 -0.7992
36350SOL     OW11302   3.465   3.773   0.973 -0.6448  0.2466  0.4838
36350SOL    HW111303   3.373   3.753   0.989 -0.3219 -0.1645  1.9791
36350SOL    HW211304   3.482   3.853   1.023 -0.4943  1.0939 -0.8604
36351SOL     OW11305   1.433   7.054   7.690  0.4119  0.3097 -0.0268
36351SOL    HW111306   1.356   7.110   7.687  1.5987  2.0591  0.2524
36351SOL    HW211307   1.448   7.027   7.599 -0.5157 -0.0614 -0.0749
36352SOL     OW11308  10.277   4.887   6.031 -0.4564  0.0246  0.1309
36352SOL    HW111309  10.296   4.824   6.101  0.2701 -1.2906 -1.2040
36352SOL    HW211310  10.361   4.928   6.011  0.0200 -1.7584 -1.9404
36353SOL     OW11311   0.745   2.436   6.692  0.3160  0.1666 -0.1081
36353SOL    HW111312   0.808   2.499   6.657  2.3123 -1.8511 -0.4097
36353SOL    HW211313   0.725   2.379   6.618 -0.1456 -0.5360  0.5430
36354SOL     OW11314   9.503  10.611   4.703 -0.3147  1.1128  0.3737
36354SOL    HW111315   9.548  10.609   4.618 -0.6025  0.8273  0.2260
36354SOL    HW211316   9.419  10.651   4.684 -0.9422 -0.2098  0.2455
36355SOL     OW11317   5.487   9.147   8.199 -0.3475 -0.4693 -0.6128
36355SOL    HW111318   5.557   9.212   8.210 -0.1837 -0.5796 -1.0089
36355SOL    HW211319   5.424   9.170   8.267  0.0704 -0.3665 -0.2496
36356SOL     OW11320   5.708   8.233   4.726 -0.4127 -0.1013  0.0547
36356SOL    HW111321   5.677   8.319   4.697 -2.4712 -0.7606  0.2122
36356SOL    HW211322   5.768   8.253   4.798 -1.3263  1.1883  0.5005
36357SOL     OW11323   4.738   8.878  10.535  0.5539  0.4026  0.3009
36357SOL    HW111324   4.704   8.796  10.500  0.0291  0.0490  1.5726
36357SOL    HW211325   4.663   8.937  10.537  0.7353  0.6386  0.1847
36358SOL     OW11326   7.778   5.906   3.362  0.1237 -0.0641 -0.3896
36358SOL    HW111327   7.803   5.860   3.283  2.8116 -0.3622  0.5494
36358SOL    HW211328   7.852   5.964   3.381 -0.6714  0.3937  1.6043
36359SOL     OW11329   0.165   0.448   4.744  0.0473 -0.2018 -0.1580
36359SOL    HW111330   0.244   0.443   4.798  1.2167  0.1010 -1.7611
36359SOL    HW211331   0.123   0.530   4.771  1.9752  1.2703 -1.4389
36360SOL     OW11332   8.793   3.764   9.327 -0.3934 -0.2186 -0.1543
36360SOL    HW111333   8.794   3.770   9.232 -0.5969 -1.1267 -0.2231
36360SOL    HW211334   8.702   3.745   9.349 -0.4263  0.3755  0.2578
36361SOL     OW11335   8.949   9.294   9.980  0.2352  0.1004 -0.0062
36361SOL    HW111336   8.878   9.244  10.021  0.8305  0.0051  0.9428
36361SOL    HW211337   8.928   9.385   9.999  0.3115  0.0780  0.1857
36362SOL     OW11338   8.593   7.063   1.913  0.1266 -0.5180 -0.0121
36362SOL    HW111339   8.679   7.073   1.872  1.3865  0.2539  2.6563
36362SOL    HW211340   8.564   7.152   1.931 -0.9065 -0.8024 -0.1923
36363SOL     OW11341  10.384   2.239   6.681 -0.3329 -0.0990  0.0899
36363SOL    HW111342  10.407   2.157   6.637 -0.7879  1.0779 -2.5651
36363SOL    HW211343  10.302   2.220   6.726  1.1428 -1.8978  2.2087
36364SOL     OW11344   7.294   9.631   2.823  0.2475  0.1546 -0.1429
36364SOL    HW111345   7.220   9.570   2.830  1.6991 -1.7280 -0.1889
36364SOL    HW211346   7.296   9.675   2.908 -0.3062 -0.5380  0.2471
36365SOL     OW11347   0.148   6.041   8.275 -0.6279 -0.0835 -0.3352
36365SOL    HW111348   0.085   6.102   8.235 -0.4996  0.2169 -0.0771
36365SOL    HW211349   0.166   5.977   8.206  0.0931  0.8031 -0.9994
36366SOL     OW11350   8.853   4.123   6.804  0.0704  0.5658 -0.0717
36366SOL    HW111351   8.906   4.080   6.738  0.1262 -0.9347  0.9021
36366SOL    HW211352   8.783   4.060   6.824  0.0589  0.9688  1.2829
36367SOL     OW11353   0.889   3.772   2.560 -0.4652 -0.2682  0.9876
36367SOL    HW111354   0.875   3.679   2.547 -0.1831 -0.2832  0.7666
36367SOL    HW211355   0.908   3.806   2.472 -0.1367 -0.0819  1.1273
36368SOL     OW11356   1.105  10.109   1.490 -0.0246  0.3275 -0.4533
36368SOL    HW111357   1.042  10.101   1.418 -0.5781  1.3342 -0.0978
36368SOL    HW211358   1.132  10.201   1.488  0.6420  0.1491  0.0551
36369SOL     OW11359   6.252   3.481   9.050 -0.0371  0.2665 -0.0434
36369SOL    HW111360   6.211   3.510   8.968 -0.0114  2.1493  0.5633
36369SOL    HW211361   6.336   3.528   9.052  1.1960 -1.8163 -0.1927
36370SOL     OW11362  10.242   4.385   2.871  0.3231  0.1788  0.0012
36370SOL    HW111363  10.256   4.480   2.864 -1.9268  0.4811 -1.8497
36370SOL    HW211364  10.232   4.356   2.780  2.6538 -2.1953  0.4031
36371SOL     OW11365   8.191   8.115   9.906 -0.4267  0.4514  0.3219
36371SOL    HW111366   8.247   8.132   9.830  0.4866  2.0488  1.2943
36371SOL    HW211367   8.162   8.025   9.894  0.1387  0.4643 -1.6272
36372SOL     OW11368   1.201   8.638   1.199 -0.1099  0.3877  0.3312
36372SOL    HW111369   1.282   8.687   1.206  0.3506 -0.1473 -0.9848
36372SOL    HW211370   1.206   8.573   1.269  0.9866 -0.1868 -0.2721
36373SOL     OW11371   4.182  10.035   6.455 -0.5632 -0.0901  0.4149
36373SOL    HW111372   4.143   9.985   6.384 -1.7976  1.6142 -0.1868
36373SOL    HW211373   4.277  10.027   6.441 -0.7598 -1.1758 -0.4002
36374SOL     OW11374   2.877   4.779   3.926  0.5809 -0.5094 -0.7555
36374SOL    HW111375   2.829   4.772   4.009  1.1020 -0.6621 -0.4636
36374SOL    HW211376   2.834   4.715   3.869 -0.0714 -0.0817 -0.7519
36375SOL     OW11377   8.054   5.116   2.216 -0.0930  0.1975 -0.5184
36375SOL    HW111378   8.085   5.032   2.249 -0.2434 -0.2104 -1.3740
36375SOL    HW211379   7.959   5.115   2.230 -0.3128 -0.4403 -1.9121
36376SOL     OW11380   9.741   4.932   2.233 -0.0158 -0.0089  0.6428
36376SOL    HW111381   9.747   4.901   2.324 -0.8156  0.1867  0.7693
36376SOL    HW211382   9.776   5.022   2.236  0.6833 -0.2734  0.6027
36377SOL     OW11383   6.066  10.427   6.024 -0.2291 -0.0625 -0.1674
36377SOL    HW111384   6.020  10.405   5.943 -0.0635  2.4798 -1.0367
36377SOL    HW211385   6.144  10.371   6.023 -0.4618 -0.4087 -1.5205
36378SOL     OW11386   6.493   0.320   9.499 -0.4971  0.0884  0.2573
36378SOL    HW111387   6.464   0.409   9.517 -0.6526 -0.2514  1.9106
36378SOL    HW211388   6.466   0.303   9.409 -0.1823  1.8032 -0.1791
36379SOL     OW11389   8.795   7.669   2.197  0.0946 -0.0838  0.0839
36379SOL    HW111390   8.857   7.721   2.146  0.6086 -0.1447  0.6267
36379SOL    HW211391   8.821   7.685   2.288 -1.1616  0.4792  0.3608
36380SOL     OW11392   2.752   6.004   6.030 -0.2394  0.0886 -0.4167
36380SOL    HW111393   2.775   6.050   5.950  0.0468  0.6370 -0.0217
36380SOL    HW211394   2.812   6.037   6.096 -1.0536  0.3058  0.2390
36381SOL     OW11395  10.074   2.401  10.209  0.0564  0.1140 -0.0057
36381SOL    HW111396  10.097   2.331  10.270 -0.9714 -0.2471 -0.0046
36381SOL    HW211397  10.037   2.470  10.264 -3.2675 -1.2229 -0.3533
36382SOL     OW11398   7.388   4.081   6.064  0.0393 -0.4911  0.2152
36382SOL    HW111399   7.355   4.096   6.153  0.1566 -0.0551  0.1879
36382SOL    HW211400   7.350   4.152   6.012 -0.4356 -1.0338 -0.1896
36383SOL     OW11401   2.675   2.698   1.948  0.2650 -0.0497  0.2102
36383SOL    HW111402   2.720   2.614   1.962  1.9363  0.7899  0.1127
36383SOL    HW211403   2.637   2.720   2.033 -0.9382 -1.2799  0.0391
36384SOL     OW11404   9.370   0.352   4.999 -0.5875 -0.3680  0.2859
36384SOL    HW111405   9.458   0.389   4.989 -0.6467 -0.5860 -1.2675
36384SOL    HW211406   9.385   0.265   5.038 -0.1019 -0.4614 -0.0986
36385SOL     OW11407   0.308   5.716   9.495  0.2979 -0.0958  0.0636
36385SOL    HW111408   0.390   5.683   9.532  1.2803  1.3083 -0.7464
36385SOL    HW211409   0.253   5.734   9.571  1.3305  0.4015  0.7192
36386SOL     OW11410   6.078   7.238   5.631  0.2565  0.1448 -0.1787
36386SOL    HW111411   6.011   7.278   5.575  0.1273  1.2891  0.7502
36386SOL    HW211412   6.120   7.173   5.575 -0.5280  0.5584 -1.2932
36387SOL     OW11413   8.777   8.658   0.482  0.2914  0.4521 -0.3901
36387SOL    HW111414   8.766   8.611   0.565 -0.8299 -0.6701 -1.1475
36387SOL    HW211415   8.799   8.748   0.508 -0.3451  0.1895  1.1168
36388SOL     OW11416   3.477   1.921   9.721  0.2093 -0.0212  1.0320
36388SOL    HW111417   3.427   1.944   9.799 -0.6762  0.0584  0.4515
36388SOL    HW211418   3.487   2.004   9.674  0.2192 -0.1730  0.7622
36389SOL     OW11419   2.755   7.663   9.968  0.2119  0.1705  0.0470
36389SOL    HW111420   2.825   7.697   9.913  1.4902 -0.8032  1.0079
36389SOL    HW211421   2.708   7.741   9.997  0.5326  0.8003 -1.0731
36390SOL     OW11422   2.805   0.599   1.119 -0.2940  0.1946  0.0807
36390SOL    HW111423   2.790   0.645   1.036 -2.0870 -0.9827 -0.3106
36390SOL    HW211424   2.832   0.511   1.093  2.2911  0.6753  0.8156
36391SOL     OW11425   9.481   8.878   1.958 -0.1297 -0.3113 -0.0881
36391SOL    HW111426   9.528   8.823   1.895 -0.7068 -2.4700  1.2427
36391SOL    HW211427   9.499   8.967   1.931  1.8473 -1.1264 -1.6831
36392SOL     OW11428   1.788   6.431   4.904  0.5292 -0.2309  0.4078
36392SOL    HW111429   1.765   6.340   4.889 -0.9696 -0.0355  1.3160
36392SOL    HW211430   1.857   6.427   4.970  1.5704 -0.7350 -0.6634
36393SOL     OW11431   0.813   4.129   0.011  0.0275  0.7820 -0.1294
36393SOL    HW111432   0.803   4.040   0.044 -1.5318  0.9892  0.0086
36393SOL    HW211433   0.761   4.183   0.070 -0.0912  1.6164 -0.9732
36394SOL     OW11434   0.813   3.731   7.843 -0.5807 -0.1488  0.3572
36394SOL    HW111435   0.782   3.719   7.933 -0.3021 -0.7582  0.3752
36394SOL    HW211436   0.878   3.662   7.831 -1.1418 -0.5346 -0.5608
36395SOL     OW11437   3.539   6.815   8.848  0.3298  0.2219  0.5314
36395SOL    HW111438   3.529   6.792   8.756 -0.0459 -2.7594  1.2320
36395SOL    HW211439   3.462   6.868   8.868 -1.1805 -1.6034 -0.1909
36396SOL     OW11440   3.586   4.010   4.736  0.1211 -0.3570 -0.0573
36396SOL    HW111441   3.629   4.010   4.651  1.0753 -1.3258  0.3997
36396SOL    HW211442   3.553   3.921   4.747 -0.5463 -0.0753  0.3261
36397SOL     OW11443   7.609   9.507   7.883  0.3694  0.1752 -0.2583
36397SOL    HW111444   7.684   9.546   7.928  0.7160 -1.6058  0.8111
36397SOL    HW211445   7.609   9.548   7.797  1.5937  1.3842  0.2669
36398SOL     OW11446   4.368   5.297   3.345  0.0021  0.3079 -0.3424
36398SOL    HW111447   4.385   5.273   3.436  1.0070 -1.4593 -0.9306
36398SOL    HW211448   4.453   5.287   3.302 -0.9081 -1.3326 -1.9287
36399SOL     OW11449   8.182   2.631   7.964  0.1059  0.5266 -0.2484
36399SOL    HW111450   8.209   2.605   7.876  0.8291 -1.3722  0.4842
36399SOL    HW211451   8.088   2.616   7.966 -0.0042  1.0903 -0.8414
36400SOL     OW11452   5.888   7.417   6.163 -0.1602 -0.3776  0.2805
36400SOL    HW111453   5.908   7.508   6.187  0.8177 -1.0270  2.1473
36400SOL    HW211454   5.974   7.377   6.146 -0.5763 -0.9878 -0.4525
36401SOL     OW11455   3.721   1.667  10.243 -0.6614 -0.1709  0.4399
36401SOL    HW111456   3.732   1.576  10.268 -0.6033 -1.8975 -4.7058
36401SOL    HW211457   3.631   1.672  10.208 -0.7820  1.8540  0.8980
36402SOL     OW11458   5.702   6.932   1.921 -0.2017  0.0144  0.1664
36402SOL    HW111459   5.762   6.939   1.995 -0.2449 -1.0446  0.3131
36402SOL    HW211460   5.621   6.897   1.959 -0.6430  0.6436 -0.1725
36403SOL     OW11461   8.188   1.777   8.695  0.1512 -0.5598 -0.1612
36403SOL    HW111462   8.139   1.788   8.776 -0.5740 -0.6386 -0.5749
36403SOL    HW211463   8.125   1.801   8.626  0.9994  0.3213 -0.6558
36404SOL     OW11464   0.728   4.199   7.292  0.5416  0.1338  0.0767
36404SOL    HW111465   0.682   4.115   7.293 -0.0154  0.4231  1.7943
36404SOL    HW211466   0.783   4.197   7.370  0.9811  1.1415 -0.1940
36405SOL     OW11467   6.592   7.150   7.367  0.3496  0.3176 -0.3408
36405SOL    HW111468   6.669   7.201   7.389  0.7897  0.4508 -2.0164
36405SOL    HW211469   6.523   7.184   7.424  0.5956  2.8907 -1.4121
36406SOL     OW11470   1.592   9.218   5.029 -0.3574  0.3873  0.0563
36406SOL    HW111471   1.555   9.302   5.001  1.6609  1.5303  0.5584
36406SOL    HW211472   1.630   9.181   4.950  0.5531  0.9646  0.2123
36407SOL     OW11473   0.500   5.638   7.287 -0.1790 -0.6546 -0.1294
36407SOL    HW111474   0.581   5.677   7.252 -1.1635  1.5233 -0.1644
36407SOL    HW211475   0.487   5.560   7.234  1.6218 -0.7861 -0.4645
36408SOL     OW11476   5.507   8.433   4.073  0.0847 -0.5573  0.3122
36408SOL    HW111477   5.602   8.444   4.069 -0.0597  0.4648 -0.7750
36408SOL    HW211478   5.477   8.503   4.132 -0.1569  0.4576 -0.9583
36409SOL     OW11479  10.027   0.796   6.692  0.5637  0.2775 -0.1090
36409SOL    HW111480  10.009   0.856   6.619  1.8342  1.5984  0.6220
36409SOL    HW211481  10.099   0.742   6.660 -0.3260 -0.6430 -0.6211
36410SOL     OW11482  10.624   0.448   5.928  0.0948 -0.4000 -0.2895
36410SOL    HW111483  10.626   0.543   5.915  4.1860 -0.1834  0.4314
36410SOL    HW211484  10.601   0.412   5.842 -0.7534  1.2126 -0.7669
36411SOL     OW11485   1.719   0.124   6.056  0.6557  0.0905 -0.3586
36411SOL    HW111486   1.774   0.186   6.009 -0.9527  0.5196 -1.7804
36411SOL    HW211487   1.779   0.056   6.086  2.1417  1.2375 -0.6178
36412SOL     OW11488   9.254   5.074   9.337 -0.2696 -0.2583  0.6285
36412SOL    HW111489   9.334   5.024   9.354  0.0555  0.1409  0.2662
36412SOL    HW211490   9.256   5.145   9.401  0.0755  0.2259  0.0812
36413SOL     OW11491  10.371   4.498   1.330  0.1918 -0.2111 -0.5769
36413SOL    HW111492  10.324   4.559   1.388 -0.3749 -1.1758  0.0069
36413SOL    HW211493  10.456   4.539   1.316  0.1818  0.2627  0.6041
36414SOL     OW11494   1.472   3.110   6.811  0.3544 -0.0138 -0.0443
36414SOL    HW111495   1.439   3.197   6.788  1.1122 -0.3504 -2.7123
36414SOL    HW211496   1.463   3.059   6.731  2.1031 -1.7217  0.7664
36415SOL     OW11497   0.312   5.200   6.594  0.7546  0.2386  0.1830
36415SOL    HW111498   0.398   5.164   6.570  1.4219 -0.3615  3.0527
36415SOL    HW211499   0.256   5.123   6.604  0.8532  0.3100  1.5710
36416SOL     OW11500   8.065   8.045   8.217  0.1047  0.2012 -0.5526
36416SOL    HW111501   8.025   8.109   8.158  0.3317 -0.2526 -1.2070
36416SOL    HW211502   8.042   7.960   8.181 -1.4968 -0.1618  1.1772
36417SOL     OW11503   6.794   5.948   7.761 -0.0552  0.0006 -0.2739
36417SOL    HW111504   6.826   5.858   7.756  1.2600  0.3372  1.1585
36417SOL    HW211505   6.763   5.968   7.673 -2.4544 -2.5596 -0.1167
36418SOL     OW11506  10.416   6.375   7.712  0.4027 -0.0906  0.0892
36418SOL    HW111507  10.331   6.330   7.718  0.5608 -0.2058  2.0587
36418SOL    HW211508  10.452   6.369   7.800  1.6302  1.5857 -0.2607
36419SOL     OW11509   8.217   2.421   9.406  0.2224 -0.4964  0.1497
36419SOL    HW111510   8.275   2.496   9.423  0.7238 -1.0832  1.1391
36419SOL    HW211511   8.251   2.352   9.463  1.0576 -2.1578 -2.2280
36420SOL     OW11512  10.170   3.523   4.132  1.0015 -0.1518 -0.2675
36420SOL    HW111513  10.164   3.618   4.141  1.4041 -0.1334 -0.1881
36420SOL    HW211514  10.142   3.489   4.217  0.5353 -0.1158 -0.4047
36421SOL     OW11515   0.692   2.140   9.003  0.0774  0.0148  0.1531
36421SOL    HW111516   0.711   2.124   9.095 -1.1844 -1.0520  0.2523
36421SOL    HW211517   0.607   2.099   8.988  0.4423 -0.1905 -1.5910
36422SOL     OW11518   0.517   8.460   3.194  0.3223  0.2911  0.5311
36422SOL    HW111519   0.477   8.514   3.261  0.9949 -0.4491  1.5497
36422SOL    HW211520   0.445   8.433   3.137 -0.7578 -1.4602  2.6171
36423SOL     OW11521   0.261   9.779   3.495 -0.3016  0.0776 -0.2586
36423SOL    HW111522   0.316   9.780   3.574 -1.2730 -0.4804  0.4347
36423SOL    HW211523   0.294   9.852   3.443 -0.7294  1.5512  1.4313
36424SOL     OW11524   2.704   9.408   2.678  0.4494  0.0666 -0.2655
36424SOL    HW111525   2.692   9.327   2.727 -2.6970 -0.7531 -2.1063
36424SOL    HW211526   2.718   9.380   2.587 -0.4177  1.5447 -0.8981
36425SOL     OW11527  10.088   9.486   8.967 -0.5035  0.6399  0.3286
36425SOL    HW111528  10.083   9.550   8.896 -0.4813  1.0549  0.6889
36425SOL    HW211529  10.179   9.489   8.996  0.0061 -1.0365 -0.9653
36426SOL     OW11530   9.004   9.776   6.170 -0.1878  0.4063  0.3040
36426SOL    HW111531   8.947   9.705   6.200 -0.1003  0.0267 -0.3968
36426SOL    HW211532   9.069   9.786   6.240 -1.2324  1.0122  1.2321
36427SOL     OW11533   2.897   4.515   1.211  1.0430 -0.5591 -0.4424
36427SOL    HW111534   2.980   4.561   1.198 -0.0755  1.3521 -1.2541
36427SOL    HW211535   2.844   4.539   1.135 -0.3755 -1.4840  0.2068
36428SOL     OW11536   7.462   8.942   8.068 -0.2961 -0.1463 -0.0504
36428SOL    HW111537   7.461   9.034   8.042  2.9703  0.2806  0.8233
36428SOL    HW211538   7.431   8.894   7.992 -0.0783  1.5828 -1.2726
36429SOL     OW11539   2.459   1.465   9.086 -0.3572  0.0003  0.1356
36429SOL    HW111540   2.403   1.514   9.025  0.5023  0.1661 -0.5469
36429SOL    HW211541   2.497   1.532   9.142  0.3690  0.0721 -0.4251
36430SOL     OW11542   7.178   2.153   3.291 -0.2088  0.3724  0.1356
36430SOL    HW111543   7.148   2.146   3.381 -1.3269 -2.2724 -0.3676
36430SOL    HW211544   7.144   2.238   3.261 -2.8273 -0.2188  1.1777
36431SOL     OW11545   9.446   0.192   2.645 -0.3823  0.2497  0.5946
36431SOL    HW111546   9.495   0.223   2.721 -2.0994  1.6923  1.1854
36431SOL    HW211547   9.407   0.110   2.673 -1.7682  1.2239  1.6708
36432SOL     OW11548   5.090   9.409   9.141 -0.1122 -0.7315 -0.4249
36432SOL    HW111549   5.006   9.423   9.099  0.3862 -0.1671 -1.2661
36432SOL    HW211550   5.099   9.314   9.150 -1.3164 -0.7660  0.7008
36433SOL     OW11551   4.124  10.173   5.027  0.2590  0.0574 -0.6368
36433SOL    HW111552   4.056  10.144   4.966  0.9254 -0.1856 -1.2751
36433SOL    HW211553   4.199  10.116   5.008  0.2790 -0.4608  0.8431
36434SOL     OW11554  10.477  10.239   4.606  0.2856  0.7289 -0.0607
36434SOL    HW111555  10.501  10.160   4.560  0.3493  1.2742 -0.9845
36434SOL    HW211556  10.497  10.221   4.698  1.7373  0.2235 -0.4540
36435SOL     OW11557   0.060   5.012   6.823 -0.0543 -0.5730 -0.3157
36435SOL    HW111558   0.071   5.020   6.729 -1.1288 -2.1688 -0.6061
36435SOL    HW211559   0.049   5.102   6.853  2.5846  0.1884 -1.3588
36436SOL     OW11560   6.179   3.181   9.013  0.3320 -0.4124 -0.1070
36436SOL    HW111561   6.269   3.186   9.044  0.3112  1.5377 -0.2888
36436SOL    HW211562   6.140   3.265   9.036 -1.1123 -0.7888 -1.0357
36437SOL     OW11563   6.668   5.883  10.578 -0.7190  0.0189 -0.2124
36437SOL    HW111564   6.579   5.910  10.556  0.0097  2.1187 -0.8442
36437SOL    HW211565   6.679   5.909  10.669 -0.4456  0.7223 -0.4361
36438SOL     OW11566   8.290   9.178   5.331  0.3889 -0.2140 -0.2176
36438SOL    HW111567   8.205   9.156   5.293 -1.0493  0.0727  2.5320
36438SOL    HW211568   8.314   9.261   5.291 -1.9193  0.9929  0.7109
36439SOL     OW11569   4.463   6.885   5.661 -0.2097  0.1485  0.0039
36439SOL    HW111570   4.489   6.866   5.571  2.8936 -0.6766  0.9502
36439SOL    HW211571   4.413   6.809   5.688  0.2908 -0.3715 -0.5116
36440SOL     OW11572  10.152   9.032   8.156 -0.4837  0.7658 -0.2419
36440SOL    HW111573  10.228   9.000   8.108  0.0164 -1.5170  1.8842
36440SOL    HW211574  10.077   8.995   8.111 -0.0515 -0.8641  0.3240
36441SOL     OW11575   4.666   5.224   2.432 -0.2693 -0.8346  0.1759
36441SOL    HW111576   4.571   5.220   2.434 -0.3565  0.8342  2.1165
36441SOL    HW211577   4.686   5.314   2.406  0.6493  0.0231  3.4226
36442SOL     OW11578   7.007   3.416   5.064  0.4801 -0.0226  0.2511
36442SOL    HW111579   7.049   3.457   5.139  0.8431  2.1836 -1.0753
36442SOL    HW211580   6.921   3.389   5.096  0.3631  1.4944  1.3097
36443SOL     OW11581   5.345   2.134   3.759  0.3219 -0.3529 -0.3026
36443SOL    HW111582   5.318   2.171   3.843  1.3215 -0.3352  0.0202
36443SOL    HW211583   5.320   2.200   3.695 -0.6444 -0.4563 -0.0558
36444SOL     OW11584   7.685   8.363   2.308  0.2086 -0.1364 -0.0829
36444SOL    HW111585   7.757   8.331   2.254  1.1073  1.7620 -0.0673
36444SOL    HW211586   7.718   8.357   2.398 -0.2526 -0.6871  0.0597
36445SOL     OW11587   2.474   8.839   0.779  0.6750  0.0849 -0.2070
36445SOL    HW111588   2.497   8.751   0.749  2.1543 -0.2180  1.6709
36445SOL    HW211589   2.380   8.834   0.798  0.8434 -1.2560  0.3690
36446SOL     OW11590   3.179   8.333   4.231 -0.0788 -0.0626  0.1461
36446SOL    HW111591   3.180   8.405   4.293  1.1003  0.3083 -0.2718
36446SOL    HW211592   3.092   8.336   4.191 -1.3560 -1.1286  2.6649
36447SOL     OW11593   1.001   1.019   1.831  0.3105  0.7258  0.5834
36447SOL    HW111594   0.991   1.101   1.783 -1.0821  0.8632  1.0598
36447SOL    HW211595   1.086   1.026   1.875  1.8103  0.4498 -2.0554
36448SOL     OW11596   8.445  10.499   5.941  0.0720  0.0426  0.0773
36448SOL    HW111597   8.439  10.594   5.933  0.8088  0.1695  0.9058
36448SOL    HW211598   8.539  10.482   5.951  0.2270 -0.9601 -2.2832
36449SOL     OW11599   0.693   7.271   9.835 -0.1272 -0.3764  0.2598
36449SOL    HW111600   0.673   7.183   9.804  0.3471 -0.1778 -0.6426
36449SOL    HW211601   0.761   7.258   9.901 -0.6129 -0.7392  0.7038
36450SOL     OW11602   8.073   6.493   2.256 -0.2784 -0.4177 -0.8054
36450SOL    HW111603   8.094   6.538   2.175 -0.8875  1.6164  0.1169
36450SOL    HW211604   8.009   6.549   2.300 -1.8775 -2.6903 -0.0419
36451SOL     OW11605   6.791   7.923   4.692 -0.6367 -0.1408  0.0177
36451SOL    HW111606   6.809   7.909   4.599 -0.0957  0.7439 -0.0221
36451SOL    HW211607   6.697   7.943   4.695 -0.6233 -0.0160 -0.3546
36452SOL     OW11608   2.874   4.828   1.385 -0.9467 -0.3601 -0.1361
36452SOL    HW111609   2.955   4.879   1.380 -0.9855 -0.3000 -0.1404
36452SOL    HW211610   2.891   4.763   1.453 -2.0582  1.6661  2.2052
36453SOL     OW11611  10.458   9.297   5.843  0.4592 -0.1423  0.0991
36453SOL    HW111612  10.414   9.381   5.846  0.5950 -0.1006  1.5695
36453SOL    HW211613  10.407   9.245   5.780 -0.5424  0.5252  0.3382
36454SOL     OW11614   5.899   3.393   4.975  0.3255 -1.1384  0.0745
36454SOL    HW111615   5.987   3.367   5.003  0.0099 -1.8881  0.3955
36454SOL    HW211616   5.852   3.408   5.057  0.0802 -1.0036 -0.0917
36455SOL     OW11617   9.790   1.849   1.136 -0.1546  0.1446  0.8356
36455SOL    HW111618   9.852   1.807   1.196 -1.2346 -2.3550  0.3000
36455SOL    HW211619   9.846   1.888   1.068  0.8900 -0.9642  1.0210
36456SOL     OW11620   4.281   0.328   5.646 -0.3226 -0.0523  0.5242
36456SOL    HW111621   4.285   0.275   5.726  0.2598 -4.2347 -1.9835
36456SOL    HW211622   4.372   0.333   5.616 -0.8703 -1.8427 -1.6966
36457SOL     OW11623   5.391   3.471   0.438  0.0077  0.3386  0.1639
36457SOL    HW111624   5.454   3.516   0.381  1.6491 -0.9125  0.8951
36457SOL    HW211625   5.351   3.405   0.382  0.3740  0.2336  0.0190
36458SOL     OW11626   7.324   0.023   1.807  0.6338  0.0445 -0.5486
36458SOL    HW111627   7.353  -0.052   1.858 -1.3795 -0.4423 -0.0297
36458SOL    HW211628   7.310  -0.012   1.719 -0.8285 -0.3825 -0.1834
36459SOL     OW11629   3.550   9.930   6.049  0.8081 -0.4993 -0.4090
36459SOL    HW111630   3.549  10.020   6.081  0.2922 -0.4105 -0.6563
36459SOL    HW211631   3.460   9.915   6.019  1.2566 -0.5903 -1.7653
36460SOL     OW11632   0.549   1.878   1.985 -0.0205  0.6824 -0.1342
36460SOL    HW111633   0.542   1.969   2.014 -0.2501  0.1337  1.6429
36460SOL    HW211634   0.478   1.833   2.030 -1.2130 -0.0384 -2.5722
36461SOL     OW11635   7.072   1.209   3.406  0.4607 -0.1368 -0.4022
36461SOL    HW111636   6.981   1.183   3.416  0.6676 -1.2695 -1.2514
36461SOL    HW211637   7.085   1.217   3.312  0.8590  1.5067 -0.2334
36462SOL     OW11638   7.572  10.080   9.263 -0.8102  0.3430 -0.5490
36462SOL    HW111639   7.492  10.033   9.285  0.8763 -2.6594 -0.1944
36462SOL    HW211640   7.634  10.054   9.332  0.5814  2.2507 -1.0106
36463SOL     OW11641   6.279   9.161   4.033 -0.0548  0.2232  0.1344
36463SOL    HW111642   6.359   9.213   4.022  1.0616 -0.9542  2.1945
36463SOL    HW211643   6.281   9.133   4.125 -1.7577 -1.5856 -0.3192
36464SOL     OW11644   3.902   8.797   8.101 -0.2176 -0.0966 -0.5875
36464SOL    HW111645   3.841   8.844   8.157 -1.8934 -2.8248  0.0593
36464SOL    HW211646   3.981   8.785   8.154 -0.4155  0.4616 -0.1673
36465SOL     OW11647   5.747   3.240   5.415 -0.0263  0.1435 -0.0184
36465SOL    HW111648   5.764   3.221   5.323 -1.6527  0.2093 -0.3665
36465SOL    HW211649   5.805   3.181   5.463  0.3617 -0.3682 -1.0835
36466SOL     OW11650   9.810  10.606   5.282 -0.3985 -0.2721  0.5749
36466SOL    HW111651   9.807  10.650   5.198  2.4724 -1.9019 -0.5123
36466SOL    HW211652   9.804  10.676   5.347 -1.9151  1.0741 -0.9240
36467SOL     OW11653   5.590   8.793   1.947  0.3112 -0.0321 -0.3758
36467SOL    HW111654   5.638   8.711   1.935  0.3876 -0.0846  0.2581
36467SOL    HW211655   5.654   8.852   1.988 -0.0339  0.0335  0.0699
36468SOL     OW11656   4.245   1.172   4.661 -0.1490 -0.3186 -0.4112
36468SOL    HW111657   4.272   1.204   4.747  0.7220  0.4383 -0.9506
36468SOL    HW211658   4.266   1.078   4.663  0.6820 -0.1381 -0.0872
36469SOL     OW11659   8.978   7.073   6.024 -0.5984 -0.3726  0.1306
36469SOL    HW111660   8.967   7.020   5.945 -0.0192 -0.4147  0.0742
36469SOL    HW211661   8.898   7.126   6.029  0.0209  0.7604 -1.3310
36470SOL     OW11662   4.255   4.702   2.633 -0.3967 -0.1921 -0.3603
36470SOL    HW111663   4.270   4.633   2.569  1.0088 -1.0667  0.8342
36470SOL    HW211664   4.289   4.781   2.592  0.7695 -0.7950 -0.6085
36471SOL     OW11665   5.147   1.299   4.955 -0.3576 -0.1881 -0.5071
36471SOL    HW111666   5.151   1.309   5.051 -0.0798 -0.6642 -0.4633
36471SOL    HW211667   5.065   1.342   4.930 -1.0023 -1.0297  0.0799
36472SOL     OW11668   5.043   8.539   6.949 -0.1760  0.6522  0.2185
36472SOL    HW111669   5.060   8.514   7.040  0.0199  0.1329  0.0466
36472SOL    HW211670   4.951   8.565   6.948 -0.7751 -1.2672  0.1841
36473SOL     OW11671   1.059   4.780   2.711 -0.5008 -0.0361  0.2280
36473SOL    HW111672   1.051   4.854   2.771 -0.9733 -2.1873  3.0143
36473SOL    HW211673   1.146   4.790   2.672 -0.4926  1.8465  0.6399
36474SOL     OW11674   1.132   8.085   6.308 -0.4034 -0.3693 -0.6728
36474SOL    HW111675   1.138   8.172   6.348 -2.0393 -1.0971  1.3767
36474SOL    HW211676   1.059   8.091   6.247  0.1269 -0.0614 -1.2850
36475SOL     OW11677   9.071   2.717   8.057  0.1790  0.3792  0.0437
36475SOL    HW111678   9.003   2.663   8.017  0.0113  1.3131 -0.9992
36475SOL    HW211679   9.133   2.655   8.094  0.3533 -0.5593 -1.7244
36476SOL     OW11680   1.682   3.387   3.672  0.2394 -0.7824  0.2150
36476SOL    HW111681   1.623   3.343   3.611 -0.8709  1.5856 -0.5688
36476SOL    HW211682   1.770   3.367   3.640 -0.3079  1.3736 -3.0779
36477SOL     OW11683   8.146   3.131   9.465 -0.3100 -0.2213 -0.4136
36477SOL    HW111684   8.060   3.115   9.425 -0.8678  0.7548  0.3233
36477SOL    HW211685   8.208   3.127   9.392 -0.9341 -1.2283 -0.9181
36478SOL     OW11686   3.110   1.879  10.365 -0.2520  0.2298  0.2846
36478SOL    HW111687   3.157   1.919  10.438 -1.4685  2.1383  0.0775
36478SOL    HW211688   3.120   1.941  10.293 -0.3249 -0.9245 -0.7505
36479SOL     OW11689  10.591   1.153   8.801  0.1795  0.2552 -0.3633
36479SOL    HW111690  10.578   1.217   8.731 -0.2574  0.9296  0.3193
36479SOL    HW211691  10.650   1.197   8.863 -1.1163  0.4965  0.7240
36480SOL     OW11692   5.511   6.598   6.663 -0.0839 -0.5165  0.4319
36480SOL    HW111693   5.539   6.689   6.674  0.3339 -0.6836  0.7642
36480SOL    HW211694   5.549   6.552   6.738 -1.3672 -0.7223  0.9883
36481SOL     OW11695   7.751   4.881   4.193 -0.5252 -0.5899  0.2867
36481SOL    HW111696   7.657   4.898   4.200 -0.2693  1.2749 -0.2457
36481SOL    HW211697   7.791   4.967   4.199  1.1266 -1.3009 -0.0967
36482SOL     OW11698   8.216   0.555   2.454 -0.0960 -0.2185 -0.2498
36482SOL    HW111699   8.235   0.647   2.436 -0.3841 -0.0017  0.4980
36482SOL    HW211700   8.284   0.506   2.407 -0.2058  0.3518 -1.0126
36483SOL     OW11701   6.747   2.363   6.322  0.0557  0.4890  0.9070
36483SOL    HW111702   6.730   2.455   6.302  0.5110  0.3674 -0.1004
36483SOL    HW211703   6.842   2.356   6.327 -0.0083  0.4542  3.0096
36484SOL     OW11704   8.411   6.335  10.027 -0.1116 -0.6645 -0.1863
36484SOL    HW111705   8.488   6.284  10.051 -0.0802 -0.3481  0.3993
36484SOL    HW211706   8.342   6.270  10.011 -0.0217 -0.8989  0.3726
36485SOL     OW11707   0.671   9.588   5.924 -0.2423  0.1135  0.5469
36485SOL    HW111708   0.697   9.510   5.973  1.0569  0.2078  0.0399
36485SOL    HW211709   0.579   9.601   5.947 -0.3453 -1.2787  1.0204
36486SOL     OW11710   1.051   8.512   6.207  0.0221 -0.7260  0.1407
36486SOL    HW111711   0.994   8.558   6.268  0.7605  0.9229 -0.3549
36486SOL    HW211712   1.095   8.445   6.260 -1.0282 -0.8244  0.8996
36487SOL     OW11713   1.481   6.202   3.145 -0.1376  0.6636 -0.2896
36487SOL    HW111714   1.522   6.280   3.107 -2.1226  1.4667 -0.8903
36487SOL    HW211715   1.525   6.129   3.101 -0.7503  1.5362 -2.5063
36488SOL     OW11716   9.140   2.903   4.116 -0.1161 -0.5253 -0.5277
36488SOL    HW111717   9.204   2.940   4.056  0.8381 -2.8163 -1.0400
36488SOL    HW211718   9.192   2.865   4.187 -1.0669 -0.3980  0.2668
36489SOL     OW11719   0.353   0.457   8.347 -0.5402 -0.8953  0.2374
36489SOL    HW111720   0.380   0.532   8.295 -1.2291 -0.2541  0.7925
36489SOL    HW211721   0.258   0.463   8.351 -0.5464 -1.3127  0.9919
36490SOL     OW11722   1.363   1.638   0.454 -0.4612  0.6003  0.0048
36490SOL    HW111723   1.346   1.717   0.402 -0.6556  0.8472  0.4407
36490SOL    HW211724   1.285   1.629   0.509  0.1654  0.8997  0.9596
36491SOL     OW11725   3.832   5.742   9.840 -0.1115  0.5528  0.9808
36491SOL    HW111726   3.757   5.797   9.863 -0.7274  0.0972  0.1123
36491SOL    HW211727   3.903   5.805   9.824 -0.9737  1.1730 -0.6486
36492SOL     OW11728  10.104   9.709   1.309 -0.1946  0.4671 -0.3461
36492SOL    HW111729  10.180   9.724   1.365 -1.5050  1.4572  1.2822
36492SOL    HW211730  10.114   9.771   1.237  0.1331  1.2027  0.3159
36493SOL     OW11731   5.549   5.391   4.768  0.6332  0.2555 -0.1670
36493SOL    HW111732   5.523   5.333   4.696  1.0627 -1.6655  1.1481
36493SOL    HW211733   5.578   5.471   4.724  0.6107 -0.7283 -2.1187
36494SOL     OW11734   1.102   0.619   7.441 -0.3707  0.0732  0.0059
36494SOL    HW111735   1.163   0.609   7.368 -0.0308  0.6523  0.2037
36494SOL    HW211736   1.024   0.570   7.414 -0.1206  0.0002 -0.5983
36495SOL     OW11737   0.668   2.025   7.390  0.6919 -0.2942  0.5747
36495SOL    HW111738   0.674   1.945   7.338 -0.4773  0.1507 -0.2872
36495SOL    HW211739   0.747   2.074   7.369  0.6588 -0.5219 -0.1012
36496SOL     OW11740   1.981   1.346  10.022 -0.7074 -0.4888 -0.4878
36496SOL    HW111741   2.024   1.272  10.066 -1.4340 -0.5120  0.2012
36496SOL    HW211742   1.901   1.360  10.072 -1.1162  0.0615 -1.2888
36497SOL     OW11743   1.308   9.113   4.750 -0.6530 -0.0156  0.5555
36497SOL    HW111744   1.348   9.154   4.673 -0.2602 -0.1806  0.6708
36497SOL    HW211745   1.373   9.049   4.779 -0.4675  0.5955  1.5050
36498SOL     OW11746   7.542   2.664   8.105 -0.4146 -0.0358 -0.2836
36498SOL    HW111747   7.531   2.758   8.119 -1.1313 -0.4362  2.4268
36498SOL    HW211748   7.553   2.627   8.193  1.4982 -2.3343 -1.3460
36499SOL     OW11749   8.158   3.467   7.141  0.1549 -0.1205  0.3943
36499SOL    HW111750   8.075   3.440   7.179  0.3118 -0.9085  0.1932
36499SOL    HW211751   8.136   3.494   7.052 -0.0146  0.5173  0.6231
36500SOL     OW11752   8.248   6.308   6.041 -0.3104 -0.0527 -0.0755
36500SOL    HW111753   8.164   6.317   6.087 -0.2814  0.3775 -0.1067
36500SOL    HW211754   8.223   6.278   5.954 -0.4472  0.2616 -0.1460
36501SOL     OW11755   5.281   2.438   6.012 -0.3076  0.2401 -0.3656
36501SOL    HW111756   5.296   2.528   5.985  2.9630 -0.6344 -1.9390
36501SOL    HW211757   5.213   2.406   5.953 -0.6963  1.3441 -0.5235
36502SOL     OW11758   4.932   1.342   8.099  0.0893  0.1880 -0.0255
36502SOL    HW111759   4.848   1.305   8.071  1.0359 -1.8403 -0.4008
36502SOL    HW211760   4.997   1.281   8.064  1.6706  1.1834  1.0691
36503SOL     OW11761   8.426   7.033   0.229 -0.2523 -0.6278  0.1365
36503SOL    HW111762   8.456   7.025   0.319  0.9537 -2.8360 -0.3916
36503SOL    HW211763   8.499   7.001   0.176 -1.6285 -1.2149 -1.5219
36504SOL     OW11764   9.968   5.064   3.455  0.4656 -0.5764 -0.1631
36504SOL    HW111765  10.045   5.097   3.407  0.2414 -0.6001 -0.5458
36504SOL    HW211766   9.901   5.054   3.387 -0.2815  0.6649  0.3662
36505SOL     OW11767   6.374   5.569   1.550  0.3730 -0.1065  0.7204
36505SOL    HW111768   6.421   5.503   1.601 -0.7259 -1.9399 -0.4753
36505SOL    HW211769   6.281   5.552   1.569 -0.0713 -0.7185 -1.5901
36506SOL     OW11770   4.416   6.320   5.076 -0.1202 -0.9580  0.2010
36506SOL    HW111771   4.446   6.407   5.050  1.0286 -1.0916  0.9906
36506SOL    HW211772   4.372   6.285   4.999  0.0916  0.0160 -0.3713
36507SOL     OW11773   2.482   3.169   9.218  0.7150 -0.5641 -0.0811
36507SOL    HW111774   2.516   3.165   9.307  0.2310  1.7406  0.2772
36507SOL    HW211775   2.560   3.171   9.162  1.1617  1.4878  0.5421
36508SOL     OW11776   0.249   1.152   9.256  0.7877 -0.0288  0.3763
36508SOL    HW111777   0.300   1.114   9.184  0.3605 -0.5506  0.3389
36508SOL    HW211778   0.297   1.128   9.335  0.4791 -0.7359  0.3579
36509SOL     OW11779   3.833   0.423   1.911 -0.2026 -0.0377 -0.0082
36509SOL    HW111780   3.879   0.467   1.839 -1.9317 -0.4924 -1.4719
36509SOL    HW211781   3.746   0.405   1.875 -0.3460 -2.4256  1.3980
36510SOL     OW11782   2.216   9.470   0.388 -0.1784  0.3323  0.2993
36510SOL    HW111783   2.260   9.392   0.421 -1.3542 -0.6030 -0.2583
36510SOL    HW211784   2.276   9.506   0.323 -0.0372 -0.6802 -0.1517
36511SOL     OW11785   7.395   2.012   0.842  0.0413  0.0874 -0.7108
36511SOL    HW111786   7.483   2.029   0.874  0.5883 -1.4223 -1.3218
36511SOL    HW211787   7.394   2.052   0.754  0.6738 -1.2430 -1.3522
36512SOL     OW11788   4.772   6.851   6.361  0.1512  0.5197 -0.0462
36512SOL    HW111789   4.858   6.818   6.385 -1.1854 -0.9915  3.1601
36512SOL    HW211790   4.726   6.776   6.324 -0.2057  0.9903 -0.5843
36513SOL     OW11791   6.090   2.298   6.707 -0.3368  0.2006  0.2275
36513SOL    HW111792   6.185   2.283   6.701 -0.5018 -0.6210 -0.4438
36513SOL    HW211793   6.078   2.385   6.668  0.1352  0.2893  0.2673
36514SOL     OW11794   3.465   7.078   2.526 -0.1375  0.3157 -0.3352
36514SOL    HW111795   3.552   7.081   2.485  0.5438  0.4969  1.0636
36514SOL    HW211796   3.435   7.168   2.524  0.6362  0.6217  1.0601
36515SOL     OW11797   4.474   8.515   2.884  0.0414  0.4273  0.0489
36515SOL    HW111798   4.552   8.474   2.920 -0.3664  0.3263  0.8253
36515SOL    HW211799   4.499   8.540   2.795  1.3821  1.5749  0.7196
36516SOL     OW11800   7.432   9.920   3.503  0.0498 -0.1029  0.3987
36516SOL    HW111801   7.458   9.974   3.577 -0.4837  0.7238 -0.0010
36516SOL    HW211802   7.336   9.923   3.503  0.0555  0.5625 -0.7867
36517SOL     OW11803   6.672   2.678   5.713 -0.5249  0.3210 -0.0707
36517SOL    HW111804   6.728   2.655   5.788  1.2597 -0.0310 -1.4417
36517SOL    HW211805   6.642   2.593   5.680 -2.0432  0.5149  0.7395
36518SOL     OW11806   3.243   6.693   2.966  0.6918 -0.2531  0.2639
36518SOL    HW111807   3.153   6.722   2.951  0.9091  1.2089  1.4418
36518SOL    HW211808   3.282   6.686   2.879 -0.2795  0.0741 -0.2074
36519SOL     OW11809   1.015   8.076   7.519  0.3325  0.0450  0.2704
36519SOL    HW111810   1.101   8.097   7.482  0.8346 -1.5209  0.4577
36519SOL    HW211811   1.005   7.982   7.503 -1.2090  0.1395  0.5549
36520SOL     OW11812   0.137   9.740  10.655  0.4751 -0.0741  0.6267
36520SOL    HW111813   0.180   9.669  10.702 -0.5533  0.2240  2.0901
36520SOL    HW211814   0.068   9.698  10.604  1.2151 -0.3396 -0.1623
36521SOL     OW11815   0.479   2.336   4.882  0.5494 -0.1290  0.2984
36521SOL    HW111816   0.463   2.421   4.923  1.6561 -0.1698  0.8584
36521SOL    HW211817   0.392   2.304   4.858  0.2384  2.0167 -1.6917
36522SOL     OW11818   5.752   4.743   9.672 -0.4979 -0.4197  0.2881
36522SOL    HW111819   5.796   4.740   9.587 -3.5445  2.1163 -1.6013
36522SOL    HW211820   5.755   4.836   9.697 -1.9381 -0.6832  1.6031
36523SOL     OW11821   6.771   7.356   0.375  0.6543  0.1604  0.2064
36523SOL    HW111822   6.772   7.442   0.333  1.5959 -0.1957 -0.5413
36523SOL    HW211823   6.747   7.374   0.466 -3.5494  0.7602 -0.7896
36524SOL     OW11824   4.002   7.432   4.734 -0.1109  0.1601  0.1603
36524SOL    HW111825   3.992   7.337   4.726 -1.1391  0.2682 -0.0048
36524SOL    HW211826   3.955   7.467   4.658 -0.4433  0.8337  0.6739
36525SOL     OW11827   9.057   8.464   2.009  0.5779  0.3675 -0.0487
36525SOL    HW111828   9.080   8.411   2.085 -1.0411 -1.5984 -0.8357
36525SOL    HW211829   9.140   8.498   1.977  1.5401 -0.6962  1.2209
36526SOL     OW11830   6.854   0.253   3.779 -0.0409 -0.5283 -0.3703
36526SOL    HW111831   6.893   0.265   3.692  0.7059 -0.8349 -0.0837
36526SOL    HW211832   6.822   0.340   3.803 -1.1004 -0.6222 -1.3414
36527SOL     OW11833   3.954   1.201   6.156  0.0057 -0.3929 -0.4433
36527SOL    HW111834   3.869   1.161   6.173  0.0504 -0.4944 -0.4515
36527SOL    HW211835   3.964   1.268   6.224 -0.5242  0.3244 -1.0594
36528SOL     OW11836   5.696   7.443   5.072  0.1314 -0.2000 -0.2277
36528SOL    HW111837   5.614   7.478   5.037  0.0335  0.1215  0.3108
36528SOL    HW211838   5.670   7.366   5.123 -0.0582  0.8701  1.3641
36529SOL     OW11839   3.618   9.173   8.668 -0.1282 -0.0820 -0.3426
36529SOL    HW111840   3.570   9.101   8.708 -0.4269  1.4601  2.3021
36529SOL    HW211841   3.694   9.187   8.725 -0.2275  1.8243 -0.5943
36530SOL     OW11842   1.300   9.255   1.881  0.3302 -0.4890  0.7741
36530SOL    HW111843   1.341   9.256   1.968  1.1188  2.2981  0.4764
36530SOL    HW211844   1.340   9.181   1.836  3.3618  0.6680  1.3236
36531SOL     OW11845  10.102   3.889   5.270  0.4412 -0.0928 -0.2268
36531SOL    HW111846  10.040   3.816   5.265  0.3572 -0.2034  1.6031
36531SOL    HW211847  10.048   3.965   5.292  0.8561 -0.0965  0.8990
36532SOL     OW11848   5.737  10.644   1.746  0.6370 -0.1311  0.0641
36532SOL    HW111849   5.708  10.689   1.666  1.4312  0.8031  0.2777
36532SOL    HW211850   5.680  10.679   1.814  1.1116  0.4128  0.1927
36533SOL     OW11851   5.288   1.338   1.575 -0.9900  0.1671  0.2087
36533SOL    HW111852   5.327   1.408   1.626 -0.9178  0.3564 -0.1026
36533SOL    HW211853   5.356   1.270   1.572 -1.5208 -0.4466  1.5673
36534SOL     OW11854   6.530   0.551   4.949  0.3386 -0.3406 -0.0908
36534SOL    HW111855   6.456   0.524   4.894  0.6630  0.2503 -0.8380
36534SOL    HW211856   6.492   0.561   5.036 -0.0557 -1.9117 -0.0503
36535SOL     OW11857   1.579   0.446   6.528  0.9325  0.4128 -0.4046
36535SOL    HW111858   1.487   0.446   6.503  0.3416 -1.2065  1.4864
36535SOL    HW211859   1.592   0.530   6.572  0.4649  0.7897 -0.9753
36536SOL     OW11860   1.220   8.245   7.481 -0.7291  0.3064  0.5220
36536SOL    HW111861   1.237   8.295   7.401 -0.0088 -0.2397  0.3236
36536SOL    HW211862   1.151   8.294   7.525 -1.3727  0.4355 -0.5857
36537SOL     OW11863   7.188   5.992   9.761  0.5086  0.3100  0.7574
36537SOL    HW111864   7.103   5.952   9.742  0.7542  0.5343 -0.9879
36537SOL    HW211865   7.167   6.068   9.815 -0.5572  1.0408 -0.6162
36538SOL     OW11866   6.895   3.808   1.627 -0.2489 -0.1099  0.1958
36538SOL    HW111867   6.826   3.791   1.562 -1.0072  1.1681  0.6145
36538SOL    HW211868   6.974   3.824   1.576 -0.7183  0.3486 -0.3959
36539SOL     OW11869  10.129   8.541   3.378 -0.2119 -0.5446  0.0125
36539SOL    HW111870  10.050   8.513   3.425 -0.1037  0.5700  0.9053
36539SOL    HW211871  10.155   8.465   3.327 -1.6353 -1.0619  0.0232
36540SOL     OW11872   0.911   7.448   0.721 -0.0828  0.1944 -0.0631
36540SOL    HW111873   0.896   7.532   0.764  1.0424  0.1303  0.4811
36540SOL    HW211874   0.886   7.382   0.785 -0.7291  0.0990 -0.4015
36541SOL     OW11875   2.170   1.610   9.119 -0.0333 -0.3288 -0.0474
36541SOL    HW111876   2.196   1.683   9.175 -0.1163  0.9847 -1.6352
36541SOL    HW211877   2.245   1.594   9.063 -0.6762 -0.1751 -0.9830
36542SOL     OW11878   9.148   6.592   5.521  0.4775  0.3509  0.6357
36542SOL    HW111879   9.235   6.610   5.487  0.7509  0.9601  1.6148
36542SOL    HW211880   9.159   6.515   5.577  0.4372  0.5541  0.9281
36543SOL     OW11881   3.415   2.894   3.298 -0.1613 -0.0052  0.2384
36543SOL    HW111882   3.359   2.926   3.369 -1.7997  1.1595 -1.4505
36543SOL    HW211883   3.463   2.972   3.270  0.8702 -0.5757  0.4104
36544SOL     OW11884   2.135   3.131   1.138 -0.4030 -0.5248  0.3087
36544SOL    HW111885   2.129   3.210   1.192 -1.9467 -0.6324  0.3351
36544SOL    HW211886   2.109   3.160   1.050  3.0503 -0.1233 -0.7145
36545SOL     OW11887   7.480  10.655   6.890 -0.1572  0.5653 -0.2984
36545SOL    HW111888   7.476  10.587   6.957  0.2976 -0.0247 -0.8475
36545SOL    HW211889   7.413  10.629   6.826  0.1051  0.5561 -0.5730
36546SOL     OW11890   6.522   4.819   2.246 -0.3337 -0.4564 -0.4975
36546SOL    HW111891   6.438   4.816   2.290 -0.2776  0.0846 -0.3370
36546SOL    HW211892   6.520   4.901   2.196  1.1517  1.0442  1.7132
36547SOL     OW11893   6.272   4.985   2.948  0.1533 -0.2133 -0.1826
36547SOL    HW111894   6.248   5.050   2.881 -0.2245  0.5554  0.6732
36547SOL    HW211895   6.264   5.033   3.031  1.1854 -0.9853  0.3755
36548SOL     OW11896   2.461   1.983   1.815 -0.1501  0.5997  0.3228
36548SOL    HW111897   2.426   2.050   1.757 -1.1728  0.4247  0.7026
36548SOL    HW211898   2.460   1.903   1.763 -0.0622  0.6492  0.2456
36549SOL     OW11899  10.115   4.899   8.721 -0.2748 -0.2790 -0.2826
36549SOL    HW111900  10.194   4.848   8.701 -0.8684 -1.7759  0.9544
36549SOL    HW211901  10.123   4.920   8.814 -0.6332  0.8823 -0.5013
36550SOL     OW11902   7.986   1.607   7.016 -0.2864  0.6656 -0.0422
36550SOL    HW111903   8.026   1.691   6.996 -1.4985  0.7895 -2.1982
36550SOL    HW211904   8.039   1.543   6.969 -0.1251  0.3348  0.5713
36551SOL     OW11905   4.590   9.032   4.757 -0.2227  0.4940  0.4480
36551SOL    HW111906   4.589   9.080   4.840  0.4313 -0.6923  1.1738
36551SOL    HW211907   4.500   9.038   4.725 -0.3374  1.4955  0.9172
36552SOL     OW11908   3.799   6.769   4.947 -0.0534  0.0019  0.0947
36552SOL    HW111909   3.761   6.851   4.916  0.6961  0.0383 -0.7894
36552SOL    HW211910   3.793   6.710   4.872  0.6381 -0.3201  0.2814
36553SOL     OW11911   1.337   6.344   2.184  0.4927  0.2602 -0.0975
36553SOL    HW111912   1.255   6.327   2.231 -0.2602  0.9335 -1.1274
36553SOL    HW211913   1.310   6.389   2.104  1.8329  0.0243 -0.7066
36554SOL     OW11914   1.787   9.766   4.633  0.5459 -0.1820  0.2303
36554SOL    HW111915   1.851   9.792   4.698 -0.4868  1.4808  0.6468
36554SOL    HW211916   1.835   9.708   4.574  1.3167 -2.4897  2.8890
36555SOL     OW11917   9.512  10.158   8.867  0.4632 -0.3659  0.0675
36555SOL    HW111918   9.514  10.230   8.804 -0.8707 -0.3361  0.0250
36555SOL    HW211919   9.441  10.102   8.836  0.0504 -0.5582  1.3304
36556SOL     OW11920   7.498   2.475   7.425  0.2353 -0.0842 -0.5383
36556SOL    HW111921   7.422   2.523   7.391 -0.6751  0.2591  1.7995
36556SOL    HW211922   7.471   2.383   7.420  0.0226 -0.0244 -0.5142
36557SOL     OW11923   5.574   3.926   8.165  0.2874 -0.2808  0.0796
36557SOL    HW111924   5.529   3.878   8.235  0.2084 -1.9433 -1.0605
36557SOL    HW211925   5.618   3.998   8.210  0.6606 -1.5915  1.9456
36558SOL     OW11926   7.273   0.022   0.590  0.2883  0.1834 -0.1908
36558SOL    HW111927   7.284   0.113   0.561  2.9228  0.1428  0.4550
36558SOL    HW211928   7.279   0.026   0.685 -0.6703 -0.5730 -0.0852
36559SOL     OW11929   4.857   6.692   8.795  0.0803  0.3266  0.0078
36559SOL    HW111930   4.826   6.610   8.834  1.1147 -0.6680 -1.1847
36559SOL    HW211931   4.837   6.683   8.702 -1.5328  2.2780  0.1143
36560SOL     OW11932   5.326   3.327   8.215  0.0048  0.1434  0.9595
36560SOL    HW111933   5.397   3.388   8.199 -0.4914  0.8089  1.2259
36560SOL    HW211934   5.252   3.363   8.165 -0.2317 -0.3562  0.9432
36561SOL     OW11935   6.282   0.633   3.542  0.7881  0.3418  0.0855
36561SOL    HW111936   6.296   0.588   3.459 -0.6685 -0.3811  0.2037
36561SOL    HW211937   6.280   0.563   3.607  1.8988  0.8997  0.7395
36562SOL     OW11938   2.848   8.644   7.655 -0.3561  0.1971  0.3365
36562SOL    HW111939   2.812   8.680   7.736 -2.2493  0.8527 -0.7324
36562SOL    HW211940   2.815   8.555   7.652  2.0950 -0.8704  1.6279
36563SOL     OW11941   0.340   5.101   1.387  0.1678 -0.0686  0.1937
36563SOL    HW111942   0.366   5.144   1.467  0.7286  0.1545 -0.1061
36563SOL    HW211943   0.260   5.054   1.410  0.1853  0.1989  0.8117
36564SOL     OW11944   6.292   1.586   7.909 -0.2320 -0.2373 -0.4283
36564SOL    HW111945   6.368   1.644   7.912  0.4122 -1.0960  0.5707
36564SOL    HW211946   6.293   1.549   7.821 -0.5307  1.0649 -1.0127
36565SOL     OW11947   0.804   8.993   8.331  0.0334 -0.2941 -0.3490
36565SOL    HW111948   0.780   8.904   8.356  1.9221 -0.5751  0.6716
36565SOL    HW211949   0.725   9.045   8.347 -0.5765 -1.4869  0.7132
36566SOL     OW11950   0.677   0.060   7.816  0.9705  0.3367 -0.4068
36566SOL    HW111951   0.635   0.084   7.899  0.1438  0.7702 -0.9335
36566SOL    HW211952   0.677   0.141   7.765 -0.4742 -0.3896 -1.6412
36567SOL     OW11953   2.746   3.652   4.261  0.2683 -0.0121 -0.1950
36567SOL    HW111954   2.712   3.719   4.320  0.9162  1.0996 -1.0272
36567SOL    HW211955   2.691   3.575   4.277 -0.1665  0.5467  1.1555
36568SOL     OW11956   4.827   0.183  10.351 -0.5280 -0.2003 -0.3331
36568SOL    HW111957   4.789   0.097  10.367 -0.0865 -0.3949 -0.3127
36568SOL    HW211958   4.881   0.200  10.428 -0.6897  0.1389 -0.2921
36569SOL     OW11959   1.896   6.512   2.102  0.0506  0.1368  0.4247
36569SOL    HW111960   1.944   6.449   2.047 -1.4555 -0.1565 -0.6110
36569SOL    HW211961   1.958   6.534   2.172  1.2100 -1.2370 -0.1049
36570SOL     OW11962   5.113   7.281   6.899 -0.2117  0.2541  0.7461
36570SOL    HW111963   5.038   7.243   6.852 -0.4225  1.3204  0.1892
36570SOL    HW211964   5.150   7.344   6.837  0.4267  0.5981  1.4700
36571SOL     OW11965   2.768   1.936   0.797  0.1081  1.3928 -0.2691
36571SOL    HW111966   2.752   1.935   0.891 -0.3846  1.2244 -0.3484
36571SOL    HW211967   2.767   1.844   0.771  0.4782  1.4248 -0.4035
36572SOL     OW11968   1.771   1.118   7.196 -0.0150 -0.3852  0.2055
36572SOL    HW111969   1.745   1.177   7.266  0.8967 -0.4752  0.6401
36572SOL    HW211970   1.798   1.175   7.125 -0.2016 -0.2903  0.2104
36573SOL     OW11971   4.670  10.387   4.059  0.5921 -0.0716  0.8289
36573SOL    HW111972   4.657  10.392   4.153 -0.5691  1.0538  0.6322
36573SOL    HW211973   4.582  10.397   4.022  1.2688  1.7250 -0.4290
36574SOL     OW11974   4.537   2.025   9.976  0.0421  0.1053  0.4338
36574SOL    HW111975   4.448   1.999  10.000 -0.3864  1.0928 -0.0200
36574SOL    HW211976   4.527   2.072   9.893  1.0390 -0.0976  0.1799
36575SOL     OW11977   5.751   5.618   3.592 -0.1276 -0.4491  0.2942
36575SOL    HW111978   5.720   5.640   3.679  0.2155  1.7963 -0.1045
36575SOL    HW211979   5.676   5.633   3.534  0.0760 -0.4762  0.0181
36576SOL     OW11980   2.221   8.727   9.674 -0.3638  0.2415  0.5088
36576SOL    HW111981   2.150   8.789   9.657  0.0134  0.6674  0.4488
36576SOL    HW211982   2.239   8.736   9.767  0.2636  0.8686  0.3464
36577SOL     OW11983   5.999   7.312   9.495  0.0940  0.1259 -0.5353
36577SOL    HW111984   5.939   7.339   9.425 -0.9004 -0.7840 -0.0519
36577SOL    HW211985   5.950   7.329   9.576  0.1961 -1.3037 -0.1575
36578SOL     OW11986   8.315   7.024   1.136  0.2886  0.1204 -0.1297
36578SOL    HW111987   8.237   7.039   1.083  0.6236 -1.4553 -1.1324
36578SOL    HW211988   8.386   7.064   1.087  0.4493 -0.5111 -0.4324
36579SOL     OW11989   5.047   6.390   4.844  0.5550  0.7751  0.2977
36579SOL    HW111990   5.001   6.345   4.773 -0.3241 -0.5823  1.6910
36579SOL    HW211991   5.082   6.469   4.802 -0.8382  0.5582 -1.4059
36580SOL     OW11992  10.304   7.586   2.212  0.3950 -0.0780  0.3426
36580SOL    HW111993  10.239   7.613   2.277 -0.2226  0.7994 -0.6012
36580SOL    HW211994  10.341   7.506   2.248  0.4416  0.6398  2.0170
36581SOL     OW11995   4.676   0.892   9.761  0.2626 -0.9031  0.2069
36581SOL    HW111996   4.624   0.969   9.785  1.6210 -0.3228  1.5119
36581SOL    HW211997   4.647   0.870   9.672 -2.1489 -0.6337  0.8643
36582SOL     OW11998   6.697   9.096   7.095  0.1689 -0.8264  0.0476
36582SOL    HW111999   6.752   9.021   7.075  0.3728 -0.2247 -1.8059
36582SOL    HW212000   6.620   9.086   7.039  0.3029  0.4459 -0.3967
36583SOL     OW12001   1.995  10.596   6.467  0.0809 -0.4100 -0.2494
36583SOL    HW112002   2.070  10.596   6.526  0.2552 -1.0056 -0.4677
36583SOL    HW212003   1.933  10.657   6.508  0.9024  0.5339 -0.3629
36584SOL     OW12004   8.173   5.824   8.426  0.1870  0.8642 -0.1999
36584SOL    HW112005   8.122   5.854   8.501 -0.4481  1.1981 -0.7596
36584SOL    HW212006   8.236   5.895   8.409  0.8006  0.4869  0.4381
36585SOL     OW12007   9.680   2.815   7.181 -0.0764 -0.1729 -0.5012
36585SOL    HW112008   9.661   2.725   7.207  0.6367  0.1724  1.3880
36585SOL    HW212009   9.606   2.841   7.127 -0.2348 -1.9232 -1.1912
36586SOL     OW12010   6.392   1.728   2.974  0.0839  0.5933  0.0421
36586SOL    HW112011   6.487   1.720   2.973 -0.0421 -2.1065 -1.2077
36586SOL    HW212012   6.370   1.760   2.886 -0.1788  0.7837  0.1781
36587SOL     OW12013   1.577   3.560   8.528  0.6155  0.6456 -0.6175
36587SOL    HW112014   1.665   3.588   8.502  2.4460 -4.0950 -0.4363
36587SOL    HW212015   1.542   3.516   8.451  1.1202 -2.8821  0.9663
36588SOL     OW12016   8.413   0.444   5.286 -0.7896  0.2621 -0.0638
36588SOL    HW112017   8.487   0.384   5.301 -0.7637  0.2374 -0.2804
36588SOL    HW212018   8.348   0.418   5.350  0.0210  1.3588  1.2594
36589SOL     OW12019   4.465  10.230   2.060 -0.2726 -0.2108  0.2664
36589SOL    HW112020   4.480  10.136   2.067 -2.1277 -0.4808  1.2745
36589SOL    HW212021   4.470  10.248   1.966  1.9970 -0.9105  0.1759
36590SOL     OW12022   7.778   7.944   2.557 -0.5288 -0.8583 -0.4370
36590SOL    HW112023   7.752   7.964   2.467  0.2919 -2.0773 -0.9700
36590SOL    HW212024   7.705   7.895   2.594 -0.2084 -1.7600 -0.9812
36591SOL     OW12025   7.213   0.507   2.511 -0.4736 -0.5732 -0.5095
36591SOL    HW112026   7.161   0.428   2.529 -0.4817 -0.4244  0.1351
36591SOL    HW212027   7.296   0.474   2.477 -0.2727 -0.8900  0.2561
36592SOL     OW12028   6.206   4.057   3.194  0.1974 -0.2020  0.0831
36592SOL    HW112029   6.192   4.069   3.288 -0.2885 -0.6587  0.0724
36592SOL    HW212030   6.209   3.962   3.182  0.7337 -0.1407 -0.2968
36593SOL     OW12031   0.098   2.135   0.675  0.2468  0.0325 -0.4158
36593SOL    HW112032   0.130   2.123   0.586 -2.5895  0.9491 -1.6907
36593SOL    HW212033   0.098   2.230   0.689  0.6893 -0.0953  0.6068
36594SOL     OW12034   1.082   9.891   9.827  0.8260 -0.0568 -0.0128
36594SOL    HW112035   1.065   9.797   9.821  3.8468 -0.7648  0.4272
36594SOL    HW212036   1.010   9.933   9.780 -0.5966 -2.5791 -0.2202
36595SOL     OW12037   1.882   9.137   9.723 -0.1728  0.3217  0.2548
36595SOL    HW112038   1.926   9.054   9.705 -0.7061 -0.1418  0.9884
36595SOL    HW212039   1.791   9.123   9.694 -0.4472  0.3751  1.0578
36596SOL     OW12040   2.582  10.111   8.320  0.3523  0.2532 -0.3826
36596SOL    HW112041   2.498  10.066   8.325  0.8413 -0.7530 -0.9104
36596SOL    HW212042   2.639  10.062   8.379  1.0684 -0.2672 -1.4587
36597SOL     OW12043   5.309   0.872   7.310 -0.6832  0.6951 -0.2988
36597SOL    HW112044   5.226   0.825   7.310 -0.2821 -0.0437 -0.8949
36597SOL    HW212045   5.376   0.803   7.302 -0.1005  1.3691 -1.6334
36598SOL     OW12046  10.179   8.345   6.033 -0.0076  0.6169  0.6806
36598SOL    HW112047  10.265   8.367   5.998 -0.3201  3.0543  1.2718
36598SOL    HW212048  10.181   8.378   6.123 -1.3849  0.1973  0.8886
36599SOL     OW12049   0.352   8.671   3.344 -0.6358  0.1889  0.2406
36599SOL    HW112050   0.290   8.635   3.408 -1.7748 -0.8834 -1.4009
36599SOL    HW212051   0.305   8.742   3.301 -0.7882 -0.6821 -1.0775
36600SOL     OW12052   4.068   8.736   7.882  0.1319  0.4443  0.0767
36600SOL    HW112053   4.098   8.822   7.853  0.6227  0.3818  0.3966
36600SOL    HW212054   4.009   8.755   7.956 -1.8776  0.6702 -1.4785
36601SOL     OW12055   8.048   9.471   3.543  0.0810  0.1910 -0.6248
36601SOL    HW112056   8.007   9.525   3.476 -0.1747  0.3221 -0.3630
36601SOL    HW212057   8.016   9.383   3.525 -1.5693  0.5269  0.5235
36602SOL     OW12058   6.102   3.333   6.128  0.0541 -0.3167  0.8989
36602SOL    HW112059   6.185   3.350   6.171  0.4434 -1.5116  0.6586
36602SOL    HW212060   6.083   3.242   6.147 -0.4587 -0.4811 -0.2784
36603SOL     OW12061  10.484   0.247   3.765 -0.0464 -0.2102 -0.1591
36603SOL    HW112062  10.427   0.217   3.835 -0.7061 -0.8969 -0.9607
36603SOL    HW212063  10.571   0.213   3.787 -0.3848 -0.9859 -0.0163
36604SOL     OW12064   8.870  10.552   4.968 -0.4076  0.2998 -0.1606
36604SOL    HW112065   8.840  10.626   5.022 -0.9345 -0.0685  0.0545
36604SOL    HW212066   8.792  10.498   4.956  0.2472 -0.8691  0.7146
36605SOL     OW12067   6.954   7.264   9.206 -0.2829  0.4574 -0.4063
36605SOL    HW112068   6.924   7.243   9.117  3.4636  1.3257 -2.0434
36605SOL    HW212069   6.958   7.360   9.208  0.6160  0.4134  0.3469
36606SOL     OW12070  10.457   3.104   6.513  0.5328  0.2186  0.0116
36606SOL    HW112071  10.392   3.041   6.544 -0.5501  2.1690  2.0134
36606SOL    HW212072  10.508   3.126   6.591  1.1683  1.4782 -0.7268
36607SOL     OW12073   3.181   7.273   5.453  0.0015  0.1821 -0.2790
36607SOL    HW112074   3.243   7.291   5.383  0.1214 -0.1433 -0.2592
36607SOL    HW212075   3.156   7.359   5.487  0.7101  0.3032 -0.0532
36608SOL     OW12076   3.541   0.563   3.840 -0.3794 -0.5635  0.3493
36608SOL    HW112077   3.612   0.605   3.792 -0.6051 -1.5396 -0.8997
36608SOL    HW212078   3.469   0.557   3.777 -1.0087 -1.0412  1.0922
36609SOL     OW12079   4.266   6.898   6.584 -0.4320 -0.4417  0.0585
36609SOL    HW112080   4.257   6.946   6.501  0.6682  1.6410  1.0552
36609SOL    HW212081   4.181   6.911   6.627 -0.2236  0.4744  0.2210
36610SOL     OW12082   4.506   2.658  10.075  0.8335  0.3090  0.3633
36610SOL    HW112083   4.461   2.690   9.998  1.1566  1.7425  0.7416
36610SOL    HW212084   4.599   2.670  10.056  1.0919 -1.8971 -0.0981
36611SOL     OW12085   1.604   7.556   9.965  0.1953 -0.1735  0.4360
36611SOL    HW112086   1.571   7.644   9.987  1.3489  0.4421 -0.1802
36611SOL    HW212087   1.663   7.534  10.036  0.6735 -0.0069  0.0983
36612SOL     OW12088   7.492   6.917   6.153  0.4005  0.1017 -0.3540
36612SOL    HW112089   7.432   6.992   6.152 -1.2976 -0.9449  3.6260
36612SOL    HW212090   7.441   6.844   6.118 -1.0934 -0.8512  3.2748
36613SOL     OW12091   7.191   6.912   5.854  0.3505 -0.3574  0.3435
36613SOL    HW112092   7.110   6.929   5.806 -1.0132 -1.8591  1.9801
36613SOL    HW212093   7.197   6.984   5.916  0.7755  0.2327 -0.3641
36614SOL     OW12094   1.741   3.100   2.379  0.3735 -0.0201  0.1552
36614SOL    HW112095   1.767   3.047   2.304  1.5495 -0.8729  1.1153
36614SOL    HW212096   1.695   3.175   2.342  0.6492 -0.5870 -1.3789
36615SOL     OW12097   3.702   6.011   7.199 -0.5934 -0.1217  0.0137
36615SOL    HW112098   3.644   6.043   7.130  1.4255 -2.7498 -3.1898
36615SOL    HW212099   3.790   6.038   7.171  0.1657  0.9684  3.0367
36616SOL     OW12100  10.142   2.531   1.916  0.0940 -0.7827  0.1623
36616SOL    HW112101  10.196   2.587   1.861  0.9488 -1.0488  0.7105
36616SOL    HW212102  10.066   2.585   1.938  0.8404  0.1206  0.5679
36617SOL     OW12103   1.526   2.405   3.052 -0.3071 -0.1117  0.1864
36617SOL    HW112104   1.621   2.400   3.056 -0.3494 -2.4615 -0.0224
36617SOL    HW212105   1.496   2.333   3.109 -1.8773 -0.7645 -1.3725
36618SOL     OW12106   5.839   5.797   7.478  0.1710 -0.3621 -0.5459
36618SOL    HW112107   5.855   5.876   7.531 -1.4647 -0.3194 -0.0486
36618SOL    HW212108   5.817   5.831   7.391  2.9456 -0.4345 -1.3576
36619SOL     OW12109   5.153  10.308   0.310 -0.5239 -0.0066 -0.6559
36619SOL    HW112110   5.165  10.401   0.292 -2.4402  0.0579 -1.8331
36619SOL    HW212111   5.082  10.305   0.374 -1.0745 -0.6757 -1.2847
36620SOL     OW12112   4.591   8.947   6.973 -0.1500  0.8236 -0.0444
36620SOL    HW112113   4.593   8.989   6.887  0.0016  0.8722 -0.0168
36620SOL    HW212114   4.683   8.939   6.999 -0.1406 -0.1082 -0.3314
36621SOL     OW12115   3.367  10.361   6.759 -0.2652  0.5476 -0.0065
36621SOL    HW112116   3.302  10.336   6.693  1.0134 -0.3591 -0.9863
36621SOL    HW212117   3.335  10.444   6.794 -1.0120  1.0521 -1.7652
36622SOL     OW12118   8.990   4.560   1.486  0.8293 -0.0900  0.3561
36622SOL    HW112119   9.015   4.650   1.463  0.4604  0.0122  0.3495
36622SOL    HW212120   9.031   4.545   1.571  2.0720 -0.4118 -0.2785
36623SOL     OW12121   2.837   6.571   2.461 -0.3161  0.4205 -0.7416
36623SOL    HW112122   2.809   6.601   2.374  2.4155  1.9790 -1.1820
36623SOL    HW212123   2.838   6.650   2.514  0.1208 -0.1478  0.1069
36624SOL     OW12124   9.337   4.727   6.455 -0.2265  0.6110 -0.2844
36624SOL    HW112125   9.258   4.767   6.417 -1.4885 -0.4606  1.1050
36624SOL    HW212126   9.362   4.786   6.526  1.0196  1.6090 -1.4846
36625SOL     OW12127   5.878   0.298   3.980 -0.0642 -0.2241  0.4751
36625SOL    HW112128   5.872   0.255   3.895 -0.3087  0.1957  0.2800
36625SOL    HW212129   5.800   0.352   3.986  0.6270  0.8137  0.3723
36626SOL     OW12130   9.487   0.930   8.144 -0.2372  0.0616  0.3866
36626SOL    HW112131   9.553   0.993   8.172  2.0366 -2.4231  0.9980
36626SOL    HW212132   9.493   0.859   8.208 -2.1043 -1.1667 -0.7128
36627SOL     OW12133   3.201   9.908   3.997  0.3627  0.1759  0.2119
36627SOL    HW112134   3.155   9.833   4.034 -0.1186  0.9030  1.1184
36627SOL    HW212135   3.134   9.974   3.983  0.8385  0.5826 -0.2268
36628SOL     OW12136   8.957   0.743   3.415 -0.2411  0.7905 -0.5160
36628SOL    HW112137   8.959   0.653   3.447 -0.2682  1.0365  0.1974
36628SOL    HW212138   8.904   0.790   3.479  2.4711  2.0178  0.9827
36629SOL     OW12139   7.759   3.409   4.650 -0.0977  0.2056 -0.0566
36629SOL    HW112140   7.822   3.351   4.693 -0.2001 -2.0952 -2.7630
36629SOL    HW212141   7.677   3.359   4.650 -0.8587  1.4249 -0.2671
36630SOL     OW12142   1.119   2.401   8.086  0.2247  0.7239  0.0239
36630SOL    HW112143   1.115   2.385   7.992  2.0601  0.0386  0.0159
36630SOL    HW212144   1.133   2.314   8.125  2.2461  1.2865  0.6644
36631SOL     OW12145   9.939  10.412   8.930 -0.6977 -0.0139  0.0418
36631SOL    HW112146   9.952  10.412   9.025 -0.0742 -0.6745 -0.0308
36631SOL    HW212147  10.008  10.470   8.897  0.3826 -1.3301 -0.1335
36632SOL     OW12148   6.115   2.287   1.917 -0.5624 -0.0898 -0.6090
36632SOL    HW112149   6.086   2.220   1.855  2.0180 -1.9841  0.0552
36632SOL    HW212150   6.199   2.316   1.882  0.2374 -0.1298  1.1932
36633SOL     OW12151   6.036   2.263   8.401 -0.3479  0.2158 -0.9098
36633SOL    HW112152   6.019   2.213   8.321 -0.5529  2.3792 -2.3166
36633SOL    HW212153   6.127   2.292   8.392 -0.3699  0.4625 -0.3452
36634SOL     OW12154   3.793   0.325   3.746  0.3113 -0.0666  0.3848
36634SOL    HW112155   3.716   0.370   3.713  0.1401 -0.0937  0.7437
36634SOL    HW212156   3.772   0.232   3.740  0.6177 -0.1005 -0.2427
36635SOL     OW12157   4.999   5.259   4.336 -0.1081 -0.1739 -0.0462
36635SOL    HW112158   4.973   5.241   4.426  0.9646 -1.4559  0.0383
36635SOL    HW212159   5.053   5.337   4.342  0.2563 -0.4626  0.4782
36636SOL     OW12160   3.697   6.660   6.984 -0.1916 -0.4382  0.2100
36636SOL    HW112161   3.726   6.723   6.918 -0.0091 -1.0152 -0.2682
36636SOL    HW212162   3.608   6.636   6.956  0.2633 -1.4536 -0.4173
36637SOL     OW12163   0.534   6.775   7.284  0.3249 -0.0041  0.2418
36637SOL    HW112164   0.510   6.711   7.352 -1.7974  1.5022  1.0410
36637SOL    HW212165   0.574   6.847   7.333  0.9146  0.1040 -0.3996
36638SOL     OW12166   2.205  10.478   7.465  0.0047 -0.1138  0.0912
36638SOL    HW112167   2.112  10.479   7.440 -0.1915  2.4221  0.5915
36638SOL    HW212168   2.205  10.448   7.556 -0.1469 -1.4592 -0.3340
36639SOL     OW12169   7.513   4.945   6.935  0.2030 -0.4784 -0.3133
36639SOL    HW112170   7.435   4.905   6.973 -1.0130  0.2203 -1.9284
36639SOL    HW212171   7.527   4.895   6.854  0.3405  0.5358 -0.9268
36640SOL     OW12172   9.799   1.744   7.799 -0.0764  0.4568  0.3311
36640SOL    HW112173   9.882   1.753   7.750  0.0737 -2.4421 -0.1156
36640SOL    HW212174   9.740   1.805   7.756  0.9220  0.1740 -1.5817
36641SOL     OW12175   6.020   0.826   9.014  0.0922 -0.4253  0.6650
36641SOL    HW112176   6.015   0.760   9.083  2.8132 -2.6979 -1.0780
36641SOL    HW212177   5.931   0.831   8.979 -0.4443 -2.3332  1.6230
36642SOL     OW12178   3.198   8.278   4.913 -0.6154  0.4743  0.0217
36642SOL    HW112179   3.178   8.288   4.820 -0.2607 -0.3836 -0.1581
36642SOL    HW212180   3.231   8.189   4.921  0.4836  0.9231  0.7700
36643SOL     OW12181   3.167   7.298   4.329 -0.2115  0.5641  0.5009
36643SOL    HW112182   3.129   7.384   4.308  0.0776  0.4298 -0.6658
36643SOL    HW212183   3.196   7.264   4.244  1.7743  0.3030  1.2449
36644SOL     OW12184   4.358   6.017   6.512 -0.3325 -0.2230 -0.0860
36644SOL    HW112185   4.273   6.031   6.553 -0.1584 -1.2818  0.6952
36644SOL    HW212186   4.368   5.922   6.510  0.4252 -0.1375 -1.0409
36645SOL     OW12187   3.391   5.594   5.877  0.1332  0.3731  0.1334
36645SOL    HW112188   3.480   5.586   5.843  0.4615 -1.2786  1.2659
36645SOL    HW212189   3.396   5.664   5.941  0.9183 -0.4332  0.9884
36646SOL     OW12190   6.647   8.072   3.707  0.4004  0.3444 -0.1819
36646SOL    HW112191   6.559   8.106   3.694  0.7318  2.3828  2.3109
36646SOL    HW212192   6.703   8.149   3.713  1.7573 -0.7055  2.1052
36647SOL     OW12193   9.356   3.671   4.220 -0.2704  0.7354 -0.0657
36647SOL    HW112194   9.429   3.610   4.229 -1.0811 -0.3322 -0.5308
36647SOL    HW212195   9.379   3.726   4.145  0.1916  0.6149 -0.0143
36648SOL     OW12196   7.122   4.025   9.243  0.0721  0.4238 -0.1092
36648SOL    HW112197   7.159   3.982   9.165 -0.9073  0.9855 -0.9075
36648SOL    HW212198   7.198   4.066   9.285  0.5328  0.6621 -1.1288
36649SOL     OW12199   9.647   5.049   3.844 -0.2073  0.0942  0.3168
36649SOL    HW112200   9.721   5.069   3.901 -1.6206  0.1643  2.2115
36649SOL    HW212201   9.590   4.993   3.897 -1.8213  0.5695 -0.8434
36650SOL     OW12202   6.964   9.278   9.426 -0.3784  0.1010 -0.7172
36650SOL    HW112203   6.914   9.318   9.497  0.8477  2.4598 -1.0864
36650SOL    HW212204   7.048   9.255   9.466  0.3215  1.4492 -1.3603
36651SOL     OW12205   2.666   0.090   5.256 -0.1576 -0.0567  0.3875
36651SOL    HW112206   2.675   0.159   5.190  1.3372 -0.3154  0.2928
36651SOL    HW212207   2.582   0.049   5.235 -0.6712  1.1688 -0.0775
36652SOL     OW12208  10.537   2.792   6.800 -0.0074  0.2366 -0.3028
36652SOL    HW112209  10.462   2.776   6.856  0.8622 -2.7965  0.1759
36652SOL    HW212210  10.604   2.830   6.858 -0.5898  1.4569 -0.3912
36653SOL     OW12211   5.507  10.106   5.069  0.3283 -0.5405  0.5732
36653SOL    HW112212   5.543  10.194   5.055 -1.4006  0.2219  0.7260
36653SOL    HW212213   5.517  10.090   5.163  1.0518 -0.7103  0.4735
36654SOL     OW12214   3.248   7.527   2.580 -0.0047 -0.0255 -0.2357
36654SOL    HW112215   3.288   7.602   2.624 -1.3589 -0.0752  1.1577
36654SOL    HW212216   3.168   7.561   2.541 -0.2917 -0.6174 -0.1768
36655SOL     OW12217   2.841   4.600   0.705 -0.3135 -0.7615 -0.4183
36655SOL    HW112218   2.915   4.611   0.645 -0.2704  0.2091 -0.1999
36655SOL    HW212219   2.880   4.562   0.784  0.1869  0.9048  0.1645
36656SOL     OW12220   9.105  10.301   5.872 -0.1919  0.1507 -0.2006
36656SOL    HW112221   9.166  10.230   5.852 -1.4162 -1.0351  0.1104
36656SOL    HW212222   9.079  10.335   5.786  1.3907  1.1408 -0.3265
36657SOL     OW12223   7.175   8.206   5.700 -0.0030  0.1742 -0.2308
36657SOL    HW112224   7.089   8.182   5.735 -0.1743 -0.5804 -1.1305
36657SOL    HW212225   7.220   8.246   5.774 -0.8067 -0.2278  0.5010
36658SOL     OW12226   8.291   2.862   8.310  0.7207  0.0049  0.0997
36658SOL    HW112227   8.329   2.797   8.251 -0.3309 -0.8673  0.3664
36658SOL    HW212228   8.360   2.928   8.320  1.9307 -1.2140  0.0710
36659SOL     OW12229   6.526   9.263   4.091  0.1289  0.6308 -0.4785
36659SOL    HW112230   6.535   9.269   4.186  1.5839 -0.6417 -0.4968
36659SOL    HW212231   6.558   9.347   4.059  1.5659  0.3374  0.0850
36660SOL     OW12232   1.721  10.378   4.782 -0.2343 -0.1654 -0.2563
36660SOL    HW112233   1.764  10.431   4.849 -1.4218 -0.5626  0.8449
36660SOL    HW212234   1.729  10.431   4.702  1.6685  0.0653  0.0353
36661SOL     OW12235   3.178   7.333   8.163 -0.4110 -0.1894 -0.3895
36661SOL    HW112236   3.149   7.269   8.099 -1.1572 -0.8744  0.6044
36661SOL    HW212237   3.160   7.292   8.248  2.4860 -0.2061  0.3159
36662SOL     OW12238   1.622   3.948   9.317 -0.0850 -0.0230  0.2280
36662SOL    HW112239   1.634   3.982   9.228  0.3817 -0.5826  0.0678
36662SOL    HW212240   1.655   3.858   9.313 -2.0918 -0.8165  0.4245
36663SOL     OW12241   2.290   5.576   2.925 -0.7672  0.2270 -0.2537
36663SOL    HW112242   2.306   5.671   2.924  0.5313  0.0337 -0.8991
36663SOL    HW212243   2.210   5.564   2.873 -0.1096  0.8652 -1.4696
36664SOL     OW12244   0.420   0.417   1.320 -0.2980  0.5487 -0.4487
36664SOL    HW112245   0.497   0.398   1.374  0.3312  1.0251 -1.1572
36664SOL    HW212246   0.387   0.330   1.295 -1.8450  0.2208  2.3373
36665SOL     OW12247   9.510  10.531   9.354 -0.4103  0.2529  0.9116
36665SOL    HW112248   9.536  10.452   9.401 -1.2625 -1.2982 -1.0631
36665SOL    HW212249   9.504  10.504   9.262 -1.3669  2.4579  0.2466
36666SOL     OW12250   9.042   1.427   3.349  0.7577  0.1203  0.1656
36666SOL    HW112251   9.051   1.461   3.259 -0.1683 -0.1754 -0.0554
36666SOL    HW212252   9.061   1.334   3.342  0.8758  0.1336  0.3109
36667SOL     OW12253   8.074   0.104   0.204 -0.0408 -0.3092  0.2995
36667SOL    HW112254   8.137   0.175   0.214  0.0273 -0.4743  1.1081
36667SOL    HW212255   8.004   0.142   0.152 -0.0658  0.3965  0.8261
36668SOL     OW12256  10.174   2.863   5.067 -0.2526  0.0447  0.4509
36668SOL    HW112257  10.113   2.827   5.003 -0.9578 -0.8670  1.5896
36668SOL    HW212258  10.259   2.830   5.041 -0.7469 -1.6955  0.8863
36669SOL     OW12259   4.078   5.469   4.306 -0.2214 -0.1993  0.7896
36669SOL    HW112260   4.170   5.444   4.313 -0.5698 -1.6894  0.3212
36669SOL    HW212261   4.044   5.418   4.232 -1.6929 -0.4917  1.6297
36670SOL     OW12262   1.891   8.461   1.121  0.4447 -0.1375  0.0186
36670SOL    HW112263   1.908   8.498   1.034 -1.1514 -0.6341 -0.5405
36670SOL    HW212264   1.876   8.368   1.104  0.4170 -0.2919  0.8757
36671SOL     OW12265   9.315   7.375   5.700  0.1015  0.1816 -0.2321
36671SOL    HW112266   9.377   7.444   5.675  1.0338 -0.3289  0.5731
36671SOL    HW212267   9.258   7.415   5.765 -0.2484  0.5808 -0.7820
36672SOL     OW12268   3.781   1.712   7.574 -0.5131 -0.1803 -0.2630
36672SOL    HW112269   3.797   1.651   7.502 -2.7691  0.7206 -1.6067
36672SOL    HW212270   3.692   1.692   7.604 -0.2186  0.5514  1.2097
36673SOL     OW12271  10.370   9.458   3.250  0.1223  0.1855  0.1292
36673SOL    HW112272  10.314   9.535   3.239 -1.2699 -0.6817  0.8481
36673SOL    HW212273  10.346   9.423   3.336  0.3785 -1.3073 -0.3827
36674SOL     OW12274  10.361   2.185   9.844  0.4063 -0.0355 -0.4034
36674SOL    HW112275  10.315   2.241   9.781  0.1983 -0.3328 -0.5217
36674SOL    HW212276  10.297   2.119   9.868 -0.0641  0.9958  1.3744
36675SOL     OW12277   0.021   4.951   3.527 -0.2431 -0.1763  0.4218
36675SOL    HW112278   0.085   4.998   3.580 -1.5956  1.2709  0.8498
36675SOL    HW212279   0.044   4.858   3.538  2.3261  0.3123 -0.2184
36676SOL     OW12280   9.722   6.631   8.787 -0.4818  0.3168  0.0355
36676SOL    HW112281   9.780   6.692   8.742 -1.2107  1.5722  0.7358
36676SOL    HW212282   9.757   6.625   8.875 -1.5741  1.3690  0.5728
36677SOL     OW12283   1.765   6.273   0.201  0.5027 -0.2786 -1.0299
36677SOL    HW112284   1.796   6.363   0.195  0.0444 -0.1595 -1.7669
36677SOL    HW212285   1.681   6.278   0.246  1.1930 -0.5211  0.3209
36678SOL     OW12286   1.337  10.205   5.018 -0.0580  0.0702 -0.4568
36678SOL    HW112287   1.348  10.138   4.951  0.7705 -0.3647  0.1052
36678SOL    HW212288   1.263  10.257   4.987 -0.4474 -0.8421 -1.1055
36679SOL     OW12289   4.479   0.153   6.582  0.2734 -0.2860 -0.1323
36679SOL    HW112290   4.506   0.215   6.650  1.4192  1.5341 -2.0983
36679SOL    HW212291   4.413   0.098   6.624  1.5181  0.1833  2.6589
36680SOL     OW12292   6.127   2.680   1.140  0.0618  0.2671  0.0120
36680SOL    HW112293   6.108   2.734   1.217 -2.1945  1.6414 -1.4031
36680SOL    HW212294   6.199   2.726   1.096  0.9093 -0.1627  0.9060
36681SOL     OW12295   2.225  10.197   4.625  0.2293 -0.3862  0.1945
36681SOL    HW112296   2.279  10.252   4.683 -0.2288 -1.0654  1.2979
36681SOL    HW212297   2.242  10.231   4.537  0.5395  1.0215  0.7705
36682SOL     OW12298   4.855   8.082  10.403 -0.2104  0.0164  0.2398
36682SOL    HW112299   4.923   8.019  10.379  0.8893  1.4861 -0.6663
36682SOL    HW212300   4.773   8.038  10.382  0.5652 -0.7860 -1.2330
36683SOL     OW12301   1.224   2.278   2.112  0.2514  0.3076 -0.5740
36683SOL    HW112302   1.213   2.225   2.033  2.3694 -1.7538  0.3863
36683SOL    HW212303   1.151   2.254   2.168 -0.3071  0.4963 -1.2024
36684SOL     OW12304   0.381   0.962   0.248 -0.1034 -0.4516  0.2439
36684SOL    HW112305   0.352   0.911   0.172 -2.7931  1.8059 -0.4073
36684SOL    HW212306   0.469   0.991   0.226 -1.2581  1.2087 -2.6953
36685SOL     OW12307   9.722   3.492   5.733  0.2822 -0.0255  0.2162
36685SOL    HW112308   9.680   3.577   5.742  0.7874  0.3364 -0.7178
36685SOL    HW212309   9.787   3.489   5.804 -0.2076  0.0701  0.6751
36686SOL     OW12310   0.194   2.535   4.081  0.4252  0.1260 -0.0092
36686SOL    HW112311   0.246   2.459   4.055 -1.6706 -1.3187 -0.3002
36686SOL    HW212312   0.166   2.515   4.171 -0.1181  0.5621 -0.0772
36687SOL     OW12313   5.809   2.771   4.346  0.0649  0.2565  0.5004
36687SOL    HW112314   5.897   2.735   4.335 -0.0792 -0.1336  0.6334
36687SOL    HW212315   5.754   2.716   4.290 -0.2212  0.0080  1.0282
36688SOL     OW12316   5.493   2.666   0.661 -0.4175  0.2337 -0.0362
36688SOL    HW112317   5.445   2.731   0.608 -1.6700  0.4771  1.3325
36688SOL    HW212318   5.561   2.717   0.705  0.8666 -0.0271 -1.5916
36689SOL     OW12319   3.029  10.305   8.167  0.0074 -0.4994 -0.1556
36689SOL    HW112320   3.047  10.312   8.261  1.6874  3.3236 -0.5746
36689SOL    HW212321   2.936  10.282   8.162 -0.6776  1.1884  2.5351
36690SOL     OW12322   2.386   2.684   5.205  0.6615  0.2503 -0.0935
36690SOL    HW112323   2.474   2.715   5.185  0.5208 -0.6484 -2.3876
36690SOL    HW212324   2.398   2.591   5.225  0.2472  0.1460 -0.3213
36691SOL     OW12325   8.935   4.268   5.807  0.0501  0.0417 -0.5439
36691SOL    HW112326   8.925   4.295   5.899  0.2137 -0.3654 -0.4027
36691SOL    HW212327   8.963   4.347   5.762 -1.0770  0.5195 -0.4463
36692SOL     OW12328   3.888   4.795   0.220 -0.6478  0.3446 -0.1678
36692SOL    HW112329   3.856   4.714   0.260  0.1746 -0.9987 -2.0724
36692SOL    HW212330   3.979   4.803   0.251  0.1986 -1.0362 -2.1123
36693SOL     OW12331   6.956   8.958   2.119  0.1414  0.2190 -0.3093
36693SOL    HW112332   6.872   8.942   2.162  0.7486  1.2197  1.3236
36693SOL    HW212333   7.015   8.984   2.190  1.1133  2.2207 -1.7704
36694SOL     OW12334  10.534   3.068   9.961  0.0500  0.0686  0.0286
36694SOL    HW112335  10.572   3.136  10.017 -0.8762  1.5244 -1.0446
36694SOL    HW212336  10.604   3.046   9.900 -0.2330  1.5449 -0.8881
36695SOL     OW12337   6.056   9.311   1.880  0.2006 -0.3010 -0.3608
36695SOL    HW112338   6.035   9.305   1.973 -1.2367 -0.4759 -0.6694
36695SOL    HW212339   6.142   9.353   1.877 -0.2849  0.8588  1.0077
36696SOL     OW12340   9.276   7.293  10.552  0.1152 -0.2817  0.6314
36696SOL    HW112341   9.201   7.234  10.563 -0.7380  0.8855  1.4705
36696SOL    HW212342   9.243   7.363  10.495  0.8401 -0.1979  0.3101
36697SOL     OW12343   2.498   6.207   6.782  0.2997 -0.2539 -0.3275
36697SOL    HW112344   2.412   6.182   6.748  0.8080 -2.3621 -0.2129
36697SOL    HW212345   2.542   6.124   6.799  1.2564  0.7045  2.5178
36698SOL     OW12346   6.989   2.828   7.216 -0.1173 -0.0725  0.4739
36698SOL    HW112347   6.897   2.805   7.232  0.1890 -2.2483 -0.5626
36698SOL    HW212348   6.989   2.870   7.131 -0.0929 -0.6902  0.1618
36699SOL     OW12349  10.365   8.278   1.867 -0.1423 -0.1140  0.2255
36699SOL    HW112350  10.450   8.312   1.838 -0.2684  0.5475  0.6201
36699SOL    HW212351  10.373   8.183   1.856  0.4811 -0.0227 -0.1817
36700SOL     OW12352   2.343   3.110   7.284  0.7532  0.4678  0.2289
36700SOL    HW112353   2.409   3.092   7.217 -2.3568 -2.3013 -2.4081
36700SOL    HW212354   2.294   3.185   7.250  1.2692  1.2766  1.2152
36701SOL     OW12355   9.840   3.642   3.088 -0.5346  0.3934  0.7815
36701SOL    HW112356   9.909   3.620   3.150 -0.5017  2.1148  1.4231
36701SOL    HW212357   9.768   3.674   3.143 -0.4727  2.0432 -0.0425
36702SOL     OW12358   9.854   5.340   5.522 -0.1064 -0.1933  0.1482
36702SOL    HW112359   9.854   5.436   5.519 -0.0253 -0.2061 -0.3747
36702SOL    HW212360   9.916   5.318   5.591  0.9372  0.1104 -0.6710
36703SOL     OW12361   8.280   1.763   4.699  0.1640 -0.0332  0.1079
36703SOL    HW112362   8.312   1.685   4.655  0.9153  0.5726 -0.4494
36703SOL    HW212363   8.263   1.735   4.789  1.9765 -0.4710  0.3466
36704SOL     OW12364   3.806   2.741   1.465  0.4292  0.2674 -0.2165
36704SOL    HW112365   3.778   2.812   1.407  1.0911  0.2554 -0.5581
36704SOL    HW212366   3.728   2.720   1.517 -1.9246 -3.2258 -4.4934
36705SOL     OW12367   0.813   6.911   9.082  0.4783  0.0909  0.0607
36705SOL    HW112368   0.865   6.947   9.154  0.2286 -2.6659  1.7632
36705SOL    HW212369   0.722   6.927   9.108  0.3430  2.0547 -1.3697
36706SOL     OW12370   9.051   4.693   0.702 -0.0559 -0.1336  0.0145
36706SOL    HW112371   9.145   4.709   0.688 -0.1044 -0.4409 -0.7349
36706SOL    HW212372   9.012   4.780   0.703  0.2439 -0.0009  0.4004
36707SOL     OW12373   8.535   8.160   3.074 -0.7266 -0.1651 -0.0667
36707SOL    HW112374   8.511   8.181   3.164  0.6717  0.1768  0.2429
36707SOL    HW212375   8.519   8.241   3.025 -0.4105 -0.0088  0.0906
36708SOL     OW12376   3.323   9.022   0.773  0.5172 -0.4064  0.2552
36708SOL    HW112377   3.282   9.010   0.859 -1.0676 -0.2413 -0.4338
36708SOL    HW212378   3.314   9.115   0.754 -3.5328 -1.0097 -2.0354
36709SOL     OW12379   6.494  10.022   4.488  0.4859 -0.5120  0.5300
36709SOL    HW112380   6.528   9.953   4.545  1.5453  0.3101  0.9396
36709SOL    HW212381   6.562  10.090   4.489 -1.0377  1.0979  1.1483
36710SOL     OW12382   6.543   1.705  10.043 -0.6695 -0.2611 -0.1287
36710SOL    HW112383   6.458   1.721  10.000 -2.1972  1.4203  3.1632
36710SOL    HW212384   6.539   1.757  10.123  3.0318 -1.1480  0.7929
36711SOL     OW12385   9.323   4.530   0.244  0.5646 -0.5837 -0.5354
36711SOL    HW112386   9.345   4.448   0.287  1.6380  0.3797  0.8297
36711SOL    HW212387   9.389   4.592   0.275 -2.4021  1.8001  1.5716
36712SOL     OW12388   6.473  10.225   8.555 -0.4082 -0.0922  0.3228
36712SOL    HW112389   6.428  10.210   8.472  0.6930  2.1842 -0.7837
36712SOL    HW212390   6.529  10.148   8.566 -0.8621 -0.6117 -0.8461
36713SOL     OW12391   7.246   8.187   4.822  0.0387  0.1991 -0.7994
36713SOL    HW112392   7.151   8.181   4.833  0.2835  0.5953  2.2566
36713SOL    HW212393   7.264   8.281   4.815  0.3065  0.2240  0.1048
36714SOL     OW12394   6.061   2.944   7.984 -0.4034 -0.2337 -0.7352
36714SOL    HW112395   6.032   2.919   8.072 -0.3388 -1.0041 -0.9242
36714SOL    HW212396   6.031   3.033   7.973  1.7232  0.8108  1.0420
36715SOL     OW12397   3.889   0.601   3.098 -0.1998 -0.6035  0.4668
36715SOL    HW112398   3.800   0.621   3.069 -0.0715 -0.5638  0.0965
36715SOL    HW212399   3.893   0.633   3.189 -0.3839 -0.0803  0.2931
36716SOL     OW12400   7.106   1.186   6.797  0.3317 -0.2908 -0.2292
36716SOL    HW112401   7.102   1.134   6.878  1.7442  2.1390  1.5155
36716SOL    HW212402   7.014   1.209   6.779 -0.3337 -3.1141 -0.9951
36717SOL     OW12403   9.433   5.660   6.548 -0.1968  0.0159 -0.1573
36717SOL    HW112404   9.458   5.697   6.633  0.7194 -0.2849 -0.2790
36717SOL    HW212405   9.358   5.712   6.520 -0.0919  0.5529  0.5324
36718SOL     OW12406   0.464   6.692   7.626  0.3554 -0.1797  0.1550
36718SOL    HW112407   0.474   6.786   7.615  0.3981 -0.2167 -0.1403
36718SOL    HW212408   0.440   6.660   7.539 -0.1427 -0.3791  0.3574
36719SOL     OW12409   5.746   8.500   2.686  0.3285 -0.1025 -0.0712
36719SOL    HW112410   5.787   8.436   2.744 -0.5539  0.7417  1.5436
36719SOL    HW212411   5.820   8.541   2.641  1.0328 -0.8235  0.3984
36720SOL     OW12412  10.411   1.335   3.601 -0.0688 -0.1367 -0.1467
36720SOL    HW112413  10.406   1.426   3.631 -2.1170 -0.0909 -0.4706
36720SOL    HW212414  10.320   1.307   3.594  0.5013 -2.0095 -0.7254
36721SOL     OW12415   6.662   6.760   0.994 -0.0730  0.6324 -0.0227
36721SOL    HW112416   6.737   6.702   1.009 -0.4828 -0.1608 -0.9170
36721SOL    HW212417   6.638   6.791   1.081  0.3494 -0.3070  0.4464
36722SOL     OW12418   5.899   3.039   4.323 -0.3528  0.1164 -0.0322
36722SOL    HW112419   5.862   2.951   4.328 -0.6225  0.2586  0.6840
36722SOL    HW212420   5.975   3.036   4.383 -0.0959  0.2463 -0.3485
36723SOL     OW12421   1.745   5.887   5.119 -0.2419 -0.2689  0.7724
36723SOL    HW112422   1.676   5.876   5.185  0.0853 -2.6855  0.7963
36723SOL    HW212423   1.826   5.868   5.166  0.1518 -0.3238  0.0802
36724SOL     OW12424   8.082   9.023   4.162 -0.4278 -0.0004 -0.4824
36724SOL    HW112425   8.141   9.081   4.114  0.7877 -0.2392  0.6760
36724SOL    HW212426   8.067   9.067   4.245  1.8658 -1.9894  1.1289
36725SOL     OW12427   2.335   4.946   4.323  0.1774 -0.6098  0.2915
36725SOL    HW112428   2.282   5.020   4.351 -1.9895 -1.6062 -0.9431
36725SOL    HW212429   2.389   4.980   4.251  0.3614  0.1395  0.7817
36726SOL     OW12430   1.453   8.232   4.680  0.5312  0.0446 -0.3445
36726SOL    HW112431   1.460   8.271   4.767 -0.6297  2.8356 -1.3676
36726SOL    HW212432   1.415   8.145   4.695  0.7298  0.3115  1.9449
36727SOL     OW12433   9.067   2.590   9.888  0.1926 -0.7808 -0.4239
36727SOL    HW112434   8.980   2.593   9.928 -0.6744 -2.0407 -2.1054
36727SOL    HW212435   9.076   2.676   9.847  0.9327  0.3809  2.0059
36728SOL     OW12436   1.754   3.317   3.201  0.2597  0.0177 -0.2976
36728SOL    HW112437   1.665   3.345   3.220  0.5501  0.6715  0.1331
36728SOL    HW212438   1.806   3.397   3.209  0.4937  0.2711 -3.2785
36729SOL     OW12439   2.827   3.980   9.469  0.2559  0.0579  0.0483
36729SOL    HW112440   2.831   4.055   9.411 -0.1816  1.2033  1.4561
36729SOL    HW212441   2.804   4.016   9.555 -0.4879 -1.7263  0.6548
36730SOL     OW12442   8.231   5.453   5.463  0.0233 -0.2822  0.2524
36730SOL    HW112443   8.268   5.365   5.460  1.4101  0.2809  0.5487
36730SOL    HW212444   8.201   5.469   5.373  1.1884 -0.4578 -0.1755
36731SOL     OW12445   4.756  10.545   6.833 -0.0182  0.0682 -0.9762
36731SOL    HW112446   4.831  10.506   6.789 -0.5779 -1.1075 -0.9130
36731SOL    HW212447   4.684  10.485   6.816 -0.2433 -0.5338  1.6247
36732SOL     OW12448   7.085   7.835   8.542  0.1854  0.6349 -0.0768
36732SOL    HW112449   7.041   7.773   8.601  1.0954  0.4010  0.3858
36732SOL    HW212450   7.058   7.921   8.574 -0.9034  0.4991 -0.5774
36733SOL     OW12451   3.358   4.369   0.068  0.1579 -0.0799  0.4149
36733SOL    HW112452   3.323   4.312  -0.001  0.6242 -0.7570  0.7255
36733SOL    HW212453   3.441   4.328   0.093  0.2133  0.4124  1.0553
36734SOL     OW12454   0.220   5.517   4.047 -0.8334 -0.1734 -0.4504
36734SOL    HW112455   0.237   5.562   3.963  0.0096  3.5491  1.4848
36734SOL    HW212456   0.247   5.581   4.113 -0.6413 -3.2754  2.7092
36735SOL     OW12457   1.573   4.282   1.966 -0.0085 -0.5587  0.2328
36735SOL    HW112458   1.477   4.292   1.966 -0.1322 -1.5982  0.6728
36735SOL    HW212459   1.604   4.343   2.032 -0.3996 -0.4452  0.3136
36736SOL     OW12460   2.658   7.997  10.333 -0.3032 -0.2666 -0.0019
36736SOL    HW112461   2.698   8.059  10.272  0.6976  0.3617  1.2250
36736SOL    HW212462   2.567   7.989  10.304  0.5997 -1.5423 -2.7376
36737SOL     OW12463   3.343   8.532   7.607  0.6065 -0.3304  0.8595
36737SOL    HW112464   3.316   8.597   7.543  0.8460 -1.0103  0.0606
36737SOL    HW212465   3.370   8.584   7.684 -0.9352  0.4464  0.9193
36738SOL     OW12466   0.196  10.585   9.817  0.9015 -0.1757 -0.5955
36738SOL    HW112467   0.229  10.659   9.766 -0.0717  1.4549  1.0308
36738SOL    HW212468   0.181  10.621   9.905 -0.3121 -2.1213  0.0513
36739SOL     OW12469   7.819   1.054   0.152 -0.2627  0.2695 -0.2827
36739SOL    HW112470   7.886   1.115   0.123  0.1596  0.4262  0.9414
36739SOL    HW212471   7.788   1.090   0.235  0.6263 -1.5895  0.9310
36740SOL     OW12472   3.437   3.119   5.352  0.0691 -0.4705 -0.3397
36740SOL    HW112473   3.525   3.108   5.316 -0.1984 -0.7238 -0.9351
36740SOL    HW212474   3.426   3.046   5.413 -0.0460 -0.9450 -0.9205
36741SOL     OW12475   1.498   5.574   0.028 -0.3143 -0.1656 -0.3080
36741SOL    HW112476   1.458   5.659   0.008 -1.2437 -0.4736  0.1649
36741SOL    HW212477   1.474   5.518  -0.046 -0.7389 -0.3418 -0.0397
36742SOL     OW12478   3.940   8.613   6.109 -0.2728  0.0745  0.6378
36742SOL    HW112479   3.929   8.703   6.139 -0.1189  0.1139  0.5762
36742SOL    HW212480   3.919   8.615   6.016 -0.6065 -0.0193  0.7116
36743SOL     OW12481   4.235   6.613   6.864  0.2832  0.0339 -0.3238
36743SOL    HW112482   4.161   6.670   6.843  1.2851  0.7946 -1.9862
36743SOL    HW212483   4.212   6.529   6.824  0.5831  0.4510 -1.3959
36744SOL     OW12484   3.635   8.493   2.929  0.2104  0.1595  0.0908
36744SOL    HW112485   3.690   8.551   2.981  1.6366  0.3841 -1.5598
36744SOL    HW212486   3.674   8.406   2.941  0.3981  0.1739 -0.3969
36745SOL     OW12487   8.087   3.851   0.987  0.1123 -0.5922 -0.2446
36745SOL    HW112488   7.996   3.823   0.988 -0.7237  1.8189  1.1577
36745SOL    HW212489   8.085   3.938   0.947  1.8659 -0.6766 -0.5858
36746SOL     OW12490   5.172   4.545   0.185  0.8756 -0.6073  0.0398
36746SOL    HW112491   5.229   4.534   0.261  1.3924  1.4632  0.0071
36746SOL    HW212492   5.216   4.610   0.130  0.0492 -1.3427 -1.5850
36747SOL     OW12493   5.682   2.952  10.424  0.0436  0.1832 -0.6757
36747SOL    HW112494   5.708   2.871  10.467 -0.8853  0.8790  1.2974
36747SOL    HW212495   5.745   2.963  10.352  1.0023 -1.5634 -0.1383
36748SOL     OW12496  10.400   8.321   2.466 -0.4034 -0.6809  0.0055
36748SOL    HW112497  10.403   8.304   2.371  0.4225 -0.9895  0.0734
36748SOL    HW212498  10.326   8.380   2.478 -0.5072 -0.6264 -0.8386
36749SOL     OW12499   7.952   0.043   9.783 -0.2711  0.2138 -0.0096
36749SOL    HW112500   7.955   0.133   9.752 -0.0931  0.3369  0.3498
36749SOL    HW212501   7.897  -0.003   9.720  2.4266 -0.2270 -2.2529
36750SOL     OW12502   5.390   2.850  10.577 -0.0383  0.0358 -0.2871
36750SOL    HW112503   5.325   2.825  10.511 -0.8836  2.1450 -0.3427
36750SOL    HW212504   5.454   2.903  10.529 -0.6560  1.5810  0.5294
36751SOL     OW12505   4.037   9.775   9.828  0.2190 -0.3094  0.3942
36751SOL    HW112506   4.083   9.766   9.744  1.0632  3.1367  0.3528
36751SOL    HW212507   3.945   9.778   9.805  0.4743  1.3441 -0.5628
36752SOL     OW12508   5.468   2.934   8.937 -0.3745 -0.1663  0.2298
36752SOL    HW112509   5.393   2.896   8.983 -0.5437 -0.8822 -0.5950
36752SOL    HW212510   5.474   3.024   8.971  1.1614 -1.3918  3.5640
36753SOL     OW12511  10.256   1.762   7.494  0.8359  0.4809  0.7472
36753SOL    HW112512  10.283   1.691   7.435 -0.2971 -0.7359  1.6257
36753SOL    HW212513  10.317   1.756   7.568  0.9799  0.6672  0.6426
36754SOL     OW12514   9.604   4.506   0.709  0.5593  0.1184  0.3433
36754SOL    HW112515   9.614   4.507   0.614  1.3104  0.9160  0.4121
36754SOL    HW212516   9.642   4.589   0.738  0.0582  0.0271  1.3139
36755SOL     OW12517   3.916   6.686   5.701  0.2788  0.0526 -0.4922
36755SOL    HW112518   3.850   6.659   5.765 -0.5406 -0.9135 -1.7087
36755SOL    HW212519   3.867   6.729   5.632  1.1073  0.6994 -0.6957
36756SOL     OW12520   8.959   3.273   6.933  0.1658 -0.6178  0.1688
36756SOL    HW112521   8.938   3.197   6.879  0.9405  0.7100 -2.1271
36756SOL    HW212522   9.052   3.263   6.952  0.1576 -0.4862  0.2770
36757SOL     OW12523  10.223   8.182   2.732 -0.6870  0.5889 -0.0752
36757SOL    HW112524  10.221   8.243   2.806  0.3635 -0.1259  0.5666
36757SOL    HW212525  10.235   8.237   2.655  0.5661  1.1859  0.5251
36758SOL     OW12526   5.453   8.112   0.875 -0.6104  0.1307 -0.0737
36758SOL    HW112527   5.443   8.110   0.970  0.3957 -0.9032  0.0192
36758SOL    HW212528   5.547   8.122   0.860 -0.7640  0.3485 -0.9638
36759SOL     OW12529   9.169   4.428   6.444  0.4718  0.5333 -0.0489
36759SOL    HW112530   9.203   4.469   6.524  0.5071 -0.9905  0.7444
36759SOL    HW212531   9.201   4.338   6.447 -1.5408 -0.2575 -0.5274
36760SOL     OW12532   9.611  10.332   8.590  0.2529  0.0324 -0.1601
36760SOL    HW112533   9.573  10.253   8.553 -1.1822 -0.0025  1.2730
36760SOL    HW212534   9.542  10.398   8.582 -0.9173 -0.3967  3.8136
36761SOL     OW12535   3.878   9.981   9.249  0.1553 -0.2933  0.0209
36761SOL    HW112536   3.810  10.041   9.217  0.3931 -0.3487 -0.6018
36761SOL    HW212537   3.862   9.975   9.344  1.2327  2.1669  0.4312
36762SOL     OW12538   9.866   3.678   4.273  0.1230 -0.1408  0.3344
36762SOL    HW112539   9.853   3.772   4.260  0.2560 -0.3873 -2.1217
36762SOL    HW212540   9.935   3.672   4.338 -0.2898  1.4413  0.9672
36763SOL     OW12541   9.303   7.386   9.749 -0.2865 -0.5083 -0.3364
36763SOL    HW112542   9.258   7.362   9.830 -0.9264 -1.3618 -0.9340
36763SOL    HW212543   9.249   7.350   9.680  0.4143 -0.0392 -1.1463
36764SOL     OW12544  10.269   5.725   6.083 -0.1782  0.0544  0.2128
36764SOL    HW112545  10.284   5.675   6.163 -0.8025  1.3887  1.1991
36764SOL    HW212546  10.344   5.704   6.027  0.5680 -0.4614  1.3796
36765SOL     OW12547   7.585   0.833   9.002 -0.6450 -0.0598 -0.0117
36765SOL    HW112548   7.516   0.780   9.042 -1.5502  0.8525 -0.3247
36765SOL    HW212549   7.544   0.873   8.926 -0.2474  1.7757  0.6868
36766SOL     OW12550   1.177  10.452   9.463  0.1519 -0.5714 -0.2477
36766SOL    HW112551   1.241  10.402   9.412  1.7173 -0.1648  1.1920
36766SOL    HW212552   1.141  10.516   9.402  1.3774 -0.6156 -1.0462
36767SOL     OW12553   3.309  10.218  10.297  0.0506 -0.1799  0.2238
36767SOL    HW112554   3.305  10.122  10.296  0.2061 -0.2135 -1.9203
36767SOL    HW212555   3.237  10.245  10.240  1.0409  0.9094 -0.5532
36768SOL     OW12556   6.174   6.800   3.911 -0.6330 -0.1788  0.0614
36768SOL    HW112557   6.192   6.858   3.986 -1.0356  0.4423 -0.3137
36768SOL    HW212558   6.090   6.831   3.877 -0.0975  0.0223 -1.1078
36769SOL     OW12559   8.478   5.801   7.630 -0.0257  0.0337  0.1093
36769SOL    HW112560   8.453   5.801   7.537  1.5788  0.8709 -0.3532
36769SOL    HW212561   8.405   5.846   7.673  0.9147  3.2241 -1.3166
36770SOL     OW12562   0.123   1.464   0.667 -0.1329  0.4354 -0.2053
36770SOL    HW112563   0.074   1.477   0.586 -0.0345  1.4905 -0.1080
36770SOL    HW212564   0.081   1.388   0.708  0.4678 -0.7520 -1.7174
36771SOL     OW12565   2.855  10.133   4.163 -0.6043  0.4531 -0.4152
36771SOL    HW112566   2.900  10.182   4.232  0.3759  0.4253 -1.0272
36771SOL    HW212567   2.762  10.155   4.176 -0.3153  1.4428  0.1348
36772SOL     OW12568   5.087   5.523   3.012 -0.3950  0.0435 -0.4338
36772SOL    HW112569   5.049   5.439   3.037  0.3616 -0.2115 -0.0886
36772SOL    HW212570   5.180   5.515   3.036 -0.3264  0.9962 -0.3430
36773SOL     OW12571   0.104   1.413   2.868 -0.3179  0.5591 -0.3012
36773SOL    HW112572   0.041   1.449   2.931  0.6406  2.3921 -0.2998
36773SOL    HW212573   0.080   1.321   2.859  0.3196 -0.1967  3.7596
36774SOL     OW12574   4.205   1.912   6.545 -0.8757  0.0182 -0.2592
36774SOL    HW112575   4.286   1.894   6.593  0.0718  0.7659 -1.5249
36774SOL    HW212576   4.230   1.905   6.453 -2.0617  1.0226 -0.6828
36775SOL     OW12577   1.544   0.651   3.865  0.4686 -0.5044 -0.2006
36775SOL    HW112578   1.520   0.566   3.901  0.5154 -0.2635  0.4026
36775SOL    HW212579   1.462   0.702   3.866  0.8148  0.0478  1.1026
36776SOL     OW12580  10.567   9.766   2.189  0.1568 -0.2960 -0.5016
36776SOL    HW112581  10.530   9.853   2.203  0.4954 -0.1160 -0.7081
36776SOL    HW212582  10.586   9.733   2.276  2.8852  1.0856 -0.5031
36777SOL     OW12583   0.958   1.568  10.335  0.0013  0.0371 -0.2319
36777SOL    HW112584   1.001   1.612  10.409  1.2251 -0.0057 -0.8957
36777SOL    HW212585   0.958   1.475  10.359 -0.1981  0.0946 -0.0019
36778SOL     OW12586   8.348   1.436   9.613 -0.1383 -0.2222  0.8865
36778SOL    HW112587   8.305   1.404   9.693  0.1504  3.1525  2.5551
36778SOL    HW212588   8.368   1.528   9.632  2.5630 -0.0582 -2.0364
36779SOL     OW12589   9.970  10.467   3.419  0.4231  0.0169 -0.2967
36779SOL    HW112590   9.902  10.530   3.392  0.4335  0.4499  0.6521
36779SOL    HW212591   9.928  10.382   3.411 -1.0586  0.3671  2.3762
36780SOL     OW12592   7.275   6.684   2.241  0.2348 -0.0317  0.5389
36780SOL    HW112593   7.327   6.704   2.164  0.3476 -1.3719  0.2535
36780SOL    HW212594   7.339   6.664   2.309  0.1767 -2.5213 -0.0328
36781SOL     OW12595   9.981   7.438   3.143 -0.2060 -0.3582 -0.2266
36781SOL    HW112596   9.964   7.344   3.142  1.9002 -0.8194  1.1615
36781SOL    HW212597  10.056   7.450   3.084  1.5117 -0.0516  1.9276
36782SOL     OW12598   2.428   9.448   2.425 -0.0040  0.0853 -0.3800
36782SOL    HW112599   2.516   9.447   2.387 -0.1170  0.9579 -0.6844
36782SOL    HW212600   2.437   9.496   2.507  0.0166 -0.8147  0.1556
36783SOL     OW12601   8.908   7.974   4.648 -0.6314 -0.3173 -0.4250
36783SOL    HW112602   8.982   8.015   4.692 -0.5360 -1.6261  0.6943
36783SOL    HW212603   8.947   7.923   4.576 -0.2354 -2.1851  1.0417
36784SOL     OW12604   7.373   9.098   1.930 -0.3071 -0.4400  0.3220
36784SOL    HW112605   7.342   9.175   1.883  0.4548 -0.0824  0.4001
36784SOL    HW212606   7.294   9.046   1.945 -1.0866  1.0307  1.5852
36785SOL     OW12607   3.045   3.371   7.865 -0.1365  0.0098  0.1779
36785SOL    HW112608   3.080   3.287   7.834 -0.5567 -0.9231  2.1193
36785SOL    HW212609   3.000   3.407   7.788  2.7254  0.0532 -1.6665
36786SOL     OW12610   7.716   8.197   6.973  0.2465  0.2170  0.5684
36786SOL    HW112611   7.736   8.252   6.897  1.9635 -0.6545  0.3264
36786SOL    HW212612   7.688   8.258   7.041  0.7666  1.2452 -0.1273
36787SOL     OW12613   3.258   4.122   9.521  0.1760 -0.0392  0.3875
36787SOL    HW112614   3.224   4.056   9.581  1.1939  0.3162  1.3909
36787SOL    HW212615   3.353   4.109   9.524  0.2216 -0.4864 -1.7164
36788SOL     OW12616   0.262  10.120   3.068  0.0048 -0.5574  0.1631
36788SOL    HW112617   0.201  10.058   3.107 -2.2598 -0.0919 -2.3582
36788SOL    HW212618   0.261  10.100   2.975  1.4107  1.4521 -0.3516
36789SOL     OW12619   0.976   5.492   9.921  0.1262  0.4934 -0.1090
36789SOL    HW112620   1.068   5.473   9.941 -0.5851 -0.5292  2.6419
36789SOL    HW212621   0.955   5.568   9.976 -0.9575  0.0276  0.1455
36790SOL     OW12622   7.284   6.151   7.932  0.0294  0.3971 -0.1054
36790SOL    HW112623   7.212   6.191   7.884 -0.0466  0.7898  0.3262
36790SOL    HW212624   7.320   6.223   7.985  0.8968  0.2739 -0.5115
36791SOL     OW12625   5.810   7.973   9.086 -0.3083 -0.4892  0.2344
36791SOL    HW112626   5.829   7.957   9.178 -0.8041  0.9221  0.6005
36791SOL    HW212627   5.858   8.053   9.065  0.4918 -1.2522 -0.9814
36792SOL     OW12628   6.144   0.628   0.119  0.1499 -0.3149 -0.1824
36792SOL    HW112629   6.158   0.535   0.134 -1.4289 -0.5256  0.1785
36792SOL    HW212630   6.171   0.642   0.028  0.8853 -0.9997 -0.0844
36793SOL     OW12631   1.514   4.479   5.086 -0.4612 -0.3993  0.1656
36793SOL    HW112632   1.563   4.449   5.009 -0.5772  0.3338 -0.1970
36793SOL    HW212633   1.429   4.507   5.052 -1.2119 -1.7797  0.8030
36794SOL     OW12634   8.546   6.722   3.271 -0.7851  0.5435  0.2757
36794SOL    HW112635   8.456   6.697   3.251 -0.6646 -0.1203  0.5596
36794SOL    HW212636   8.541   6.763   3.357 -0.5976 -0.9268  1.0238
36795SOL     OW12637   2.263   2.046   4.052  0.3157  0.2273 -1.1860
36795SOL    HW112638   2.201   2.032   3.980  1.4691  1.2567 -2.4150
36795SOL    HW212639   2.259   2.140   4.070  0.2474  0.0324 -0.0506
36796SOL     OW12640   7.216   5.294  10.378  0.4085  0.3248 -0.2252
36796SOL    HW112641   7.197   5.220  10.436  1.4158  0.4951  0.3411
36796SOL    HW212642   7.230   5.368  10.437  1.5763  0.4746 -0.6646
36797SOL     OW12643   1.899  10.322   3.015 -0.4781 -0.6801  0.1589
36797SOL    HW112644   1.912  10.236   2.975  0.2304 -0.2678 -0.5347
36797SOL    HW212645   1.842  10.368   2.954  2.0199  0.5762 -1.3965
36798SOL     OW12646   3.725   2.255   1.517 -0.2420  0.2231  0.7762
36798SOL    HW112647   3.691   2.211   1.595  0.3559 -1.8019 -0.0199
36798SOL    HW212648   3.672   2.220   1.446  2.2830 -1.8165 -0.2964
36799SOL     OW12649   2.307   2.310   6.609 -0.1759 -0.8278 -0.1065
36799SOL    HW112650   2.366   2.290   6.536  0.2332 -0.1900  0.0444
36799SOL    HW212651   2.219   2.306   6.570  0.0167 -0.8643 -0.5479
36800SOL     OW12652   3.791   8.259   9.183  0.1592  0.1327 -0.3470
36800SOL    HW112653   3.818   8.337   9.135  0.2598 -0.6718 -1.6584
36800SOL    HW212654   3.870   8.207   9.192  0.1035  0.1845  0.5638
36801SOL     OW12655   9.825   2.589   0.954 -0.3657 -0.2008  0.0285
36801SOL    HW112656   9.851   2.504   0.919 -0.6624  0.0159 -0.7348
36801SOL    HW212657   9.782   2.633   0.881  0.1678  0.7816  0.2859
36802SOL     OW12658   2.823   6.692   6.804 -0.4104  0.0050  0.2530
36802SOL    HW112659   2.818   6.721   6.713  1.6308  0.0225  0.1031
36802SOL    HW212660   2.773   6.610   6.806 -1.4081  0.5693 -0.6170
36803SOL     OW12661   1.246   6.990   2.316 -0.4254 -0.1739 -0.2210
36803SOL    HW112662   1.160   6.957   2.289 -1.7405  1.2826  1.8782
36803SOL    HW212663   1.296   6.911   2.336 -1.2528 -1.0579 -1.4687
36804SOL     OW12664   5.097   4.616   8.056  0.0128 -0.1359 -0.0998
36804SOL    HW112665   5.085   4.711   8.065  0.4747 -0.0711 -0.1195
36804SOL    HW212666   5.191   4.605   8.043 -0.0782 -0.5768 -0.4156
36805SOL     OW12667   0.718   6.853   5.447  0.5785  0.1531  0.0141
36805SOL    HW112668   0.760   6.797   5.382 -0.2187  0.7539 -1.0523
36805SOL    HW212669   0.730   6.942   5.413 -0.8582  0.3887  0.0800
36806SOL     OW12670   9.515   4.444   8.032 -0.3749 -0.5986  0.0780
36806SOL    HW112671   9.573   4.487   8.094  1.1500 -1.8973 -0.4051
36806SOL    HW212672   9.469   4.517   7.989  1.9578  0.6216 -0.5546
36807SOL     OW12673   7.411   8.237   2.208 -0.8084  0.3854 -0.0381
36807SOL    HW112674   7.376   8.173   2.270 -0.5367  0.7923  0.5357
36807SOL    HW212675   7.498   8.259   2.242 -1.0373  1.3274 -0.0260
36808SOL     OW12676   3.616   4.846   1.761  0.3182 -0.0320  0.1288
36808SOL    HW112677   3.568   4.894   1.829 -1.9836 -1.2166 -0.5873
36808SOL    HW212678   3.622   4.908   1.688 -0.7951 -0.1229 -0.0455
36809SOL     OW12679   1.684   8.393   0.121  0.0085  0.2328  0.0866
36809SOL    HW112680   1.602   8.429   0.086  1.3974  1.2714 -2.4216
36809SOL    HW212681   1.736   8.471   0.141  1.0159 -0.4144 -0.0079
36810SOL     OW12682  10.392   3.352   2.972 -0.1331  0.0925  0.2769
36810SOL    HW112683  10.434   3.349   2.885  0.2288  3.0377  0.2353
36810SOL    HW212684  10.461   3.322   3.032  0.4041  0.2653 -0.2349
36811SOL     OW12685   4.308   3.016   6.690 -0.3892  0.3697 -0.4422
36811SOL    HW112686   4.313   3.112   6.696 -1.5603  0.4319 -0.2562
36811SOL    HW212687   4.400   2.988   6.685 -0.0369  1.5162 -0.8574
36812SOL     OW12688   5.163  10.575   2.866  0.3268 -0.1284 -0.0972
36812SOL    HW112689   5.199  10.532   2.789 -1.9705 -0.6316 -0.9771
36812SOL    HW212690   5.117  10.651   2.831  1.8889  1.4502  1.1520
36813SOL     OW12691   2.347   2.984   4.317  0.1950 -0.1995 -0.1355
36813SOL    HW112692   2.394   2.929   4.254 -2.0899 -1.5431 -0.8091
36813SOL    HW212693   2.299   2.921   4.372 -1.1846  1.0629  0.1760
36814SOL     OW12694   8.296   4.982   9.282 -0.3217  0.2326 -0.5371
36814SOL    HW112695   8.304   4.987   9.377 -0.1436 -0.2843 -0.5253
36814SOL    HW212696   8.344   4.903   9.257 -2.0420 -0.7645 -0.8649
36815SOL     OW12697  10.350   6.946   1.627 -0.7974 -0.3763  0.2183
36815SOL    HW112698  10.388   6.926   1.712  1.4351 -0.5225 -0.7498
36815SOL    HW212699  10.291   6.873   1.609 -1.7596 -0.0450  1.8647
36816SOL     OW12700   4.567   7.316   6.623 -0.0986 -0.1453 -0.0375
36816SOL    HW112701   4.657   7.300   6.650 -0.1163 -1.0145 -0.4694
36816SOL    HW212702   4.550   7.251   6.555 -1.4087 -0.7413  0.8036
36817SOL     OW12703   4.693   2.629   7.267  0.9347 -0.3294  0.5916
36817SOL    HW112704   4.672   2.696   7.332 -1.3524  0.2920 -0.6818
36817SOL    HW212705   4.734   2.559   7.317  2.3841  1.5088  2.1371
36818SOL     OW12706   2.800   6.903   9.233 -0.0659  0.5707 -0.6038
36818SOL    HW112707   2.808   6.989   9.274 -0.4127  0.9823 -1.3971
36818SOL    HW212708   2.718   6.868   9.267  0.4343  0.2327  0.2924
36819SOL     OW12709   2.179   6.531   8.669 -0.3121  0.1362  0.1222
36819SOL    HW112710   2.268   6.526   8.635 -0.4185 -0.7576 -0.0497
36819SOL    HW212711   2.173   6.462   8.735 -0.5320  0.9531  0.9930
36820SOL     OW12712   0.421   1.148   3.614 -0.6451 -0.1014  0.3410
36820SOL    HW112713   0.463   1.075   3.659 -1.8350  0.9169  3.3501
36820SOL    HW212714   0.441   1.133   3.521  0.7313 -3.1690  0.9858
36821SOL     OW12715   5.477   4.101   0.649  0.2500 -0.0586 -0.0092
36821SOL    HW112716   5.443   4.012   0.660 -0.8456  0.1436 -1.4377
36821SOL    HW212717   5.445   4.128   0.563  1.4802  1.3245 -0.0725
36822SOL     OW12718   8.541  10.108   0.064 -0.0464  0.1777 -0.0243
36822SOL    HW112719   8.580  10.176   0.008  1.5458  1.2963  2.2623
36822SOL    HW212720   8.483  10.157   0.122 -2.1506 -1.0387 -1.0266
36823SOL     OW12721   5.819   7.686   9.010  0.6395 -0.4243 -0.2253
36823SOL    HW112722   5.802   7.661   9.101 -0.7778 -1.1636 -0.6609
36823SOL    HW212723   5.812   7.782   9.010 -2.5283 -0.5456 -0.0747
36824SOL     OW12724   7.298   9.120   7.904 -0.7356 -0.1025  0.5235
36824SOL    HW112725   7.207   9.143   7.887 -0.2970  1.5111  0.2402
36824SOL    HW212726   7.349   9.187   7.859  0.5733 -0.1811  1.7977
36825SOL     OW12727   2.159   7.568   0.105  0.0484 -0.2646  0.1248
36825SOL    HW112728   2.229   7.505   0.090  0.5192  0.2340  0.1915
36825SOL    HW212729   2.144   7.609   0.020 -0.1381 -0.3413  0.1190
36826SOL     OW12730   5.547   1.653   1.321 -0.0127  0.2580 -0.2853
36826SOL    HW112731   5.511   1.566   1.339 -0.7920  0.8273  1.0681
36826SOL    HW212732   5.634   1.637   1.286 -0.4840 -1.0814 -0.9013
36827SOL     OW12733   6.023   5.332   6.298 -0.4346  0.5430  0.0376
36827SOL    HW112734   5.965   5.366   6.230  1.2445  0.3145 -1.5984
36827SOL    HW212735   6.043   5.407   6.353 -0.4736  1.1244 -0.7340
36828SOL     OW12736   2.593   7.779   0.431  0.3087  0.1183  0.0723
36828SOL    HW112737   2.587   7.702   0.374 -0.2610  0.1427  0.0970
36828SOL    HW212738   2.660   7.755   0.495  0.7452 -0.0238 -0.4258
36829SOL     OW12739   6.093   4.129   0.600  0.2276 -0.5711  0.3234
36829SOL    HW112740   6.136   4.116   0.515 -0.0479  1.3932 -0.1671
36829SOL    HW212741   6.012   4.078   0.594 -0.0977  0.0476 -0.8670
36830SOL     OW12742   4.788  10.436   1.243 -0.3272  0.2760  0.2312
36830SOL    HW112743   4.762  10.448   1.335 -0.4720  2.0065  0.0038
36830SOL    HW212744   4.743  10.507   1.196  0.5037 -0.0038 -1.0303
36831SOL     OW12745   6.361   9.462   2.473  0.5347 -0.1320  0.3969
36831SOL    HW112746   6.286   9.428   2.522  0.9091  0.5092  1.4595
36831SOL    HW212747   6.325   9.533   2.421  0.2991 -0.1960  0.4717
36832SOL     OW12748   0.495   0.176   2.196 -0.4006 -0.7022  0.6043
36832SOL    HW112749   0.574   0.230   2.192  0.1192 -1.4849 -1.6085
36832SOL    HW212750   0.426   0.237   2.220 -0.1041  1.4377 -3.1267
36833SOL     OW12751   9.512   8.591   3.511 -0.7980  0.0711 -0.0553
36833SOL    HW112752   9.599   8.562   3.482 -0.3427 -0.3287  1.5994
36833SOL    HW212753   9.467   8.616   3.431  0.8430  0.2644 -0.9577
36834SOL     OW12754   2.556   8.759   8.804 -0.1365  0.1360  0.4084
36834SOL    HW112755   2.479   8.751   8.860 -1.0573 -1.2764 -0.9883
36834SOL    HW212756   2.574   8.670   8.775  0.7042  0.7399 -1.0358
36835SOL     OW12757   8.744   7.814  10.224  0.0427  0.3561 -0.2090
36835SOL    HW112758   8.758   7.758  10.300  0.8531  0.4496 -0.2854
36835SOL    HW212759   8.672   7.871  10.250 -1.5300 -1.3969 -0.5134
36836SOL     OW12760   1.138   7.158   0.748  0.3191  0.4620  0.2101
36836SOL    HW112761   1.142   7.246   0.711  1.8786  0.2154 -0.3129
36836SOL    HW212762   1.179   7.166   0.834  0.2101  0.3105  0.2769
36837SOL     OW12763   5.906   9.680   6.103 -0.4153  0.1365  0.0853
36837SOL    HW112764   5.981   9.639   6.058  0.5835  1.1321  0.7834
36837SOL    HW212765   5.837   9.681   6.037  0.8199  1.0208 -1.2787
36838SOL     OW12766   7.840   6.318   4.728  0.0793  0.6355  0.2808
36838SOL    HW112767   7.886   6.275   4.655  1.6766  0.1384  1.5111
36838SOL    HW212768   7.759   6.268   4.737  1.0162 -0.9387  0.4258
36839SOL     OW12769   6.736   1.304   2.271  0.1472  0.6007 -0.1843
36839SOL    HW112770   6.717   1.230   2.213 -2.7165 -0.5091  1.9727
36839SOL    HW212771   6.773   1.370   2.213  0.1325 -1.4697 -2.7320
36840SOL     OW12772   9.273   8.495   1.598 -0.0287 -0.3203  0.3706
36840SOL    HW112773   9.273   8.455   1.685  1.4614  0.4529  0.7560
36840SOL    HW212774   9.182   8.518   1.582 -0.5748 -1.8820  1.0534
36841SOL     OW12775   6.904   5.711   4.439 -0.5423 -0.0154  0.4587
36841SOL    HW112776   6.922   5.788   4.384  0.8146 -0.6310 -0.0220
36841SOL    HW212777   6.809   5.710   4.448 -0.6162  1.5638  0.2615
36842SOL     OW12778   8.728   3.611   6.246  0.4957  0.0275 -1.0918
36842SOL    HW112779   8.693   3.662   6.319  0.3601  1.6056 -2.1942
36842SOL    HW212780   8.659   3.548   6.225  0.4330 -0.2652 -0.0492
36843SOL     OW12781   7.351  10.063   7.744 -0.2349 -0.5740 -0.3323
36843SOL    HW112782   7.295  10.138   7.724  1.0454  0.3288 -0.6234
36843SOL    HW212783   7.352  10.011   7.664 -0.5973 -0.5658 -0.3427
36844SOL     OW12784   6.396   1.324   1.958  0.1194  0.1768  0.2175
36844SOL    HW112785   6.464   1.384   1.989 -0.0617  0.9960 -0.9149
36844SOL    HW212786   6.442   1.241   1.944  0.3528 -0.0166  1.8848
36845SOL     OW12787   0.176   0.566   0.339  0.4393  0.2103 -0.0323
36845SOL    HW112788   0.095   0.522   0.311  1.7179 -0.8015 -2.4054
36845SOL    HW212789   0.165   0.657   0.312  1.4945 -0.6558 -3.9952
36846SOL     OW12790   7.843   1.357   1.662 -0.7933 -0.0402  0.7698
36846SOL    HW112791   7.846   1.282   1.721  3.0838 -2.3388 -1.8226
36846SOL    HW212792   7.800   1.324   1.583 -1.6998  1.4639  0.5946
36847SOL     OW12793   8.261   7.981   3.669  0.3093 -0.1483 -0.1765
36847SOL    HW112794   8.169   8.001   3.687  0.2848 -1.4498  1.4335
36847SOL    HW212795   8.263   7.886   3.659  1.1486  0.0583 -2.6141
36848SOL     OW12796   8.616   5.061   3.463 -0.2842  0.1938  0.5756
36848SOL    HW112797   8.665   4.992   3.419  0.2820  0.6910  0.4020
36848SOL    HW212798   8.649   5.060   3.553  0.0156  0.4919  0.4729
36849SOL     OW12799   6.525   8.079   4.379  0.5659  0.5565  0.0885
36849SOL    HW112800   6.500   7.996   4.418 -0.6544  0.5035 -0.7350
36849SOL    HW212801   6.563   8.055   4.294  0.5333  0.8140  0.0007
36850SOL     OW12802   2.969   6.585   4.201 -0.5687  0.3551  0.3587
36850SOL    HW112803   3.021   6.616   4.275 -0.4317 -0.5733  0.6568
36850SOL    HW212804   2.901   6.530   4.240 -1.1634  0.7348 -0.1149
36851SOL     OW12805   4.531   5.072   5.930  0.2295 -0.0905 -0.1876
36851SOL    HW112806   4.564   5.085   6.019 -0.1699  1.1827 -0.2176
36851SOL    HW212807   4.436   5.068   5.939  0.1347  0.8800 -0.6415
36852SOL     OW12808   3.385   4.930   4.846 -0.4132 -0.2411 -0.2136
36852SOL    HW112809   3.332   4.855   4.818  0.1108 -1.1656  1.1853
36852SOL    HW212810   3.323   4.987   4.892 -0.8219  0.2229 -1.3180
36853SOL     OW12811  10.317   2.735   3.147  0.9064 -0.1059 -0.0833
36853SOL    HW112812  10.264   2.707   3.072 -1.7099  1.4794  1.0397
36853SOL    HW212813  10.293   2.674   3.217  0.0008  0.9827  0.5981
36854SOL     OW12814   2.109  10.613  10.334 -0.4610  0.2255  0.1185
36854SOL    HW112815   2.192  10.588  10.373 -0.9970  0.1554  1.2573
36854SOL    HW212816   2.101  10.707  10.350 -1.3170 -0.0483  1.4713
36855SOL     OW12817   8.004   0.973   4.129  0.1748  0.2991 -0.3853
36855SOL    HW112818   8.060   0.922   4.188 -0.4231 -0.2490 -0.2820
36855SOL    HW212819   8.065   1.010   4.065  0.8227  0.8373  0.5116
36856SOL     OW12820   0.528   2.900  10.576  0.7144 -0.2126 -0.2182
36856SOL    HW112821   0.558   2.891  10.486  1.0407 -0.5519 -0.0777
36856SOL    HW212822   0.466   2.829  10.589  2.9989 -2.1665  0.7670
36857SOL     OW12823   0.875   9.010   3.485  0.0322 -0.0637 -0.0198
36857SOL    HW112824   0.802   9.072   3.492 -0.7633 -1.0603  0.8019
36857SOL    HW212825   0.851   8.954   3.411 -0.9091 -1.4576  1.2917
36858SOL     OW12826   1.673   7.976  10.552 -0.3303  1.2446 -0.5646
36858SOL    HW112827   1.695   8.042  10.487 -0.2912  2.3266  0.5104
36858SOL    HW212828   1.694   8.017  10.636 -0.1001 -0.2151  0.1307
36859SOL     OW12829   6.410  10.649   8.059 -0.6903  0.0645 -0.3729
36859SOL    HW112830   6.478  10.616   8.118  0.4600 -1.8075 -2.5798
36859SOL    HW212831   6.452  10.719   8.010 -0.7089 -0.3532 -0.9874
36860SOL     OW12832   8.705   7.440   7.960  0.4880 -0.2234 -0.6203
36860SOL    HW112833   8.773   7.504   7.937  1.0372 -0.3118  0.6687
36860SOL    HW212834   8.628   7.494   7.979  0.4967 -0.0515 -1.0594
36861SOL     OW12835   8.906  10.394   8.697 -0.6017  0.6030  0.1877
36861SOL    HW112836   8.919  10.339   8.774  0.2943  0.1401 -0.2804
36861SOL    HW212837   8.824  10.362   8.658 -0.1929 -0.2604  0.0338
36862SOL     OW12838   1.913   3.591  10.002 -0.2585  0.4033  0.1939
36862SOL    HW112839   1.880   3.558   9.918 -0.6481  0.3268  0.3769
36862SOL    HW212840   1.868   3.674  10.015 -1.5507 -0.4051  1.1666
36863SOL     OW12841   1.240   3.634   6.800  0.1662  0.1091  0.4564
36863SOL    HW112842   1.244   3.698   6.729  0.0103 -0.5398 -0.1382
36863SOL    HW212843   1.330   3.603   6.809  0.2740  0.5171  0.8550
36864SOL     OW12844   3.941   1.691   3.467  0.0656  0.4081 -0.1524
36864SOL    HW112845   4.009   1.638   3.508 -0.0110  0.5005  0.0924
36864SOL    HW212846   3.934   1.656   3.378 -0.8372 -0.8133  0.3703
36865SOL     OW12847   5.035   2.404   4.938  0.2266  0.0650 -0.7041
36865SOL    HW112848   4.964   2.362   4.986  0.8653 -0.0831  0.1294
36865SOL    HW212849   5.099   2.427   5.005  1.2417 -0.3549 -1.5157
36866SOL     OW12850   4.455   3.964   2.344 -0.1476 -0.0567 -0.6045
36866SOL    HW112851   4.505   3.974   2.425  1.4760  0.5574 -1.6245
36866SOL    HW212852   4.447   4.053   2.310  0.5434 -0.4530 -1.8655
36867SOL     OW12853   1.150   3.772   0.300 -0.1891  0.1497 -0.2128
36867SOL    HW112854   1.094   3.848   0.315  0.5913  0.6815  0.0812
36867SOL    HW212855   1.203   3.795   0.224  0.6252  0.2500  0.3709
36868SOL     OW12856  10.282   3.226   5.248 -0.1763  0.1454 -0.0871
36868SOL    HW112857  10.192   3.253   5.265 -0.1964  0.1070 -0.1346
36868SOL    HW212858  10.329   3.247   5.329  0.6542  4.0016 -1.3394
36869SOL     OW12859   6.104   9.447   2.607 -0.5333 -0.3748 -0.9304
36869SOL    HW112860   6.127   9.426   2.698 -1.0716 -1.2924 -0.9964
36869SOL    HW212861   6.058   9.531   2.612  1.1869  0.6000 -0.5924
36870SOL     OW12862   7.449   8.777   0.057 -0.0942  0.2069  0.5187
36870SOL    HW112863   7.358   8.795   0.082 -1.0091 -0.8446 -1.7627
36870SOL    HW212864   7.450   8.685   0.032  0.7657  0.9323 -2.5811
36871SOL     OW12865   5.882   4.928   4.274  0.4148  0.5210  0.3769
36871SOL    HW112866   5.958   4.870   4.264 -0.1343 -0.0580 -0.5665
36871SOL    HW212867   5.887   4.987   4.198 -0.9413 -0.5635 -0.6195
36872SOL     OW12868   8.499   0.025   5.490  0.1527 -0.1361  0.2497
36872SOL    HW112869   8.543   0.108   5.470  0.9889 -0.3985  0.9666
36872SOL    HW212870   8.411   0.036   5.453  0.7198  0.4880 -0.9912
36873SOL     OW12871   0.978   6.340   6.728 -0.2094  0.0716 -0.2601
36873SOL    HW112872   0.918   6.335   6.803 -0.2387 -0.4479 -0.3157
36873SOL    HW212873   0.978   6.252   6.692 -0.3786  0.3763 -1.0199
36874SOL     OW12874   9.687   3.021   0.162 -0.4850 -0.5867  0.2738
36874SOL    HW112875   9.676   2.926   0.159 -1.8038 -0.5258  1.9096
36874SOL    HW212876   9.602   3.055   0.190  0.3657  0.9638  1.1155
36875SOL     OW12877   3.567   6.740   7.864 -0.4290  0.4511 -0.1149
36875SOL    HW112878   3.633   6.683   7.824 -1.2021  0.3002 -1.2609
36875SOL    HW212879   3.486   6.687   7.861 -0.3586  0.0394  2.6124
36876SOL     OW12880   1.196   8.704   0.722 -0.5587  1.0479  0.7511
36876SOL    HW112881   1.277   8.755   0.724  0.7953 -0.9033 -0.8414
36876SOL    HW212882   1.216   8.625   0.773 -0.4387 -0.7272 -1.8676
36877SOL     OW12883  10.486   7.641   5.309  0.1541  0.1675 -0.0335
36877SOL    HW112884  10.485   7.716   5.249  0.4490  0.8415  0.7983
36877SOL    HW212885  10.396   7.636   5.343 -0.7187 -1.7062 -2.3109
36878SOL     OW12886   2.069  10.068   2.067  0.1253  0.1421  0.2783
36878SOL    HW112887   2.128   9.992   2.063  2.1319  1.5352  1.7689
36878SOL    HW212888   2.089  10.117   1.988 -2.1780 -1.4687 -1.4275
36879SOL     OW12889   0.577   4.385   3.816 -0.0070 -0.2841 -0.1827
36879SOL    HW112890   0.635   4.314   3.787 -0.1915 -0.3399 -0.4161
36879SOL    HW212891   0.613   4.463   3.775  0.9545 -0.0242  1.0813
36880SOL     OW12892   7.720   8.765   0.954  0.3076 -0.0292 -0.6815
36880SOL    HW112893   7.778   8.702   0.911  1.8817 -0.4335  1.8070
36880SOL    HW212894   7.773   8.845   0.962 -0.5823  0.6151 -1.0375
36881SOL     OW12895   8.151   1.908   7.727 -0.3419 -0.1748 -0.2575
36881SOL    HW112896   8.186   1.819   7.737 -0.6095 -0.2647 -0.1268
36881SOL    HW212897   8.229   1.963   7.720 -0.1233 -0.6824 -2.8533
36882SOL     OW12898   3.599   6.056   3.303  0.6634 -0.0435  0.0271
36882SOL    HW112899   3.532   5.989   3.316 -0.3034  0.9129  0.0891
36882SOL    HW212900   3.660   6.017   3.240 -0.8071 -0.3474 -1.2720
36883SOL     OW12901  10.001   0.051   7.548  0.4883 -0.1087 -0.0888
36883SOL    HW112902  10.009   0.144   7.528 -3.6422  0.3575 -0.4587
36883SOL    HW212903  10.012   0.006   7.464  0.1309  0.3037 -0.3597
36884SOL     OW12904   5.006   4.157   3.260 -0.9761 -0.7530 -0.3704
36884SOL    HW112905   4.949   4.219   3.306  0.3300 -0.0981  0.4001
36884SOL    HW212906   5.000   4.182   3.168 -0.6451  0.3693 -0.0945
36885SOL     OW12907   3.118   9.465   2.671 -0.1297 -0.1119 -0.1489
36885SOL    HW112908   3.091   9.375   2.687  0.2646 -0.5096 -1.5382
36885SOL    HW212909   3.091   9.513   2.749 -2.4516 -0.9762 -0.3623
36886SOL     OW12910   7.211  10.182   6.235  0.3630 -0.0304 -0.2775
36886SOL    HW112911   7.237  10.273   6.229  0.3643  0.0298  0.5351
36886SOL    HW212912   7.129  10.177   6.186  0.4496  0.3722 -0.4649
36887SOL     OW12913   1.344   5.842   2.395  0.1804  0.1860 -0.0362
36887SOL    HW112914   1.352   5.812   2.486 -0.4292 -0.0322 -0.0510
36887SOL    HW212915   1.329   5.936   2.402 -2.0095 -0.1242  0.2089
36888SOL     OW12916  10.054   0.073   0.220  0.3197  1.3507 -0.2158
36888SOL    HW112917   9.978   0.112   0.263 -1.4663 -0.1217 -1.8864
36888SOL    HW212918  10.096   0.147   0.175 -0.9716  1.9612 -0.4779
36889SOL     OW12919  10.007   9.743  10.470  0.0737 -0.2747  0.4200
36889SOL    HW112920  10.077   9.807  10.484  0.6888 -0.9372  0.4042
36889SOL    HW212921   9.983   9.715  10.559  0.6000 -0.8616  0.3850
36890SOL     OW12922   7.138   2.818  10.330  0.0866  0.3668 -0.4342
36890SOL    HW112923   7.091   2.878  10.388 -0.0503  1.8775 -2.0253
36890SOL    HW212924   7.160   2.871  10.254  0.9997 -1.3307 -1.4026
36891SOL     OW12925   8.113   7.157   0.971  0.1614 -0.2346  0.0096
36891SOL    HW112926   8.108   7.081   0.913  0.8485  0.6542 -1.2856
36891SOL    HW212927   8.168   7.219   0.923 -0.3841  1.0751  1.0261
36892SOL     OW12928   0.184  10.491   1.532 -0.2593 -0.2228 -0.6603
36892SOL    HW112929   0.208  10.575   1.496 -0.2292 -0.3624 -0.9663
36892SOL    HW212930   0.230  10.427   1.478  1.2842 -0.3763  0.7821
36893SOL     OW12931   5.406   9.221   6.945 -0.1880 -0.3616 -0.1962
36893SOL    HW112932   5.498   9.220   6.974 -0.3097  0.8134  0.2750
36893SOL    HW212933   5.410   9.242   6.852  0.1102 -2.3866 -0.6887
36894SOL     OW12934   5.330   1.428   3.588 -0.0366  0.3102 -0.4609
36894SOL    HW112935   5.362   1.512   3.621 -0.7767  0.4022  0.0424
36894SOL    HW212936   5.320   1.442   3.494 -0.3964  0.8683 -0.3431
36895SOL     OW12937   3.983   1.729   2.543  0.1826 -0.7482  0.5113
36895SOL    HW112938   4.046   1.679   2.595  0.9674 -0.5856 -0.2714
36895SOL    HW212939   3.918   1.665   2.515  2.1520 -1.7906 -2.0395
36896SOL     OW12940   8.534   2.955   8.348  0.2450 -0.6555  0.1476
36896SOL    HW112941   8.541   3.038   8.303 -0.4216 -0.0276  1.1525
36896SOL    HW212942   8.588   2.894   8.297 -0.4863  0.0103 -1.4671
36897SOL     OW12943   6.064   3.454   2.888  0.3132 -0.4694 -0.7513
36897SOL    HW112944   6.021   3.467   2.804 -1.0636 -0.5627 -0.0975
36897SOL    HW212945   6.107   3.369   2.882 -0.5539 -0.8893 -1.0487
36898SOL     OW12946   1.868   5.802   6.324  0.4738 -0.6076  0.8876
36898SOL    HW112947   1.846   5.857   6.249  1.7290 -2.2797 -0.8275
36898SOL    HW212948   1.805   5.730   6.321  2.2190 -2.2079 -0.4141
36899SOL     OW12949   3.664   5.609   6.296 -0.1824  0.3807 -0.4204
36899SOL    HW112950   3.731   5.611   6.227  2.8204  1.5766  2.2425
36899SOL    HW212951   3.631   5.699   6.299  0.9586  0.7935  0.7172
36900SOL     OW12952   8.561   5.439   0.296  0.1540 -0.4198  0.5858
36900SOL    HW112953   8.528   5.365   0.346  0.0594 -0.1267  0.9562
36900SOL    HW212954   8.490   5.458   0.234  0.7476 -1.5429 -0.4914
36901SOL     OW12955   9.942   9.472   7.869  0.7611  0.5716  0.3356
36901SOL    HW112956   9.964   9.413   7.941 -0.0258 -0.7754 -0.4958
36901SOL    HW212957   9.882   9.422   7.814 -0.7064  2.4766  0.0953
36902SOL     OW12958   8.867   2.752   7.643  0.0987 -0.3839 -0.0313
36902SOL    HW112959   8.909   2.792   7.568  0.6086 -0.6827  0.0930
36902SOL    HW212960   8.865   2.821   7.709  0.1714 -0.2968 -0.1205
36903SOL     OW12961   9.882   3.638   0.305  0.5769 -0.2238 -0.0107
36903SOL    HW112962   9.929   3.711   0.348  1.2395  0.2776 -1.5048
36903SOL    HW212963   9.798   3.676   0.279  1.1042  0.2013 -1.2088
36904SOL     OW12964   5.695   9.515   8.875 -0.4422 -0.2129  0.1354
36904SOL    HW112965   5.788   9.525   8.898 -0.0305 -0.9083 -1.1177
36904SOL    HW212966   5.648   9.528   8.957  0.8370 -0.9426  1.0195
36905SOL     OW12967   5.666  10.373   8.265  0.3013  0.2995  0.2039
36905SOL    HW112968   5.679  10.373   8.170  0.4800  1.6307  0.2021
36905SOL    HW212969   5.632  10.286   8.285  0.2519  0.0048 -1.0812
36906SOL     OW12970   2.044   4.298   5.237  0.3607 -0.3828 -0.5947
36906SOL    HW112971   2.082   4.354   5.305 -1.0975 -0.0195 -0.0302
36906SOL    HW212972   2.012   4.221   5.285 -0.1888 -0.3729 -0.9354
36907SOL     OW12973   0.167   1.957   5.557  0.4319 -0.4297  1.0192
36907SOL    HW112974   0.159   2.019   5.484  1.6460  1.0235  2.0709
36907SOL    HW212975   0.084   1.910   5.556 -0.4640  1.0543  0.0303
36908SOL     OW12976   7.909   2.418   2.386 -0.8947 -0.0339  0.3617
36908SOL    HW112977   7.823   2.432   2.425 -1.2911 -0.1395 -0.4426
36908SOL    HW212978   7.957   2.366   2.450 -1.5455 -0.2579  0.6698
36909SOL     OW12979   7.371   8.467   0.046  0.1904 -0.8101 -0.0234
36909SOL    HW112980   7.382   8.530   0.118 -0.0642 -0.1898 -0.5209
36909SOL    HW212981   7.435   8.397   0.065 -0.7289 -1.2895  1.4804
36910SOL     OW12982   1.933   0.123   9.046 -0.2586 -0.0710  0.3911
36910SOL    HW112983   1.905   0.068   9.119 -3.9809  2.6298  1.2786
36910SOL    HW212984   1.923   0.067   8.969 -1.2811 -1.4279  1.4528
36911SOL     OW12985   0.972   7.050   5.452 -0.4091 -0.0538 -0.1673
36911SOL    HW112986   1.057   7.093   5.462 -0.8073  0.7369 -0.0637
36911SOL    HW212987   0.924   7.105   5.390 -0.9032 -0.4082 -0.1099
36912SOL     OW12988   4.356   8.740   8.657  0.3700  0.1732 -0.1195
36912SOL    HW112989   4.443   8.781   8.648 -0.1933  1.1319 -1.6137
36912SOL    HW212990   4.299   8.812   8.682  0.0883 -0.5960  1.6099
36913SOL     OW12991   1.569   1.799   4.371 -0.4527 -0.1099  0.6363
36913SOL    HW112992   1.603   1.710   4.376 -1.1466 -0.3343  1.6116
36913SOL    HW212993   1.493   1.792   4.313  0.1071  0.0715 -0.1511
36914SOL     OW12994   1.905   7.459  10.567  0.3268 -0.3273 -0.2854
36914SOL    HW112995   1.959   7.530  10.602  1.1452 -0.1075 -1.8923
36914SOL    HW212996   1.905   7.393  10.636 -2.7237  2.1981  2.4691
36915SOL     OW12997   3.200   0.842   1.963  0.4102 -0.2773 -0.2968
36915SOL    HW112998   3.292   0.864   1.955  0.6372 -0.9382  0.3669
36915SOL    HW212999   3.191   0.758   1.918  0.1226 -0.1890 -0.4095
36916SOL     OW13000   2.214   9.963   3.857 -0.3550  0.4908  0.6489
36916SOL    HW113001   2.155  10.024   3.813 -1.8420 -0.7476  0.8620
36916SOL    HW213002   2.236  10.007   3.940  0.6478  1.8196 -0.2719
36917SOL     OW13003   9.854   6.623   8.525 -0.1756 -0.2775  0.3139
36917SOL    HW113004   9.852   6.532   8.495 -1.2638 -1.1643  2.8157
36917SOL    HW213005   9.926   6.626   8.588  0.3475  0.8180 -0.3120
36918SOL     OW13006   5.555   9.897   0.609 -0.0091 -0.1346  0.2600
36918SOL    HW113007   5.637   9.852   0.586 -0.5679 -1.0058 -0.0870
36918SOL    HW213008   5.516   9.921   0.524  0.1590  0.8112  0.4335
36919SOL     OW13009   7.442   9.925   2.766  0.3516  0.0583 -0.4102
36919SOL    HW113010   7.373   9.961   2.710  1.1202  2.7479  0.2277
36919SOL    HW213011   7.395   9.874   2.831 -1.0998  1.7129 -0.0705
36920SOL     OW13012   7.235   4.722   2.509 -0.1242 -0.1922 -0.1670
36920SOL    HW113013   7.287   4.773   2.572  0.4797 -1.6703  0.5691
36920SOL    HW213014   7.145   4.734   2.538 -0.1641  1.6448 -0.9014
36921SOL     OW13015   7.462   0.277   3.145  0.4760  0.1672 -0.5438
36921SOL    HW113016   7.436   0.245   3.059  1.1600 -0.5636 -0.4850
36921SOL    HW213017   7.539   0.331   3.129 -0.4286  1.5021 -0.5894
36922SOL     OW13018   8.131   5.276   3.813 -0.2464  0.2352  0.6855
36922SOL    HW113019   8.102   5.355   3.766 -1.5658 -0.7366 -0.1884
36922SOL    HW213020   8.052   5.224   3.824  0.7194 -1.3121  0.5879
36923SOL     OW13021   7.878   2.433   9.620 -0.2641  0.1613 -0.4028
36923SOL    HW113022   7.867   2.486   9.699  0.6708 -0.5325  0.2079
36923SOL    HW213023   7.936   2.362   9.646 -0.2546 -0.3035 -1.6181
36924SOL     OW13024   4.123  10.071   3.812  0.0463 -0.5476 -0.4547
36924SOL    HW113025   4.215  10.078   3.839  0.2932 -0.1904 -1.3598
36924SOL    HW213026   4.090  10.161   3.820  0.0369 -0.4988 -1.0380
36925SOL     OW13027  10.462   7.311   3.636  0.2631  0.1892  0.1959
36925SOL    HW113028  10.373   7.328   3.605  0.5294 -0.1254 -0.7604
36925SOL    HW213029  10.487   7.391   3.682 -0.0560  0.7477 -0.5930
36926SOL     OW13030   0.652   7.613   6.142 -0.5312  0.6315  0.0178
36926SOL    HW113031   0.620   7.601   6.232  0.1600  1.3625  0.3668
36926SOL    HW213032   0.737   7.654   6.152 -0.3489  0.5150 -0.9771
36927SOL     OW13033   9.271   7.622   3.982 -0.0045  0.0250 -0.3839
36927SOL    HW113034   9.180   7.650   3.992  0.2982  0.6523  0.7849
36927SOL    HW213035   9.288   7.568   4.059 -0.0972 -2.1752 -1.8173
36928SOL     OW13036   7.891   7.542   1.589  0.1821 -0.0067  0.3033
36928SOL    HW113037   7.898   7.625   1.635  0.9882 -0.7488  1.5892
36928SOL    HW213038   7.963   7.489   1.624  0.2774 -0.9113 -1.1900
36929SOL     OW13039   3.111   4.093  10.210 -0.4009  0.0384 -0.1520
36929SOL    HW113040   3.189   4.056  10.169  0.5190  0.8248  0.8275
36929SOL    HW213041   3.043   4.088  10.142 -0.1628 -2.7534 -0.2929
36930SOL     OW13042  10.087   8.318   7.752 -0.0728 -0.3825  0.2744
36930SOL    HW113043  10.003   8.352   7.720  0.0648  0.6791  0.9808
36930SOL    HW213044  10.145   8.395   7.752  0.3620 -0.6813  1.5479
36931SOL     OW13045   5.630   4.723   6.940  0.0233  0.1020 -0.7508
36931SOL    HW113046   5.608   4.809   6.905 -3.0570 -0.0315  0.5789
36931SOL    HW213047   5.602   4.662   6.872 -1.2258  0.0513 -0.2181
36932SOL     OW13048   4.273   7.203   0.991  0.4329 -0.7012 -0.2078
36932SOL    HW113049   4.217   7.194   0.914 -0.3208 -0.9758  0.3589
36932SOL    HW213050   4.213   7.229   1.061  0.9981 -1.1209  0.4393
36933SOL     OW13051   4.522   5.353   6.330 -0.5013 -0.0366  0.3750
36933SOL    HW113052   4.566   5.366   6.414  1.0147  2.1343 -0.6650
36933SOL    HW213053   4.540   5.261   6.308  0.0814 -0.3047  1.8777
36934SOL     OW13054   1.830   2.245   2.799 -0.0952 -0.0365  0.1632
36934SOL    HW113055   1.744   2.203   2.803 -0.1449  0.0874  0.4170
36934SOL    HW213056   1.816   2.321   2.743 -0.4686  0.7108  1.2289
36935SOL     OW13057   7.253   9.131   0.454 -0.3676  0.3255  0.7137
36935SOL    HW113058   7.282   9.221   0.443  0.4591 -0.1692 -1.9053
36935SOL    HW213059   7.183   9.119   0.389  1.2743 -1.5217 -0.8827
36936SOL     OW13060   0.955   9.712   0.350  0.0805 -0.0604  0.7641
36936SOL    HW113061   0.889   9.686   0.415 -1.0265  0.7162 -0.0048
36936SOL    HW213062   0.996   9.790   0.388 -0.5593  0.3884  0.5541
36937SOL     OW13063   4.447   3.054   7.078 -0.7516  0.2101  0.2200
36937SOL    HW113064   4.458   3.121   7.010  2.0898 -1.5337 -1.2241
36937SOL    HW213065   4.520   3.069   7.139  0.5625 -2.0517 -0.6803
36938SOL     OW13066   8.245   3.586   9.229 -0.6209 -0.4593  0.1108
36938SOL    HW113067   8.279   3.518   9.287 -1.8445 -1.1988 -0.0333
36938SOL    HW213068   8.154   3.562   9.213 -1.5828  2.0337  1.3279
36939SOL     OW13069   8.121   4.207   2.976 -0.4353  0.1490  0.0851
36939SOL    HW113070   8.171   4.126   2.984 -0.3385  0.1490 -0.4622
36939SOL    HW213071   8.174   4.262   2.918  0.1565  1.1192  1.4786
36940SOL     OW13072   5.923   6.182   8.318  0.1677 -0.0581 -0.4926
36940SOL    HW113073   5.844   6.217   8.276 -0.1263 -1.9210 -1.6142
36940SOL    HW213074   5.928   6.092   8.288  0.3810 -1.3330  2.9433
36941SOL     OW13075   2.921   6.041   9.406 -0.1228  0.0144 -0.0480
36941SOL    HW113076   2.867   6.011   9.334 -1.2508 -1.3076  1.2769
36941SOL    HW213077   2.939   6.133   9.387 -0.5963 -0.2337 -1.8402
36942SOL     OW13078   4.775   3.121   3.222 -0.9535  0.0573 -1.1623
36942SOL    HW113079   4.717   3.128   3.146 -0.3777  0.1390 -1.6056
36942SOL    HW213080   4.844   3.186   3.206 -0.2382 -0.6662 -1.0982
36943SOL     OW13081   4.208   2.200   1.007 -0.0329 -0.4328 -0.1208
36943SOL    HW113082   4.201   2.108   0.981 -0.3104 -0.5970  0.5213
36943SOL    HW213083   4.302   2.217   1.014  0.0248 -0.5900 -0.5044
36944SOL     OW13084   6.639   4.091   3.200  0.2094 -0.1393  0.6116
36944SOL    HW113085   6.576   4.134   3.143  0.8729  0.3670  0.2403
36944SOL    HW213086   6.724   4.122   3.169  0.7149 -1.7302  0.3326
36945SOL     OW13087   6.185   8.346   8.181 -0.4912 -0.7217  0.4555
36945SOL    HW113088   6.245   8.271   8.186  0.4495  0.0338  0.9546
36945SOL    HW213089   6.241   8.419   8.156 -1.3991 -0.1798 -0.0493
36946SOL     OW13090   3.953   3.111   0.826 -0.2747 -0.5468  0.1397
36946SOL    HW113091   3.993   3.082   0.744 -0.2228 -0.9730  0.3103
36946SOL    HW213092   3.969   3.039   0.887  0.3462  0.0849  0.7384
36947SOL     OW13093   8.548   7.640   3.378 -0.5987  0.0597 -0.3259
36947SOL    HW113094   8.636   7.609   3.356 -0.8058  0.1979 -1.4321
36947SOL    HW213095   8.519   7.687   3.300 -1.0233  1.4272  0.6228
36948SOL     OW13096   5.133   0.162   6.621  0.0194 -0.1070 -0.5000
36948SOL    HW113097   5.155   0.151   6.529  0.0597 -0.4695 -0.4483
36948SOL    HW213098   5.217   0.179   6.664  0.2290 -1.4676 -0.3058
36949SOL     OW13099   6.322   4.649   2.790 -0.1788 -0.3721 -0.5216
36949SOL    HW113100   6.382   4.715   2.757  1.0459 -0.6761  0.9992
36949SOL    HW213101   6.374   4.569   2.796 -0.5256 -0.4856  1.4657
36950SOL     OW13102   2.529   4.339   6.494  0.2950 -0.0066  0.5045
36950SOL    HW113103   2.447   4.386   6.513 -1.0013 -2.1695  0.6586
36950SOL    HW213104   2.508   4.285   6.418  1.3721 -1.0692  0.9283
36951SOL     OW13105   1.798   2.823   3.021  0.1540 -0.2781 -0.1438
36951SOL    HW113106   1.881   2.869   3.030  1.0666 -1.7141 -0.9510
36951SOL    HW213107   1.802   2.780   2.936 -1.5622 -0.1247 -0.3532
36952SOL     OW13108   3.079   2.398   7.502 -0.2886 -0.7359 -0.4989
36952SOL    HW113109   3.143   2.468   7.487 -0.4472 -0.1309  1.3212
36952SOL    HW213110   3.101   2.365   7.590 -0.3883 -2.8102 -1.1918
36953SOL     OW13111   8.510   2.386   7.773  0.3694  0.2946  0.2888
36953SOL    HW113112   8.484   2.382   7.681 -0.3667 -1.8738  0.5354
36953SOL    HW213113   8.598   2.349   7.775  0.2951  0.1288  0.4941
36954SOL     OW13114   7.339   3.680  10.191 -0.1122 -0.6158 -0.1379
36954SOL    HW113115   7.252   3.718  10.200  0.5362  0.9156  0.0084
36954SOL    HW213116   7.324   3.585  10.192 -1.6933 -0.3996  0.6333
36955SOL     OW13117   7.854   3.205   4.046 -0.6081  0.2321  0.2165
36955SOL    HW113118   7.852   3.218   4.141  1.4161 -1.2919  0.5495
36955SOL    HW213119   7.926   3.142   4.032 -1.8974 -0.8428 -2.1901
36956SOL     OW13120   8.252   7.140   9.230 -0.2241  0.4816  0.2418
36956SOL    HW113121   8.315   7.081   9.271 -1.2480  0.1737  1.4472
36956SOL    HW213122   8.226   7.200   9.300 -1.5957  0.3170 -0.0957
36957SOL     OW13123   0.516   5.200   2.400 -0.0719 -0.0220 -0.2702
36957SOL    HW113124   0.560   5.141   2.460  0.0888  0.1681 -0.1986
36957SOL    HW213125   0.546   5.287   2.426 -1.7956  0.2777  0.8786
36958SOL     OW13126   3.942   6.454   7.572  1.0407  1.2978  0.4105
36958SOL    HW113127   3.953   6.486   7.483 -0.4717  0.1168 -0.2477
36958SOL    HW213128   4.020   6.402   7.589  0.7721  0.4837 -0.7337
36959SOL     OW13129   7.683   2.806   1.054  0.1189  0.4470 -0.4626
36959SOL    HW113130   7.736   2.768   0.984 -1.2888 -0.7710 -0.9138
36959SOL    HW213131   7.676   2.899   1.031 -1.7819 -0.1958 -3.0005
36960SOL     OW13132   2.738   9.503   1.087  0.1629 -0.2795  0.2366
36960SOL    HW113133   2.747   9.411   1.113  1.5391  0.1318  1.4031
36960SOL    HW213134   2.817   9.521   1.035 -1.2505 -0.3512 -2.0372
36961SOL     OW13135   3.117   0.197   8.162 -0.1007  0.4788 -0.8330
36961SOL    HW113136   3.047   0.257   8.190 -1.1961 -1.3787  0.6945
36961SOL    HW213137   3.103   0.187   8.068 -0.2907  2.0753 -1.0111
36962SOL     OW13138   9.751   4.670   6.119 -0.3100 -0.2567 -0.3637
36962SOL    HW113139   9.697   4.632   6.188  1.8113  2.0435  2.8993
36962SOL    HW213140   9.820   4.606   6.104  0.5498  0.1537  1.5330
36963SOL     OW13141   1.980   5.024  10.136 -0.4393 -0.1266  0.8294
36963SOL    HW113142   1.973   4.998  10.044 -0.4294  0.8935  0.5289
36963SOL    HW213143   2.056   4.976  10.169 -1.4636 -1.8617  0.8034
36964SOL     OW13144   3.527   1.110   9.061  0.5211  0.0244 -0.2879
36964SOL    HW113145   3.507   1.092   9.153  2.0750  0.5764  0.1846
36964SOL    HW213146   3.544   1.204   9.059 -0.6719  0.2471 -1.3938
36965SOL     OW13147   5.795   2.048   1.038  0.2317  0.5692 -0.2148
36965SOL    HW113148   5.797   1.970   0.982  0.9494  0.2565  0.2495
36965SOL    HW213149   5.709   2.045   1.080  0.9866 -1.0692  1.3347
36966SOL     OW13150   5.456   4.356   2.599  0.7457 -0.3188  0.1689
36966SOL    HW113151   5.381   4.329   2.653  0.5778  1.5510  0.9389
36966SOL    HW213152   5.474   4.280   2.544 -0.9262 -1.2584  0.8397
36967SOL     OW13153   7.214   1.941   2.893  0.0450  0.6139 -0.6732
36967SOL    HW113154   7.173   1.896   2.820  1.1410 -2.0063  0.1963
36967SOL    HW213155   7.304   1.957   2.864  0.7772 -1.3220  0.3451
36968SOL     OW13156   0.815   9.175   3.029  0.3738 -0.2359  0.4913
36968SOL    HW113157   0.771   9.218   3.102  0.3974  0.7856 -0.0790
36968SOL    HW213158   0.805   9.081   3.047 -0.6903 -0.0131  1.1744
36969SOL     OW13159   4.796  10.348   2.822 -0.5145  0.2343  0.1891
36969SOL    HW113160   4.845  10.370   2.902 -1.0665 -3.2634  1.6421
36969SOL    HW213161   4.863  10.341   2.754  0.3594  0.4153  1.0107
36970SOL     OW13162   3.258   6.109   3.191  0.3757  0.0801 -0.0909
36970SOL    HW113163   3.316   6.180   3.219  1.9773 -1.7913  1.6577
36970SOL    HW213164   3.223   6.072   3.272 -2.2326  0.2159 -1.0414
36971SOL     OW13165   6.358   3.324   0.480 -0.5257  0.7246  0.4305
36971SOL    HW113166   6.388   3.396   0.423  3.3030 -0.1784  0.9943
36971SOL    HW213167   6.399   3.342   0.564 -0.4863 -1.4669  0.9233
36972SOL     OW13168   1.251   1.400   7.671 -0.4770  0.3701 -0.1239
36972SOL    HW113169   1.299   1.407   7.588 -0.6899 -1.1904 -0.4086
36972SOL    HW213170   1.280   1.476   7.722  0.8374  0.5035 -1.0199
36973SOL     OW13171   3.371   7.579   5.007 -0.0555  0.2767  0.3297
36973SOL    HW113172   3.332   7.582   4.919  0.5520  1.0280  0.0760
36973SOL    HW213173   3.461   7.549   4.992  0.1175  0.6237  0.6689
36974SOL     OW13174   3.466   1.512   4.147 -0.2189  0.8989  0.0505
36974SOL    HW113175   3.446   1.547   4.234 -0.9613  0.2266  0.1608
36974SOL    HW213176   3.417   1.569   4.087 -0.3986  0.8391  0.1383
36975SOL     OW13177   9.845   4.014   5.548 -0.1724  0.1218  0.4341
36975SOL    HW113178   9.937   3.990   5.560 -0.4982 -0.6229  1.5559
36975SOL    HW213179   9.806   4.004   5.635 -1.6818 -1.2294 -0.3407
36976SOL     OW13180   8.183   2.338   3.190  0.1304 -0.2648  0.2945
36976SOL    HW113181   8.258   2.291   3.153  1.1132  1.4566  0.0177
36976SOL    HW213182   8.221   2.414   3.234 -1.5469  1.6330 -1.3349
36977SOL     OW13183   4.316   1.697   6.073 -0.1828  0.1450 -0.1855
36977SOL    HW113184   4.272   1.612   6.069  0.1434 -0.1186  1.2996
36977SOL    HW213185   4.338   1.717   5.982 -0.2057 -1.4029 -0.5547
36978SOL     OW13186   3.047  10.070   9.111  0.1834 -0.3901 -0.0447
36978SOL    HW113187   3.027  10.005   9.178  2.0324 -1.7084 -0.6881
36978SOL    HW213188   3.082  10.145   9.160 -0.0019 -0.6979  0.5655
36979SOL     OW13189   2.298   1.219   0.716  0.3314  0.4715  0.3662
36979SOL    HW113190   2.329   1.309   0.704  0.5512  0.3819  0.2597
36979SOL    HW213191   2.261   1.195   0.632  0.6979  0.2984  0.2526
36980SOL     OW13192   7.570   3.319   6.528 -0.2685  0.1651 -0.0576
36980SOL    HW113193   7.666   3.322   6.524 -0.2320  0.1955  0.6687
36980SOL    HW213194   7.541   3.376   6.456  0.2472 -0.2463 -0.6013
36981SOL     OW13195   4.235   9.436   6.946 -0.1631  0.1736  0.1764
36981SOL    HW113196   4.150   9.394   6.959 -0.7022  0.6486 -1.5276
36981SOL    HW213197   4.216   9.530   6.950  0.1858  0.2901 -0.7059
36982SOL     OW13198  10.326   9.725   0.193 -0.2558  0.0800 -0.3531
36982SOL    HW113199  10.331   9.632   0.215 -0.0081 -0.1232 -1.2428
36982SOL    HW213200  10.249   9.756   0.240  0.2541 -0.3338  0.7980
36983SOL     OW13201   2.507   0.893   7.693 -0.6575 -0.0557  0.7526
36983SOL    HW113202   2.466   0.951   7.629  0.8735  0.6105  0.3313
36983SOL    HW213203   2.446   0.892   7.767 -2.7937 -1.3199 -0.8689
36984SOL     OW13204   2.925   2.711   4.932 -0.0951  0.0091 -0.1852
36984SOL    HW113205   2.835   2.733   4.909  0.3523  2.1224 -0.1241
36984SOL    HW213206   2.921   2.619   4.959 -2.0241 -0.2413 -1.1443
36985SOL     OW13207   5.701   4.637   2.418  0.0726 -0.5302  0.4496
36985SOL    HW113208   5.745   4.716   2.449 -0.6207  0.5508 -1.1854
36985SOL    HW213209   5.639   4.615   2.488 -1.5306  1.8964 -0.0784
36986SOL     OW13210   8.032   3.396  10.582 -0.1153  0.7086  0.4183
36986SOL    HW113211   8.010   3.432  10.668  0.0249  1.3697  0.1766
36986SOL    HW213212   8.118   3.432  10.562  1.1259 -1.6036  1.2115
36987SOL     OW13213   8.863   0.060   9.693  0.0551  0.1405  0.1752
36987SOL    HW113214   8.829  -0.023   9.661 -0.1365  0.2614  0.0598
36987SOL    HW213215   8.943   0.075   9.643  0.9409 -0.7389  1.3059
36988SOL     OW13216   8.676   2.706   6.098 -0.4460  0.0092  0.2884
36988SOL    HW113217   8.634   2.627   6.131  0.0556  0.0018  0.9091
36988SOL    HW213218   8.768   2.683   6.087 -0.2253  0.6066  0.8284
36989SOL     OW13219   8.682   6.792   2.622 -0.4635 -0.5675 -0.5794
36989SOL    HW113220   8.635   6.820   2.701 -0.9865 -0.9974 -0.7304
36989SOL    HW213221   8.640   6.841   2.551  0.2145  0.0592 -0.5685
36990SOL     OW13222   8.073   6.170   7.390 -0.3554  0.1303  0.3998
36990SOL    HW113223   8.038   6.082   7.401 -2.3862  1.0069  1.6740
36990SOL    HW213224   8.066   6.209   7.477  2.2577  0.9859  0.2935
36991SOL     OW13225   9.974   2.900   0.439 -0.3615 -0.0761 -0.0020
36991SOL    HW113226  10.022   2.951   0.505 -0.8066 -0.2517  0.4668
36991SOL    HW213227  10.042   2.855   0.390  0.0688  1.2493 -0.6709
36992SOL     OW13228   1.453   5.856   6.486 -1.0205 -0.2413  0.3147
36992SOL    HW113229   1.401   5.870   6.565 -1.4656 -0.4230  0.0546
36992SOL    HW213230   1.516   5.788   6.512 -1.8456 -1.0666  0.2114
36993SOL     OW13231   5.434   2.858   1.057  0.0140 -0.1448 -0.1258
36993SOL    HW113232   5.464   2.904   0.978 -0.9807  1.9912  0.6440
36993SOL    HW213233   5.481   2.775   1.056 -0.1713 -0.3215 -3.0976
36994SOL     OW13234   3.977   2.365   8.041  0.8338 -0.1607 -1.1220
36994SOL    HW113235   4.036   2.332   7.974  1.1706 -0.9140 -0.4755
36994SOL    HW213236   3.897   2.388   7.994  0.6068 -1.8397 -1.6407
36995SOL     OW13237   7.215   8.336   7.252 -0.1653 -0.2624 -0.7566
36995SOL    HW113238   7.150   8.406   7.245 -0.8811 -1.0319 -2.5195
36995SOL    HW213239   7.299   8.380   7.242 -0.3175  0.7917  1.8645
36996SOL     OW13240   1.404   3.536   0.532  0.6757  0.3061  0.2704
36996SOL    HW113241   1.464   3.462   0.548 -1.2268 -0.7520  3.6830
36996SOL    HW213242   1.447   3.610   0.575  1.7648  0.8426 -1.6388
36997SOL     OW13243   5.131   9.986   2.221 -0.3526 -0.3761  0.0315
36997SOL    HW113244   5.129  10.078   2.194  0.1655 -0.7873 -1.5203
36997SOL    HW213245   5.051   9.949   2.185  0.5355 -1.0233 -1.3556
36998SOL     OW13246   6.473   9.715   8.191  0.3247 -0.1268  0.2235
36998SOL    HW113247   6.428   9.636   8.162  1.7405 -1.9039  2.5183
36998SOL    HW213248   6.560   9.709   8.151 -0.3039  1.6646 -1.6191
36999SOL     OW13249   4.029   8.125   9.107  0.2753 -0.3076 -0.1128
36999SOL    HW113250   4.054   8.103   9.018 -0.8034  0.0198 -0.5084
36999SOL    HW213251   3.984   8.046   9.139 -0.2811 -0.0396 -0.2319
37000SOL     OW13252   9.248   3.746   2.890 -0.3595 -0.0314 -0.3822
37000SOL    HW113253   9.334   3.755   2.850  0.2822 -1.5963  0.5757
37000SOL    HW213254   9.200   3.687   2.831 -0.1267 -0.6689  0.0631
37001SOL     OW13255   0.179   1.464   4.464 -0.3880 -0.1476 -0.0327
37001SOL    HW113256   0.165   1.437   4.373  0.9905  0.2828 -0.3945
37001SOL    HW213257   0.091   1.465   4.503 -0.8836 -1.3705 -1.0580
37002SOL     OW13258   9.359   0.533   4.013 -0.5326  0.3104  0.5140
37002SOL    HW113259   9.450   0.507   3.998 -0.8923  0.2176 -1.9214
37002SOL    HW213260   9.343   0.513   4.106  1.5018 -0.9427  0.6524
37003SOL     OW13261   2.438  10.581   0.114  0.3891  0.2228  0.4119
37003SOL    HW113262   2.348  10.551   0.109  0.6773 -0.4468 -1.5627
37003SOL    HW213263   2.438  10.666   0.070  0.8821 -0.2250 -0.4779
37004SOL     OW13264   9.457   2.944   1.147 -0.4122  0.0216 -0.4860
37004SOL    HW113265   9.489   3.025   1.107 -0.4157  0.1243 -0.2806
37004SOL    HW213266   9.396   2.908   1.082 -0.9380  0.5398 -0.2857
37005SOL     OW13267   2.572   9.004   4.878  0.4102 -0.1028 -0.0414
37005SOL    HW113268   2.598   9.077   4.822 -0.6357  0.7648  0.5672
37005SOL    HW213269   2.592   9.033   4.967 -1.0803 -0.0553  0.3073
37006SOL     OW13270   4.773   8.299   5.356 -0.2023 -0.1214  0.7364
37006SOL    HW113271   4.776   8.203   5.359  1.3596 -0.1061  0.3446
37006SOL    HW213272   4.817   8.327   5.436  0.2106  0.2676  0.3739
37007SOL     OW13273   9.841   3.817   0.693 -0.6359 -0.2954 -0.0857
37007SOL    HW113274   9.907   3.751   0.714  1.1650  0.9884 -1.4229
37007SOL    HW213275   9.764   3.767   0.667 -0.0781 -1.8380  1.0578
37008SOL     OW13276   8.091   3.781   6.318 -0.1399  0.5298 -0.2136
37008SOL    HW113277   8.035   3.858   6.327  2.3122  2.4973 -0.6471
37008SOL    HW213278   8.113   3.778   6.225  0.0472 -0.5367 -0.1464
37009SOL     OW13279   8.500  10.356   7.543  0.1771  0.4037  0.5612
37009SOL    HW113280   8.536  10.380   7.629  0.1643 -0.1646  0.7316
37009SOL    HW213281   8.475  10.264   7.553  3.1381 -0.7208 -0.9798
37010SOL     OW13282   4.428   5.515   7.586  0.2037  0.5667  0.0218
37010SOL    HW113283   4.418   5.420   7.574  1.8726  0.0887  1.8613
37010SOL    HW213284   4.511   5.525   7.632 -0.7511  2.7917  1.4574
37011SOL     OW13285   9.375   1.814   6.482  0.1849 -0.1159 -0.2984
37011SOL    HW113286   9.412   1.897   6.512 -2.0802  0.8433 -0.0106
37011SOL    HW213287   9.385   1.817   6.387  0.9284  0.0560 -0.2237
37012SOL     OW13288   9.588   3.702  10.536 -0.0902  0.3595  0.7247
37012SOL    HW113289   9.616   3.613  10.513 -0.9749  0.4833 -0.9654
37012SOL    HW213290   9.653   3.758  10.494  0.4554  0.5295  1.7729
37013SOL     OW13291   2.505   0.824   5.667 -0.1610 -0.0001 -0.3045
37013SOL    HW113292   2.519   0.808   5.760 -0.0959 -3.6963 -0.7749
37013SOL    HW213293   2.412   0.807   5.653 -0.1058  0.1968 -0.9619
37014SOL     OW13294   8.470  10.093   1.216  0.3324  0.2021  0.0169
37014SOL    HW113295   8.513  10.097   1.301  2.0815  0.8432 -0.8531
37014SOL    HW213296   8.389  10.044   1.232  2.1937 -2.6729  1.3924
37015SOL     OW13297   5.381  10.152   2.345  0.6099 -0.3213  0.1375
37015SOL    HW113298   5.319  10.102   2.398 -1.2081  0.3569 -1.2500
37015SOL    HW213299   5.381  10.109   2.260 -0.9362  1.8822 -1.0694
37016SOL     OW13300   6.933   3.108   9.255 -0.0530 -0.6067  0.3040
37016SOL    HW113301   7.007   3.049   9.267  2.1239  2.2069  1.8394
37016SOL    HW213302   6.882   3.099   9.336 -1.3037 -2.2066 -0.5699
37017SOL     OW13303   6.631   6.112   1.822  0.0662 -0.1630 -0.1970
37017SOL    HW113304   6.693   6.183   1.803  0.2374 -0.0343  0.7907
37017SOL    HW213305   6.578   6.104   1.742  0.8791  0.2137 -0.7857
37018SOL     OW13306   5.242   7.102   2.192 -0.1136 -0.2878 -0.4825
37018SOL    HW113307   5.215   7.022   2.237  1.1633 -0.2510  0.3997
37018SOL    HW213308   5.322   7.129   2.238 -1.0240  2.0127 -0.1399
37019SOL     OW13309   2.506   4.927   8.165  0.7956  0.1668 -0.4053
37019SOL    HW113310   2.434   4.867   8.146  0.2000  0.7388  0.0104
37019SOL    HW213311   2.575   4.902   8.103  0.8586 -1.4616  0.2673
37020SOL     OW13312   5.797   9.880   2.555  0.4156 -0.1145 -0.1526
37020SOL    HW113313   5.801   9.963   2.506 -0.0470 -0.1326 -0.2174
37020SOL    HW213314   5.704   9.860   2.562  0.5591 -1.2275 -1.1366
37021SOL     OW13315   1.631   2.635   0.778  0.6087 -0.1372 -0.4530
37021SOL    HW113316   1.648   2.552   0.733 -0.8014 -1.2203  0.9048
37021SOL    HW213317   1.694   2.637   0.850  0.8502  0.1267 -0.6707
37022SOL     OW13318   3.119   9.577   2.382 -0.2169 -0.0579  0.3413
37022SOL    HW113319   3.072   9.656   2.355  3.4767  2.2901  0.1570
37022SOL    HW213320   3.130   9.586   2.476  3.2782  1.7090 -0.0802
37023SOL     OW13321   7.920   7.032   7.894 -0.1676 -0.9166 -0.8839
37023SOL    HW113322   7.989   7.074   7.843 -0.5029  2.4349  1.1316
37023SOL    HW213323   7.966   6.996   7.970 -0.3904 -0.5252 -0.5648
37024SOL     OW13324   8.801   7.644  10.430 -0.7678 -0.2930  0.7931
37024SOL    HW113325   8.747   7.668  10.505 -1.5498 -1.8508  0.7626
37024SOL    HW213326   8.851   7.568  10.460  1.6907  1.2512  0.9227
37025SOL     OW13327   8.408   1.932  10.571  0.7495 -0.0430 -0.3325
37025SOL    HW113328   8.387   1.861  10.632  0.6155  0.2711 -0.0121
37025SOL    HW213329   8.480   1.979  10.613 -1.9033  2.6701  1.6383
37026SOL     OW13330   4.217   9.417   9.413 -0.0102  0.1088 -0.0421
37026SOL    HW113331   4.152   9.367   9.463 -1.1811  0.8929 -0.7226
37026SOL    HW213332   4.167   9.491   9.377  0.8112 -0.3644 -2.2658
37027SOL     OW13333  10.180   2.432   9.898 -0.2962  0.5109  0.4869
37027SOL    HW113334  10.123   2.356   9.914 -1.4452  0.9392 -1.2700
37027SOL    HW213335  10.119   2.502   9.875  0.9244  0.4556 -3.6623
37028SOL     OW13336   2.563   8.377   4.047  0.0197  0.1663 -0.2176
37028SOL    HW113337   2.487   8.403   4.098  0.4688 -0.3959  0.7561
37028SOL    HW213338   2.584   8.289   4.078  1.1562  0.3700 -0.3650
37029SOL     OW13339   7.583   3.218   7.191  0.7646 -0.4284 -0.0558
37029SOL    HW113340   7.610   3.127   7.191 -1.3523 -1.1199 -0.2897
37029SOL    HW213341   7.607   3.250   7.104  1.0331 -0.9206 -0.1640
37030SOL     OW13342  10.499   0.842   1.018 -0.1693  0.6051  0.4241
37030SOL    HW113343  10.405   0.857   1.007  0.1644  3.0120  0.4822
37030SOL    HW213344  10.536   0.929   1.030  2.1695 -0.2501 -0.2158
37031SOL     OW13345   4.545   8.845   8.024  0.2990 -0.4844  0.3168
37031SOL    HW113346   4.627   8.893   8.042 -0.7242  1.5387 -0.1523
37031SOL    HW213347   4.542   8.838   7.928 -0.1326 -0.4325  0.3255
37032SOL     OW13348  10.578   8.155   1.098 -0.3127 -0.1259 -0.1298
37032SOL    HW113349  10.538   8.219   1.039  0.2322 -0.6262 -1.0778
37032SOL    HW213350  10.576   8.197   1.184 -1.2719  0.5623 -0.4688
37033SOL     OW13351   4.367   0.587   5.289 -0.3951  0.4799 -0.2423
37033SOL    HW113352   4.403   0.499   5.297 -0.6649  0.4227  0.3830
37033SOL    HW213353   4.329   0.606   5.375 -2.6961  0.1506 -1.0994
37034SOL     OW13354   5.980   9.427   3.686 -0.6905 -0.1885 -0.1037
37034SOL    HW113355   5.890   9.460   3.689 -0.5022  0.2505  2.0720
37034SOL    HW213356   5.976   9.344   3.734  0.0876 -0.0914  0.1415
37035SOL     OW13357   9.520   7.940   0.270 -0.0857 -0.0654  0.0080
37035SOL    HW113358   9.579   7.880   0.315 -0.5504 -0.5937 -0.0787
37035SOL    HW213359   9.519   8.019   0.325 -2.3286 -1.4486  2.1800
37036SOL     OW13360   4.840   7.920   4.884 -0.1266 -0.4036 -0.4057
37036SOL    HW113361   4.860   7.980   4.956 -0.9378 -0.6828  0.0668
37036SOL    HW213362   4.852   7.972   4.805 -0.7738  0.3753 -0.0016
37037SOL     OW13363   9.931   2.611   2.764  0.1218 -0.0915 -0.0838
37037SOL    HW113364   9.843   2.645   2.748 -0.5448 -2.6219 -2.5392
37037SOL    HW213365   9.980   2.631   2.684  1.9743  1.4991  1.3264
37038SOL     OW13366   1.741   9.274   2.356 -0.6132 -0.4108 -0.0321
37038SOL    HW113367   1.740   9.366   2.380  2.3966 -0.5453  1.0527
37038SOL    HW213368   1.712   9.228   2.434  2.5079 -0.5081  1.2075
37039SOL     OW13369   5.624   0.094   1.019  0.2298  0.0056  0.3634
37039SOL    HW113370   5.610   0.126   1.108  2.0424  1.1106  0.3288
37039SOL    HW213371   5.548   0.125   0.970 -0.5645 -0.2127  1.4233
37040SOL     OW13372  10.341   9.210   0.580  0.1902  0.4557  0.4899
37040SOL    HW113373  10.326   9.194   0.487 -0.2596 -0.3057  0.6868
37040SOL    HW213374  10.270   9.164   0.624  0.2034  1.0997  1.1966
37041SOL     OW13375   4.093  10.073   3.425  0.6135  0.0595 -0.0389
37041SOL    HW113376   4.143  10.155   3.419  0.6386  0.0114 -0.5428
37041SOL    HW213377   4.135  10.015   3.362 -0.0134 -0.0135 -0.4002
37042SOL     OW13378   5.591   8.567   7.751  0.1856 -0.3938  0.5590
37042SOL    HW113379   5.596   8.662   7.753 -0.6538 -0.3520  1.4768
37042SOL    HW213380   5.681   8.538   7.762  0.7250  0.2737 -1.6247
37043SOL     OW13381   6.977   6.003   7.536  0.0776 -0.1163  0.2087
37043SOL    HW113382   6.970   6.051   7.619 -1.6832  0.1225 -0.0434
37043SOL    HW213383   6.965   6.069   7.468  0.4678 -0.4796 -0.2227
37044SOL     OW13384   2.367   3.243  10.278  0.6565 -0.4354 -0.5602
37044SOL    HW113385   2.315   3.197  10.212 -0.8332 -0.6068  0.6805
37044SOL    HW213386   2.333   3.333  10.277  3.3644  0.7417 -2.7739
37045SOL     OW13387   1.456   0.217   0.639  0.9922 -0.1809 -0.7915
37045SOL    HW113388   1.515   0.227   0.564  0.7370 -0.4962 -1.0321
37045SOL    HW213389   1.486   0.137   0.682  0.6141 -0.4500 -1.0264
37046SOL     OW13390   1.287   8.435   0.532  0.1393 -0.2886 -0.0429
37046SOL    HW113391   1.243   8.416   0.615  0.6923 -2.5042 -0.1762
37046SOL    HW213392   1.216   8.441   0.468 -0.1667 -0.8337  0.2327
37047SOL     OW13393   6.286   8.926   7.709  0.0177 -0.4439 -0.3026
37047SOL    HW113394   6.360   8.868   7.690 -0.1003 -0.6865 -0.0187
37047SOL    HW213395   6.273   8.974   7.627  1.2806  0.4982  0.0229
37048SOL     OW13396   1.605   8.980   7.106  0.0940 -0.4385 -1.0176
37048SOL    HW113397   1.578   9.036   7.179  0.4143  2.3392 -2.8946
37048SOL    HW213398   1.637   8.900   7.148  0.7294  1.2245  1.9463
37049SOL     OW13399   4.503   1.888   5.414  0.5829  0.1483 -0.2720
37049SOL    HW113400   4.420   1.899   5.461  1.0458 -0.8641  0.8510
37049SOL    HW213401   4.489   1.809   5.362  0.5165  0.5373 -0.8495
37050SOL     OW13402   0.386   8.161   6.924  0.0033  0.3558  0.1556
37050SOL    HW113403   0.311   8.129   6.974 -0.3094 -0.7394 -0.9687
37050SOL    HW213404   0.394   8.252   6.950 -1.4494  0.3816  0.6251
37051SOL     OW13405   0.216   5.701   2.683 -0.3651 -0.4447  0.0289
37051SOL    HW113406   0.236   5.780   2.632  0.8144 -0.0092  1.1189
37051SOL    HW213407   0.252   5.629   2.631  0.1999 -0.0765 -0.0932
37052SOL     OW13408   8.551   1.800   8.048  0.4249  0.0217  0.3055
37052SOL    HW113409   8.462   1.790   8.015  0.0208 -1.1746  1.6642
37052SOL    HW213410   8.606   1.761   7.980 -0.1474  0.0120 -0.1629
37053SOL     OW13411   7.698  10.065   1.692 -0.0585 -0.2556  0.3799
37053SOL    HW113412   7.788  10.036   1.708  0.4203  1.0827  0.2404
37053SOL    HW213413   7.647  10.027   1.764  0.8748  0.0989  1.2516
37054SOL     OW13414   3.902   7.890   2.879  0.2787 -0.2554  0.9791
37054SOL    HW113415   3.859   7.896   2.793 -0.1302  0.5582  1.2273
37054SOL    HW213416   3.983   7.939   2.868 -0.4512  1.1149  1.4448
37055SOL     OW13417   8.022   3.393   4.343 -0.2136  0.4149  0.5442
37055SOL    HW113418   8.114   3.368   4.345 -0.1842  0.5554  1.2573
37055SOL    HW213419   7.974   3.311   4.334  0.0480  0.5139 -3.1911
37056SOL     OW13420   3.888   8.041   1.778  0.1361  0.0490 -0.2724
37056SOL    HW113421   3.896   8.099   1.854  2.3804 -0.4500 -0.0582
37056SOL    HW213422   3.857   8.098   1.708  0.6399  1.1403  0.3610
37057SOL     OW13423   0.747   0.946   9.746  0.0444  0.2549  0.5158
37057SOL    HW113424   0.679   0.932   9.812 -0.6522  0.2211 -0.1847
37057SOL    HW213425   0.763   0.858   9.710 -0.5819  0.4495 -0.2937
37058SOL     OW13426   2.586   2.162   7.988 -0.1325  0.7495  0.1914
37058SOL    HW113427   2.602   2.082   8.038 -1.6177 -0.3126 -0.9290
37058SOL    HW213428   2.534   2.217   8.046 -1.0157 -0.0588  0.1815
37059SOL     OW13429   5.710   4.949   2.325  0.5732 -0.1004 -0.4300
37059SOL    HW113430   5.725   4.890   2.251 -0.8819  2.1189 -2.6432
37059SOL    HW213431   5.615   4.945   2.340  0.9351 -1.2939  2.1137
37060SOL     OW13432   1.908   6.886   2.172 -0.2451  0.0551 -0.5977
37060SOL    HW113433   1.874   6.976   2.179  2.7081  1.1977  0.3158
37060SOL    HW213434   1.953   6.871   2.254 -1.4735 -2.7309 -0.3272
37061SOL     OW13435   6.063  10.108  10.066 -0.4644 -0.3544 -0.6056
37061SOL    HW113436   6.123  10.121   9.992 -0.9030 -0.8004 -1.0458
37061SOL    HW213437   6.083  10.019  10.098  2.5026  1.1515  2.3658
37062SOL     OW13438   2.103   8.994   3.415  0.1160 -0.2954 -0.2270
37062SOL    HW113439   2.031   8.978   3.475 -0.4376 -1.0201 -1.0640
37062SOL    HW213440   2.174   8.937   3.447 -0.0330 -0.3597 -0.0111
37063SOL     OW13441   4.997   4.606   1.293  0.1423 -0.2496 -0.0412
37063SOL    HW113442   4.916   4.650   1.317  1.3316  2.7254 -1.0608
37063SOL    HW213443   5.043   4.593   1.376 -1.9291 -3.5751  0.8068
37064SOL     OW13444  10.147   3.863   1.954 -0.2211 -0.1345  0.3936
37064SOL    HW113445  10.101   3.804   1.895 -2.2236  1.6895  0.0142
37064SOL    HW213446  10.184   3.930   1.896 -0.8133  0.7746  1.0391
37065SOL     OW13447   9.905   3.887   7.730  0.3183  0.0442 -0.4814
37065SOL    HW113448   9.906   3.962   7.670 -1.9463  0.8571  0.3907
37065SOL    HW213449   9.846   3.825   7.688 -0.0348 -0.0419  0.1369
37066SOL     OW13450   2.121   3.225   1.574 -0.2225  0.0677  0.7618
37066SOL    HW113451   2.091   3.288   1.638  1.1377  1.2998  0.2452
37066SOL    HW213452   2.206   3.259   1.545  0.5988 -2.0297  0.5123
37067SOL     OW13453   8.821   5.948   8.740 -0.6791 -0.1390 -0.4024
37067SOL    HW113454   8.840   5.991   8.656 -1.1046 -0.2422 -0.5529
37067SOL    HW213455   8.903   5.953   8.788  0.1985 -1.8617 -1.6005
37068SOL     OW13456   9.120   0.689   5.347 -0.0555 -0.3508  0.3177
37068SOL    HW113457   9.097   0.780   5.366  0.4235 -0.5609  2.0663
37068SOL    HW213458   9.103   0.643   5.429  4.1605 -0.9577  1.0522
37069SOL     OW13459   3.620   1.460   0.507  0.1679 -0.1537 -0.1427
37069SOL    HW113460   3.670   1.537   0.533 -1.5433  0.2688  2.2157
37069SOL    HW213461   3.682   1.388   0.512  0.9079  0.5492  1.3574
37070SOL     OW13462   8.256   5.712   0.572 -0.4139 -0.0692  0.0713
37070SOL    HW113463   8.322   5.720   0.641 -0.2455 -2.8780  0.3453
37070SOL    HW213464   8.253   5.619   0.552 -4.2530 -0.1035  0.0232
37071SOL     OW13465   5.240   6.035   3.426 -0.3831 -0.5884  0.4402
37071SOL    HW113466   5.165   6.081   3.464 -0.1061  0.6961 -0.4973
37071SOL    HW213467   5.316   6.077   3.466 -0.1125  0.1286 -0.7671
37072SOL     OW13468   9.768   7.070   9.445 -0.4669  0.5421 -0.2065
37072SOL    HW113469   9.707   7.090   9.374 -0.8150  0.3828  0.0459
37072SOL    HW213470   9.845   7.036   9.401 -0.1345  1.7525 -0.6056
37073SOL     OW13471  10.647   1.362   3.491  0.1976  0.0720 -0.3864
37073SOL    HW113472  10.559   1.340   3.520 -0.4830 -0.0432 -2.3426
37073SOL    HW213473  10.634   1.436   3.431  1.2555 -0.7912 -1.7271
37074SOL     OW13474   5.523   5.209   3.137 -0.4370  0.1655 -0.9527
37074SOL    HW113475   5.479   5.164   3.065  0.1160 -0.9010 -0.6352
37074SOL    HW213476   5.578   5.142   3.178 -0.7245  0.7575  0.4519
37075SOL     OW13477   0.803  10.054   9.971  0.1976 -0.3646 -0.3047
37075SOL    HW113478   0.816  10.149   9.971  0.7196 -0.4357 -0.5890
37075SOL    HW213479   0.792  10.032   9.878 -0.5930 -0.4972 -0.1897
37076SOL     OW13480   8.082   1.888   6.991  0.3064  0.3071 -0.2777
37076SOL    HW113481   8.063   1.942   6.914  1.2838 -0.3751 -1.0155
37076SOL    HW213482   8.120   1.950   7.054 -1.2115  1.0213 -0.0228
37077SOL     OW13483   7.588   7.105   2.071 -0.1907  0.0839  0.1128
37077SOL    HW113484   7.592   7.112   2.167  1.3508  1.5538  0.0005
37077SOL    HW213485   7.512   7.158   2.047  0.1531  0.7603  0.4736
37078SOL     OW13486   7.016   8.568   9.755 -0.0334  0.0545  0.1281
37078SOL    HW113487   7.057   8.521   9.682 -0.7023  0.8562 -0.8051
37078SOL    HW213488   7.085   8.576   9.821 -0.3046 -3.5878  1.0481
37079SOL     OW13489   4.811   1.887   8.085  0.3910  0.1560 -0.1542
37079SOL    HW113490   4.799   1.952   8.154 -0.4306 -0.5929  0.4301
37079SOL    HW213491   4.805   1.803   8.130  2.5426 -0.3456 -0.7099
37080SOL     OW13492   5.689   9.859   5.015  0.2184 -0.3437  0.0614
37080SOL    HW113493   5.609   9.822   5.051  0.5721 -0.9841  0.1975
37080SOL    HW213494   5.660   9.939   4.971 -0.1828  0.6193  1.9932
37081SOL     OW13495   3.688   4.737   4.168  0.0001  0.1983  0.3970
37081SOL    HW113496   3.751   4.770   4.231 -0.2314 -0.2806  0.8835
37081SOL    HW213497   3.665   4.649   4.199  0.4917 -0.3723 -0.8008
37082SOL     OW13498   4.634   1.954   6.994 -0.3317  0.0671  0.1767
37082SOL    HW113499   4.573   1.943   7.066  0.7346 -3.2741  0.7151
37082SOL    HW213500   4.594   1.906   6.921  0.6719 -0.4077 -0.0772
37083SOL     OW13501   7.952   7.178   2.051  0.0487 -0.2828  0.5276
37083SOL    HW113502   8.029   7.121   2.054  0.5529  0.3161 -0.6710
37083SOL    HW213503   7.896   7.139   1.984  0.3648  0.5602 -0.2465
37084SOL     OW13504   8.324   2.830   3.549  0.0855 -0.4904 -0.0863
37084SOL    HW113505   8.297   2.861   3.636 -0.9023  1.4806 -1.0350
37084SOL    HW213506   8.413   2.796   3.563  0.7733  1.6707  1.3361
37085SOL     OW13507   1.317   7.538   2.663 -0.1394 -0.4594 -0.1686
37085SOL    HW113508   1.387   7.532   2.599  0.8137  0.2772  0.7665
37085SOL    HW213509   1.238   7.512   2.615  0.8998 -2.2952 -0.9827
37086SOL     OW13510   9.454   1.965   7.852  0.4371  0.3743 -0.1613
37086SOL    HW113511   9.500   1.956   7.936  0.6573 -1.1480 -0.4047
37086SOL    HW213512   9.362   1.947   7.873  0.6217 -0.8937 -0.3675
37087SOL     OW13513   6.716   8.450   9.757 -0.3059  0.3161 -0.2494
37087SOL    HW113514   6.803   8.486   9.770  0.2553  0.1080 -2.8977
37087SOL    HW213515   6.692   8.415   9.843  1.7574  1.2931  0.8073
37088SOL     OW13516   0.445   3.778   5.788 -0.2585 -0.2692  0.4908
37088SOL    HW113517   0.436   3.735   5.703 -0.5829 -0.5734  0.6768
37088SOL    HW213518   0.373   3.743   5.840 -0.4006  0.3495  0.7115
37089SOL     OW13519   1.832  10.343   8.308  0.0498 -0.9396  0.4976
37089SOL    HW113520   1.756  10.401   8.304 -0.0025 -1.0348 -0.0102
37089SOL    HW213521   1.899  10.387   8.257  0.6831 -0.3759  1.7802
37090SOL     OW13522  10.013   2.795   3.620 -0.2360 -0.3484  0.0694
37090SOL    HW113523   9.944   2.810   3.685 -0.7478  2.0307 -0.9383
37090SOL    HW213524   9.995   2.858   3.551  1.6834 -1.2085 -1.2882
37091SOL     OW13525   8.517   3.705   9.305  0.0339 -0.3029  0.1945
37091SOL    HW113526   8.445   3.765   9.288  2.2068  2.4208 -0.0363
37091SOL    HW213527   8.505   3.634   9.242 -1.5488  0.8728 -0.8978
37092SOL     OW13528   8.487   5.795   0.701 -0.4045 -0.6911 -0.1654
37092SOL    HW113529   8.570   5.758   0.733 -0.8493  0.4795  2.5750
37092SOL    HW213530   8.511   5.882   0.669 -0.5624 -0.3361  0.6660
37093SOL     OW13531   6.773   0.511   3.893 -0.7810  0.2713 -0.0707
37093SOL    HW113532   6.706   0.528   3.828 -1.3371 -0.1875  0.3722
37093SOL    HW213533   6.726   0.509   3.977 -0.2509 -0.2130  0.2268
37094SOL     OW13534   5.445   4.106   9.793 -0.4017 -0.5404 -0.3913
37094SOL    HW113535   5.431   4.033   9.733 -1.4588 -0.0159 -0.7992
37094SOL    HW213536   5.357   4.134   9.817 -0.0870  1.8932 -1.8246
37095SOL     OW13537   1.437   4.392   9.307  0.0170  1.2371 -0.4794
37095SOL    HW113538   1.519   4.441   9.315  0.5413  0.1493  1.5992
37095SOL    HW213539   1.369   4.455   9.329  0.3872  1.8366 -1.0197
37096SOL     OW13540   1.273   6.911   6.705  0.8645  0.3635 -0.3521
37096SOL    HW113541   1.339   6.843   6.689  1.3520  0.5043  0.9364
37096SOL    HW213542   1.277   6.927   6.800 -0.4768  0.9376 -0.3626
37097SOL     OW13543   7.215   8.359   9.050 -0.5499 -0.9848 -0.2803
37097SOL    HW113544   7.270   8.406   8.987 -0.4179  0.4028  0.8433
37097SOL    HW213545   7.269   8.286   9.079 -0.4605 -1.4100 -1.4436
37098SOL     OW13546   1.718   1.620   7.453 -0.3018  0.2464  0.5012
37098SOL    HW113547   1.680   1.548   7.504 -0.6636 -0.7656 -1.1505
37098SOL    HW213548   1.761   1.578   7.379 -0.0740  1.7079 -0.2357
37099SOL     OW13549   6.693   3.374   5.431  0.6393  0.3775  0.2825
37099SOL    HW113550   6.698   3.393   5.524 -0.0032  0.2513  0.3429
37099SOL    HW213551   6.749   3.297   5.419 -1.1442 -1.1021  0.9849
37100SOL     OW13552   8.725   2.810   9.437 -0.0405 -0.6447 -0.8892
37100SOL    HW113553   8.800   2.857   9.401 -0.7750 -0.7832 -2.6852
37100SOL    HW213554   8.757   2.721   9.452  0.2740 -0.5942 -1.2436
37101SOL     OW13555   8.220   2.946   5.019  0.0232  0.0344 -0.0321
37101SOL    HW113556   8.141   2.900   5.045 -0.7143  0.5846 -1.2306
37101SOL    HW213557   8.288   2.879   5.017 -0.3306 -0.3855  1.2752
37102SOL     OW13558   2.985   0.632   9.895  0.2819 -0.1388 -0.1271
37102SOL    HW113559   2.925   0.697   9.859 -0.3855 -0.8273 -0.2926
37102SOL    HW213560   3.072   0.665   9.875  0.0522  1.9369  1.9443
37103SOL     OW13561   3.954   6.983   8.378  0.0148 -0.2664 -0.3423
37103SOL    HW113562   4.034   7.028   8.352 -0.1341  0.2876  0.1409
37103SOL    HW213563   3.884   7.026   8.328 -0.0986 -0.1151 -0.0571
37104SOL     OW13564   3.882   4.330   6.117  0.0727  0.7332  0.6193
37104SOL    HW113565   3.934   4.366   6.189  2.6930  0.4565 -0.9642
37104SOL    HW213566   3.828   4.403   6.086  0.2994  1.3633  1.6780
37105SOL     OW13567   3.402   3.280   3.062  0.0991  0.4020  0.2818
37105SOL    HW113568   3.472   3.232   3.106 -0.3922 -1.3753 -0.7729
37105SOL    HW213569   3.415   3.260   2.969  0.3705  3.0532 -0.3084
37106SOL     OW13570   6.444   8.502   6.513  0.1028 -0.8626  0.3121
37106SOL    HW113571   6.429   8.414   6.479  0.6079 -0.3219 -1.4073
37106SOL    HW213572   6.371   8.554   6.480 -0.8372 -0.8281  2.2824
37107SOL     OW13573   0.049   5.049  10.638  0.1872 -0.2118  0.2044
37107SOL    HW113574   0.048   4.956  10.664 -2.4289 -0.4711 -0.6279
37107SOL    HW213575   0.028   5.048  10.545  2.2241  1.1550 -0.3341
37108SOL     OW13576   3.070   3.327   5.743  0.0042 -0.3767  0.4069
37108SOL    HW113577   3.086   3.416   5.710 -0.8608 -0.0724  0.7842
37108SOL    HW213578   2.988   3.301   5.703 -2.3574  0.8929  3.9117
37109SOL     OW13579   5.399   2.114   7.859 -0.0442  0.4603 -0.4427
37109SOL    HW113580   5.331   2.080   7.801  1.7177 -2.8634 -0.8465
37109SOL    HW213581   5.481   2.091   7.816  1.3430  1.1500  1.6543
37110SOL     OW13582   4.681   7.184   3.248  0.3183  0.3526 -0.0275
37110SOL    HW113583   4.617   7.128   3.291  0.2185  0.1980 -0.3749
37110SOL    HW213584   4.629   7.251   3.204  0.4202  0.5050  0.0808
37111SOL     OW13585   0.395   4.376   2.021 -0.0181 -0.1709 -0.0686
37111SOL    HW113586   0.465   4.378   2.087  1.3010 -1.1416 -1.3674
37111SOL    HW213587   0.364   4.286   2.023 -0.4129 -0.0393 -0.3426
37112SOL     OW13588   5.388   7.895   4.339 -0.6412  0.4860  0.1884
37112SOL    HW113589   5.441   7.849   4.403 -3.2616 -1.0568  1.4133
37112SOL    HW213590   5.440   7.973   4.316  1.0400  0.3535  3.0648
37113SOL     OW13591   3.970   6.588   2.574 -0.0518  0.4234  0.0731
37113SOL    HW113592   3.933   6.606   2.661 -0.3850 -1.7055  0.4459
37113SOL    HW213593   3.912   6.520   2.538  1.6628 -0.7081 -0.6458
37114SOL     OW13594   2.096   8.334  10.229 -0.2181 -0.1777 -0.1463
37114SOL    HW113595   2.054   8.271  10.288 -0.3946  1.1035  1.1576
37114SOL    HW213596   2.032   8.405  10.221 -0.1206 -0.2250 -1.7780
37115SOL     OW13597  10.425   6.555   1.761  0.2058 -0.5968  0.3352
37115SOL    HW113598  10.397   6.601   1.841  0.5159  0.9544 -0.4246
37115SOL    HW213599  10.511   6.520   1.783  0.4296  0.0937  0.5847
37116SOL     OW13600   6.456   3.547   5.800 -0.6147  0.3998 -0.1333
37116SOL    HW113601   6.399   3.539   5.724  2.6818  2.7116 -3.1637
37116SOL    HW213602   6.488   3.637   5.796  3.3936 -0.7787  1.0961
37117SOL     OW13603   8.306   6.427   4.697 -0.9834 -0.1846 -0.2696
37117SOL    HW113604   8.315   6.340   4.659  1.4389 -0.1745  0.1363
37117SOL    HW213605   8.295   6.485   4.621  0.7837 -0.5043 -0.8061
37118SOL     OW13606   4.397   5.941   4.832 -0.0871  0.2361 -0.1312
37118SOL    HW113607   4.388   5.857   4.876  1.7782  0.9404  1.8131
37118SOL    HW213608   4.480   5.934   4.785  0.2275  1.0491  0.2803
37119SOL     OW13609   2.470   6.891   3.039 -0.2416  0.3569 -0.1448
37119SOL    HW113610   2.436   6.807   3.010  0.3996  0.1152 -0.2094
37119SOL    HW213611   2.429   6.955   2.981  0.2529 -0.0267 -0.9268
37120SOL     OW13612   5.968   2.241   9.496  0.1015 -0.4950 -0.2927
37120SOL    HW113613   6.059   2.240   9.528 -0.0234 -0.7740  0.0646
37120SOL    HW213614   5.956   2.155   9.456 -0.8348 -1.5436  2.0817
37121SOL     OW13615   1.954   7.347   6.310  0.3977  0.1743  0.0207
37121SOL    HW113616   1.991   7.259   6.307  0.4490  0.1266  1.3896
37121SOL    HW213617   1.954   7.377   6.219 -0.8096 -1.7287 -0.6735
37122SOL     OW13618   8.193   8.119   6.509  0.1890  0.0568  0.1522
37122SOL    HW113619   8.150   8.170   6.440 -1.4871 -0.8291  0.4859
37122SOL    HW213620   8.253   8.061   6.462 -1.5504 -1.1413 -0.7055
37123SOL     OW13621   7.862   3.767   3.406 -0.2425  0.1669 -0.1372
37123SOL    HW113622   7.888   3.856   3.429  3.7872 -0.5501 -1.2086
37123SOL    HW213623   7.874   3.717   3.486  2.5435 -0.2498 -0.7410
37124SOL     OW13624   6.900   5.781  10.444  0.1763  0.1586 -0.2007
37124SOL    HW113625   6.835   5.846  10.471 -1.1532 -0.3242 -2.0251
37124SOL    HW213626   6.964   5.831  10.394  1.4705  0.6895  1.8620
37125SOL     OW13627   6.110   3.455   0.227 -0.1140 -0.1849 -0.7398
37125SOL    HW113628   6.071   3.393   0.288 -0.8070  1.2745  0.3521
37125SOL    HW213629   6.101   3.540   0.270  1.6322  0.5746 -1.7844
37126SOL     OW13630   0.520   4.886   2.870 -0.1951  0.4680  0.0245
37126SOL    HW113631   0.515   4.851   2.960  0.4162 -1.7094 -0.7148
37126SOL    HW213632   0.465   4.827   2.819  0.5553  0.8507 -1.2613
37127SOL     OW13633   2.954   7.990   5.415 -0.1010  0.5798 -0.0153
37127SOL    HW113634   2.913   7.948   5.490 -2.8154  1.3880 -0.9172
37127SOL    HW213635   3.036   7.943   5.402 -0.9459 -1.4784  1.6695
37128SOL     OW13636   1.125   8.623   7.205  0.5951 -0.4117  0.1925
37128SOL    HW113637   1.101   8.539   7.243  1.3932 -0.8720 -0.3024
37128SOL    HW213638   1.169   8.670   7.276 -0.1121 -0.2756  0.5582
37129SOL     OW13639   2.203   7.747   9.543 -0.5405  0.1453 -0.1005
37129SOL    HW113640   2.252   7.828   9.526 -0.1814 -0.1486 -0.4909
37129SOL    HW213641   2.172   7.719   9.457 -1.7153  0.5199  0.1954
37130SOL     OW13642   7.377   7.089   6.746  0.6333  0.0914 -0.2937
37130SOL    HW113643   7.312   7.158   6.731  0.1627 -0.5854 -1.4881
37130SOL    HW213644   7.366   7.065   6.837 -0.4909  0.3004 -0.3633
37131SOL     OW13645   5.456   5.769   4.113  0.3509  0.2046 -0.1194
37131SOL    HW113646   5.405   5.689   4.126 -0.3078  0.7807  1.1139
37131SOL    HW213647   5.395   5.830   4.072  1.5180 -0.5857 -3.3144
37132SOL     OW13648   1.601  10.118   0.175  0.0326 -0.1076  0.1094
37132SOL    HW113649   1.553  10.037   0.192  0.6111 -0.8756 -1.6113
37132SOL    HW213650   1.600  10.126   0.079  2.0638  0.6072  0.1027
37133SOL     OW13651   8.686   5.640   9.315 -0.0104  0.4995 -0.4501
37133SOL    HW113652   8.672   5.546   9.319  0.7805  0.4071  0.7359
37133SOL    HW213653   8.652   5.666   9.229 -1.9412 -0.5566 -0.0508
37134SOL     OW13654   5.699   7.688   2.927  0.0904 -0.1489  0.3820
37134SOL    HW113655   5.648   7.673   3.007 -0.8360 -2.3698 -0.5674
37134SOL    HW213656   5.773   7.628   2.933  0.4929  0.2911 -0.0440
37135SOL     OW13657   3.628   5.080   5.986 -0.0341  0.4192  0.1702
37135SOL    HW113658   3.592   5.156   5.942  2.2010  0.5329 -1.7058
37135SOL    HW213659   3.680   5.116   6.058  0.7444  0.7009 -0.5083
37136SOL     OW13660   7.293   0.253   9.851 -0.3589 -0.0063  0.1962
37136SOL    HW113661   7.239   0.181   9.885  0.0264  0.2177  1.3420
37136SOL    HW213662   7.243   0.332   9.873 -0.2301  0.1289 -0.0042
37137SOL     OW13663   5.424  10.486   7.462  0.5006 -0.1471  0.3996
37137SOL    HW113664   5.463  10.405   7.430 -0.7744 -0.7127  0.2134
37137SOL    HW213665   5.336  10.461   7.491 -0.8154  1.5310 -1.7699
37138SOL     OW13666   5.237   8.075   3.655  0.0432 -0.2236  0.8682
37138SOL    HW113667   5.202   8.083   3.567  0.0345  0.7777  0.9532
37138SOL    HW213668   5.330   8.055   3.643 -0.2317 -1.4630  0.6464
37139SOL     OW13669   6.320  10.309   8.760  0.3533  0.0157 -0.1946
37139SOL    HW113670   6.379  10.285   8.688  1.6176 -1.8579  1.3643
37139SOL    HW213671   6.365  10.379   8.806  1.0940 -0.9484  0.5915
37140SOL     OW13672   1.467   4.243   8.376 -0.2261 -0.4344  0.6022
37140SOL    HW113673   1.543   4.191   8.350 -1.1635 -0.5542 -2.2364
37140SOL    HW213674   1.476   4.325   8.328 -1.4664 -0.1226  0.8544
37141SOL     OW13675   1.449   9.042   0.322  0.1995 -0.0183 -0.4583
37141SOL    HW113676   1.462   9.103   0.249 -0.3484  0.4978 -0.1254
37141SOL    HW213677   1.392   8.974   0.286  1.3639 -0.7168 -1.0352
37142SOL     OW13678   9.437   5.295   1.540 -0.0445  0.0505 -0.2193
37142SOL    HW113679   9.422   5.243   1.620 -3.2861  1.6635  0.3698
37142SOL    HW213680   9.411   5.238   1.469 -0.2433 -0.3227  0.1479
37143SOL     OW13681   8.280   8.511   6.373  0.3059 -0.2533 -0.2535
37143SOL    HW113682   8.269   8.544   6.462 -0.5674 -0.4163 -0.2978
37143SOL    HW213683   8.280   8.589   6.318  0.0869 -0.2029 -0.1821
37144SOL     OW13684   5.888   4.442   0.597 -0.0314 -0.6894  0.0705
37144SOL    HW113685   5.861   4.531   0.579 -1.2202 -0.8633  0.8329
37144SOL    HW213686   5.881   4.434   0.693  2.6554 -0.8111  0.3364
37145SOL     OW13687   4.206   6.053   8.008 -0.2109 -0.0197  0.1249
37145SOL    HW113688   4.145   5.990   8.045 -0.6726  0.1069 -0.4072
37145SOL    HW213689   4.189   6.052   7.914  0.5860  0.0409 -0.0317
37146SOL     OW13690   4.283   3.183   5.738  0.0679  0.1007  0.4129
37146SOL    HW113691   4.262   3.267   5.696 -0.7044 -1.3349 -2.3229
37146SOL    HW213692   4.245   3.190   5.825 -0.7583  2.2562 -0.0511
37147SOL     OW13693   3.286   5.691   1.840  0.3714 -0.2985 -0.3186
37147SOL    HW113694   3.376   5.662   1.824  0.7022  0.8625 -0.6034
37147SOL    HW213695   3.285   5.718   1.931  0.5361  0.4865 -0.5473
37148SOL     OW13696   2.346   2.133   7.815 -0.1799 -0.0104 -0.2692
37148SOL    HW113697   2.360   2.041   7.797  0.2758 -0.3806  1.7597
37148SOL    HW213698   2.423   2.161   7.864 -1.1672  0.9417  0.8103
37149SOL     OW13699   5.618   2.167   3.751 -0.0287  0.2303 -0.6329
37149SOL    HW113700   5.528   2.137   3.745 -0.0579 -0.0455  0.8498
37149SOL    HW213701   5.670   2.100   3.707 -0.4344 -0.1614 -0.5099
37150SOL     OW13702   0.535   4.709   5.520 -0.3973  0.9492 -0.2283
37150SOL    HW113703   0.440   4.715   5.515 -0.6086  0.3412  2.0537
37150SOL    HW213704   0.552   4.620   5.553  0.8301  1.7540  1.4273
37151SOL     OW13705   5.810   5.628   8.408 -0.0922 -0.2284 -0.1712
37151SOL    HW113706   5.871   5.568   8.452  1.1650 -0.8989 -2.6728
37151SOL    HW213707   5.727   5.616   8.454  0.8532 -1.7186  1.2504
37152SOL     OW13708   5.094   4.687   5.913  0.0735  0.2689 -0.0080
37152SOL    HW113709   5.124   4.773   5.883 -0.8006  0.6995  0.3264
37152SOL    HW213710   4.999   4.689   5.901 -0.1053 -0.1639  1.2214
37153SOL     OW13711   8.244   5.158   4.488  0.0565  0.2264  0.2403
37153SOL    HW113712   8.185   5.198   4.425  1.1892 -0.8080 -1.5539
37153SOL    HW213713   8.199   5.166   4.572 -1.0715  2.4981 -0.5046
37154SOL     OW13714  10.571  10.340   3.678  0.5726  0.3875  0.2156
37154SOL    HW113715  10.637  10.285   3.637  0.9721  1.5110 -0.6662
37154SOL    HW213716  10.517  10.278   3.728  2.4755 -0.5087  1.2633
37155SOL     OW13717   9.345   3.331   0.830 -0.3574  0.4725  0.2507
37155SOL    HW113718   9.298   3.395   0.885 -2.2531 -0.4278 -0.2406
37155SOL    HW213719   9.301   3.248   0.848  1.3042 -0.5037 -0.0182
37156SOL     OW13720   4.004   8.560   9.637 -0.0861 -0.9012  0.0177
37156SOL    HW113721   4.048   8.475   9.647  0.6420 -1.1197 -3.6022
37156SOL    HW213722   4.009   8.579   9.543  0.6583  3.6495  0.7326
37157SOL     OW13723   4.160   7.708   6.126 -0.2734 -0.3040  0.2725
37157SOL    HW113724   4.105   7.710   6.048  2.4009 -0.9200 -1.7466
37157SOL    HW213725   4.165   7.800   6.154 -0.7501  0.0125 -0.6345
37158SOL     OW13726   7.248   0.180   8.461 -0.8979 -0.5232 -0.1843
37158SOL    HW113727   7.189   0.194   8.535 -2.1250  0.0577 -1.2296
37158SOL    HW213728   7.259   0.267   8.422 -1.1762 -0.9737 -1.3207
37159SOL     OW13729   1.897   8.518  10.211 -0.7284  0.3086  0.1872
37159SOL    HW113730   1.881   8.503  10.118 -2.2660 -2.1386  0.7600
37159SOL    HW213731   1.851   8.600  10.230 -1.0482  0.4348 -1.0197
37160SOL     OW13732   7.826   3.476   6.603 -0.3235  0.0540 -0.6586
37160SOL    HW113733   7.890   3.413   6.634  1.8800  1.5548 -1.9199
37160SOL    HW213734   7.786   3.510   6.683 -1.4854 -2.7263  0.0597
37161SOL     OW13735   8.579   8.263   2.561 -0.1114  0.1994  0.1923
37161SOL    HW113736   8.622   8.325   2.620 -0.5034 -1.2551  2.1064
37161SOL    HW213737   8.498   8.307   2.535  1.7711  2.4109 -2.3918
37162SOL     OW13738   5.857   9.822  10.225 -0.4855 -0.3532 -0.4883
37162SOL    HW113739   5.828   9.913  10.230  0.2105 -0.2076  1.7820
37162SOL    HW213740   5.780   9.773  10.196 -2.1767  0.4375  2.3306
37163SOL     OW13741   8.959  10.371  10.035  0.3136 -0.3809  0.3720
37163SOL    HW113742   9.033  10.327  10.078 -0.4641 -1.8486  0.2738
37163SOL    HW213743   8.942  10.319   9.957 -1.1859 -0.4307  0.6943
37164SOL     OW13744   1.190   3.787   4.452 -0.2270  0.3564 -0.3035
37164SOL    HW113745   1.119   3.779   4.389 -0.2671  0.3885 -0.2622
37164SOL    HW213746   1.155   3.842   4.522 -0.7695 -1.1062  0.6034
37165SOL     OW13747   1.698   6.868   6.750 -0.5328  0.0808  0.4285
37165SOL    HW113748   1.650   6.882   6.668  0.8466  0.6595 -0.3276
37165SOL    HW213749   1.709   6.774   6.756  0.0155  0.0746 -0.4782
37166SOL     OW13750   7.948   6.938   3.459 -0.2199 -0.1707 -0.0302
37166SOL    HW113751   8.044   6.937   3.457 -0.1618  1.5201  0.4165
37166SOL    HW213752   7.922   6.912   3.370  0.6175 -1.3038  0.0380
37167SOL     OW13753   5.013   5.150   5.287 -0.5146  0.7743 -0.2559
37167SOL    HW113754   5.090   5.136   5.232 -1.6254 -1.5115 -1.3497
37167SOL    HW213755   4.939   5.119   5.234 -1.9112  0.6592  1.6552
37168SOL     OW13756   7.279   6.881   6.364 -0.0405  0.1616  0.1596
37168SOL    HW113757   7.299   6.870   6.457  1.1839 -0.7787 -0.1838
37168SOL    HW213758   7.305   6.971   6.345 -0.6007  0.4692  0.7805
37169SOL     OW13759   3.044   2.355   3.281 -0.5623 -0.4068  0.0868
37169SOL    HW113760   3.131   2.376   3.314 -0.3760 -1.0062 -0.0193
37169SOL    HW213761   3.048   2.263   3.258 -1.0519 -0.2987 -0.4756
37170SOL     OW13762   2.826   2.405   5.209 -0.2219 -0.3697  0.1921
37170SOL    HW113763   2.854   2.466   5.277 -0.0903 -0.0466 -0.1485
37170SOL    HW213764   2.837   2.319   5.248  0.0249 -0.1943  0.5156
37171SOL     OW13765   2.115   5.341   9.437  0.1999 -0.7050  0.1558
37171SOL    HW113766   2.157   5.285   9.372  1.5128 -1.6699  1.7648
37171SOL    HW213767   2.129   5.297   9.520 -2.4658 -0.1249  1.0261
37172SOL     OW13768   0.988   9.720   8.123  0.4112  0.6444  0.1241
37172SOL    HW113769   1.058   9.657   8.139 -0.7805 -0.7618 -0.0642
37172SOL    HW213770   0.950   9.736   8.209 -0.2081 -0.0005 -0.0269
37173SOL     OW13771   4.840   9.923   5.247  0.1668  0.0349  0.0898
37173SOL    HW113772   4.781   9.905   5.173 -0.4895 -0.2866  0.6791
37173SOL    HW213773   4.855  10.017   5.244  0.1952  0.0131 -0.4925
37174SOL     OW13774   2.656   9.805   3.271  0.0230  0.3158  0.3501
37174SOL    HW113775   2.596   9.878   3.284  0.4849  0.6865  0.3980
37174SOL    HW213776   2.624   9.737   3.330 -0.9245  0.1561 -0.3131
37175SOL     OW13777   1.633   7.553   5.176 -0.4157  0.1529 -0.3937
37175SOL    HW113778   1.597   7.527   5.261 -1.9289 -0.0844 -1.0714
37175SOL    HW213779   1.626   7.649   5.175 -0.8676  0.1200 -0.4465
37176SOL     OW13780   4.744   5.977   3.812 -0.0041 -0.2787  0.3252
37176SOL    HW113781   4.757   5.925   3.891  0.4821 -1.1359 -0.3023
37176SOL    HW213782   4.661   6.022   3.826  0.7167  0.6255  1.8868
37177SOL     OW13783   5.505   2.282   5.500  0.6924 -0.0707 -0.2109
37177SOL    HW113784   5.546   2.271   5.586  1.6562 -0.3738 -0.6955
37177SOL    HW213785   5.578   2.296   5.440 -0.0126  1.2611 -0.8284
37178SOL     OW13786   6.242   0.691   4.578  0.0814 -0.2531  0.4860
37178SOL    HW113787   6.205   0.683   4.490 -1.6442  0.7105  1.0718
37178SOL    HW213788   6.202   0.618   4.626  0.8040 -0.6105  0.5501
37179SOL     OW13789   0.746   3.157   8.041  0.8295  0.0518  0.0647
37179SOL    HW113790   0.826   3.113   8.069  1.4071  1.1615  0.2080
37179SOL    HW213791   0.774   3.246   8.019 -0.2174  0.2117 -0.6956
37180SOL     OW13792   5.900  10.589   8.251 -0.4110  0.0552 -0.2960
37180SOL    HW113793   5.830  10.653   8.250 -0.0171  0.4817 -1.4267
37180SOL    HW213794   5.855  10.504   8.255 -0.9263  0.3727  1.4649
37181SOL     OW13795   5.093   1.315   1.412  0.0427 -0.4081 -0.1239
37181SOL    HW113796   5.179   1.307   1.453 -0.1760  1.0424  0.6569
37181SOL    HW213797   5.051   1.230   1.429  0.9637 -0.8008  0.2787
37182SOL     OW13798   6.549   0.905   8.471 -0.4324 -0.1031  0.3129
37182SOL    HW113799   6.641   0.909   8.443 -0.7754  0.0577 -0.8602
37182SOL    HW213800   6.553   0.898   8.566  0.7758  1.8248  0.4737
37183SOL     OW13801   2.145   2.566   8.916 -0.2351 -0.7780  0.4654
37183SOL    HW113802   2.181   2.624   8.984  1.7061 -1.5669  0.1927
37183SOL    HW213803   2.064   2.608   8.889  0.2622  0.9173  1.4489
37184SOL     OW13804   4.713   8.803   9.913 -0.2778 -0.0924  0.1585
37184SOL    HW113805   4.621   8.829   9.923 -0.2440  0.5201 -0.9385
37184SOL    HW213806   4.760   8.858   9.975 -0.5137  0.5352 -0.2094
37185SOL     OW13807   2.109  10.440   4.926  0.1584  0.4657  0.5354
37185SOL    HW113808   2.019  10.471   4.915 -0.0719 -0.1870  0.5844
37185SOL    HW213809   2.101  10.348   4.949  0.8680  0.0572 -0.7209
37186SOL     OW13810   6.736   1.123   9.881  0.1282  0.0661 -0.5404
37186SOL    HW113811   6.698   1.039   9.905 -0.4190 -0.2765 -2.4281
37186SOL    HW213812   6.830   1.110   9.888  0.0122 -0.2696  0.4948
37187SOL     OW13813   8.522   3.267   8.830  0.2029  0.4901 -0.0384
37187SOL    HW113814   8.551   3.243   8.742 -3.9386 -3.1766 -0.7556
37187SOL    HW213815   8.510   3.184   8.875 -1.0785  2.0829  2.8452
37188SOL     OW13816  10.426   5.728   2.335  0.2165  0.0431 -0.2611
37188SOL    HW113817  10.521   5.722   2.349 -0.0703 -1.9745  1.2461
37188SOL    HW213818  10.393   5.640   2.353 -1.6105 -0.2524 -4.0857
37189SOL     OW13819   3.764   0.681   7.113  0.2243 -0.1078  0.2674
37189SOL    HW113820   3.670   0.666   7.102  0.0452 -0.0604  1.4960
37189SOL    HW213821   3.777   0.675   7.208  1.0341  2.3125  0.3801
37190SOL     OW13822   5.619  10.598   6.417  0.0277  0.9340 -0.7660
37190SOL    HW113823   5.572  10.601   6.500 -0.7164  1.9849 -1.2037
37190SOL    HW213824   5.672  10.519   6.422 -1.0400  0.2527  0.1558
37191SOL     OW13825   4.905   6.376   7.149 -0.0728  0.4682  0.1283
37191SOL    HW113826   4.918   6.467   7.120  1.1132  1.2093  2.6785
37191SOL    HW213827   4.851   6.383   7.227 -1.0346 -1.1834 -0.3425
37192SOL     OW13828   8.619   3.389   7.731  0.2536 -0.5683 -0.1153
37192SOL    HW113829   8.535   3.402   7.774  0.2601  1.3853 -0.6456
37192SOL    HW213830   8.607   3.309   7.680 -2.0081  0.7714 -1.8572
37193SOL     OW13831   5.145   7.873   2.776 -0.0485  0.1125  0.0252
37193SOL    HW113832   5.165   7.965   2.757 -1.1660  0.7429  1.6788
37193SOL    HW213833   5.136   7.833   2.689 -0.1060  1.6902 -0.7451
37194SOL     OW13834   1.959   3.607   8.839 -0.3862 -0.0312 -0.1466
37194SOL    HW113835   1.976   3.561   8.757 -0.1410  1.3292 -0.8938
37194SOL    HW213836   1.988   3.546   8.908  2.7447  0.1222 -1.1691
37195SOL     OW13837   9.892   2.252   4.131 -0.0376  0.0409 -0.2155
37195SOL    HW113838   9.895   2.179   4.193  1.8363 -1.8800 -2.4209
37195SOL    HW213839   9.801   2.252   4.100 -0.2909 -0.7880  0.4702
37196SOL     OW13840   5.812   5.978   7.247  0.0665  0.2578 -0.2055
37196SOL    HW113841   5.899   5.971   7.208 -0.2013 -1.0216 -0.6114
37196SOL    HW213842   5.795   6.072   7.253  0.3645  0.5103 -2.6095
37197SOL     OW13843   8.910   5.597   8.140  0.6161 -0.1601  0.3815
37197SOL    HW113844   8.946   5.680   8.170  0.2265 -0.2163  1.0168
37197SOL    HW213845   8.824   5.619   8.105 -0.1654 -0.5088  2.0168
37198SOL     OW13846   5.109   8.824   9.594  0.5444  0.2371 -0.1822
37198SOL    HW113847   5.186   8.767   9.604 -0.8185 -1.5415  0.8043
37198SOL    HW213848   5.054   8.803   9.670 -0.2612  2.5655 -0.0469
37199SOL     OW13849   3.976   1.958   7.933  0.1571 -0.0588 -0.2653
37199SOL    HW113850   4.067   1.930   7.937  0.1539  0.0844  2.1956
37199SOL    HW213851   3.980   2.053   7.928  0.1148 -0.1297 -2.3898
37200SOL     OW13852   6.076   8.591   7.748  0.5137  0.2201 -0.3582
37200SOL    HW113853   6.150   8.607   7.806 -0.3053  1.0994  0.4885
37200SOL    HW213854   6.001   8.627   7.795 -0.6822 -1.8316 -0.5862
37201SOL     OW13855   4.634  10.415  10.623  0.1143 -0.5055  0.1908
37201SOL    HW113856   4.631  10.471  10.700 -0.1050  1.9697 -1.5271
37201SOL    HW213857   4.722  10.376  10.625  0.5059  0.3850  1.0998
37202SOL     OW13858   5.063   6.971   6.935 -0.5934 -0.6092 -0.2263
37202SOL    HW113859   5.053   6.892   6.883 -2.3137 -1.2668  1.0273
37202SOL    HW213860   5.113   6.943   7.012 -0.4892 -0.2816 -0.1716
37203SOL     OW13861   3.175   2.891   1.457  0.0900 -0.0347  0.0391
37203SOL    HW113862   3.244   2.827   1.477  0.9432  1.1005  0.9290
37203SOL    HW213863   3.149   2.925   1.543  1.1226  2.2562 -0.4620
37204SOL     OW13864   2.672   7.744   2.729  0.1509  0.4183  0.4046
37204SOL    HW113865   2.685   7.803   2.654 -2.0510 -1.0361 -1.2470
37204SOL    HW213866   2.595   7.780   2.774 -1.2594 -1.1061 -0.6598
37205SOL     OW13867  10.644   6.500   1.854 -0.0557  0.1948 -0.6764
37205SOL    HW113868  10.719   6.456   1.814  0.1014  0.0395 -0.2250
37205SOL    HW213869  10.682   6.552   1.925 -0.4430 -0.4765  0.0483
37206SOL     OW13870  10.179   1.861   0.769 -0.4878  0.2257 -0.4235
37206SOL    HW113871  10.205   1.781   0.723 -2.3293 -0.7571  0.1668
37206SOL    HW213872  10.160   1.924   0.699  1.1919  0.2722 -0.8898
37207SOL     OW13873   5.653   4.185   2.762  0.1121  0.0491 -0.3610
37207SOL    HW113874   5.683   4.121   2.698 -0.5379 -1.7784  1.0638
37207SOL    HW213875   5.725   4.246   2.771  2.1372 -2.3030  0.5328
37208SOL     OW13876  10.509   9.905   3.380  0.5301  0.2319  0.1448
37208SOL    HW113877  10.570   9.965   3.337 -1.9087  1.3485 -2.0294
37208SOL    HW213878  10.528   9.819   3.342  0.0420  0.7771 -1.3925
37209SOL     OW13879   1.501   0.950   1.660  0.1704 -0.4400  0.6160
37209SOL    HW113880   1.568   1.019   1.656 -0.4314  0.1494  0.4655
37209SOL    HW213881   1.547   0.871   1.633  0.2872  0.3721 -1.8261
37210SOL     OW13882   6.019   1.484   4.306 -0.2780  0.1514 -0.3760
37210SOL    HW113883   6.066   1.479   4.389 -1.1589 -0.0639  0.1338
37210SOL    HW213884   6.081   1.453   4.240  0.2500 -0.2181  0.2887
37211SOL     OW13885   7.646  10.040  10.291 -0.7795 -0.2120  0.5057
37211SOL    HW113886   7.652  10.019  10.198 -0.6051 -0.8808  0.6590
37211SOL    HW213887   7.671  10.132  10.297 -0.5919 -0.2225 -0.0841
37212SOL     OW13888   6.224   6.204   3.723  0.3253 -0.5609  0.6864
37212SOL    HW113889   6.258   6.134   3.778  1.2134 -0.8319 -0.1671
37212SOL    HW213890   6.260   6.284   3.761  0.8097 -0.7352  0.6132
37213SOL     OW13891  10.337   6.934   2.135  0.0607  0.4619 -0.2452
37213SOL    HW113892  10.255   6.949   2.182 -1.6322 -0.0249 -2.8963
37213SOL    HW213893  10.404   6.944   2.203 -2.2233 -1.3444  2.5495
37214SOL     OW13894   0.618  10.258   8.392 -0.3388 -0.4466  0.1694
37214SOL    HW113895   0.573  10.315   8.455 -0.0500  0.8500 -0.7651
37214SOL    HW213896   0.700  10.235   8.435  0.0713  0.8265  0.0826
37215SOL     OW13897   9.663   1.598   0.693  0.1091  0.2665 -0.4155
37215SOL    HW113898   9.615   1.597   0.610 -0.2585 -1.2081 -0.2131
37215SOL    HW213899   9.603   1.559   0.756  0.9994 -0.2097  0.1628
37216SOL     OW13900   8.759   8.428   8.932 -0.2025 -0.5271  0.0529
37216SOL    HW113901   8.854   8.434   8.939 -0.1473 -0.7277 -0.4865
37216SOL    HW213902   8.728   8.430   9.023  0.3646 -1.3619  0.2764
37217SOL     OW13903   9.566   8.083   4.261 -0.8604  0.4162  0.1085
37217SOL    HW113904   9.569   7.993   4.293 -1.3165 -0.1287 -1.2720
37217SOL    HW213905   9.620   8.132   4.322 -1.1500 -0.6562  1.2879
37218SOL     OW13906  10.264   7.642   3.403 -0.0551  0.3773 -0.3940
37218SOL    HW113907  10.345   7.693   3.404  0.2137 -0.0471  0.1350
37218SOL    HW213908  10.266   7.596   3.319  0.1637  0.5084 -0.4607
37219SOL     OW13909   0.010   5.882   4.296  0.1899  0.2083 -0.3183
37219SOL    HW113910  -0.065   5.901   4.353 -0.3845  0.4984 -1.1551
37219SOL    HW213911   0.044   5.799   4.329 -0.5406  0.0376  0.0313
37220SOL     OW13912   4.518   1.831   8.931 -0.0528 -0.5263  0.5682
37220SOL    HW113913   4.524   1.794   9.019  0.3998  0.2394  0.8741
37220SOL    HW213914   4.433   1.802   8.898 -1.2150  0.9287  2.0944
37221SOL     OW13915   6.881   0.515   1.649 -0.3764 -0.2965 -0.2153
37221SOL    HW113916   6.948   0.451   1.624 -2.8867 -2.9838 -0.6424
37221SOL    HW213917   6.881   0.514   1.745  0.3010 -0.1201 -0.2099
37222SOL     OW13918  10.134   5.927   0.228  0.0857 -0.4623 -0.2856
37222SOL    HW113919  10.085   5.855   0.189  2.2144 -0.8430 -2.4789
37222SOL    HW213920  10.107   6.004   0.178  0.6780 -0.4366 -0.5731
37223SOL     OW13921  10.463  10.311   1.928  0.0258 -0.2857 -0.1853
37223SOL    HW113922  10.495  10.290   1.840  0.9969  0.9853 -0.1671
37223SOL    HW213923  10.542  10.337   1.976 -0.8623  2.3570  0.0394
37224SOL     OW13924   8.608   5.275   4.996 -0.0029 -0.2817  0.3048
37224SOL    HW113925   8.535   5.337   4.999 -0.3457 -0.6697 -0.0232
37224SOL    HW213926   8.617   5.252   4.904 -0.5214 -1.4876  0.5447
37225SOL     OW13927   0.972   2.931  10.354  0.0699 -0.1641 -0.1846
37225SOL    HW113928   0.929   2.852  10.387 -0.0665  0.7894  2.0455
37225SOL    HW213929   0.900   2.991  10.335  0.2813  0.2638  0.3762
37226SOL     OW13930   7.647   5.551   5.602  0.7986  0.1918  0.5104
37226SOL    HW113931   7.664   5.545   5.696 -0.1990  0.7322  0.7325
37226SOL    HW213932   7.552   5.562   5.595  0.9949  1.5571 -0.4872
37227SOL     OW13933   3.866   9.296   5.302 -0.2524 -0.0614 -0.3194
37227SOL    HW113934   3.817   9.362   5.351 -1.1065 -0.4298 -0.6548
37227SOL    HW213935   3.957   9.309   5.329 -0.5110  0.7138  0.2314
37228SOL     OW13936   3.807  10.076   4.576  0.2959 -0.0408 -0.5612
37228SOL    HW113937   3.772   9.991   4.552  2.4944 -1.0047 -0.5666
37228SOL    HW213938   3.743  10.139   4.542 -0.9769 -1.6414 -1.2449
37229SOL     OW13939   1.984   9.866   4.914 -0.2608  0.2629 -0.7013
37229SOL    HW113940   1.899   9.880   4.956  0.8586  1.3618  1.3701
37229SOL    HW213941   2.031   9.809   4.975  0.8386  0.4969 -1.3183
37230SOL     OW13942   9.039   1.854   9.279 -0.2950  0.1929 -0.0624
37230SOL    HW113943   9.071   1.922   9.220 -0.8922  0.2841 -0.2878
37230SOL    HW213944   9.103   1.851   9.350 -0.1677  0.8638 -0.1466
37231SOL     OW13945   2.424   3.364   5.118  0.0617 -0.1057  0.3027
37231SOL    HW113946   2.502   3.327   5.076  0.9290 -0.1124  1.8173
37231SOL    HW213947   2.410   3.448   5.074  0.8556 -0.1566 -0.0675
37232SOL     OW13948  10.084   0.719   7.878 -0.4828 -0.3896  0.5907
37232SOL    HW113949  10.120   0.655   7.939 -0.4652 -0.0671  0.9259
37232SOL    HW213950  10.066   0.669   7.798  1.0572 -0.4897  0.2719
37233SOL     OW13951   6.962   3.226   7.675  0.1035 -0.3583 -0.3698
37233SOL    HW113952   7.002   3.225   7.588 -0.6090  2.3643 -0.8283
37233SOL    HW213953   7.018   3.285   7.726 -0.6936 -0.2202  0.3679
37234SOL     OW13954   4.439   2.170   9.710 -0.2137  0.0476  0.0506
37234SOL    HW113955   4.361   2.217   9.740  0.6335  0.4163  1.7760
37234SOL    HW213956   4.486   2.235   9.657  1.2035  1.4539  2.8313
37235SOL     OW13957   8.897   4.824   3.046 -0.2159  0.2104 -0.5517
37235SOL    HW113958   8.873   4.917   3.055 -0.0247  0.1778  0.3999
37235SOL    HW213959   8.814   4.777   3.055 -0.4668  0.3074 -1.9891
37236SOL     OW13960   4.412   3.161   9.273  0.1330 -0.0401 -0.4798
37236SOL    HW113961   4.507   3.152   9.260  0.3041  1.4322 -0.3586
37236SOL    HW213962   4.378   3.181   9.186  0.0798  0.5736 -0.3173
37237SOL     OW13963   3.029   6.859   4.475 -0.2428  0.5156 -0.5267
37237SOL    HW113964   3.068   6.873   4.561 -0.1064  0.5134 -0.5867
37237SOL    HW213965   3.095   6.808   4.427 -0.9864 -0.8408 -0.1219
37238SOL     OW13966   8.746   8.334   0.277 -0.0187 -0.2155  0.0147
37238SOL    HW113967   8.694   8.374   0.346 -0.2921  0.3959 -0.5382
37238SOL    HW213968   8.832   8.377   0.284 -0.1918  0.1878 -0.3270
37239SOL     OW13969   9.037   5.946   8.915  0.5620  0.0800 -0.9986
37239SOL    HW113970   9.113   5.970   8.968  0.7303 -0.4530 -0.9936
37239SOL    HW213971   8.964   5.994   8.955  0.4093 -1.3661  0.6162
37240SOL     OW13972   8.121   1.155   6.858 -0.0062 -0.2194  0.0960
37240SOL    HW113973   8.172   1.099   6.917  0.0143 -1.3566 -0.9492
37240SOL    HW213974   8.076   1.093   6.800 -0.6224  0.8391 -0.5788
37241SOL     OW13975   4.239  10.509   5.142 -0.5343  0.3347  0.0059
37241SOL    HW113976   4.241  10.478   5.232 -1.1910  0.6006  0.1171
37241SOL    HW213977   4.163  10.567   5.138 -0.3281  0.5692 -0.6386
37242SOL     OW13978   6.210   4.449   3.781  0.2482 -0.4757  0.0078
37242SOL    HW113979   6.216   4.489   3.868  0.9318  1.7948 -1.0164
37242SOL    HW213980   6.117   4.428   3.771 -0.1305  0.7452  0.6874
37243SOL     OW13981   7.022   4.992   3.363  0.4907  0.0260  0.1556
37243SOL    HW113982   6.985   5.028   3.444 -0.0424 -0.1546 -0.0023
37243SOL    HW213983   7.004   4.898   3.368 -1.7533  0.3072 -1.2759
37244SOL     OW13984   3.932   5.824   6.544 -0.2700  0.0321  0.2336
37244SOL    HW113985   3.955   5.735   6.515 -0.4433 -0.1291  0.5851
37244SOL    HW213986   4.012   5.857   6.584 -0.6382 -0.5394  1.4843
37245SOL     OW13987   6.790   0.069   7.504  0.1231 -0.0378 -0.1983
37245SOL    HW113988   6.793  -0.025   7.490  0.5115 -0.4036  2.0673
37245SOL    HW213989   6.772   0.080   7.597 -1.3143  2.1531 -0.6373
37246SOL     OW13990   9.006   8.210   3.128  0.9308 -0.1934  0.3990
37246SOL    HW113991   9.080   8.152   3.109  0.7680 -0.3483  0.2302
37246SOL    HW213992   8.930   8.164   3.093  0.6399 -0.4259  1.2975
37247SOL     OW13993  10.123   1.610   4.861  0.4584 -0.2166  0.1598
37247SOL    HW113994  10.035   1.642   4.843  0.1648 -2.8927 -4.6074
37247SOL    HW213995  10.166   1.684   4.904 -3.1837  2.2854  0.0008
37248SOL     OW13996   4.339   9.155   7.087  0.1160 -0.1544  0.4449
37248SOL    HW113997   4.339   9.251   7.094  2.4707 -0.0542 -0.0629
37248SOL    HW213998   4.364   9.138   6.996  0.4954 -1.2279  0.7434
37249SOL     OW13999   4.377  10.218   9.760 -0.6485  0.3427 -0.2197
37249SOL    HW114000   4.430  10.283   9.807 -1.2924  0.6530  0.0857
37249SOL    HW214001   4.308  10.269   9.717 -1.5745 -0.1993  0.5846
37250SOL     OW14002   1.732   9.780   6.835  0.2521 -0.1188 -0.3292
37250SOL    HW114003   1.768   9.741   6.915  2.7558  0.1897 -1.1904
37250SOL    HW214004   1.700   9.706   6.785  0.0188 -0.4779  0.3405
37251SOL     OW14005   2.053   6.746   8.545 -0.1121  0.2400  0.4119
37251SOL    HW114006   2.084   6.675   8.601  1.1417  0.1652 -0.3496
37251SOL    HW214007   2.045   6.822   8.603 -2.5562 -0.7164  1.4990
37252SOL     OW14008   8.455   2.766   5.288 -0.1906 -0.1961  0.0962
37252SOL    HW114009   8.369   2.801   5.311 -0.0420 -0.3575  0.9099
37252SOL    HW214010   8.441   2.723   5.203 -0.4110  1.6671 -0.8629
37253SOL     OW14011   9.163   2.704   4.346  0.3882 -0.3019  0.2012
37253SOL    HW114012   9.243   2.656   4.368 -0.5099 -0.8150  2.6170
37253SOL    HW214013   9.185   2.796   4.366  1.2996  0.0357 -2.0660
37254SOL     OW14014   4.031   4.487   1.850 -0.2936 -0.3531  0.0632
37254SOL    HW114015   4.050   4.394   1.864 -1.7585 -0.7169 -0.2000
37254SOL    HW214016   4.117   4.527   1.834  0.2219 -1.9023 -1.2576
37255SOL     OW14017   6.647  10.350   4.813 -0.7457 -0.4526  0.3454
37255SOL    HW114018   6.570  10.302   4.782 -1.9530  2.2233 -1.1327
37255SOL    HW214019   6.697  10.370   4.734 -0.1025  0.4088  0.9483
37256SOL     OW14020   2.767   1.931   6.346  0.5076 -0.1855 -0.0187
37256SOL    HW114021   2.771   1.959   6.254  0.2577 -0.5587 -0.1459
37256SOL    HW214022   2.856   1.941   6.378  0.3396  1.1830  0.0672
37257SOL     OW14023   7.027   5.884   3.260  0.2247  0.2643  0.5102
37257SOL    HW114024   7.058   5.821   3.325  1.1848 -0.0482 -0.2152
37257SOL    HW214025   6.987   5.831   3.192  0.1141  0.5131  0.3802
37258SOL     OW14026   9.644  10.140   2.253 -0.3340 -0.0966  0.0127
37258SOL    HW114027   9.688  10.222   2.228 -0.0299  0.5402  2.3685
37258SOL    HW214028   9.664  10.079   2.181  3.4106  0.5359  0.3210
37259SOL     OW14029  10.150   5.701   7.944 -0.0137  0.3938  0.2026
37259SOL    HW114030  10.095   5.686   8.020  0.7797 -0.7155  0.5858
37259SOL    HW214031  10.116   5.641   7.878 -0.7031  1.3551 -0.3526
37260SOL     OW14032   4.098   2.864   6.578  0.0948 -0.3723 -0.1320
37260SOL    HW114033   4.177   2.893   6.623 -0.2957  0.9036 -0.2234
37260SOL    HW214034   4.120   2.866   6.485 -0.2152  0.5739 -0.1940
37261SOL     OW14035   3.456   3.991   5.373  0.1782 -0.4675 -0.4184
37261SOL    HW114036   3.440   3.959   5.284 -0.6266 -0.4024 -0.3040
37261SOL    HW214037   3.527   4.054   5.363  0.2088 -0.5854 -0.9941
37262SOL     OW14038   9.775   8.605  10.321  0.0473  0.1643 -0.1234
37262SOL    HW114039   9.763   8.522  10.275 -1.7087  0.5665 -0.4831
37262SOL    HW214040   9.827   8.583  10.398  0.1535 -1.1448 -0.5478
37263SOL     OW14041   7.314   9.815   3.859 -0.3557 -0.7194  0.0512
37263SOL    HW114042   7.226   9.831   3.826 -0.2602  0.5102  0.3504
37263SOL    HW214043   7.330   9.885   3.922  1.4180  0.0515 -1.1447
37264SOL     OW14044   6.219   1.448   3.944  0.0076  1.0096 -0.1858
37264SOL    HW114045   6.270   1.527   3.964  1.1502 -0.2887  2.3528
37264SOL    HW214046   6.244   1.385   4.011 -2.7067 -0.7396 -0.6826
37265SOL     OW14047   4.105   3.304   2.349  0.2340  0.1711 -0.1980
37265SOL    HW114048   4.166   3.243   2.390 -0.5664 -0.7565 -0.3388
37265SOL    HW214049   4.021   3.257   2.348 -0.6641  1.6690  0.6576
37266SOL     OW14050   1.030   4.255   1.859  0.0851  0.0882 -0.3778
37266SOL    HW114051   1.056   4.163   1.869 -2.2275 -0.6997 -0.8898
37266SOL    HW214052   1.035   4.271   1.765 -0.4920  0.1592 -0.3980
37267SOL     OW14053   6.173   6.065   7.526 -0.1526 -0.2135 -0.0298
37267SOL    HW114054   6.256   6.016   7.528 -0.9842 -1.7540 -1.2077
37267SOL    HW214055   6.121   6.022   7.458 -1.3299  1.7227 -0.4552
37268SOL     OW14056   2.700  10.558   3.750  0.1088  0.0600 -0.5961
37268SOL    HW114057   2.703  10.542   3.656  0.7411  0.7250 -0.6992
37268SOL    HW214058   2.644  10.635   3.759  1.4077  1.0347 -0.5922
37269SOL     OW14059   6.446   4.990   9.085 -0.1711 -0.2260  0.0208
37269SOL    HW114060   6.360   4.988   9.043  0.1499 -1.9312 -0.6451
37269SOL    HW214061   6.505   4.956   9.018  1.0191  0.8636  0.4987
37270SOL     OW14062   9.221   0.673   8.702 -0.1951 -0.9974 -0.1666
37270SOL    HW114063   9.231   0.742   8.636  0.5925 -0.4513  0.4990
37270SOL    HW214064   9.292   0.611   8.684  1.5828  0.3814  1.5782
37271SOL     OW14065   0.619   8.859   0.824 -0.6300 -0.1585  0.2083
37271SOL    HW114066   0.678   8.926   0.858  1.7969 -1.9276 -0.2165
37271SOL    HW214067   0.558   8.841   0.896 -0.1614  1.1706  0.9702
37272SOL     OW14068  10.442   9.249   8.615 -0.0185 -0.4493 -0.0831
37272SOL    HW114069  10.537   9.251   8.612  0.0503 -0.0739  1.3363
37272SOL    HW214070  10.415   9.339   8.599  0.0133 -0.0590  1.7853
37273SOL     OW14071   2.969   2.891   7.722 -0.2417  0.2874  0.2624
37273SOL    HW114072   2.893   2.886   7.781 -0.8353 -2.4897 -0.5868
37273SOL    HW214073   2.950   2.827   7.654  2.7912 -0.3931 -0.0826
37274SOL     OW14074   8.344   2.772   5.734  0.6584  0.2949  0.1898
37274SOL    HW114075   8.383   2.698   5.687 -0.7091  0.0316 -0.5699
37274SOL    HW214076   8.409   2.793   5.802  0.3328 -2.7672  1.6256
37275SOL     OW14077   7.014   2.024   3.880  0.0635 -0.1773  0.5340
37275SOL    HW114078   6.928   1.993   3.905  0.0817  0.5121  1.4916
37275SOL    HW214079   6.998   2.109   3.839  0.0855 -1.0493 -1.3969
37276SOL     OW14080   8.754   5.871  10.633  0.3728  0.1454 -0.6244
37276SOL    HW114081   8.788   5.837  10.715 -0.9735 -0.2939 -0.2280
37276SOL    HW214082   8.801   5.823  10.565  1.2394  0.2631 -0.1192
37277SOL     OW14083   9.782  10.257   4.663  0.0379  0.1932 -0.4110
37277SOL    HW114084   9.806  10.170   4.630 -1.5609 -0.3536 -0.2218
37277SOL    HW214085   9.729  10.295   4.593 -0.0829  0.6159 -0.0954
37278SOL     OW14086   1.262   6.990   8.226 -0.4747  0.0799  0.4505
37278SOL    HW114087   1.285   7.072   8.182  0.5919  0.8978  2.4218
37278SOL    HW214088   1.198   7.015   8.293 -1.1633 -0.9346  0.1945
37279SOL     OW14089   0.942   4.272   8.078 -0.6118 -0.2933  0.0015
37279SOL    HW114090   0.934   4.185   8.117  0.7414 -0.2852  0.3635
37279SOL    HW214091   0.965   4.330   8.151  1.9334 -0.2733 -0.7126
37280SOL     OW14092   3.274   3.359   9.767 -0.2549 -0.2169  0.0937
37280SOL    HW114093   3.250   3.390   9.854  0.5112  0.8549 -0.0567
37280SOL    HW214094   3.289   3.439   9.716 -0.5323 -0.8248 -0.9799
37281SOL     OW14095   5.151   8.769   7.857  0.1571  0.5921  0.0148
37281SOL    HW114096   5.189   8.771   7.945  0.2136  1.7430 -0.0260
37281SOL    HW214097   5.198   8.698   7.813 -0.2397 -0.3459  1.0586
37282SOL     OW14098   3.463   8.213   6.275 -0.2761 -0.1289 -0.0688
37282SOL    HW114099   3.510   8.168   6.205  0.4417  0.3459  0.0964
37282SOL    HW214100   3.370   8.194   6.258  0.0486 -2.9528  0.8837
37283SOL     OW14101   1.183   8.925   7.023 -0.0524 -0.0193  0.6496
37283SOL    HW114102   1.211   9.008   6.984 -1.5485  0.9036  1.4826
37283SOL    HW214103   1.132   8.949   7.100 -1.9744 -1.6381 -0.0130
37284SOL     OW14104   0.750   6.674   5.233  0.4091  0.2190  0.0360
37284SOL    HW114105   0.688   6.695   5.162  0.7279 -0.1279 -0.3444
37284SOL    HW214106   0.832   6.655   5.189  0.2324 -1.5337  0.3776
37285SOL     OW14107   6.375   3.218  10.603  0.1427  0.2852 -0.3173
37285SOL    HW114108   6.351   3.133  10.639  1.4979  0.9140  2.3716
37285SOL    HW214109   6.340   3.218  10.514 -0.9145 -2.5872  0.0046
37286SOL     OW14110   8.471   5.804   4.040 -0.1617  0.3769  0.0390
37286SOL    HW114111   8.521   5.796   4.121  1.0883  1.6221 -0.5698
37286SOL    HW214112   8.538   5.812   3.972 -1.1834 -0.7001 -1.1409
37287SOL     OW14113   1.983   0.047   9.734 -0.1400 -0.1717 -0.5986
37287SOL    HW114114   1.982   0.091   9.819 -0.6573 -0.8106 -0.2650
37287SOL    HW214115   1.951  -0.041   9.752  1.2820 -0.8385 -1.1928
37288SOL     OW14116   9.530   7.487  10.031  0.7439 -0.3435  0.5228
37288SOL    HW114117   9.546   7.580  10.044  1.3400 -0.5058  0.9764
37288SOL    HW214118   9.535   7.474   9.937  0.1135  0.1793  0.4159
37289SOL     OW14119   8.803   9.981   7.297  0.1054 -0.0313 -0.0977
37289SOL    HW114120   8.795   9.924   7.373  0.3433 -2.1279 -1.5609
37289SOL    HW214121   8.743  10.054   7.315 -0.9913 -1.2432  1.4082
37290SOL     OW14122   0.274  10.633   4.302 -0.3381  0.2822 -0.2125
37290SOL    HW114123   0.359  10.594   4.283  0.0488  1.9315 -2.3396
37290SOL    HW214124   0.294  10.712   4.352 -0.5998  0.6114 -0.6124
37291SOL     OW14125   7.306   9.271   4.166 -0.0527 -0.0481  0.2711
37291SOL    HW114126   7.298   9.308   4.078 -0.8642  0.0310  0.3782
37291SOL    HW214127   7.349   9.187   4.152 -0.8997 -0.3919 -0.2839
37292SOL     OW14128   9.165   6.881   6.948 -0.1966  0.0703  0.4956
37292SOL    HW114129   9.122   6.966   6.939  0.0336  0.1199 -0.2458
37292SOL    HW214130   9.128   6.843   7.028 -1.1993  0.3517  0.1815
37293SOL     OW14131   9.944   8.609   7.147  0.0807 -0.6083 -0.2694
37293SOL    HW114132   9.853   8.638   7.138 -0.5171 -1.9201  1.1448
37293SOL    HW214133   9.941   8.515   7.129  1.6571 -0.2774 -2.8891
37294SOL     OW14134   3.903   5.874   7.992  0.3763  0.2109 -0.3822
37294SOL    HW114135   3.811   5.851   8.004  0.9645 -1.7086  0.8493
37294SOL    HW214136   3.934   5.816   7.923  1.0154 -0.2160  0.2505
37295SOL     OW14137   8.072   2.274   8.896 -0.2555 -0.2153 -0.6993
37295SOL    HW114138   8.043   2.361   8.867  1.0426  0.1402 -1.0179
37295SOL    HW214139   8.108   2.289   8.983 -0.5604 -0.5454 -0.5168
37296SOL     OW14140   4.864   6.304   7.649 -0.1167  0.0801 -0.5510
37296SOL    HW114141   4.849   6.303   7.743 -0.4903  2.8687 -0.5115
37296SOL    HW214142   4.830   6.220   7.619 -2.4618  0.2068  1.4554
37297SOL     OW14143   8.956   3.332   8.278 -0.3081 -0.2871 -0.1364
37297SOL    HW114144   8.987   3.246   8.251 -1.9879 -2.4826  3.9059
37297SOL    HW214145   8.861   3.323   8.283 -0.4844  1.5425  1.0411
37298SOL     OW14146   2.173   9.447   0.728  0.3623  0.2960 -0.0917
37298SOL    HW114147   2.082   9.417   0.733  0.6870 -0.9369 -1.1058
37298SOL    HW214148   2.167   9.542   0.728 -0.8455  0.2468  1.1263
37299SOL     OW14149   1.012   9.478   1.054 -0.1974  0.2370 -0.1668
37299SOL    HW114150   1.083   9.541   1.040 -0.1801 -0.3524 -3.4448
37299SOL    HW214151   0.934   9.524   1.025 -0.4773 -0.5632 -0.6987
37300SOL     OW14152   7.573   2.799   2.433  0.4374 -0.0595  0.0568
37300SOL    HW114153   7.525   2.873   2.469 -4.0772 -1.7441 -1.6833
37300SOL    HW214154   7.610   2.832   2.351  1.9088  1.1561  1.1598
37301SOL     OW14155   2.906   9.760   5.096  0.0151  0.3383 -0.5150
37301SOL    HW114156   2.873   9.674   5.072  0.4569  0.0200  0.0175
37301SOL    HW214157   2.992   9.744   5.133 -0.8024  0.7358  1.7158
37302SOL     OW14158   6.202   7.474   9.108  0.1230  0.1155 -0.3657
37302SOL    HW114159   6.191   7.545   9.044  0.8418  1.0783  0.5356
37302SOL    HW214160   6.158   7.507   9.187  0.0113 -0.6795 -0.0895
37303SOL     OW14161  10.570   1.013   8.042  0.0202 -0.3858 -0.0347
37303SOL    HW114162  10.605   0.931   8.009  0.1495 -0.2510 -0.2330
37303SOL    HW214163  10.619   1.030   8.122  0.0086 -0.4881 -0.0058
37304SOL     OW14164   7.075   1.240   1.993  0.3582  0.0898 -0.4853
37304SOL    HW114165   7.119   1.213   2.073  0.4858 -0.5777 -0.7773
37304SOL    HW214166   7.061   1.159   1.944 -2.1429  0.0975  0.0542
37305SOL     OW14167   6.542   9.938   3.031  0.4607 -1.0341  0.3344
37305SOL    HW114168   6.516   9.886   3.107 -2.1382  1.0612  1.0485
37305SOL    HW214169   6.465   9.935   2.974  1.6130 -0.8977 -1.2801
37306SOL     OW14170   4.754   6.722   3.326 -0.5343 -0.0032  0.1159
37306SOL    HW114171   4.804   6.662   3.381  1.6781  1.4597 -0.2074
37306SOL    HW214172   4.775   6.809   3.360 -1.7139  0.7478 -0.9851
37307SOL     OW14173   2.230   2.416   4.992  0.0566  0.1363 -0.1831
37307SOL    HW114174   2.179   2.493   4.969 -0.1522  0.0570  0.0081
37307SOL    HW214175   2.164   2.348   5.008  0.2032  0.1473  0.4881
37308SOL     OW14176   5.536   4.063   3.129 -0.0357 -0.4045 -0.0175
37308SOL    HW114177   5.532   4.126   3.057  0.6525 -1.5754 -1.1244
37308SOL    HW214178   5.602   4.099   3.189 -0.9728  0.8311  0.3182
37309SOL     OW14179   4.002  10.190   8.166 -0.1739  0.0026 -0.1737
37309SOL    HW114180   4.034  10.272   8.204  0.9400 -0.5044  0.0335
37309SOL    HW214181   3.967  10.141   8.241  4.0293 -1.9530  0.8381
37310SOL     OW14182   5.089   7.139   4.939 -0.1095 -0.2080  0.4000
37310SOL    HW114183   5.066   7.230   4.958  1.2923  0.7355 -1.8150
37310SOL    HW214184   5.173   7.146   4.892  0.3848 -2.7112  0.7771
37311SOL     OW14185   2.936   4.620   6.084 -0.1991  0.2873 -0.5174
37311SOL    HW114186   2.941   4.573   6.167 -0.0584  1.1929 -0.0026
37311SOL    HW214187   3.021   4.663   6.075 -0.1481  0.0573 -1.2193
37312SOL     OW14188   8.531   4.782   6.090 -0.6847  0.2280 -0.8808
37312SOL    HW114189   8.542   4.789   5.995 -0.6013 -1.9300 -1.0780
37312SOL    HW214190   8.436   4.784   6.102 -0.9594 -3.0937 -1.4713
37313SOL     OW14191   3.264   7.118   0.769  0.1825 -0.0712 -0.1531
37313SOL    HW114192   3.311   7.120   0.852 -0.8534 -0.0155  0.4469
37313SOL    HW214193   3.173   7.136   0.793 -0.1395 -0.1379 -1.2911
37314SOL     OW14194   4.796   7.870   6.529 -0.4815  0.5443  0.2065
37314SOL    HW114195   4.850   7.804   6.486  0.4616  0.7920  0.9966
37314SOL    HW214196   4.761   7.923   6.457 -0.8523 -0.4977 -0.3992
37315SOL     OW14197   9.107   7.970   2.420 -0.2508 -0.0483 -0.6420
37315SOL    HW114198   9.202   7.960   2.432 -0.2126  1.5391  0.6739
37315SOL    HW214199   9.097   7.990   2.327  0.5932 -1.0844 -0.9834
37316SOL     OW14200   0.600   9.981   8.546  0.2349  0.5834  0.4509
37316SOL    HW114201   0.609  10.047   8.477  0.5166  2.1460  1.8876
37316SOL    HW214202   0.671   9.919   8.530  1.0586  1.6046  0.0365
37317SOL     OW14203   4.094   5.035   1.980 -0.5394  0.2418  0.3491
37317SOL    HW114204   4.047   4.986   2.048  0.7006 -1.5101  0.0155
37317SOL    HW214205   4.182   4.998   1.981 -0.2974  0.6497 -1.7672
37318SOL     OW14206   4.746   7.677   2.140 -0.2427  0.4172  0.5938
37318SOL    HW114207   4.838   7.688   2.164 -0.2714  0.5522  0.6436
37318SOL    HW214208   4.728   7.584   2.157  0.2130  0.0957 -0.5688
37319SOL     OW14209  10.225  10.459   2.268 -0.2741 -0.3850 -0.4284
37319SOL    HW114210  10.136  10.483   2.293  0.6924  1.6771  1.3420
37319SOL    HW214211  10.255  10.532   2.214  1.2280  0.3137  1.2699
37320SOL     OW14212   1.320   8.590   6.493 -0.0121 -0.1265  0.7105
37320SOL    HW114213   1.363   8.668   6.457 -0.6100 -0.1898 -0.1688
37320SOL    HW214214   1.355   8.583   6.582  0.7779  0.5890  0.4749
37321SOL     OW14215   7.224   5.009  10.594 -0.0372  0.0578  0.5951
37321SOL    HW114216   7.288   5.022  10.524 -1.9061 -0.0678 -1.2118
37321SOL    HW214217   7.196   4.918  10.585 -0.9651  0.3008  0.9179
37322SOL     OW14218   4.273   2.541   4.982 -0.2761 -0.3909 -0.3929
37322SOL    HW114219   4.210   2.559   4.912 -0.9864 -3.9182 -0.8682
37322SOL    HW214220   4.219   2.529   5.060 -0.2026 -2.4129 -0.5911
37323SOL     OW14221   2.455   0.674   1.221 -0.0131 -0.5761 -0.2542
37323SOL    HW114222   2.444   0.625   1.302  1.3801 -1.0273 -0.2948
37323SOL    HW214223   2.486   0.760   1.248 -1.3340 -0.0888 -0.2384
37324SOL     OW14224  10.541   7.630  10.616  0.6878 -0.4850  0.1771
37324SOL    HW114225  10.543   7.717  10.577  0.2049 -0.3086  0.5288
37324SOL    HW214226  10.576   7.572  10.549 -2.3570 -0.5797 -1.5434
37325SOL     OW14227   7.098   1.711   8.088  0.2311  0.0475  0.2360
37325SOL    HW114228   7.156   1.687   8.016 -0.5303 -0.1495 -0.3210
37325SOL    HW214229   7.093   1.632   8.142  2.2434  0.7247  1.5456
37326SOL     OW14230   9.697   5.429   5.061  0.4147  0.0831  0.1505
37326SOL    HW114231   9.762   5.499   5.069  0.3455  0.0632  1.0335
37326SOL    HW214232   9.652   5.428   5.146  0.0153 -0.6365 -0.0580
37327SOL     OW14233   7.736   1.593   4.527 -0.0030 -0.3918  0.5400
37327SOL    HW114234   7.645   1.561   4.525  0.3871 -1.5744  0.7417
37327SOL    HW214235   7.778   1.541   4.596  0.8880 -0.0155  0.2946
37328SOL     OW14236   4.914   6.842   4.929  0.5159  0.3397  0.1593
37328SOL    HW114237   4.922   6.914   4.992  0.8062 -1.9941  3.0035
37328SOL    HW214238   5.001   6.803   4.925 -0.0404 -0.9509  0.1248
37329SOL     OW14239   1.296   1.079  10.309 -0.3074  0.0831  0.3900
37329SOL    HW114240   1.272   0.990  10.335 -0.4939  0.3220  1.0651
37329SOL    HW214241   1.364   1.067  10.243 -0.9424 -0.5688 -0.1596
37330SOL     OW14242   8.850   7.229   0.323 -0.2319 -0.0608  0.4307
37330SOL    HW114243   8.808   7.158   0.372  0.7482  0.3819  1.9777
37330SOL    HW214244   8.777   7.283   0.292 -1.0134 -1.8776 -1.0722
37331SOL     OW14245   3.417   9.090   1.459 -0.1611 -0.2480  0.2653
37331SOL    HW114246   3.390   9.157   1.523 -1.3775 -2.1487  1.8508
37331SOL    HW214247   3.488   9.043   1.501  0.0463 -0.5606 -0.4242
37332SOL     OW14248   1.046   8.763   3.073  0.6091  0.8335 -0.4876
37332SOL    HW114249   0.950   8.765   3.069  0.6359  1.3645 -1.0724
37332SOL    HW214250   1.068   8.670   3.063  0.0888  0.3331  2.2313
37333SOL     OW14251  10.452  10.151   3.865  0.3533 -0.3694 -0.1941
37333SOL    HW114252  10.373  10.134   3.915 -0.9172  1.2412 -1.5369
37333SOL    HW214253  10.437  10.107   3.781 -0.4318  2.1852 -1.5018
37334SOL     OW14254   9.966   3.174   3.037  0.0714 -0.5981  0.2227
37334SOL    HW114255   9.902   3.236   3.071  1.6760  1.0638  0.3540
37334SOL    HW214256  10.019   3.149   3.113  1.8032  0.8439 -0.4501
37335SOL     OW14257   1.223   3.551   7.081  0.1379  0.5227 -0.0495
37335SOL    HW114258   1.213   3.549   6.986 -1.3373  1.2985  0.0590
37335SOL    HW214259   1.305   3.598   7.095  0.3625  0.4136 -0.9293
37336SOL     OW14260   1.502   3.926   2.891  0.3530 -0.5132  0.9365
37336SOL    HW114261   1.457   3.878   2.821 -1.5075  1.8793  0.3392
37336SOL    HW214262   1.579   3.963   2.848  0.4789 -0.9904  0.7527
37337SOL     OW14263   1.031   9.954   7.308 -0.0043  0.1265 -0.1060
37337SOL    HW114264   1.005   9.903   7.232 -1.8289  0.7657  0.0344
37337SOL    HW214265   1.091  10.021   7.274  0.2273 -0.4021 -0.7408
37338SOL     OW14266   4.621   8.412   4.058  0.5245  0.1850 -0.2217
37338SOL    HW114267   4.659   8.495   4.028  1.3416  0.3552  1.1866
37338SOL    HW214268   4.658   8.399   4.146 -1.2301 -0.6111  0.4527
37339SOL     OW14269   6.554   3.709   3.733  0.2780 -0.1699 -0.0048
37339SOL    HW114270   6.587   3.732   3.820 -0.3619  0.6546  0.0269
37339SOL    HW214271   6.626   3.732   3.673  0.3680  0.1216  0.2139
37340SOL     OW14272  10.521   3.698   2.864 -0.0195  0.5571 -0.3628
37340SOL    HW114273  10.455   3.643   2.823  0.4460 -1.2544  1.1684
37340SOL    HW214274  10.603   3.672   2.823  0.0491  1.0826 -0.5678
37341SOL     OW14275   5.400  10.253   6.433  0.4101 -0.1567  0.2882
37341SOL    HW114276   5.437  10.283   6.350 -2.7359  0.2682 -1.0993
37341SOL    HW214277   5.392  10.332   6.486 -0.5280  0.1426 -0.2811
37342SOL     OW14278   0.261   0.421   5.870 -0.1714 -0.5544 -0.2382
37342SOL    HW114279   0.171   0.412   5.841 -0.4720 -0.1863  0.5574
37342SOL    HW214280   0.284   0.334   5.903 -0.5565 -0.3992  0.4458
37343SOL     OW14281   0.651   7.736   1.976 -0.2609  0.1379 -0.3506
37343SOL    HW114282   0.744   7.751   1.962 -0.5683  2.1407 -0.4843
37343SOL    HW214283   0.609   7.819   1.953 -1.8264  0.1709  2.2627
37344SOL     OW14284   3.597   1.437   1.651  0.7133 -0.0597 -0.5130
37344SOL    HW114285   3.617   1.439   1.745 -1.4448 -3.9052  0.2346
37344SOL    HW214286   3.534   1.508   1.639  0.6281  0.1858  1.0801
37345SOL     OW14287   3.894  10.468   9.737  0.0852 -0.7880  0.2599
37345SOL    HW114288   3.876  10.470   9.643 -1.6855 -2.9235  0.4637
37345SOL    HW214289   3.868  10.554   9.768 -2.2778 -1.0205 -0.8051
37346SOL     OW14290   3.787   9.266   4.585 -0.3398  0.3409 -0.2914
37346SOL    HW114291   3.732   9.319   4.642  0.9817  1.2206  0.2171
37346SOL    HW214292   3.776   9.305   4.498  0.1293  1.0593 -0.0355
37347SOL     OW14293   1.715   1.372  10.611 -0.3606  0.1265  0.5035
37347SOL    HW114294   1.792   1.416  10.576 -1.2527 -0.7535 -2.8635
37347SOL    HW214295   1.674   1.438  10.667  2.4445  0.7952  1.9684
37348SOL     OW14296   9.393  10.637   0.505  0.1883  0.0539  0.2357
37348SOL    HW114297   9.365  10.556   0.548  1.4897 -0.9772 -0.7479
37348SOL    HW214298   9.316  10.693   0.505 -1.2596 -1.8235 -0.5092
37349SOL     OW14299   1.748   3.061   3.652  0.4009  0.0664  0.1064
37349SOL    HW114300   1.729   2.968   3.636  0.0545 -0.0059  0.9283
37349SOL    HW214301   1.666   3.096   3.687  0.1461  0.9650 -1.3154
37350SOL     OW14302   1.409   1.408   2.633 -0.0580  0.0855  0.4814
37350SOL    HW114303   1.400   1.313   2.638  2.2684 -0.2951 -0.9246
37350SOL    HW214304   1.328   1.438   2.591 -1.3019 -1.0990  1.9234
37351SOL     OW14305   3.887   2.405   4.928  0.0218  0.5230 -0.1475
37351SOL    HW114306   3.970   2.451   4.915 -0.3640  1.1227 -0.5456
37351SOL    HW214307   3.879   2.398   5.023  1.2588 -0.9213 -0.1113
37352SOL     OW14308   7.093  10.599   6.425  0.1622  0.2292 -0.0715
37352SOL    HW114309   7.004  10.626   6.448 -0.0495 -1.4260  1.2745
37352SOL    HW214310   7.145  10.679   6.428 -0.9278  0.9222  1.0063
37353SOL     OW14311   9.244   9.251   8.238 -0.2674  0.4759 -0.2002
37353SOL    HW114312   9.312   9.183   8.233 -0.2186  0.6069 -2.3025
37353SOL    HW214313   9.175   9.213   8.293  1.0301 -0.0600  1.1189
37354SOL     OW14314   2.208   7.627   8.059 -0.0898 -0.2678  0.2115
37354SOL    HW114315   2.277   7.580   8.012 -0.4482 -1.0849  0.4805
37354SOL    HW214316   2.191   7.573   8.136 -0.7876  0.0977  0.3219
37355SOL     OW14317   1.350   1.724   5.397  0.4462  0.0750 -0.6468
37355SOL    HW114318   1.365   1.691   5.308  0.1838 -0.2686 -0.5654
37355SOL    HW214319   1.324   1.647   5.447  0.4653  0.2934 -0.3015
37356SOL     OW14320   5.518   7.337   3.791  0.0289  0.5571  0.1674
37356SOL    HW114321   5.423   7.345   3.805  0.4525  3.4758  2.1564
37356SOL    HW214322   5.552   7.307   3.876  0.9186 -0.4907 -0.5352
37357SOL     OW14323   2.634   8.715   7.013  0.2467 -0.7442 -0.6516
37357SOL    HW114324   2.666   8.646   7.072 -1.0091 -0.4020  0.4564
37357SOL    HW214325   2.558   8.752   7.057 -1.1244 -0.8665 -2.7621
37358SOL     OW14326  10.095   1.071   5.491  0.0080  0.3400  0.0936
37358SOL    HW114327  10.058   1.002   5.546 -1.5493  0.8154 -0.2915
37358SOL    HW214328  10.117   1.028   5.408 -0.7922  0.2611 -0.0833
37359SOL     OW14329   4.953   4.221  10.311 -0.1564  0.1069  0.1365
37359SOL    HW114330   4.959   4.311  10.280 -0.8973 -0.1896 -0.9272
37359SOL    HW214331   4.995   4.222  10.397 -0.2803  1.4918  0.1989
37360SOL     OW14332   0.012   2.890   4.821 -0.0477  0.9909  0.3041
37360SOL    HW114333   0.050   2.974   4.795  1.0280  0.9887  1.7813
37360SOL    HW214334   0.072   2.855   4.887 -0.7457 -0.7111  0.0890
37361SOL     OW14335   0.274   7.697   8.170 -0.3312  0.6855 -0.5927
37361SOL    HW114336   0.297   7.618   8.120 -0.8136  0.8985 -1.1562
37361SOL    HW214337   0.306   7.679   8.258  1.1812  0.5814 -1.1221
37362SOL     OW14338   0.404   7.759   9.850 -0.5222  0.3060  0.5338
37362SOL    HW114339   0.403   7.822   9.778  0.7973 -0.0045  0.2149
37362SOL    HW214340   0.425   7.811   9.928 -0.9092  0.4801  0.5240
37363SOL     OW14341   3.824   8.456   8.881  0.1757 -0.0471 -0.2079
37363SOL    HW114342   3.734   8.488   8.877 -0.4914 -1.7958 -0.1219
37363SOL    HW214343   3.820   8.369   8.841  1.5914 -0.6453  0.8702
37364SOL     OW14344   2.888   9.480   6.396  0.4516 -0.0235 -0.4770
37364SOL    HW114345   2.907   9.567   6.431  0.1504 -0.4152  0.6783
37364SOL    HW214346   2.968   9.455   6.349  0.3271  1.1134 -1.3558
37365SOL     OW14347  10.201   8.603   3.874 -0.3446 -0.4181 -0.1894
37365SOL    HW114348  10.242   8.519   3.895  1.8858  0.2734 -1.4365
37365SOL    HW214349  10.120   8.604   3.926  1.2980 -1.8106  2.6559
37366SOL     OW14350   5.537   5.734   6.077  0.6099  0.0464 -0.3101
37366SOL    HW114351   5.451   5.776   6.071  0.9100  0.4607 -2.0415
37366SOL    HW214352   5.522   5.658   6.133 -0.7141  0.5205  0.0284
37367SOL     OW14353   7.075   3.104   9.886  0.1070 -0.4281 -0.2896
37367SOL    HW114354   7.004   3.101   9.822  0.0793 -3.4164 -0.2512
37367SOL    HW214355   7.154   3.121   9.834 -0.4151  1.7010 -0.4749
37368SOL     OW14356   5.279   3.965   0.422  0.8128  0.2433  0.5011
37368SOL    HW114357   5.346   3.907   0.385 -0.4440 -1.0892  0.2376
37368SOL    HW214358   5.278   3.945   0.515 -0.2228 -0.8584  0.2848
37369SOL     OW14359   1.949   9.543   2.517  0.1058 -0.0897  0.0518
37369SOL    HW114360   1.959   9.623   2.568 -1.6355  0.4518 -0.3772
37369SOL    HW214361   2.007   9.554   2.442 -0.2265  0.8321 -0.0709
37370SOL     OW14362   5.726   3.094   0.631 -0.2776  0.2703 -0.5715
37370SOL    HW114363   5.794   3.032   0.605 -0.0720 -0.3221  1.2436
37370SOL    HW214364   5.744   3.173   0.580  2.7815  0.7141  1.0139
37371SOL     OW14365   2.523   8.208   2.522  0.3226  0.5033 -0.0209
37371SOL    HW114366   2.436   8.169   2.533  0.6206  0.3044  2.1262
37371SOL    HW214367   2.511   8.301   2.541  0.5189  0.5398 -0.0665
37372SOL     OW14368   4.881   0.573   6.176  0.2432 -0.0196 -0.2992
37372SOL    HW114369   4.930   0.654   6.166  1.2685 -0.5642  0.1076
37372SOL    HW214370   4.802   0.598   6.223  1.0658  0.5821  0.8100
37373SOL     OW14371   3.268   9.803   2.125 -0.0686  0.3917 -0.2345
37373SOL    HW114372   3.259   9.736   2.192 -1.0857  1.6738  0.9829
37373SOL    HW214373   3.282   9.755   2.044 -1.6291 -1.3156  0.4397
37374SOL     OW14374   2.739  10.246   7.050 -0.4214 -0.0377  0.5129
37374SOL    HW114375   2.808  10.306   7.022  0.9724 -1.2745  1.1411
37374SOL    HW214376   2.766  10.218   7.137 -0.3589 -2.4808 -0.2131
37375SOL     OW14377   5.096   2.659   1.236 -0.2882  0.6791 -0.5225
37375SOL    HW114378   5.155   2.728   1.264 -0.2924  0.0098  1.2593
37375SOL    HW214379   5.036   2.646   1.310  0.0237 -1.5525 -0.5827
37376SOL     OW14380   3.290   2.468   3.417  0.5099 -0.2073  0.0559
37376SOL    HW114381   3.330   2.535   3.362  0.1887  0.5968  0.7650
37376SOL    HW214382   3.362   2.431   3.467  0.3870  1.6012  1.7184
37377SOL     OW14383  10.547   8.971  10.241  0.6104  0.0107 -0.5266
37377SOL    HW114384  10.600   8.895  10.218  0.7169  0.1538 -0.7609
37377SOL    HW214385  10.519   9.007  10.157  2.2696  1.4441 -0.5358
37378SOL     OW14386   6.851   7.040   5.488  0.2942 -0.0312  0.5717
37378SOL    HW114387   6.857   6.961   5.435  3.4794  1.1479 -1.1387
37378SOL    HW214388   6.790   7.097   5.440  3.2354  1.0806 -2.2536
37379SOL     OW14389   2.109   8.847   5.443 -0.0004  0.0924  0.2284
37379SOL    HW114390   2.099   8.796   5.363  0.6715 -0.0334  0.2237
37379SOL    HW214391   2.135   8.934   5.413 -3.9095  1.4052  0.0092
37380SOL     OW14392   9.677   3.452   7.901  0.1878  0.0684 -0.0082
37380SOL    HW114393   9.693   3.359   7.884 -0.5412  0.1165 -1.0638
37380SOL    HW214394   9.603   3.475   7.844 -0.8073  0.8715  1.5251
37381SOL     OW14395   6.796   0.933   6.632  0.0443 -0.1956  1.1020
37381SOL    HW114396   6.831   1.011   6.676  2.1927 -0.2951 -0.3209
37381SOL    HW214397   6.766   0.965   6.547 -0.2167 -0.7262  0.9924
37382SOL     OW14398  10.381   2.365   8.233 -0.1178 -0.2858  0.0080
37382SOL    HW114399  10.370   2.379   8.139  0.7057  0.7993  0.0445
37382SOL    HW214400  10.320   2.427   8.273  3.1246  3.1683  0.1700
37383SOL     OW14401   9.259   4.848   5.557  0.0710  0.4091  0.2874
37383SOL    HW114402   9.259   4.857   5.653  0.2315  1.6176  0.1893
37383SOL    HW214403   9.338   4.797   5.538  0.7814  1.3102  0.7225
37384SOL     OW14404   4.836   2.039   3.233 -0.5587  0.2109  0.4672
37384SOL    HW114405   4.836   1.948   3.263 -1.2159 -0.3564 -1.1647
37384SOL    HW214406   4.915   2.047   3.180 -2.0679 -0.3933 -2.0452
37385SOL     OW14407   8.236   4.964   1.984  0.1211  0.3007 -0.0620
37385SOL    HW114408   8.269   4.874   1.988 -1.4835 -0.3609 -0.8412
37385SOL    HW214409   8.141   4.954   1.984 -0.0797  2.0057 -0.3101
37386SOL     OW14410   9.992   0.785   1.687  0.0573 -0.2274  0.7081
37386SOL    HW114411  10.035   0.767   1.770 -2.5604 -2.2351  1.7873
37386SOL    HW214412   9.926   0.851   1.708  0.3482  0.3616 -0.1512
37387SOL     OW14413   7.086   8.431  10.296 -0.4608  0.0928 -0.4256
37387SOL    HW114414   7.060   8.339  10.297  2.8047 -0.9684 -0.9019
37387SOL    HW214415   7.103   8.452  10.388 -0.1146 -0.1337 -0.4386
37388SOL     OW14416   7.926   7.592   6.663  0.2509 -0.2904  0.0378
37388SOL    HW114417   8.013   7.610   6.699 -0.2488 -1.4665  1.9498
37388SOL    HW214418   7.872   7.665   6.691 -0.0220 -0.9662  1.3321
37389SOL     OW14419   2.915   1.195   3.437  0.0073 -0.1780  0.0302
37389SOL    HW114420   2.833   1.240   3.458 -1.1466 -1.1756 -2.1145
37389SOL    HW214421   2.943   1.156   3.521 -1.6019  0.3249  0.8368
37390SOL     OW14422   7.239   7.365   5.412  0.1683  0.2005 -0.6575
37390SOL    HW114423   7.245   7.411   5.496  0.2234 -0.2365 -0.4218
37390SOL    HW214424   7.187   7.423   5.357 -0.4564  0.1653 -0.1089
37391SOL     OW14425   1.977   3.944   4.041  0.2241 -0.0162 -0.0834
37391SOL    HW114426   1.892   3.912   4.010  0.9435 -0.7336 -1.4049
37391SOL    HW214427   2.038   3.920   3.972  0.9793  3.5414 -0.8416
37392SOL     OW14428   8.124   2.630   8.822  0.3679  0.1489  0.0580
37392SOL    HW114429   8.178   2.697   8.863  0.4698  1.1869 -1.6670
37392SOL    HW214430   8.064   2.601   8.891  2.0690  0.0744  1.5642
37393SOL     OW14431   5.304   3.485   0.159  0.1559 -0.2885 -0.4413
37393SOL    HW114432   5.390   3.526   0.158 -0.4922  1.1384 -1.6202
37393SOL    HW214433   5.295   3.444   0.073 -0.3452 -0.4015 -0.3397
37394SOL     OW14434   0.653   1.793   3.856  0.0218 -0.3331 -0.1331
37394SOL    HW114435   0.564   1.757   3.855 -0.7389  1.4526  0.0468
37394SOL    HW214436   0.665   1.829   3.768 -0.9738  2.8717  0.9236
37395SOL     OW14437   3.923   7.622   0.444 -0.9125 -0.4370 -0.2571
37395SOL    HW114438   3.840   7.669   0.444  0.0429  1.4966 -2.8657
37395SOL    HW214439   3.975   7.664   0.512 -2.2117 -2.1713  1.9381
37396SOL     OW14440   7.113   4.377   8.082 -0.4789  0.3071  0.1577
37396SOL    HW114441   7.131   4.325   8.160  0.1367  1.0290  0.4961
37396SOL    HW214442   7.042   4.436   8.107  1.3174  2.2355  0.9627
37397SOL     OW14443   7.650   5.302   7.132  0.0611  0.4621  0.2467
37397SOL    HW114444   7.557   5.306   7.152 -0.0297 -0.0177 -0.0581
37397SOL    HW214445   7.657   5.341   7.045  0.4544  2.5464  1.1675
37398SOL     OW14446   0.571   5.912  10.197 -0.1931  0.3811 -0.1851
37398SOL    HW114447   0.629   5.935  10.269  0.8974  1.3199 -1.3149
37398SOL    HW214448   0.555   5.818  10.207  0.5975  0.3397  0.8034
37399SOL     OW14449   9.797   3.214   9.440 -0.2600  0.0807 -0.0730
37399SOL    HW114450   9.774   3.124   9.417  0.1262 -0.1938  0.5681
37399SOL    HW214451   9.812   3.211   9.535 -1.2335  1.0426  0.1268
37400SOL     OW14452   0.188   4.238   8.977 -0.2879  0.4326  0.0477
37400SOL    HW114453   0.111   4.192   9.010  0.3167  0.2064  1.2278
37400SOL    HW214454   0.262   4.183   9.002  0.2853  0.7921 -0.7992
37401SOL     OW14455  10.375   3.046   0.153 -0.4019 -0.0863  0.0291
37401SOL    HW114456  10.406   2.978   0.213  0.8415  0.7708  0.3864
37401SOL    HW214457  10.431   3.038   0.076 -0.9132 -0.1027 -0.3486
37402SOL     OW14458   6.714   6.317   7.407  0.4224  0.2076 -0.0375
37402SOL    HW114459   6.654   6.354   7.342  0.0806 -1.4814 -0.7307
37402SOL    HW214460   6.658   6.295   7.481  0.2866 -0.6964 -0.3982
37403SOL     OW14461   9.632   2.915  10.161 -0.2981  0.7143 -0.3938
37403SOL    HW114462   9.636   2.952  10.072 -1.2336  0.1518 -0.6845
37403SOL    HW214463   9.539   2.906  10.179 -0.1126 -0.5112  0.0798
37404SOL     OW14464  10.228   1.349   3.285  0.3119 -0.2802 -0.6425
37404SOL    HW114465  10.139   1.385   3.281  0.3900  0.4711  2.1854
37404SOL    HW214466  10.285   1.425   3.293  0.9594 -0.8228  0.0651
37405SOL     OW14467   7.006   2.141   9.087  0.1716 -0.0864  0.4523
37405SOL    HW114468   6.965   2.226   9.103  0.0258 -0.2290  0.8460
37405SOL    HW214469   7.083   2.140   9.143 -1.0219 -1.0853  2.1473
37406SOL     OW14470   0.320   4.557   3.236 -0.2005 -0.2458 -0.3141
37406SOL    HW114471   0.240   4.606   3.257 -0.3037 -0.6873  0.3368
37406SOL    HW214472   0.316   4.479   3.291  0.6329 -0.3204 -0.3429
37407SOL     OW14473   8.603  10.418   0.942 -0.1194 -0.8844  0.5866
37407SOL    HW114474   8.610  10.421   0.846 -2.1755 -1.6549  0.3560
37407SOL    HW214475   8.563  10.502   0.965 -0.1624 -0.9381  0.7042
37408SOL     OW14476   0.955   2.106   3.259  0.6254  0.0805  0.1006
37408SOL    HW114477   1.012   2.153   3.199  0.4584  1.9636  1.3372
37408SOL    HW214478   1.012   2.041   3.301  1.1855  0.0886 -0.6301
37409SOL     OW14479  10.233   4.609   7.240  0.0492 -0.0656  0.4590
37409SOL    HW114480  10.163   4.577   7.184  1.5641 -0.9817 -1.0231
37409SOL    HW214481  10.252   4.697   7.207 -2.4581  1.5910  2.9507
37410SOL     OW14482   3.209   7.703   9.262 -0.4929  0.0177  0.3877
37410SOL    HW114483   3.248   7.621   9.231 -1.2081 -0.8304  1.6272
37410SOL    HW214484   3.160   7.736   9.187  0.2324 -0.4006 -0.2917
37411SOL     OW14485   2.941   1.011   6.100  0.0996  0.8213  0.1540
37411SOL    HW114486   2.989   1.083   6.058  1.2936 -0.2309 -0.3722
37411SOL    HW214487   2.913   1.047   6.184  2.0160  1.4569  0.5839
37412SOL     OW14488   8.557  10.368   3.275 -0.6032 -0.0523 -0.0090
37412SOL    HW114489   8.480  10.425   3.270 -2.2714 -2.2106 -0.6382
37412SOL    HW214490   8.568  10.335   3.186  0.3867 -0.6233  0.3118
37413SOL     OW14491   5.362   8.299   6.797  0.1039  0.4061  1.0938
37413SOL    HW114492   5.427   8.368   6.814 -1.2646  1.5035  2.2285
37413SOL    HW214493   5.331   8.274   6.884 -0.8404 -0.2166  0.5945
37414SOL     OW14494   0.494  10.630   5.887 -0.5513 -0.3819 -0.1046
37414SOL    HW114495   0.587  10.627   5.910 -0.8198 -0.5631  1.0298
37414SOL    HW214496   0.488  10.697   5.819  0.2206  0.5581  0.7228
37415SOL     OW14497   4.588   5.537   4.769  0.0567  0.2674 -0.0809
37415SOL    HW114498   4.528   5.585   4.828 -0.0528 -0.9487  0.8372
37415SOL    HW214499   4.570   5.573   4.683 -2.3631 -0.3476  0.0888
37416SOL     OW14500   3.405   8.376   5.744 -0.4311  0.0234 -0.2456
37416SOL    HW114501   3.339   8.371   5.813  0.6400  0.9482  0.8953
37416SOL    HW214502   3.401   8.466   5.713  1.4253  0.6393  1.0756
37417SOL     OW14503   7.219   4.469   6.988  0.3001  0.0486 -0.5722
37417SOL    HW114504   7.152   4.456   7.054 -0.6975 -2.0614 -1.8816
37417SOL    HW214505   7.300   4.442   7.031 -0.2937 -1.0497 -0.0954
37418SOL     OW14506   4.346   4.215   4.325  0.1654 -0.2484  0.0773
37418SOL    HW114507   4.418   4.237   4.266 -0.3322 -0.7185 -0.7256
37418SOL    HW214508   4.380   4.233   4.412  1.2730 -0.5082 -0.2858
37419SOL     OW14509   7.095   9.138   5.595 -0.4085 -0.0945 -0.3478
37419SOL    HW114510   7.037   9.126   5.670  1.4235 -2.1245  0.8570
37419SOL    HW214511   7.037   9.139   5.520 -2.6490  4.6477  1.0232
37420SOL     OW14512   0.202   6.293   4.278  0.4789 -0.1953 -0.4486
37420SOL    HW114513   0.120   6.322   4.318  0.3000 -1.5185  0.1720
37420SOL    HW214514   0.241   6.374   4.243 -1.5278  0.3272 -1.6185
37421SOL     OW14515   8.847   8.673   1.346  0.6303  0.0810 -0.0246
37421SOL    HW114516   8.891   8.590   1.363  1.5836  0.3029 -1.2767
37421SOL    HW214517   8.838   8.714   1.432 -0.0398 -1.3897  0.6345
37422SOL     OW14518   5.745   4.386   3.339  0.0533  0.2653 -0.2480
37422SOL    HW114519   5.675   4.451   3.338  0.4018  0.6893  1.1191
37422SOL    HW214520   5.820   4.431   3.379  1.4566  0.1367 -2.5074
37423SOL     OW14521   1.835   0.870  10.112  0.1026 -0.4580 -0.2271
37423SOL    HW114522   1.893   0.794  10.123  2.0919  0.8319 -1.1044
37423SOL    HW214523   1.765   0.839  10.056  0.5935 -1.7841 -0.1531
37424SOL     OW14524   5.919   6.289   8.581  0.5661  0.4017  0.0211
37424SOL    HW114525   5.903   6.269   8.489 -1.1545  2.4420 -0.1786
37424SOL    HW214526   5.834   6.279   8.623  1.2962 -0.3304  1.3928
37425SOL     OW14527   6.231   6.644   7.602 -0.1152 -0.1375  0.4858
37425SOL    HW114528   6.203   6.627   7.512 -1.5131 -2.0997  1.2200
37425SOL    HW214529   6.320   6.678   7.593 -0.0931 -0.5955 -1.6066
37426SOL     OW14530   2.141   1.913   4.695  0.3735 -0.3161  0.1703
37426SOL    HW114531   2.216   1.854   4.698  1.0649  0.3164 -2.1835
37426SOL    HW214532   2.168   1.988   4.748  1.5711  0.0187 -0.8537
37427SOL     OW14533   1.266   8.849   3.246  0.0423  0.1608 -0.0392
37427SOL    HW114534   1.196   8.826   3.185 -0.1268 -0.4668  0.3837
37427SOL    HW214535   1.223   8.853   3.332  0.2626  1.0937  0.0446
37428SOL     OW14536   5.448   6.939   7.294 -0.0384  0.1551 -0.0864
37428SOL    HW114537   5.497   6.861   7.268  1.4571  1.0700 -0.0923
37428SOL    HW214538   5.376   6.905   7.347 -0.5729 -1.3786 -1.6975
37429SOL     OW14539  10.185   6.014   2.767 -0.0575  0.1371  0.7599
37429SOL    HW114540  10.198   6.109   2.768  1.8201 -0.0774  0.5330
37429SOL    HW214541  10.188   5.991   2.674  0.5932 -0.2501  0.8685
37430SOL     OW14542   5.268   6.588   6.312  0.0405 -0.7555  0.2245
37430SOL    HW114543   5.363   6.593   6.300 -0.0771  0.4950 -0.2604
37430SOL    HW214544   5.252   6.631   6.396 -0.1905 -0.1154 -0.1464
37431SOL     OW14545   9.066   0.649   1.569  0.2719 -0.0211  0.7792
37431SOL    HW114546   8.982   0.685   1.599 -0.2298  2.2488 -2.6874
37431SOL    HW214547   9.042   0.575   1.514  0.4725  0.7779 -0.4119
37432SOL     OW14548   7.586  10.076   8.604 -0.4289  0.4198  0.4100
37432SOL    HW114549   7.615  10.152   8.554  0.4904  0.6640  1.2713
37432SOL    HW214550   7.645  10.073   8.679 -1.8226  0.1203  1.5285
37433SOL     OW14551   7.115   1.128   8.053 -0.5874 -0.3159  0.1157
37433SOL    HW114552   7.020   1.119   8.057 -0.5291 -1.3858 -0.4624
37433SOL    HW214553   7.142   1.071   7.980  0.2804  1.8305 -1.3625
37434SOL     OW14554   6.717   0.678   5.312  0.4841  0.2151 -0.0792
37434SOL    HW114555   6.661   0.645   5.242  0.1465 -0.6764  0.5918
37434SOL    HW214556   6.763   0.753   5.273 -0.6346  0.5197 -0.8548
37435SOL     OW14557   2.856  10.511   6.000  0.2246  0.3553  0.1381
37435SOL    HW114558   2.837  10.418   5.997 -1.1990  0.5313  1.7300
37435SOL    HW214559   2.775  10.553   5.971  0.1809  1.0908  1.2432
37436SOL     OW14560   7.536   2.326   5.248  0.1887 -0.0407 -0.0256
37436SOL    HW114561   7.511   2.418   5.252  0.9128  0.2546 -1.7096
37436SOL    HW214562   7.515   2.299   5.159  0.5997 -1.3337  0.2474
37437SOL     OW14563   7.051   4.770   9.127 -0.2818 -0.3494  0.2987
37437SOL    HW114564   7.109   4.695   9.119 -0.3150 -0.4141  0.6223
37437SOL    HW214565   7.044   4.784   9.222 -1.9191 -1.2186  0.3388
37438SOL     OW14566   2.905   6.487   1.441 -0.0199  0.1050 -0.8087
37438SOL    HW114567   2.884   6.579   1.426  0.6348  0.3902  0.0147
37438SOL    HW214568   2.997   6.486   1.466 -0.4806 -0.5738  1.0263
37439SOL     OW14569   3.673   8.639   7.238 -0.1418  0.3615  0.1432
37439SOL    HW114570   3.637   8.615   7.324  0.8504 -2.3895 -0.1363
37439SOL    HW214571   3.745   8.578   7.224  2.7671  3.6709 -0.6907
37440SOL     OW14572   5.968   2.480   0.597  0.2296 -0.3601  0.0070
37440SOL    HW114573   6.042   2.453   0.543 -0.8687 -0.1076 -1.7159
37440SOL    HW214574   5.975   2.427   0.676  0.9317 -2.0486 -1.1199
37441SOL     OW14575   8.581   4.771   8.043 -0.2908 -0.0884 -0.1287
37441SOL    HW114576   8.517   4.806   8.104  0.1871 -0.9995  0.9407
37441SOL    HW214577   8.619   4.696   8.089  1.6822  0.5375 -0.6487
37442SOL     OW14578   1.819   3.018   9.101  0.0456  0.4490 -0.6965
37442SOL    HW114579   1.853   3.090   9.154 -0.6901 -0.0206  0.4575
37442SOL    HW214580   1.765   3.061   9.034 -1.3645  0.9733  0.6924
37443SOL     OW14581   9.545   9.418   2.019  0.2503 -0.1531 -0.4326
37443SOL    HW114582   9.567   9.491   1.961  1.7509 -0.0089  0.2565
37443SOL    HW214583   9.497   9.459   2.091  2.5992  0.5446  0.8620
37444SOL     OW14584   9.321   3.191  10.416  0.0093  0.4003  0.1324
37444SOL    HW114585   9.322   3.210  10.510  0.8211 -2.3638  0.7744
37444SOL    HW214586   9.412   3.174  10.394 -0.5224 -2.1250 -0.3729
37445SOL     OW14587   5.236   3.381   1.043 -0.8272  0.0619  0.2040
37445SOL    HW114588   5.167   3.361   1.106  0.4160 -0.3472  1.4701
37445SOL    HW214589   5.295   3.440   1.089  0.9253 -1.4522  0.0153
37446SOL     OW14590   9.187   6.817   4.026  0.2569  0.8219  0.0705
37446SOL    HW114591   9.099   6.789   4.000 -0.0853  2.5543 -0.8164
37446SOL    HW214592   9.172   6.899   4.073  1.3524  0.7365  0.5819
37447SOL     OW14593   9.264   7.681   1.265 -0.1002 -0.0575 -0.2872
37447SOL    HW114594   9.342   7.713   1.309 -1.1541 -0.3550  1.9376
37447SOL    HW214595   9.207   7.757   1.257  0.1595  0.0374 -1.3799
37448SOL     OW14596  10.351   0.150   9.108 -0.7226  0.1395  0.0185
37448SOL    HW114597  10.259   0.165   9.088 -0.5658  0.7536 -0.2649
37448SOL    HW214598  10.361   0.179   9.199 -0.7574  0.2952 -0.0284
37449SOL     OW14599   9.559   5.958   8.829 -0.2997  0.4258 -0.1483
37449SOL    HW114600   9.495   5.984   8.762 -1.8381 -1.3172  0.5639
37449SOL    HW214601   9.583   5.868   8.807 -0.4698 -0.0105  1.3489
37450SOL     OW14602   1.455   2.541   3.307  0.3231  0.2034 -0.3316
37450SOL    HW114603   1.531   2.600   3.311  0.5501  0.0605 -1.7236
37450SOL    HW214604   1.476   2.481   3.235  0.2699 -1.8676  1.2790
37451SOL     OW14605   8.753   9.353   8.036  0.3594  0.7454 -0.2764
37451SOL    HW114606   8.734   9.446   8.029  2.4984  1.6012  2.9218
37451SOL    HW214607   8.830   9.340   7.982 -0.6450  0.4649 -1.7140
37452SOL     OW14608   7.472   9.329   9.856  0.1740  0.0139  0.0031
37452SOL    HW114609   7.437   9.374   9.933  0.8117  1.7850 -0.6964
37452SOL    HW214610   7.567   9.336   9.866  0.3225 -1.7531  0.1612
37453SOL     OW14611   6.673   4.100   5.762 -0.7907  0.0209 -0.5534
37453SOL    HW114612   6.682   4.048   5.681 -1.5087 -0.5321 -0.2859
37453SOL    HW214613   6.645   4.186   5.731  0.7434  0.3788 -1.0309
37454SOL     OW14614   2.482  10.458   1.308  0.3034 -0.0313 -0.7895
37454SOL    HW114615   2.568  10.457   1.350  0.5572 -3.1277 -1.1276
37454SOL    HW214616   2.499  10.429   1.218 -1.0181 -0.1936 -1.0120
37455SOL     OW14617   5.674   4.977   2.815 -0.3891 -0.0989 -0.4153
37455SOL    HW114618   5.579   4.971   2.821 -0.2956 -1.4036 -0.1645
37455SOL    HW214619   5.691   5.071   2.808 -1.6098  0.2401  0.8549
37456SOL     OW14620   7.853   3.104   3.200  0.0926 -0.3070  0.1758
37456SOL    HW114621   7.772   3.091   3.249 -0.8621 -0.1824 -1.3311
37456SOL    HW214622   7.839   3.060   3.116  0.9883  0.9971 -0.7061
37457SOL     OW14623   7.788   0.720   3.632 -0.2112  0.5179 -0.1418
37457SOL    HW114624   7.708   0.747   3.586  0.2231  0.3817 -1.0174
37457SOL    HW214625   7.804   0.789   3.696  0.2766  1.8307 -1.5933
37458SOL     OW14626   8.927   9.079   3.547  0.1255  0.4381 -0.0741
37458SOL    HW114627   9.020   9.098   3.560  0.3177 -0.0171 -0.7108
37458SOL    HW214628   8.882   9.157   3.578  0.7799  1.0371 -0.5901
37459SOL     OW14629   2.563   9.194   4.346  0.4409  0.2008  0.1924
37459SOL    HW114630   2.559   9.277   4.299  2.0912  1.2699  1.7951
37459SOL    HW214631   2.535   9.216   4.435  0.3547 -1.0941  0.5057
37460SOL     OW14632   2.335   7.096   6.797  0.2673  0.0511 -0.1526
37460SOL    HW114633   2.289   7.028   6.748  0.0601  0.2380 -0.2169
37460SOL    HW214634   2.335   7.064   6.887  0.9231 -0.4427 -0.3184
37461SOL     OW14635   3.109   5.438   7.810 -0.6831 -0.3904 -0.4570
37461SOL    HW114636   3.150   5.430   7.896 -0.7467  0.4707 -0.3400
37461SOL    HW214637   3.030   5.384   7.816 -0.7551 -0.2311  0.0712
37462SOL     OW14638   1.550   6.662   2.781  0.0407 -0.1695  0.4855
37462SOL    HW114639   1.493   6.701   2.716 -0.5368 -1.1156  0.3966
37462SOL    HW214640   1.629   6.716   2.781  0.3726 -0.5749 -1.5571
37463SOL     OW14641   1.291   0.684   9.267 -0.1033  0.2801 -0.1784
37463SOL    HW114642   1.204   0.679   9.227  0.6512  0.4999 -1.9114
37463SOL    HW214643   1.322   0.594   9.270 -0.2135  0.2487  0.0526
37464SOL     OW14644   7.119   9.055  10.228  0.2139 -0.1259 -0.9502
37464SOL    HW114645   7.041   9.107  10.246  0.7624  0.4481 -0.1824
37464SOL    HW214646   7.184   9.119  10.200  1.5577 -0.0298  2.0314
37465SOL     OW14647  10.234   9.827   3.760 -0.1755  0.0060 -0.4897
37465SOL    HW114648  10.154   9.832   3.813  0.7198 -1.0334  1.0298
37465SOL    HW214649  10.231   9.739   3.721  0.2256 -0.0301 -0.4371
37466SOL     OW14650   8.460   5.983   5.665 -0.1281 -0.2483  0.2290
37466SOL    HW114651   8.515   5.927   5.611 -0.0843  0.3078 -0.3173
37466SOL    HW214652   8.459   5.941   5.751 -1.6789 -2.1280 -0.6581
37467SOL     OW14653   5.195   1.092   0.808  0.7851  0.7247  0.3833
37467SOL    HW114654   5.103   1.071   0.794  0.6955  1.8707 -1.1210
37467SOL    HW214655   5.196   1.146   0.887  0.1854  0.5537  0.5115
37468SOL     OW14656   2.180   4.657   3.117 -0.4920 -0.2788 -0.1582
37468SOL    HW114657   2.176   4.562   3.103 -0.9626 -0.3539  0.4524
37468SOL    HW214658   2.211   4.692   3.034  1.2754 -1.1086  0.1031
37469SOL     OW14659   9.198   5.553   5.569  0.3042  0.1189  0.4179
37469SOL    HW114660   9.290   5.555   5.542  0.1131  0.8315 -0.2383
37469SOL    HW214661   9.158   5.486   5.514  0.6279 -0.9147  1.4157
37470SOL     OW14662   5.196   8.407  10.107 -0.2117 -0.0203  0.0462
37470SOL    HW114663   5.187   8.345  10.180  0.0058  0.2695  0.3229
37470SOL    HW214664   5.264   8.369  10.052 -0.4331 -0.2825 -0.0541
37471SOL     OW14665   0.564   3.376   7.417  0.0799  0.0928  0.5277
37471SOL    HW114666   0.594   3.293   7.452  0.1243 -0.1643 -0.1026
37471SOL    HW214667   0.520   3.419   7.491 -0.4199 -0.7246  0.7239
37472SOL     OW14668   6.969   9.612   6.745 -0.4420 -0.3093  0.1787
37472SOL    HW114669   6.993   9.546   6.810  1.1473 -1.1286 -1.1639
37472SOL    HW214670   6.992   9.696   6.785 -0.3893 -0.7236  1.0295
37473SOL     OW14671   3.097   5.738   6.705  0.4686  0.1585  0.4572
37473SOL    HW114672   3.114   5.655   6.661  0.7154  1.1672 -1.4454
37473SOL    HW214673   3.015   5.723   6.752  0.5229 -1.1700  0.1809
37474SOL     OW14674  10.482   7.370   4.985  0.0994  0.7010  0.0797
37474SOL    HW114675  10.450   7.283   4.961 -2.4371  1.8263 -0.9094
37474SOL    HW214676  10.491   7.366   5.080  1.5621 -1.0592 -0.0597
37475SOL     OW14677  10.102   2.211   8.495  0.3501  0.1727  0.1865
37475SOL    HW114678  10.125   2.186   8.406  0.0538  1.1835 -0.1975
37475SOL    HW214679  10.145   2.296   8.508 -0.9835  0.8646  0.3646
37476SOL     OW14680   9.127   1.644   7.046  0.2086  0.1179 -0.0511
37476SOL    HW114681   9.052   1.601   7.088  1.1162 -2.2985 -0.7244
37476SOL    HW214682   9.095   1.731   7.023 -1.9121 -0.3134  1.0117
37477SOL     OW14683   6.120   5.924   6.621  0.0207 -0.1197  0.7121
37477SOL    HW114684   6.036   5.878   6.611  0.5638 -1.1381  0.6823
37477SOL    HW214685   6.117   5.994   6.556 -1.1187  0.3343  1.2296
37478SOL     OW14686   1.045   2.877   9.631  0.1554 -0.2163  0.1475
37478SOL    HW114687   0.953   2.900   9.620  0.0920 -0.9894 -1.2484
37478SOL    HW214688   1.073   2.924   9.709 -1.8870 -1.3755  1.6843
37479SOL     OW14689   9.476   6.016   4.477  1.4212  0.3497 -0.2072
37479SOL    HW114690   9.447   5.973   4.396  0.7189 -0.2293  0.3426
37479SOL    HW214691   9.413   5.989   4.543  0.2212  3.2157 -0.0570
37480SOL     OW14692   0.886   9.718   5.859 -0.0278 -0.0652  0.1674
37480SOL    HW114693   0.837   9.793   5.824 -0.8898  0.3535  2.1416
37480SOL    HW214694   0.819   9.657   5.889  0.6775 -0.7350  0.4238
37481SOL     OW14695   2.031   1.934   3.863 -0.1617 -0.8909  0.0633
37481SOL    HW114696   1.961   1.962   3.922  0.4681  1.3149 -0.1680
37481SOL    HW214697   1.996   1.951   3.775  0.2207 -0.8861 -0.0893
37482SOL     OW14698   1.333  10.424   8.067  0.2172 -0.3399  0.4223
37482SOL    HW114699   1.249  10.391   8.096 -0.0846  1.2264  1.4322
37482SOL    HW214700   1.397  10.386   8.127  0.4980 -2.7090 -1.2118
37483SOL     OW14701  10.069   3.437   0.635 -0.2676  0.0591  0.1233
37483SOL    HW114702  10.128   3.502   0.597 -1.0078  2.1060  2.2048
37483SOL    HW214703   9.998   3.430   0.572  1.4755 -1.4748 -1.8017
37484SOL     OW14704   3.395   0.004   7.457  0.0086  0.0995 -0.0914
37484SOL    HW114705   3.421  -0.045   7.380  1.2035 -0.6849  0.7858
37484SOL    HW214706   3.336  -0.055   7.505  1.5094 -0.5640  1.0040
37485SOL     OW14707   3.227   7.456   6.426  0.0418 -0.0812  0.4434
37485SOL    HW114708   3.137   7.483   6.405 -0.1788 -0.4330  0.9331
37485SOL    HW214709   3.220   7.410   6.509  0.1108 -3.3429 -1.2171
37486SOL     OW14710   9.296   5.872   0.618 -0.0103 -0.4979 -0.3484
37486SOL    HW114711   9.254   5.809   0.676 -0.4832  0.4292  0.3300
37486SOL    HW214712   9.368   5.908   0.670 -0.8936  0.8812 -0.0590
37487SOL     OW14713  10.552   7.616   4.944  0.2691  0.5266  0.4068
37487SOL    HW114714  10.644   7.624   4.918  0.0046  0.5508 -0.5928
37487SOL    HW214715  10.546   7.528   4.982  0.4987  0.1091 -0.4848
37488SOL     OW14716   4.287   1.394   5.981 -0.1065  0.5210 -0.4382
37488SOL    HW114717   4.374   1.414   6.015 -0.1580 -1.0363  0.7638
37488SOL    HW214718   4.227   1.418   6.051 -0.4944  0.0932 -0.6135
37489SOL     OW14719   0.754   6.133   8.386  0.4273 -0.0718  0.8908
37489SOL    HW114720   0.784   6.043   8.393  0.9418  0.1967  2.7736
37489SOL    HW214721   0.834   6.185   8.378  0.4391  0.4577  3.5310
37490SOL     OW14722   3.014   4.671   1.023 -0.2523  0.2542  0.4558
37490SOL    HW114723   3.103   4.642   1.004 -0.6261 -1.8047  1.5719
37490SOL    HW214724   2.958   4.600   0.990 -1.4987  1.4547 -0.1272
37491SOL     OW14725   2.699   9.948   2.596 -0.2768 -0.1198 -0.1107
37491SOL    HW114726   2.630   9.958   2.662 -1.7060 -0.4834 -1.5133
37491SOL    HW214727   2.743   9.867   2.621  0.3939  0.6520  1.4095
37492SOL     OW14728   4.205   8.788   0.281 -0.2545  0.1096 -0.0024
37492SOL    HW114729   4.123   8.790   0.331 -0.3603 -0.6151 -0.1408
37492SOL    HW214730   4.267   8.834   0.337 -0.6793  0.4004  0.2411
37493SOL     OW14731   3.363   8.674   7.846 -0.4736  0.4241 -0.0300
37493SOL    HW114732   3.437   8.671   7.907 -0.0938  0.0320 -0.5017
37493SOL    HW214733   3.286   8.663   7.902 -0.1526  0.3780  0.4159
37494SOL     OW14734   1.138   9.211   0.310  0.0468  0.2805 -0.2349
37494SOL    HW114735   1.056   9.166   0.287  0.8397 -0.1968 -2.3273
37494SOL    HW214736   1.207   9.156   0.274  1.2971  0.9477  1.0282
37495SOL     OW14737  10.027   8.288   6.643 -0.1652  0.0638 -0.2531
37495SOL    HW114738  10.118   8.267   6.665  0.3557  1.3267 -1.1156
37495SOL    HW214739  10.030   8.377   6.608 -1.6259 -0.1389 -0.9927
37496SOL     OW14740   8.808   0.197   1.219  0.5109 -0.3355 -0.2601
37496SOL    HW114741   8.769   0.228   1.138  0.0750 -0.4242 -0.0848
37496SOL    HW214742   8.886   0.251   1.231 -1.3888  2.2698  1.2165
37497SOL     OW14743   5.162   9.623   0.347 -0.1576 -0.4599  0.7309
37497SOL    HW114744   5.104   9.658   0.414 -2.3622 -0.7784 -0.9030
37497SOL    HW214745   5.172   9.531   0.369 -0.1021 -0.3509  1.1561
37498SOL     OW14746   8.450   1.680   7.469 -0.2622  0.3678  0.2822
37498SOL    HW114747   8.514   1.615   7.440  1.0430  1.7476 -0.0971
37498SOL    HW214748   8.374   1.629   7.495  0.5554 -1.2763 -0.3758
37499SOL     OW14749   3.369   9.095   3.919 -0.2691  0.3887 -0.6387
37499SOL    HW114750   3.427   9.077   3.845 -1.2760 -2.2091 -0.9111
37499SOL    HW214751   3.281   9.083   3.883 -0.7732 -1.2704  0.9885
37500SOL     OW14752   5.958   9.003  10.015 -0.2995  0.3558  0.1076
37500SOL    HW114753   5.906   9.042   9.945  0.9102  0.4489 -0.7726
37500SOL    HW214754   5.940   9.057  10.091 -2.0147 -0.0421  0.0177
37501SOL     OW14755   7.718   9.905   3.872 -0.0593 -0.6083  0.1482
37501SOL    HW114756   7.680   9.881   3.787  0.7586  2.0877 -1.1107
37501SOL    HW214757   7.753   9.824   3.907  0.2638 -1.7056 -2.4997
37502SOL     OW14758   4.001   4.912   0.580 -0.3949  0.1762  0.6514
37502SOL    HW114759   4.019   4.889   0.489 -1.5862  1.0156  0.1780
37502SOL    HW214760   4.061   4.984   0.598 -1.3749  1.2280 -0.0867
37503SOL     OW14761   6.188   9.284   3.517  0.1160 -0.3922 -0.3330
37503SOL    HW114762   6.258   9.302   3.580 -0.0618 -1.3204  0.1588
37503SOL    HW214763   6.119   9.346   3.539  1.2115  1.3478 -1.5922
37504SOL     OW14764   7.442   7.234   6.525 -0.0675  0.1792 -0.5299
37504SOL    HW114765   7.532   7.241   6.493 -0.2641  0.1195 -1.1102
37504SOL    HW214766   7.449   7.182   6.604  0.4165  0.2109 -0.5463
37505SOL     OW14767   1.332   1.622   1.514 -0.4300  0.1950  0.0170
37505SOL    HW114768   1.347   1.596   1.424 -1.4000 -1.7338  0.3595
37505SOL    HW214769   1.398   1.690   1.531 -0.2106  0.5658 -2.0926
37506SOL     OW14770   2.746   0.301   0.998  0.0018  0.4932 -0.3542
37506SOL    HW114771   2.730   0.211   1.027 -1.2905  1.0291  0.6994
37506SOL    HW214772   2.665   0.327   0.955  0.1318  1.3646 -0.0881
37507SOL     OW14773   6.286   0.791   1.784  0.4869  0.1979 -0.2456
37507SOL    HW114774   6.211   0.751   1.740  0.2210 -0.1897  0.5329
37507SOL    HW214775   6.249   0.831   1.863  1.0206  0.4424 -0.1158
37508SOL     OW14776   5.065  10.036   4.450 -0.2424  0.1794 -0.0567
37508SOL    HW114777   5.138   9.979   4.472 -1.2347 -1.3792 -0.6241
37508SOL    HW214778   5.011  10.037   4.529 -1.8592 -2.3486 -1.0063
37509SOL     OW14779   3.197   3.682   0.677 -0.0295  0.5451 -0.5500
37509SOL    HW114780   3.228   3.601   0.716 -0.6183 -0.0628 -1.3027
37509SOL    HW214781   3.239   3.686   0.591 -1.0593  0.3146 -1.0909
37510SOL     OW14782   1.608   9.413   4.166 -0.2348 -0.4276  0.5368
37510SOL    HW114783   1.678   9.468   4.129  0.6430 -0.4607  2.0321
37510SOL    HW214784   1.553   9.391   4.091  0.5065  0.8515 -0.4485
37511SOL     OW14785   0.214   5.377   8.180 -0.4196 -0.2738  0.3506
37511SOL    HW114786   0.208   5.296   8.128  1.1382 -0.4036  0.3349
37511SOL    HW214787   0.123   5.402   8.195 -0.9259 -1.5992 -0.3221
37512SOL     OW14788   7.571   0.614   3.017  0.2106  0.2720  0.0253
37512SOL    HW114789   7.482   0.598   3.047  0.5572 -0.4497  0.7110
37512SOL    HW214790   7.605   0.680   3.078  0.0294  0.8180 -0.4597
37513SOL     OW14791   9.592   1.447   3.903 -0.3221  0.4739 -0.3069
37513SOL    HW114792   9.574   1.355   3.883  2.1200 -0.2763  0.5434
37513SOL    HW214793   9.676   1.465   3.861  0.9051  1.2518  2.2636
37514SOL     OW14794   4.690   2.951   6.894  0.1609 -0.3312 -0.5881
37514SOL    HW114795   4.741   2.875   6.924  0.1423 -0.1761 -0.1473
37514SOL    HW214796   4.601   2.917   6.884  0.6458 -1.0235 -3.0193
37515SOL     OW14797   2.476   8.325  10.212  0.0761 -0.1197  0.3458
37515SOL    HW114798   2.426   8.246  10.236  0.0062  0.2509  1.4874
37515SOL    HW214799   2.553   8.322  10.268  0.5252  0.1666 -0.2527
37516SOL     OW14800   6.934   0.502   8.859  0.0346 -0.2446 -0.2836
37516SOL    HW114801   6.917   0.581   8.809 -1.1223 -0.0836  0.3228
37516SOL    HW214802   6.917   0.527   8.950 -0.5958 -1.2532 -0.1082
37517SOL     OW14803   2.576   4.187   7.371 -0.3060 -0.0496 -0.0056
37517SOL    HW114804   2.564   4.104   7.325 -1.4235 -0.2239  0.5693
37517SOL    HW214805   2.656   4.224   7.332 -0.7756 -0.5425 -1.5248
37518SOL     OW14806   8.482   8.359   4.045 -0.4730 -0.3551 -0.2435
37518SOL    HW114807   8.437   8.295   3.990  0.2298 -0.9623 -0.1467
37518SOL    HW214808   8.556   8.310   4.082 -1.1650 -0.0964  1.5926
37519SOL     OW14809   3.836   3.002   1.756 -0.5414 -0.1721 -0.3849
37519SOL    HW114810   3.785   3.009   1.837 -0.7309 -0.8640 -0.4369
37519SOL    HW214811   3.840   3.091   1.723 -0.9612  0.0289  0.0867
37520SOL     OW14812   9.948   8.148   9.386 -0.1263 -0.0314  0.4555
37520SOL    HW114813   9.890   8.155   9.461 -0.2681 -2.2078  0.6261
37520SOL    HW214814   9.938   8.230   9.339 -0.8763  0.9224  2.2075
37521SOL     OW14815   9.761   2.064   8.576 -0.1920  0.2578  0.0696
37521SOL    HW114816   9.795   2.000   8.640 -0.7071 -0.7874 -0.6748
37521SOL    HW214817   9.745   2.143   8.628  0.5750 -0.1688  0.9929
37522SOL     OW14818   7.467   3.679   2.742 -0.6420 -0.1863 -0.1088
37522SOL    HW114819   7.450   3.633   2.659 -0.5409 -0.3727 -0.0289
37522SOL    HW214820   7.562   3.678   2.750 -0.6971 -1.6247  0.8046
37523SOL     OW14821   7.124   3.338   4.834  0.3878 -0.0294  0.4309
37523SOL    HW114822   7.069   3.372   4.904  0.2471  1.1708 -0.2360
37523SOL    HW214823   7.105   3.244   4.832  0.9461 -0.2274  2.4563
37524SOL     OW14824   1.922   3.404   6.247  0.2662 -0.6525  0.2214
37524SOL    HW114825   1.828   3.402   6.265  0.6935 -1.3147  2.7900
37524SOL    HW214826   1.951   3.313   6.259  1.3714 -0.3062  0.2803
37525SOL     OW14827   9.138   0.498   3.651  0.1225 -0.3878  0.0685
37525SOL    HW114828   9.093   0.416   3.670  0.3858 -0.6270 -0.3309
37525SOL    HW214829   9.128   0.509   3.556 -0.0584  0.1305  0.1417
37526SOL     OW14830   1.107   8.077   4.512 -0.3799 -0.1536  0.1831
37526SOL    HW114831   1.028   8.129   4.501  0.9426  1.9818  0.2999
37526SOL    HW214832   1.178   8.133   4.480  1.3170 -1.2337  1.8461
37527SOL     OW14833   3.549  10.124   1.973  0.2666  0.2468 -0.6893
37527SOL    HW114834   3.626  10.072   1.952  1.4930  2.1283 -1.1564
37527SOL    HW214835   3.506  10.139   1.889 -0.7528 -0.9415 -0.4095
37528SOL     OW14836   0.799   5.601   3.563  0.1224  0.1290 -0.2918
37528SOL    HW114837   0.736   5.560   3.623  0.9702 -0.2166  0.3941
37528SOL    HW214838   0.836   5.674   3.613 -0.2525  0.7824 -0.9535
37529SOL     OW14839  10.406   2.932   7.210  0.3930 -0.1294  0.2727
37529SOL    HW114840  10.313   2.941   7.234  0.2178 -1.3511  0.0977
37529SOL    HW214841  10.452   2.940   7.294  0.2871  2.0708  0.1853
37530SOL     OW14842   3.932   5.959   7.412 -0.1204  0.2405 -0.3382
37530SOL    HW114843   3.902   6.032   7.466 -0.3707  0.1856 -0.4031
37530SOL    HW214844   4.021   5.941   7.443  0.2842  1.1587 -0.9299
37531SOL     OW14845   7.630   7.167   6.028 -0.3998 -0.5831 -0.3299
37531SOL    HW114846   7.706   7.221   6.048 -0.1849 -0.9699 -0.0864
37531SOL    HW214847   7.638   7.092   6.087 -2.1886  0.4683  1.3827
37532SOL     OW14848   5.925   2.819   6.957 -0.0177 -0.5133  0.1771
37532SOL    HW114849   5.858   2.857   7.013  0.3384  0.7093 -0.2028
37532SOL    HW214850   5.884   2.814   6.870  0.8416  1.6687 -0.4071
37533SOL     OW14851  10.039   9.923   7.035 -0.1852 -0.3392  0.3907
37533SOL    HW114852  10.010  10.006   7.072 -0.2362 -1.3038  2.6467
37533SOL    HW214853   9.958   9.874   7.019 -0.1015 -0.3772  0.0600
37534SOL     OW14854   9.793   3.359   2.608  0.4076 -0.4440 -0.3938
37534SOL    HW114855   9.765   3.409   2.685 -0.6411  0.1262 -1.1263
37534SOL    HW214856   9.889   3.366   2.609  0.2918  2.5151 -1.0573
37535SOL     OW14857   7.287   0.010   3.211  0.4612  0.5381 -0.2740
37535SOL    HW114858   7.357  -0.010   3.148 -0.3653 -0.8505 -0.7804
37535SOL    HW214859   7.251  -0.075   3.236  0.4149  1.0900  1.7153
37536SOL     OW14860   9.007   9.847   8.467  0.1189 -0.5519 -0.0202
37536SOL    HW114861   9.025   9.924   8.521 -2.7783  2.0517 -2.3313
37536SOL    HW214862   8.954   9.790   8.523  0.4013  0.2150  1.0558
37537SOL     OW14863   4.311   6.948   0.161  0.2467 -0.5357 -0.1442
37537SOL    HW114864   4.325   7.042   0.150  0.5690 -0.5400  0.1912
37537SOL    HW214865   4.231   6.941   0.213  0.2135 -0.4444 -0.1832
37538SOL     OW14866  10.061   2.172   7.943 -0.1075  0.3171  0.1679
37538SOL    HW114867  10.013   2.100   7.984  2.8646 -1.8205  0.2308
37538SOL    HW214868  10.058   2.243   8.008  0.3455 -1.2448  1.9606
37539SOL     OW14869   3.114   9.026   8.275  0.0558  0.5507  0.2924
37539SOL    HW114870   3.045   9.047   8.338  0.6718 -0.4621  1.3222
37539SOL    HW214871   3.072   8.967   8.212  0.3920 -1.5178  1.9219
37540SOL     OW14872   9.761   0.015   6.914 -0.2674 -0.0944  0.3246
37540SOL    HW114873   9.800   0.030   6.829 -0.5262 -0.0850  0.2055
37540SOL    HW214874   9.763  -0.080   6.926 -1.0719 -0.1740 -0.1008
37541SOL     OW14875   9.481   4.489   6.626  0.2078  0.0809 -0.1456
37541SOL    HW114876   9.549   4.540   6.669  0.1429 -0.9447  1.2223
37541SOL    HW214877   9.399   4.529   6.655  0.1053 -1.5284  2.0031
37542SOL     OW14878   8.360   5.521   9.297  0.8721 -0.0886  0.0634
37542SOL    HW114879   8.324   5.440   9.332  1.1300 -0.6421 -0.9008
37542SOL    HW214880   8.283   5.578   9.286  0.5212 -0.6215 -0.3278
37543SOL     OW14881   8.836   7.270   7.024  0.2000  0.1461 -0.1516
37543SOL    HW114882   8.775   7.209   6.982  0.1194 -0.2266  0.4857
37543SOL    HW214883   8.819   7.354   6.982 -0.9168  0.0960  0.1632
37544SOL     OW14884   2.506   0.027   7.931 -0.2025  0.3104 -0.5790
37544SOL    HW114885   2.496  -0.053   7.982  1.5608 -0.5941 -1.5637
37544SOL    HW214886   2.464   0.095   7.984  0.8524 -0.7275  1.7052
37545SOL     OW14887   6.992   7.801   9.146  0.0656 -0.2996  0.9262
37545SOL    HW114888   6.963   7.815   9.056 -0.2607 -2.1223  0.7270
37545SOL    HW214889   7.035   7.884   9.170 -1.5575  0.9318 -0.1980
37546SOL     OW14890   7.653   2.941   6.618 -0.0824 -0.2611 -0.2062
37546SOL    HW114891   7.700   2.860   6.598  0.3646  0.2731 -1.4691
37546SOL    HW214892   7.718   2.996   6.662 -0.2065 -0.3653  0.1077
37547SOL     OW14893  10.329   2.330   3.230 -0.1572 -0.5388  0.1344
37547SOL    HW114894  10.359   2.328   3.139 -0.8013  1.3718 -0.1730
37547SOL    HW214895  10.238   2.360   3.225 -0.4052 -1.0177  1.3843
37548SOL     OW14896   9.245   4.619   1.090  0.2164 -0.3371  0.0029
37548SOL    HW114897   9.302   4.693   1.111 -1.7494  0.8859  1.3721
37548SOL    HW214898   9.165   4.659   1.057 -0.1476 -1.9802 -1.2491
37549SOL     OW14899   9.130   7.410   5.437 -0.3110 -0.0533 -0.0306
37549SOL    HW114900   9.174   7.402   5.522  0.1173  0.2363 -0.2223
37549SOL    HW214901   9.201   7.418   5.373 -0.6260 -0.6959 -0.4660
37550SOL     OW14902   8.217   6.970   6.140  0.1627 -0.6958 -0.0106
37550SOL    HW114903   8.176   6.943   6.058 -1.7237 -0.2535  0.7308
37550SOL    HW214904   8.282   6.903   6.159 -0.9723 -2.0285 -0.7102
37551SOL     OW14905   3.366   4.254   7.881 -0.4854 -0.0044  0.0282
37551SOL    HW114906   3.331   4.165   7.876 -0.6768 -0.0385  1.6443
37551SOL    HW214907   3.448   4.250   7.831 -1.1491 -0.7372 -1.0436
37552SOL     OW14908   0.917   1.749   3.952 -0.2550  0.0570  0.2738
37552SOL    HW114909   0.880   1.724   4.037  0.3587 -1.8470  0.0272
37552SOL    HW214910   0.851   1.724   3.888  0.4990 -1.3148 -0.0029
37553SOL     OW14911   8.702  10.405   4.291  0.3466  0.2980  0.0109
37553SOL    HW114912   8.643  10.467   4.249 -0.5633 -0.6279 -0.1309
37553SOL    HW214913   8.741  10.356   4.218  0.4601  0.1797  0.1503
37554SOL     OW14914   0.233   6.738   1.518  0.2160 -0.2925  0.2568
37554SOL    HW114915   0.276   6.817   1.550  0.9141 -1.0644  1.3149
37554SOL    HW214916   0.139   6.755   1.530  0.3857  0.1790  0.9688
37555SOL     OW14917  10.648   8.270   0.807  0.0483  0.6385 -0.1724
37555SOL    HW114918  10.559   8.236   0.812 -0.3698  1.6972 -0.1615
37555SOL    HW214919  10.639   8.356   0.765  0.3178  3.1584  4.3009
37556SOL     OW14920   2.049   7.432   3.595 -0.2295  0.4882 -0.3518
37556SOL    HW114921   2.111   7.441   3.523 -1.3936  1.4464 -1.2818
37556SOL    HW214922   2.062   7.510   3.648 -0.0858  0.2865 -0.0861
37557SOL     OW14923   6.581   6.778   5.667  0.4656 -0.6788  0.1200
37557SOL    HW114924   6.577   6.874   5.670 -0.7040 -0.6421 -1.3260
37557SOL    HW214925   6.510   6.750   5.725  1.4399 -0.7075  1.3234
37558SOL     OW14926  10.045   7.287   1.316 -0.0010  0.0638  0.0278
37558SOL    HW114927  10.138   7.312   1.323  0.5587 -2.1745  1.8534
37558SOL    HW214928  10.026   7.243   1.399 -2.5261 -0.1911 -0.6023
37559SOL     OW14929   5.050   8.274  10.355 -0.6160 -0.0249 -0.6585
37559SOL    HW114930   5.001   8.207  10.403  1.2218 -0.7226  0.3439
37559SOL    HW214931   5.086   8.331  10.422 -0.6616  0.9021 -1.4042
37560SOL     OW14932   1.830   9.674   2.175  0.4106  0.1792 -0.1444
37560SOL    HW114933   1.809   9.684   2.082 -0.5115  0.6832  0.1009
37560SOL    HW214934   1.835   9.580   2.189  0.0421  0.0879 -0.6026
37561SOL     OW14935   4.656  10.346   8.543 -0.2823  0.4112 -0.3341
37561SOL    HW114936   4.621  10.434   8.561 -1.4186 -0.1841  0.5011
37561SOL    HW214937   4.737  10.342   8.594  0.2302  1.2670 -1.0547
37562SOL     OW14938   6.814   7.610   5.388  0.0249 -0.0410  0.2594
37562SOL    HW114939   6.737   7.608   5.444  0.5839 -0.9006  1.0121
37562SOL    HW214940   6.817   7.700   5.355  0.4030  0.8948  2.6466
37563SOL     OW14941   8.167   2.245   6.118  0.0093  0.0661 -0.0621
37563SOL    HW114942   8.242   2.209   6.165 -1.1406 -0.4643  1.4783
37563SOL    HW214943   8.106   2.271   6.187 -2.3148 -1.9204 -1.1802
37564SOL     OW14944   9.342   1.174   4.349 -0.1564 -0.2442  0.6417
37564SOL    HW114945   9.353   1.227   4.429  1.1836  0.3224  0.1184
37564SOL    HW214946   9.249   1.178   4.330 -0.3897  0.1993  1.7968
37565SOL     OW14947   6.885   6.269   5.906 -0.3152  0.0170 -0.2461
37565SOL    HW114948   6.854   6.195   5.959  0.5245  0.5544  1.0397
37565SOL    HW214949   6.905   6.337   5.970 -2.3009  1.8709 -1.4443
37566SOL     OW14950   1.841   4.568   9.036  0.8076  0.2788  0.0124
37566SOL    HW114951   1.848   4.482   9.078  2.8604 -0.9509 -2.5872
37566SOL    HW214952   1.804   4.550   8.950  1.8850  1.8975 -0.8248
37567SOL     OW14953   5.330   2.262   5.046  0.2596 -0.4789  0.2077
37567SOL    HW114954   5.297   2.172   5.050 -2.4388  0.3622 -0.6739
37567SOL    HW214955   5.336   2.289   5.138  0.2391 -1.2690  0.4527
37568SOL     OW14956   7.483   5.128   4.481 -0.5507  0.3253 -0.5451
37568SOL    HW114957   7.546   5.118   4.409 -0.0993  0.6965 -0.2060
37568SOL    HW214958   7.520   5.197   4.536 -0.3663 -0.6624  0.6075
37569SOL     OW14959   0.462   6.770   1.215  0.3394  0.3494 -0.1327
37569SOL    HW114960   0.505   6.851   1.243  0.0035  1.2334 -2.0050
37569SOL    HW214961   0.472   6.711   1.289  0.4178  2.1616  1.3879
37570SOL     OW14962   0.050   0.835   2.175  0.4707 -0.0784  0.4018
37570SOL    HW114963   0.062   0.929   2.183  0.8008  0.0427 -1.1711
37570SOL    HW214964  -0.036   0.818   2.214  0.8541  0.7020  1.6320
37571SOL     OW14965   4.869   7.352   8.409  0.0835 -0.3983 -0.2436
37571SOL    HW114966   4.887   7.337   8.502 -0.1845 -0.2439 -0.1684
37571SOL    HW214967   4.942   7.407   8.380 -0.9924  1.4755  0.4160
37572SOL     OW14968   4.006   3.146   8.959  0.2912 -0.6036 -0.0722
37572SOL    HW114969   4.013   3.230   9.003  1.4458  0.3711 -2.0349
37572SOL    HW214970   4.094   3.109   8.962  0.0625 -1.1852 -0.3298
37573SOL     OW14971   3.644   5.160   9.952 -0.0662  0.3000  0.2900
37573SOL    HW114972   3.562   5.145  10.000  1.5663 -0.9638  2.9104
37573SOL    HW214973   3.711   5.167  10.020  2.1343  0.6058 -1.7694
37574SOL     OW14974   1.326   3.386  10.092 -0.3485 -0.3448  0.4117
37574SOL    HW114975   1.331   3.339  10.009  0.9130  0.6141 -0.0904
37574SOL    HW214976   1.240   3.364  10.127 -1.6856  0.6690 -2.0273
37575SOL     OW14977  10.387   7.099   5.012  0.2216  0.0960  0.0732
37575SOL    HW114978  10.298   7.128   4.990  0.3080  0.6558  0.4131
37575SOL    HW214979  10.390   7.007   4.985 -1.2269 -0.6433  2.1172
37576SOL     OW14980  10.463   4.480   7.311  0.5791 -0.7951  0.2371
37576SOL    HW114981  10.473   4.458   7.219  0.9084 -0.3227  0.1582
37576SOL    HW214982  10.387   4.539   7.314 -0.0710 -1.6326  0.3998
37577SOL     OW14983   7.930   9.612   0.401  0.0935  0.1743  0.3886
37577SOL    HW114984   7.844   9.642   0.372  0.3175  0.3736 -0.0933
37577SOL    HW214985   7.932   9.630   0.495 -0.7766 -0.7687  0.6076
37578SOL     OW14986   6.942   1.116   9.188 -0.1370 -0.2876 -0.0935
37578SOL    HW114987   6.872   1.052   9.199  0.0167 -0.5709 -0.7610
37578SOL    HW214988   6.898   1.193   9.152 -0.5208  0.4034  1.7178
37579SOL     OW14989   7.162  10.640   7.805  0.3001 -0.0231  0.3951
37579SOL    HW114990   7.251  10.623   7.836  0.0042 -2.9562 -0.0935
37579SOL    HW214991   7.108  10.638   7.885  0.4902  0.2357  0.5289
37580SOL     OW14992   0.824   6.393   2.968 -0.3318 -0.0886 -0.2213
37580SOL    HW114993   0.886   6.359   3.033  1.5138 -0.7470 -2.2252
37580SOL    HW214994   0.757   6.326   2.962  0.4924 -0.9309 -0.3258
37581SOL     OW14995  10.026   9.828   3.920  0.2703 -0.5684 -0.6095
37581SOL    HW114996  10.014   9.808   4.013 -1.4567  0.5145 -0.5659
37581SOL    HW214997   9.976   9.761   3.874 -1.0020  0.3901 -0.6511
37582SOL     OW14998   1.935   5.974   1.241  0.0100 -0.6272 -0.3786
37582SOL    HW114999   1.955   5.960   1.334  0.7245  0.7307 -0.3050
37582SOL    HW215000   1.863   6.037   1.241 -0.4274 -1.1229 -0.7462
37583SOL     OW15001   3.899   3.278   8.642 -0.0272 -0.0298  0.0175
37583SOL    HW115002   3.831   3.319   8.587 -0.2940  0.6800  0.8443
37583SOL    HW215003   3.877   3.185   8.641 -1.5702  0.2841  0.9787
37584SOL     OW15004   2.287   9.705   8.814 -0.0146  0.5792 -0.1538
37584SOL    HW115005   2.315   9.797   8.820 -0.7489  0.8491 -0.6946
37584SOL    HW215006   2.342   9.668   8.745  0.9419  0.3412  0.7015
37585SOL     OW15007   5.217   8.772   0.906  0.5590 -0.5705 -0.2737
37585SOL    HW115008   5.233   8.805   0.995 -0.3442 -0.8202 -0.0077
37585SOL    HW215009   5.276   8.824   0.851  0.1126  0.5836  0.3011
37586SOL     OW15010   5.855   9.987   8.098 -0.5615 -0.0861  0.2556
37586SOL    HW115011   5.900   9.909   8.066  0.9967  0.2503  1.4796
37586SOL    HW215012   5.813  10.024   8.020  1.3505 -0.4144 -1.0272
37587SOL     OW15013   8.853   5.635   7.119  0.3335 -0.4945 -0.1328
37587SOL    HW115014   8.798   5.613   7.044  1.1920 -1.8380 -0.3988
37587SOL    HW215015   8.932   5.672   7.080  0.1512  0.2733  0.1995
37588SOL     OW15016   1.037   6.682  10.262 -0.0114 -0.1788 -0.3922
37588SOL    HW115017   1.097   6.752  10.286 -0.7209 -0.2332  1.7286
37588SOL    HW215018   1.093   6.612  10.229  0.7653  1.0120 -1.7209
37589SOL     OW15019   6.080   3.346   4.550  0.4176 -0.1898 -0.0957
37589SOL    HW115020   6.101   3.434   4.581  0.9045  0.3615 -1.8871
37589SOL    HW215021   6.115   3.342   4.461 -1.1149 -1.6057 -0.7003
37590SOL     OW15022   6.300   3.280   8.756 -0.0615 -0.1377 -0.1985
37590SOL    HW115023   6.270   3.266   8.667  0.7215 -0.1742 -0.4585
37590SOL    HW215024   6.233   3.239   8.811 -0.3094 -0.5092 -0.7790
37591SOL     OW15025   4.063   1.087   8.152  0.0814 -0.1089 -0.3211
37591SOL    HW115026   4.071   1.177   8.119  0.0966 -0.2081 -0.5918
37591SOL    HW215027   4.059   1.033   8.073  2.8838 -0.6209 -0.2273
37592SOL     OW15028   9.384   8.038   1.477  0.0395 -0.1384  0.1798
37592SOL    HW115029   9.421   8.122   1.505  0.7776 -0.9186  1.6010
37592SOL    HW215030   9.387   8.043   1.381  0.6825  1.1982  0.2343
37593SOL     OW15031   6.360   5.478  10.034 -0.1485  0.2318 -0.5251
37593SOL    HW115032   6.392   5.561  10.069  0.6957 -0.2037 -0.2522
37593SOL    HW215033   6.428   5.449   9.973 -0.4975 -0.2020 -0.7161
37594SOL     OW15034   4.395   7.046   3.894  0.1098  0.5599  0.3597
37594SOL    HW115035   4.429   7.097   3.968  0.5393 -1.4291  1.5916
37594SOL    HW215036   4.301   7.040   3.910 -0.1607  1.9601 -0.4747
37595SOL     OW15037   5.320   2.384   3.171 -0.0789  0.4530 -0.3540
37595SOL    HW115038   5.416   2.384   3.169 -0.0020  1.0530  1.3755
37595SOL    HW215039   5.294   2.310   3.116  1.4424 -0.6826  0.3735
37596SOL     OW15040   4.486   9.917   9.933 -0.4009 -0.5879  0.1925
37596SOL    HW115041   4.564   9.866   9.956  0.0306 -0.2166 -0.4289
37596SOL    HW215042   4.495   9.998   9.983 -0.7172 -0.8133  0.6169
37597SOL     OW15043  10.114   2.662   1.011 -0.0536  0.3101  0.0822
37597SOL    HW115044  10.024   2.679   1.039  0.4300  0.7208  1.4661
37597SOL    HW215045  10.107   2.587   0.951 -1.2668  0.0805  0.4858
37598SOL     OW15046   5.133   6.691   3.800  0.4378 -0.2319  0.0557
37598SOL    HW115047   5.061   6.701   3.863  1.6489  2.5105  1.1725
37598SOL    HW215048   5.188   6.622   3.838  1.0991  1.3109  2.0747
37599SOL     OW15049   7.054   0.790   8.067  0.0173 -0.2871  0.3822
37599SOL    HW115050   7.069   0.739   8.146 -0.1055  0.4642  0.9057
37599SOL    HW215051   6.973   0.839   8.085  0.1035  0.0505 -0.1241
37600SOL     OW15052   0.368   5.287   9.729 -0.3800  0.2667  0.3841
37600SOL    HW115053   0.394   5.197   9.744  2.8487  1.0675  0.4282
37600SOL    HW215054   0.275   5.290   9.752 -0.5426 -2.9368  0.5657
37601SOL     OW15055   8.779   1.401   6.035  0.5763 -0.4821 -0.4024
37601SOL    HW115056   8.735   1.389   6.119 -0.4678  0.6502 -0.7730
37601SOL    HW215057   8.850   1.336   6.037 -0.7827 -2.0397  0.4033
37602SOL     OW15058  10.093  10.451   8.330  0.1959  0.0104  0.5033
37602SOL    HW115059  10.001  10.431   8.350  0.7650 -0.4031  3.0604
37602SOL    HW215060  10.093  10.543   8.305 -0.7823  0.3508  1.6536
37603SOL     OW15061   1.309   1.725   9.984  0.1556  0.1048  0.0471
37603SOL    HW115062   1.324   1.795  10.047 -0.8258 -0.0173  0.4485
37603SOL    HW215063   1.237   1.674  10.023 -0.9379  0.4161 -1.4675
37604SOL     OW15064   4.618   7.531   4.372  0.2921  0.2235  0.1455
37604SOL    HW115065   4.671   7.519   4.451  1.2296  2.4811 -0.0708
37604SOL    HW215066   4.675   7.504   4.300 -0.0883 -0.5679  0.1324
37605SOL     OW15067   2.408   9.466   1.071  0.0892 -0.3837  0.1693
37605SOL    HW115068   2.460   9.449   1.150 -0.8288  0.1808  0.9229
37605SOL    HW215069   2.345   9.532   1.098  0.5124  0.7012 -1.3772
37606SOL     OW15070   3.240   3.215   0.108 -0.0859  0.5158  0.1982
37606SOL    HW115071   3.238   3.123   0.084  1.9581  0.6376 -0.6687
37606SOL    HW215072   3.152   3.247   0.086 -1.0831 -1.3418  1.2295
37607SOL     OW15073   0.823   7.235   5.261  0.0328  0.4530  0.1230
37607SOL    HW115074   0.806   7.190   5.178  0.8276 -0.5624  0.4827
37607SOL    HW215075   0.888   7.302   5.240  1.6345 -0.9956  0.2103
37608SOL     OW15076   9.086   4.812   0.112 -0.4524 -0.6939 -0.0453
37608SOL    HW115077   9.099   4.901   0.146 -2.6440 -0.3090 -0.0629
37608SOL    HW215078   9.043   4.825   0.028  0.8816 -1.7679 -0.9474
37609SOL     OW15079   5.466   1.487   0.832 -0.5235 -0.4982  0.6102
37609SOL    HW115080   5.440   1.548   0.902 -2.2148  0.6573 -0.9358
37609SOL    HW215081   5.500   1.411   0.879  2.2864  1.7636  2.6705
37610SOL     OW15082   0.361   5.069   7.060 -0.2590 -0.4050  0.0612
37610SOL    HW115083   0.306   5.029   7.128 -0.4254  0.0349  0.1864
37610SOL    HW215084   0.349   5.163   7.072 -1.0374 -0.3173 -1.1727
37611SOL     OW15085   9.880   4.105   5.313 -0.1665 -0.2060  0.2283
37611SOL    HW115086   9.809   4.166   5.289  0.4249  0.2841 -0.3079
37611SOL    HW215087   9.844   4.055   5.386 -0.3412  1.4195  1.3150
37612SOL     OW15088   1.753   6.783   2.369  0.8380  0.2416  0.0835
37612SOL    HW115089   1.778   6.806   2.280  2.4535  0.4025  0.5512
37612SOL    HW215090   1.820   6.721   2.398  1.1859  1.2954  1.6766
37613SOL     OW15091   6.254   0.566   1.475 -0.3191  0.6762  0.4791
37613SOL    HW115092   6.208   0.573   1.391  1.1226  1.8755 -0.2746
37613SOL    HW215093   6.188   0.587   1.541 -1.1863  0.9430 -0.4477
37614SOL     OW15094  10.117   6.528   8.639  0.4805  0.2876 -0.2024
37614SOL    HW115095  10.147   6.483   8.717 -1.3617  1.6341  1.3751
37614SOL    HW215096  10.132   6.465   8.568  0.4957 -1.7144  1.4801
37615SOL     OW15097   3.989   2.880   3.208 -0.3004  0.2929 -0.4853
37615SOL    HW115098   3.944   2.964   3.202 -0.2189  0.3174 -0.7677
37615SOL    HW215099   3.927   2.817   3.171 -0.3619  0.2275 -0.2725
37616SOL     OW15100   8.469   8.784   9.667 -0.3555  0.6933 -0.4041
37616SOL    HW115101   8.415   8.738   9.731 -0.3585  0.4140 -0.6083
37616SOL    HW215102   8.413   8.793   9.590 -0.9600  2.5335  0.1931
37617SOL     OW15103   4.559  10.546  10.196 -0.9069 -0.3284  0.3101
37617SOL    HW115104   4.540  10.493  10.119 -0.1223 -0.4061  0.1679
37617SOL    HW215105   4.519  10.631  10.177 -0.3633 -0.2168 -0.3614
37618SOL     OW15106   8.222   7.494   4.004 -0.2085  0.1590  0.0615
37618SOL    HW115107   8.131   7.498   4.034 -0.2413 -0.7102  0.0949
37618SOL    HW215108   8.274   7.499   4.084 -0.2428  0.0660  0.0901
37619SOL     OW15109   2.170   7.402   3.874 -0.3097 -0.1351 -0.4926
37619SOL    HW115110   2.156   7.311   3.848  0.0441  0.0679 -1.4284
37619SOL    HW215111   2.221   7.440   3.802  0.5184  0.5071  0.4108
37620SOL     OW15112   1.050   4.387   5.701 -0.0559 -0.0529 -0.0569
37620SOL    HW115113   1.108   4.430   5.764 -0.8730  2.9565 -1.1913
37620SOL    HW215114   1.097   4.393   5.618 -0.5842 -0.6341 -0.4095
37621SOL     OW15115   7.432  10.558   4.053 -0.4841  0.2198  0.1430
37621SOL    HW115116   7.439  10.564   4.148  0.0874  2.7480  0.0268
37621SOL    HW215117   7.394  10.642   4.027 -0.7725 -0.4792 -1.8567
37622SOL     OW15118   7.804   9.073   8.538  0.2919  0.2007  0.4026
37622SOL    HW115119   7.883   9.024   8.512 -0.1166  0.1020 -0.6939
37622SOL    HW215120   7.829   9.117   8.619  0.3508 -2.6706  2.0790
37623SOL     OW15121   7.977  10.092   4.150  0.1590 -0.1466 -0.4497
37623SOL    HW115122   7.888  10.112   4.120  0.8701  2.1020 -1.3275
37623SOL    HW215123   7.988  10.145   4.229  1.0664  0.5466 -1.0144
37624SOL     OW15124   5.332   0.905   8.675  0.0252  0.2469 -0.3624
37624SOL    HW115125   5.256   0.855   8.702  0.5694 -0.0769  0.6175
37624SOL    HW215126   5.350   0.876   8.585 -0.7345  0.0122 -0.4394
37625SOL     OW15127   8.583   1.449   2.343 -0.0561 -0.6939 -0.3738
37625SOL    HW115128   8.604   1.493   2.261  0.0049 -1.3090 -0.6983
37625SOL    HW215129   8.658   1.467   2.399 -0.9490  1.3515  0.2449
37626SOL     OW15130   4.328   1.904  10.523  0.5886  0.3352  0.1439
37626SOL    HW115131   4.390   1.833  10.516  0.2029 -0.0774  0.7960
37626SOL    HW215132   4.380   1.979  10.553  1.1689  0.5965 -1.4596
37627SOL     OW15133   0.553   6.063   2.849  0.0395  0.6374  0.0749
37627SOL    HW115134   0.540   6.155   2.874  1.5337  1.2150 -1.1321
37627SOL    HW215135   0.563   6.065   2.754  1.5196 -0.5830  0.1742
37628SOL     OW15136   4.235   7.381   3.402 -0.0863  0.3101  0.2900
37628SOL    HW115137   4.199   7.334   3.328  0.2120  0.2094  0.2067
37628SOL    HW215138   4.242   7.472   3.372 -0.1731  0.3111  0.2726
37629SOL     OW15139   8.314   0.980   7.640  0.4679 -0.6683  0.0691
37629SOL    HW115140   8.255   0.945   7.706 -0.0838  0.5349  0.2325
37629SOL    HW215141   8.303   0.922   7.565 -3.1973  1.1397 -0.9991
37630SOL     OW15142   8.084   5.463   6.450  0.6387 -0.0249 -0.8367
37630SOL    HW115143   8.060   5.461   6.543  1.4415 -2.3249 -0.6078
37630SOL    HW215144   8.008   5.501   6.406 -1.0314 -1.6921  0.4614
37631SOL     OW15145   5.737   1.592   3.820 -0.3064 -0.4307 -0.4070
37631SOL    HW115146   5.745   1.500   3.793 -0.5717 -0.8969  1.0236
37631SOL    HW215147   5.805   1.638   3.770  0.4712 -1.5701 -0.4339
37632SOL     OW15148   0.880   3.747   0.910 -0.4172 -0.1204  0.1820
37632SOL    HW115149   0.787   3.764   0.924 -0.3356  0.2847  0.2392
37632SOL    HW215150   0.889   3.741   0.815 -0.7426 -1.5657  0.2269
37633SOL     OW15151   9.238  10.455   1.482  0.0704  0.1565 -0.1421
37633SOL    HW115152   9.318  10.457   1.430  0.0309  0.6480 -0.1918
37633SOL    HW215153   9.233  10.543   1.521 -0.2999  0.0402  0.0787
37634SOL     OW15154  10.396   1.880   5.931  0.0335  0.0187  0.2211
37634SOL    HW115155  10.321   1.935   5.908  0.5519  0.2464 -0.9938
37634SOL    HW215156  10.471   1.927   5.894  0.7740 -0.2383  1.3674
37635SOL     OW15157   7.307   8.282   9.362  0.6661  0.5856 -0.4205
37635SOL    HW115158   7.272   8.365   9.394  1.2183  0.6486  0.0485
37635SOL    HW215159   7.371   8.307   9.295  0.3610  0.5061 -0.7439
37636SOL     OW15160   0.868   5.870   4.044 -0.1162  0.0233  0.1415
37636SOL    HW115161   0.867   5.953   3.996  2.1005 -0.1548 -0.3197
37636SOL    HW215162   0.856   5.895   4.135 -2.1111  0.5712 -0.2200
37637SOL     OW15163   9.092   0.333   6.682  0.0647 -0.7514 -0.1997
37637SOL    HW115164   9.178   0.316   6.644 -0.5487 -1.4507 -1.3370
37637SOL    HW215165   9.030   0.304   6.615 -1.0611 -0.3501  0.6337
37638SOL     OW15166   2.813   9.654   2.598 -0.2360  0.1320  0.1205
37638SOL    HW115167   2.792   9.562   2.614  1.5387 -0.2590  0.4507
37638SOL    HW215168   2.800   9.666   2.504  0.3006 -0.6889 -0.0682
37639SOL     OW15169   6.641   0.363   2.801 -0.4091  0.0874 -0.0448
37639SOL    HW115170   6.591   0.443   2.783 -0.0230  0.3855  0.1978
37639SOL    HW215171   6.718   0.370   2.745  0.0214  0.2718  0.5586
37640SOL     OW15172   3.727   7.474   9.107  0.3289  0.0485  0.2114
37640SOL    HW115173   3.778   7.409   9.058  1.3950  2.1440 -1.6470
37640SOL    HW215174   3.704   7.541   9.042 -1.4258  1.1553  1.8540
37641SOL     OW15175   4.378   5.180   7.214  0.1641 -0.8931  0.2706
37641SOL    HW115176   4.384   5.133   7.131 -2.5157 -1.9512  0.5919
37641SOL    HW215177   4.433   5.130   7.275 -0.0234 -1.6949 -0.2112
37642SOL     OW15178   2.162   7.559   1.149 -0.0716 -0.3692  0.6103
37642SOL    HW115179   2.209   7.477   1.167 -0.7562 -0.7560  0.7017
37642SOL    HW215180   2.230   7.623   1.129  0.4165 -1.2820 -0.7687
37643SOL     OW15181   6.414   5.246   8.847 -0.3985  0.4832  0.1476
37643SOL    HW115182   6.501   5.226   8.879 -1.2644 -0.1918  2.2496
37643SOL    HW215183   6.379   5.163   8.816 -0.4442  0.6737 -0.3241
37644SOL     OW15184   6.901   0.112   7.057 -0.1890  0.0052 -0.4249
37644SOL    HW115185   6.912   0.206   7.042  0.4948 -0.0545 -0.3305
37644SOL    HW215186   6.990   0.077   7.057 -0.4071 -0.5692  0.0518
37645SOL     OW15187   4.151   5.221   1.268 -0.1182  0.3143  0.5321
37645SOL    HW115188   4.082   5.286   1.253 -0.6862 -0.2863  0.4536
37645SOL    HW215189   4.187   5.243   1.353  0.2143  1.1874  0.1757
37646SOL     OW15190   3.913   3.935   2.401 -0.6969 -0.1436 -0.5188
37646SOL    HW115191   3.912   3.958   2.494 -1.3715 -0.1550 -0.5165
37646SOL    HW215192   3.925   4.018   2.355 -0.0099 -0.1790 -0.4185
37647SOL     OW15193   8.714   1.044   0.447 -0.0916 -0.0217  0.0945
37647SOL    HW115194   8.802   1.052   0.482 -0.6746 -1.1996  1.9932
37647SOL    HW215195   8.672   1.128   0.468  0.1945  0.0473  0.3963
37648SOL     OW15196   6.655   3.046   9.998  0.3374  0.2855 -0.1625
37648SOL    HW115197   6.691   3.116  10.051 -1.3737  1.0311  0.1029
37648SOL    HW215198   6.688   3.062   9.910  2.3788 -0.3717  0.4439
37649SOL     OW15199   1.116   3.681   1.782 -0.6483 -0.0171 -0.0089
37649SOL    HW115200   1.072   3.679   1.697  0.1350 -0.0386 -0.4255
37649SOL    HW215201   1.178   3.755   1.775  0.4705 -0.9254 -0.0059
37650SOL     OW15202   2.659   4.156   4.595  0.3551  0.8262  0.5324
37650SOL    HW115203   2.732   4.147   4.534 -0.0066  0.3306  0.1660
37650SOL    HW215204   2.590   4.200   4.544  0.8536  2.5317  1.2656
37651SOL     OW15205   8.463   2.280   6.488  0.1430 -0.4341 -0.2907
37651SOL    HW115206   8.441   2.252   6.399  1.3814 -0.1483 -0.7019
37651SOL    HW215207   8.553   2.312   6.482 -0.6744  2.2535  0.4671
37652SOL     OW15208   7.413   7.123   5.512 -0.1326 -0.4287  0.4191
37652SOL    HW115209   7.493   7.174   5.528 -0.5508 -0.2730  2.2533
37652SOL    HW215210   7.368   7.170   5.442  0.3723  0.7096  0.8260
37653SOL     OW15211   4.774   0.482  10.359  0.6058 -0.0105 -0.0403
37653SOL    HW115212   4.820   0.398  10.358  2.2706  0.8423 -0.6440
37653SOL    HW215213   4.811   0.529  10.284 -1.5394  0.6280 -0.7524
37654SOL     OW15214   3.732   7.206   9.661  0.5265 -0.0388  0.2603
37654SOL    HW115215   3.670   7.267   9.622 -0.3869 -1.2514 -0.2461
37654SOL    HW215216   3.678   7.142   9.707  1.4404 -0.6446  0.5310
37655SOL     OW15217   1.603   0.218   4.461  0.0630  0.9466  0.1195
37655SOL    HW115218   1.554   0.300   4.458  0.2450  1.0527  0.0355
37655SOL    HW215219   1.679   0.234   4.405 -0.7869  0.1511 -1.3168
37656SOL     OW15220   3.718   7.374   7.734 -0.3482  0.1748  0.6016
37656SOL    HW115221   3.803   7.415   7.750 -0.5809  0.7363  0.4184
37656SOL    HW215222   3.716   7.299   7.793  1.6306 -1.8042 -1.6057
37657SOL     OW15223   2.831   9.240   9.525  0.3846  0.2887 -0.0303
37657SOL    HW115224   2.824   9.320   9.578  0.1378  0.6037 -0.5256
37657SOL    HW215225   2.890   9.264   9.454  0.6663 -0.1132  0.0638
37658SOL     OW15226   9.815   9.560  10.387  0.5458 -0.1590 -0.1080
37658SOL    HW115227   9.875   9.631  10.405  1.1153 -0.6415 -0.0870
37658SOL    HW215228   9.829   9.538  10.294 -1.1477  1.1635 -0.7399
37659SOL     OW15229   9.952   6.597   3.329 -0.4444 -0.0293  0.0871
37659SOL    HW115230  10.018   6.650   3.374 -0.0572  0.5909 -1.1829
37659SOL    HW215231   9.980   6.507   3.344 -0.5771  0.1267  1.4507
37660SOL     OW15232   3.714   8.581   0.754  0.0196  0.1754  0.3925
37660SOL    HW115233   3.809   8.589   0.758  0.1344 -1.1862  1.1716
37660SOL    HW215234   3.684   8.662   0.713  1.5213  0.5498 -0.0128
37661SOL     OW15235   9.696   9.022   4.912  0.2732 -0.0596  0.2692
37661SOL    HW115236   9.631   9.023   4.982 -0.6000  0.3661 -0.5276
37661SOL    HW215237   9.678   8.940   4.865  1.2657 -0.6587  0.8930
37662SOL     OW15238   8.439   8.826   1.497 -0.0538  0.0233  0.7959
37662SOL    HW115239   8.397   8.766   1.558 -0.9763  1.0784  1.2497
37662SOL    HW215240   8.404   8.802   1.412  0.6552 -0.9636  0.7684
37663SOL     OW15241   9.805   6.724   7.643 -0.0644 -0.1525  0.1532
37663SOL    HW115242   9.888   6.685   7.615 -1.2104 -2.8086  0.1386
37663SOL    HW215243   9.801   6.707   7.737 -0.5084  0.1450  0.1933
37664SOL     OW15244   5.222   9.181   2.550  0.0089  0.2590  0.0748
37664SOL    HW115245   5.177   9.212   2.471 -1.1400  2.5218  1.5549
37664SOL    HW215246   5.315   9.195   2.531 -0.0546 -1.0446 -1.5628
37665SOL     OW15247   6.600   5.610  10.505 -1.0040 -0.3299  0.2283
37665SOL    HW115248   6.627   5.701  10.518 -1.9859  0.4630 -2.5874
37665SOL    HW215249   6.535   5.614  10.434 -0.3465 -3.3214 -0.6901
37666SOL     OW15250   1.555  10.467   9.585 -0.0596  0.2061  0.3247
37666SOL    HW115251   1.480  10.408   9.578 -2.2058  2.6552  1.1247
37666SOL    HW215252   1.569  10.500   9.497  0.6316 -0.8363  0.0270
37667SOL     OW15253   3.903   0.230   9.616 -0.4888 -0.0342 -0.0807
37667SOL    HW115254   3.857   0.213   9.699 -0.1665 -0.0404  0.0991
37667SOL    HW215255   3.974   0.289   9.640 -0.2941 -0.1686 -0.3241
37668SOL     OW15256   1.863   8.260   0.816  0.6615 -0.4019 -0.2117
37668SOL    HW115257   1.877   8.223   0.903 -0.9929  0.9660  0.7045
37668SOL    HW215258   1.900   8.348   0.820  0.2467 -0.1921 -0.7690
37669SOL     OW15259   5.032  10.612   5.351  0.2003  0.1896 -0.2356
37669SOL    HW115260   5.064  10.691   5.307  1.0535 -0.1381 -0.2243
37669SOL    HW215261   5.067  10.539   5.299 -2.2105 -0.2304 -1.4187
37670SOL     OW15262   6.514   2.804   2.166  0.6247 -0.4440  0.1838
37670SOL    HW115263   6.569   2.808   2.088  0.3048 -2.3739 -0.1683
37670SOL    HW215264   6.432   2.765   2.136 -0.7334  1.7148  0.8535
37671SOL     OW15265   8.085   6.791   4.788 -0.0042 -0.3278 -0.1083
37671SOL    HW115266   8.024   6.858   4.820 -0.2368  0.2659 -1.6591
37671SOL    HW215267   8.029   6.720   4.756 -0.0839  0.8683 -2.9695
37672SOL     OW15268   7.878   9.777   3.057 -0.1111 -0.0547 -0.4747
37672SOL    HW115269   7.876   9.706   2.993 -0.2921 -1.7502  1.2994
37672SOL    HW215270   7.958   9.825   3.038  2.2540 -3.2166  0.6806
37673SOL     OW15271   4.670   1.869   7.663 -0.6266 -1.3317  0.3152
37673SOL    HW115272   4.761   1.869   7.693 -0.4952  0.3714  0.0455
37673SOL    HW215273   4.618   1.847   7.740 -0.2169  1.6690  1.5885
37674SOL     OW15274  10.490  10.180   1.668 -0.3513 -0.2021 -0.1553
37674SOL    HW115275  10.396  10.198   1.664 -0.3297  0.2236  0.8714
37674SOL    HW215276  10.529  10.246   1.610 -0.6556 -0.2177 -0.3840
37675SOL     OW15277   5.851   1.705   9.406  0.7091  0.5089  0.2769
37675SOL    HW115278   5.919   1.765   9.437  1.4531  0.9838 -2.0495
37675SOL    HW215279   5.804   1.755   9.339 -0.6045 -0.5096  0.4074
37676SOL     OW15280   1.356   1.576   9.721  0.2345 -0.0398  0.0899
37676SOL    HW115281   1.399   1.651   9.681 -0.0520  0.6559  1.0485
37676SOL    HW215282   1.358   1.593   9.815 -1.0883 -0.5371  0.2458
37677SOL     OW15283   8.096   6.229   3.701 -0.2139  0.5218  0.2293
37677SOL    HW115284   8.118   6.169   3.630 -1.0579  0.4481  0.0228
37677SOL    HW215285   8.080   6.172   3.777  2.2974  0.6769  0.9541
37678SOL     OW15286   0.119   6.190   4.009  0.3046  0.4176  0.7759
37678SOL    HW115287   0.102   6.109   3.961 -0.8565  1.0052  0.1476
37678SOL    HW215288   0.133   6.162   4.099  1.0467 -0.5705  0.3749
37679SOL     OW15289   1.785  10.514   6.200  0.0421 -0.2310  0.0523
37679SOL    HW115290   1.696  10.491   6.174  0.6595 -0.4688 -2.0627
37679SOL    HW215291   1.835  10.433   6.188  0.5167 -0.1588  1.4219
37680SOL     OW15292   5.995   7.528   5.325 -0.5601  0.2362  0.7057
37680SOL    HW115293   5.910   7.522   5.370 -0.9365  1.5855  0.2156
37680SOL    HW215294   5.975   7.572   5.243  0.4652 -0.3692  0.1231
37681SOL     OW15295   1.223   9.711   7.216 -0.4314  0.2407 -0.3303
37681SOL    HW115296   1.211   9.721   7.310 -0.7118  2.0996 -0.5226
37681SOL    HW215297   1.135   9.696   7.182 -0.3816 -0.0218 -0.3467
37682SOL     OW15298   6.480   6.721   5.915  0.6025  0.0902 -0.3783
37682SOL    HW115299   6.440   6.737   6.001  1.1073  2.1563 -0.4812
37682SOL    HW215300   6.565   6.765   5.920  1.5365 -1.5194 -1.2664
37683SOL     OW15301   7.797   1.264   5.238  0.1481  0.4529  0.1744
37683SOL    HW115302   7.851   1.326   5.189 -0.4577 -0.3935 -1.6668
37683SOL    HW215303   7.808   1.181   5.191 -1.4075 -0.1240  0.7758
37684SOL     OW15304   5.178  10.466   9.597 -0.0391 -0.5954 -0.1061
37684SOL    HW115305   5.155  10.539   9.540 -1.5641 -1.3115 -0.4708
37684SOL    HW215306   5.203  10.396   9.538  0.1275 -0.7769  0.1787
37685SOL     OW15307   1.092   8.537   5.737  0.4411 -0.3050 -0.4459
37685SOL    HW115308   1.042   8.605   5.691  1.0219 -0.0793 -0.7542
37685SOL    HW215309   1.085   8.560   5.829  0.2498 -0.0865 -0.5153
37686SOL     OW15310   9.332   0.512   2.596 -0.2118  0.5445 -0.1276
37686SOL    HW115311   9.404   0.452   2.574  0.2709  0.0927  2.4313
37686SOL    HW215312   9.375   0.595   2.616 -0.5239  0.6190  0.2329
37687SOL     OW15313   2.881   8.978  10.162  0.1667  0.3690  0.2446
37687SOL    HW115314   2.818   8.917  10.200 -0.1317  0.6171  0.1558
37687SOL    HW215315   2.877   8.961  10.068  0.2281  0.3899  0.2380
37688SOL     OW15316   0.567   4.608   6.828  0.2740 -0.5774  0.5560
37688SOL    HW115317   0.656   4.590   6.858  0.7595 -1.0196 -1.0519
37688SOL    HW215318   0.551   4.699   6.851  2.1481  0.3255 -1.4232
37689SOL     OW15319   0.772   8.258   0.607  0.3459  0.1584  0.1902
37689SOL    HW115320   0.708   8.293   0.545 -0.7004 -3.0788 -0.7565
37689SOL    HW215321   0.819   8.191   0.557  1.9681 -0.0921  1.9396
37690SOL     OW15322   8.073   2.387   1.369 -0.5213 -0.2532 -0.1734
37690SOL    HW115323   8.013   2.313   1.366 -0.5854 -0.2014 -0.1820
37690SOL    HW215324   8.024   2.455   1.415 -0.0597 -0.5720  0.8065
37691SOL     OW15325   4.383   6.869  10.560  0.5124 -0.2855  0.4019
37691SOL    HW115326   4.313   6.897  10.500 -0.2010 -1.5735  0.5979
37691SOL    HW215327   4.341   6.869  10.646  1.8324  2.6717  1.1688
37692SOL     OW15328   5.248   3.973   2.613 -0.0189 -0.4421 -0.2889
37692SOL    HW115329   5.206   4.013   2.538 -0.9084  2.2050  1.4952
37692SOL    HW215330   5.187   3.904   2.641  0.9060 -2.3574 -2.5902
37693SOL     OW15331   1.584   7.251   7.576  0.1435  0.0629 -0.3910
37693SOL    HW115332   1.612   7.233   7.665  1.3294 -0.4664 -0.8558
37693SOL    HW215333   1.546   7.168   7.545 -1.1706  0.5175 -0.0725
37694SOL     OW15334  10.009   6.733  10.291  0.3019 -0.0014 -0.3456
37694SOL    HW115335  10.091   6.752  10.245  1.0530  1.1971  1.3887
37694SOL    HW215336   9.981   6.648  10.256  3.4054 -1.5174  0.4871
37695SOL     OW15337   2.583   6.516   5.577  0.1405  0.2006 -0.1181
37695SOL    HW115338   2.675   6.489   5.582  0.0257 -0.3830 -0.9593
37695SOL    HW215339   2.577   6.565   5.496 -0.5728 -0.9506 -0.7975
37696SOL     OW15340   0.652   3.223   4.294  0.6047 -0.5179  0.0992
37696SOL    HW115341   0.700   3.215   4.212 -0.9254 -0.4940 -0.8248
37696SOL    HW215342   0.701   3.289   4.344  0.7596  0.5126 -1.3712
37697SOL     OW15343   6.024   4.213   0.843  0.3166  0.4649  0.6549
37697SOL    HW115344   6.099   4.193   0.898 -1.2765 -3.4791  1.7482
37697SOL    HW215345   6.045   4.177   0.757 -0.7465 -1.9999  1.3525
37698SOL     OW15346   7.909   9.599   0.701  0.1620  0.0939 -0.3841
37698SOL    HW115347   7.925   9.613   0.794 -2.5884  1.2113  0.0387
37698SOL    HW215348   7.867   9.513   0.696 -1.4879  0.8441 -0.2561
37699SOL     OW15349   4.838   5.155   2.006  0.6015 -0.3308  0.3884
37699SOL    HW115350   4.911   5.094   1.997  0.7828 -0.0425 -0.1571
37699SOL    HW215351   4.877   5.241   1.993  0.3962 -0.0729  1.4535
37700SOL     OW15352   7.983   5.984   6.903  0.8176  0.1003 -0.3581
37700SOL    HW115353   7.997   5.931   6.825  0.0288  0.5387 -0.8041
37700SOL    HW215354   8.072   6.001   6.936  1.3370  1.6271 -2.3145
37701SOL     OW15355   5.169   8.531   5.374 -0.2470 -0.1695 -0.1147
37701SOL    HW115356   5.176   8.574   5.459  0.0252 -0.5681  0.0715
37701SOL    HW215357   5.260   8.526   5.343 -0.4638  1.0398 -0.9710
37702SOL     OW15358   6.477   0.802   6.939 -0.2110  0.0998  0.4904
37702SOL    HW115359   6.479   0.865   7.010  2.8852  1.1095 -0.3332
37702SOL    HW215360   6.523   0.845   6.867 -1.4899 -1.6202 -1.4860
37703SOL     OW15361   8.890   5.780   3.580 -0.3765  0.2567 -0.5462
37703SOL    HW115362   8.982   5.802   3.593 -0.7632  0.7595  1.6158
37703SOL    HW215363   8.891   5.694   3.537  1.0852  0.6598 -1.3517
37704SOL     OW15364   4.609   2.629   5.455  0.1617  0.3916 -0.6782
37704SOL    HW115365   4.654   2.705   5.417 -0.1981  0.9402 -0.0313
37704SOL    HW215366   4.557   2.594   5.383  1.2898 -0.0083 -1.3317
37705SOL     OW15367   8.135   8.699   5.494  0.0841 -0.1430 -0.4026
37705SOL    HW115368   8.136   8.679   5.400  0.7310  0.3185 -0.4973
37705SOL    HW215369   8.146   8.794   5.499  3.4810 -0.4533  0.2015
37706SOL     OW15370   3.767   6.420   2.454 -0.2115 -0.1186  0.1617
37706SOL    HW115371   3.799   6.343   2.500 -2.1273 -0.5839  0.7685
37706SOL    HW215372   3.743   6.388   2.367  0.0180  0.0415  0.0355
37707SOL     OW15373   4.646   7.413   9.821  0.4899 -0.2404  0.2384
37707SOL    HW115374   4.563   7.428   9.775  0.4397 -3.1734 -0.8636
37707SOL    HW215375   4.683   7.335   9.778  2.8315 -0.2404  2.0605
37708SOL     OW15376   8.572   2.122   6.723  0.4281 -0.2545  0.1492
37708SOL    HW115377   8.503   2.142   6.786  1.4680 -0.7131  1.5007
37708SOL    HW215378   8.547   2.168   6.644 -1.1847 -0.0457  0.7427
37709SOL     OW15379   2.916   7.243   8.928 -0.5028 -0.2662 -0.6786
37709SOL    HW115380   2.844   7.277   8.981 -0.8979  0.9305 -1.9666
37709SOL    HW215381   2.918   7.297   8.850  1.2308 -0.8527 -1.0963
37710SOL     OW15382   6.681   0.588   9.429  0.7143 -0.6846  0.1500
37710SOL    HW115383   6.758   0.537   9.404  2.6114  1.7037  0.7567
37710SOL    HW215384   6.708   0.679   9.418 -1.3306  0.2905  2.3630
37711SOL     OW15385   1.731  10.134   0.745  0.0197 -0.3803  0.1324
37711SOL    HW115386   1.806  10.188   0.719 -1.9227  1.5174 -1.9134
37711SOL    HW215387   1.702  10.172   0.828 -0.7317  1.1935 -0.8075
37712SOL     OW15388   6.221  10.501   4.924 -0.4797 -0.0493  0.3550
37712SOL    HW115389   6.198  10.587   4.960  1.8020 -0.2812  2.6207
37712SOL    HW215390   6.302  10.515   4.875 -0.1591 -0.8684  0.6234
37713SOL     OW15391   9.365   6.409   6.146 -0.2262  0.5321  0.1848
37713SOL    HW115392   9.410   6.329   6.119 -0.3756  0.8447 -1.0447
37713SOL    HW215393   9.423   6.448   6.211  0.1943 -0.2054  0.2705
37714SOL     OW15394   5.662   8.618   1.327  0.6825  0.7005  0.1644
37714SOL    HW115395   5.755   8.599   1.336  0.6013  0.2279  0.0420
37714SOL    HW215396   5.629   8.624   1.417  0.6598 -0.0197  0.2112
37715SOL     OW15397   5.726   9.600   5.867  0.3306 -0.5961 -0.8895
37715SOL    HW115398   5.776   9.531   5.823  2.1275  0.2235 -0.2684
37715SOL    HW215399   5.747   9.680   5.818  0.0527 -0.1459 -0.2897
37716SOL     OW15400   4.370   4.376  10.282  0.4013  0.0491 -0.0458
37716SOL    HW115401   4.327   4.363  10.367 -0.1382 -0.8427 -0.4394
37716SOL    HW215402   4.460   4.346  10.296  0.7639  1.3729  0.6242
37717SOL     OW15403   8.942   7.814   5.218  0.2253  0.2644 -0.1825
37717SOL    HW115404   8.965   7.867   5.295 -3.5416  1.7351  0.1445
37717SOL    HW215405   8.954   7.872   5.144  0.0106  0.1923 -0.2736
37718SOL     OW15406   0.604   3.713   8.850 -0.0068 -0.4922  0.4034
37718SOL    HW115407   0.577   3.803   8.830 -2.0717 -1.1082  0.0847
37718SOL    HW215408   0.529   3.677   8.898  0.8184 -2.0132  0.5935
37719SOL     OW15409   4.093   2.265   7.417 -0.5285  0.6549  0.0914
37719SOL    HW115410   4.033   2.217   7.473  0.1538  0.2625  0.5029
37719SOL    HW215411   4.179   2.228   7.437 -0.2840  0.4377 -1.2851
37720SOL     OW15412   7.079   4.480   2.287 -0.6067 -0.2843  0.0589
37720SOL    HW115413   7.131   4.557   2.263  0.7286 -1.3080 -0.4373
37720SOL    HW215414   7.099   4.465   2.379  0.8830 -1.3290 -0.4114
37721SOL     OW15415   8.872   7.154   1.213 -0.5027  0.1330 -0.3138
37721SOL    HW115416   8.921   7.227   1.251 -0.4163  0.7923 -1.6345
37721SOL    HW215417   8.851   7.098   1.288  0.4031  0.9306  0.5740
37722SOL     OW15418   3.261   8.577   6.915 -0.0398  0.0189  0.1431
37722SOL    HW115419   3.330   8.609   6.857  1.1982 -1.1190  0.9360
37722SOL    HW215420   3.227   8.499   6.871  0.7709 -0.7355  0.8143
37723SOL     OW15421   3.037  10.089   5.982  0.7289  0.0591 -0.0881
37723SOL    HW115422   2.998  10.008   5.948  0.4518  0.2539 -0.2400
37723SOL    HW215423   3.021  10.154   5.914  2.8799 -0.2461 -0.9766
37724SOL     OW15424   9.765   6.252   7.456 -0.3567 -0.1629  0.0245
37724SOL    HW115425   9.685   6.301   7.472 -0.6465 -0.0550 -1.5487
37724SOL    HW215426   9.776   6.254   7.361  1.6036 -0.0544  0.1969
37725SOL     OW15427   6.379  10.625   5.986  0.1501 -0.1846  0.4295
37725SOL    HW115428   6.375  10.530   5.997  1.0396 -0.3505 -0.5540
37725SOL    HW215429   6.472  10.645   5.978 -0.1122  0.4160 -1.9832
37726SOL     OW15430   2.360   7.209  10.231  0.3137  0.0670 -0.1580
37726SOL    HW115431   2.380   7.128  10.185  1.9624  0.7743 -0.7519
37726SOL    HW215432   2.439   7.230  10.280  0.0721  1.5003 -0.3188
37727SOL     OW15433   0.770   9.989   0.729 -0.4072  0.2976  0.2366
37727SOL    HW115434   0.691   9.991   0.783 -0.4996  0.1638  0.1084
37727SOL    HW215435   0.741  10.021   0.643 -0.3100  0.3024  0.2061
37728SOL     OW15436   6.648   4.161   7.592  0.2985  0.0849  0.2806
37728SOL    HW115437   6.698   4.102   7.648  1.0622 -1.4849 -1.8911
37728SOL    HW215438   6.560   4.161   7.630  1.1004  0.2738  2.2718
37729SOL     OW15439   1.528  10.428   4.983  0.5472  0.0448  0.3756
37729SOL    HW115440   1.583  10.384   4.918  0.5833 -1.1147  1.1730
37729SOL    HW215441   1.458  10.366   5.002 -0.0088  0.7641  0.7368
37730SOL     OW15442   4.752   5.484   2.399 -0.2915 -0.7322 -0.0673
37730SOL    HW115443   4.704   5.558   2.364 -0.9728  0.1886  2.5587
37730SOL    HW215444   4.804   5.521   2.470  1.6775 -2.3043 -0.5917
37731SOL     OW15445   0.025   8.261   1.839  0.0162  0.2399 -0.3146
37731SOL    HW115446   0.064   8.186   1.883  1.0737 -0.4410 -2.2858
37731SOL    HW215447   0.094   8.294   1.782 -1.7679 -0.0921 -2.8416
37732SOL     OW15448   7.095   5.092   1.574 -0.1082 -0.3500  0.7296
37732SOL    HW115449   7.075   5.152   1.646 -1.0060  0.6904 -0.3371
37732SOL    HW215450   7.186   5.111   1.552 -0.4142  0.7423  0.3284
37733SOL     OW15451   9.586   1.120   0.912  0.2392 -0.3630  0.0368
37733SOL    HW115452   9.672   1.107   0.872  0.6908  0.5142  0.6601
37733SOL    HW215453   9.564   1.211   0.892 -1.1914 -0.9629 -1.2758
37734SOL     OW15454   5.771   5.337   3.448 -0.2174 -0.9470  0.1091
37734SOL    HW115455   5.852   5.294   3.474  1.4212 -0.0745 -3.0006
37734SOL    HW215456   5.781   5.428   3.478 -1.1315 -1.3415  1.7091
37735SOL     OW15457   1.739   4.515  10.347  0.0499  0.3930 -0.5120
37735SOL    HW115458   1.695   4.430  10.351  1.4215 -0.3260  2.8705
37735SOL    HW215459   1.685   4.571  10.403  1.5703  0.3854  1.0426
37736SOL     OW15460   3.322   6.521   8.344  0.5633  0.3835 -0.2338
37736SOL    HW115461   3.335   6.598   8.400 -0.1630  0.6468 -0.4083
37736SOL    HW215462   3.380   6.454   8.381  0.6254  0.7731  0.4006
37737SOL     OW15463   4.323  10.642   5.752 -0.2074  0.6872 -0.5262
37737SOL    HW115464   4.392  10.707   5.739 -0.8366  1.4556 -0.1289
37737SOL    HW215465   4.251  10.673   5.698 -0.7819  0.7495  0.2577
37738SOL     OW15466   2.973   4.536   0.376  0.1097 -0.0191  0.0735
37738SOL    HW115467   3.043   4.535   0.311  1.7698  0.4843  1.7663
37738SOL    HW215468   2.897   4.570   0.329  1.0194 -0.4734 -1.7964
37739SOL     OW15469   4.305   8.542   0.288  0.3327  0.0798  0.5370
37739SOL    HW115470   4.251   8.499   0.355  1.8004 -1.8416  0.5372
37739SOL    HW215471   4.276   8.634   0.290 -3.1799 -0.8899  0.2565
37740SOL     OW15472   7.107   2.570   8.541 -0.9693 -0.4038  0.0272
37740SOL    HW115473   7.020   2.545   8.511 -0.9483 -0.1536 -0.2387
37740SOL    HW215474   7.115   2.663   8.519 -0.0883 -0.7572 -1.2478
37741SOL     OW15475   6.670   4.467   4.265  0.3629  0.0188 -0.5641
37741SOL    HW115476   6.712   4.409   4.329  1.1101 -0.0812 -1.1353
37741SOL    HW215477   6.685   4.555   4.300 -1.6164 -0.1236  0.8159
37742SOL     OW15478   5.160   5.747   6.404  0.1110  0.6667  0.5982
37742SOL    HW115479   5.158   5.828   6.455  0.1154  0.2016  1.3626
37742SOL    HW215480   5.160   5.677   6.470 -1.2782  0.0115 -0.0608
37743SOL     OW15481   2.733   4.322   2.653 -0.0360  0.4008 -0.1623
37743SOL    HW115482   2.710   4.380   2.580  0.7353  0.1949 -0.5862
37743SOL    HW215483   2.829   4.327   2.658 -0.0964  0.5731  0.9881
37744SOL     OW15484   6.814   9.044   9.296  0.2446 -0.6255  0.4774
37744SOL    HW115485   6.856   9.021   9.212 -0.6686  0.9409 -0.4476
37744SOL    HW215486   6.843   9.133   9.313 -2.2107  0.3210  0.0771
37745SOL     OW15487   3.104   8.666   0.702 -0.0742  0.7732 -0.0346
37745SOL    HW115488   3.171   8.601   0.719 -1.2810 -0.6003 -0.3174
37745SOL    HW215489   3.109   8.682   0.607 -0.7170 -0.0132 -0.2119
37746SOL     OW15490   6.257   2.017   3.818  0.2799  0.2953 -0.0478
37746SOL    HW115491   6.298   2.094   3.857  0.1787  0.5312 -0.4000
37746SOL    HW215492   6.168   2.017   3.852 -0.3330  1.4466 -1.5497
37747SOL     OW15493   4.503   3.364   7.219  0.0073 -0.1751 -0.2335
37747SOL    HW115494   4.488   3.281   7.265 -0.0610  0.0833  0.2155
37747SOL    HW215495   4.502   3.430   7.288  0.0445  0.2030 -0.5921
37748SOL     OW15496   3.348   1.205   8.283  0.3253  0.1792 -0.5854
37748SOL    HW115497   3.283   1.161   8.228 -0.9413  1.5014 -0.2079
37748SOL    HW215498   3.379   1.277   8.229  1.8080 -0.6658 -0.9070
37749SOL     OW15499   0.069   8.243   3.168 -0.2421 -0.7988 -0.7409
37749SOL    HW115500   0.084   8.310   3.101 -1.4314 -0.9703 -1.1924
37749SOL    HW215501   0.155   8.202   3.180  0.5829  0.9222 -0.2969
37750SOL     OW15502   2.709   8.393   9.059 -0.5203 -0.3390  0.3585
37750SOL    HW115503   2.620   8.358   9.060 -1.2951  1.5170 -0.1443
37750SOL    HW215504   2.700   8.481   9.095  0.6897  0.8013 -1.9808
37751SOL     OW15505   9.837   2.193   5.421  0.2176 -0.1543  0.3848
37751SOL    HW115506   9.808   2.284   5.425  0.9392  0.1934 -1.2332
37751SOL    HW215507   9.839   2.174   5.327 -0.7775 -2.1362  0.7267
37752SOL     OW15508   2.758   2.228   5.569 -0.3549  0.3025  0.4808
37752SOL    HW115509   2.823   2.259   5.632 -0.9370  1.4944  0.5104
37752SOL    HW215510   2.675   2.266   5.598 -1.0373 -0.9819  0.2885
37753SOL     OW15511   6.461   5.279   5.631 -0.1824  0.3417 -0.1939
37753SOL    HW115512   6.517   5.248   5.561  0.6523  1.0586  0.1319
37753SOL    HW215513   6.476   5.218   5.703  0.5620  0.8099  0.0557
37754SOL     OW15514   6.322   2.678   7.144 -0.2708 -0.0441 -0.8826
37754SOL    HW115515   6.402   2.659   7.095 -0.1535  0.2492 -0.8062
37754SOL    HW215516   6.251   2.659   7.083 -0.2040 -1.7807 -0.4717
37755SOL     OW15517   9.466   8.501   5.282  0.6107  0.0925  0.0767
37755SOL    HW115518   9.543   8.544   5.318  0.2329 -1.2966  2.8207
37755SOL    HW215519   9.393   8.558   5.307  0.4555 -0.2810  0.4922
37756SOL     OW15520   8.551   6.915   8.470 -0.1652 -0.4966  0.4125
37756SOL    HW115521   8.464   6.946   8.494 -0.5888  0.2474 -1.8335
37756SOL    HW215522   8.599   6.910   8.553 -2.4775 -1.5039  1.7762
37757SOL     OW15523   1.837   6.651   6.303 -0.3475 -0.2805  0.1305
37757SOL    HW115524   1.827   6.732   6.253 -1.5987 -0.7136 -0.3574
37757SOL    HW215525   1.931   6.636   6.306 -0.0486  1.4497  0.6538
37758SOL     OW15526   5.568   8.332   1.664  0.4017 -0.8898 -0.0987
37758SOL    HW115527   5.523   8.254   1.631 -0.6483  0.0366 -0.9413
37758SOL    HW215528   5.557   8.327   1.759 -2.9415  0.0508 -0.2970
37759SOL     OW15529   7.682   9.484   7.258  0.5388 -0.1205  0.3754
37759SOL    HW115530   7.690   9.464   7.351  0.6206  1.4792  0.7424
37759SOL    HW215531   7.625   9.415   7.224  1.2519 -1.2599  1.4084
37760SOL     OW15532   5.696   4.045   0.951 -0.5219  0.2395  0.0151
37760SOL    HW115533   5.763   4.104   0.985 -0.0032 -0.5900  0.4805
37760SOL    HW215534   5.613   4.088   0.972 -0.1707  0.5060  0.8966
37761SOL     OW15535   2.058   1.687   4.495  0.3244 -0.1116  0.2369
37761SOL    HW115536   2.040   1.737   4.415  0.4527 -1.1946 -0.4948
37761SOL    HW215537   2.049   1.750   4.566 -2.9166  0.2234 -0.3275
37762SOL     OW15538   9.253   5.098   0.165 -0.6548 -0.3197  0.5048
37762SOL    HW115539   9.320   5.163   0.183  0.4951 -1.0101 -1.0338
37762SOL    HW215540   9.192   5.105   0.238  0.2545  1.4025  1.1503
37763SOL     OW15541   0.039   4.897   7.994 -0.7467 -0.0050  0.0705
37763SOL    HW115542   0.060   4.809   7.962 -1.2006  0.5577 -1.9398
37763SOL    HW215543  -0.056   4.900   7.996 -0.7457 -0.0747  1.7844
37764SOL     OW15544   9.149   9.409   1.537  0.1987 -0.5322 -0.2632
37764SOL    HW115545   9.224   9.443   1.586 -0.2510 -0.0973  0.1148
37764SOL    HW215546   9.174   9.318   1.517  0.9124 -0.3323 -0.3112
37765SOL     OW15547   8.593   5.608   0.495 -0.2815  0.5711  0.0025
37765SOL    HW115548   8.532   5.583   0.565  1.4602 -1.0712  1.0305
37765SOL    HW215549   8.578   5.544   0.426  0.7879 -0.3651  0.6022
37766SOL     OW15550  10.209   6.880   3.710 -0.2674 -0.0174  0.0818
37766SOL    HW115551  10.298   6.913   3.723  0.0108 -0.1615 -1.2715
37766SOL    HW215552  10.155   6.959   3.706 -0.1393  0.0922  0.4736
37767SOL     OW15553   6.441  10.206   4.732 -0.0263  0.0170  0.2722
37767SOL    HW115554   6.356  10.191   4.771 -0.8837 -0.3836 -1.6356
37767SOL    HW215555   6.457  10.129   4.677  1.3116  0.3354  0.1723
37768SOL     OW15556   0.141   9.909   5.541  0.2194  0.6380 -0.1088
37768SOL    HW115557   0.173   9.863   5.464 -0.4424  1.2891 -0.7875
37768SOL    HW215558   0.206   9.891   5.609  1.0846  0.4802 -0.9606
37769SOL     OW15559   2.262   9.239   2.247  0.0964  0.1249 -0.2750
37769SOL    HW115560   2.287   9.219   2.156  0.1106  2.7419 -0.9168
37769SOL    HW215561   2.304   9.323   2.266  0.2561 -0.4462  2.2704
37770SOL     OW15562   9.139   6.432   1.117  0.3758  0.3690 -0.1028
37770SOL    HW115563   9.088   6.412   1.038 -0.8892 -1.6806  1.1620
37770SOL    HW215564   9.150   6.527   1.114  0.1953  0.3882 -2.6173
37771SOL     OW15565   2.389  10.139   5.850  0.6429  0.0402  0.2875
37771SOL    HW115566   2.410  10.106   5.937 -0.1831  1.1812  0.9609
37771SOL    HW215567   2.408  10.233   5.855  2.2749 -0.1440 -1.3355
37772SOL     OW15568   6.073   9.508   8.380  0.5934  0.3404  0.3666
37772SOL    HW115569   6.052   9.537   8.468 -1.9327 -0.9878  0.3051
37772SOL    HW215570   6.156   9.461   8.389 -0.5315 -1.4359  2.4842
37773SOL     OW15571   9.652   2.523   8.905 -0.5513  0.5359  0.8678
37773SOL    HW115572   9.589   2.582   8.862  1.8920  1.8847 -1.1600
37773SOL    HW215573   9.655   2.553   8.996 -0.9390  2.1995  0.3668
37774SOL     OW15574   5.279   4.822   2.984  0.1713 -0.1127 -0.0732
37774SOL    HW115575   5.277   4.790   3.074  3.5487  0.9126  0.5059
37774SOL    HW215576   5.279   4.743   2.930 -0.0717 -0.7951  0.9069
37775SOL     OW15577   5.216   2.083   4.559  0.0080 -0.1995  0.3744
37775SOL    HW115578   5.164   2.158   4.590  1.5945  1.8241 -1.5079
37775SOL    HW215579   5.293   2.082   4.616 -0.2544 -0.7723  0.7304
37776SOL     OW15580   6.355   3.967   9.371  0.1924  0.2555  0.0529
37776SOL    HW115581   6.338   4.044   9.316 -0.8566  0.1165  0.1706
37776SOL    HW215582   6.346   3.999   9.460  0.8399  0.2337  0.1338
37777SOL     OW15583   8.700   8.456   2.696 -0.0539  0.3598 -0.2473
37777SOL    HW115584   8.753   8.494   2.766  0.8417  2.0083 -1.7528
37777SOL    HW215585   8.731   8.499   2.616  0.3202 -2.8298 -1.9814
37778SOL     OW15586   6.069   6.411   6.340  0.1936  0.4744 -0.3264
37778SOL    HW115587   6.000   6.350   6.316 -0.7084  1.3944 -0.1253
37778SOL    HW215588   6.111   6.434   6.257 -0.3232  0.5978 -0.5557
37779SOL     OW15589   7.626   5.339   4.653 -0.2913 -0.0359  0.1219
37779SOL    HW115590   7.685   5.336   4.577  0.5594  2.6278  0.5552
37779SOL    HW215591   7.680   5.376   4.723 -1.4761 -1.0697  1.6230
37780SOL     OW15592   8.990   3.160   9.061  0.2274  0.4277  0.2526
37780SOL    HW115593   8.911   3.214   9.055  0.2560  0.4360 -0.0956
37780SOL    HW215594   9.052   3.212   9.112  0.9611  1.6188 -1.7407
37781SOL     OW15595   9.274   4.361   6.924 -0.1392  0.3754  0.1193
37781SOL    HW115596   9.250   4.445   6.884 -0.2804  0.9044  1.2748
37781SOL    HW215597   9.193   4.309   6.922 -0.8468  1.3330  1.9766
37782SOL     OW15598   5.131   5.526   3.650  0.1309 -0.4741 -0.5410
37782SOL    HW115599   5.048   5.503   3.609  0.8004 -1.4554 -1.3823
37782SOL    HW215600   5.195   5.468   3.610  1.1824  0.0460  0.3252
37783SOL     OW15601   8.194   2.451   0.278 -0.2938 -0.6209 -0.7711
37783SOL    HW115602   8.124   2.438   0.342 -0.1890 -0.3344 -0.5963
37783SOL    HW215603   8.163   2.407   0.199  0.3770 -2.5846  0.0159
37784SOL     OW15604  10.398   6.849   4.897  0.2034  0.2035 -0.0579
37784SOL    HW115605  10.370   6.771   4.946 -1.3293 -0.5496 -2.0297
37784SOL    HW215606  10.483   6.825   4.860  1.5711  0.9136  2.3889
37785SOL     OW15607   1.821   2.060   3.405 -0.2994 -0.6293  0.4897
37785SOL    HW115608   1.854   2.011   3.330 -0.2848 -2.3634  1.5507
37785SOL    HW215609   1.820   2.151   3.377 -0.0233 -1.1929 -1.4938
37786SOL     OW15610   3.587   3.312   4.853  0.1767 -0.0092 -0.1884
37786SOL    HW115611   3.533   3.292   4.929 -2.9328  0.6474 -2.0228
37786SOL    HW215612   3.669   3.346   4.889 -0.5926 -1.0269  2.8030
37787SOL     OW15613   8.215   1.953   3.113 -0.6683 -0.3866  0.3683
37787SOL    HW115614   8.284   1.886   3.123  0.5687  0.8985  0.8714
37787SOL    HW215615   8.170   1.952   3.198 -0.1685 -0.0864  0.6452
37788SOL     OW15616   7.768   8.780   2.091  0.0830  0.1765 -0.3948
37788SOL    HW115617   7.709   8.828   2.033  0.7400 -0.3701 -1.5325
37788SOL    HW215618   7.763   8.689   2.062  0.2971 -0.1406  0.5204
37789SOL     OW15619   2.785   5.964   7.469 -0.0659 -0.1740 -0.0023
37789SOL    HW115620   2.873   5.925   7.475  0.3465  0.4874 -1.3043
37789SOL    HW215621   2.789   6.042   7.525 -0.4199 -1.1324  1.3999
37790SOL     OW15622   0.610   7.049   4.388 -0.4268  0.1965 -0.2322
37790SOL    HW115623   0.600   7.144   4.377  2.6382  0.8111  1.2275
37790SOL    HW215624   0.588   7.034   4.480  0.1085 -0.3354 -0.1910
37791SOL     OW15625   2.962   3.042   8.038 -0.0371 -0.1946  0.5307
37791SOL    HW115626   3.037   2.994   8.003 -0.8996 -0.5988 -0.8461
37791SOL    HW215627   2.908   2.975   8.079 -1.6169 -0.6142 -2.0535
37792SOL     OW15628   4.364   7.308   2.042 -0.2595  0.4491  0.0890
37792SOL    HW115629   4.353   7.374   2.110  0.2738  2.3169 -1.5470
37792SOL    HW215630   4.334   7.351   1.962  1.1625 -0.8851 -1.2168
37793SOL     OW15631   8.671   2.410   5.842 -0.3521  0.0697  0.0557
37793SOL    HW115632   8.670   2.438   5.750  0.9785  0.5797  0.1777
37793SOL    HW215633   8.752   2.447   5.877 -1.1303  0.3759  1.5946
37794SOL     OW15634   1.904   8.573   0.890  0.1500  0.0011  0.0190
37794SOL    HW115635   1.831   8.563   0.829  0.1865 -2.7152  0.2908
37794SOL    HW215636   1.982   8.565   0.835  0.2595  1.2582 -0.0395
37795SOL     OW15637   4.405   7.842   0.747  0.4315  0.1988 -0.0699
37795SOL    HW115638   4.416   7.928   0.705  1.0631  0.4222  0.5158
37795SOL    HW215639   4.438   7.856   0.836  1.2014 -0.8321 -0.1804
37796SOL     OW15640   0.959   0.573   3.859 -0.1512  0.0286 -0.1859
37796SOL    HW115641   1.049   0.543   3.847  0.0171  0.5223 -0.1960
37796SOL    HW215642   0.916   0.505   3.910 -0.0933 -0.7756 -1.1873
37797SOL     OW15643   7.437   6.928   7.872  0.1239  0.0747  0.2831
37797SOL    HW115644   7.515   6.983   7.877 -0.2594  0.7433 -0.7930
37797SOL    HW215645   7.380   6.960   7.942  0.3023  0.4022  0.2779
37798SOL     OW15646   1.955   8.386   4.915  0.4197  0.4590 -0.3563
37798SOL    HW115647   1.910   8.303   4.899  0.9284  0.2129 -0.5231
37798SOL    HW215648   1.891   8.438   4.964  0.3483 -0.2989  0.3982
37799SOL     OW15649   1.817  10.180   8.502  0.6933 -0.1264 -0.2265
37799SOL    HW115650   1.820  10.237   8.425 -0.4280 -0.2483 -0.3808
37799SOL    HW215651   1.849  10.235   8.573 -1.2075  1.0321 -0.2032
37800SOL     OW15652   7.751   8.553  10.426  0.2504  0.2688  0.4335
37800SOL    HW115653   7.795   8.545  10.511 -0.1247  1.3211  0.7485
37800SOL    HW215654   7.708   8.639  10.430 -1.5199 -0.5647 -0.0189
37801SOL     OW15655   2.528   7.738   5.699 -0.2929 -0.0463 -0.2109
37801SOL    HW115656   2.485   7.824   5.706  0.6900  0.4763 -0.4215
37801SOL    HW215657   2.469   7.686   5.645 -0.5406  0.7455 -0.7263
37802SOL     OW15658   5.064   1.499   5.387  0.5962  0.3619  0.0679
37802SOL    HW115659   5.045   1.487   5.480 -2.1443  0.4634 -0.4047
37802SOL    HW215660   5.031   1.587   5.367  3.9042  1.6437 -0.4407
37803SOL     OW15661   2.784   9.988   6.927 -0.3270 -0.1842  0.2802
37803SOL    HW115662   2.838   9.938   6.988 -0.5285 -1.7465 -0.7409
37803SOL    HW215663   2.768  10.071   6.970 -0.5163 -1.2534  2.3842
37804SOL     OW15664   2.049   1.894   2.493 -0.5827 -0.1020 -0.1314
37804SOL    HW115665   2.093   1.814   2.524  0.7392  0.3279 -0.7883
37804SOL    HW215666   1.973   1.904   2.550  1.2635  0.2111  2.4419
37805SOL     OW15667   1.898   3.429   6.808  0.0187 -0.0090 -0.0396
37805SOL    HW115668   1.882   3.516   6.846 -0.4566 -0.0197 -0.2034
37805SOL    HW215669   1.955   3.446   6.733  1.3695 -0.0437  0.9547
37806SOL     OW15670   0.438   8.740   4.081 -0.2150  0.2037 -0.6105
37806SOL    HW115671   0.371   8.676   4.107  0.0234  1.0708  2.5248
37806SOL    HW215672   0.515   8.686   4.061 -0.8213 -0.6309 -0.7720
37807SOL     OW15673   0.119   1.023   6.243 -0.2648 -0.0256  0.2026
37807SOL    HW115674   0.156   1.110   6.235 -0.2604 -0.0968 -0.7261
37807SOL    HW215675   0.128   1.001   6.335  2.0663 -0.0622  0.0348
37808SOL     OW15676  10.364  10.519   7.571 -0.2592 -0.0930 -0.7625
37808SOL    HW115677  10.290  10.531   7.511 -0.9515  1.8573  0.3759
37808SOL    HW215678  10.436  10.567   7.530 -0.6932  1.1197 -0.1787
37809SOL     OW15679   0.101   6.560  10.091  0.3403 -0.9022  0.2781
37809SOL    HW115680   0.008   6.545  10.072 -0.3714  3.0568 -0.3210
37809SOL    HW215681   0.113   6.524  10.179 -2.0969 -0.5750  0.8337
37810SOL     OW15682   1.731   5.427   4.798 -0.1170  0.2940 -0.2943
37810SOL    HW115683   1.807   5.446   4.743 -0.3036  1.2574 -0.2285
37810SOL    HW215684   1.719   5.506   4.850 -1.2215  0.1864 -0.3732
37811SOL     OW15685   0.703   5.564   8.801 -0.1543  0.2278 -0.0263
37811SOL    HW115686   0.691   5.547   8.707 -1.2844  1.4163 -0.1087
37811SOL    HW215687   0.616   5.583   8.834  0.3665  0.7967  1.0747
37812SOL     OW15688   4.101   0.448   9.393 -0.5826  0.7733  0.4297
37812SOL    HW115689   4.133   0.531   9.357  0.0096  1.2397  1.9882
37812SOL    HW215690   4.009   0.466   9.414 -0.7115  0.7370 -0.0738
37813SOL     OW15691   1.883   6.579   2.493 -0.0545 -0.2510 -0.4552
37813SOL    HW115692   1.840   6.580   2.578  0.1152 -0.0498 -0.3697
37813SOL    HW215693   1.959   6.523   2.505  1.4073  1.7732  0.2564
37814SOL     OW15694   3.651   7.845   1.940 -0.0634 -0.3207  0.0236
37814SOL    HW115695   3.628   7.902   1.866 -0.6748 -0.2949  0.2318
37814SOL    HW215696   3.728   7.796   1.909 -1.2547 -1.4710 -1.2351
37815SOL     OW15697   9.981   5.068   4.857  0.1771 -0.4841  0.2425
37815SOL    HW115698   9.908   5.106   4.906 -1.2348 -2.8172  0.0945
37815SOL    HW215699  10.009   4.993   4.910 -0.0274 -1.8269 -1.4526
37816SOL     OW15700   2.024   2.932   6.085  0.0521 -0.0084 -0.5686
37816SOL    HW115701   2.086   2.898   6.020  0.8485 -0.8484  0.5976
37816SOL    HW215702   2.062   2.909   6.169 -1.2491  0.5610  0.2070
37817SOL     OW15703   0.581   2.783   5.120  0.6734 -0.2019 -0.4592
37817SOL    HW115704   0.603   2.723   5.049  0.1613 -0.4417 -0.4262
37817SOL    HW215705   0.611   2.869   5.090  0.3138 -0.2748 -1.0417
37818SOL     OW15706   5.243   0.757  10.613  1.2782  0.1495  0.0539
37818SOL    HW115707   5.261   0.738  10.705 -1.2466 -0.4879  0.4741
37818SOL    HW215708   5.189   0.683  10.584  0.9858  0.9846 -1.5804
37819SOL     OW15709   5.182   4.776   2.384 -0.0395  0.2167 -0.1414
37819SOL    HW115710   5.174   4.723   2.463  0.9799  0.1445 -0.0812
37819SOL    HW215711   5.112   4.841   2.392 -0.3967 -0.2358  0.4683
37820SOL     OW15712   6.859   2.916   4.915  0.1222  0.0985 -0.9832
37820SOL    HW115713   6.768   2.926   4.943  0.5588  0.3619  0.3889
37820SOL    HW215714   6.863   2.828   4.878 -0.8468  0.3438 -1.7108
37821SOL     OW15715   2.487   8.224   9.074  0.0318  0.9655 -0.0826
37821SOL    HW115716   2.521   8.160   9.010  0.4908  1.4423 -0.3252
37821SOL    HW215717   2.479   8.174   9.155 -0.8909  0.2615 -0.5898
37822SOL     OW15718  10.438   4.486   3.238 -0.5511  0.2949 -0.6702
37822SOL    HW115719  10.498   4.445   3.176  0.1807 -0.6960  0.6788
37822SOL    HW215720  10.442   4.580   3.216 -0.8778 -0.1019 -2.5887
37823SOL     OW15721   3.811   8.115   8.820  0.2185 -0.1684 -0.4948
37823SOL    HW115722   3.755   8.127   8.743  0.5174 -1.0293 -0.8576
37823SOL    HW215723   3.894   8.085   8.785  1.2683  1.9725 -0.0339
37824SOL     OW15724   7.059   1.582   3.829 -0.5123 -0.1966  0.3725
37824SOL    HW115725   6.970   1.593   3.863 -0.4530  1.8205  0.0387
37824SOL    HW215726   7.072   1.488   3.825 -3.5602 -0.6878 -1.9663
37825SOL     OW15727   3.116   3.721   3.515 -0.1788  0.1617 -0.5993
37825SOL    HW115728   3.115   3.637   3.560  0.1281 -0.1592 -1.1705
37825SOL    HW215729   3.174   3.776   3.567 -1.4054  0.4520  0.5051
37826SOL     OW15730   8.029   0.557   2.209  0.6622  0.0058 -0.4508
37826SOL    HW115731   7.989   0.503   2.141  0.9421 -0.7088 -0.0525
37826SOL    HW215732   7.955   0.587   2.261  0.4637  0.3975 -0.9428
37827SOL     OW15733   3.286   0.252   2.786  0.0564  0.0091  0.2026
37827SOL    HW115734   3.284   0.345   2.764 -0.5606  0.1998  1.0090
37827SOL    HW215735   3.322   0.209   2.708 -1.3347  0.7306 -0.8832
37828SOL     OW15736   5.379   7.441   9.109 -0.6169  0.5088  0.0710
37828SOL    HW115737   5.429   7.495   9.048  1.6198 -1.0998  0.3487
37828SOL    HW215738   5.291   7.438   9.072  0.5309 -0.0396 -2.8847
37829SOL     OW15739   6.282   4.572  10.165 -0.0957 -0.0665 -0.4426
37829SOL    HW115740   6.291   4.666  10.183  1.8454 -0.5434  1.4338
37829SOL    HW215741   6.301   4.529  10.248 -0.7814 -2.1701 -1.2981
37830SOL     OW15742   2.954   8.232   6.188 -0.0564  0.2203  0.2973
37830SOL    HW115743   2.882   8.174   6.213  1.2154 -1.1786  0.8385
37830SOL    HW215744   2.922   8.277   6.110 -2.3118  1.1908  1.6840
37831SOL     OW15745   1.503   1.528   9.427  0.5925  0.0277  0.0701
37831SOL    HW115746   1.410   1.536   9.407  0.8132  1.3033 -0.5888
37831SOL    HW215747   1.533   1.618   9.437  1.5370 -0.4030  1.4083
37832SOL     OW15748   7.626   1.292   5.770 -0.5110 -0.0802 -0.1552
37832SOL    HW115749   7.629   1.298   5.675 -1.0829 -0.6498 -0.2101
37832SOL    HW215750   7.717   1.299   5.797 -0.4430  1.3292 -0.6611
37833SOL     OW15751   4.551   8.146  10.079 -0.3915  0.1823 -0.1078
37833SOL    HW115752   4.615   8.075  10.075  0.2227  0.6221  1.1560
37833SOL    HW215753   4.466   8.102  10.072 -0.0859 -0.8913  1.8966
37834SOL     OW15754   2.972   9.617   5.465  0.3014  0.0747  0.0134
37834SOL    HW115755   3.024   9.538   5.474 -1.5515 -1.6171 -2.5196
37834SOL    HW215756   2.934   9.631   5.552  3.6042  0.5310  1.5298
37835SOL     OW15757   6.853   3.922   0.747  0.4160 -0.1326 -0.4218
37835SOL    HW115758   6.763   3.953   0.756  1.3052  2.5215  0.3130
37835SOL    HW215759   6.847   3.844   0.692 -2.3756 -0.4361  0.1918
37836SOL     OW15760  10.415   7.995   6.143  0.2955  0.0784  0.4001
37836SOL    HW115761  10.440   7.910   6.177 -0.7607 -0.6494 -0.5727
37836SOL    HW215762  10.460   8.002   6.059 -0.1352  0.1955  0.1765
37837SOL     OW15763   3.041   1.979   6.443 -0.5666 -0.4725  0.4533
37837SOL    HW115764   3.009   1.891   6.466  0.4099 -1.2928 -1.0982
37837SOL    HW215765   3.083   1.967   6.357  1.0757  1.1737  0.9635
37838SOL     OW15766   6.743   9.943   0.950 -0.5665  0.4028 -0.6112
37838SOL    HW115767   6.728   9.865   1.005 -3.1604  1.0616 -0.2662
37838SOL    HW215768   6.812   9.916   0.889  1.8490 -0.6746  2.3103
37839SOL     OW15769   3.473   4.405   3.589  0.2254 -0.3821 -0.1532
37839SOL    HW115770   3.501   4.491   3.619 -1.1414 -0.0806  0.3266
37839SOL    HW215771   3.523   4.344   3.644 -0.2898  0.1347  0.9216
37840SOL     OW15772   9.761   3.173   8.517  0.5010  0.0655  0.0316
37840SOL    HW115773   9.744   3.205   8.429  1.9253  2.2485  0.4708
37840SOL    HW215774   9.700   3.101   8.529  0.6114 -0.6069 -2.8921
37841SOL     OW15775   5.382   1.630   2.670  0.2264  0.0347 -0.7407
37841SOL    HW115776   5.414   1.622   2.580  1.0369 -1.7007 -0.3420
37841SOL    HW215777   5.437   1.698   2.709 -0.0009  0.6621 -1.4787
37842SOL     OW15778   6.034   5.613   3.547  0.4268 -0.0918  0.2084
37842SOL    HW115779   5.946   5.637   3.576 -0.1642 -1.5498 -0.2958
37842SOL    HW215780   6.047   5.662   3.466  1.4545  2.7438  1.9213
37843SOL     OW15781   5.133   2.153   9.643 -0.4273  0.2335 -0.2423
37843SOL    HW115782   5.110   2.239   9.678 -0.3611 -0.2209  0.9483
37843SOL    HW215783   5.181   2.110   9.714  1.7289  0.1129 -1.6862
37844SOL     OW15784  10.476  10.462   0.752 -0.3528  0.1378  0.1435
37844SOL    HW115785  10.496  10.489   0.662 -0.8742  0.2745  0.0626
37844SOL    HW215786  10.521  10.526   0.807 -1.2785  0.9690 -0.0448
37845SOL     OW15787   3.785   2.706   9.916  0.0101  0.6406 -0.5524
37845SOL    HW115788   3.852   2.685   9.850 -1.0143 -0.3477 -1.3195
37845SOL    HW215789   3.706   2.663   9.884 -0.6739  0.6621  1.0249
37846SOL     OW15790   5.530   2.760   5.904  0.3307 -0.0340  0.5876
37846SOL    HW115791   5.436   2.747   5.890  0.4327  0.0898 -0.3034
37846SOL    HW215792   5.569   2.676   5.881  0.2950 -0.7132  2.8216
37847SOL     OW15793  10.551  10.186   9.502 -0.2020  0.3240  0.2414
37847SOL    HW115794  10.601  10.254   9.459 -1.6044  0.4747 -1.2467
37847SOL    HW215795  10.613  10.114   9.513  0.6060  0.8609 -0.6301
37848SOL     OW15796   8.169   9.674   8.448 -0.3404 -0.1899  0.2657
37848SOL    HW115797   8.084   9.645   8.482 -1.4614 -0.4306 -2.5105
37848SOL    HW215798   8.199   9.601   8.395 -0.3321  1.3609 -1.9854
37849SOL     OW15799   7.451  10.168   1.084  0.0384  0.1691 -0.0391
37849SOL    HW115800   7.471  10.236   1.019  1.4139 -1.4201 -1.3836
37849SOL    HW215801   7.492  10.089   1.049  0.5371 -0.8551  2.6169
37850SOL     OW15802   4.594   8.820   5.904 -0.4737 -1.1303 -0.1722
37850SOL    HW115803   4.536   8.896   5.901  1.2051  0.2338  0.1390
37850SOL    HW215804   4.565   8.765   5.831 -0.6320  0.6712 -1.5417
37851SOL     OW15805   5.595   8.738   5.212 -0.3353 -0.0132  0.1976
37851SOL    HW115806   5.602   8.696   5.297 -0.7197  0.3494  0.4105
37851SOL    HW215807   5.518   8.794   5.218  0.1593  0.7238 -0.0747
37852SOL     OW15808   4.982   9.427   6.408  0.4040  0.3788  0.0093
37852SOL    HW115809   5.033   9.490   6.357 -1.5263  2.4603  0.4894
37852SOL    HW215810   4.925   9.481   6.463 -0.4718 -1.8101  1.3942
37853SOL     OW15811   3.952   4.625   2.488 -0.7551  0.0761  0.2453
37853SOL    HW115812   3.964   4.719   2.499 -0.5743  0.1773 -0.7198
37853SOL    HW215813   3.968   4.589   2.575 -2.8957  1.1063  1.1233
37854SOL     OW15814   1.904   2.213   8.231 -0.2425  0.0298 -0.1826
37854SOL    HW115815   1.902   2.127   8.275  0.2906 -0.4330 -1.0413
37854SOL    HW215816   1.856   2.198   8.149 -1.5166  0.9703  0.3645
37855SOL     OW15817   6.423   8.887   4.982 -0.2571  0.0948  0.3403
37855SOL    HW115818   6.380   8.907   5.065  0.2375  0.7928  0.4344
37855SOL    HW215819   6.458   8.799   4.995 -1.1265 -0.2451  0.4719
37856SOL     OW15820   4.883   0.138   4.964 -0.6292 -0.0476  0.0320
37856SOL    HW115821   4.850   0.107   4.879 -0.9691  0.7642 -0.1356
37856SOL    HW215822   4.950   0.074   4.988 -0.8808 -0.5645 -0.6098
37857SOL     OW15823   8.080   2.978   6.409  0.1678 -0.2700 -0.0442
37857SOL    HW115824   8.007   3.040   6.407 -0.0699 -0.5227  0.4876
37857SOL    HW215825   8.157   3.031   6.387 -0.0932  0.1221 -0.0204
37858SOL     OW15826   2.782   7.229   7.561 -0.0766 -0.0463  0.0404
37858SOL    HW115827   2.688   7.219   7.578  0.2919 -0.4836  2.1137
37858SOL    HW215828   2.822   7.154   7.606  1.3754  0.8846  0.3564
37859SOL     OW15829  10.144   2.002   9.856 -0.0073 -0.2658 -0.1088
37859SOL    HW115830  10.134   1.919   9.809  2.3303 -1.0735  0.6888
37859SOL    HW215831  10.111   1.985   9.944 -3.0495  0.8439 -0.8771
37860SOL     OW15832   5.763   0.186   9.568  0.2452 -0.1631 -0.9309
37860SOL    HW115833   5.731   0.271   9.539 -2.1688 -1.2170 -1.5876
37860SOL    HW215834   5.775   0.136   9.487  2.8853 -0.1383 -0.6630
37861SOL     OW15835   1.913   9.739   8.132 -0.5105 -0.1346  0.5022
37861SOL    HW115836   1.990   9.743   8.188 -0.7910 -0.7015  0.9442
37861SOL    HW215837   1.897   9.645   8.120  0.0186 -0.0349 -1.2149
37862SOL     OW15838  10.453   0.519   6.476  0.0221  0.1606 -0.1659
37862SOL    HW115839  10.501   0.520   6.559 -0.2951 -1.5843  0.0818
37862SOL    HW215840  10.377   0.574   6.492  0.3879  0.5033  0.4436
37863SOL     OW15841   7.366   5.588   3.046  0.5093 -0.1008  0.6813
37863SOL    HW115842   7.403   5.565   3.132  0.5441 -0.3345  0.6054
37863SOL    HW215843   7.432   5.644   3.006 -0.2941  1.5121  1.5339
37864SOL     OW15844   8.384   9.236   6.485  0.5444  0.1495 -0.3719
37864SOL    HW115845   8.304   9.195   6.451 -0.3367  1.3299  0.1906
37864SOL    HW215846   8.401   9.191   6.567 -0.5232  0.9539  0.3343
37865SOL     OW15847   2.539   4.639   9.957  0.0700  0.6284 -0.1099
37865SOL    HW115848   2.457   4.592   9.972 -0.4901  1.9628  1.3268
37865SOL    HW215849   2.581   4.642  10.043  1.3301  0.5166 -0.7019
37866SOL     OW15850  10.379   5.235   3.756 -0.3493  0.4847  0.0457
37866SOL    HW115851  10.367   5.312   3.699  0.1489  0.2475 -0.3831
37866SOL    HW215852  10.392   5.162   3.695 -1.3879 -0.0513  0.4318
37867SOL     OW15853   0.087  10.079   1.467  0.1589  0.0732 -0.3185
37867SOL    HW115854   0.030  10.148   1.502 -0.5670  0.0252 -1.3520
37867SOL    HW215855   0.027  10.007   1.447  0.5242  0.1442 -1.7463
37868SOL     OW15856   8.883   6.127   6.235 -0.2794 -0.2731  0.2093
37868SOL    HW115857   8.835   6.208   6.218 -0.2782  0.0592  1.6225
37868SOL    HW215858   8.949   6.152   6.301 -1.1684 -1.6802  1.7158
37869SOL     OW15859   2.340   0.919  10.453 -0.1792 -0.7687 -0.4460
37869SOL    HW115860   2.303   0.860  10.519  0.1390 -2.0556 -1.3779
37869SOL    HW215861   2.403   0.973  10.501  1.2864 -2.8124  0.0452
37870SOL     OW15862   7.516   1.517   0.069 -0.1409 -0.0569  0.0747
37870SOL    HW115863   7.447   1.584   0.073  0.1434  0.3518 -1.4021
37870SOL    HW215864   7.486   1.456   0.002  0.3122 -0.5936  0.3584
37871SOL     OW15865   5.086   9.608  10.353  0.0989  0.3715 -0.1379
37871SOL    HW115866   5.075   9.567  10.268 -1.9613 -0.0267  0.2701
37871SOL    HW215867   5.036   9.690  10.347 -3.2922 -1.3452  1.7381
37872SOL     OW15868   8.252   8.216   0.620  0.5843 -0.1772 -0.1843
37872SOL    HW115869   8.331   8.243   0.667 -0.1656 -0.5172  1.3489
37872SOL    HW215870   8.265   8.123   0.604 -0.5495 -0.8903  2.4396
37873SOL     OW15871   2.673   6.875   6.967  1.2187 -0.2624  0.5146
37873SOL    HW115872   2.602   6.811   6.971  0.9293 -0.1276 -1.4283
37873SOL    HW215873   2.741   6.832   6.916  1.8394  0.2402  0.9094
37874SOL     OW15874   8.074   8.342   3.736  0.3906  0.4837  0.3612
37874SOL    HW115875   8.167   8.341   3.759  0.7322 -0.0477 -0.9405
37874SOL    HW215876   8.073   8.350   3.640 -0.9258  1.5891  0.4258
37875SOL     OW15877   1.156   8.167   8.471 -0.1411 -0.6721  0.3169
37875SOL    HW115878   1.163   8.115   8.391 -0.6452 -0.3272  0.0401
37875SOL    HW215879   1.084   8.228   8.453  0.0156 -0.3174  0.8792
37876SOL     OW15880   3.581   8.939  10.426 -0.1214 -0.9031  0.3653
37876SOL    HW115881   3.533   8.916  10.506 -2.2500  1.1961 -0.2037
37876SOL    HW215882   3.560   8.869  10.364 -1.6964 -0.5231  0.4438
37877SOL     OW15883   7.604   4.547   7.222  0.1087  0.2090  0.1905
37877SOL    HW115884   7.603   4.642   7.207 -0.5189 -0.0373 -1.5838
37877SOL    HW215885   7.689   4.519   7.188  0.6833  0.2315  1.5623
37878SOL     OW15886   5.962   4.092   8.432 -0.0650 -0.4426  0.0911
37878SOL    HW115887   5.956   4.051   8.346  0.5255  1.7682 -1.0815
37878SOL    HW215888   6.016   4.031   8.484 -0.2200 -1.6933 -1.1538
37879SOL     OW15889   8.900   2.909   3.145 -0.4884 -0.2169 -0.3069
37879SOL    HW115890   8.881   2.879   3.056 -0.6657 -0.8041 -0.0747
37879SOL    HW215891   8.886   2.832   3.200 -1.0381  0.3127  0.3119
37880SOL     OW15892   9.295   8.067   2.854  0.1022 -0.1968 -0.5126
37880SOL    HW115893   9.312   8.000   2.788  1.2269  0.6491 -1.1341
37880SOL    HW215894   9.383   8.093   2.884 -0.1774  2.1527 -1.5195
37881SOL     OW15895   7.289   6.937   9.122  0.0019 -0.1069 -0.1810
37881SOL    HW115896   7.364   6.983   9.086  0.0285  0.1075  0.1420
37881SOL    HW215897   7.327   6.861   9.166  0.0524  0.1184  0.1694
37882SOL     OW15898   9.429   2.364   9.090 -0.6160  0.0800  0.5257
37882SOL    HW115899   9.387   2.393   9.009  0.3152 -0.0681 -0.0220
37882SOL    HW215900   9.452   2.446   9.135 -1.4046  0.1621  0.7973
37883SOL     OW15901   9.683   6.215   2.875 -0.1029  0.0001  0.0233
37883SOL    HW115902   9.623   6.146   2.903 -0.2886 -0.3862 -1.2600
37883SOL    HW215903   9.683   6.278   2.947 -0.9399 -0.6958  0.6483
37884SOL     OW15904   1.256   9.888   7.790  0.1502  0.0609 -0.2980
37884SOL    HW115905   1.227   9.979   7.799  2.5343  0.8104  0.4972
37884SOL    HW215906   1.279   9.861   7.878  0.9746 -0.7720 -0.7504
37885SOL     OW15907   3.872   5.223   5.006  0.2206 -0.8844 -0.0112
37885SOL    HW115908   3.958   5.196   4.975  0.4176  0.3549 -0.5604
37885SOL    HW215909   3.890   5.274   5.085 -0.0455 -0.9476  0.0917
37886SOL     OW15910   0.158   4.194   4.381  0.3916 -0.6606  0.0130
37886SOL    HW115911   0.099   4.119   4.376 -1.0415  0.4701 -4.7988
37886SOL    HW215912   0.100   4.269   4.397  1.0484  0.0253 -0.7267
37887SOL     OW15913   7.247  10.436   7.040 -0.4864  0.2196  0.2169
37887SOL    HW115914   7.339  10.424   7.066 -0.5768  2.6691  1.9459
37887SOL    HW215915   7.198  10.428   7.122 -1.7169  0.1436 -0.5073
37888SOL     OW15916   0.392   7.898   9.594  0.3872  0.4889 -0.2436
37888SOL    HW115917   0.374   7.943   9.512  1.3219  0.2908 -0.5667
37888SOL    HW215918   0.444   7.821   9.569 -0.6282 -0.4253  0.3656
37889SOL     OW15919   2.544  10.355  10.646  0.3677 -0.2233 -0.3632
37889SOL    HW115920   2.519  10.438  10.687  1.7076  0.9610 -1.7839
37889SOL    HW215921   2.573  10.300  10.719  0.3815  0.9168  0.5178
37890SOL     OW15922   4.857   1.061   7.397 -0.5096  0.3157  0.9615
37890SOL    HW115923   4.772   1.080   7.436 -0.7658  0.7491  0.2058
37890SOL    HW215924   4.866   1.125   7.326  1.1171  1.3451  1.9991
37891SOL     OW15925   3.307   4.084   6.436 -0.1422  0.5210 -0.6425
37891SOL    HW115926   3.256   4.008   6.465 -0.1856  0.5195 -0.7229
37891SOL    HW215927   3.308   4.077   6.341  0.7065  0.0695 -0.6093
37892SOL     OW15928   4.582   8.844   5.512  0.3942 -0.0982 -0.3207
37892SOL    HW115929   4.538   8.922   5.545  0.0207  0.3312 -1.7703
37892SOL    HW215930   4.535   8.771   5.553 -0.8310  0.3926 -0.8160
37893SOL     OW15931   5.014   1.863   0.196  0.3889 -0.3381  0.0345
37893SOL    HW115932   4.984   1.799   0.261 -2.5786  0.4034 -0.4581
37893SOL    HW215933   5.015   1.815   0.114  1.1760 -0.5188  0.1492
37894SOL     OW15934   5.643   0.219   6.493  0.7506 -0.1843  0.6853
37894SOL    HW115935   5.678   0.256   6.412 -0.9734  0.1392  0.0424
37894SOL    HW215936   5.651   0.125   6.482 -2.5145 -0.3545 -1.4149
37895SOL     OW15937   8.598   6.074   6.072 -0.2176  0.7102 -0.7564
37895SOL    HW115938   8.560   6.127   6.142  3.2216  0.7288  1.3116
37895SOL    HW215939   8.651   6.009   6.117  0.2629 -0.8184 -3.3585
37896SOL     OW15940   8.991   7.476   0.793  0.0414 -0.5111 -0.0832
37896SOL    HW115941   9.011   7.384   0.806 -0.7478 -0.6795 -0.0050
37896SOL    HW215942   8.904   7.487   0.832  1.2568  0.8779  2.4982
37897SOL     OW15943  10.008   4.273   8.584  0.5814  0.2940 -0.2356
37897SOL    HW115944   9.923   4.253   8.546  0.1715  0.6431  0.4781
37897SOL    HW215945  10.054   4.189   8.587 -0.5206 -0.2845  1.2917
37898SOL     OW15946   7.060   0.799   5.258  0.3139  0.1179  0.0149
37898SOL    HW115947   7.098   0.743   5.191 -1.5668 -0.8841 -0.2977
37898SOL    HW215948   7.054   0.886   5.217 -0.3986 -0.3832 -0.9907
37899SOL     OW15949   4.988   6.880   7.685 -0.4315  0.2635  0.0309
37899SOL    HW115950   5.060   6.838   7.636 -0.2437 -0.0523  0.5768
37899SOL    HW215951   4.909   6.853   7.639 -0.2882 -0.4274  0.1850
37900SOL     OW15952   9.566   8.986   7.940 -0.1443 -0.8160  0.5097
37900SOL    HW115953   9.499   8.937   7.891  1.4586 -2.2746 -0.3427
37900SOL    HW215954   9.649   8.952   7.906  1.0458  1.3411  1.1266
37901SOL     OW15955   3.499   2.547   1.420  0.4547  0.0606 -0.2046
37901SOL    HW115956   3.480   2.606   1.347  0.4310 -0.8067 -0.9221
37901SOL    HW215957   3.479   2.598   1.498 -0.0874  0.8149 -0.8191
37902SOL     OW15958   2.491   8.537   3.322 -0.2183  0.4740  0.7043
37902SOL    HW115959   2.523   8.452   3.354 -0.0524  0.6903  1.1146
37902SOL    HW215960   2.560   8.568   3.264 -0.5138  0.0870  0.1355
37903SOL     OW15961   7.676   2.702   7.238 -0.0352 -0.0246  0.4449
37903SOL    HW115962   7.632   2.620   7.215 -0.3721  0.1282  0.5516
37903SOL    HW215963   7.732   2.678   7.312 -0.3680 -0.0865  0.6762
37904SOL     OW15964   4.369   6.337   5.486  0.3170 -0.4735  0.3295
37904SOL    HW115965   4.453   6.301   5.512  0.5226  0.4065  0.9224
37904SOL    HW215966   4.305   6.286   5.535  0.6256  0.2152  1.4756
37905SOL     OW15967   0.971   9.267   5.970 -0.0198  0.0024 -0.2576
37905SOL    HW115968   0.877   9.266   5.950 -0.4575 -1.5071  1.6285
37905SOL    HW215969   1.013   9.272   5.884 -1.7934  1.5748 -1.1161
37906SOL     OW15970   9.099   1.986   2.434 -0.3685  0.2595  0.0309
37906SOL    HW115971   9.192   2.007   2.445 -0.3923  0.3193  0.1188
37906SOL    HW215972   9.099   1.899   2.396 -0.2805  0.1034  0.3803
37907SOL     OW15973   1.905  10.071   7.750 -0.4212 -0.5040  0.1376
37907SOL    HW115974   1.986  10.029   7.723 -1.8619 -2.8394 -0.8973
37907SOL    HW215975   1.916  10.087   7.844  1.9269  1.0556 -0.3326
37908SOL     OW15976   1.203   2.406   2.404 -0.2058 -0.0756  0.1049
37908SOL    HW115977   1.108   2.400   2.414 -0.0976 -1.2657  0.6180
37908SOL    HW215978   1.215   2.434   2.313 -1.0471 -0.8111 -0.2579
37909SOL     OW15979   0.859  10.120   8.447  0.4279 -0.5107 -0.3358
37909SOL    HW115980   0.950  10.146   8.431  0.2191 -1.1023 -2.9383
37909SOL    HW215981   0.865  10.048   8.510  1.7111 -0.2217 -0.1062
37910SOL     OW15982   5.413   2.580   3.524 -0.3753  0.4746  0.0228
37910SOL    HW115983   5.456   2.641   3.584 -1.2437  1.2669 -0.1395
37910SOL    HW215984   5.331   2.623   3.502  0.2020  0.5205 -2.2592
37911SOL     OW15985   7.547   8.385   1.647 -0.0116 -0.2918  0.3157
37911SOL    HW115986   7.514   8.382   1.557 -0.9954  1.2884  0.5882
37911SOL    HW215987   7.510   8.465   1.683  2.2771  0.3552  1.3921
37912SOL     OW15988   3.444   9.744   4.032  0.5008 -0.1239  0.1147
37912SOL    HW115989   3.355   9.767   4.006  1.3253 -1.2558 -4.6634
37912SOL    HW215990   3.433   9.688   4.109 -2.7754  0.5666  0.2869
37913SOL     OW15991   8.766   0.439   0.054  0.3685 -0.4900  0.2126
37913SOL    HW115992   8.673   0.428   0.073 -0.3544  3.6926 -0.0311
37913SOL    HW215993   8.770   0.447  -0.041  0.9310 -0.2397  0.2553
37914SOL     OW15994   0.447  10.168   0.146 -0.2646 -0.0627 -0.2917
37914SOL    HW115995   0.521  10.107   0.139 -0.1960  0.1426 -1.6040
37914SOL    HW215996   0.451  10.201   0.235  0.2977 -1.2294  0.1312
37915SOL     OW15997   8.075   8.328   6.738 -0.1094  0.3735 -0.7202
37915SOL    HW115998   8.143   8.269   6.707  0.4124 -0.7304  2.2023
37915SOL    HW215999   7.995   8.298   6.694  0.7311 -0.3351 -1.8000
37916SOL     OW16000   5.506  10.011   4.195  0.2000 -0.2680  0.6985
37916SOL    HW116001   5.511  10.079   4.127 -0.2559 -0.2878  0.6426
37916SOL    HW216002   5.560   9.940   4.161  0.2174 -0.1608  0.4928
37917SOL     OW16003   3.705   2.604   3.985 -0.4104  0.2122  0.1807
37917SOL    HW116004   3.636   2.658   4.023 -1.0876  0.1537 -0.9211
37917SOL    HW216005   3.681   2.514   4.007 -0.5611  0.2060 -0.0132
37918SOL     OW16006   9.978   2.618   1.577  0.3580 -0.1062  0.4629
37918SOL    HW116007  10.044   2.678   1.542 -1.2862  0.7927 -1.2985
37918SOL    HW216008   9.918   2.602   1.504 -2.4545  0.6654  2.3832
37919SOL     OW16009   7.662  10.102   5.015 -0.0991 -0.4304  0.0420
37919SOL    HW116010   7.659  10.042   4.940  1.2868 -0.0918 -0.3128
37919SOL    HW216011   7.753  10.134   5.016 -0.5531  0.8993  0.8242
37920SOL     OW16012   2.130   4.799   6.786 -0.2480 -0.0580  0.3555
37920SOL    HW116013   2.145   4.880   6.834  0.4445 -0.7928  1.4172
37920SOL    HW216014   2.035   4.792   6.780 -0.3183  0.6739  0.5142
37921SOL     OW16015   2.635   1.065   7.869  0.0494 -0.2324  0.1746
37921SOL    HW116016   2.580   1.128   7.820 -0.6356 -1.4718 -0.7060
37921SOL    HW216017   2.600   0.979   7.845  2.3273 -1.0875 -0.3411
37922SOL     OW16018   6.251   1.232   7.634 -0.5361 -0.1457 -0.7684
37922SOL    HW116019   6.214   1.207   7.550  2.1280 -1.9133 -1.5194
37922SOL    HW216020   6.247   1.328   7.634 -0.6207 -0.1054 -2.8950
37923SOL     OW16021   9.994   5.755   6.259 -0.4290 -0.4229  0.1158
37923SOL    HW116022  10.057   5.688   6.232  0.0637 -0.2890  0.9024
37923SOL    HW216023   9.913   5.730   6.216  0.1506 -0.6141 -0.8939
37924SOL     OW16024   0.057   8.580   0.424  0.4939  0.1344 -0.0446
37924SOL    HW116025   0.058   8.512   0.358 -0.2597  0.2642 -0.1955
37924SOL    HW216026   0.133   8.561   0.480  1.1334  0.0305 -0.9391
37925SOL     OW16027   2.106   6.882   9.882 -0.0820  0.4423 -0.5892
37925SOL    HW116028   2.028   6.827   9.882 -0.4865  0.9273 -2.4224
37925SOL    HW216029   2.174   6.828   9.840  0.5740  0.0537  0.9128
37926SOL     OW16030   2.957   2.471   1.396  0.5130  0.2069 -0.2736
37926SOL    HW116031   2.867   2.480   1.366  0.3120  0.2171  0.3294
37926SOL    HW216032   3.002   2.548   1.360 -0.0926  1.0794  0.7732
37927SOL     OW16033  10.348   1.522   4.722  0.3223  0.9946 -0.1140
37927SOL    HW116034  10.419   1.586   4.722  0.0418  1.3024 -0.1659
37927SOL    HW216035  10.299   1.539   4.802  0.7105  0.3313  0.2746
37928SOL     OW16036   2.490   1.953   8.628  0.0052  0.1848  0.3179
37928SOL    HW116037   2.536   1.953   8.712 -1.2700 -0.0651  1.0461
37928SOL    HW216038   2.422   2.019   8.638  1.2748  1.8271 -1.3805
37929SOL     OW16039  10.320  10.399   6.443 -0.2777  0.5423  0.2204
37929SOL    HW116040  10.307  10.493   6.432  1.2820  0.8885  0.9307
37929SOL    HW216041  10.331  10.366   6.354 -0.9250  1.0113 -0.0433
37930SOL     OW16042   7.438   1.021   1.910  0.1924  0.2008 -0.1600
37930SOL    HW116043   7.489   0.955   1.956 -0.5159 -0.9425 -0.9509
37930SOL    HW216044   7.487   1.037   1.829 -0.5626 -0.7730 -0.8404
37931SOL     OW16045  10.436   5.623   5.446 -0.0515  0.2752  0.1836
37931SOL    HW116046  10.342   5.615   5.429 -0.3573  0.9376  1.4242
37931SOL    HW216047  10.464   5.533   5.466 -0.1879 -0.0954 -1.1694
37932SOL     OW16048   4.662   7.700   6.034 -0.0622 -0.2649 -0.0668
37932SOL    HW116049   4.726   7.716   5.965 -1.0994  0.8055 -0.8030
37932SOL    HW216050   4.715   7.690   6.114  0.9603  3.4466 -0.1155
37933SOL     OW16051   0.076   6.678   3.767 -0.5269  0.0437  0.3917
37933SOL    HW116052   0.030   6.620   3.828 -1.2503 -0.1670 -0.3290
37933SOL    HW216053   0.121   6.742   3.822  0.0126 -1.0004  1.1900
37934SOL     OW16054   5.380   0.483   1.238 -0.0615  0.2523  0.3601
37934SOL    HW116055   5.300   0.483   1.185  0.3827 -0.6407 -0.3413
37934SOL    HW216056   5.354   0.521   1.322 -0.8498  1.4405 -0.3953
37935SOL     OW16057   7.258   3.360   4.441  0.2919  0.4068  0.4739
37935SOL    HW116058   7.176   3.344   4.488  0.9938 -1.5628  1.1181
37935SOL    HW216059   7.325   3.317   4.494  1.6848  1.5085 -0.3230
37936SOL     OW16060   9.309   5.759   2.581  0.4178  0.2069 -0.0190
37936SOL    HW116061   9.345   5.736   2.495  0.2355  0.9709 -0.3073
37936SOL    HW216062   9.279   5.849   2.571  0.1562  0.2143  0.7754
37937SOL     OW16063   8.524   1.935   7.460 -0.5372 -0.5744 -0.0710
37937SOL    HW116064   8.531   1.841   7.441  2.1140 -0.2887 -0.9252
37937SOL    HW216065   8.589   1.950   7.528 -0.5703  0.7385 -0.3125
37938SOL     OW16066   1.397   1.140   2.662  0.0970 -0.2039 -0.2481
37938SOL    HW116067   1.335   1.095   2.719  1.1990 -0.3561  0.8954
37938SOL    HW216068   1.369   1.119   2.573 -0.8171 -1.1757  0.2508
37939SOL     OW16069   0.019   6.229   8.112 -0.1299  0.2425 -0.2829
37939SOL    HW116070  -0.070   6.195   8.103 -0.0424  0.1339 -0.7954
37939SOL    HW216071   0.011   6.323   8.094  0.1183 -0.0468 -2.1570
37940SOL     OW16072   5.824   4.600   1.863 -0.0639  0.2139 -0.3117
37940SOL    HW116073   5.874   4.624   1.785 -0.0377 -0.7564 -0.6004
37940SOL    HW216074   5.779   4.681   1.888  1.8285  1.2028  0.0996
37941SOL     OW16075   1.612   5.455   3.143  0.0279  0.1544 -0.2688
37941SOL    HW116076   1.521   5.432   3.164  0.0864 -0.0418 -0.2258
37941SOL    HW216077   1.661   5.439   3.224  0.0050  0.8271 -0.1159
37942SOL     OW16078   7.490   6.376   6.995 -0.0763 -0.0641 -0.1406
37942SOL    HW116079   7.423   6.415   7.051  0.6101 -0.0383  0.6957
37942SOL    HW216080   7.560   6.441   6.993  0.4998 -0.6642  0.1391
37943SOL     OW16081   0.283   4.684   8.829 -0.1396 -0.6840 -0.1315
37943SOL    HW116082   0.212   4.634   8.869 -0.3587 -0.6772 -0.5055
37943SOL    HW216083   0.281   4.659   8.737 -1.3052  1.2012 -0.6803
37944SOL     OW16084   2.701   5.527   6.064 -0.0424  0.3617  0.6759
37944SOL    HW116085   2.701   5.605   6.121  1.7340  0.1844  0.9810
37944SOL    HW216086   2.794   5.511   6.046 -0.3894 -1.5414  0.4051
37945SOL     OW16087   2.780   5.783  10.623 -0.5282  0.0238  0.3131
37945SOL    HW116088   2.823   5.792  10.538  0.6272  2.2532  1.0707
37945SOL    HW216089   2.852   5.769  10.685 -1.1115  0.9487  1.2300
37946SOL     OW16090   2.301   5.333   5.630  0.2417 -0.2588  0.0932
37946SOL    HW116091   2.349   5.265   5.583  2.5708  0.4403  1.3071
37946SOL    HW216092   2.358   5.357   5.703 -1.9369  0.7574  1.5729
37947SOL     OW16093   7.506   7.486   2.498 -0.1883 -0.2179 -0.3490
37947SOL    HW116094   7.550   7.433   2.564  0.2693 -0.0260 -0.5011
37947SOL    HW216095   7.552   7.467   2.416 -2.0433 -2.0672 -1.0574
37948SOL     OW16096   2.028   3.978   9.271  0.3746 -0.2222 -0.3299
37948SOL    HW116097   2.077   3.921   9.330  0.7828 -1.5150 -1.8671
37948SOL    HW216098   1.959   3.923   9.235 -1.0530  1.0594  0.3284
37949SOL     OW16099   6.677   5.693   1.156  0.1195  0.0698  0.1562
37949SOL    HW116100   6.604   5.750   1.181  0.6765  0.1101  1.7685
37949SOL    HW216101   6.739   5.753   1.113 -0.7709  0.0233 -1.2833
37950SOL     OW16102   4.561   2.313   5.393  0.2361  0.0684  0.2243
37950SOL    HW116103   4.482   2.315   5.447 -0.3858  2.1202 -0.6495
37950SOL    HW216104   4.563   2.399   5.351  2.7092 -0.1034 -0.1320
37951SOL     OW16105   1.237   6.374   1.329  0.4217  0.5395  0.7918
37951SOL    HW116106   1.185   6.294   1.345  2.7678 -0.9375  1.6306
37951SOL    HW216107   1.217   6.430   1.404 -0.9953  0.6477  0.3738
37952SOL     OW16108   3.443   7.332   2.776  0.1823  0.4661  0.1440
37952SOL    HW116109   3.532   7.330   2.740  1.2596 -0.2850  2.6661
37952SOL    HW216110   3.429   7.244   2.812 -1.4272  0.7073  0.2021
37953SOL     OW16111   4.869   7.118   4.797 -0.0569 -0.0007  1.0594
37953SOL    HW116112   4.844   7.028   4.817  0.0966 -0.3923 -0.3999
37953SOL    HW216113   4.962   7.123   4.821  0.1755 -0.5074  0.2934
37954SOL     OW16114   8.826   1.537  10.366  0.2487 -0.4688 -0.2667
37954SOL    HW116115   8.915   1.512  10.339  0.4047 -0.2901  0.0772
37954SOL    HW216116   8.839   1.612  10.423  0.1135 -2.0370  1.9806
37955SOL     OW16117   7.601   3.169   0.879  0.2946 -0.0124  0.1032
37955SOL    HW116118   7.634   3.141   0.794  0.1337 -2.2234  0.7075
37955SOL    HW216119   7.511   3.135   0.882 -0.2221  1.3202  0.5983
37956SOL     OW16120   8.669   9.815   5.674  0.1147  0.3730 -0.4057
37956SOL    HW116121   8.641   9.873   5.745  0.8384  0.0846  0.1210
37956SOL    HW216122   8.606   9.833   5.603 -0.2347  1.1193  0.0738
37957SOL     OW16123   7.529   9.466   5.024  0.3324  0.6198 -0.0343
37957SOL    HW116124   7.470   9.460   5.099  0.2299  0.4396 -0.1281
37957SOL    HW216125   7.595   9.530   5.050 -1.1326  2.5127 -0.7761
37958SOL     OW16126   6.038   5.261   3.390 -0.1584  0.0715  0.1322
37958SOL    HW116127   6.008   5.170   3.383 -0.7627  0.3003 -0.3051
37958SOL    HW216128   5.986   5.309   3.326  1.0164  0.5227 -0.5361
37959SOL     OW16129   8.545   5.059   5.404  0.1268 -0.3040  1.0901
37959SOL    HW116130   8.622   5.073   5.460 -0.9644 -0.2343  2.6568
37959SOL    HW216131   8.476   5.030   5.464 -0.7552 -1.5822 -0.4526
37960SOL     OW16132   1.425   9.128   7.308  0.9446  0.3442  0.0826
37960SOL    HW116133   1.457   9.184   7.379  0.1094  0.0482  0.7165
37960SOL    HW216134   1.388   9.189   7.244 -1.9689  0.5609  1.7475
37961SOL     OW16135   4.884  10.109   3.568  0.2236  0.4209 -0.1029
37961SOL    HW116136   4.790  10.095   3.552  0.6920 -0.7186 -2.2166
37961SOL    HW216137   4.902  10.196   3.533 -0.1446  0.9811  1.0252
37962SOL     OW16138   8.361   8.866   0.344 -0.3130 -0.5448 -0.0443
37962SOL    HW116139   8.428   8.803   0.320 -1.2497 -1.5356 -0.1568
37962SOL    HW216140   8.282   8.835   0.299 -0.3077  2.0372 -2.0379
37963SOL     OW16141   1.643   4.581   5.973  0.6792  0.2806  0.1986
37963SOL    HW116142   1.713   4.638   5.941  1.5623  0.2057  1.9067
37963SOL    HW216143   1.585   4.638   6.022  0.4908  0.0350  0.2653
37964SOL     OW16144   3.840   1.203   3.429  0.1330 -0.5739 -0.0839
37964SOL    HW116145   3.844   1.219   3.334  1.6766 -1.2435 -0.1496
37964SOL    HW216146   3.747   1.214   3.450 -0.1763  0.0536 -1.5840
37965SOL     OW16147   4.919   5.086   8.282  0.0853  0.1624  0.3858
37965SOL    HW116148   4.984   5.110   8.216 -0.3988 -1.2774 -0.6779
37965SOL    HW216149   4.905   4.992   8.268 -1.3549  0.2060  1.3628
37966SOL     OW16150   3.499   6.859   5.375  0.0506  0.1804 -0.0995
37966SOL    HW116151   3.419   6.898   5.339  0.0167 -0.8579 -1.2120
37966SOL    HW216152   3.469   6.779   5.418  0.2222  0.9256  1.4788
37967SOL     OW16153   5.194   7.251   8.749  0.6460 -0.0841 -0.1106
37967SOL    HW116154   5.255   7.271   8.678  1.1403 -1.0216  0.0305
37967SOL    HW216155   5.108   7.251   8.708  0.9067 -0.3648 -0.6618
37968SOL     OW16156   9.184   2.455  10.240 -0.3495  0.0861  0.5213
37968SOL    HW116157   9.127   2.509  10.294 -0.9042  1.4520 -1.3267
37968SOL    HW216158   9.126   2.392  10.199 -0.1315 -0.1173  0.5215
37969SOL     OW16159   8.752   2.708   2.663 -0.4282  1.1868  0.4817
37969SOL    HW116160   8.745   2.785   2.606 -1.1956  1.2938  0.7059
37969SOL    HW216161   8.772   2.636   2.603 -1.3714  1.2725  0.0358
37970SOL     OW16162   4.203   2.802   3.785  0.0773  0.2146 -0.1205
37970SOL    HW116163   4.113   2.797   3.817  0.4491 -0.0623  0.9239
37970SOL    HW216164   4.220   2.714   3.750  0.8227 -0.6813  2.2406
37971SOL     OW16165   7.095   6.687   5.576  0.5704 -0.1460  0.1604
37971SOL    HW116166   7.187   6.692   5.603  0.0674  1.2352  1.7805
37971SOL    HW216167   7.058   6.617   5.629  0.4282  0.0218  0.2798
37972SOL     OW16168   8.239   5.556   8.522 -0.5781 -0.4848 -0.7348
37972SOL    HW116169   8.283   5.553   8.607  0.7774 -0.8112 -1.4086
37972SOL    HW216170   8.210   5.647   8.513  1.1548  0.1022 -0.8107
37973SOL     OW16171   3.290   4.240   8.988  0.2245 -0.1725 -0.4725
37973SOL    HW116172   3.286   4.302   8.915 -2.7440 -0.6501 -0.8309
37973SOL    HW216173   3.283   4.294   9.066  0.3628  0.1295 -0.6666
37974SOL     OW16174   3.408   3.677   2.156 -0.0723 -0.0693  0.1550
37974SOL    HW116175   3.387   3.670   2.249  0.2559 -1.4417  0.1330
37974SOL    HW216176   3.487   3.625   2.144 -1.5095 -2.0419 -1.3344
37975SOL     OW16177  10.404   7.716   8.849 -0.0908  0.3221 -0.4584
37975SOL    HW116178  10.496   7.713   8.873  0.4867 -1.5142 -2.6119
37975SOL    HW216179  10.362   7.652   8.906 -0.0838  1.2289  0.5909
37976SOL     OW16180   7.104   7.740  10.102 -0.1419  0.0294  0.3140
37976SOL    HW116181   7.128   7.659  10.146 -0.0395  0.4116  0.9732
37976SOL    HW216182   7.066   7.712  10.019 -1.8895 -0.7980  1.3344
37977SOL     OW16183   7.991   3.620   3.722 -0.5811 -0.1424  0.5842
37977SOL    HW116184   7.920   3.561   3.746 -0.3484 -1.2944 -1.2795
37977SOL    HW216185   8.061   3.562   3.693  0.5935  1.0098  1.0230
37978SOL     OW16186   6.644   0.803   2.217 -0.7074  0.1855  0.1609
37978SOL    HW116187   6.636   0.775   2.308  0.4688  1.6245  0.7437
37978SOL    HW216188   6.676   0.725   2.171 -0.9368 -0.4430  1.0453
37979SOL     OW16189   4.444   1.013   3.859  0.3772  0.1098 -0.1818
37979SOL    HW116190   4.421   0.920   3.847  1.6994 -0.0823 -1.4329
37979SOL    HW216191   4.387   1.042   3.930 -0.6248 -1.4549 -0.2839
37980SOL     OW16192   3.404   7.163   7.288  0.1888 -0.3954 -0.1285
37980SOL    HW116193   3.487   7.121   7.313  0.3711  0.2734  0.3915
37980SOL    HW216194   3.428   7.219   7.214  0.5984  1.2568  1.2091
37981SOL     OW16195   3.339   5.183   2.858 -0.3387  0.1664  0.1448
37981SOL    HW116196   3.425   5.205   2.894 -0.1279 -0.7314  0.2203
37981SOL    HW216197   3.357   5.118   2.790 -0.9916 -0.4290  0.5275
37982SOL     OW16198   2.000   9.527   3.794 -0.0694 -0.1444 -0.3969
37982SOL    HW116199   2.070   9.585   3.824 -0.0968 -0.2557 -0.1164
37982SOL    HW216200   1.942   9.585   3.744 -1.6769  0.7710  2.3208
37983SOL     OW16201   1.993   0.173   2.487  0.1847  0.0685 -0.4150
37983SOL    HW116202   2.059   0.206   2.548 -1.8635 -0.0795  2.0353
37983SOL    HW216203   2.035   0.098   2.445  1.8806  0.5235  0.3590
37984SOL     OW16204   4.921   8.669   0.982  0.4336 -0.1845 -0.4333
37984SOL    HW116205   4.866   8.591   0.978  1.4870 -0.9164 -1.0184
37984SOL    HW216206   4.860   8.740   1.000 -0.5608 -1.1196  0.0112
37985SOL     OW16207   9.474   0.559   5.509 -0.1940 -0.3461 -0.1426
37985SOL    HW116208   9.558   0.577   5.465  0.0043 -0.6606  0.0991
37985SOL    HW216209   9.430   0.643   5.512  0.6877  0.1110  0.9307
37986SOL     OW16210   7.950   5.916   8.665 -0.1935  0.2812  0.0500
37986SOL    HW116211   7.881   5.931   8.601 -0.6752  1.3136  0.7857
37986SOL    HW216212   7.919   5.843   8.718 -0.4511  0.3590  0.0066
37987SOL     OW16213   7.679   4.524   6.582 -0.7753  0.2205  0.1524
37987SOL    HW116214   7.713   4.483   6.662 -0.9051 -0.2283 -0.0208
37987SOL    HW216215   7.596   4.564   6.610  0.4270  2.3652  0.8684
37988SOL     OW16216   8.402   1.240  10.277  0.4182 -0.3838 -0.5341
37988SOL    HW116217   8.308   1.240  10.293  0.1561  1.6821 -1.6962
37988SOL    HW216218   8.419   1.154  10.237 -0.8433 -1.0014  0.1847
37989SOL     OW16219   9.977   6.586   3.692  0.0479  0.3742 -0.7750
37989SOL    HW116220   9.892   6.563   3.729  0.0040  0.7331 -0.6527
37989SOL    HW216221  10.026   6.504   3.694  0.5451  0.6584  1.4197
37990SOL     OW16222   6.048   7.765   2.879 -0.1249 -0.6397 -0.3817
37990SOL    HW116223   6.124   7.774   2.823 -0.7043  1.5652 -0.9258
37990SOL    HW216224   6.021   7.673   2.870  1.9308 -1.2393 -0.8103
37991SOL     OW16225   9.090   9.851   9.917 -0.3448  0.0329  0.2911
37991SOL    HW116226   9.048   9.914   9.859  1.0227  1.2947  0.5820
37991SOL    HW216227   9.076   9.886  10.005 -2.1908 -1.7324  0.7596
37992SOL     OW16228   7.613   5.624   7.758  0.3514 -0.4671  0.3108
37992SOL    HW116229   7.559   5.630   7.837 -0.0539  0.4455 -0.0185
37992SOL    HW216230   7.606   5.532   7.731  0.8527 -0.8962  1.5633
37993SOL     OW16231   1.846   0.175  10.045  0.2771  0.0773 -0.3750
37993SOL    HW116232   1.828   0.173  10.139  0.4773  2.5283 -0.2309
37993SOL    HW216233   1.939   0.151  10.037  0.4079  0.4342  0.0942
37994SOL     OW16234   1.056   1.994   7.133  0.1411  0.0556  0.0356
37994SOL    HW116235   1.011   2.002   7.217  0.5714  1.1198  0.1757
37994SOL    HW216236   0.987   1.971   7.071  0.0134 -2.1144  0.8846
37995SOL     OW16237   3.519   9.398   8.554 -0.1590  0.0302 -0.5336
37995SOL    HW116238   3.598   9.452   8.546 -0.4190  0.3733 -0.7962
37995SOL    HW216239   3.552   9.312   8.582  0.0789  0.8081  1.7198
37996SOL     OW16240  10.444   1.616   9.086 -0.7109  0.0144  0.3160
37996SOL    HW116241  10.416   1.661   9.166 -0.0053  1.6409 -0.3170
37996SOL    HW216242  10.460   1.686   9.023 -0.8737 -1.2142 -1.1492
37997SOL     OW16243   4.011   8.503  10.273  1.1760  0.0115 -0.6320
37997SOL    HW116244   3.982   8.412  10.282  0.8781 -0.0830 -2.3481
37997SOL    HW216245   4.104   8.497  10.254  1.5160  0.1590  0.8629
37998SOL     OW16246   6.971   6.969   6.234 -0.0594  0.2610 -0.5489
37998SOL    HW116247   7.042   6.972   6.299  0.4512 -0.0389 -1.0883
37998SOL    HW216248   6.933   6.882   6.245 -0.3505  0.4228 -0.2578
37999SOL     OW16249   8.074   6.288   4.889 -0.0495 -0.1462  0.1876
37999SOL    HW116250   7.986   6.255   4.871 -0.4013  0.3986  0.8805
37999SOL    HW216251   8.108   6.311   4.802 -1.3600  1.5310  0.0514
38000SOL     OW16252  10.628  10.434   9.859  0.4440 -0.3859 -0.4233
38000SOL    HW116253  10.661  10.345   9.848 -0.1062 -0.3985 -2.5261
38000SOL    HW216254  10.699  10.490   9.828  0.1649 -0.2013 -0.7427
38001SOL     OW16255   2.747   6.166   2.803 -0.0802  0.2960  0.1525
38001SOL    HW116256   2.841   6.185   2.794 -0.3182  0.7313 -1.7348
38001SOL    HW216257   2.704   6.245   2.770 -1.0895 -0.7638 -1.1577
38002SOL     OW16258   1.567  10.142   2.919  0.3591  0.0816 -0.3597
38002SOL    HW116259   1.581  10.051   2.894 -1.8720  0.1797 -2.2846
38002SOL    HW216260   1.642  10.189   2.882  1.2420 -0.8710  0.1696
38003SOL     OW16261  10.462   2.550   2.916  0.1885  0.1316  0.1570
38003SOL    HW116262  10.448   2.642   2.894  2.6763  1.1067  2.0996
38003SOL    HW216263  10.524   2.552   2.989 -1.0999 -3.0496  1.5510
38004SOL     OW16264   1.371   3.744   3.533 -0.0211 -0.4249  0.0840
38004SOL    HW116265   1.288   3.776   3.498 -0.2511 -0.7281  0.3440
38004SOL    HW216266   1.429   3.738   3.457 -0.2071 -0.1143 -0.0819
38005SOL     OW16267   8.549   7.473   5.180 -1.0659  0.4408  0.1865
38005SOL    HW116268   8.640   7.445   5.169 -0.9528  1.2133 -0.9290
38005SOL    HW216269   8.538   7.479   5.275  0.8637  2.8529  0.3697
38006SOL     OW16270   1.005   3.771   8.216 -0.0698 -0.0211  0.2734
38006SOL    HW116271   1.070   3.745   8.151 -0.6393  2.5715 -1.5147
38006SOL    HW216272   0.940   3.701   8.214  1.5877 -1.6635  0.6288
38007SOL     OW16273   7.021  10.610   7.343  0.3935  0.3351 -0.1182
38007SOL    HW116274   7.008  10.584   7.435 -1.2451 -0.7158 -0.5984
38007SOL    HW216275   7.008  10.705   7.343  1.3385  0.4893  0.8614
38008SOL     OW16276   9.869   1.133   9.570 -0.6779 -0.0202 -0.4317
38008SOL    HW116277   9.841   1.044   9.551  0.4516 -0.1594 -1.5470
38008SOL    HW216278   9.871   1.177   9.485  0.3868  0.5873 -0.1104
38009SOL     OW16279   6.753   6.738   4.167 -0.7101 -0.1192  0.1753
38009SOL    HW116280   6.826   6.799   4.156  0.0021 -0.9373  0.2439
38009SOL    HW216281   6.713   6.732   4.080 -0.5801  0.1863  0.0929
38010SOL     OW16282   0.948   0.137   7.027  0.1897 -0.0446  0.6481
38010SOL    HW116283   0.871   0.192   7.015 -0.1675  0.2230  3.4210
38010SOL    HW216284   1.009   0.164   6.958 -0.9574  2.0204  0.3779
38011SOL     OW16285   4.333   0.128   6.335 -0.5710  0.1079  0.0645
38011SOL    HW116286   4.397   0.151   6.402  1.0239 -0.2777 -1.2549
38011SOL    HW216287   4.315   0.035   6.350 -1.3241  0.3605  0.8113
38012SOL     OW16288   4.140   3.506   7.095  0.2878 -0.0897  0.4732
38012SOL    HW116289   4.082   3.576   7.123  0.2580  0.5691 -1.0985
38012SOL    HW216290   4.210   3.551   7.047 -0.1753 -1.1619 -1.3053
38013SOL     OW16291   9.413   4.548   3.954  0.7417  0.2559 -0.0414
38013SOL    HW116292   9.458   4.474   3.994  2.6854  0.7763 -1.1570
38013SOL    HW216293   9.433   4.622   4.011 -0.0829  0.1964  0.3387
38014SOL     OW16294   4.790   8.863   4.314  0.2577 -0.6062  0.7277
38014SOL    HW116295   4.758   8.781   4.351 -2.1898 -0.0216  0.1576
38014SOL    HW216296   4.763   8.930   4.377  0.8928 -0.0979  0.4714
38015SOL     OW16297   3.992   5.425   5.167 -0.1078 -0.2389  0.1976
38015SOL    HW116298   4.001   5.488   5.239  1.6785 -0.5558  0.2969
38015SOL    HW216299   4.036   5.346   5.198 -0.5622 -0.8661 -0.7111
38016SOL     OW16300   7.605   0.363   6.228 -0.0165 -0.3009 -0.3124
38016SOL    HW116301   7.541   0.362   6.156 -0.0841  0.1322 -0.2583
38016SOL    HW216302   7.570   0.427   6.290  0.8112  0.4342 -0.5889
38017SOL     OW16303   5.342  10.079   3.002  0.1925  0.2819 -0.4981
38017SOL    HW116304   5.293  10.021   3.060  0.1470  0.7463 -0.0677
38017SOL    HW216305   5.423  10.098   3.049  0.6842 -0.2857 -1.1027
38018SOL     OW16306   2.197   9.967   7.296  0.6971  0.1762  0.2433
38018SOL    HW116307   2.250   9.999   7.369 -0.3485 -1.0766  1.6267
38018SOL    HW216308   2.255   9.908   7.248  1.1303  0.2936  0.6163
38019SOL     OW16309   8.294   0.415   9.242 -0.6085 -0.0331 -0.4520
38019SOL    HW116310   8.237   0.342   9.216 -0.1149 -0.6823  0.2642
38019SOL    HW216311   8.248   0.493   9.211 -2.0647 -0.5174  0.4130
38020SOL     OW16312   6.641   1.420   3.633 -0.1183 -0.4382  0.5361
38020SOL    HW116313   6.600   1.506   3.626  1.4910  0.2707 -0.5326
38020SOL    HW216314   6.735   1.437   3.632  0.2342 -2.1767  0.7375
38021SOL     OW16315   6.064   3.737   9.047 -0.0280 -0.1466 -0.3486
38021SOL    HW116316   6.086   3.664   8.990 -0.3229 -1.0072  0.6152
38021SOL    HW216317   6.148   3.780   9.066  0.1156 -0.0961 -1.0934
38022SOL     OW16318   3.033   1.068   8.776  0.5498 -0.3427  0.1266
38022SOL    HW116319   3.059   1.155   8.747  2.5805 -0.8862  0.2058
38022SOL    HW216320   2.999   1.081   8.864 -1.8428  0.7214 -0.8411
38023SOL     OW16321   9.635   8.819   3.764 -0.4005 -0.2306  0.7335
38023SOL    HW116322   9.706   8.801   3.704 -1.5178 -1.2599 -0.3344
38023SOL    HW216323   9.566   8.857   3.710 -2.3394 -3.3097  0.7493
38024SOL     OW16324   5.458   0.350   9.787  0.2868  0.1751  0.0543
38024SOL    HW116325   5.541   0.341   9.834  1.2667 -0.5681 -1.7142
38024SOL    HW216326   5.474   0.311   9.701 -1.8168  0.2773 -0.4594
38025SOL     OW16327   4.047   7.614  10.408  0.5352 -0.3407 -0.2896
38025SOL    HW116328   3.980   7.683  10.408  0.1277 -0.7337 -0.1975
38025SOL    HW216329   4.046   7.579  10.319  0.8732 -0.1094 -0.3886
38026SOL     OW16330   0.250   5.176   0.211  0.3794  0.0209 -0.1573
38026SOL    HW116331   0.309   5.239   0.252  0.8418 -0.2523 -0.3919
38026SOL    HW216332   0.225   5.218   0.128  0.8486 -0.1810 -0.4087
38027SOL     OW16333   1.379   8.587   8.005 -0.3340 -0.0535  0.1567
38027SOL    HW116334   1.440   8.652   8.039  0.1789  0.0509 -0.9317
38027SOL    HW216335   1.411   8.504   8.041 -0.2432  0.1382  0.5241
38028SOL     OW16336   5.887   1.074   3.794 -0.8084  0.2248 -0.3268
38028SOL    HW116337   5.968   1.024   3.789 -1.7213 -1.4001  0.3556
38028SOL    HW216338   5.896   1.128   3.872 -1.5280 -2.1936  1.5404
38029SOL     OW16339   9.138  10.040   6.057 -0.0907 -0.0385 -0.0833
38029SOL    HW116340   9.137   9.948   6.031  0.7558  0.3489 -1.5664
38029SOL    HW216341   9.086  10.042   6.137 -0.2036 -1.7880 -0.0679
38030SOL     OW16342   5.077   5.411   2.182  0.3062  0.7883  0.6894
38030SOL    HW116343   5.029   5.406   2.099  0.7843  1.4619  0.3644
38030SOL    HW216344   5.061   5.500   2.213  1.5541  1.1201  0.4363
38031SOL     OW16345   2.800   9.281   1.254 -0.0052 -0.3545 -0.5464
38031SOL    HW116346   2.861   9.283   1.327  0.8285  0.3698 -1.2361
38031SOL    HW216347   2.715   9.302   1.292  0.6060  1.1580  0.0458
38032SOL     OW16348   3.460   2.762   1.235  0.2753 -0.3180 -0.2607
38032SOL    HW116349   3.374   2.804   1.229 -0.4107 -1.5134  0.8098
38032SOL    HW216350   3.478   2.732   1.146  0.3865  1.4111 -0.8631
38033SOL     OW16351   5.219   1.052   5.951 -0.8137 -0.1885 -0.0115
38033SOL    HW116352   5.303   1.070   5.908 -1.4406 -0.9506 -1.5875
38033SOL    HW216353   5.244   1.010   6.033  0.3340 -1.3478 -0.9136
38034SOL     OW16354   0.652  10.387   8.163  0.0607  0.0556  0.3483
38034SOL    HW116355   0.613  10.349   8.241 -1.7683  0.3062 -0.4074
38034SOL    HW216356   0.699  10.464   8.195 -0.9339  0.3434  1.1617
38035SOL     OW16357   1.658   0.618   4.502  0.0379 -0.2853 -0.3917
38035SOL    HW116358   1.688   0.648   4.588  1.0703  0.1945 -0.8906
38035SOL    HW216359   1.596   0.684   4.473 -1.7849 -1.4085  0.7588
38036SOL     OW16360   5.067   6.179   8.376  0.1832  0.0047  0.1302
38036SOL    HW116361   5.123   6.251   8.405  2.2148 -1.2746 -0.4495
38036SOL    HW216362   5.057   6.192   8.282  0.6344 -0.4912  0.0062
38037SOL     OW16363   7.337   8.305   5.455  0.6946 -0.2328  0.1901
38037SOL    HW116364   7.251   8.326   5.490  0.4702 -0.1340 -0.4076
38037SOL    HW216365   7.396   8.308   5.531  0.5043  1.5431  0.3062
38038SOL     OW16366   2.286   4.789   2.872  0.0228 -0.2072  0.0928
38038SOL    HW116367   2.202   4.771   2.830 -0.2274 -2.4330  1.3795
38038SOL    HW216368   2.351   4.767   2.806 -0.3857 -2.4038  0.3223
38039SOL     OW16369   2.948   3.257   6.831 -0.1178 -0.0839 -0.1267
38039SOL    HW116370   2.971   3.342   6.869  1.4348 -1.1207  1.4136
38039SOL    HW216371   2.899   3.212   6.901  0.9976 -1.2605 -0.0742
38040SOL     OW16372   0.243  10.332   2.630 -0.3015 -0.2681  0.7205
38040SOL    HW116373   0.229  10.378   2.713 -2.0386  0.4440  0.0845
38040SOL    HW216374   0.179  10.371   2.570  1.0308 -0.6248 -1.0251
38041SOL     OW16375   0.719   4.208   5.444 -0.3649 -0.5684 -0.1180
38041SOL    HW116376   0.701   4.265   5.519  1.8930  0.1943 -0.0558
38041SOL    HW216377   0.657   4.236   5.377  1.9799  3.7339 -0.8841
38042SOL     OW16378   0.407   7.032   2.288  0.0243 -0.2454 -0.0634
38042SOL    HW116379   0.370   7.087   2.357  0.3263 -0.6279  0.4133
38042SOL    HW216380   0.399   6.943   2.322  1.8535 -0.3126  0.3194
38043SOL     OW16381   4.066   0.211   8.891  0.4468  0.0313  0.5935
38043SOL    HW116382   4.056   0.178   8.802 -0.4174 -0.1447  0.7485
38043SOL    HW216383   4.080   0.305   8.880  0.5611 -0.0256  0.2586
38044SOL     OW16384   6.692   7.045   0.459  0.3508  0.2311  0.3497
38044SOL    HW116385   6.681   7.115   0.524  2.5472  0.3854  0.6289
38044SOL    HW216386   6.709   7.091   0.377  1.4315  0.0423  0.4605
38045SOL     OW16387  10.563   7.766   3.385 -0.2271 -0.2748  0.3636
38045SOL    HW116388  10.585   7.747   3.293 -0.9828  1.7367 -0.2950
38045SOL    HW216389  10.591   7.857   3.397  0.0928 -0.5859  2.2397
38046SOL     OW16390   7.406   3.495   9.165  0.1802  0.0539  0.1239
38046SOL    HW116391   7.481   3.485   9.106  0.0078  1.2544 -0.3154
38046SOL    HW216392   7.442   3.483   9.252  0.7036 -0.3332 -0.1384
38047SOL     OW16393  10.128   8.309   5.591 -0.4840  0.1751 -0.2137
38047SOL    HW116394  10.079   8.246   5.539 -0.3721 -0.2448  0.1894
38047SOL    HW216395  10.218   8.277   5.590 -0.9121 -1.3141  2.4184
38048SOL     OW16396   6.890   6.755   8.183  0.1031  0.2761 -0.2248
38048SOL    HW116397   6.852   6.700   8.252 -1.3285 -1.6520 -2.4083
38048SOL    HW216398   6.857   6.843   8.201 -0.9020 -0.3378  1.0749
38049SOL     OW16399   3.265   6.813   7.459 -0.6987  0.2567  0.2475
38049SOL    HW116400   3.235   6.764   7.382 -1.7720 -0.7864  1.2979
38049SOL    HW216401   3.359   6.824   7.444 -0.6181 -1.1701 -0.5592
38050SOL     OW16402   3.995   7.926   4.036 -0.4901  0.5265  0.1278
38050SOL    HW116403   4.065   7.894   4.094 -0.2577  0.5610 -0.1315
38050SOL    HW216404   4.031   8.005   3.997 -0.7308  0.6215  0.1005
38051SOL     OW16405   0.801   0.629  10.569  0.4808 -0.1472  0.0675
38051SOL    HW116406   0.829   0.593  10.652 -1.3676  2.8228  2.1774
38051SOL    HW216407   0.706   0.617  10.568  0.2894  1.1531 -0.8943
38052SOL     OW16408   1.641  10.631   3.767  0.2277  0.3794 -0.5047
38052SOL    HW116409   1.551  10.604   3.751  0.0811  0.1937  0.5412
38052SOL    HW216410   1.638  10.727   3.765  0.0335  0.3708 -0.5943
38053SOL     OW16411  10.187   2.444   0.170  0.0071  0.3711  0.4894
38053SOL    HW116412  10.133   2.371   0.141  0.8366 -0.5305  1.1673
38053SOL    HW216413  10.273   2.406   0.187  1.1640  1.9328 -1.4450
38054SOL     OW16414   4.790   9.536   8.155 -0.1638 -0.1248  0.2332
38054SOL    HW116415   4.760   9.487   8.079  1.5022 -0.3225 -0.3280
38054SOL    HW216416   4.791   9.627   8.127  0.4440 -0.1970  0.0238
38055SOL     OW16417   1.220   6.754   4.567  0.2645 -0.5960 -0.0900
38055SOL    HW116418   1.185   6.812   4.499 -2.7632 -0.1705  1.6550
38055SOL    HW216419   1.174   6.671   4.554  0.7505 -0.9740  0.5664
38056SOL     OW16420   5.027   5.079   2.713 -0.1559 -0.0110 -0.2921
38056SOL    HW116421   5.112   5.079   2.758 -0.4517 -1.8886  0.3902
38056SOL    HW216422   5.008   5.171   2.697  0.6258  0.6544  2.1915
38057SOL     OW16423   1.738   9.305   9.396 -0.3583 -0.0645 -0.3223
38057SOL    HW116424   1.738   9.210   9.386  0.5003 -0.0986 -0.1010
38057SOL    HW216425   1.669   9.336   9.338 -1.6696 -0.9358  0.7194
38058SOL     OW16426   8.608   2.441   8.089  0.0716  0.4064  0.3574
38058SOL    HW116427   8.601   2.478   8.001  1.2127 -1.5731 -0.6172
38058SOL    HW216428   8.694   2.467   8.120  0.0514  0.2917  0.5121
38059SOL     OW16429   2.490   9.834   3.994 -0.0762  0.4417 -0.2110
38059SOL    HW116430   2.407   9.882   3.983 -1.1285 -1.1054  0.5644
38059SOL    HW216431   2.555   9.889   3.950 -1.6604  1.2618 -1.6964
38060SOL     OW16432   7.402   6.823   6.628  0.2799  0.2190 -0.2957
38060SOL    HW116433   7.416   6.904   6.676  0.8388 -0.0756  0.0590
38060SOL    HW216434   7.487   6.778   6.633 -0.3047 -0.8473  0.4067
38061SOL     OW16435   7.591   4.636   5.393 -0.1607  0.1619 -0.5902
38061SOL    HW116436   7.650   4.576   5.437 -0.4868  1.4337  1.7591
38061SOL    HW216437   7.548   4.684   5.464 -1.8002  1.3658 -2.2850
38062SOL     OW16438   3.507  10.331  10.123 -0.5858  0.0082 -0.2597
38062SOL    HW116439   3.526  10.264  10.057  0.4789 -1.2411  1.2578
38062SOL    HW216440   3.455  10.285  10.189  0.5462  0.5403  1.0329
38063SOL     OW16441   7.239  10.008   0.075 -0.3026  0.1726  0.3604
38063SOL    HW116442   7.162  10.009   0.132 -0.7223  1.8710 -0.2008
38063SOL    HW216443   7.309   9.973   0.131 -1.5766 -2.1029  0.6731
38064SOL     OW16444   6.921   4.757   1.774  0.5521 -0.3251  0.5170
38064SOL    HW116445   6.882   4.735   1.689 -1.0409 -0.3289  1.2117
38064SOL    HW216446   6.934   4.672   1.816  0.9075 -0.2984  0.4607
38065SOL     OW16447   7.274   4.231   0.332  0.3890 -0.1925  0.3171
38065SOL    HW116448   7.215   4.236   0.407 -1.7277  0.1358 -1.2952
38065SOL    HW216449   7.361   4.243   0.370 -0.6102  0.0784  2.6972
38066SOL     OW16450   1.921   7.236   2.380  0.1605  0.4792  0.3486
38066SOL    HW116451   2.017   7.232   2.381  0.2359  1.8638  0.1457
38066SOL    HW216452   1.897   7.256   2.471  0.0975  0.6762  0.2894
38067SOL     OW16453   6.709  10.413  10.048  0.3618  0.2484  0.0344
38067SOL    HW116454   6.658  10.421  10.128 -1.3546  1.1046 -1.0848
38067SOL    HW216455   6.706  10.501  10.009  2.6408  0.3129 -0.1376
38068SOL     OW16456   2.521   5.332   9.458  0.1865  0.2361 -0.0644
38068SOL    HW116457   2.482   5.377   9.532  0.7903  2.8180 -1.2120
38068SOL    HW216458   2.447   5.299   9.408 -0.4187  1.9240 -0.3272
38069SOL     OW16459  10.300   2.635  10.603  0.3319 -0.3809  0.0229
38069SOL    HW116460  10.270   2.594  10.684  1.2922 -0.4196  0.3837
38069SOL    HW216461  10.222   2.646  10.550 -0.3566 -0.1306  1.0613
38070SOL     OW16462   5.373   0.113   5.355  0.3513  0.1006  0.3265
38070SOL    HW116463   5.353   0.147   5.443 -1.9387 -0.6108  0.1361
38070SOL    HW216464   5.305   0.149   5.299  1.5192  0.1780 -1.1210
38071SOL     OW16465   6.634   6.296   7.678  0.3790  0.1089  0.7566
38071SOL    HW116466   6.627   6.389   7.695 -0.5257  0.3878 -0.9263
38071SOL    HW216467   6.554   6.258   7.715 -0.3213  0.3386 -0.4813
38072SOL     OW16468   5.999   5.546   1.884  0.6189  0.2085 -0.1104
38072SOL    HW116469   6.017   5.597   1.962 -0.5145 -0.7628  0.8288
38072SOL    HW216470   6.020   5.456   1.909  1.2910  0.0087 -1.2943
38073SOL     OW16471   8.642   5.883   4.833  0.2428 -0.1393 -0.0744
38073SOL    HW116472   8.628   5.929   4.915 -1.8351 -0.2152 -0.3493
38073SOL    HW216473   8.604   5.940   4.766  1.8924 -0.0764 -1.0364
38074SOL     OW16474   4.636   9.092   2.965 -0.0646 -0.2760  0.6058
38074SOL    HW116475   4.655   9.010   2.919 -2.6077 -1.3546  1.2800
38074SOL    HW216476   4.658   9.074   3.056  2.4882  0.9752  0.3013
38075SOL     OW16477   6.400   2.406   7.736 -0.4300  0.2685 -0.3592
38075SOL    HW116478   6.440   2.493   7.735  0.1806  0.0082 -2.3158
38075SOL    HW216479   6.335   2.408   7.666 -1.2733 -0.4821  0.3801
38076SOL     OW16480   1.998   6.928   5.977 -0.4593 -0.0097  0.3011
38076SOL    HW116481   1.949   6.990   5.923 -2.7859 -1.4443  0.6172
38076SOL    HW216482   2.088   6.957   5.971 -1.2675  2.5960 -0.6268
38077SOL     OW16483   6.459  10.420   4.488  0.8047 -0.4848 -0.1333
38077SOL    HW116484   6.395  10.412   4.418  0.4371  0.1845  0.1156
38077SOL    HW216485   6.407  10.433   4.567  1.2405  0.0524  0.0741
38078SOL     OW16486   8.633   7.698   2.684 -1.0330 -0.6746  0.2170
38078SOL    HW116487   8.686   7.622   2.709 -0.5192 -0.8212 -1.2222
38078SOL    HW216488   8.697   7.764   2.657 -1.5104  0.0107  0.7036
38079SOL     OW16489   9.100   7.485   6.906 -0.2697 -0.2518 -0.2494
38079SOL    HW116490   9.073   7.527   6.824 -0.6724  0.3606  0.1889
38079SOL    HW216491   9.086   7.552   6.973  1.3870 -0.2595  0.1412
38080SOL     OW16492   1.559  10.084   6.186 -0.4694  0.6339 -0.5415
38080SOL    HW116493   1.631  10.034   6.147 -1.1573 -1.4137  0.6465
38080SOL    HW216494   1.597  10.122   6.265 -0.0131  1.8299 -1.3130
38081SOL     OW16495   1.807   7.938   4.872 -0.1927 -0.7260 -0.2547
38081SOL    HW116496   1.832   7.858   4.919 -1.9940 -0.8909  0.5022
38081SOL    HW216497   1.731   7.912   4.819 -1.1589  0.5902  0.4371
38082SOL     OW16498   3.877   9.401   1.990 -0.2439  0.1589  0.7349
38082SOL    HW116499   3.886   9.482   1.940 -2.0125  0.2740  0.5320
38082SOL    HW216500   3.796   9.413   2.040  0.8323 -0.4500  2.7167
38083SOL     OW16501   7.234   2.595   3.093 -0.0997  0.2791  0.1139
38083SOL    HW116502   7.146   2.593   3.056 -0.4764  1.0168  0.9130
38083SOL    HW216503   7.283   2.654   3.035  0.2619 -1.1595 -1.0950
38084SOL     OW16504   6.107   5.308   3.010 -0.9768 -0.0310 -0.0808
38084SOL    HW116505   6.148   5.229   3.043 -2.9612 -0.7750  0.7746
38084SOL    HW216506   6.052   5.339   3.083 -1.4917  1.1952 -0.9534
38085SOL     OW16507   0.959   7.461   5.231  0.0898  0.0665 -0.2537
38085SOL    HW116508   1.033   7.458   5.171 -0.3904  1.0919 -0.9389
38085SOL    HW216509   0.914   7.543   5.209 -1.0815 -0.3893  0.3410
38086SOL     OW16510   2.161   9.906   1.625  0.3196  0.4869  0.0779
38086SOL    HW116511   2.085   9.885   1.679 -0.0932  0.5840 -0.4625
38086SOL    HW216512   2.125   9.925   1.538  0.9718  0.3493 -0.2326
38087SOL     OW16513   3.224   4.985   4.141  0.2213  0.2743 -0.5082
38087SOL    HW116514   3.156   4.996   4.074  0.8955 -1.4579 -1.5277
38087SOL    HW216515   3.290   4.930   4.099  2.0244  1.4773  0.6482
38088SOL     OW16516   0.005   6.956   7.830  0.6366  0.2875 -0.1532
38088SOL    HW116517  -0.057   7.024   7.803  1.9563  1.4778 -0.3000
38088SOL    HW216518   0.057   6.997   7.898  1.0126 -0.8293  0.2587
38089SOL     OW16519  10.508   9.967   2.678 -0.3013  0.1517  0.9277
38089SOL    HW116520  10.498  10.051   2.723  0.4680 -0.6434  2.7027
38089SOL    HW216521  10.446   9.909   2.722 -0.7752 -0.2524 -0.2330
38090SOL     OW16522   7.594   3.504   6.333 -0.3756  0.3671  0.1967
38090SOL    HW116523   7.690   3.501   6.329 -0.4321 -1.1985 -2.6540
38090SOL    HW216524   7.573   3.597   6.323  0.9146  0.4455 -3.1832
38091SOL     OW16525   8.108   4.966   7.508  0.2107 -0.2144  0.1401
38091SOL    HW116526   8.138   5.053   7.479  0.2003 -0.1041  0.4610
38091SOL    HW216527   8.177   4.936   7.568 -0.0875 -0.1632  0.5078
38092SOL     OW16528   7.209   9.917   4.351  0.3799  0.0431  0.3124
38092SOL    HW116529   7.227   9.840   4.404  0.0483 -1.5996 -1.8543
38092SOL    HW216530   7.295   9.947   4.322  0.3497 -1.8177 -1.8892
38093SOL     OW16531  10.600   5.621   2.897  0.4156 -0.1188 -0.5455
38093SOL    HW116532  10.571   5.538   2.935  2.4274 -0.8550 -0.5272
38093SOL    HW216533  10.537   5.685   2.930 -0.5858 -1.4600  0.2682
38094SOL     OW16534   4.203   8.913   5.736 -0.6282  0.4241  0.1106
38094SOL    HW116535   4.209   8.853   5.662 -0.0696  1.0119 -0.3252
38094SOL    HW216536   4.156   8.989   5.701  0.2589  1.0068  0.1510
38095SOL     OW16537   7.659  10.457   1.954 -0.1573 -0.0088  0.4509
38095SOL    HW116538   7.670  10.412   1.870  3.4574  0.4458  0.5053
38095SOL    HW216539   7.631  10.388   2.015 -0.6517 -0.8365 -0.6828
38096SOL     OW16540   1.569   6.102   7.473  0.0816  0.2059 -0.3834
38096SOL    HW116541   1.618   6.143   7.403  0.2765 -0.3702 -0.5948
38096SOL    HW216542   1.483   6.144   7.470  0.6243  1.4055  0.1563
38097SOL     OW16543   3.252   5.537   1.207 -0.1141  0.1055  0.2221
38097SOL    HW116544   3.162   5.532   1.239  0.1327 -1.2370  0.7942
38097SOL    HW216545   3.291   5.609   1.256 -0.3935 -0.4455  1.2780
38098SOL     OW16546   9.374   3.583   9.545 -0.7757  0.5431  0.4021
38098SOL    HW116547   9.379   3.498   9.502 -1.5996 -0.3899  2.0417
38098SOL    HW216548   9.304   3.629   9.499  0.6506  0.9836 -1.4657
38099SOL     OW16549   2.657   1.759   0.216 -0.0685  0.4768 -0.2670
38099SOL    HW116550   2.622   1.717   0.137 -0.4768  0.9058 -0.3217
38099SOL    HW216551   2.731   1.811   0.184 -0.9257  1.5635 -0.5775
38100SOL     OW16552   7.610   1.186   9.068  0.3596 -0.9718  0.1136
38100SOL    HW116553   7.541   1.121   9.059 -0.1752 -0.4110  0.1542
38100SOL    HW216554   7.576   1.250   9.129 -0.4415  1.0363 -2.2797
38101SOL     OW16555   3.966   1.038   6.614  0.6964 -0.0881 -0.2966
38101SOL    HW116556   4.060   1.056   6.608  0.4310  1.9927  0.7687
38101SOL    HW216557   3.950   1.027   6.708  0.0474 -1.6174 -0.5714
38102SOL     OW16558   3.241   9.486   9.598  0.1593 -0.1340 -0.4365
38102SOL    HW116559   3.240   9.494   9.502 -0.8405 -1.1249 -0.5230
38102SOL    HW216560   3.175   9.420   9.618  2.0169 -1.7349  0.7801
38103SOL     OW16561   5.970   8.058  10.108  0.0350 -0.1000 -0.0066
38103SOL    HW116562   5.900   8.045  10.044 -0.8254 -1.7070  1.1715
38103SOL    HW216563   6.036   7.993  10.084 -0.8164 -1.5546  1.3452
38104SOL     OW16564   4.731   3.593  10.005 -0.5504 -0.1679  0.2254
38104SOL    HW116565   4.737   3.553   9.919  0.0986 -0.6053  0.4636
38104SOL    HW216566   4.649   3.643  10.003  0.5324  1.7139 -1.4263
38105SOL     OW16567   3.796   2.426   0.306  0.3081 -0.6515  0.2442
38105SOL    HW116568   3.725   2.394   0.250 -0.2083 -0.1061  0.5814
38105SOL    HW216569   3.753   2.478   0.373  0.7794 -2.3147  1.9328
38106SOL     OW16570   0.934   0.314   9.831  0.1660 -0.1629 -0.1513
38106SOL    HW116571   0.881   0.393   9.815  1.3269  0.6168 -0.2815
38106SOL    HW216572   0.918   0.293   9.923  1.2091  1.3192  0.4122
38107SOL     OW16573   2.640   5.503   7.127 -0.1204  0.0544  0.2581
38107SOL    HW116574   2.733   5.527   7.121  0.2888 -0.5376  3.0372
38107SOL    HW216575   2.637   5.432   7.191 -2.4407 -0.3933 -0.2578
38108SOL     OW16576   4.511   9.471   5.839 -0.2312  0.0788 -0.0272
38108SOL    HW116577   4.480   9.523   5.913 -2.4700  1.0000 -1.5075
38108SOL    HW216578   4.529   9.535   5.770 -1.1494 -0.9283 -1.2476
38109SOL     OW16579   2.919   9.653   5.747  0.1322 -0.1440  0.0857
38109SOL    HW116580   3.006   9.673   5.712  0.2586 -0.1683  0.3805
38109SOL    HW216581   2.927   9.670   5.841 -0.2565  0.1072  0.0737
38110SOL     OW16582   6.785   4.036   4.708 -0.2116 -0.8717 -0.1532
38110SOL    HW116583   6.744   3.952   4.730 -1.4630 -0.3381 -0.3204
38110SOL    HW216584   6.860   4.043   4.767 -0.5448 -1.7584  0.3926
38111SOL     OW16585   4.034   5.733   3.369  0.1470  0.0557  0.9311
38111SOL    HW116586   4.030   5.728   3.465  0.0117  1.4980  1.0281
38111SOL    HW216587   3.946   5.706   3.341 -0.3634  1.2019  1.3320
38112SOL     OW16588   7.051  10.510   7.588  0.5081  0.0989  0.1547
38112SOL    HW116589   7.084  10.572   7.653 -0.5049  1.7512 -0.8513
38112SOL    HW216590   6.986  10.458   7.636  1.1762 -0.0583  0.9308
38113SOL     OW16591   0.529   2.567   1.343  0.0559  0.3071  0.2160
38113SOL    HW116592   0.553   2.619   1.267 -0.2004  0.0264 -0.0646
38113SOL    HW216593   0.572   2.483   1.330 -2.1194 -0.7157 -1.0197
38114SOL     OW16594   8.594   1.022   5.055  0.7538 -0.0178  0.2262
38114SOL    HW116595   8.543   1.064   4.985 -0.0810 -2.8505 -0.9760
38114SOL    HW216596   8.538   1.031   5.133 -0.1921 -0.3938 -0.3957
38115SOL     OW16597   6.988   7.938   2.613 -0.2058 -0.0419  0.8981
38115SOL    HW116598   6.932   7.944   2.536 -0.0861  0.1274  0.8238
38115SOL    HW216599   7.077   7.938   2.579 -0.1385  0.4929  1.0591
38116SOL     OW16600   6.846   0.447   1.215 -0.5705 -0.3710  0.6435
38116SOL    HW116601   6.822   0.376   1.275 -0.9906  0.1813  1.1478
38116SOL    HW216602   6.831   0.527   1.266  1.1437  0.0525  0.5561
38117SOL     OW16603   8.580   0.695   0.543  0.1005 -0.4214  0.4603
38117SOL    HW116604   8.634   0.677   0.466  0.0801 -0.9161  0.5585
38117SOL    HW216605   8.532   0.614   0.558  1.6527 -1.0894  2.2578
38118SOL     OW16606   9.061   2.400   7.863 -0.4531  0.5902  0.1308
38118SOL    HW116607   9.148   2.440   7.866  0.5254 -1.3551 -0.4138
38118SOL    HW216608   9.001   2.473   7.878  1.0549  2.7617 -3.0101
38119SOL     OW16609   7.622   1.172   3.628  0.1327 -0.4131  0.4349
38119SOL    HW116610   7.595   1.230   3.557  0.4603  0.0624  0.6949
38119SOL    HW216611   7.683   1.224   3.680 -2.2155  0.3143  2.7105
38120SOL     OW16612   0.812   5.475   9.689 -0.1298  0.0545  0.4654
38120SOL    HW116613   0.780   5.385   9.692 -0.1348  0.0666  0.8568
38120SOL    HW216614   0.876   5.480   9.760  0.3157  0.1924  0.0580
38121SOL     OW16615   7.512   6.251  10.063  0.3178 -0.1043  0.1501
38121SOL    HW116616   7.522   6.181   9.998 -1.0691  0.7435 -1.0389
38121SOL    HW216617   7.421   6.243  10.092  0.2445  0.9941  0.2491
38122SOL     OW16618   8.143   5.414   6.026  0.0682 -0.5228  0.3006
38122SOL    HW116619   8.151   5.324   5.997 -0.7923  0.1105 -2.1287
38122SOL    HW216620   8.139   5.465   5.945  0.3157  1.6812  1.6002
38123SOL     OW16621   5.031   6.179   6.589  0.1963  0.0200  0.4824
38123SOL    HW116622   5.078   6.221   6.660  1.2960  1.6048 -1.0949
38123SOL    HW216623   4.984   6.250   6.546 -0.1061 -0.8181 -0.6325
38124SOL     OW16624   2.332   1.213   6.333  0.1054 -0.3361 -0.6150
38124SOL    HW116625   2.283   1.269   6.393 -0.0878  0.5619 -1.5757
38124SOL    HW216626   2.412   1.191   6.380 -0.2409 -0.0357  0.1377
38125SOL     OW16627   2.071   8.869   1.543  0.1719 -0.6362  0.1174
38125SOL    HW116628   2.057   8.775   1.544  0.0686 -0.6156  0.9441
38125SOL    HW216629   2.076   8.891   1.450 -1.6817 -1.1658 -0.1463
38126SOL     OW16630   3.886  10.199   6.296 -0.0538 -0.2725  0.0219
38126SOL    HW116631   3.907  10.287   6.326  0.9386 -0.7463  0.7650
38126SOL    HW216632   3.810  10.211   6.238  0.5313  1.1561 -0.4961
38127SOL     OW16633   9.626   6.936   3.955  0.0509  0.1232  0.0853
38127SOL    HW116634   9.544   6.893   3.929  0.9237 -2.3173  1.0712
38127SOL    HW216635   9.694   6.887   3.909  1.1510 -0.1002  1.8541
38128SOL     OW16636   5.941   2.506   4.275  0.0134  0.0220  0.3614
38128SOL    HW116637   5.888   2.460   4.210  0.9996  1.5428 -1.6289
38128SOL    HW216638   6.005   2.441   4.306  0.4178 -0.3750 -1.2537
38129SOL     OW16639   4.825   5.285   6.276  0.2232 -0.2685 -0.2798
38129SOL    HW116640   4.899   5.347   6.278 -0.0812  0.0966 -0.2106
38129SOL    HW216641   4.818   5.254   6.366  0.8896 -1.0281 -0.4759
38130SOL     OW16642   1.679   6.940   8.111  0.3197 -0.0230  0.0535
38130SOL    HW116643   1.627   6.999   8.057  1.8444  1.2648 -0.0853
38130SOL    HW216644   1.751   6.994   8.143 -0.7324 -0.5340  3.8132
38131SOL     OW16645   9.949   5.884   9.869  0.5735  0.1550 -0.3757
38131SOL    HW116646   9.975   5.874   9.961  1.3811  0.2004 -0.5854
38131SOL    HW216647   9.871   5.829   9.860 -0.3972  1.2950  0.6836
38132SOL     OW16648   2.003   1.491   0.995  0.6361 -0.0121  0.2040
38132SOL    HW116649   1.986   1.413   0.942  1.2094  1.2313 -1.9276
38132SOL    HW216650   2.091   1.519   0.970  0.6519  1.0306  1.3278
38133SOL     OW16651   3.798   9.403   9.828  0.3348 -0.3548  0.0518
38133SOL    HW116652   3.761   9.330   9.778  1.0875 -0.2020 -0.7649
38133SOL    HW216653   3.765   9.391   9.917  0.4841 -1.7043 -0.0592
38134SOL     OW16654   7.445   4.919   8.445  0.2736 -0.2286  0.3905
38134SOL    HW116655   7.535   4.948   8.458  0.7216 -0.2373 -2.1708
38134SOL    HW216656   7.402   4.933   8.530  2.7698 -0.6637  1.8149
38135SOL     OW16657  10.426   7.202   0.072  0.5808 -0.2380 -0.4698
38135SOL    HW116658  10.335   7.222   0.095  0.6297  0.7212 -1.0288
38135SOL    HW216659  10.456   7.281   0.026  2.0353 -0.0713  0.6846
38136SOL     OW16660   8.909   7.362   6.282 -0.4409  0.1954 -0.4562
38136SOL    HW116661   8.896   7.418   6.358 -1.1166 -0.2694 -0.2171
38136SOL    HW216662   8.856   7.284   6.301  0.5595 -0.5634 -0.7322
38137SOL     OW16663   5.309  10.114   8.232 -0.5133 -0.3264  0.4759
38137SOL    HW116664   5.303  10.165   8.312 -2.4782 -0.0030  0.1699
38137SOL    HW216665   5.218  10.105   8.202  0.0505 -1.5403 -1.0213
38138SOL     OW16666   7.565   0.935   0.407  0.0236 -0.3400 -0.6515
38138SOL    HW116667   7.510   0.962   0.481  1.9705  0.1167  0.6973
38138SOL    HW216668   7.622   1.010   0.391  0.9376 -1.1621 -1.3418
38139SOL     OW16669   0.932   0.076   9.706  0.4066  0.3527 -0.5326
38139SOL    HW116670   0.944   0.101   9.614  2.3970  1.2917 -0.0755
38139SOL    HW216671   0.919   0.159   9.752 -1.2222 -0.1596 -0.0216
38140SOL     OW16672   0.193   9.149   8.389  0.0833 -0.2054 -0.4178
38140SOL    HW116673   0.103   9.169   8.361  0.5816  1.1429 -1.1336
38140SOL    HW216674   0.245   9.154   8.309  1.1259  1.1703  0.2943
38141SOL     OW16675   7.114   3.281   4.182 -0.1326  0.4290  0.2536
38141SOL    HW116676   7.187   3.316   4.232  2.4485 -0.1922 -2.7995
38141SOL    HW216677   7.125   3.186   4.186 -3.0305  0.0206  2.6923
38142SOL     OW16678   1.190   0.939   8.863 -0.0475  0.1880 -0.0265
38142SOL    HW116679   1.285   0.944   8.865  0.0765 -1.1724 -1.1476
38142SOL    HW216680   1.164   0.995   8.790 -0.2951  2.2819  1.6001
38143SOL     OW16681   9.322   1.758   5.428  0.2670  0.2638  0.0373
38143SOL    HW116682   9.275   1.724   5.352  0.4005  0.2995 -0.0623
38143SOL    HW216683   9.284   1.844   5.444 -0.9419 -0.4416  1.0650
38144SOL     OW16684   2.917   5.695   5.699 -0.6385 -0.1463  0.0171
38144SOL    HW116685   2.983   5.755   5.734  2.2825 -3.4168  0.6458
38144SOL    HW216686   2.892   5.641   5.774  0.0436 -2.3651 -1.2652
38145SOL     OW16687   9.769   4.527   4.322  0.7158  0.5348  0.2919
38145SOL    HW116688   9.807   4.510   4.236  1.1506  2.5223  0.0316
38145SOL    HW216689   9.712   4.602   4.308 -1.3635 -0.7950  1.2238
38146SOL     OW16690   1.355   3.480   9.695  0.2407 -0.0104  0.6644
38146SOL    HW116691   1.345   3.524   9.610 -1.5542  0.0798  0.8868
38146SOL    HW216692   1.361   3.551   9.758 -2.8264  0.0480  1.0431
38147SOL     OW16693   0.088   7.632   9.472  0.8919  0.3028 -0.8576
38147SOL    HW116694   0.099   7.719   9.435  0.4249  0.5085 -0.5205
38147SOL    HW216695  -0.007   7.618   9.472  0.4495  1.7622  3.4861
38148SOL     OW16696   9.537   8.999   5.136  0.8435  0.2824 -0.4189
38148SOL    HW116697   9.568   8.957   5.216 -0.2228 -0.5166 -0.4137
38148SOL    HW216698   9.490   9.077   5.166  1.3734  0.5740 -0.3352
38149SOL     OW16699   4.025   8.998   2.148 -0.2468  0.5783  0.5162
38149SOL    HW116700   3.996   9.065   2.087 -3.1494  1.1277  2.2976
38149SOL    HW216701   4.110   9.029   2.180  0.7314  0.8972 -2.1852
38150SOL     OW16702   9.811   1.022   0.736 -0.5323  0.4354 -0.1339
38150SOL    HW116703   9.827   1.110   0.701 -1.3747  0.0028 -1.6854
38150SOL    HW216704   9.807   0.966   0.659  0.4708 -1.0704  0.8688
38151SOL     OW16705   3.358   5.884   7.325 -0.4529  0.1698  0.1120
38151SOL    HW116706   3.344   5.913   7.415 -0.9144  1.6785 -0.4071
38151SOL    HW216707   3.445   5.844   7.325  0.1865  1.5099  0.9121
38152SOL     OW16708  10.605   0.043  10.300  0.0700 -0.4698  0.4086
38152SOL    HW116709  10.568  -0.037  10.337 -0.5088 -0.1092  0.6384
38152SOL    HW216710  10.689   0.054  10.344 -0.4497 -0.2446  1.3728
38153SOL     OW16711   5.085   9.052   8.154  0.3354  0.1205 -0.1444
38153SOL    HW116712   5.095   9.146   8.142 -1.0709  0.1495 -1.3704
38153SOL    HW216713   5.057   9.042   8.245  0.6052  0.8723  0.0262
38154SOL     OW16714   9.180   3.306   3.277 -0.3580  0.2851 -0.3083
38154SOL    HW116715   9.257   3.301   3.334  0.9664  2.2354 -1.7901
38154SOL    HW216716   9.185   3.228   3.222 -0.1809 -0.2651  0.4786
38155SOL     OW16717   4.651   7.789   3.935 -0.1353 -0.6053  0.6639
38155SOL    HW116718   4.608   7.705   3.954 -0.2202 -0.7006  0.0682
38155SOL    HW216719   4.693   7.775   3.850 -3.4694  1.1874 -1.4683
38156SOL     OW16720  10.464   9.200   8.902  0.1719 -0.0541  0.0703
38156SOL    HW116721  10.479   9.280   8.852  0.5162  1.0508  1.8599
38156SOL    HW216722  10.371   9.181   8.888  0.3151  0.0302 -1.1833
38157SOL     OW16723   9.957   9.491   3.352  0.1793 -0.1386  0.2348
38157SOL    HW116724   9.925   9.474   3.440  0.5757  1.1790  0.6413
38157SOL    HW216725   9.886   9.461   3.295 -0.3980 -0.2926  1.0166
38158SOL     OW16726   8.793   9.364   0.360 -0.0585  0.4324 -0.7035
38158SOL    HW116727   8.869   9.332   0.409 -0.5520 -0.1977 -0.3424
38158SOL    HW216728   8.754   9.430   0.418 -0.7105 -0.3968 -0.1758
38159SOL     OW16729   0.877   4.375   6.327  0.6515  0.2088  0.1316
38159SOL    HW116730   0.957   4.328   6.302  1.6156  2.7021 -1.8994
38159SOL    HW216731   0.843   4.410   6.245 -0.4995  2.2576  1.4111
38160SOL     OW16732   2.488  10.545   2.013 -0.2581  0.2095 -0.4085
38160SOL    HW116733   2.503  10.479   1.945 -2.2815  0.6540 -1.3790
38160SOL    HW216734   2.442  10.498   2.082  1.8170 -0.2455  0.7257
38161SOL     OW16735   2.948   9.145   3.596  0.0539  0.4899  0.0781
38161SOL    HW116736   2.923   9.233   3.623 -0.7837  0.0760  0.7145
38161SOL    HW216737   2.931   9.091   3.673  1.7832 -0.0336  0.1228
38162SOL     OW16738   8.314   7.431  10.486 -0.1486  0.3090  0.0685
38162SOL    HW116739   8.222   7.456  10.488 -0.4081 -0.6251  0.1837
38162SOL    HW216740   8.313   7.335  10.492  0.8673  0.3407  1.0024
38163SOL     OW16741   5.042  10.364   8.256 -0.0817 -0.0842  0.3692
38163SOL    HW116742   5.037  10.283   8.205  3.2200  0.1653 -0.5763
38163SOL    HW216743   4.952  10.398   8.256 -1.0648 -2.4031 -1.3993
38164SOL     OW16744   8.713   7.622   5.779 -0.3092 -0.2575  0.3516
38164SOL    HW116745   8.679   7.696   5.730 -0.8335 -0.7472 -0.0433
38164SOL    HW216746   8.635   7.583   5.820 -0.2160 -1.2555 -0.3761
38165SOL     OW16747   1.865   3.919   0.179  0.4509  0.3270  0.2545
38165SOL    HW116748   1.858   3.824   0.167 -0.6799  0.4140  0.1478
38165SOL    HW216749   1.812   3.938   0.256  0.4072  0.9107  0.0876
38166SOL     OW16750   7.851   1.325   6.215 -0.3740 -0.7510  0.0007
38166SOL    HW116751   7.804   1.244   6.200  1.6757 -2.4465  1.9758
38166SOL    HW216752   7.796   1.375   6.275 -0.4730 -1.9211  0.9138
38167SOL     OW16753   6.600  10.397  10.592 -0.1239 -0.2138  0.1064
38167SOL    HW116754   6.513  10.361  10.577 -0.2571  0.6980 -1.6478
38167SOL    HW216755   6.586  10.472  10.650 -0.6990  0.5800 -1.0115
38168SOL     OW16756   0.777   9.611   2.734  0.4600  0.1512 -0.0579
38168SOL    HW116757   0.804   9.661   2.811 -0.8629  2.3503 -0.9370
38168SOL    HW216758   0.781   9.519   2.763 -1.1122  0.9086  3.0057
38169SOL     OW16759   2.362   5.074   1.752  0.3035 -0.0517  0.1583
38169SOL    HW116760   2.418   5.125   1.694  1.5633 -1.0270  0.4766
38169SOL    HW216761   2.276   5.077   1.711  0.6035  1.3658 -0.4123
38170SOL     OW16762   3.041   8.900   7.303 -0.2330  0.0397 -0.2491
38170SOL    HW116763   3.030   8.988   7.265  0.4083 -0.3289 -1.3269
38170SOL    HW216764   3.112   8.910   7.366  2.0826 -0.3246 -2.6393
38171SOL     OW16765   3.748  10.208   6.945 -0.4053 -0.0838  0.6300
38171SOL    HW116766   3.733  10.208   7.040 -1.2737  0.9844  0.5005
38171SOL    HW216767   3.787  10.122   6.928  0.6999  0.0710  2.0928
38172SOL     OW16768   5.855   9.719   4.319 -0.1342  0.1525  0.2624
38172SOL    HW116769   5.937   9.725   4.269 -0.0567  0.2023  0.3944
38172SOL    HW216770   5.882   9.685   4.404 -0.3569 -0.6236  0.0363
38173SOL     OW16771   4.477   4.032   3.638 -0.7650 -0.4274  0.1262
38173SOL    HW116772   4.530   4.040   3.717 -1.2844  0.7318  0.3815
38173SOL    HW216773   4.536   4.055   3.567 -0.8258  0.5825  0.3830
38174SOL     OW16774   7.984   1.374   4.031 -0.6225  0.1968  0.1061
38174SOL    HW116775   7.952   1.464   4.040  0.1410  0.4056  0.7698
38174SOL    HW216776   7.920   1.321   4.079 -1.1344  0.3637 -0.3802
38175SOL     OW16777   4.421   0.387   7.689 -0.0561 -0.4756 -0.0184
38175SOL    HW116778   4.375   0.330   7.750  0.7947 -0.8850  0.2513
38175SOL    HW216779   4.488   0.331   7.649  0.4295  0.1872 -0.1540
38176SOL     OW16780   8.100   3.108   4.521 -0.5128 -0.7239  0.0189
38176SOL    HW116781   8.161   3.131   4.451 -0.6009  1.8723  0.7233
38176SOL    HW216782   8.152   3.055   4.581  0.4309 -0.3667 -0.4566
38177SOL     OW16783   6.225   9.115   9.584  0.7165 -0.4647  0.4182
38177SOL    HW116784   6.294   9.095   9.521  0.6897  2.0882 -0.5528
38177SOL    HW216785   6.143   9.101   9.536  0.6464 -0.5176  0.5524
38178SOL     OW16786   2.718   6.565   5.862  0.6890 -0.1516 -0.0739
38178SOL    HW116787   2.775   6.542   5.788  0.4989  0.6770 -0.4885
38178SOL    HW216788   2.646   6.615   5.822 -0.6410 -1.6264  0.3483
38179SOL     OW16789   9.370   2.570   3.458  0.4077 -0.1435 -0.0303
38179SOL    HW116790   9.370   2.665   3.445  0.1981  0.1949  2.0416
38179SOL    HW216791   9.454   2.541   3.423  0.1541  0.6693 -1.3938
38180SOL     OW16792   5.010   4.983   2.415 -0.2315  0.6247 -0.4194
38180SOL    HW116793   5.054   5.017   2.492 -1.0014  0.9005 -0.0857
38180SOL    HW216794   4.917   4.987   2.437 -0.4976  1.2574 -1.5721
38181SOL     OW16795   0.254   2.669   6.251 -0.3439  0.2949  0.0729
38181SOL    HW116796   0.185   2.623   6.205 -0.9744  0.6534  0.6462
38181SOL    HW216797   0.300   2.601   6.301 -1.2744  0.2739  0.9222
38182SOL     OW16798   7.668   7.296   2.883 -0.7429  0.1246 -0.3259
38182SOL    HW116799   7.621   7.376   2.906 -1.2116 -0.1660 -0.2582
38182SOL    HW216800   7.658   7.289   2.788 -2.0640 -0.6897 -0.1425
38183SOL     OW16801   0.993   6.621   7.035  0.0689 -0.0302  0.4673
38183SOL    HW116802   0.940   6.676   6.977 -1.2040 -0.7189  0.9405
38183SOL    HW216803   0.976   6.655   7.123  2.2559  1.2313  0.4846
38184SOL     OW16804   1.908   5.983  10.238 -0.4414 -0.3246 -0.1636
38184SOL    HW116805   1.959   5.962  10.159 -1.9223  0.0519 -1.2778
38184SOL    HW216806   1.949   5.932  10.307 -0.0839 -1.9520 -1.5061
38185SOL     OW16807   0.022   7.412  10.108  0.4572 -0.3808 -0.1211
38185SOL    HW116808   0.016   7.507  10.120  0.7835 -0.4126  0.3150
38185SOL    HW216809   0.111   7.397  10.077 -0.0472 -0.4088 -1.6532
38186SOL     OW16810   1.819   7.463   9.092 -0.0532  0.3232 -0.7438
38186SOL    HW116811   1.800   7.374   9.122 -0.7257  0.6645 -0.1229
38186SOL    HW216812   1.879   7.498   9.159  1.8509 -0.3145 -2.0219
38187SOL     OW16813   8.964   2.407   3.281  0.0954  0.5909 -0.0294
38187SOL    HW116814   9.043   2.391   3.334 -0.2982 -0.4619  0.2754
38187SOL    HW216815   8.996   2.412   3.191  0.3669 -1.3516 -0.0785
38188SOL     OW16816   3.805   4.417   3.477  0.2873 -0.3221 -0.6334
38188SOL    HW116817   3.804   4.486   3.543 -0.4817  0.4727 -1.4475
38188SOL    HW216818   3.830   4.338   3.525 -1.1019  0.0637  0.7920
38189SOL     OW16819   5.985   1.174   4.207  0.0868 -0.3428  0.2416
38189SOL    HW116820   6.066   1.125   4.195 -1.7975 -3.8324  0.5041
38189SOL    HW216821   5.995   1.216   4.292  1.4521 -1.0756  0.4803
38190SOL     OW16822   9.218   5.426  10.511  0.1341 -0.1667 -0.1352
38190SOL    HW116823   9.215   5.426  10.415  0.0893 -0.6582 -0.1320
38190SOL    HW216824   9.265   5.346  10.533 -1.9744 -1.3231  0.3347
38191SOL     OW16825   0.161   3.588   1.725  0.3727 -0.0467 -0.0862
38191SOL    HW116826   0.243   3.539   1.715  0.4835 -0.1476  1.1128
38191SOL    HW216827   0.120   3.585   1.639  1.9214  0.5321 -0.8796
38192SOL     OW16828   0.735   1.919   1.231  0.0715 -0.2101 -0.2729
38192SOL    HW116829   0.718   1.969   1.310 -0.3383  1.2162 -1.2214
38192SOL    HW216830   0.682   1.962   1.164 -0.7076 -2.2299 -1.0498
38193SOL     OW16831   8.059   2.142   4.544 -0.4347  0.3168  0.2751
38193SOL    HW116832   8.030   2.053   4.564  1.1231  0.2058  2.4750
38193SOL    HW216833   8.148   2.146   4.581 -0.1063  2.4906 -0.6225
38194SOL     OW16834   3.526   9.202   1.220  0.4379 -0.2634 -0.3735
38194SOL    HW116835   3.595   9.232   1.279  0.6817  3.0779 -2.1024
38194SOL    HW216836   3.459   9.165   1.278  1.5887  0.8103  1.7740
38195SOL     OW16837   9.184   9.476   2.721 -0.0321 -0.1144 -0.2935
38195SOL    HW116838   9.158   9.384   2.714 -0.3667 -0.0308 -0.1580
38195SOL    HW216839   9.197   9.504   2.630 -0.9567 -0.0067 -0.4048
38196SOL     OW16840   9.166   4.335   8.000 -0.1472 -0.0910 -0.0623
38196SOL    HW116841   9.247   4.317   8.047 -0.7198 -2.1357  0.2419
38196SOL    HW216842   9.194   4.367   7.914  0.9940 -0.6371  0.0877
38197SOL     OW16843   5.171   5.100   5.052  0.0130  0.2502 -0.0929
38197SOL    HW116844   5.146   5.183   5.011  2.3539  0.6048 -0.9376
38197SOL    HW216845   5.153   5.035   4.984 -0.4085  0.2372  0.0247
38198SOL     OW16846   1.310   3.477   1.775 -0.0037 -0.1701  1.1504
38198SOL    HW116847   1.243   3.542   1.793 -2.3245 -1.3320 -2.3116
38198SOL    HW216848   1.312   3.423   1.854 -3.1445 -0.0028  1.4779
38199SOL     OW16849   0.727   0.837   7.914 -0.1512  0.4972 -0.0929
38199SOL    HW116850   0.788   0.908   7.894  0.9246 -0.3920 -0.0461
38199SOL    HW216851   0.721   0.787   7.832  1.4399 -1.0553  0.6656
38200SOL     OW16852   1.340   1.305   9.615 -0.4836 -0.1978  0.8019
38200SOL    HW116853   1.309   1.258   9.692  0.1366 -1.1429  0.4844
38200SOL    HW216854   1.343   1.397   9.644 -0.6576 -0.4785  1.7672
38201SOL     OW16855   0.456   4.871  10.408  0.3273  0.1162 -0.1046
38201SOL    HW116856   0.525   4.863  10.473 -0.6299  0.6848  1.0133
38201SOL    HW216857   0.485   4.941  10.350  2.5926 -2.3080 -2.1400
38202SOL     OW16858  10.159   6.401   8.875 -0.3842  0.0632 -0.1338
38202SOL    HW116859  10.118   6.321   8.907  0.4845 -1.4917 -2.5902
38202SOL    HW216860  10.215   6.430   8.946 -0.9739 -1.3113  0.9375
38203SOL     OW16861  10.282  10.327   5.263 -0.2097  0.0185  0.5744
38203SOL    HW116862  10.278  10.238   5.299 -2.7769  0.3397  1.3111
38203SOL    HW216863  10.205  10.334   5.207  1.9695  0.6218 -2.6396
38204SOL     OW16864   9.690   2.890   9.112 -0.1701 -0.5622 -0.2191
38204SOL    HW116865   9.775   2.870   9.071 -0.9151 -2.7525 -0.8273
38204SOL    HW216866   9.656   2.964   9.062  0.7092 -0.6161 -0.9209
38205SOL     OW16867   0.420   7.610   7.850 -0.1520  0.0984  0.6503
38205SOL    HW116868   0.472   7.678   7.893  0.2778 -0.5087  1.1035
38205SOL    HW216869   0.412   7.541   7.915 -1.8866  0.3426  0.7251
38206SOL     OW16870   5.431   2.130   9.127  0.2961  0.1509  0.4219
38206SOL    HW116871   5.488   2.055   9.142  0.7248  0.7452  2.0187
38206SOL    HW216872   5.370   2.102   9.059  2.8776 -0.2838 -1.8916
38207SOL     OW16873   2.326   4.479   8.248 -0.2151  0.2715  0.1740
38207SOL    HW116874   2.410   4.525   8.242 -1.9576  3.8652  1.1293
38207SOL    HW216875   2.311   4.470   8.342 -0.2974 -1.7056  0.0122
38208SOL     OW16876   8.595   0.116   6.819 -0.3934 -0.3002  0.1478
38208SOL    HW116877   8.628   0.116   6.729 -1.2845  0.4372 -0.1995
38208SOL    HW216878   8.565   0.206   6.833 -0.7099 -0.5336  1.0097
38209SOL     OW16879   0.426   1.129   5.051 -0.2381  0.0098 -0.2448
38209SOL    HW116880   0.517   1.106   5.069 -0.2992  1.0609  1.6007
38209SOL    HW216881   0.381   1.045   5.045  0.6402 -0.4913 -0.0203
38210SOL     OW16882  10.485   1.866   9.613 -0.0135 -0.1153 -0.5872
38210SOL    HW116883  10.520   1.914   9.689 -0.2051 -1.1845  0.2026
38210SOL    HW216884  10.520   1.913   9.537  0.0122  1.1147  0.1525
38211SOL     OW16885   9.589   5.846  10.647 -0.0937  0.3086 -0.1898
38211SOL    HW116886   9.528   5.777  10.674 -0.4976  0.0859 -1.5834
38211SOL    HW216887   9.535   5.925  10.642 -0.6005 -0.1251 -2.6001
38212SOL     OW16888   6.769   1.482   3.291 -0.4000 -0.3419  0.2712
38212SOL    HW116889   6.710   1.414   3.257 -0.0612 -0.7574  0.5096
38212SOL    HW216890   6.798   1.449   3.376  2.5534 -1.6225 -1.0951
38213SOL     OW16891   9.018   2.591   9.321  0.5916  0.4456 -0.0693
38213SOL    HW116892   9.020   2.674   9.275 -0.2360  0.2886 -0.4004
38213SOL    HW216893   9.110   2.565   9.329  0.8180  1.1393 -0.4123
38214SOL     OW16894   1.649   7.545   9.436  0.1895 -0.3495 -0.0568
38214SOL    HW116895   1.637   7.495   9.517  0.1449 -0.5244 -0.1702
38214SOL    HW216896   1.687   7.482   9.375 -1.3488 -0.7158 -0.7016
38215SOL     OW16897   6.211   5.128   9.251  0.1674  0.0703  0.1757
38215SOL    HW116898   6.178   5.161   9.168 -0.0554 -0.9622 -0.1520
38215SOL    HW216899   6.178   5.038   9.257  2.8405 -1.0261 -0.1439
38216SOL     OW16900   7.661   0.086   0.026 -0.1835  0.2636  0.7882
38216SOL    HW116901   7.587   0.029   0.006 -0.0456  0.5811 -0.7198
38216SOL    HW216902   7.639   0.124   0.111 -0.1724 -2.1753  1.9831
38217SOL     OW16903   8.807   8.082   4.891  0.5680  0.0080  0.1582
38217SOL    HW116904   8.827   8.059   4.800 -0.4611  1.5222 -0.4957
38217SOL    HW216905   8.735   8.025   4.915  1.4704 -1.0794  0.3894
38218SOL     OW16906   0.910   7.882   4.840  0.3829  0.6201 -0.3880
38218SOL    HW116907   0.867   7.858   4.922  0.8150 -1.2588 -0.6621
38218SOL    HW216908   0.847   7.939   4.796 -0.5046  0.4223  0.5717
38219SOL     OW16909   8.946   0.082   9.970  0.3206  0.0738 -0.3001
38219SOL    HW116910   8.911   0.080   9.881 -0.7934  0.7288  0.1099
38219SOL    HW216911   8.974   0.173   9.983 -0.9897  0.3830  0.5526
38220SOL     OW16912   1.859   5.152   1.982 -0.4881 -0.0875 -0.1214
38220SOL    HW116913   1.945   5.151   1.940 -0.1618  0.3217  0.5134
38220SOL    HW216914   1.817   5.072   1.953  0.5768 -0.8951  0.4992
38221SOL     OW16915   9.532   7.255   7.428  0.2152 -0.3527 -0.2279
38221SOL    HW116916   9.503   7.193   7.361  1.3829 -0.3758 -0.7412
38221SOL    HW216917   9.627   7.256   7.420  0.2620  1.0410  0.1943
38222SOL     OW16918   4.473   0.419   1.885 -0.2749  0.2157  0.0610
38222SOL    HW116919   4.535   0.420   1.958 -0.9020  3.0447  0.6675
38222SOL    HW216920   4.488   0.335   1.842  1.9474 -0.4165  1.8814
38223SOL     OW16921   1.633   9.835   7.930  0.2381  0.4905  0.0031
38223SOL    HW116922   1.574   9.901   7.893  0.8024  1.4398  0.7531
38223SOL    HW216923   1.680   9.881   7.999 -0.6694 -1.1542  1.8382
38224SOL     OW16924   2.201   1.587   0.570  0.2533 -0.5247 -0.6486
38224SOL    HW116925   2.138   1.552   0.508 -0.0082  1.0294 -1.3007
38224SOL    HW216926   2.285   1.548   0.544 -0.2486 -1.8032 -0.4083
38225SOL     OW16927   9.075   0.214   5.286 -0.3811 -0.5858  0.5427
38225SOL    HW116928   9.104   0.301   5.261 -2.8081  0.2770  0.4474
38225SOL    HW216929   9.097   0.158   5.212 -1.1643  0.5031 -0.5378
38226SOL     OW16930   2.413   1.578   5.909 -0.1496 -0.3837  0.3627
38226SOL    HW116931   2.419   1.550   5.818  0.9995  0.0182  0.2927
38226SOL    HW216932   2.492   1.631   5.923 -0.3581 -0.3545  1.5568
38227SOL     OW16933   5.916   5.445   2.870  0.0064 -0.7698  0.2248
38227SOL    HW116934   5.989   5.402   2.914  1.3704 -1.7636 -2.7288
38227SOL    HW216935   5.857   5.374   2.846  1.9215 -1.2462 -4.0492
38228SOL     OW16936   9.560   8.510   7.976  0.0760  0.2549 -0.2134
38228SOL    HW116937   9.606   8.433   7.943  0.6142  0.6856 -0.4779
38228SOL    HW216938   9.607   8.534   8.056  0.4946  0.8547 -0.6252
38229SOL     OW16939   7.790   4.293   3.427  0.1792  0.0352  0.8889
38229SOL    HW116940   7.814   4.374   3.471 -0.3955 -0.4154  2.0841
38229SOL    HW216941   7.694   4.291   3.432  0.1859 -0.7000  0.8449
38230SOL     OW16942  10.435   9.946   8.956  0.3786 -0.2515  0.5968
38230SOL    HW116943  10.411   9.893   8.880 -2.0229 -1.7345  2.2670
38230SOL    HW216944  10.509   9.899   8.995  1.1891  0.1549 -0.3957
38231SOL     OW16945  10.538   2.087   9.388  0.1716  0.0800  0.2579
38231SOL    HW116946  10.452   2.088   9.344  0.9893  0.3508 -1.4018
38231SOL    HW216947  10.541   2.170   9.435  0.2807  0.9690 -1.2569
38232SOL     OW16948   2.329   6.696   2.959 -0.2240  0.6059 -0.5020
38232SOL    HW116949   2.240   6.709   2.990 -0.9662 -1.5549 -1.4964
38232SOL    HW216950   2.321   6.698   2.863  0.2661 -2.0256 -0.6800
38233SOL     OW16951   5.731   4.431   3.026  0.7104 -0.4165  0.5611
38233SOL    HW116952   5.730   4.527   3.030  0.8975 -0.4313  0.9487
38233SOL    HW216953   5.769   4.404   3.109 -1.3425 -0.8815  1.4140
38234SOL     OW16954   6.905   9.076   5.788  0.2428 -0.4589 -0.0960
38234SOL    HW116955   6.948   8.998   5.823 -0.1104 -0.9858 -0.8111
38234SOL    HW216956   6.828   9.043   5.743 -1.5510  0.5625  2.0716
38235SOL     OW16957   5.243   6.651   1.953  0.1787  0.0641 -0.1571
38235SOL    HW116958   5.177   6.616   1.894  0.6541 -2.4041  0.6554
38235SOL    HW216959   5.225   6.609   2.038  1.4179  1.0712  0.6467
38236SOL     OW16960   1.486   3.412   1.452  0.1166 -0.1706  0.0134
38236SOL    HW116961   1.482   3.416   1.356  0.9401 -2.0276 -0.1335
38236SOL    HW216962   1.571   3.451   1.474  0.5939 -1.1079 -0.1360
38237SOL     OW16963   6.974   7.203   5.697 -0.4063  0.4150  0.2615
38237SOL    HW116964   6.983   7.292   5.662  0.0051 -0.1756 -1.1876
38237SOL    HW216965   6.935   7.153   5.625 -0.5234 -0.6142  1.0283
38238SOL     OW16966   3.043   7.949   2.962  0.3515  0.0435 -0.1017
38238SOL    HW116967   2.990   8.000   2.900 -1.1144 -0.5898  0.5965
38238SOL    HW216968   3.127   7.996   2.965  0.3575  0.2924 -2.2954
38239SOL     OW16969   3.465   2.050   5.664 -0.7742 -0.3815  0.1656
38239SOL    HW116970   3.392   1.989   5.656  0.6518 -2.5312  2.2752
38239SOL    HW216971   3.487   2.050   5.757  1.6904  0.4673 -0.3413
38240SOL     OW16972   0.060   7.475   5.599 -0.1133  0.1715  0.0495
38240SOL    HW116973   0.040   7.566   5.575  1.7653  0.2986 -1.2798
38240SOL    HW216974   0.131   7.482   5.663 -1.7269 -0.3455  2.0002
38241SOL     OW16975   7.310   0.649   0.672 -0.1888  0.6679  0.0871
38241SOL    HW116976   7.310   0.554   0.684 -1.3053  0.6287 -0.0954
38241SOL    HW216977   7.231   0.679   0.717  0.2428  1.5350  0.2821
38242SOL     OW16978   8.713   3.930   0.615 -0.0352 -0.3153  0.2406
38242SOL    HW116979   8.721   3.995   0.685  5.3227 -0.6141  0.2692
38242SOL    HW216980   8.699   3.983   0.536 -3.4519  0.1586  0.9771
38243SOL     OW16981   5.229   9.762   9.754 -0.3033 -0.1412 -0.3774
38243SOL    HW116982   5.259   9.685   9.704 -0.5033  0.7365 -1.9155
38243SOL    HW216983   5.302   9.781   9.813  1.2291  0.4882 -2.3501
38244SOL     OW16984   0.908   2.721   5.268 -0.2432  0.8925  0.0658
38244SOL    HW116985   0.974   2.738   5.335  0.7220 -0.8602 -0.3745
38244SOL    HW216986   0.844   2.791   5.279  1.0517  1.9492  1.3130
38245SOL     OW16987   6.521   8.251   6.781 -0.3199  0.7694  0.3363
38245SOL    HW116988   6.536   8.318   6.848 -2.3546  0.4410  1.2133
38245SOL    HW216989   6.590   8.187   6.794  0.0277  1.3335  1.3202
38246SOL     OW16990   8.308   6.884   9.594  0.5276  0.5127 -0.4806
38246SOL    HW116991   8.325   6.932   9.513  0.3077  0.6247 -0.4608
38246SOL    HW216992   8.227   6.835   9.576  1.0961 -0.3602 -0.7285
38247SOL     OW16993   0.252   4.650   0.791  0.2883 -0.6474 -0.1966
38247SOL    HW116994   0.197   4.619   0.719 -0.4158  1.5162 -0.6743
38247SOL    HW216995   0.340   4.620   0.768 -0.2957 -2.1225 -0.6408
38248SOL     OW16996   8.090   1.512   3.812  0.5682  0.9906 -0.1462
38248SOL    HW116997   7.998   1.539   3.822  0.2776 -0.2799  0.9317
38248SOL    HW216998   8.138   1.594   3.800 -0.6409  1.7189 -0.2192
38249SOL     OW16999   8.115   1.093   7.969  0.2694  0.1859 -0.0411
38249SOL    HW117000   8.148   1.006   7.946  0.0999 -0.6780  2.6342
38249SOL    HW217001   8.154   1.111   8.054 -1.4385  1.7705  0.4616
38250SOL     OW17002   9.596   5.446   6.488 -0.1522  0.5596 -0.4042
38250SOL    HW117003   9.562   5.533   6.508 -0.6967  0.8021 -2.1543
38250SOL    HW217004   9.518   5.391   6.481  0.2666 -0.6741  2.9015
38251SOL     OW17005   7.365   5.628   5.334 -0.1934 -0.6894  0.0724
38251SOL    HW117006   7.460   5.638   5.322 -0.0791 -2.3400 -0.7237
38251SOL    HW217007   7.327   5.667   5.255  0.0191 -2.7091 -1.0747
38252SOL     OW17008   9.157   4.400   0.914  0.2599 -0.9949 -0.1202
38252SOL    HW117009   9.189   4.467   0.974 -0.8029 -0.7253  0.1591
38252SOL    HW217010   9.177   4.434   0.827 -1.4461  0.3507 -0.0459
38253SOL     OW17011   1.257   3.447   5.601 -0.0433  0.8617  0.1873
38253SOL    HW117012   1.274   3.367   5.551 -0.0602  0.6636  0.4920
38253SOL    HW217013   1.343   3.475   5.631 -0.0419  0.9380  0.1122
38254SOL     OW17014   3.611   9.390   9.349  0.1097  0.3130 -0.0256
38254SOL    HW117015   3.636   9.470   9.395 -0.2517  0.0776  0.5953
38254SOL    HW217016   3.575   9.334   9.418 -0.5051 -0.0192 -0.6129
38255SOL     OW17017   0.154   6.533   1.340 -0.3316  0.2123  0.2341
38255SOL    HW117018   0.118   6.594   1.275 -2.7270 -1.1703  0.1126
38255SOL    HW217019   0.193   6.589   1.407 -2.9044  1.9896  0.4279
38256SOL     OW17020   8.108   9.444   0.917 -0.0068  0.2266 -0.0863
38256SOL    HW117021   8.167   9.433   0.991  0.8857 -0.7817 -0.9136
38256SOL    HW217022   8.152   9.400   0.844 -1.2655  0.4251 -1.0028
38257SOL     OW17023   9.407  10.075   2.028 -0.1825  0.3409 -0.1406
38257SOL    HW117024   9.350  10.152   2.023  1.0935  1.3090 -0.1617
38257SOL    HW217025   9.496  10.110   2.020  0.5645 -0.8978  2.0825
38258SOL     OW17026   7.297   2.501   0.356  0.6791 -0.0643 -0.0216
38258SOL    HW117027   7.258   2.418   0.382 -0.7461  0.4408 -0.4397
38258SOL    HW217028   7.388   2.494   0.383  0.7209 -1.9492 -0.5103
38259SOL     OW17029   3.013   6.423   9.680  0.5658  0.3074 -0.2880
38259SOL    HW117030   2.943   6.483   9.705 -0.3991 -0.6076 -0.7448
38259SOL    HW217031   2.983   6.337   9.710  2.5168  0.1842  1.5672
38260SOL     OW17032   6.334   8.782   2.711  0.4391 -0.0208  0.3807
38260SOL    HW117033   6.261   8.818   2.761  2.5232  2.5901  1.8075
38260SOL    HW217034   6.410   8.833   2.740  1.9735  1.4558 -5.0661
38261SOL     OW17035   1.636   7.553   0.298  0.2625 -0.1523 -0.1989
38261SOL    HW117036   1.678   7.638   0.307 -1.8449  0.7967  1.6517
38261SOL    HW217037   1.543   7.572   0.297 -0.3301 -2.4884  1.5365
38262SOL     OW17038   1.394   0.939   0.127 -0.4029 -0.0830 -0.0587
38262SOL    HW117039   1.428   1.028   0.112  0.4361 -0.2217  0.8472
38262SOL    HW217040   1.338   0.948   0.204 -0.7961 -0.2312 -0.3279
38263SOL     OW17041   6.735   7.593   6.050 -0.4914 -0.5335 -0.1647
38263SOL    HW117042   6.794   7.660   6.083  0.0120 -0.3913 -1.2977
38263SOL    HW217043   6.714   7.622   5.961 -1.2351 -1.2576 -0.2357
38264SOL     OW17044   2.751   9.858   5.813 -0.0054  0.0395 -0.5173
38264SOL    HW117045   2.725   9.773   5.848  1.1079 -0.6880 -1.3803
38264SOL    HW217046   2.832   9.840   5.764 -0.8217  1.2137 -2.4096
38265SOL     OW17047   0.994   4.184   9.296 -0.5693  0.0666  0.1264
38265SOL    HW117048   1.041   4.224   9.369 -0.7615 -0.9321  0.8236
38265SOL    HW217049   1.015   4.091   9.302 -1.7502 -0.2410 -0.2168
38266SOL     OW17050   6.090   7.452   4.608 -0.2497 -0.0997  0.0630
38266SOL    HW117051   6.157   7.395   4.645  1.6786  1.5632 -0.6499
38266SOL    HW217052   6.102   7.445   4.513 -0.0822  1.2603 -0.0489
38267SOL     OW17053   0.059   7.580   7.262  0.0753 -0.3733 -0.7197
38267SOL    HW117054   0.127   7.630   7.306  1.0970 -0.9558 -1.5879
38267SOL    HW217055   0.029   7.516   7.328  0.6044 -0.3324 -0.4371
38268SOL     OW17056   2.828   5.424   2.576  0.2554  0.4572  0.1939
38268SOL    HW117057   2.733   5.416   2.567  0.3519  1.0173 -1.7730
38268SOL    HW217058   2.862   5.409   2.487  2.0286  0.0384  0.9000
38269SOL     OW17059   3.053   7.162   9.545 -0.1289 -0.3017 -0.1110
38269SOL    HW117060   3.130   7.166   9.601 -0.9138 -3.0088  1.3621
38269SOL    HW217061   2.990   7.222   9.585  0.4696  0.3036 -0.0753
38270SOL     OW17062   2.445   0.161   5.639  0.3324 -0.5321 -0.1650
38270SOL    HW117063   2.392   0.131   5.565  1.3543  1.4917 -1.8179
38270SOL    HW217064   2.535   0.144   5.613  0.6782 -0.5528  0.9956
38271SOL     OW17065   4.587   7.678  10.466 -0.1429 -0.3477 -0.2597
38271SOL    HW117066   4.683   7.678  10.458 -0.0638 -2.3774  0.3199
38271SOL    HW217067   4.564   7.771  10.468  2.0152  0.2409  1.9382
38272SOL     OW17068   4.292  10.045   1.693 -0.1067  0.4892  0.0901
38272SOL    HW117069   4.263  10.121   1.642 -0.7527  1.1748  1.4106
38272SOL    HW217070   4.349   9.997   1.634 -1.5892  0.7049 -1.6242
38273SOL     OW17071   7.295   2.585   5.684 -0.1340  0.2306 -0.1176
38273SOL    HW117072   7.333   2.540   5.609 -1.4633 -0.3278 -0.4816
38273SOL    HW217073   7.201   2.570   5.676 -0.2559 -0.3582  2.0025
38274SOL     OW17074   1.889  10.129   2.407  0.0176 -0.1534 -0.0682
38274SOL    HW117075   1.809  10.171   2.440  0.2705  1.7912 -1.7268
38274SOL    HW217076   1.942  10.113   2.485 -2.2300 -2.2494  1.1897
38275SOL     OW17077   9.510   9.296   0.610 -0.1095 -0.0937 -0.8151
38275SOL    HW117078   9.522   9.364   0.676 -0.1062 -0.1680 -0.7399
38275SOL    HW217079   9.521   9.341   0.527  0.7635 -0.1801 -0.7495
38276SOL     OW17080   5.622   3.516   4.259 -0.4168 -0.3012  0.3206
38276SOL    HW117081   5.716   3.531   4.265 -0.2986 -1.4549  2.0199
38276SOL    HW217082   5.589   3.537   4.346 -1.5085 -1.2534  0.1555
38277SOL     OW17083   6.692   5.674   9.880  0.0571 -0.0245 -0.1606
38277SOL    HW117084   6.658   5.592   9.845  0.2502  0.1630 -0.7886
38277SOL    HW217085   6.740   5.648   9.959 -1.6873 -0.2713  0.8659
38278SOL     OW17086   8.931   1.560   5.030 -0.4346  0.0270 -0.5305
38278SOL    HW117087   8.848   1.607   5.035  0.0242  0.7199  1.1995
38278SOL    HW217088   8.907   1.468   5.043 -0.7611  0.4318  2.2031
38279SOL     OW17089   6.803   8.732  10.295  0.0349  1.1173  0.2214
38279SOL    HW117090   6.856   8.680  10.234  2.6810  2.1362  1.4589
38279SOL    HW217091   6.783   8.672  10.366 -2.1507  0.2221 -1.0624
38280SOL     OW17092   2.655   0.906   1.540  0.4157  0.3230  0.2974
38280SOL    HW117093   2.633   0.975   1.478 -2.1343 -0.3065  0.4226
38280SOL    HW217094   2.672   0.952   1.622  0.6801  0.9175 -0.0837
38281SOL     OW17095   1.337   7.241   0.483 -0.1007 -0.0438  0.0062
38281SOL    HW117096   1.392   7.185   0.537  0.2839 -0.0254 -0.3588
38281SOL    HW217097   1.291   7.298   0.545  1.5542  1.0818  0.2580
38282SOL     OW17098   5.524   5.754   4.453  0.7046  0.3371 -0.1957
38282SOL    HW117099   5.486   5.841   4.458 -1.7318 -0.7348  1.4501
38282SOL    HW217100   5.542   5.729   4.543 -0.1309 -1.4684 -0.4795
38283SOL     OW17101   0.644   3.880   1.511  0.1745 -0.1878 -0.4345
38283SOL    HW117102   0.694   3.831   1.576  0.5322 -0.3715 -0.8390
38283SOL    HW217103   0.566   3.826   1.496  0.8172 -0.9250 -1.2664
38284SOL     OW17104   3.950   6.092   8.696  0.3098  0.0126  0.5004
38284SOL    HW117105   3.969   6.185   8.680 -0.0959 -0.1986 -1.4642
38284SOL    HW217106   3.855   6.090   8.708  0.4883  0.0196  2.1113
38285SOL     OW17107   5.697   4.761   4.023 -0.5751  0.3391 -0.0049
38285SOL    HW117108   5.773   4.751   4.080 -1.6555 -0.0628  1.4258
38285SOL    HW217109   5.672   4.672   4.001 -0.1540  0.4943 -1.1620
38286SOL     OW17110   3.645   4.918   0.330  0.4515 -0.1617 -0.0849
38286SOL    HW117111   3.589   4.850   0.291  0.0181  0.4276 -0.5192
38286SOL    HW217112   3.732   4.902   0.293  0.4676 -0.7957  0.2217
38287SOL     OW17113   4.769   8.293   2.717  0.3081 -0.3241 -0.6310
38287SOL    HW117114   4.715   8.273   2.793  0.6875 -0.2656 -0.3463
38287SOL    HW217115   4.709   8.337   2.656 -0.1907 -1.0855 -0.6965
38288SOL     OW17116   6.080   8.894   5.476  0.2579 -0.0801  0.5628
38288SOL    HW117117   6.111   8.954   5.408 -2.8888 -0.2283 -1.2118
38288SOL    HW217118   6.086   8.807   5.435 -0.2876 -0.3394  1.0112
38289SOL     OW17119   1.863   9.705   8.521 -0.1234  0.2963 -0.4997
38289SOL    HW117120   1.804   9.758   8.468 -0.1947  0.4136 -0.3044
38289SOL    HW217121   1.878   9.757   8.599 -0.6582 -0.2306 -0.0422
38290SOL     OW17122   1.844   9.542   4.954 -0.3194 -0.0966  0.3084
38290SOL    HW117123   1.759   9.583   4.972  0.0025  1.0409 -0.6275
38290SOL    HW217124   1.902   9.578   5.021 -0.0397  1.0357 -0.5050
38291SOL     OW17125   7.165   7.114   7.547  0.0708  0.0296  0.0834
38291SOL    HW117126   7.174   7.018   7.545  1.6090  0.1536  0.1483
38291SOL    HW217127   7.226   7.145   7.480  0.9673  1.0227  1.3131
38292SOL     OW17128   7.439   5.311   9.141 -0.0061  0.1999  0.1388
38292SOL    HW117129   7.465   5.403   9.137  0.9394 -0.0102  1.1069
38292SOL    HW217130   7.474   5.279   9.224  3.5074 -2.1194 -1.9476
38293SOL     OW17131   6.202   7.081   3.469  0.4973  0.2598 -0.2553
38293SOL    HW117132   6.170   7.161   3.428  2.5692  1.0231 -0.5176
38293SOL    HW217133   6.251   7.036   3.400  1.5509  0.1002  0.5624
38294SOL     OW17134   0.889   1.981   9.618 -0.3909 -0.2733 -0.3914
38294SOL    HW117135   0.812   1.958   9.565 -0.4505 -2.6695  0.5796
38294SOL    HW217136   0.857   2.047   9.680 -0.8338  1.0272 -1.9528
38295SOL     OW17137   9.578   4.912   6.955 -0.2714 -0.6253 -0.4788
38295SOL    HW117138   9.577   4.966   7.034 -1.2940 -0.6684 -0.4471
38295SOL    HW217139   9.569   4.974   6.883 -2.6337 -0.7828 -0.3918
38296SOL     OW17140   2.359   9.877   4.537 -0.3114  0.3396 -0.1382
38296SOL    HW117141   2.447   9.872   4.573 -0.3089 -0.7551 -0.2651
38296SOL    HW217142   2.314   9.942   4.591  0.4408  0.5943  0.1905
38297SOL     OW17143  10.126   5.969   2.493 -0.1434  0.0502 -0.7445
38297SOL    HW117144  10.053   5.990   2.434 -0.3039  0.5387 -0.3752
38297SOL    HW217145  10.189   6.040   2.479 -0.2516  0.2491 -0.2081
38298SOL     OW17146  10.341   2.355   1.842  0.0031  0.0694 -0.1378
38298SOL    HW117147  10.268   2.416   1.857 -0.4750 -0.0104 -1.8918
38298SOL    HW217148  10.310   2.299   1.771  2.3577  1.0977 -2.1287
38299SOL     OW17149  10.407   5.012   3.627  0.3318  0.0583  0.2957
38299SOL    HW117150  10.501   5.012   3.608  0.4940 -0.9716  1.0227
38299SOL    HW217151  10.368   4.962   3.555  0.8537 -3.1087  1.9902
38300SOL     OW17152   7.220   8.537   9.339  0.7027  0.3347 -0.7606
38300SOL    HW117153   7.139   8.564   9.295 -1.2555 -1.7144  1.3042
38300SOL    HW217154   7.288   8.594   9.302 -1.3527  1.0403 -3.7922
38301SOL     OW17155   2.912   9.122   6.639  0.3756  0.6616 -0.3242
38301SOL    HW117156   2.926   9.045   6.695 -1.4732 -0.4205 -1.2401
38301SOL    HW217157   2.979   9.114   6.571  0.3435 -0.0392 -0.2847
38302SOL     OW17158   9.879   2.177   7.715 -0.3565 -0.4724  0.3277
38302SOL    HW117159   9.787   2.167   7.737 -0.2691 -0.3356  0.7777
38302SOL    HW217160   9.925   2.165   7.798  0.0204 -0.4140  0.1311
38303SOL     OW17161   3.629   7.915   0.753  0.0956  0.6918 -0.0959
38303SOL    HW117162   3.665   7.858   0.820 -3.3680  0.9738  2.2837
38303SOL    HW217163   3.632   7.864   0.673  0.0050 -1.5785  1.2772
38304SOL     OW17164   9.055   5.379   7.524 -0.1737 -0.6237 -0.4620
38304SOL    HW117165   9.040   5.297   7.571  0.6332 -0.0066  0.9263
38304SOL    HW217166   9.036   5.358   7.432 -1.5040 -1.9391  0.0724
38305SOL     OW17167   1.038   9.145   6.644  0.8741 -0.3855  0.1345
38305SOL    HW117168   1.015   9.052   6.648 -0.9072 -0.0202 -0.4537
38305SOL    HW217169   1.099   9.152   6.572 -1.1730 -0.7604 -1.7483
38306SOL     OW17170   9.456   2.178   5.432 -0.4781  0.4617 -0.3361
38306SOL    HW117171   9.494   2.120   5.366  1.2765  1.0643  0.0811
38306SOL    HW217172   9.504   2.158   5.512 -1.6237  0.7103  0.4355
38307SOL     OW17173   2.342   2.830   9.842 -0.0484  0.0141  0.0074
38307SOL    HW117174   2.428   2.819   9.883  0.2634  0.1842 -0.5856
38307SOL    HW217175   2.283   2.847   9.915  0.4458  0.0255  0.4127
38308SOL     OW17176   7.137   8.359   1.039 -0.2187 -0.5369  0.5488
38308SOL    HW117177   7.056   8.351   1.089  0.8380  1.1691  2.7298
38308SOL    HW217178   7.113   8.410   0.962 -1.3746 -0.8453  0.6837
38309SOL     OW17179   0.179   4.555   2.058 -0.3333 -0.4583  0.5204
38309SOL    HW117180   0.163   4.581   1.968 -0.5166 -1.6107  0.2089
38309SOL    HW217181   0.264   4.511   2.056  0.1443  0.3971  1.1031
38310SOL     OW17182   6.937   8.415   5.221  0.1602  0.1720  0.0812
38310SOL    HW117183   6.960   8.325   5.242 -1.7639 -0.4690 -0.3720
38310SOL    HW217184   6.873   8.440   5.287  2.5852  2.2404  1.9084
38311SOL     OW17185   6.244   3.978   3.868  0.2759  0.0354 -0.6637
38311SOL    HW117186   6.250   3.887   3.898  3.5898  0.3567 -0.0067
38311SOL    HW217187   6.308   3.985   3.798  0.4279  1.9482 -0.3989
38312SOL     OW17188   7.086   3.523   5.320  0.2611  0.1374 -0.3039
38312SOL    HW117189   7.151   3.591   5.305  1.2884 -0.3282  1.6296
38312SOL    HW217190   7.090   3.507   5.415 -1.0288 -1.5381 -0.4849
38313SOL     OW17191   8.362   8.322   8.383  0.0119 -0.0494 -0.1651
38313SOL    HW117192   8.330   8.244   8.427  0.8646  0.3346  1.1950
38313SOL    HW217193   8.283   8.364   8.348 -0.6191 -0.7182  0.4349
38314SOL     OW17194   6.191   8.969   9.833 -0.5342 -0.3045  0.1050
38314SOL    HW117195   6.215   9.040   9.774 -0.4749 -1.1702 -0.9459
38314SOL    HW217196   6.111   8.999   9.876  0.3652  1.0613  0.8950
38315SOL     OW17197   6.310   9.475   0.216  0.2333  0.0738  0.3045
38315SOL    HW117198   6.323   9.555   0.267  1.7051  1.6665 -2.3351
38315SOL    HW217199   6.397   9.436   0.210  0.2306  0.2790 -1.4463
38316SOL     OW17200   1.094   6.538   3.979 -0.1514  0.2252 -0.6438
38316SOL    HW117201   1.117   6.605   4.044  0.6349 -0.1331 -0.5376
38316SOL    HW217202   1.076   6.460   4.031 -2.6027  0.7178 -0.6509
38317SOL     OW17203   3.448   7.365   8.134 -0.2640  0.1230 -0.8451
38317SOL    HW117204   3.469   7.355   8.041  2.2352 -0.8883 -0.2507
38317SOL    HW217205   3.352   7.364   8.137 -0.4361  0.9370 -3.4593
38318SOL     OW17206   6.244  10.355   0.173  0.1789 -0.2861  0.0999
38318SOL    HW117207   6.246  10.450   0.164  1.1581 -0.1894  1.1483
38318SOL    HW217208   6.206  10.340   0.260 -0.2648 -0.8718 -0.1843
38319SOL     OW17209   5.343   5.701   3.006 -0.1199  0.4861  0.0966
38319SOL    HW117210   5.264   5.711   2.953 -1.7795 -0.0114  2.3293
38319SOL    HW217211   5.363   5.789   3.037  0.4562  0.6718 -0.7686
38320SOL     OW17212   3.848   9.987   8.740 -0.7248  0.2342 -0.3268
38320SOL    HW117213   3.921   9.995   8.802 -0.6016  3.8327 -0.7332
38320SOL    HW217214   3.789   9.923   8.781  0.6664  0.3908  2.1051
38321SOL     OW17215   9.757   9.344   6.400 -0.2371  0.6072  0.1009
38321SOL    HW117216   9.779   9.328   6.492 -0.4492  1.1858  0.2551
38321SOL    HW217217   9.661   9.350   6.399 -0.3376 -0.7820 -0.3859
38322SOL     OW17218   7.124   8.938   5.068  0.0478  0.9127  0.3738
38322SOL    HW117219   7.108   8.999   4.996  0.0419  1.5675  0.9227
38322SOL    HW217220   7.093   8.853   5.034  0.0630  1.2044 -0.3963
38323SOL     OW17221   4.370   7.903   3.782 -0.2343 -0.2305  0.7566
38323SOL    HW117222   4.295   7.960   3.801  0.7023  0.7769  1.5781
38323SOL    HW217223   4.446   7.960   3.790  0.5257 -0.5179 -2.7929
38324SOL     OW17224   6.885   4.251   7.224 -0.0253  0.2391 -0.1183
38324SOL    HW117225   6.906   4.258   7.131 -0.2105 -0.9410 -0.2561
38324SOL    HW217226   6.918   4.165   7.250  1.1467  1.0396  1.2154
38325SOL     OW17227   8.038   0.836   4.753  0.0762 -0.0580  0.3898
38325SOL    HW117228   8.069   0.878   4.834  1.2275 -0.9599  0.4502
38325SOL    HW217229   7.947   0.813   4.771  1.1769 -3.2693  2.7723
38326SOL     OW17230   2.377   3.156   5.700 -0.3769  0.3714  0.3683
38326SOL    HW117231   2.440   3.129   5.634 -0.1189  2.4809 -0.3280
38326SOL    HW217232   2.383   3.252   5.701 -2.1789  0.5227  1.6603
38327SOL     OW17233   3.506   8.879   1.259  0.8104 -0.2227  0.0409
38327SOL    HW117234   3.515   8.970   1.289  0.6013  0.5475 -2.0359
38327SOL    HW217235   3.476   8.831   1.336 -0.9279  1.8477  0.7568
38328SOL     OW17236   4.558   4.220   9.730  0.2021 -0.6207 -0.7341
38328SOL    HW117237   4.556   4.312   9.702  1.4787  0.3212  1.8537
38328SOL    HW217238   4.480   4.210   9.784  0.1838 -0.9923 -0.8285
38329SOL     OW17239   8.430   6.830   8.913  0.1423 -0.3673 -0.1239
38329SOL    HW117240   8.389   6.779   8.984 -1.6021 -0.3728 -1.0860
38329SOL    HW217241   8.440   6.918   8.950 -0.1231 -0.5339  0.3586
38330SOL     OW17242   7.339   2.174   0.611 -0.4914 -0.2805 -0.5733
38330SOL    HW117243   7.422   2.210   0.579 -1.0126  0.8912 -0.6810
38330SOL    HW217244   7.273   2.232   0.574 -1.2831 -0.5165  0.4346
38331SOL     OW17245   5.890   1.468  10.271  0.1921 -0.4009  0.1673
38331SOL    HW117246   5.978   1.502  10.284 -0.9036  2.2661  1.1429
38331SOL    HW217247   5.867   1.428  10.355  0.2512 -0.6476  0.0694
38332SOL     OW17248   7.730   7.758   9.644 -0.2859 -0.1523 -0.5145
38332SOL    HW117249   7.695   7.847   9.640 -1.1076 -0.4578 -0.4311
38332SOL    HW217250   7.797   7.754   9.576 -1.6376 -0.0536 -1.9135
38333SOL     OW17251   6.306   6.154   2.695 -0.7445 -0.0709  0.1324
38333SOL    HW117252   6.359   6.181   2.620  2.5295  2.0940  2.9069
38333SOL    HW217253   6.333   6.063   2.711  0.2013  0.1708 -0.0241
38334SOL     OW17254   7.314   0.695   9.921  0.6986 -0.4059  0.4531
38334SOL    HW117255   7.403   0.663   9.937  0.6931 -0.1796  0.9639
38334SOL    HW217256   7.258   0.619   9.937  0.7490 -0.3679  0.8183
38335SOL     OW17257   3.264   3.876   2.835 -0.1055 -0.1787 -0.3322
38335SOL    HW117258   3.183   3.833   2.864 -0.3391 -0.5138 -1.4307
38335SOL    HW217259   3.330   3.806   2.836  0.9656  0.6694  3.3501
38336SOL     OW17260   7.126   4.675   0.201 -0.4027  0.2631  0.1485
38336SOL    HW117261   7.135   4.685   0.296  1.2614  0.1716  0.0266
38336SOL    HW217262   7.036   4.702   0.183 -0.3814  1.4397  1.5956
38337SOL     OW17263   0.161   0.577   9.164 -0.6723  0.2303 -0.0912
38337SOL    HW117264   0.132   0.640   9.229  0.2610 -0.1550  0.7219
38337SOL    HW217265   0.244   0.613   9.131 -0.7821  0.0726 -0.5442
38338SOL     OW17266   7.215   9.452   2.066  0.0125  0.8500 -0.2647
38338SOL    HW117267   7.222   9.444   2.161 -2.5494 -1.6172 -0.1446
38338SOL    HW217268   7.159   9.529   2.053  0.4330  1.2408  0.2182
38339SOL     OW17269   8.411   7.747   6.181  0.6763  0.1151 -0.0010
38339SOL    HW117270   8.505   7.734   6.181  0.5188 -1.5078 -1.8880
38339SOL    HW217271   8.388   7.762   6.089 -0.8870  0.4831  0.4128
38340SOL     OW17272   9.235   3.357   0.475 -0.3573 -0.3253 -0.0097
38340SOL    HW117273   9.205   3.444   0.500  0.0486 -0.3371  0.5201
38340SOL    HW217274   9.329   3.366   0.460 -0.4014 -0.5621 -0.4533
38341SOL     OW17275   8.501   4.682   4.400 -0.2439  0.0573  0.4872
38341SOL    HW117276   8.461   4.762   4.433 -0.5885 -0.1044  0.4664
38341SOL    HW217277   8.508   4.625   4.476  0.6006  0.3410  0.6352
38342SOL     OW17278   5.401   1.824   1.495 -0.3014  0.2470  0.5209
38342SOL    HW117279   5.431   1.772   1.420 -0.3649 -0.3868  0.9223
38342SOL    HW217280   5.310   1.797   1.508  0.0501 -0.5393  1.5433
38343SOL     OW17281   8.127   3.098   2.257 -0.2558 -0.6677  0.1002
38343SOL    HW117282   8.070   3.106   2.180  0.6215  0.7954 -0.4648
38343SOL    HW217283   8.134   3.004   2.273 -3.4044 -0.9069  0.6938
38344SOL     OW17284   7.961   2.543   9.018  1.0421 -0.1813 -0.3033
38344SOL    HW117285   7.888   2.605   9.024  1.6725  0.5890 -0.4442
38344SOL    HW217286   8.012   2.558   9.097  4.0562  3.2169 -2.5588
38345SOL     OW17287   1.156   7.197   5.213  0.0496 -0.0757  0.2152
38345SOL    HW117288   1.190   7.228   5.297 -1.5556  0.1081  0.8262
38345SOL    HW217289   1.154   7.275   5.157  0.8405 -0.1425  0.0709
38346SOL     OW17290   7.438   4.748   1.443  0.0196  0.0451  0.0465
38346SOL    HW117291   7.412   4.807   1.372 -1.9616 -0.3813  0.3366
38346SOL    HW217292   7.408   4.791   1.523 -0.3529 -0.7771  0.3631
38347SOL     OW17293   6.891   0.404   1.931  0.1210  0.3480  0.1127
38347SOL    HW117294   6.981   0.374   1.934 -0.3136 -1.0685 -0.1655
38347SOL    HW217295   6.892   0.489   1.974  1.3737 -0.1815  1.1806
38348SOL     OW17296   3.286   3.786   4.100  0.2939  0.2003 -0.0293
38348SOL    HW117297   3.239   3.725   4.043 -0.5269  1.6545 -0.9809
38348SOL    HW217298   3.378   3.769   4.081  0.1641 -1.6630  0.7587
38349SOL     OW17299   5.846   1.371   9.752  0.4792 -0.5612 -0.2262
38349SOL    HW117300   5.835   1.458   9.788  2.1174 -0.0052 -1.0047
38349SOL    HW217301   5.911   1.381   9.682 -2.0585 -1.6634 -2.9942
38350SOL     OW17302   8.412   4.372   5.331 -0.5236  0.0195 -0.6158
38350SOL    HW117303   8.332   4.397   5.378  1.0223  1.5274  1.4170
38350SOL    HW217304   8.438   4.451   5.284  1.0371  0.3755  0.7497
38351SOL     OW17305  10.080   1.856   5.977 -0.3678  0.1657  0.3387
38351SOL    HW117306  10.102   1.949   5.983 -0.7218  0.3111 -0.4798
38351SOL    HW217307  10.025   1.850   5.899  1.0076 -0.9756 -0.5803
38352SOL     OW17308   1.659   1.299  10.106 -0.4814  0.1636 -0.1404
38352SOL    HW117309   1.614   1.311  10.189  1.8650 -1.0341  1.3811
38352SOL    HW217310   1.681   1.388  10.078 -1.0762  0.5529  0.5986
38353SOL     OW17311   2.194   3.396   7.665 -0.3433  0.2891 -0.1586
38353SOL    HW117312   2.145   3.444   7.732  1.0465  1.5482  0.0149
38353SOL    HW217313   2.283   3.391   7.700 -0.0283 -0.7448 -1.0622
38354SOL     OW17314   6.733   8.246   0.271 -0.4096 -0.4761 -0.1760
38354SOL    HW117315   6.803   8.260   0.334 -2.1002 -3.2337  2.6157
38354SOL    HW217316   6.656   8.285   0.312 -1.1210 -0.0238 -1.8457
38355SOL     OW17317   1.475   0.026   3.208  0.0739 -0.0268 -0.4319
38355SOL    HW117318   1.530  -0.051   3.195  0.7066 -0.2906  2.9586
38355SOL    HW217319   1.390  -0.010   3.232  0.4489  0.2497  1.4447
38356SOL     OW17320   2.739   0.581   0.045 -0.0115  0.2979 -0.4715
38356SOL    HW117321   2.737   0.534   0.129  0.0012 -1.5207 -1.4490
38356SOL    HW217322   2.828   0.614   0.038 -0.0888  0.7126  0.3448
38357SOL     OW17323   6.229   1.309   7.359  0.0592  0.1197 -0.1412
38357SOL    HW117324   6.316   1.329   7.324 -0.0955  0.2966 -0.4233
38357SOL    HW217325   6.198   1.392   7.396  0.7332 -0.3423  1.5390
38358SOL     OW17326   0.797   2.468   2.222 -0.0179 -0.0034 -0.4505
38358SOL    HW117327   0.740   2.399   2.256 -1.1367  0.1129 -2.0105
38358SOL    HW217328   0.760   2.549   2.256  0.4555 -0.0510  0.2076
38359SOL     OW17329   6.188   0.347   0.186 -0.2321 -0.6842 -0.1009
38359SOL    HW117330   6.190   0.291   0.108  0.4710 -0.9232  0.0783
38359SOL    HW217331   6.245   0.302   0.248  0.9643  0.6194 -0.2171
38360SOL     OW17332   7.907   9.947   9.075  0.3557 -0.0880 -0.1019
38360SOL    HW117333   7.974   9.879   9.078 -0.0987 -0.4962  2.0530
38360SOL    HW217334   7.824   9.900   9.068  0.0921  0.2589  0.5788
38361SOL     OW17335   1.564  10.381   3.677 -0.2224 -1.1310 -0.4021
38361SOL    HW117336   1.535  10.454   3.622  2.8765  1.4899  1.1107
38361SOL    HW217337   1.619  10.329   3.620 -0.2730 -0.7292 -0.8248
38362SOL     OW17338   6.773   5.447  10.052 -0.0473  0.6311  0.8511
38362SOL    HW117339   6.772   5.503  10.130  0.4129 -1.1787  2.2261
38362SOL    HW217340   6.859   5.406  10.053  0.3788  1.3305 -1.2443
38363SOL     OW17341   8.033   2.668   5.787 -0.0934  0.3201 -0.4128
38363SOL    HW117342   7.952   2.710   5.758  0.7460  1.2175 -1.5719
38363SOL    HW217343   8.099   2.737   5.782  0.8657 -0.5345 -0.0273
38364SOL     OW17344  10.096   2.598   6.669 -0.1642 -0.7761 -0.5499
38364SOL    HW117345  10.105   2.507   6.696 -0.7301 -0.3678  1.1159
38364SOL    HW217346  10.004   2.619   6.685  0.2602  0.4818  0.4561
38365SOL     OW17347   7.755   2.793   3.103 -0.1259 -0.2914 -0.0911
38365SOL    HW117348   7.799   2.832   3.027  0.5887 -3.0759 -1.2044
38365SOL    HW217349   7.823   2.743   3.147 -1.1307 -0.8076  0.9124
38366SOL     OW17350   6.571   4.957   1.688  0.4018 -0.0960 -0.0173
38366SOL    HW117351   6.513   4.936   1.615 -0.2393  0.5358  0.2997
38366SOL    HW217352   6.549   4.892   1.755  0.5955 -0.3287 -0.1795
38367SOL     OW17353   1.242   3.609   5.849 -0.1372  0.2776  0.4571
38367SOL    HW117354   1.330   3.636   5.874 -0.8506  2.1022  1.1410
38367SOL    HW217355   1.218   3.666   5.777 -1.5363  1.3030  1.6661
38368SOL     OW17356   7.406   6.905   1.793  0.3675 -0.4596 -0.1559
38368SOL    HW117357   7.430   6.988   1.834 -1.7833 -0.0642  0.4036
38368SOL    HW217358   7.401   6.843   1.865 -1.8776 -0.1168  0.0702
38369SOL     OW17359   0.812  10.625   8.645 -0.0060 -0.1571  0.1996
38369SOL    HW117360   0.811  10.641   8.550  0.3805 -1.3912 -0.0261
38369SOL    HW217361   0.843  10.535   8.654 -0.3630 -0.1681  1.4941
38370SOL     OW17362   8.514   8.964   0.956 -0.4345  1.1214  0.3268
38370SOL    HW117363   8.585   9.028   0.950 -0.8078  1.4353 -1.3738
38370SOL    HW217364   8.437   9.012   0.924 -0.7977 -0.0556 -0.6191
38371SOL     OW17365   3.678   6.573   5.838 -0.2036 -0.3571  0.6026
38371SOL    HW117366   3.585   6.550   5.845 -0.7777  0.8548 -1.8757
38371SOL    HW217367   3.719   6.494   5.801 -0.7069 -0.1456 -0.4496
38372SOL     OW17368   7.962   0.415   4.597 -0.5611 -0.2023  0.6495
38372SOL    HW117369   7.902   0.463   4.539 -1.2644 -0.3614  1.2305
38372SOL    HW217370   7.985   0.337   4.547 -0.4301  0.1113  0.2150
38373SOL     OW17371   6.963   3.235   1.667 -0.3931 -0.0142  0.1739
38373SOL    HW117372   6.895   3.179   1.631  1.2099 -1.7876 -0.2719
38373SOL    HW217373   7.039   3.219   1.611  0.9567  0.3514  1.8207
38374SOL     OW17374   7.943  10.315   7.852 -0.3894  0.8565  0.2468
38374SOL    HW117375   7.996  10.395   7.853  1.7083 -0.4562  1.2862
38374SOL    HW217376   7.921  10.300   7.943  2.7694 -1.8367  0.7588
38375SOL     OW17377   7.177   9.380   2.420 -0.2177  0.1756 -0.6082
38375SOL    HW117378   7.081   9.373   2.422 -0.1803 -0.3891  1.6172
38375SOL    HW217379   7.204   9.362   2.510  2.0245 -0.0577 -1.2817
38376SOL     OW17380  10.630   0.593   1.112 -0.3775  0.4284 -0.0101
38376SOL    HW117381  10.629   0.612   1.205  2.3879 -0.1595  0.2506
38376SOL    HW217382  10.612   0.677   1.070 -1.6161  0.7044  1.0328
38377SOL     OW17383   3.642   5.491   4.623 -0.3633  0.3384 -0.1389
38377SOL    HW117384   3.573   5.496   4.690 -0.3287  0.7074 -0.1276
38377SOL    HW217385   3.609   5.428   4.559  0.4407 -1.5149  1.1825
38378SOL     OW17386   8.886   2.824   5.595 -0.3311  0.6549  0.5900
38378SOL    HW117387   8.931   2.757   5.646 -1.7137  0.2385  1.3201
38378SOL    HW217388   8.935   2.829   5.513  0.3024 -0.6390  0.8617
38379SOL     OW17389   9.182   8.607   8.443  0.3306 -0.3153 -0.4622
38379SOL    HW117390   9.245   8.536   8.426 -1.5642 -1.9833 -0.9062
38379SOL    HW217391   9.155   8.636   8.355  2.4073  2.3543 -0.3742
38380SOL     OW17392   8.965   9.304   7.850 -0.0954 -0.4982 -0.2178
38380SOL    HW117393   8.890   9.302   7.790 -0.0145 -1.2244 -0.2985
38380SOL    HW217394   9.037   9.268   7.800  0.1089 -0.5796  0.1289
38381SOL     OW17395   2.895  10.046   6.632 -0.0898 -0.1285 -0.1120
38381SOL    HW117396   2.855  10.132   6.636  0.0541 -0.0865  0.4055
38381SOL    HW217397   2.871  10.004   6.714 -0.4902 -0.7315 -0.5240
38382SOL     OW17398   8.527   4.193   6.530  0.0113 -0.1414  0.5983
38382SOL    HW117399   8.498   4.196   6.439  1.8321  0.1596  0.0038
38382SOL    HW217400   8.499   4.278   6.566  1.1769  0.6661 -0.3102
38383SOL     OW17401   5.914   7.446   6.687  0.7112  0.1326 -0.3502
38383SOL    HW117402   5.927   7.509   6.759  1.4234  0.1686 -0.5042
38383SOL    HW217403   5.820   7.433   6.684  0.5546  1.1440 -0.2661
38384SOL     OW17404   8.114   7.862   3.959 -0.6337  0.2562  0.1384
38384SOL    HW117405   8.093   7.949   3.993 -3.2535 -0.5079  0.6633
38384SOL    HW217406   8.087   7.865   3.867  5.5755  2.0199 -2.1445
38385SOL     OW17407   9.136   8.299  10.502 -0.7066 -0.4246 -0.5198
38385SOL    HW117408   9.145   8.245  10.581  0.5557 -1.6995 -1.4776
38385SOL    HW217409   9.134   8.236  10.430  0.8088  0.7823 -1.6874
38386SOL     OW17410   9.178   7.466   1.574 -0.3739 -0.2752  0.6403
38386SOL    HW117411   9.249   7.455   1.637 -0.6514  0.0938  1.0226
38386SOL    HW217412   9.108   7.408   1.605 -0.3208 -0.4804  0.3821
38387SOL     OW17413   3.300   5.448   2.573 -0.2950 -0.3877 -0.1401
38387SOL    HW117414   3.303   5.353   2.583 -0.1771 -0.3414  0.2787
38387SOL    HW217415   3.387   5.472   2.542 -0.0117 -0.3153  0.6872
38388SOL     OW17416   5.411   0.377  10.169  0.2979 -0.2888  0.3376
38388SOL    HW117417   5.415   0.457  10.118  0.1790  1.4862  2.8881
38388SOL    HW217418   5.318   0.361  10.182  0.3191 -0.9260 -0.2838
38389SOL     OW17419   6.947   5.406   0.958 -0.2643 -0.0304 -0.0265
38389SOL    HW117420   7.023   5.388   0.903  1.2537 -1.1446  2.2733
38389SOL    HW217421   6.915   5.491   0.928  2.2568  0.7549 -0.7014
38390SOL     OW17422  10.315   9.464   7.918  0.2356  0.4277  0.3680
38390SOL    HW117423  10.368   9.542   7.903  2.1088 -0.5332  1.4993
38390SOL    HW217424  10.286   9.472   8.009 -1.5058  0.8639 -0.1951
38391SOL     OW17425   6.343   3.238   1.753 -0.0415 -0.5603 -0.6879
38391SOL    HW117426   6.374   3.328   1.765  0.6259 -0.6606 -1.5611
38391SOL    HW217427   6.397   3.187   1.813 -0.1268 -0.4403 -0.5052
38392SOL     OW17428   6.947   4.411   5.898 -0.0272  0.0617 -0.1529
38392SOL    HW117429   7.034   4.378   5.918  0.3647 -0.1698 -2.0762
38392SOL    HW217430   6.888   4.352   5.946  0.7510 -2.0954 -1.7139
38393SOL     OW17431   1.524   0.061   7.460  0.5502 -0.1144  0.1536
38393SOL    HW117432   1.444   0.102   7.429  0.3318 -0.6460  0.0131
38393SOL    HW217433   1.502  -0.032   7.471  1.4623 -0.5029 -1.0488
38394SOL     OW17434   8.384  10.622   2.518 -0.5041 -0.2913  0.6419
38394SOL    HW117435   8.468  10.575   2.517 -1.6906 -2.5311  0.7641
38394SOL    HW217436   8.391  10.684   2.445  2.0565  1.1946  1.9988
38395SOL     OW17437   3.886  10.506   1.292  0.5891 -0.0115 -0.4463
38395SOL    HW117438   3.853  10.558   1.364 -1.2235 -1.1289 -0.4105
38395SOL    HW217439   3.909  10.422   1.332  0.5761 -0.2758 -0.9865
38396SOL     OW17440   6.906   4.376   6.645  0.1586  0.1744 -0.3511
38396SOL    HW117441   6.986   4.324   6.641 -0.5350 -1.1608  1.6652
38396SOL    HW217442   6.936   4.466   6.630  2.3401 -0.0643  1.7726
38397SOL     OW17443   1.521   6.778   7.519  0.1731  0.1128  0.4821
38397SOL    HW117444   1.451   6.721   7.553 -0.8567  0.8561 -0.3567
38397SOL    HW217445   1.572   6.801   7.597 -1.7709  1.2707  1.4724
38398SOL     OW17446   5.818   3.982   5.472 -0.1126 -0.8977 -0.0171
38398SOL    HW117447   5.773   4.066   5.466 -1.0536 -1.3628  0.3122
38398SOL    HW217448   5.907   4.000   5.440  0.1585  0.5440  1.4041
38399SOL     OW17449   5.210   7.080   4.595 -0.3292  0.2825  0.0958
38399SOL    HW117450   5.196   7.144   4.665  0.7998  0.7042 -0.0476
38399SOL    HW217451   5.211   6.995   4.640  0.1061  0.5269  0.5589
38400SOL     OW17452  10.504   0.927   5.603 -0.6043  0.5568  0.4782
38400SOL    HW117453  10.474   0.966   5.685  1.2933 -1.3424  2.1747
38400SOL    HW217454  10.492   0.833   5.615 -1.2618  0.2566 -1.8891
38401SOL     OW17455   3.275   5.267   9.250 -0.6066 -0.0679 -0.2352
38401SOL    HW117456   3.201   5.237   9.197  0.4388 -2.3701 -0.5534
38401SOL    HW217457   3.259   5.230   9.337 -1.4270  2.2064  0.6309
38402SOL     OW17458   4.654   5.132   4.079  0.0091 -0.0570 -0.0889
38402SOL    HW117459   4.707   5.053   4.082 -0.9534 -0.7140  0.4275
38402SOL    HW217460   4.645   5.159   4.171 -0.6677 -0.0551 -0.1457
38403SOL     OW17461   3.203   4.384   9.535  0.6761  0.3307  0.2383
38403SOL    HW117462   3.116   4.420   9.551  0.7233 -0.0537  1.4795
38403SOL    HW217463   3.188   4.292   9.515  0.7367  0.4742 -0.4954
38404SOL     OW17464   3.811   5.691   4.596  0.4458  0.0189  0.8548
38404SOL    HW117465   3.761   5.613   4.621  0.2581 -0.8270 -1.8522
38404SOL    HW217466   3.758   5.764   4.627 -0.7938 -0.9044  1.0006
38405SOL     OW17467   1.331   4.120   6.511  0.2591  0.1813 -0.6947
38405SOL    HW117468   1.384   4.193   6.544  1.9780 -0.7473 -1.2993
38405SOL    HW217469   1.241   4.149   6.524  0.8282  1.0046  2.2440
38406SOL     OW17470   4.304   4.211   5.391 -0.2058  0.1123 -0.1334
38406SOL    HW117471   4.362   4.151   5.344  0.1012  0.4226 -0.1493
38406SOL    HW217472   4.293   4.171   5.477 -0.2124 -0.0995 -0.2309
38407SOL     OW17473   9.020   8.837   5.287 -0.3398  0.5196 -0.5064
38407SOL    HW117474   8.970   8.842   5.369  0.0031 -1.9406 -0.0612
38407SOL    HW217475   9.005   8.748   5.255  2.2040  0.3148 -1.3484
38408SOL     OW17476   7.858   3.698   8.827 -0.4233  0.5790  0.5280
38408SOL    HW117477   7.923   3.718   8.893 -1.3297  0.1549  1.5823
38408SOL    HW217478   7.776   3.733   8.862 -0.4802  2.9336 -1.6640
38409SOL     OW17479   7.517   0.818   0.800 -0.3748 -0.2406  0.0745
38409SOL    HW117480   7.514   0.872   0.721 -0.2327 -1.9660 -1.1686
38409SOL    HW217481   7.452   0.750   0.784 -0.1596 -0.7634  1.3488
38410SOL     OW17482   6.829   7.022   8.226 -0.3110  0.2459  0.3002
38410SOL    HW117483   6.807   7.053   8.314 -0.8660  0.6106  0.0433
38410SOL    HW217484   6.880   7.093   8.188 -3.2988  1.8930 -1.0243
38411SOL     OW17485   0.742   3.512   6.384  0.4107  0.2554 -0.1114
38411SOL    HW117486   0.699   3.564   6.452 -0.7713  1.2827 -1.5883
38411SOL    HW217487   0.832   3.546   6.381  0.9045 -0.7332  1.8152
38412SOL     OW17488   3.299   7.118   2.860 -0.2399  0.2443  0.0016
38412SOL    HW117489   3.278   7.040   2.810 -0.3043  0.7591 -0.8020
38412SOL    HW217490   3.234   7.183   2.832  0.7929  1.0783 -0.5991
38413SOL     OW17491   5.920   5.883   8.409  0.0470 -0.2533  0.0482
38413SOL    HW117492   5.871   5.806   8.436  1.9855 -1.5934 -0.0308
38413SOL    HW217493   5.862   5.929   8.348 -1.8024 -0.7185  1.3908
38414SOL     OW17494   5.317   3.326   4.761  0.1936  0.5011 -0.2412
38414SOL    HW117495   5.402   3.284   4.770  0.2916  0.3759 -1.5804
38414SOL    HW217496   5.335   3.420   4.765  0.6115  0.5223 -1.9240
38415SOL     OW17497   3.619   9.226   5.065  0.3238 -0.0384  0.1604
38415SOL    HW117498   3.538   9.183   5.037  0.3143 -0.0656  0.2314
38415SOL    HW217499   3.607   9.243   5.158  0.2224  0.3487  0.0806
38416SOL     OW17500   7.783   0.856  10.633 -0.4327  0.4891 -0.0964
38416SOL    HW117501   7.874   0.825  10.630 -0.7547 -0.4486 -0.6663
38416SOL    HW217502   7.782   0.923  10.702  0.2859 -0.7992  1.1991
38417SOL     OW17503  10.651   5.815   0.964  0.5154  0.3093  0.1720
38417SOL    HW117504  10.682   5.772   0.885 -0.4980  1.2458 -0.7767
38417SOL    HW217505  10.695   5.900   0.964 -0.6710  0.9517 -0.2693
38418SOL     OW17506   9.155   9.089   2.063 -0.3641 -0.4428  0.4437
38418SOL    HW117507   9.070   9.049   2.043  0.1655 -1.4726  0.1866
38418SOL    HW217508   9.200   9.023   2.117  1.2151 -0.9939 -1.4382
38419SOL     OW17509   8.014   9.095   8.244  0.4201 -0.4780 -0.6005
38419SOL    HW117510   7.987   9.024   8.302 -1.3725  0.6426  0.0285
38419SOL    HW217511   7.947   9.096   8.175  1.0079 -0.0447 -1.1756
38420SOL     OW17512   1.544   1.293   1.470 -0.3152 -0.2904  0.5901
38420SOL    HW117513   1.468   1.254   1.512  0.4477 -0.5582  1.7479
38420SOL    HW217514   1.593   1.335   1.540  1.1060 -0.9353  0.0523
38421SOL     OW17515   3.878   8.350  10.513 -0.2050 -0.0286 -0.7108
38421SOL    HW117516   3.838   8.414  10.455  0.5000  0.7009 -0.3963
38421SOL    HW217517   3.805   8.318  10.567 -0.6189  0.2477 -1.1048
38422SOL     OW17518   7.267   2.591   7.388 -0.1751  0.2210  0.2650
38422SOL    HW117519   7.272   2.681   7.356  0.4422  0.4485  0.9877
38422SOL    HW217520   7.175   2.566   7.376 -0.2478  0.7659 -0.3933
38423SOL     OW17521   0.781   9.330   0.229 -0.0768  0.7244  0.8249
38423SOL    HW117522   0.835   9.284   0.164 -3.1859  0.3182 -1.7201
38423SOL    HW217523   0.790   9.423   0.205  0.0082  0.7212  0.8432
38424SOL     OW17524   2.158   0.823   6.635 -0.3892 -0.1794  0.1217
38424SOL    HW117525   2.105   0.762   6.686  1.3933 -0.4682  1.7133
38424SOL    HW217526   2.222   0.858   6.697 -1.2262  3.2812 -0.7268
38425SOL     OW17527   3.460   7.598   3.349 -0.2785 -0.0761 -0.5079
38425SOL    HW117528   3.526   7.605   3.418 -1.4925 -0.5454  0.7441
38425SOL    HW217529   3.425   7.687   3.339 -1.4929 -0.3508  0.9454
38426SOL     OW17530   4.808   2.057   5.053  0.4008 -0.3604  0.0319
38426SOL    HW117531   4.867   2.023   4.986 -0.4009  0.7109 -1.2585
38426SOL    HW217532   4.720   2.037   5.020 -0.1867  3.4425 -1.2183
38427SOL     OW17533   3.561   0.502   6.169 -0.5515  0.3403  0.3309
38427SOL    HW117534   3.548   0.595   6.150 -0.4110  0.4493  0.7697
38427SOL    HW217535   3.493   0.458   6.118  0.5590  0.5361 -1.4001
38428SOL     OW17536   6.932   4.112   0.937  0.1375  0.3181  0.2636
38428SOL    HW117537   6.927   4.042   0.872 -1.2199 -2.2318  2.8434
38428SOL    HW217538   6.853   4.163   0.923  0.5610  0.6875 -0.9204
38429SOL     OW17539   4.904   8.149   5.051  0.2064  0.6809 -0.0253
38429SOL    HW117540   4.823   8.150   5.102  0.3513  3.0176  0.2475
38429SOL    HW217541   4.973   8.160   5.117  0.6718  0.0397 -0.3911
38430SOL     OW17542   2.820   1.926  10.322 -0.3136  0.6023 -0.0354
38430SOL    HW117543   2.892   1.868  10.346 -1.0332 -0.1901  0.2440
38430SOL    HW217544   2.793   1.896  10.235 -0.6972  0.5116  0.1153
38431SOL     OW17545   6.097   6.311   3.044 -0.0138  0.1624 -0.1256
38431SOL    HW117546   6.106   6.380   3.109  0.8239  1.6812 -1.7803
38431SOL    HW217547   6.027   6.341   2.986  2.2183  1.1053 -2.5191
38432SOL     OW17548   9.581   2.332   5.093 -0.4719  0.2190  0.5931
38432SOL    HW117549   9.489   2.318   5.069  0.2303 -1.0773 -1.6404
38432SOL    HW217550   9.618   2.244   5.096  0.7584  0.7464  1.1865
38433SOL     OW17551   7.006   2.333   3.753  0.0372  0.2082  0.1681
38433SOL    HW117552   6.917   2.312   3.783  0.4384  0.5400  1.7061
38433SOL    HW217553   7.024   2.418   3.794  1.7713 -0.7516  1.5289
38434SOL     OW17554   1.273   1.240   4.510  0.1934 -0.7638 -0.1052
38434SOL    HW117555   1.356   1.196   4.490 -0.4473 -1.2544 -1.8643
38434SOL    HW217556   1.219   1.172   4.550  0.3789 -0.6588  0.3193
38435SOL     OW17557   5.233   9.122   5.790 -0.0105 -0.0039  0.0098
38435SOL    HW117558   5.141   9.125   5.766 -0.1629  2.3196  0.6123
38435SOL    HW217559   5.279   9.153   5.712  0.1226  0.3778  0.2369
38436SOL     OW17560   5.192   7.317   2.041 -0.4484  0.1337 -0.1922
38436SOL    HW117561   5.122   7.361   2.090 -1.3915 -1.3657 -0.1407
38436SOL    HW217562   5.212   7.239   2.093 -0.2821 -0.6087 -1.3352
38437SOL     OW17563   1.437  10.602   1.170  0.1031 -0.1275 -0.3224
38437SOL    HW117564   1.468  10.512   1.183  1.9535 -0.0625 -3.3106
38437SOL    HW217565   1.488  10.654   1.232  0.3150 -0.9310  0.1913
38438SOL     OW17566   9.282   2.266   6.048 -0.3440  0.4019 -0.4500
38438SOL    HW117567   9.287   2.175   6.019  1.7079  0.3276 -0.0208
38438SOL    HW217568   9.212   2.266   6.113  2.4691 -1.9894  2.9662
38439SOL     OW17569  10.055   2.664   0.690  0.1272  0.0966 -0.0006
38439SOL    HW117570  10.074   2.753   0.722  0.8984 -0.1818  0.3242
38439SOL    HW217571   9.966   2.647   0.721 -0.6608  1.3505 -1.3944
38440SOL     OW17572   9.704   9.759   4.286 -0.2973 -0.2644 -0.1137
38440SOL    HW117573   9.630   9.756   4.346 -2.2266  1.7203 -2.1717
38440SOL    HW217574   9.781   9.765   4.342 -1.6091 -2.4494  2.1248
38441SOL     OW17575   9.674   6.474   1.051  0.0929 -0.0321 -0.5821
38441SOL    HW117576   9.707   6.446   0.966  2.3586  0.5401  0.0256
38441SOL    HW217577   9.721   6.556   1.068 -0.0865 -0.2859  1.3288
38442SOL     OW17578   1.179   4.553   8.945 -0.3799 -0.2659  0.5434
38442SOL    HW117579   1.164   4.467   8.984  1.1213 -0.8497 -0.0905
38442SOL    HW217580   1.272   4.569   8.957 -0.2163  0.3256 -1.2217
38443SOL     OW17581   6.702   2.270   3.134  0.0600  0.2662 -0.3768
38443SOL    HW117582   6.649   2.217   3.194  0.0634 -1.2485 -1.6494
38443SOL    HW217583   6.650   2.275   3.054 -0.1633  2.6798 -0.1464
38444SOL     OW17584   9.033   1.703   3.669  0.1847 -0.7510 -0.4368
38444SOL    HW117585   8.938   1.694   3.665 -0.0609  1.5720 -2.8872
38444SOL    HW217586   9.067   1.631   3.616 -0.3408 -0.6505 -0.9211
38445SOL     OW17587   0.171   0.265   5.390  0.3486  0.0912 -0.1919
38445SOL    HW117588   0.210   0.289   5.474 -2.5391  1.9158  0.7860
38445SOL    HW217589   0.148   0.173   5.400  0.8787  0.0423  0.6650
38446SOL     OW17590   9.873   2.622   3.314  0.1017 -0.4625 -0.3298
38446SOL    HW117591   9.792   2.614   3.265 -0.7164 -1.4328  1.1133
38446SOL    HW217592   9.845   2.638   3.405  1.5429  0.8771 -0.0700
38447SOL     OW17593   8.011   3.131   8.644  0.3352  0.4700  0.4273
38447SOL    HW117594   8.015   3.064   8.576  0.7604  0.4181  0.5019
38447SOL    HW217595   8.013   3.082   8.726 -0.6865  0.5018  0.4846
38448SOL     OW17596   7.108  10.436  10.454 -0.2159  0.1767 -0.4421
38448SOL    HW117597   7.078  10.524  10.477  0.6053  0.5249 -0.6755
38448SOL    HW217598   7.120  10.393  10.538  0.2668  0.5936 -0.2926
38449SOL     OW17599   4.841   3.658   7.447  0.1021 -0.5260  0.2559
38449SOL    HW117600   4.933   3.633   7.439  0.5394 -0.2785  3.3625
38449SOL    HW217601   4.839   3.720   7.520 -2.5158 -0.3207  0.1066
38450SOL     OW17602   3.904   6.789   1.494  0.2903  0.1366 -0.3825
38450SOL    HW117603   3.882   6.862   1.435  1.6015  0.5128 -0.4280
38450SOL    HW217604   3.834   6.790   1.559 -0.5132  0.4986 -1.2255
38451SOL     OW17605   6.206   2.425   8.720 -0.0260 -0.1938  0.3623
38451SOL    HW117606   6.238   2.335   8.715 -1.8645 -0.8540 -0.3278
38451SOL    HW217607   6.111   2.417   8.713 -0.1159  2.0079 -3.1448
38452SOL     OW17608   1.397   5.156   6.554  0.4572  0.5747  0.0864
38452SOL    HW117609   1.414   5.194   6.467  0.3120 -0.6401 -0.4912
38452SOL    HW217610   1.417   5.063   6.544  0.8909  0.4917  1.4977
38453SOL     OW17611   4.235   2.466   0.649 -0.0546  0.3775  0.5682
38453SOL    HW117612   4.279   2.533   0.597  3.7709 -1.3308  1.2490
38453SOL    HW217613   4.233   2.502   0.738 -1.1546  0.8883  0.3578
38454SOL     OW17614   9.070   7.979   8.630  0.4354  0.6949  0.6075
38454SOL    HW117615   9.026   8.040   8.689  0.4970  0.8071  0.5372
38454SOL    HW217616   9.023   7.987   8.547  0.0010  0.1384  0.7902
38455SOL     OW17617   7.013   7.829   2.121  0.3980  0.1986  0.1883
38455SOL    HW117618   7.088   7.793   2.075  1.0591  1.4640  0.2371
38455SOL    HW217619   6.940   7.774   2.094  1.1816 -0.5113 -0.5480
38456SOL     OW17620   5.390   1.807   4.658 -0.0574  0.5921 -0.4772
38456SOL    HW117621   5.353   1.740   4.716 -0.0569  1.5766  0.7065
38456SOL    HW217622   5.373   1.890   4.703  1.0838  1.2971 -1.2837
38457SOL     OW17623   1.911   9.974   5.591  0.1091  0.1944 -0.1981
38457SOL    HW117624   1.926  10.065   5.568 -1.0601  0.4905  0.1095
38457SOL    HW217625   1.819   9.971   5.618  0.4219 -0.8452  0.8724
38458SOL     OW17626   6.553   1.037   3.182  0.2894 -0.2417  0.1084
38458SOL    HW117627   6.620   0.970   3.176 -1.1165 -1.7629  0.7404
38458SOL    HW217628   6.478   0.993   3.223 -0.9124  1.5292 -0.0728
38459SOL     OW17629   7.828   4.693   1.631  0.3583  0.0499  0.8940
38459SOL    HW117630   7.823   4.766   1.570  0.8944 -1.1026 -0.6161
38459SOL    HW217631   7.915   4.700   1.670  0.5363  0.0442  0.5047
38460SOL     OW17632   4.409   2.232   2.765  0.0040  0.2222  0.1236
38460SOL    HW117633   4.401   2.153   2.711  0.0709  0.3053 -0.0083
38460SOL    HW217634   4.498   2.262   2.750  0.4116 -0.4113  1.1978
38461SOL     OW17635   3.864   0.052   6.191 -0.8063 -0.1031  0.4292
38461SOL    HW117636   3.805  -0.010   6.147 -0.7098  0.3332 -0.3518
38461SOL    HW217637   3.809   0.096   6.256 -1.9530  1.7261 -1.6259
38462SOL     OW17638   9.180   1.029   2.100  0.2760 -0.2483  0.0217
38462SOL    HW117639   9.209   1.050   2.011  1.3153 -1.6812 -0.0118
38462SOL    HW217640   9.098   0.981   2.087 -1.2806  2.2577  0.0321
38463SOL     OW17641   9.237   8.948   4.736  0.9686 -0.2264 -0.2007
38463SOL    HW117642   9.227   9.043   4.731  1.0032 -0.2486 -0.8915
38463SOL    HW217643   9.168   8.920   4.796  1.8032  0.3551  1.0553
38464SOL     OW17644   2.023   4.551   7.022 -0.2316  0.2292 -0.7303
38464SOL    HW117645   1.977   4.598   7.091 -0.7891  0.7224 -1.4240
38464SOL    HW217646   2.059   4.473   7.065  1.3642  1.6548  0.6244
38465SOL     OW17647   0.793   8.617   7.745  0.0830  0.5616  0.1914
38465SOL    HW117648   0.875   8.660   7.718  0.5522 -0.5782 -0.2933
38465SOL    HW217649   0.820   8.558   7.816 -0.3453  0.2832  0.1223
38466SOL     OW17650   3.805   8.733   8.621 -0.1674  0.3997  0.0771
38466SOL    HW117651   3.860   8.798   8.577 -1.2180  0.9758 -0.4289
38466SOL    HW217652   3.853   8.709   8.700  0.9252  0.6801 -0.4935
38467SOL     OW17653   7.087   0.109   6.703  0.4735 -0.0823 -0.1781
38467SOL    HW117654   7.020   0.059   6.751  2.0540 -0.8449  1.3615
38467SOL    HW217655   7.042   0.139   6.624 -1.8261 -0.1203  1.0172
38468SOL     OW17656   9.670   3.575   6.642  0.0893  0.1187 -0.6415
38468SOL    HW117657   9.672   3.669   6.657 -2.0578  0.1049  0.0476
38468SOL    HW217658   9.730   3.561   6.569  0.2647  2.0288 -0.9086
38469SOL     OW17659  10.543   2.795   5.809 -0.1750  0.3494  0.1966
38469SOL    HW117660  10.452   2.765   5.818 -0.2832  0.7987  0.5863
38469SOL    HW217661  10.584   2.774   5.893 -0.1168  0.8330  0.2895
38470SOL     OW17662   9.162   3.437   5.662  0.1081  0.2146  0.0780
38470SOL    HW117663   9.144   3.345   5.678  0.3604  0.2808  0.7851
38470SOL    HW217664   9.258   3.444   5.664  0.1603  0.2604 -1.3522
38471SOL     OW17665   9.935   0.922   7.918  0.2416  0.1908 -0.6365
38471SOL    HW117666   9.997   0.849   7.915 -0.3694 -0.3007 -1.6523
38471SOL    HW217667   9.929   0.944   8.011  1.3666 -0.2365 -0.4425
38472SOL     OW17668   8.458  10.513   2.781 -0.5648  0.3799 -0.4223
38472SOL    HW117669   8.394  10.445   2.760 -1.2487  0.6493  0.6717
38472SOL    HW217670   8.427  10.591   2.734 -0.5058  0.2714 -0.6434
38473SOL     OW17671   7.170   4.263   1.000 -0.4458  0.2186 -0.8165
38473SOL    HW117672   7.096   4.207   0.977 -1.6634  0.4944  2.0087
38473SOL    HW217673   7.130   4.344   1.030  0.9947  0.5100  0.4363
38474SOL     OW17674   7.890   1.144   8.393 -0.6164 -0.2741  0.0508
38474SOL    HW117675   7.881   1.200   8.470 -0.7871  0.3785 -0.4370
38474SOL    HW217676   7.868   1.056   8.425 -3.1129  0.3454  0.2498
38475SOL     OW17677   8.544   1.923   4.166  0.0328 -0.3380 -0.5522
38475SOL    HW117678   8.460   1.933   4.210 -0.5039 -0.3769 -1.5379
38475SOL    HW217679   8.606   1.967   4.223 -0.5036 -1.0411  0.6208
38476SOL     OW17680   1.434   7.522   4.964 -0.0048 -0.1927 -0.6795
38476SOL    HW117681   1.511   7.536   5.018 -0.1707 -0.5177 -0.3531
38476SOL    HW217682   1.465   7.465   4.893  0.1694  0.0818 -0.8228
38477SOL     OW17683   6.212   3.716  10.525 -0.1629  0.1064  0.0919
38477SOL    HW117684   6.188   3.725  10.433  0.2432  2.2948  0.1547
38477SOL    HW217685   6.270   3.790  10.543  0.9287 -1.0702  1.7568
38478SOL     OW17686   2.528   5.949   9.288 -0.2497 -0.1004 -0.2795
38478SOL    HW117687   2.573   5.874   9.327 -1.8545 -0.4686  0.9821
38478SOL    HW217688   2.575   6.025   9.323  0.6473 -0.4826 -0.6206
38479SOL     OW17689   0.219   5.603  10.485 -0.1015  0.2591  0.1656
38479SOL    HW117690   0.252   5.688  10.457 -0.7621  0.5858  0.3598
38479SOL    HW217691   0.291   5.564  10.535  0.6547  0.1670 -0.9613
38480SOL     OW17692   3.499   2.498   0.834  0.2851 -0.3612 -0.3655
38480SOL    HW117693   3.587   2.479   0.802  0.4330  1.0595 -0.8936
38480SOL    HW217694   3.459   2.412   0.850  1.0703 -1.0680 -2.0067
38481SOL     OW17695   6.379   4.437   7.562  0.7625  0.0855 -0.2875
38481SOL    HW117696   6.374   4.391   7.478  1.6700 -1.0879  0.2844
38481SOL    HW217697   6.414   4.523   7.540  1.3468 -0.3381 -1.0739
38482SOL     OW17698   8.812   6.202   0.445  0.1505  0.5210  0.2418
38482SOL    HW117699   8.840   6.287   0.481  0.8109  0.9255 -1.1662
38482SOL    HW217700   8.860   6.194   0.363 -0.1358 -1.0951  0.2038
38483SOL     OW17701   2.379   8.969   6.738  0.4252 -0.1499  0.3332
38483SOL    HW117702   2.314   8.966   6.808 -0.3107  0.4268 -0.3018
38483SOL    HW217703   2.366   9.055   6.698  0.5884 -0.6147 -0.7408
38484SOL     OW17704   6.204   8.261   0.930 -0.3870 -0.1051  0.1229
38484SOL    HW117705   6.175   8.172   0.953  1.9984 -0.9424  0.2149
38484SOL    HW217706   6.289   8.247   0.886  0.3370  2.1634  0.6831
38485SOL     OW17707   0.776   9.323   1.692 -0.3365 -0.4314 -0.2042
38485SOL    HW117708   0.757   9.411   1.726  1.4695  0.3345 -1.0497
38485SOL    HW217709   0.867   9.307   1.716 -0.6515 -2.1234 -0.0256
38486SOL     OW17710   2.784   3.478   6.212  0.5049 -0.3084 -0.7696
38486SOL    HW117711   2.744   3.562   6.236  0.0147 -0.3432 -1.4357
38486SOL    HW217712   2.822   3.493   6.126  2.4089 -0.1339  0.0581
38487SOL     OW17713   1.367   0.228   2.487 -1.0074  0.2542  0.6856
38487SOL    HW117714   1.453   0.244   2.449 -1.2871  0.4025  0.0921
38487SOL    HW217715   1.367   0.275   2.570 -0.8154  0.9696  0.2897
38488SOL     OW17716   8.331   1.745   1.914  0.8086  0.5482 -0.0607
38488SOL    HW117717   8.356   1.836   1.930  0.2040  0.7514 -0.2261
38488SOL    HW217718   8.359   1.728   1.824  1.4996  0.3607  0.1827
38489SOL     OW17719   3.323   7.253   3.688 -0.2380  0.5590 -0.2957
38489SOL    HW117720   3.411   7.278   3.658  0.5356  0.7999  1.9831
38489SOL    HW217721   3.328   7.158   3.699  0.6482  0.8268  2.2923
38490SOL     OW17722   4.693   3.977  10.167  0.2678 -0.7182 -0.0900
38490SOL    HW117723   4.725   4.063  10.139 -1.4586  0.6034  1.7772
38490SOL    HW217724   4.772   3.923  10.171  1.6625  1.2405  0.3175
38491SOL     OW17725   4.442   4.124   8.276  0.9486 -0.1023 -0.1256
38491SOL    HW117726   4.450   4.032   8.300 -2.3864 -0.0183  1.9987
38491SOL    HW217727   4.511   4.168   8.326 -0.1206 -1.0420  2.3405
38492SOL     OW17728   3.534   2.399   7.101  0.2727 -0.0355 -0.1463
38492SOL    HW117729   3.525   2.476   7.157 -0.0255  0.2878 -0.6301
38492SOL    HW217730   3.453   2.396   7.051  0.8201  0.0960 -1.0691
38493SOL     OW17731   7.866   2.276   6.414  0.1168 -0.5844  0.2231
38493SOL    HW117732   7.887   2.363   6.381 -1.7149 -0.8246 -1.8011
38493SOL    HW217733   7.818   2.292   6.495  0.1975  0.2609  0.1117
38494SOL     OW17734   4.449   3.975   2.768  0.1903  0.4052 -0.6512
38494SOL    HW117735   4.503   4.038   2.721  0.5584  0.7581  0.2241
38494SOL    HW217736   4.510   3.927   2.824 -0.3850  0.7810  0.3271
38495SOL     OW17737   0.042   5.983   2.995  0.4754  0.7252  0.1990
38495SOL    HW117738   0.105   5.965   2.924  0.6115  1.4508  0.1308
38495SOL    HW217739   0.070   5.926   3.066  0.8487  0.6020 -0.0413
38496SOL     OW17740   0.669   5.279   1.564 -0.2195  0.0507  0.2107
38496SOL    HW117741   0.629   5.364   1.549  0.9262  0.4820 -0.5634
38496SOL    HW217742   0.760   5.299   1.586 -0.5023 -0.8717  2.4357
38497SOL     OW17743   3.665   7.036   6.985 -0.4373  0.1945  0.1291
38497SOL    HW117744   3.747   7.084   6.991 -0.5571  0.3772  0.3380
38497SOL    HW217745   3.626   7.045   7.073  0.0384 -1.1589  0.5017
38498SOL     OW17746   8.037   6.503   7.019 -0.2413  0.5426 -0.2022
38498SOL    HW117747   7.947   6.473   7.006 -0.6140  1.5076  0.0167
38498SOL    HW217748   8.087   6.423   7.034 -0.4399 -0.3593 -3.5408
38499SOL     OW17749   1.898   7.219   0.831 -0.0406 -0.1088 -0.5826
38499SOL    HW117750   1.956   7.190   0.761  0.1098 -0.9128 -0.1412
38499SOL    HW217751   1.952   7.276   0.886  0.6606 -1.6276  0.3766
38500SOL     OW17752   8.575   9.195   9.397 -0.1359  0.1646 -0.0042
38500SOL    HW117753   8.635   9.266   9.419  0.4692 -0.4038  0.2305
38500SOL    HW217754   8.518   9.187   9.473 -0.4188  0.6110 -0.1670
38501SOL     OW17755   9.695   0.714   3.182  0.0665 -0.1702  0.0061
38501SOL    HW117756   9.785   0.689   3.201 -0.3197 -2.1433 -0.4912
38501SOL    HW217757   9.643   0.668   3.248 -0.6529  0.0255 -0.4144
38502SOL     OW17758   4.918   0.800   2.851 -0.3376 -0.5082  0.4390
38502SOL    HW117759   4.902   0.877   2.906  1.4115  2.1946 -2.4829
38502SOL    HW217760   4.859   0.812   2.777 -0.6911 -2.5614  0.3412
38503SOL     OW17761   0.196   8.851   7.411  0.5755 -0.3984  0.0346
38503SOL    HW117762   0.136   8.902   7.466  2.1852  1.4001  0.2434
38503SOL    HW217763   0.174   8.876   7.321  0.2216 -0.6900  0.0375
38504SOL     OW17764   1.490   5.731   4.173 -0.3063 -0.5743 -0.0725
38504SOL    HW117765   1.518   5.736   4.082 -0.2844  0.2516 -0.0275
38504SOL    HW217766   1.567   5.758   4.224 -0.8499  0.7830  0.0894
38505SOL     OW17767   5.861   8.046   6.821  0.2611 -0.0796  0.3269
38505SOL    HW117768   5.777   8.005   6.799  0.4520 -0.4146  0.2021
38505SOL    HW217769   5.881   8.014   6.908 -0.5127  1.2798  1.0314
38506SOL     OW17770   7.132  10.430   3.604 -0.1967 -0.0559  0.9265
38506SOL    HW117771   7.203  10.404   3.545 -1.3226 -0.6494 -0.2201
38506SOL    HW217772   7.158  10.395   3.689  0.7770 -0.4587  0.4850
38507SOL     OW17773   2.311   6.405  10.046  0.0566 -0.6905  0.1489
38507SOL    HW117774   2.228   6.412  10.094 -0.8942 -2.1712 -1.1885
38507SOL    HW217775   2.355   6.330  10.086  0.2697 -0.5680  0.1441
38508SOL     OW17776   4.776   7.887   0.067 -0.5416  0.7552  0.0029
38508SOL    HW117777   4.848   7.922   0.120  0.2380 -2.0118  0.9489
38508SOL    HW217778   4.806   7.896  -0.023  0.6428  0.4287  0.3464
38509SOL     OW17779   4.678   7.927   1.185  0.0359 -0.0076  0.2673
38509SOL    HW117780   4.688   8.019   1.206  2.4697  0.1651 -1.1823
38509SOL    HW217781   4.765   7.889   1.200 -1.0886 -2.2917  1.6464
38510SOL     OW17782   3.411   1.948   4.723 -0.1625 -0.0390 -0.1303
38510SOL    HW117783   3.452   2.031   4.749  0.1643 -0.2355 -0.0099
38510SOL    HW217784   3.471   1.881   4.755 -1.3421 -0.4041  1.4372
38511SOL     OW17785   9.977   0.899   3.589 -0.1324 -0.1193 -0.1111
38511SOL    HW117786   9.969   0.955   3.512  0.5772  0.5905  0.3171
38511SOL    HW217787  10.036   0.829   3.562 -2.2018 -1.6102 -1.1472
38512SOL     OW17788   7.684   6.543  10.417 -0.2555 -0.3963  0.0467
38512SOL    HW117789   7.600   6.587  10.404 -0.7030 -1.0697  0.5946
38512SOL    HW217790   7.693   6.535  10.512  0.5212 -0.1663  0.0024
38513SOL     OW17791  10.142   1.139   1.793 -0.3447  0.3735  0.0485
38513SOL    HW117792  10.047   1.130   1.795 -0.2985 -0.3326  2.7095
38513SOL    HW217793  10.170   1.077   1.725 -1.7078 -0.2830  0.0411
38514SOL     OW17794   5.396   2.724   8.636 -0.2053  0.2951 -0.2944
38514SOL    HW117795   5.317   2.758   8.593 -0.5613 -1.0011 -0.7139
38514SOL    HW217796   5.378   2.631   8.649  0.0966  0.5190  2.2575
38515SOL     OW17797   5.574   4.335   9.427 -0.4480 -0.0370 -0.0964
38515SOL    HW117798   5.639   4.266   9.415  0.3498  0.9655 -1.8857
38515SOL    HW217799   5.609   4.409   9.378 -1.9452  1.2043  0.6506
38516SOL     OW17800   5.074   9.992   2.689 -0.5864  0.0646 -0.0745
38516SOL    HW117801   4.985  10.019   2.664  0.0131  1.1311 -1.1506
38516SOL    HW217802   5.098  10.052   2.760 -0.9838 -0.7043  0.7273
38517SOL     OW17803   7.798   6.284   8.872  0.0800 -0.2586  0.5101
38517SOL    HW117804   7.738   6.258   8.942  1.8484 -1.5761  1.6408
38517SOL    HW217805   7.800   6.379   8.877 -0.7079 -0.2758  1.4934
38518SOL     OW17806   0.191   5.943   8.649 -0.1289  0.3957  0.1840
38518SOL    HW117807   0.183   6.030   8.686 -0.8888  0.6077 -0.4459
38518SOL    HW217808   0.118   5.893   8.687 -2.0298  1.1053 -2.2529
38519SOL     OW17809   9.878   2.194   9.409  0.6950 -0.0216 -0.1509
38519SOL    HW117810   9.859   2.257   9.479 -0.6946 -1.6635  1.0373
38519SOL    HW217811   9.834   2.230   9.332 -2.8272 -0.9643  1.2369
38520SOL     OW17812   5.014   1.848   2.906 -0.5896  0.1540 -0.1857
38520SOL    HW117813   5.033   1.840   2.812 -1.7442  0.0250 -0.4286
38520SOL    HW217814   5.008   1.757   2.937  0.4827  0.1902  0.1854
38521SOL     OW17815   9.696   7.940   9.279  0.0836  0.6520  0.4898
38521SOL    HW117816   9.625   7.994   9.313 -0.2250 -0.8170  2.3343
38521SOL    HW217817   9.680   7.935   9.185 -2.9483 -0.5392  0.9671
38522SOL     OW17818   1.155   6.427   8.827 -0.3112  0.3904 -0.1916
38522SOL    HW117819   1.217   6.361   8.795  0.9313  2.5389 -2.6834
38522SOL    HW217820   1.091   6.436   8.756  0.1993  2.5640 -0.4384
38523SOL     OW17821   1.150   7.997   4.230  0.1659 -0.0411  0.7172
38523SOL    HW117822   1.123   8.029   4.316 -0.8733 -1.2004  0.8534
38523SOL    HW217823   1.075   7.947   4.198  0.9186 -0.4910 -0.4207
38524SOL     OW17824   9.295   9.923   6.917  0.2170 -0.0185  0.2624
38524SOL    HW117825   9.319   9.937   6.826  0.8708 -0.5441  0.3489
38524SOL    HW217826   9.267   9.831   6.921 -2.4940  0.7107  0.0289
38525SOL     OW17827   1.421   4.924   7.900 -0.4341  0.6018  0.3220
38525SOL    HW117828   1.471   4.971   7.966 -0.6395 -0.7275  1.4770
38525SOL    HW217829   1.331   4.956   7.910 -0.4632  0.4109  0.7099
38526SOL     OW17830   6.012   9.122   3.004  0.1263 -0.3158  0.4225
38526SOL    HW117831   6.018   9.168   3.087 -0.4198  1.2496 -0.3766
38526SOL    HW217832   6.061   9.176   2.942 -0.4066 -0.8771 -0.5197
38527SOL     OW17833   2.201   1.654   4.002 -0.4461 -0.2354 -0.4865
38527SOL    HW117834   2.156   1.732   3.970  0.8918  0.9461  0.3481
38527SOL    HW217835   2.266   1.635   3.935 -0.0624  0.0334 -0.1969
38528SOL     OW17836   2.115   0.495   3.242 -0.0412 -0.3652  0.4073
38528SOL    HW117837   2.060   0.565   3.276 -1.6700 -1.0458 -0.6886
38528SOL    HW217838   2.165   0.535   3.171  0.5804  0.1510  1.1225
38529SOL     OW17839   5.274  10.492   2.632 -0.2911  0.8176  0.5260
38529SOL    HW117840   5.345  10.430   2.647 -2.5596 -2.2003 -0.2701
38529SOL    HW217841   5.296  10.533   2.548 -0.2210 -1.2628 -0.5237
38530SOL     OW17842   7.862   0.161   2.002  0.2074  0.2497  0.5291
38530SOL    HW117843   7.779   0.202   2.027 -0.3249  0.8651 -1.9146
38530SOL    HW217844   7.852   0.143   1.908  2.3144 -0.9776  0.4842
38531SOL     OW17845   8.089   6.550   1.038  0.4910  0.0591  0.0319
38531SOL    HW117846   8.115   6.471   1.085  0.3648  0.4124  0.7026
38531SOL    HW217847   8.035   6.518   0.966  0.7938 -0.4964  0.0445
38532SOL     OW17848   7.250   8.525   6.850  0.6677  0.4808  0.1742
38532SOL    HW117849   7.215   8.483   6.929  1.3218  0.8692  0.6802
38532SOL    HW217850   7.178   8.578   6.817 -0.2678 -1.2004 -0.6204
38533SOL     OW17851   9.890   3.228   7.445 -0.3154 -0.2289  0.7371
38533SOL    HW117852   9.881   3.140   7.408 -1.9020  0.5052 -0.7882
38533SOL    HW217853   9.907   3.284   7.369  1.8357  0.6852  1.8000
38534SOL     OW17854  10.629   6.474   3.442  0.0049  0.6152  0.0440
38534SOL    HW117855  10.586   6.432   3.516 -0.5354 -0.8325 -1.0193
38534SOL    HW217856  10.629   6.406   3.374  1.7695  1.4074 -0.8062
38535SOL     OW17857   7.708   7.573   3.623  0.2403  0.1530  1.1289
38535SOL    HW117858   7.803   7.587   3.620  0.6055 -1.8647  1.7763
38535SOL    HW217859   7.682   7.604   3.709  0.9931 -2.5836  2.4555
38536SOL     OW17860   1.412   2.026   6.871 -0.2394 -0.0963 -0.4110
38536SOL    HW117861   1.421   2.118   6.849  2.8680  0.1970  1.3873
38536SOL    HW217862   1.366   2.026   6.955 -1.0299 -0.2759 -0.8364
38537SOL     OW17863   4.301   1.502   7.483 -0.0554 -0.6777 -0.2027
38537SOL    HW117864   4.382   1.463   7.515 -0.5457 -0.8675  0.8528
38537SOL    HW217865   4.234   1.472   7.545 -0.3443  2.5063  1.2355
38538SOL     OW17866   5.787   0.919   4.922 -0.3553 -0.4359 -0.4889
38538SOL    HW117867   5.766   0.991   4.981 -0.9654 -1.2172  0.2814
38538SOL    HW217868   5.723   0.926   4.851  0.2364  0.3727 -0.9537
38539SOL     OW17869   4.347   3.200   2.438 -0.6835 -0.3243  0.2136
38539SOL    HW117870   4.393   3.283   2.424 -0.1457 -0.5607  0.5489
38539SOL    HW217871   4.405   3.150   2.494  0.3164 -2.0086 -2.1459
38540SOL     OW17872   3.150   9.454   1.272  0.0238  0.3411  0.5191
38540SOL    HW117873   3.244   9.451   1.292 -0.0482 -0.0678  0.8037
38540SOL    HW217874   3.113   9.381   1.322  0.0675 -1.7426 -2.2730
38541SOL     OW17875   7.342   0.310   1.494  0.0800  0.0997  0.3237
38541SOL    HW117876   7.423   0.326   1.541  0.1224 -0.0211  0.2933
38541SOL    HW217877   7.367   0.250   1.423  0.3391  1.5289 -0.8455
38542SOL     OW17878   7.418   6.095   0.082  0.0462  0.3350 -0.0156
38542SOL    HW117879   7.393   6.042   0.006  0.0727 -0.6779  0.6502
38542SOL    HW217880   7.474   6.163   0.047  1.7770 -1.3292 -0.6707
38543SOL     OW17881   3.961   2.959   8.714  0.1974  0.0006  0.1429
38543SOL    HW117882   3.903   2.883   8.711  0.6043 -0.3658  1.1453
38543SOL    HW217883   3.936   3.004   8.795  1.0326  0.0630  0.3679
38544SOL     OW17884   1.674   3.769   3.741  0.3012 -0.2866 -0.0269
38544SOL    HW117885   1.591   3.723   3.746  0.6832 -0.8769  2.8211
38544SOL    HW217886   1.673   3.813   3.656 -2.5305 -0.9327 -0.4099
38545SOL     OW17887   3.294   8.157   1.722  0.1130  0.1115 -0.0249
38545SOL    HW117888   3.355   8.191   1.787  0.0606 -0.7316  0.4782
38545SOL    HW217889   3.234   8.101   1.771  0.5983 -1.2447 -0.8858
38546SOL     OW17890   0.458   9.712   3.706  0.1435  0.2780 -0.5195
38546SOL    HW117891   0.511   9.786   3.735 -0.0745  0.8437 -1.5296
38546SOL    HW217892   0.512   9.667   3.641  0.9886 -1.4948  1.3190
38547SOL     OW17893   6.124   1.168   5.960 -0.8642  0.2877 -0.0711
38547SOL    HW117894   6.145   1.086   5.916  0.1369  0.4252  0.1384
38547SOL    HW217895   6.046   1.148   6.012  0.6658 -1.1925  1.7750
38548SOL     OW17896   3.384   2.411   2.719  0.2952  0.6605 -0.2235
38548SOL    HW117897   3.354   2.384   2.806 -0.4952  1.7868 -0.1225
38548SOL    HW217898   3.455   2.351   2.698 -1.4456 -1.5664 -0.0845
38549SOL     OW17899  10.337   6.051   8.530  0.2179 -0.4151 -0.1140
38549SOL    HW117900  10.250   6.048   8.570  0.5587 -1.9679  0.5958
38549SOL    HW217901  10.390   6.104   8.589 -0.6551  2.1455 -1.5063
38550SOL     OW17902   0.706   7.349   2.223 -0.3193  0.1704  0.7882
38550SOL    HW117903   0.764   7.404   2.170  1.1366 -0.5083  1.5947
38550SOL    HW217904   0.641   7.317   2.162 -0.6446  2.0082  0.1069
38551SOL     OW17905   4.940   2.683   1.463 -0.4344  0.4107 -0.0365
38551SOL    HW117906   4.956   2.776   1.444 -1.1527  0.4132 -0.7023
38551SOL    HW217907   4.914   2.681   1.555 -0.0840  0.8323  0.0727
38552SOL     OW17908   6.810   6.644   7.921  0.5159  0.2660  0.1120
38552SOL    HW117909   6.884   6.591   7.892  0.8796  0.8767 -0.1084
38552SOL    HW217910   6.833   6.670   8.010  0.7323  0.7154 -0.0650
38553SOL     OW17911   0.456   3.712   1.471  0.0223  0.4681  0.0205
38553SOL    HW117912   0.500   3.669   1.397 -2.0213  0.3273 -1.2173
38553SOL    HW217913   0.429   3.640   1.528  0.2494  0.4514  0.1075
38554SOL     OW17914   9.629   8.197   0.149  0.0063  0.1083  0.0019
38554SOL    HW117915   9.712   8.201   0.101 -0.1291 -0.3893 -0.2754
38554SOL    HW217916   9.606   8.104   0.150 -0.1949  0.1547  0.6876
38555SOL     OW17917   7.287   6.745   9.677 -0.7863  0.4749  0.5004
38555SOL    HW117918   7.315   6.798   9.603 -1.0390  0.0314  0.0821
38555SOL    HW217919   7.225   6.682   9.640 -0.4577 -0.1455  0.9750
38556SOL     OW17920   4.894   1.102   5.551  0.4624  0.2228  0.0908
38556SOL    HW117921   4.860   1.020   5.514  0.2213 -0.5977  2.0299
38556SOL    HW217922   4.973   1.076   5.599  0.3609  1.1213  0.7692
38557SOL     OW17923   7.443   2.626   0.668  0.7979 -0.0016 -0.2040
38557SOL    HW117924   7.422   2.561   0.735  0.7110  0.8851  0.6402
38557SOL    HW217925   7.503   2.580   0.609 -0.3587 -1.2840 -0.4213
38558SOL     OW17926   7.355   7.085   0.856 -0.0366 -0.0609 -0.3768
38558SOL    HW117927   7.376   7.174   0.886  0.5233  0.5572 -2.4755
38558SOL    HW217928   7.274   7.095   0.806 -1.1747 -1.1441  1.1488
38559SOL     OW17929   6.889   1.591   0.090 -0.8112 -0.3766  0.1011
38559SOL    HW117930   6.927   1.638   0.016 -0.0217 -1.4875 -0.2263
38559SOL    HW217931   6.801   1.626   0.098  0.1406  2.0871  0.7116
38560SOL     OW17932   5.906   3.397   9.914 -0.2762 -0.3375 -0.6313
38560SOL    HW117933   5.852   3.319   9.911  0.4814 -0.8899 -0.2101
38560SOL    HW217934   5.994   3.366   9.937  0.2064  0.5484 -1.1758
38561SOL     OW17935   7.018  10.246   9.094  0.4057 -0.3961 -0.0594
38561SOL    HW117936   7.010  10.211   9.183 -1.3297 -0.4854 -0.2079
38561SOL    HW217937   7.112  10.244   9.076  0.7603 -0.7471  1.6155
38562SOL     OW17938  10.179   2.986   2.737  0.2309 -0.3050 -0.1956
38562SOL    HW117939  10.099   2.953   2.778  2.1035 -1.2488  3.0193
38562SOL    HW217940  10.234   2.909   2.726  2.2224  0.7573  1.5425
38563SOL     OW17941   3.770   5.354   3.729 -0.8959  0.3206 -0.0426
38563SOL    HW117942   3.847   5.331   3.781 -1.2386  1.2533  0.9306
38563SOL    HW217943   3.750   5.444   3.756 -1.2081  0.7638 -1.6769
38564SOL     OW17944   0.407   8.031   7.262  0.1928 -0.2536  0.5036
38564SOL    HW117945   0.334   8.048   7.323 -0.0992  0.5015 -0.0446
38564SOL    HW217946   0.368   8.041   7.175  1.3289  1.9458  0.1784
38565SOL     OW17947   1.481   1.407   3.261 -0.4888  0.1946 -0.1081
38565SOL    HW117948   1.514   1.418   3.351 -0.0670  0.3357 -0.2765
38565SOL    HW217949   1.422   1.332   3.266 -0.0079 -0.1712  0.1653
38566SOL     OW17950   4.248   6.145   4.314  0.2773 -0.3020  0.2240
38566SOL    HW117951   4.159   6.136   4.348 -0.4096 -0.7944 -1.5784
38566SOL    HW217952   4.253   6.235   4.282  0.5043 -0.2126  0.5051
38567SOL     OW17953   4.417   4.683   3.107  0.0635 -0.4807  0.4464
38567SOL    HW117954   4.359   4.606   3.104  0.3045 -0.7204  1.4343
38567SOL    HW217955   4.499   4.652   3.070  0.1805 -0.7331  0.9017
38568SOL     OW17956   1.513   2.750   7.169 -0.3676 -0.2592  0.4430
38568SOL    HW117957   1.486   2.740   7.077 -0.3376 -2.0987  0.6007
38568SOL    HW217958   1.431   2.742   7.218 -0.3519  0.4824  0.5921
38569SOL     OW17959   4.296   1.653   9.322 -0.1577  0.6718 -0.0484
38569SOL    HW117960   4.263   1.731   9.277 -1.6770  0.5753  0.8314
38569SOL    HW217961   4.227   1.587   9.309  0.3515 -0.0047  0.5944
38570SOL     OW17962   2.153   7.971   6.662 -0.2817  0.0255  0.4823
38570SOL    HW117963   2.122   7.881   6.651 -1.1154  0.2434  0.9852
38570SOL    HW217964   2.185   7.974   6.752 -1.6526  0.6242  0.9767
38571SOL     OW17965   2.950  10.125   7.234  0.1833 -0.1567  0.0982
38571SOL    HW117966   2.897  10.167   7.301 -1.2843 -1.0592 -0.4507
38571SOL    HW217967   2.989  10.197   7.184  0.8301  0.5166  1.5265
38572SOL     OW17968   3.445   9.347   9.778 -0.0032 -0.3603  0.2478
38572SOL    HW117969   3.382   9.404   9.734  1.6700  1.4555  0.0153
38572SOL    HW217970   3.414   9.342   9.868 -0.6093  0.3442  0.0907
38573SOL     OW17971   9.976   7.916  10.466 -0.4214 -0.3368  0.3257
38573SOL    HW117972  10.054   7.860  10.465 -1.1339 -1.3509  0.2247
38573SOL    HW217973  10.009   8.003  10.490  0.9686 -0.3873 -1.1750
38574SOL     OW17974   8.196   4.675   7.769  0.1736 -0.1794 -0.0581
38574SOL    HW117975   8.239   4.749   7.727  1.5397 -0.0609  1.4142
38574SOL    HW217976   8.108   4.706   7.790  1.4868  2.0609  2.8343
38575SOL     OW17977   8.146   4.514   8.987  0.2322  0.0506  1.2517
38575SOL    HW117978   8.136   4.585   9.051  1.3114  1.2220  0.1743
38575SOL    HW217979   8.236   4.484   8.999  0.6524  0.7067 -0.1037
38576SOL     OW17980   9.533   4.398   0.941 -0.4559  0.0058 -0.0572
38576SOL    HW117981   9.453   4.368   0.898 -0.1585 -0.0596 -0.5702
38576SOL    HW217982   9.586   4.434   0.871 -0.7948  1.7614  0.5395
38577SOL     OW17983   6.871   4.546   4.510  0.2012  0.2227  0.1811
38577SOL    HW117984   6.841   4.462   4.544 -0.3465  0.0742 -0.6245
38577SOL    HW217985   6.950   4.525   4.461 -0.9391 -0.1636 -1.5945
38578SOL     OW17986   0.514   2.441   2.104 -0.2170  0.3462 -0.2029
38578SOL    HW117987   0.463   2.442   2.023  1.4048  0.6462 -1.2846
38578SOL    HW217988   0.603   2.463   2.076  0.6935 -0.9595  1.4629
38579SOL     OW17989  10.142   9.897   1.767 -0.0551 -0.2980  0.0343
38579SOL    HW117990  10.158   9.935   1.854  0.4096 -1.3886  0.4502
38579SOL    HW217991  10.230   9.881   1.732 -0.2346  0.6118 -0.8682
38580SOL     OW17992   3.051   2.425   4.467 -0.4565 -0.5955  0.1025
38580SOL    HW117993   3.099   2.487   4.522  1.7646 -2.3940  0.3178
38580SOL    HW217994   3.026   2.354   4.526  0.5042 -1.7488 -0.8063
38581SOL     OW17995   3.838   2.452   3.502  0.3771 -0.3121  0.1194
38581SOL    HW117996   3.854   2.376   3.446  1.7759 -1.2584  1.7088
38581SOL    HW217997   3.831   2.415   3.590  2.4790  1.4622  1.1312
38582SOL     OW17998   1.286   5.699   3.373  0.1436 -0.5603 -0.6583
38582SOL    HW117999   1.276   5.794   3.383  1.1752 -0.6296  1.4679
38582SOL    HW218000   1.197   5.665   3.377 -0.2355  0.2953 -1.4343
38583SOL     OW18001   5.178   2.569   9.077  0.7513 -0.1810  0.3241
38583SOL    HW118002   5.098   2.527   9.110  0.8091 -1.1263 -0.6761
38583SOL    HW218003   5.163   2.576   8.983  1.0887  1.3548  0.3645
38584SOL     OW18004   5.750   0.162   8.889  0.4317 -0.6767 -0.6954
38584SOL    HW118005   5.726   0.098   8.822  1.6353  0.5617 -2.3959
38584SOL    HW218006   5.842   0.144   8.908  0.4033 -0.3177 -0.1899
38585SOL     OW18007   1.788   3.308   4.941  0.2093 -0.0789 -0.4042
38585SOL    HW118008   1.796   3.368   4.866 -1.2594  0.9124  0.1876
38585SOL    HW218009   1.862   3.331   4.997 -0.7376  1.7751  0.1780
38586SOL     OW18010   2.401   4.056   8.056  0.3046 -0.7499 -0.4517
38586SOL    HW118011   2.459   3.997   8.008 -0.4695 -1.5918 -0.3870
38586SOL    HW218012   2.382   4.127   7.994  1.5889 -0.3234 -0.3790
38587SOL     OW18013   1.064   4.719   1.675  0.4112 -0.4610 -0.2258
38587SOL    HW118014   0.998   4.675   1.621  0.8234 -0.1790 -0.9888
38587SOL    HW218015   1.110   4.648   1.720  0.9688 -0.8170 -1.3210
38588SOL     OW18016   5.588   1.011   4.002 -0.2379  0.1311  0.2617
38588SOL    HW118017   5.642   0.954   3.947 -0.9770  0.5216 -0.8932
38588SOL    HW218018   5.648   1.079   4.032  0.0366  0.2713 -0.5848
38589SOL     OW18019   9.613   4.518   7.253  0.5452 -0.1071 -0.3804
38589SOL    HW118020   9.618   4.566   7.170 -1.0381 -0.6335 -0.8141
38589SOL    HW218021   9.534   4.465   7.245 -0.7566  1.2517  2.2043
38590SOL     OW18022   2.303  10.230   0.341 -0.3776  0.3762 -0.1729
38590SOL    HW118023   2.376  10.276   0.299 -1.0513  1.1987 -0.4809
38590SOL    HW218024   2.270  10.291   0.406 -1.9082  0.7597 -1.2572
38591SOL     OW18025   3.339   5.942   6.583  0.6920  0.8284  0.0814
38591SOL    HW118026   3.308   6.032   6.594 -1.2396 -0.0407  2.6162
38591SOL    HW218027   3.285   5.907   6.513 -1.4194  0.5477  1.7486
38592SOL     OW18028   8.563   4.507   7.407 -0.4434 -0.1835 -0.3128
38592SOL    HW118029   8.539   4.498   7.499  1.0692 -1.1643  0.0222
38592SOL    HW218030   8.515   4.585   7.377  0.5687  1.3762  1.8377
38593SOL     OW18031   9.338   6.424   2.721  0.0952  0.2844 -0.0843
38593SOL    HW118032   9.332   6.463   2.808  0.2233 -0.5837  0.3163
38593SOL    HW218033   9.318   6.497   2.661  0.8891  1.0976  0.6189
38594SOL     OW18034   3.305   7.745   9.523 -0.2298 -0.2611  0.1546
38594SOL    HW118035   3.258   7.739   9.440 -0.2240  1.6451 -0.0197
38594SOL    HW218036   3.275   7.828   9.561  0.5656 -0.5980  1.5605
38595SOL     OW18037   7.908   0.253   5.630  0.0001  0.7070  0.0738
38595SOL    HW118038   7.893   0.338   5.673  1.1514  1.0113 -0.0861
38595SOL    HW218039   7.932   0.276   5.540 -0.0993  0.1900 -0.0881
38596SOL     OW18040   8.824   2.860   0.799  0.3460  1.1244 -0.0239
38596SOL    HW118041   8.801   2.909   0.879  1.5015  0.2712  0.8623
38596SOL    HW218042   8.806   2.921   0.728 -1.4762  1.6381  0.8150
38597SOL     OW18043   2.276   4.533   9.944  0.1242  0.7410 -0.4623
38597SOL    HW118044   2.321   4.499   9.867 -0.9437 -0.5432 -0.5570
38597SOL    HW218045   2.237   4.456   9.985  1.5679  1.2136  2.0182
38598SOL     OW18046   3.262   4.033   3.947  0.6916 -0.0917  0.0081
38598SOL    HW118047   3.224   4.001   4.029  1.5058 -1.1519 -0.0065
38598SOL    HW218048   3.244   3.963   3.884  2.6905 -0.6781  0.0229
38599SOL     OW18049   7.077   5.254   1.790 -0.2164  0.4956  0.4022
38599SOL    HW118050   7.004   5.297   1.746 -0.2576  1.4388  1.3629
38599SOL    HW218051   7.038   5.211   1.866 -0.1002 -0.8891 -0.2843
38600SOL     OW18052   9.041   0.552   0.150  0.2088 -0.3178 -0.0235
38600SOL    HW118053   8.946   0.542   0.150  0.0193  1.2824 -0.1953
38600SOL    HW218054   9.066   0.541   0.058  0.0827  0.1473 -0.1148
38601SOL     OW18055   9.927   2.553   7.133 -0.2222 -0.3061 -0.5891
38601SOL    HW118056   9.983   2.485   7.172  1.5635  0.5542 -1.5034
38601SOL    HW218057   9.898   2.605   7.208 -0.5934 -1.3299  0.0015
38602SOL     OW18058   8.815   7.609   6.825 -0.8255  0.5929  0.3591
38602SOL    HW118059   8.781   7.679   6.769 -0.6077  1.4523  1.2587
38602SOL    HW218060   8.782   7.630   6.912  1.0320  0.8326  1.0586
38603SOL     OW18061   6.094   7.736   9.741  0.2588  0.5143  1.0021
38603SOL    HW118062   6.004   7.764   9.723  0.5743  0.5719 -0.7463
38603SOL    HW218063   6.086   7.674   9.813 -1.5927 -1.6000 -0.8549
38604SOL     OW18064   0.189   2.071   8.014 -0.7496  0.5461  0.1742
38604SOL    HW118065   0.198   2.157   7.973 -0.5680  0.1863 -0.5650
38604SOL    HW218066   0.186   2.009   7.940  0.9485 -0.2460  0.7205
38605SOL     OW18067  10.516   0.024   7.324 -0.0131 -0.0406  0.3260
38605SOL    HW118068  10.552   0.074   7.251 -0.3677 -1.0568 -0.5811
38605SOL    HW218069  10.519   0.084   7.398 -1.4567  1.7246 -0.9476
38606SOL     OW18070   0.240   3.879   2.107 -0.3444 -0.2164 -0.4726
38606SOL    HW118071   0.162   3.882   2.161  0.6365 -1.1465  1.0634
38606SOL    HW218072   0.236   3.794   2.063 -0.0170 -0.4246 -0.1036
38607SOL     OW18073   6.161   5.426   2.194  0.2585  0.3093 -0.2207
38607SOL    HW118074   6.237   5.453   2.143  1.0855 -0.3117  0.6589
38607SOL    HW218075   6.101   5.501   2.188  1.0448  0.9193 -0.7062
38608SOL     OW18076   2.090   1.061   5.520  0.0711 -0.1245  0.0067
38608SOL    HW118077   2.059   1.141   5.562 -0.2438  0.0560 -0.5626
38608SOL    HW218078   2.185   1.069   5.521  0.0740 -0.1406  0.7127
38609SOL     OW18079   5.345   1.385   8.841  0.3873 -0.3152 -0.0409
38609SOL    HW118080   5.340   1.389   8.937  0.9488  0.9404 -0.0444
38609SOL    HW218081   5.424   1.435   8.819  0.7442 -1.3257 -1.1196
38610SOL     OW18082  10.599   9.415   0.084 -0.0491 -0.2496  0.1899
38610SOL    HW118083  10.554   9.348   0.033  0.5726 -0.8758  0.4465
38610SOL    HW218084  10.650   9.464   0.020 -0.0294 -0.4104  0.0826
38611SOL     OW18085   4.463   2.495   8.232  0.0431 -0.3221 -0.2168
38611SOL    HW118086   4.461   2.399   8.230 -0.5181 -0.3062 -1.5391
38611SOL    HW218087   4.483   2.520   8.142  2.1499  0.7938  0.4861
38612SOL     OW18088   0.076  10.185   8.948 -0.8309 -0.0492  0.5836
38612SOL    HW118089   0.076  10.161   9.041  0.1643 -1.1380  0.3309
38612SOL    HW218090   0.107  10.275   8.947  1.0190 -0.6115  1.2341
38613SOL     OW18091   4.275   4.561   0.263 -0.5459  0.3984  0.1073
38613SOL    HW118092   4.296   4.470   0.282 -1.9120  0.1626  0.5782
38613SOL    HW218093   4.338   4.587   0.196  0.8764 -0.4086  1.0821
38614SOL     OW18094   6.629   2.293   9.304 -0.5960 -0.5070  0.7022
38614SOL    HW118095   6.637   2.312   9.210 -2.3430 -3.4936 -0.1750
38614SOL    HW218096   6.716   2.312   9.339  0.3541 -0.0537 -1.6808
38615SOL     OW18097   2.063   6.791   4.877  0.0040 -0.2285  0.1209
38615SOL    HW118098   2.108   6.712   4.847 -2.8254 -2.3232  0.9633
38615SOL    HW218099   2.126   6.862   4.863  1.8678 -2.2594 -2.7989
38616SOL     OW18100   3.362   3.848   6.718  0.1509  0.3986 -0.0164
38616SOL    HW118101   3.346   3.942   6.710 -0.7863  0.3640  1.2389
38616SOL    HW218102   3.423   3.829   6.647 -1.9744  1.3995 -2.2746
38617SOL     OW18103   4.813  10.100   6.078  0.2008 -0.9669  0.3573
38617SOL    HW118104   4.753  10.031   6.106 -0.0699  0.0349  2.4849
38617SOL    HW218105   4.766  10.146   6.009 -0.2642 -1.9530  0.0055
38618SOL     OW18106   6.886   0.250   5.945 -0.2732  0.2358 -0.6390
38618SOL    HW118107   6.842   0.317   5.892 -1.7485 -0.6398 -0.5797
38618SOL    HW218108   6.876   0.170   5.894 -0.2149 -0.2972  0.1771
38619SOL     OW18109   1.723   7.199   6.195  0.5926  0.2715 -0.7071
38619SOL    HW118110   1.807   7.237   6.221  0.4734  0.2316 -0.2592
38619SOL    HW218111   1.666   7.275   6.181  0.9103  0.3356 -1.7681
38620SOL     OW18112   0.503   4.360   4.057  0.2354 -0.5837  0.5496
38620SOL    HW118113   0.493   4.266   4.074  2.7757 -1.2215 -1.0177
38620SOL    HW218114   0.506   4.367   3.962 -1.0469  1.2986  0.5807
38621SOL     OW18115   4.723   3.194   5.172 -0.2416  0.3588  0.1101
38621SOL    HW118116   4.721   3.160   5.261 -0.4873 -0.0547 -0.0479
38621SOL    HW218117   4.794   3.146   5.129 -1.7059 -1.2803 -0.6106
38622SOL     OW18118   9.969   7.874   6.622 -0.0944 -0.0166  0.7245
38622SOL    HW118119  10.041   7.864   6.684 -0.3060  1.0541  1.1664
38622SOL    HW218120   9.974   7.796   6.566  2.1157  0.5561  0.0244
38623SOL     OW18121   3.245   5.945   1.758  0.3375  0.3264  0.2665
38623SOL    HW118122   3.267   5.852   1.766  1.5819  0.4066 -1.5792
38623SOL    HW218123   3.235   5.975   1.848  0.0709 -1.5443  0.9076
38624SOL     OW18124   1.293   0.036   4.463  0.3476  0.0274  0.0529
38624SOL    HW118125   1.361   0.104   4.454  0.4291  0.1261  1.3138
38624SOL    HW218126   1.230   0.073   4.525 -0.5816 -0.2994 -0.6757
38625SOL     OW18127   2.368   1.063   2.702 -0.1972 -0.0681  0.6044
38625SOL    HW118128   2.438   1.052   2.767 -0.8632 -1.6684  1.1168
38625SOL    HW218129   2.314   0.985   2.713 -1.2685  0.4506 -0.7554
38626SOL     OW18130   8.095   8.919   3.576 -0.0752 -0.5020  0.9698
38626SOL    HW118131   8.028   8.986   3.582 -0.1263 -0.3386 -0.8621
38626SOL    HW218132   8.131   8.912   3.665  0.4032  2.4073  1.0811
38627SOL     OW18133   8.787   7.394   8.866  0.0231  0.3415 -0.4163
38627SOL    HW118134   8.734   7.381   8.945 -1.7713 -0.0473 -1.6239
38627SOL    HW218135   8.757   7.478   8.831  1.4963  0.9855 -0.2021
38628SOL     OW18136   6.863  10.574   6.663  0.4149 -0.1593 -0.2047
38628SOL    HW118137   6.770  10.567   6.683  0.4819 -0.4412  0.0183
38628SOL    HW218138   6.890  10.484   6.644  0.5990 -0.0514 -0.4675
38629SOL     OW18139   9.693   5.189   0.020 -0.2834  0.1711 -0.4828
38629SOL    HW118140   9.718   5.276  -0.010 -0.1768  0.7199  1.0796
38629SOL    HW218141   9.597   5.188   0.012 -0.5064  1.2335  1.3512
38630SOL     OW18142   3.495   7.423   6.672  0.2254 -0.2975  0.2212
38630SOL    HW118143   3.464   7.345   6.627  1.2380 -0.9439  0.6398
38630SOL    HW218144   3.422   7.448   6.730 -1.6554  1.2946 -2.5733
38631SOL     OW18145   1.889   8.576   0.482  0.0818  0.3365  0.4559
38631SOL    HW118146   1.852   8.521   0.412  0.5492  0.9667 -0.3118
38631SOL    HW218147   1.975   8.539   0.499  0.7880  1.3481 -0.7266
38632SOL     OW18148   3.217   5.993   3.436 -0.5739  0.1139 -0.6370
38632SOL    HW118149   3.167   6.031   3.508  1.0277 -0.1503  0.6527
38632SOL    HW218150   3.190   5.902   3.433 -0.8143  0.1808 -0.5345
38633SOL     OW18151   7.497   3.997   0.001  0.5473  0.0781  0.4087
38633SOL    HW118152   7.475   4.090  -0.011  0.3780  0.2230  1.6842
38633SOL    HW218153   7.469   3.955  -0.080 -0.2207  1.0021  0.1789
38634SOL     OW18154   9.617   2.979   8.753 -0.2220 -0.5192 -0.0201
38634SOL    HW118155   9.590   3.056   8.803  0.8216  1.4308 -2.2870
38634SOL    HW218156   9.713   2.978   8.761 -0.0913 -0.5312 -1.4179
38635SOL     OW18157   2.200  10.356   6.730  0.2091 -0.0825  0.1007
38635SOL    HW118158   2.133  10.303   6.688  0.7457 -0.2061 -0.6188
38635SOL    HW218159   2.176  10.446   6.709  0.2516 -0.1255 -0.1371
38636SOL     OW18160   7.724   2.103   2.760  0.3327  0.0949  0.0610
38636SOL    HW118161   7.766   2.091   2.675  0.8762 -0.9504  0.4634
38636SOL    HW218162   7.771   2.177   2.799 -0.6959  1.3629 -0.9968
38637SOL     OW18163   4.029   6.119   3.625  0.6303  0.4374  0.5039
38637SOL    HW118164   4.013   6.136   3.532  0.8971  0.3470  0.4404
38637SOL    HW218165   3.951   6.151   3.670 -0.4700 -1.4573  0.0655
38638SOL     OW18166   6.440   3.391   7.997  0.2557  0.7496 -0.6931
38638SOL    HW118167   6.490   3.365   8.075 -1.3760 -0.0870  0.1169
38638SOL    HW218168   6.382   3.461   8.027 -1.7625 -0.8685 -0.5929
38639SOL     OW18169   8.824   4.219   8.847  0.0419 -0.2571 -0.1761
38639SOL    HW118170   8.776   4.286   8.896  2.7136  2.5138 -0.9906
38639SOL    HW218171   8.791   4.226   8.758 -1.6086 -2.0848  0.2332
38640SOL     OW18172   4.525   0.590   7.837 -0.3798  0.2312 -0.2483
38640SOL    HW118173   4.491   0.519   7.784 -1.7271  0.3198  0.4408
38640SOL    HW218174   4.506   0.564   7.927  1.0358  0.4909  0.1476
38641SOL     OW18175   1.241   9.705   2.147 -0.0302  0.0711  0.1331
38641SOL    HW118176   1.328   9.709   2.188  0.3048  1.5925 -0.6258
38641SOL    HW218177   1.257   9.665   2.061  0.0337  0.7983 -0.2057
38642SOL     OW18178   8.983   0.841   8.050 -0.2132  0.2009  0.1361
38642SOL    HW118179   8.925   0.788   8.105  0.0651 -0.3980 -0.1361
38642SOL    HW218180   9.068   0.797   8.056 -0.6969 -1.2782 -2.6247
38643SOL     OW18181   8.567   5.529   3.933 -0.3339  0.2606  0.1604
38643SOL    HW118182   8.617   5.475   3.871  0.7551 -0.2355  1.4113
38643SOL    HW218183   8.481   5.539   3.893  0.3230 -0.0591 -1.4068
38644SOL     OW18184   0.664   0.935   4.988 -0.1176 -0.1600  0.1550
38644SOL    HW118185   0.648   0.981   4.906 -0.2469  1.5322  1.0995
38644SOL    HW218186   0.738   0.877   4.969  0.3628  0.7819 -0.9243
38645SOL     OW18187   3.944   9.929   5.473  0.8647  0.8875 -0.0583
38645SOL    HW118188   3.953   9.998   5.408  0.5987  1.4146  0.4547
38645SOL    HW218189   3.914   9.974   5.552 -2.5983 -0.1794 -0.5783
38646SOL     OW18190   6.699   9.072   0.167 -0.7009 -0.0950  0.1006
38646SOL    HW118191   6.706   9.010   0.095  1.6054 -0.5170  0.6066
38646SOL    HW218192   6.731   9.155   0.131 -3.2495  0.7913 -0.4098
38647SOL     OW18193   5.617   5.001   7.539 -0.5731  0.4308 -0.6496
38647SOL    HW118194   5.691   5.062   7.541  1.4727 -1.8828 -1.0010
38647SOL    HW218195   5.603   4.978   7.631  0.1705 -0.2282 -0.6868
38648SOL     OW18196   0.932   8.858   2.728 -0.4455  0.1835 -0.3496
38648SOL    HW118197   1.018   8.867   2.769 -0.9248 -0.6953  0.9077
38648SOL    HW218198   0.873   8.835   2.800 -1.5088 -0.4601 -1.3841
38649SOL     OW18199   1.313   9.691   1.336  0.6120 -0.3374  0.1080
38649SOL    HW118200   1.326   9.778   1.299  0.4718  0.0046  0.8471
38649SOL    HW218201   1.397   9.647   1.325  1.7611  1.0023  2.5830
38650SOL     OW18202   5.893  10.501   4.149  0.4482  0.1663  0.0224
38650SOL    HW118203   5.831  10.565   4.185 -1.4598 -1.0097 -0.9781
38650SOL    HW218204   5.850  10.416   4.163  1.7475 -0.6864 -0.9029
38651SOL     OW18205   2.560   3.202   9.479 -0.2801 -0.2428  0.1911
38651SOL    HW118206   2.620   3.128   9.481 -0.1196 -0.1135  0.2549
38651SOL    HW218207   2.605   3.270   9.529 -0.6910 -0.3019  0.6374
38652SOL     OW18208   1.279   8.748   8.287 -0.6192  0.1069 -0.3419
38652SOL    HW118209   1.312   8.816   8.228 -0.9303  0.6406  0.0878
38652SOL    HW218210   1.184   8.747   8.271 -0.3187 -2.4068 -2.6274
38653SOL     OW18211   9.333   8.763   4.219  0.5076  0.3310  0.1033
38653SOL    HW118212   9.344   8.826   4.290  1.2792  1.1072 -0.6804
38653SOL    HW218213   9.414   8.770   4.168  0.8973 -1.7439  0.3417
38654SOL     OW18214   2.320   6.708   5.101 -0.2347  0.0173  0.2025
38654SOL    HW118215   2.364   6.642   5.155  0.7779 -0.0411 -0.6724
38654SOL    HW218216   2.354   6.792   5.134  0.2106 -0.0089 -0.1760
38655SOL     OW18217  10.084   6.097   8.627 -0.6814  0.3111  0.2495
38655SOL    HW118218  10.067   6.116   8.719  0.4688 -0.1615  0.5688
38655SOL    HW218219  10.017   6.147   8.580 -1.9141 -0.2512  1.3702
38656SOL     OW18220   2.813   0.925   0.467  0.0554  0.0122 -0.3970
38656SOL    HW118221   2.802   0.985   0.541 -0.4864  0.5560 -0.9005
38656SOL    HW218222   2.870   0.972   0.406  0.6850 -0.5260 -0.2340
38657SOL     OW18223   1.629   7.492   2.605  0.1604  0.4728  0.4228
38657SOL    HW118224   1.708   7.462   2.650  1.3244  0.7396 -1.3405
38657SOL    HW218225   1.661   7.558   2.543 -0.8435 -1.9138 -2.8902
38658SOL     OW18226  10.538   1.620   0.892  0.1656 -1.0614  0.8605
38658SOL    HW118227  10.573   1.533   0.909 -0.7645 -1.2256  2.0210
38658SOL    HW218228  10.459   1.625   0.945 -1.2930 -0.5000 -1.2586
38659SOL     OW18229   9.265  10.643   2.750 -0.2279  0.6973  0.2926
38659SOL    HW118230   9.284  10.618   2.840 -0.2180  2.9228  0.9712
38659SOL    HW218231   9.169  10.648   2.745 -0.2688 -0.2986 -0.0974
38660SOL     OW18232   4.719   8.899   2.800 -0.7391  0.9724 -0.2075
38660SOL    HW118233   4.649   8.856   2.750 -1.1888 -0.8509  1.8265
38660SOL    HW218234   4.797   8.846   2.783 -0.2906  1.8535 -0.9453
38661SOL     OW18235   3.032   7.220   7.822  0.4163  0.1318 -0.2141
38661SOL    HW118236   3.054   7.175   7.903 -0.0479 -1.2894 -0.8451
38661SOL    HW218237   2.945   7.258   7.839  0.3013 -0.1953 -0.0672
38662SOL     OW18238   1.202   6.906   0.703  0.2206 -0.4440  0.5828
38662SOL    HW118239   1.235   6.893   0.792 -1.1611  0.2391  1.2269
38662SOL    HW218240   1.179   6.999   0.699  0.7701 -0.3421 -0.6764
38663SOL     OW18241   4.159   3.444   9.728 -0.2082  0.5060  0.7389
38663SOL    HW118242   4.171   3.452   9.822  1.3259 -0.3494  0.6425
38663SOL    HW218243   4.236   3.396   9.697 -1.4575 -0.6724 -0.7273
38664SOL     OW18244   9.338   9.785   6.206  0.1583  0.5744  0.2749
38664SOL    HW118245   9.303   9.707   6.162  1.8746 -0.7611  1.1364
38664SOL    HW218246   9.427   9.761   6.230  0.7635  2.8534  0.5545
38665SOL     OW18247   5.300   0.071   0.108 -0.4546  0.4073 -0.1921
38665SOL    HW118248   5.256   0.102   0.030  1.0251  0.9215 -0.8520
38665SOL    HW218249   5.362   0.005   0.076  0.0255  0.4789  0.5639
38666SOL     OW18250   0.313   3.089   7.732 -0.1039 -0.1704 -0.1742
38666SOL    HW118251   0.348   3.176   7.755  1.9549  0.0445 -3.4827
38666SOL    HW218252   0.356   3.030   7.794  0.4206  0.9169  0.5364
38667SOL     OW18253   5.989   1.830   9.614 -0.2022 -0.0183  0.4167
38667SOL    HW118254   5.962   1.904   9.668 -1.5177  1.5347 -2.1878
38667SOL    HW218255   6.082   1.843   9.600 -0.0730  0.1629  1.3729
38668SOL     OW18256   5.524   3.816   4.255 -0.1724 -0.0074 -0.1649
38668SOL    HW118257   5.441   3.774   4.232 -0.2511  0.1513 -0.1754
38668SOL    HW218258   5.502   3.873   4.329 -0.5341  1.5753 -1.4036
38669SOL     OW18259   8.392   2.833   4.601 -0.0170  0.1264 -0.3262
38669SOL    HW118260   8.318   2.791   4.555 -1.0067  1.8414 -0.3834
38669SOL    HW218261   8.353   2.910   4.642  1.6215  0.6518  0.2823
38670SOL     OW18262   9.788   8.854   1.523  0.9495 -0.3060  0.3201
38670SOL    HW118263   9.856   8.788   1.514 -0.4907 -2.1228  1.7596
38670SOL    HW218264   9.751   8.838   1.610 -2.1397 -0.3007 -0.8619
38671SOL     OW18265   0.739   7.784   7.534  0.0089  0.1655  0.0965
38671SOL    HW118266   0.832   7.807   7.528  0.5237 -2.0835 -1.6455
38671SOL    HW218267   0.705   7.798   7.445 -1.2649  0.6119  0.6249
38672SOL     OW18268   1.563   6.203   2.151  0.1774 -0.0707 -0.0681
38672SOL    HW118269   1.612   6.273   2.193 -0.4584 -0.0375  0.6281
38672SOL    HW218270   1.471   6.232   2.155 -0.0397 -0.7265 -0.1851
38673SOL     OW18271   2.130   1.148   1.998  0.5684  0.4543 -0.3571
38673SOL    HW118272   2.130   1.056   1.969  1.4713 -0.1516  1.4279
38673SOL    HW218273   2.155   1.197   1.920  1.8883 -1.0051 -0.9154
38674SOL     OW18274   4.247   1.676   4.539  0.2317  0.4858 -0.3970
38674SOL    HW118275   4.201   1.745   4.491 -0.0708  0.4582 -0.1537
38674SOL    HW218276   4.339   1.702   4.538 -0.0047  1.4504  0.5976
38675SOL     OW18277   3.347   8.578  10.024  0.3255  0.3050  0.3802
38675SOL    HW118278   3.378   8.666  10.004 -0.1095  0.6249  1.0760
38675SOL    HW218279   3.314   8.584  10.113  0.0450 -0.5006  0.3384
38676SOL     OW18280   9.790   7.580   3.825 -0.1498 -0.5065 -0.1248
38676SOL    HW118281   9.827   7.504   3.870 -1.0131 -0.8002  0.1041
38676SOL    HW218282   9.706   7.595   3.868 -0.2666  0.1989 -0.5802
38677SOL     OW18283   2.086   3.750   2.809 -0.2538 -0.5066  0.3564
38677SOL    HW118284   2.084   3.781   2.900  0.4716 -1.0859  0.5811
38677SOL    HW218285   2.041   3.666   2.812 -0.6702 -0.2945  0.0825
38678SOL     OW18286   8.523   9.821   4.237  0.2526 -0.2360  0.2555
38678SOL    HW118287   8.595   9.832   4.174 -0.3876 -0.7803 -0.5920
38678SOL    HW218288   8.509   9.909   4.272  1.5451 -0.1733  0.6932
38679SOL     OW18289  10.308   8.306   5.016 -0.0234  0.4795 -0.4697
38679SOL    HW118290  10.240   8.320   5.082  0.8857  1.4296  0.3030
38679SOL    HW218291  10.262   8.310   4.932 -0.9329  0.9667  0.0392
38680SOL     OW18292   3.336   8.681   0.147  0.2550 -0.2406  0.2978
38680SOL    HW118293   3.283   8.758   0.168  1.0581  0.0306  1.4584
38680SOL    HW218294   3.381   8.661   0.229 -0.1554 -2.1391  0.1003
38681SOL     OW18295   4.597   8.865   3.675  0.1878 -0.3265  0.4796
38681SOL    HW118296   4.508   8.901   3.672  0.5940  0.6840  0.0783
38681SOL    HW218297   4.631   8.892   3.760  0.8155  1.0957 -0.1843
38682SOL     OW18298   3.697   2.547   6.390 -0.1939  0.0930  0.5436
38682SOL    HW118299   3.774   2.494   6.369 -0.5894  0.1205 -1.1482
38682SOL    HW218300   3.728   2.610   6.454  0.6512 -1.2598  1.5152
38683SOL     OW18301   8.524   9.030   5.288  0.2001  0.3729  0.5055
38683SOL    HW118302   8.534   9.040   5.193 -0.6490 -2.3022  0.0296
38683SOL    HW218303   8.444   9.078   5.309  0.5158  1.1754 -0.0887
38684SOL     OW18304   5.909   1.880   3.233 -0.0676 -0.2906 -0.3963
38684SOL    HW118305   5.986   1.855   3.182 -1.4881 -1.2659 -2.1772
38684SOL    HW218306   5.854   1.801   3.232 -0.5000 -0.0956  2.0492
38685SOL     OW18307   6.885   4.443   9.151  0.2759 -0.3950  0.1216
38685SOL    HW118308   6.917   4.371   9.205 -0.8283 -1.0414 -0.0542
38685SOL    HW218309   6.945   4.445   9.076 -0.3947 -1.9636 -0.5026
38686SOL     OW18310   7.543   3.615   5.171  0.7061 -0.1539 -0.5541
38686SOL    HW118311   7.512   3.699   5.139  2.0216  0.1301 -1.1411
38686SOL    HW218312   7.594   3.579   5.099  1.5902 -0.6674  0.2984
38687SOL     OW18313   9.205   1.080   6.755  0.2278  0.0361 -0.0990
38687SOL    HW118314   9.272   1.146   6.738 -0.2212  0.2228 -1.1754
38687SOL    HW218315   9.127   1.130   6.780  0.4030 -0.1741  0.9423
38688SOL     OW18316   9.075   6.231  10.313  0.2600  0.1969  0.1430
38688SOL    HW118317   9.026   6.309  10.285  1.1273  0.0334 -2.0548
38688SOL    HW218318   9.158   6.266  10.347 -0.5103  0.3580  1.9355
38689SOL     OW18319   7.154   9.314   6.040 -0.4620 -0.2180 -0.0277
38689SOL    HW118320   7.182   9.245   5.980  1.0425  1.0059 -0.8186
38689SOL    HW218321   7.204   9.297   6.120  0.4790  0.3567 -0.4788
38690SOL     OW18322   3.234   4.218   9.951 -0.1367 -0.3026  0.0665
38690SOL    HW118323   3.324   4.235   9.924  0.7968 -2.6769  1.3458
38690SOL    HW218324   3.239   4.135   9.999 -2.8039  0.1676  1.3373
38691SOL     OW18325   4.062   7.002   1.365  0.1339 -0.0327 -0.4032
38691SOL    HW118326   4.038   7.082   1.413 -0.5634 -0.4860  0.0087
38691SOL    HW218327   4.133   6.964   1.417  1.1060  0.7805 -1.0873
38692SOL     OW18328   2.096   2.180   2.798  0.2708  0.1225  0.5570
38692SOL    HW118329   2.000   2.185   2.806  0.2551  0.8027  0.0430
38692SOL    HW218330   2.111   2.166   2.705  0.6861  0.4834  0.5697
38693SOL     OW18331   5.503   5.197   8.920 -0.9283  0.3855  0.1362
38693SOL    HW118332   5.441   5.128   8.896  1.0628 -1.7603  0.8240
38693SOL    HW218333   5.448   5.266   8.960 -2.9051 -1.2035  0.3111
38694SOL     OW18334   2.950   3.850   0.673  0.1280 -0.4767  0.2877
38694SOL    HW118335   3.039   3.813   0.675 -0.4579 -1.9750 -0.1779
38694SOL    HW218336   2.948   3.904   0.594  0.0552 -1.9976 -0.7887
38695SOL     OW18337   9.524   8.457   8.434  0.2266 -0.2780 -0.7102
38695SOL    HW118338   9.583   8.529   8.411 -0.1258 -0.1183 -1.1256
38695SOL    HW218339   9.525   8.400   8.357  0.4664 -0.6975 -0.4015
38696SOL     OW18340   6.647   2.131   2.495 -0.1986 -0.4693 -0.2249
38696SOL    HW118341   6.593   2.199   2.455 -0.0928  0.1464  0.6587
38696SOL    HW218342   6.725   2.177   2.526 -0.2871 -0.9244  0.7065
38697SOL     OW18343   0.749   7.914   5.052  0.1192  0.4617 -0.0929
38697SOL    HW118344   0.787   8.002   5.061  0.7357  0.1096  0.8585
38697SOL    HW218345   0.670   7.928   5.000 -0.5978  1.8239  1.2841
38698SOL     OW18346   0.302   8.569   6.384  0.1433  0.1130  0.1261
38698SOL    HW118347   0.210   8.567   6.413  0.0349 -0.5933 -0.2411
38698SOL    HW218348   0.341   8.641   6.434  0.0356 -1.1814  2.2364
38699SOL     OW18349   8.346   8.855   4.523 -0.5875  0.0441  0.0674
38699SOL    HW118350   8.409   8.786   4.501 -0.9015  0.2138 -1.4189
38699SOL    HW218351   8.397   8.936   4.520 -1.0839  0.3316 -2.3962
38700SOL     OW18352   6.599   5.454   4.815 -0.0043  0.2199  0.4883
38700SOL    HW118353   6.603   5.499   4.731 -0.6668 -1.3416 -0.4122
38700SOL    HW218354   6.534   5.385   4.803 -0.0842 -0.0669  2.2767
38701SOL     OW18355   2.165   3.955   7.045 -0.1034 -0.0419 -0.0677
38701SOL    HW118356   2.194   3.885   7.104 -1.8319 -0.7089  0.0646
38701SOL    HW218357   2.085   3.989   7.086  0.0893  1.2557 -0.7238
38702SOL     OW18358   3.790   1.954   1.595  0.4375  0.2404  0.0408
38702SOL    HW118359   3.698   1.965   1.618  0.3551  1.4195 -0.7691
38702SOL    HW218360   3.835   2.024   1.641  0.5390  1.3538 -1.6539
38703SOL     OW18361   5.650   3.590   5.016 -0.3661 -0.0898 -0.3546
38703SOL    HW118362   5.561   3.563   5.038 -0.1272 -0.1005  0.6633
38703SOL    HW218363   5.705   3.551   5.084  0.3359  0.4686 -0.5803
38704SOL     OW18364   8.913   3.536   9.387 -0.0684 -0.3372  0.4807
38704SOL    HW118365   8.876   3.622   9.364  0.3709 -0.1967  0.2761
38704SOL    HW218366   8.905   3.532   9.483  0.0066 -0.0155  0.5050
38705SOL     OW18367   3.494   3.706   9.225  0.0700 -0.2969  0.2706
38705SOL    HW118368   3.526   3.620   9.197 -1.3460 -1.1390  1.1155
38705SOL    HW218369   3.474   3.695   9.318  0.0174  1.0055  0.4207
38706SOL     OW18370   8.979   1.232  10.274  0.3961 -0.7911 -0.7447
38706SOL    HW118371   8.992   1.137  10.266  1.6739 -0.6886 -0.1070
38706SOL    HW218372   9.066   1.269  10.261 -0.0530  0.2901 -0.7514
38707SOL     OW18373   0.566   4.646   8.620 -0.1670  0.1375 -0.3601
38707SOL    HW118374   0.578   4.663   8.526  0.2667 -0.3202 -0.3918
38707SOL    HW218375   0.500   4.577   8.624  1.9340 -2.0433 -0.5036
38708SOL     OW18376  10.395   1.944   2.134 -0.8458 -0.3690 -0.2896
38708SOL    HW118377  10.476   1.907   2.171  0.0095 -0.3979 -2.0967
38708SOL    HW218378  10.423   2.026   2.093 -1.4723 -0.9740 -2.0067
38709SOL     OW18379   5.210   1.748   6.843 -0.1326 -0.1219 -0.2819
38709SOL    HW118380   5.168   1.669   6.877  0.8811  0.3819  2.3333
38709SOL    HW218381   5.302   1.723   6.831  0.0805  0.4980  0.0219
38710SOL     OW18382   1.403   6.244   2.752 -0.3283  0.1934 -0.3632
38710SOL    HW118383   1.348   6.314   2.788  0.8085  0.7672  0.3204
38710SOL    HW218384   1.476   6.291   2.711  0.7795 -0.5741  0.6500
38711SOL     OW18385   3.496   2.248  10.088 -0.2858 -0.0837 -0.0965
38711SOL    HW118386   3.529   2.304  10.019 -0.9071 -0.6181 -0.8452
38711SOL    HW218387   3.521   2.159  10.062  0.0736 -0.2363  0.7169
38712SOL     OW18388   9.582   3.137   7.716 -0.1824 -0.3215 -0.0508
38712SOL    HW118389   9.570   3.216   7.663  0.9091 -0.1686 -0.1103
38712SOL    HW218390   9.677   3.125   7.718 -0.3381 -1.6485 -0.0502
38713SOL     OW18391   6.500  10.257   1.508 -0.8027 -0.4273 -0.1211
38713SOL    HW118392   6.528  10.333   1.457 -0.4412 -1.9791 -2.3754
38713SOL    HW218393   6.414  10.282   1.542 -0.8955  0.8235 -1.1724
38714SOL     OW18394   3.267   0.667   7.407 -0.2032  0.2778  0.0705
38714SOL    HW118395   3.216   0.741   7.441 -1.2159 -1.1245  1.8337
38714SOL    HW218396   3.300   0.623   7.486 -0.4333 -1.6742 -0.8562
38715SOL     OW18397   9.778   4.772   3.442  0.3975  0.0728  0.4138
38715SOL    HW118398   9.800   4.703   3.504  1.8685  1.8157  1.9599
38715SOL    HW218399   9.690   4.749   3.410  0.5719 -2.1028  1.3516
38716SOL     OW18400   6.595   5.119   8.296  0.3831  0.1594  0.3582
38716SOL    HW118401   6.636   5.203   8.276  0.9340 -0.2101 -0.0937
38716SOL    HW218402   6.616   5.063   8.221 -0.3758 -0.2474  0.4345
38717SOL     OW18403   8.042   0.524   0.935  0.5552 -0.2337  0.0714
38717SOL    HW118404   8.059   0.618   0.924  2.0805 -0.4218  0.6906
38717SOL    HW218405   8.116   0.491   0.985  0.2252 -1.8580 -0.4469
38718SOL     OW18406   7.815  10.511   2.558 -0.1689 -0.1414  0.3137
38718SOL    HW118407   7.799  10.605   2.554 -1.1045 -0.3109 -0.0642
38718SOL    HW218408   7.902  10.503   2.599  0.1435  0.8906 -0.1316
38719SOL     OW18409   4.640   8.272   5.119 -0.3993 -0.7454  0.8395
38719SOL    HW118410   4.555   8.311   5.140 -0.9597 -1.0129 -0.7990
38719SOL    HW218411   4.690   8.278   5.200 -1.4611  0.7880  1.4151
38720SOL     OW18412   0.946   4.945   2.911  0.4802  0.2731  0.3866
38720SOL    HW118413   1.013   5.005   2.943  0.1363  0.4557  0.7736
38720SOL    HW218414   0.935   4.881   2.981  0.7153 -0.1414  0.0506
38721SOL     OW18415   4.304   9.367   1.662  0.3012  0.1646 -0.3998
38721SOL    HW118416   4.271   9.328   1.581  1.1508  0.0419 -0.7006
38721SOL    HW218417   4.366   9.303   1.696  4.5299  2.4971 -2.7615
38722SOL     OW18418   1.132   0.714   0.923 -0.3612  0.3651 -0.2138
38722SOL    HW118419   1.057   0.657   0.945 -1.0698  0.0932 -2.8818
38722SOL    HW218420   1.132   0.781   0.991 -1.8209 -0.7349  0.9570
38723SOL     OW18421   1.558   7.163   1.404  0.5321  0.1554 -0.1396
38723SOL    HW118422   1.573   7.073   1.433 -2.3280 -0.5769 -0.6705
38723SOL    HW218423   1.599   7.217   1.471  0.6978 -1.5317  1.1894
38724SOL     OW18424   2.390   9.690   1.970  0.4560  0.0204 -0.4693
38724SOL    HW118425   2.360   9.620   2.028  1.1260 -1.6976 -2.0797
38724SOL    HW218426   2.322   9.756   1.974  0.1894 -0.3200  1.7527
38725SOL     OW18427   2.492   3.864   8.267  0.3439  0.1559  0.1710
38725SOL    HW118428   2.413   3.917   8.272  1.3973  2.0935 -1.8445
38725SOL    HW218429   2.515   3.864   8.174  2.2735 -1.0189  0.5928
38726SOL     OW18430   9.802   3.365   5.002  0.0262 -0.1886 -0.5440
38726SOL    HW118431   9.896   3.364   5.018  0.0293  0.9786 -0.3463
38726SOL    HW218432   9.793   3.338   4.911  0.5984  0.1184 -0.7006
38727SOL     OW18433   3.053   6.347   1.969 -0.2686 -0.0838 -0.3873
38727SOL    HW118434   3.045   6.256   1.939 -2.0678  0.3579 -1.3725
38727SOL    HW218435   2.991   6.395   1.916  0.0481  1.6081  0.7128
38728SOL     OW18436   0.238   9.578   4.684 -0.5297 -0.4849 -0.0488
38728SOL    HW118437   0.315   9.570   4.628  1.1035  2.5604  1.5203
38728SOL    HW218438   0.173   9.622   4.630 -0.3483 -0.9806 -0.6787
38729SOL     OW18439   0.136   5.780   8.103 -0.0333 -0.2085 -0.1849
38729SOL    HW118440   0.209   5.800   8.044 -0.4179  1.3023 -0.1909
38729SOL    HW218441   0.170   5.710   8.159  1.0266 -0.3110 -0.9188
38730SOL     OW18442   5.111   0.472   7.247  0.7550  0.1260 -0.3554
38730SOL    HW118443   5.079   0.527   7.175 -0.1163 -0.0883 -0.1328
38730SOL    HW218444   5.050   0.488   7.318  0.3392 -1.3262 -0.3605
38731SOL     OW18445   0.475   2.618   2.387 -0.5027  0.3507  0.2698
38731SOL    HW118446   0.474   2.548   2.321  0.3491 -0.1197  0.7278
38731SOL    HW218447   0.445   2.575   2.468  1.2827  0.1267  0.8759
38732SOL     OW18448   3.843   7.633   4.640 -0.3841 -0.2306 -0.8756
38732SOL    HW118449   3.822   7.643   4.547 -0.7264  1.0096 -0.6863
38732SOL    HW218450   3.873   7.720   4.667 -2.6090  0.1185  0.7251
38733SOL     OW18451   2.387   5.578   6.078 -0.9692 -0.1348 -0.0660
38733SOL    HW118452   2.351   5.491   6.098  0.6532 -0.8707 -0.1969
38733SOL    HW218453   2.476   5.561   6.050 -0.7694  1.5607 -0.5600
38734SOL     OW18454   8.328   1.329   2.313 -0.6252 -0.1488 -0.0800
38734SOL    HW118455   8.388   1.384   2.263  0.7579 -0.5876  1.0175
38734SOL    HW218456   8.243   1.370   2.302  0.4360  2.7421  1.3421
38735SOL     OW18457   9.098   1.950   5.728 -0.5387 -0.1398  0.1723
38735SOL    HW118458   9.170   1.972   5.669 -0.4600 -0.8276 -0.0083
38735SOL    HW218459   9.079   1.858   5.708 -0.5055 -0.3923  1.2294
38736SOL     OW18460   0.056   4.961   7.319 -0.1598 -0.7960  0.0502
38736SOL    HW118461  -0.001   5.033   7.344  1.1956  0.3405 -0.0347
38736SOL    HW218462   0.034   4.891   7.381  0.4456  0.6551  2.0051
38737SOL     OW18463   5.086  10.090   5.554 -0.3065  0.0889 -1.1760
38737SOL    HW118464   5.001  10.127   5.532 -0.1732  0.0373 -1.7873
38737SOL    HW218465   5.071  10.045   5.637 -0.6931  0.7071 -0.9038
38738SOL     OW18466   6.117   5.576   1.635  0.7825 -0.0769 -0.2062
38738SOL    HW118467   6.059   5.623   1.574  0.1057 -0.1584  0.3638
38738SOL    HW218468   6.069   5.575   1.718  0.2972 -2.6564 -0.4257
38739SOL     OW18469   4.206   2.980   3.569 -0.1459  0.4477  0.0385
38739SOL    HW118470   4.160   2.915   3.516 -0.6553 -0.1756  1.2072
38739SOL    HW218471   4.217   2.938   3.654 -0.3811  1.8460  0.7905
38740SOL     OW18472   1.227   7.772  10.024 -0.5401  0.2224 -0.1602
38740SOL    HW118473   1.253   7.721   9.947  0.2096  0.3833 -0.0184
38740SOL    HW218474   1.146   7.815   9.997  0.5632  1.5939 -1.4792
38741SOL     OW18475   5.356   4.522   0.415  0.4751 -0.1695 -0.0044
38741SOL    HW118476   5.343   4.498   0.507  1.3473  2.3898  0.8639
38741SOL    HW218477   5.449   4.508   0.400  0.0875 -2.0650 -1.0538
38742SOL     OW18478   8.840   7.996   7.849  0.2948  0.8494  0.3785
38742SOL    HW118479   8.892   7.922   7.880  0.4349  0.1570 -1.4085
38742SOL    HW218480   8.905   8.059   7.817  0.0970  0.6689 -0.3859
38743SOL     OW18481   2.711   1.558   6.028 -0.0747 -0.3644  0.2863
38743SOL    HW118482   2.703   1.641   5.981  1.4443  0.7942  1.9448
38743SOL    HW218483   2.783   1.513   5.984 -2.3066 -1.9601 -2.0768
38744SOL     OW18484   4.077   9.394   0.086 -0.1221  0.0892  0.4160
38744SOL    HW118485   4.134   9.317   0.080 -1.4370 -0.8296 -0.6613
38744SOL    HW218486   4.109   9.440   0.163  0.8621 -1.3910  0.9459
38745SOL     OW18487  10.215   1.324   2.999  0.4678  0.3200  0.2183
38745SOL    HW118488  10.254   1.326   3.086 -0.1725  4.5299  0.6282
38745SOL    HW218489  10.280   1.367   2.943 -1.0070  2.0337 -0.2839
38746SOL     OW18490   1.752   4.559   5.583 -0.6111  0.2453 -0.1383
38746SOL    HW118491   1.669   4.530   5.621 -0.9030  1.8214  0.5051
38746SOL    HW218492   1.818   4.506   5.627 -1.1551  0.2131  0.6597
38747SOL     OW18493   1.058   1.009   1.253 -0.0530  0.0492  0.3757
38747SOL    HW118494   1.037   0.973   1.339  0.2312 -0.8072  0.1015
38747SOL    HW218495   1.136   1.062   1.267  0.3157 -0.5363  0.5460
38748SOL     OW18496   2.750   3.746   6.190  0.2241 -0.0255  0.3665
38748SOL    HW118497   2.766   3.782   6.103 -1.6325 -1.5312 -0.6790
38748SOL    HW218498   2.684   3.804   6.229  1.5703  1.0679  1.1292
38749SOL     OW18499   5.908   8.966   3.736  0.3355  0.2725  0.0421
38749SOL    HW118500   5.819   8.957   3.769  0.6679 -2.3071  0.4386
38749SOL    HW218501   5.902   9.034   3.668 -2.3815 -1.2620 -1.4060
38750SOL     OW18502   3.656   1.469   1.931 -0.2433 -0.3032  0.1526
38750SOL    HW118503   3.656   1.456   2.025  0.5593  1.0418  0.3604
38750SOL    HW218504   3.696   1.555   1.918  0.1497 -0.6856 -1.4461
38751SOL     OW18505   8.077   9.281   6.746 -0.0311 -0.2400  0.5269
38751SOL    HW118506   8.149   9.219   6.756 -0.5198 -0.8762  0.1547
38751SOL    HW218507   8.033   9.255   6.665 -1.4796 -0.7118  1.4262
38752SOL     OW18508   5.596   3.511   3.831  0.0314  0.0633 -0.6007
38752SOL    HW118509   5.562   3.552   3.751 -0.9424  1.1438  0.3316
38752SOL    HW218510   5.520   3.467   3.869  0.0653  0.9884  0.5826
38753SOL     OW18511   0.650   6.419   7.193  0.4294  0.5927  0.4408
38753SOL    HW118512   0.709   6.478   7.239  0.2535  0.4789  0.8151
38753SOL    HW218513   0.620   6.358   7.260  1.1034 -0.3258 -0.0740
38754SOL     OW18514   8.293   2.224   9.804  0.1922  0.8482  0.1423
38754SOL    HW118515   8.333   2.157   9.859 -0.5821 -0.9283 -1.3581
38754SOL    HW218516   8.309   2.306   9.851  2.5552 -0.1675  1.2686
38755SOL     OW18517   9.925   1.113   6.068 -0.6593 -0.4688  0.0339
38755SOL    HW118518   9.984   1.166   6.121  0.8331 -0.7248 -1.2929
38755SOL    HW218519   9.861   1.175   6.033 -0.5255 -0.0015  0.6108
38756SOL     OW18520   8.380   8.787   3.939 -0.3753  0.0676 -0.3634
38756SOL    HW118521   8.386   8.788   4.035 -2.4647  0.4798 -0.1784
38756SOL    HW218522   8.435   8.713   3.913  2.0526  1.2854  0.9431
38757SOL     OW18523   1.379   0.676   6.064 -0.0909 -0.0997  0.1674
38757SOL    HW118524   1.467   0.639   6.057 -0.6888 -1.3842 -1.0458
38757SOL    HW218525   1.348   0.680   5.973 -1.8361 -1.0785  0.6913
38758SOL     OW18526   8.464   3.840   0.364 -0.2701 -0.5763  0.0120
38758SOL    HW118527   8.411   3.916   0.338  1.1147  0.5836  0.5069
38758SOL    HW218528   8.400   3.780   0.403 -1.3491  0.4556 -0.0812
38759SOL     OW18529   2.261   5.429   9.102 -0.3748  0.2185 -0.3865
38759SOL    HW118530   2.290   5.491   9.035  0.2307  1.7096  1.2102
38759SOL    HW218531   2.276   5.473   9.185  0.3542 -2.1851  0.8619
38760SOL     OW18532   5.682   7.767   1.425 -0.1945 -0.3603 -0.5439
38760SOL    HW118533   5.607   7.711   1.444  0.5366 -1.7347 -1.5950
38760SOL    HW218534   5.709   7.801   1.511 -1.3159 -0.7304 -0.0263
38761SOL     OW18535   4.287   8.691   9.876  0.1454 -0.3631 -0.4347
38761SOL    HW118536   4.293   8.599   9.901  1.5432 -0.7348 -1.9489
38761SOL    HW218537   4.353   8.735   9.929  0.1648 -0.4024 -0.4264
38762SOL     OW18538   2.814   5.174   3.376  0.2814  0.4290 -0.3919
38762SOL    HW118539   2.828   5.210   3.289  0.3749  0.2598 -0.4486
38762SOL    HW218540   2.780   5.086   3.361  2.0643 -0.3206 -0.2892
38763SOL     OW18541  10.364   3.189   2.106 -0.7442 -0.4064  0.9099
38763SOL    HW118542  10.345   3.246   2.181  1.3478  0.0103  1.1926
38763SOL    HW218543  10.448   3.220   2.073 -1.4071 -0.8894 -1.3637
38764SOL     OW18544   7.671   6.572   0.030 -0.1155 -0.0420 -0.0881
38764SOL    HW118545   7.643   6.630   0.101 -0.4030 -0.8344  0.4649
38764SOL    HW218546   7.757   6.540   0.058 -0.7965 -1.3845  0.5626
38765SOL     OW18547   2.997   1.444   7.071 -0.4446 -0.8216 -0.0511
38765SOL    HW118548   3.027   1.366   7.118 -1.6924 -1.3695 -0.1077
38765SOL    HW218549   2.971   1.411   6.985 -2.4075 -0.6519  0.4312
38766SOL     OW18550   6.644   7.084   0.955 -0.2393  0.6072  0.2707
38766SOL    HW118551   6.568   7.043   0.914  1.1795  0.0047 -1.9578
38766SOL    HW218552   6.624   7.177   0.956 -1.3151  0.3878  0.4577
38767SOL     OW18553   3.999   1.257   3.651  0.0027  0.3932 -0.1324
38767SOL    HW118554   4.055   1.332   3.631  0.3211 -0.0386 -0.8884
38767SOL    HW218555   3.949   1.243   3.570 -0.0480 -0.2187  0.0041
38768SOL     OW18556   8.029   1.465   3.489 -0.4285 -0.2295  0.2762
38768SOL    HW118557   8.034   1.560   3.481 -0.2372 -0.2147  0.5966
38768SOL    HW218558   8.079   1.433   3.414  1.2305 -0.0808  1.2986
38769SOL     OW18559   1.963   5.200   4.579 -0.2972 -0.2817  0.1341
38769SOL    HW118560   1.884   5.165   4.620 -1.2267 -0.5853 -1.7882
38769SOL    HW218561   1.941   5.291   4.558  1.1309  0.7191  2.6315
38770SOL     OW18562   4.772   3.100  10.241 -0.2064 -0.2487 -0.5033
38770SOL    HW118563   4.772   3.044  10.318  0.7071  0.3659 -0.0414
38770SOL    HW218564   4.841   3.164  10.257  0.6002 -0.6265 -2.2084
38771SOL     OW18565   8.870   2.470   1.621 -0.6983 -0.3210 -0.0850
38771SOL    HW118566   8.784   2.455   1.580 -2.3043  1.6677  2.2492
38771SOL    HW218567   8.870   2.412   1.697 -0.1297 -0.0785  0.1010
38772SOL     OW18568   5.720   0.997   1.359  0.1059  0.0033 -0.0884
38772SOL    HW118569   5.704   0.956   1.274 -0.5907  2.1591 -1.0751
38772SOL    HW218570   5.772   1.074   1.339  0.1111  0.4392  1.4843
38773SOL     OW18571   0.707   3.238   3.901  0.2753  0.7403 -0.1749
38773SOL    HW118572   0.762   3.312   3.877  1.8806 -0.0891  0.7583
38773SOL    HW218573   0.619   3.262   3.871  1.0585  2.2743 -1.3741
38774SOL     OW18574   3.749   0.034   6.809 -0.0782 -0.1917  0.3612
38774SOL    HW118575   3.780  -0.047   6.849 -3.0202 -1.2994  0.5935
38774SOL    HW218576   3.676   0.008   6.753 -0.9183  2.2520  0.1809
38775SOL     OW18577   3.919   5.072   6.907 -0.5688  0.1956  0.0231
38775SOL    HW118578   3.945   4.993   6.860 -0.4795  0.2032  0.0596
38775SOL    HW218579   3.954   5.060   6.996  0.1624  0.6391 -0.1947
38776SOL     OW18580   8.615   2.642   7.876 -0.2009 -0.1323  0.2634
38776SOL    HW118581   8.567   2.593   7.810 -0.7904 -0.2802  0.7919
38776SOL    HW218582   8.550   2.701   7.914 -0.1452 -0.7770  1.4248
38777SOL     OW18583   7.623   3.428   0.990 -0.2804 -0.0820 -0.0796
38777SOL    HW118584   7.618   3.336   0.966  2.2603 -0.3009 -0.0200
38777SOL    HW218585   7.716   3.450   0.985 -0.6599  2.1744  1.0748
38778SOL     OW18586   7.984   5.064   7.117 -0.3865 -0.1603 -0.3512
38778SOL    HW118587   7.980   5.095   7.207  0.8015 -0.6123 -0.1260
38778SOL    HW218588   8.023   5.136   7.068 -0.2004 -0.2501 -0.3361
38779SOL     OW18589   0.422   8.695   5.331 -0.0295  0.1149  0.2541
38779SOL    HW118590   0.460   8.637   5.398  1.5180  0.4337 -0.2985
38779SOL    HW218591   0.370   8.758   5.380  1.5959  0.7479  1.2704
38780SOL     OW18592  10.473   8.686   1.243  0.4162 -0.3857 -0.3326
38780SOL    HW118593  10.423   8.631   1.182 -1.7137  1.1750 -0.1038
38780SOL    HW218594  10.449   8.776   1.219  2.6079  0.4230  0.2963
38781SOL     OW18595   3.912   6.718  10.613 -0.1036 -0.3618 -0.2540
38781SOL    HW118596   3.860   6.696  10.690  0.4661 -1.1804 -0.0929
38781SOL    HW218597   3.922   6.813  10.617 -0.1769 -0.3833  0.6153
38782SOL     OW18598   4.598   7.740   0.461  0.3416  0.2060 -0.1280
38782SOL    HW118599   4.616   7.655   0.422  0.2382  0.0443  0.1782
38782SOL    HW218600   4.644   7.738   0.545  2.4270  1.3581 -1.1435
38783SOL     OW18601  10.061   2.636   8.304  0.0149  0.3562 -0.0976
38783SOL    HW118602  10.086   2.716   8.259 -1.9115 -0.4321 -2.8404
38783SOL    HW218603   9.966   2.639   8.309 -0.0194 -1.1111  1.0256
38784SOL     OW18604   9.206   7.214   7.893 -0.4573  0.3938 -0.4770
38784SOL    HW118605   9.294   7.250   7.899 -0.0206 -0.4361 -1.5614
38784SOL    HW218606   9.160   7.274   7.834 -0.4041  0.4282 -0.4844
38785SOL     OW18607   2.385   0.586  10.255  0.3145 -0.0051 -0.1728
38785SOL    HW118608   2.456   0.579  10.319  0.2923 -3.1947 -0.3642
38785SOL    HW218609   2.429   0.611  10.174  0.4196  3.4215  0.7484
38786SOL     OW18610   5.562   3.586   0.175 -0.3074 -0.0358  0.0137
38786SOL    HW118611   5.603   3.540   0.248 -0.5211  1.0258  0.8270
38786SOL    HW218612   5.610   3.555   0.098  0.6214 -0.4011  0.7128
38787SOL     OW18613   6.511   6.823   3.620  0.0843  0.1092 -0.0202
38787SOL    HW118614   6.598   6.807   3.586  0.9783  1.1357  1.6477
38787SOL    HW218615   6.493   6.915   3.599  0.7501  0.8383  2.3013
38788SOL     OW18616   1.688   2.886   6.401 -0.0716 -0.0669  0.4780
38788SOL    HW118617   1.714   2.883   6.309  0.6348 -2.0849  0.7017
38788SOL    HW218618   1.603   2.842   6.403 -0.7168  1.1437  0.6280
38789SOL     OW18619   4.689  10.632   5.623 -0.0213 -0.3316 -0.5751
38789SOL    HW118620   4.675  10.562   5.559 -0.4527  0.2549 -1.1488
38789SOL    HW218621   4.780  10.657   5.612 -0.4602  0.8276 -2.1293
38790SOL     OW18622   2.113   5.295   0.154  0.0347  0.1426 -0.8870
38790SOL    HW118623   2.204   5.290   0.126 -0.0698  0.4560 -1.3100
38790SOL    HW218624   2.064   5.312   0.073 -0.4233 -0.2507 -0.6990
38791SOL     OW18625   9.429  10.346   3.784  0.1001  0.1385 -0.1564
38791SOL    HW118626   9.362  10.379   3.725 -0.0381  0.8900  0.4110
38791SOL    HW218627   9.505  10.330   3.728 -0.7538 -1.4396 -0.9459
38792SOL     OW18628   4.747   4.829   2.269 -0.0119 -0.0506  0.0422
38792SOL    HW118629   4.839   4.808   2.254 -0.3553 -1.4105 -0.3339
38792SOL    HW218630   4.748   4.894   2.338  1.1958 -0.8470  0.8113
38793SOL     OW18631   6.325  10.219   1.894  0.2319  0.1587  0.0252
38793SOL    HW118632   6.351  10.139   1.848 -0.9861 -0.0569 -0.3274
38793SOL    HW218633   6.230  10.215   1.896  0.1991  1.0891  0.9509
38794SOL     OW18634   4.192  10.649   7.702 -0.0723 -0.0177 -0.0770
38794SOL    HW118635   4.186  10.724   7.762 -0.3713 -0.1558  0.0690
38794SOL    HW218636   4.286  10.631   7.695 -0.0673 -0.4392  0.9056
38795SOL     OW18637   6.589   0.068   3.813  0.3073  0.0165  0.0296
38795SOL    HW118638   6.595  -0.027   3.799  0.4175  0.1343 -0.7566
38795SOL    HW218639   6.677   0.100   3.797 -0.1942  0.5307 -1.9795
38796SOL     OW18640   0.276   3.101   5.361 -0.0229 -0.4086  0.0972
38796SOL    HW118641   0.249   3.010   5.378  1.1883 -1.1352 -1.6153
38796SOL    HW218642   0.300   3.135   5.448 -2.5890 -0.9495  1.1191
38797SOL     OW18643   0.109   6.106  10.469 -0.5978 -0.5875 -0.2270
38797SOL    HW118644   0.040   6.166  10.497  0.3831  1.3489 -1.7312
38797SOL    HW218645   0.183   6.124  10.527  0.0157  0.4076 -1.2668
38798SOL     OW18646   5.419   8.411   0.231 -0.4172  0.0704  0.2292
38798SOL    HW118647   5.417   8.361   0.150  0.3399 -1.1028  0.8923
38798SOL    HW218648   5.390   8.499   0.207  1.5383  0.2713 -1.6873
38799SOL     OW18649   6.333   8.416   6.221 -0.6332 -0.4173 -0.4173
38799SOL    HW118650   6.378   8.338   6.254 -0.4779 -0.5370 -0.9067
38799SOL    HW218651   6.239   8.394   6.228 -0.7364  0.5436  2.3859
38800SOL     OW18652   2.267   4.669   3.880  0.1623 -0.6167  0.0754
38800SOL    HW118653   2.343   4.637   3.830 -0.0632  1.2684 -1.6128
38800SOL    HW218654   2.191   4.634   3.833 -0.0347  0.0499 -0.1143
38801SOL     OW18655   8.276   4.346   4.433  0.9945 -0.5380  0.3192
38801SOL    HW118656   8.250   4.437   4.451  1.4057 -0.3658  0.0705
38801SOL    HW218657   8.362   4.354   4.391 -0.2271 -0.8387 -2.5111
38802SOL     OW18658  10.045   7.973   9.881 -0.1533  0.1078 -0.5173
38802SOL    HW118659  10.046   8.060   9.842  1.0596  0.6536  0.6426
38802SOL    HW218660   9.990   7.981   9.958  0.5638  0.0718  0.0152
38803SOL     OW18661   8.808   9.372   3.864 -0.2194  0.4395  0.0067
38803SOL    HW118662   8.825   9.333   3.950  1.8855  0.7403 -0.2383
38803SOL    HW218663   8.803   9.297   3.805  0.4121  0.3362  0.0769
38804SOL     OW18664   8.710   9.924   9.596  0.2025 -0.1425  0.5798
38804SOL    HW118665   8.736   9.942   9.505 -0.5157 -0.6748  0.2579
38804SOL    HW218666   8.618   9.899   9.590 -0.5886  2.1590  1.7458
38805SOL     OW18667   5.133   6.504   5.543  0.2233  0.1035  0.0024
38805SOL    HW118668   5.213   6.552   5.519  0.9473 -1.4527 -0.8765
38805SOL    HW218669   5.122   6.440   5.472  0.0741 -1.9207  1.7568
38806SOL     OW18670   6.061  10.511   3.695  0.8579  0.0603 -0.0195
38806SOL    HW118671   6.026  10.552   3.616  1.6258  0.9905  0.0941
38806SOL    HW218672   6.007  10.434   3.709 -1.0262  1.3137  0.0431
38807SOL     OW18673   5.895   7.739   2.145  0.0487  0.4597  0.0435
38807SOL    HW118674   5.952   7.791   2.088 -1.3297  0.1957 -1.6411
38807SOL    HW218675   5.948   7.662   2.167  0.9886  1.0722  0.0046
38808SOL     OW18676   6.995   2.999   8.085 -0.0511  0.5088  0.3571
38808SOL    HW118677   7.031   2.940   8.019 -2.5442 -0.6268 -0.0922
38808SOL    HW218678   6.937   2.945   8.137  0.4957  1.7923  2.4033
38809SOL     OW18679   0.257   0.909   5.030  0.2628  0.0092  0.1354
38809SOL    HW118680   0.192   0.900   5.100  0.1847 -1.5221 -0.0903
38809SOL    HW218681   0.208   0.946   4.957 -0.2260 -0.5896  0.1537
38810SOL     OW18682   0.808   9.094   1.224  0.5967  0.4558  0.8469
38810SOL    HW118683   0.885   9.120   1.275  1.2944 -0.0707  0.1041
38810SOL    HW218684   0.770   9.177   1.195  1.6218  0.7224  0.1885
38811SOL     OW18685   2.847   7.617   0.950 -0.0343 -0.1349  0.0587
38811SOL    HW118686   2.910   7.659   1.008  0.9896 -0.8246 -0.5241
38811SOL    HW218687   2.897   7.598   0.871 -0.3148 -2.8135  0.4496
38812SOL     OW18688   2.715   1.841  10.061  0.4103  0.6642 -0.6627
38812SOL    HW118689   2.680   1.927  10.038  0.1364  0.6531 -0.2902
38812SOL    HW218690   2.723   1.795   9.977 -2.7813 -0.2156 -0.6049
38813SOL     OW18691   7.561   6.147   1.662  0.0361 -0.2513 -0.1685
38813SOL    HW118692   7.540   6.054   1.658 -0.2309 -0.1923 -0.1648
38813SOL    HW218693   7.527   6.176   1.747 -0.7189  0.0481 -0.5595
38814SOL     OW18694   7.827   9.170   5.615 -0.0899  0.2504  0.4600
38814SOL    HW118695   7.908   9.221   5.616  0.7399 -0.9953 -0.1480
38814SOL    HW218696   7.772   9.214   5.550  0.0926  1.0848  0.8497
38815SOL     OW18697   7.235   9.154   8.880  0.4968 -0.8013 -0.2012
38815SOL    HW118698   7.287   9.161   8.960 -0.8120  1.0378  0.5685
38815SOL    HW218699   7.165   9.092   8.902  0.3371 -0.5576 -0.0063
38816SOL     OW18700   2.884   5.667   2.842  0.0703 -0.1567 -0.4148
38816SOL    HW118701   2.957   5.639   2.787  1.3849 -0.4250  1.3864
38816SOL    HW218702   2.897   5.761   2.852 -0.7038  0.0569 -1.2833
38817SOL     OW18703   2.479   4.572   3.184 -0.1284  0.1243 -0.0169
38817SOL    HW118704   2.560   4.560   3.135  1.4482 -0.0367  2.4214
38817SOL    HW218705   2.479   4.665   3.208  0.8516 -0.3692  2.2404
38818SOL     OW18706   3.566   1.724   8.653  0.0050  0.4618  0.2644
38818SOL    HW118707   3.530   1.763   8.733 -1.7556 -0.4260 -0.0525
38818SOL    HW218708   3.510   1.648   8.637 -0.4722  1.3137 -2.5012
38819SOL     OW18709   2.401   6.642   8.856 -0.8032 -0.4132 -0.0936
38819SOL    HW118710   2.389   6.689   8.773  1.9977  1.4488  0.4117
38819SOL    HW218711   2.395   6.549   8.832  2.2765 -0.0438 -2.9460
38820SOL     OW18712   1.858  10.552   4.959  0.2408  0.5019  0.1186
38820SOL    HW118713   1.859  10.641   4.924  0.7900 -0.1321 -1.5281
38820SOL    HW218714   1.838  10.564   5.052  1.1238  2.3916  0.1045
38821SOL     OW18715   4.798   8.579   3.379  0.8021 -0.2657 -0.1653
38821SOL    HW118716   4.719   8.633   3.379  0.0362 -1.0774  3.6621
38821SOL    HW218717   4.866   8.637   3.414  1.5249 -0.0700 -1.8408
38822SOL     OW18718   8.623   8.931   0.148  0.3151  0.2332 -0.1692
38822SOL    HW118719   8.653   8.987   0.219 -0.6518 -1.0489  1.3317
38822SOL    HW218720   8.702   8.886   0.118  0.6460  0.3185  0.5508
38823SOL     OW18721   8.852   5.456   4.895 -0.2791 -0.3041  0.1017
38823SOL    HW118722   8.762   5.478   4.869 -0.1149 -0.1335 -0.3279
38823SOL    HW218723   8.842   5.385   4.959 -0.8902  1.6213  2.3082
38824SOL     OW18724   0.900   8.511   9.899  0.0846 -0.3746  0.7607
38824SOL    HW118725   0.816   8.522   9.854 -0.3840 -2.2271  1.0985
38824SOL    HW218726   0.962   8.490   9.830  0.3096  0.9897  0.5106
38825SOL     OW18727   7.776   0.281   8.224  0.1890 -0.1063 -0.1931
38825SOL    HW118728   7.818   0.266   8.140 -0.4157  1.7510 -0.8889
38825SOL    HW218729   7.842   0.325   8.277 -0.1462  0.8428 -0.5368
38826SOL     OW18730   7.054   1.594   4.157  0.0347 -0.4578  0.1466
38826SOL    HW118731   7.135   1.602   4.107 -0.0718  0.4986  0.1129
38826SOL    HW218732   6.985   1.591   4.091 -0.0348 -0.1834  0.2059
38827SOL     OW18733   8.992   3.509   3.238 -0.3322 -0.1999 -0.5551
38827SOL    HW118734   9.067   3.559   3.271 -0.6839 -0.1154  0.1484
38827SOL    HW218735   9.014   3.418   3.258  0.0845 -0.2955 -1.3865
38828SOL     OW18736   6.531   4.837   4.122  0.1453 -0.5802  0.0312
38828SOL    HW118737   6.483   4.871   4.198  1.2521  0.5288  0.2703
38828SOL    HW218738   6.623   4.846   4.146  0.5061 -2.7106 -0.3976
38829SOL     OW18739   5.099   1.307   0.239  0.4361  0.1962 -0.0108
38829SOL    HW118740   5.100   1.300   0.143  0.8379 -0.0788  0.0103
38829SOL    HW218741   5.018   1.353   0.259  0.1046 -0.1801 -0.4592
38830SOL     OW18742   3.171   8.101   8.877 -0.4849 -0.1357  0.7676
38830SOL    HW118743   3.222   8.106   8.795 -1.3754  0.3157  0.2302
38830SOL    HW218744   3.084   8.134   8.853 -0.9109 -0.5051  1.7761
38831SOL     OW18745   0.835   2.208   8.797 -0.2952 -0.9156  0.1907
38831SOL    HW118746   0.783   2.206   8.877 -1.9366  1.1963 -0.7371
38831SOL    HW218747   0.896   2.135   8.807 -1.5511 -1.7589  2.5956
38832SOL     OW18748   5.648   9.363   4.136  0.6436  0.4106 -0.8271
38832SOL    HW118749   5.556   9.347   4.113  0.0038  2.3674  0.1064
38832SOL    HW218750   5.687   9.276   4.142 -1.6573 -0.6179  0.7163
38833SOL     OW18751   9.624   8.445   4.505  0.0542  0.4955 -0.1669
38833SOL    HW118752   9.680   8.414   4.433 -0.5182  3.3753 -1.9938
38833SOL    HW218753   9.662   8.405   4.583  0.1530 -3.5947 -2.0141
38834SOL     OW18754   0.704   3.211   8.519 -0.0733  0.4007 -0.3053
38834SOL    HW118755   0.662   3.297   8.514  0.5002  0.7046 -0.0644
38834SOL    HW218756   0.754   3.204   8.438  0.0857  0.4067 -0.2090
38835SOL     OW18757  10.545   4.265   1.200  0.1658  0.5878 -0.6708
38835SOL    HW118758  10.604   4.336   1.174  2.3937 -0.7465  0.4259
38835SOL    HW218759  10.536   4.212   1.120  1.0737  0.4098 -0.6638
38836SOL     OW18760   7.438   6.489   3.074  0.2509 -0.6798 -0.3212
38836SOL    HW118761   7.461   6.540   3.152  0.5047 -1.1018 -0.1126
38836SOL    HW218762   7.484   6.533   3.002 -0.1982 -0.1325 -0.2756
38837SOL     OW18763   1.450   1.727   6.168  0.3874 -0.0286  0.2515
38837SOL    HW118764   1.375   1.765   6.124  0.3100  1.1537  1.3513
38837SOL    HW218765   1.416   1.647   6.209 -0.5248  0.9551  1.4921
38838SOL     OW18766   4.057   2.286   6.122  0.0376 -0.4294  0.3404
38838SOL    HW118767   3.994   2.358   6.124 -0.0739 -0.5345  1.9549
38838SOL    HW218768   4.045   2.245   6.036 -1.8918 -0.2908  0.5179
38839SOL     OW18769   0.773  10.620   9.482 -0.3277 -0.4274 -0.2248
38839SOL    HW118770   0.679  10.641   9.486 -0.8908 -2.8456  0.9794
38839SOL    HW218771   0.792  10.577   9.565  1.1921 -2.3663 -1.4667
38840SOL     OW18772   0.638   8.387   1.126  0.5329 -0.2418  0.0149
38840SOL    HW118773   0.711   8.438   1.160  0.1917  0.1841  0.1155
38840SOL    HW218774   0.566   8.450   1.119 -0.4027 -1.0238  1.7808
38841SOL     OW18775   6.912   6.088   3.088  0.3072 -0.5138 -0.3550
38841SOL    HW118776   6.955   6.003   3.101 -0.8488 -0.7359  2.6665
38841SOL    HW218777   6.969   6.151   3.133 -0.8862 -0.3619  1.0133
38842SOL     OW18778   3.308   1.638   4.598  0.5610  0.4755  0.2995
38842SOL    HW118779   3.343   1.677   4.518  1.0006 -0.4015  0.0483
38842SOL    HW218780   3.382   1.637   4.659  0.9006 -1.0106 -0.0943
38843SOL     OW18781   2.210   5.202   0.555 -0.2213 -0.3732  0.8878
38843SOL    HW118782   2.139   5.253   0.596 -0.7040 -1.0623  0.9196
38843SOL    HW218783   2.290   5.245   0.586 -0.6114  0.1444  1.2072
38844SOL     OW18784   9.032   3.732   8.827  0.0639  0.0941 -0.2212
38844SOL    HW118785   8.974   3.660   8.801  1.4397 -1.0315 -0.2782
38844SOL    HW218786   9.058   3.773   8.744 -0.1120  0.1704 -0.2388
38845SOL     OW18787   6.826   8.965   3.788 -0.2426  0.6636  0.0633
38845SOL    HW118788   6.788   8.877   3.789  1.4638 -0.1197  2.4661
38845SOL    HW218789   6.775   9.014   3.853  1.5437  0.1125  1.9828
38846SOL     OW18790   6.664   8.827   7.837 -0.6664  0.3001  0.0642
38846SOL    HW118791   6.680   8.804   7.929  2.9921  1.3962 -0.1597
38846SOL    HW218792   6.736   8.786   7.789 -0.5910  2.4802 -1.8532
38847SOL     OW18793   4.058   4.630   7.960 -0.2211 -0.5329 -0.0299
38847SOL    HW118794   4.103   4.613   8.043 -1.4261  0.5628  0.8799
38847SOL    HW218795   4.032   4.722   7.965 -1.5857 -0.8338 -0.9787
38848SOL     OW18796   6.074   0.448   3.181 -0.1741  0.2475  0.2332
38848SOL    HW118797   6.047   0.389   3.111  0.4382  0.0672  0.1451
38848SOL    HW218798   6.011   0.520   3.176 -1.4505 -0.7793  0.8942
38849SOL     OW18799   3.666   0.764   8.002  0.2034  0.4633  0.3544
38849SOL    HW118800   3.640   0.829   8.068 -1.6825 -0.4486  0.5659
38849SOL    HW218801   3.618   0.684   8.027  2.7009 -1.1640  0.3195
38850SOL     OW18802   2.041  10.484   7.939 -0.1465 -0.6895 -0.5256
38850SOL    HW118803   2.058  10.555   7.878 -0.4875  1.2912  1.5463
38850SOL    HW218804   1.975  10.429   7.896 -0.7547  0.9089 -1.7000
38851SOL     OW18805   7.694   1.530   0.817 -0.2228 -0.1441  0.6712
38851SOL    HW118806   7.715   1.442   0.848  0.6720  0.0521  0.6306
38851SOL    HW218807   7.660   1.517   0.728  0.6701 -0.3822  0.3612
38852SOL     OW18808   0.628   9.532   3.533 -0.1037  0.7915 -0.3427
38852SOL    HW118809   0.714   9.540   3.492 -0.2167  1.2133 -0.5013
38852SOL    HW218810   0.640   9.467   3.602  0.7685  2.1086  0.7883
38853SOL     OW18811   8.891   8.373   5.915 -0.5268  0.5235  0.6549
38853SOL    HW118812   8.972   8.374   5.967 -0.6398 -1.4963  0.9288
38853SOL    HW218813   8.840   8.446   5.951 -0.0607 -0.0017  2.5404
38854SOL     OW18814   5.235   4.487   9.837  0.0631  0.3657  0.3205
38854SOL    HW118815   5.300   4.498   9.906  0.9142 -2.6894  0.1531
38854SOL    HW218816   5.281   4.440   9.768 -2.1541 -1.5818  0.0409
38855SOL     OW18817   5.402   7.012   6.461 -0.4128 -0.2125 -0.0524
38855SOL    HW118818   5.336   6.943   6.458 -1.9651  1.1538  0.5189
38855SOL    HW218819   5.353   7.092   6.437  1.1225  0.7988  0.0703
38856SOL     OW18820   6.480  10.064   2.539  0.1696  0.0333  0.0225
38856SOL    HW118821   6.562  10.073   2.588  0.7754 -2.3480 -0.4295
38856SOL    HW218822   6.438   9.987   2.576 -2.1940  1.5042  0.5958
38857SOL     OW18823   7.149  10.286   7.944 -0.0958 -0.1983 -0.2117
38857SOL    HW118824   7.149  10.341   8.023 -0.2391 -0.4244 -0.0536
38857SOL    HW218825   7.057  10.278   7.920 -0.2931 -2.0128  0.9270
38858SOL     OW18826   5.341   9.173   9.963 -0.7199 -0.1021 -0.4734
38858SOL    HW118827   5.385   9.151   9.880  0.8425  0.7725  0.0798
38858SOL    HW218828   5.250   9.149   9.949 -0.1694 -1.5931 -1.8523
38859SOL     OW18829  10.435   6.548   3.015  0.3037 -0.9001  0.6781
38859SOL    HW118830  10.438   6.602   3.093 -1.5889 -0.0101  0.1801
38859SOL    HW218831  10.348   6.508   3.016  0.7711 -2.0262 -0.2429
38860SOL     OW18832  10.414   1.417   9.978  0.1070 -0.6577  0.3499
38860SOL    HW118833  10.354   1.362   9.929 -0.0051 -0.7585  0.6021
38860SOL    HW218834  10.452   1.476   9.912 -0.0281 -0.8057  0.1411
38861SOL     OW18835   4.264   6.239   2.242  0.1850 -0.4529  0.0414
38861SOL    HW118836   4.251   6.332   2.224  1.8240 -0.1716  0.1834
38861SOL    HW218837   4.242   6.229   2.335 -0.1105 -0.2422 -0.0040
38862SOL     OW18838   3.382   2.143   5.200  0.3589  0.3181 -0.2854
38862SOL    HW118839   3.412   2.160   5.110  0.4862 -0.2283 -0.3498
38862SOL    HW218840   3.355   2.229   5.233 -3.2389  0.0869 -2.1102
38863SOL     OW18841   0.669   1.101   4.129  0.2712 -0.4212 -0.1098
38863SOL    HW118842   0.606   1.049   4.178  0.4550 -0.2092  0.3519
38863SOL    HW218843   0.662   1.189   4.166 -0.7351  0.1373 -1.5127
38864SOL     OW18844   9.763   1.501   6.352 -0.2244  0.8366 -0.0563
38864SOL    HW118845   9.829   1.432   6.358 -0.3242  0.6372 -1.0753
38864SOL    HW218846   9.795   1.559   6.283 -0.2468  1.7096  0.6407
38865SOL     OW18847   7.658   6.121   6.426 -0.7411 -0.5052 -0.1293
38865SOL    HW118848   7.566   6.120   6.452 -1.0266  0.2063 -1.0905
38865SOL    HW218849   7.673   6.033   6.389 -0.7963 -0.9087  0.7728
38866SOL     OW18850  10.199   9.388   2.267 -0.5542 -0.8715  0.2391
38866SOL    HW118851  10.162   9.344   2.191 -0.5611 -1.3671  0.5241
38866SOL    HW218852  10.277   9.336   2.288 -0.5845 -0.7703  0.5997
38867SOL     OW18853   4.929   8.668   0.662 -1.0163  0.1504 -1.0498
38867SOL    HW118854   4.951   8.700   0.575 -0.8515 -1.5268 -1.6596
38867SOL    HW218855   4.837   8.691   0.674 -0.4071  2.5583 -0.6299
38868SOL     OW18856   1.128  10.005   8.367  0.2155 -0.2850 -0.0655
38868SOL    HW118857   1.185   9.953   8.310 -0.5823 -1.1906 -0.0559
38868SOL    HW218858   1.137   9.964   8.453  2.0037  1.5314  0.7024
38869SOL     OW18859  10.060   3.239   7.036  0.2825  0.2436 -0.1958
38869SOL    HW118860  10.038   3.156   7.079  0.6337  0.6531  0.8126
38869SOL    HW218861  10.034   3.226   6.945 -1.9519 -0.0916  0.4294
38870SOL     OW18862   8.343   9.217   9.269 -0.0976  0.1207 -0.3887
38870SOL    HW118863   8.308   9.128   9.257  0.3103 -0.0131 -0.5854
38870SOL    HW218864   8.424   9.204   9.318 -0.8298  0.5156  0.9932
38871SOL     OW18865   9.302   1.419   5.653 -0.2698 -0.1039  0.1715
38871SOL    HW118866   9.259   1.445   5.572 -1.3611  2.0122  1.3395
38871SOL    HW218867   9.231   1.403   5.715  0.5571 -0.2082  1.1349
38872SOL     OW18868   4.568   2.245   8.139 -0.2963 -0.6926  0.2895
38872SOL    HW118869   4.521   2.170   8.175 -1.2494 -0.6577 -0.8096
38872SOL    HW218870   4.545   2.244   8.046  0.6351  0.2671  0.0346
38873SOL     OW18871   1.541   5.891   4.425  0.1664 -0.2016 -0.2701
38873SOL    HW118872   1.514   5.912   4.515 -0.1644 -0.0770 -0.3959
38873SOL    HW218873   1.633   5.868   4.433  0.6100  1.4750 -0.1472
38874SOL     OW18874   4.291   0.020   6.694  0.7166 -0.3667 -0.3289
38874SOL    HW118875   4.269   0.018   6.787 -0.8158  0.3519 -0.6412
38874SOL    HW218876   4.309  -0.071   6.672 -0.4048 -0.7656  0.3451
38875SOL     OW18877   0.797   2.769   9.774 -0.0101  0.5823 -0.3773
38875SOL    HW118878   0.844   2.758   9.856 -0.1234  0.8538 -0.2763
38875SOL    HW218879   0.796   2.864   9.758 -0.5755  0.5866 -0.3448
38876SOL     OW18880   3.179   2.059  10.179  0.6404 -0.2786  0.4488
38876SOL    HW118881   3.114   2.098  10.121  1.5542  1.1442  0.3374
38876SOL    HW218882   3.186   2.120  10.252 -0.3170 -1.9183  2.0043
38877SOL     OW18883   7.258   2.917   5.441 -0.1822 -0.2745  0.2067
38877SOL    HW118884   7.259   2.827   5.407  0.7433 -0.2641  0.1911
38877SOL    HW218885   7.349   2.945   5.436 -0.2644  0.2287  1.3868
38878SOL     OW18886   9.838   7.403   7.000  0.4546 -0.0013 -0.1170
38878SOL    HW118887   9.864   7.445   7.081  1.2683 -0.0926 -0.3175
38878SOL    HW218888   9.913   7.415   6.941 -0.1112  0.0514 -0.8476
38879SOL     OW18889   0.028   9.996   9.983  0.2831 -0.5045 -0.4931
38879SOL    HW118890   0.013   9.955  10.068 -1.0965 -1.2750 -1.0721
38879SOL    HW218891   0.006   9.928   9.920  0.1001  0.4429 -1.4758
38880SOL     OW18892  10.213   5.757  10.513 -0.3506 -0.0347 -0.6505
38880SOL    HW118893  10.219   5.851  10.496 -1.2454  0.2658  0.5771
38880SOL    HW218894  10.299   5.733  10.546 -0.2748  0.4680 -0.4742
38881SOL     OW18895   7.182   9.965   9.419  0.1130 -0.4334  0.0782
38881SOL    HW118896   7.089   9.954   9.402 -0.3562 -1.6749  3.0021
38881SOL    HW218897   7.190   9.972   9.514  3.0270 -0.5464 -0.0439
38882SOL     OW18898   1.268   8.980   1.947  0.3360 -0.3108  0.0649
38882SOL    HW118899   1.298   8.939   2.028  0.6604 -1.1722 -0.4799
38882SOL    HW218900   1.232   8.909   1.895  0.1622  0.2257 -0.5685
38883SOL     OW18901   6.552   3.841   7.487 -0.0404 -0.2040 -0.4085
38883SOL    HW118902   6.525   3.881   7.570  0.6217 -0.4197 -0.0831
38883SOL    HW218903   6.501   3.888   7.421 -1.6977 -1.0390  0.2164
38884SOL     OW18904   4.423   3.165  10.118 -0.6008  0.2986  0.1207
38884SOL    HW118905   4.484   3.238  10.123  1.6766 -1.4098 -1.1207
38884SOL    HW218906   4.428   3.123  10.204  1.7806 -1.1024 -0.6043
38885SOL     OW18907   5.227   9.814  10.566  0.7658 -0.1682 -0.0318
38885SOL    HW118908   5.233   9.841  10.658 -1.1719 -1.8894  0.6857
38885SOL    HW218909   5.140   9.774  10.558  0.3191  1.0958 -2.9677
38886SOL     OW18910   1.708   2.349   2.206 -0.0712 -0.3764 -0.5187
38886SOL    HW118911   1.788   2.300   2.184  0.3249 -0.1749  0.4019
38886SOL    HW218912   1.637   2.287   2.193  0.4561 -1.3575  1.0238
38887SOL     OW18913   9.985   3.479   5.818  0.0037  0.5998  0.3883
38887SOL    HW118914  10.044   3.407   5.797 -1.2465 -0.8844  1.7198
38887SOL    HW218915   9.993   3.539   5.743  0.4908 -1.2858 -1.1572
38888SOL     OW18916   5.186   5.733   8.074  0.3467 -0.2834  0.5171
38888SOL    HW118917   5.270   5.737   8.120  0.0666  0.3423  0.9815
38888SOL    HW218918   5.197   5.663   8.010  0.7628 -1.1347  1.4957
38889SOL     OW18919   8.021   9.643  10.597  0.0207  0.2997  0.0195
38889SOL    HW118920   8.029   9.632  10.503 -0.3420 -0.1568  0.0394
38889SOL    HW218921   8.029   9.738  10.611  2.8219  0.1874 -0.1840
38890SOL     OW18922   7.144   2.298   0.469  0.6271 -0.3722  0.2311
38890SOL    HW118923   7.086   2.230   0.436  2.2896 -1.1414 -1.2287
38890SOL    HW218924   7.086   2.355   0.521 -1.0790 -2.0336  0.2717
38891SOL     OW18925   2.100   5.053   8.366 -0.5481 -0.9641  0.3275
38891SOL    HW118926   2.059   5.114   8.427 -1.4680 -2.2160  1.0317
38891SOL    HW218927   2.092   4.968   8.410  1.7341 -1.4578 -0.0694
38892SOL     OW18928   8.679   6.480   3.322 -0.2891  0.2322 -0.6465
38892SOL    HW118929   8.663   6.456   3.413  1.1638 -0.0258 -0.4327
38892SOL    HW218930   8.615   6.549   3.304 -0.5110  0.3769  0.6051
38893SOL     OW18931   2.193   2.892  10.091  0.2122 -0.2992  0.0987
38893SOL    HW118932   2.216   2.984  10.105  0.8762 -0.7835  3.0972
38893SOL    HW218933   2.099   2.891  10.077 -0.2941  0.7489  2.7839
38894SOL     OW18934   9.462   0.730   8.324 -0.1419 -0.0138  0.1656
38894SOL    HW118935   9.514   0.650   8.337  3.0640  1.8481 -0.2802
38894SOL    HW218936   9.454   0.767   8.412 -0.5982 -0.2087  0.2083
38895SOL     OW18937   5.646   7.516   8.378 -0.4583 -0.1462 -0.3152
38895SOL    HW118938   5.719   7.493   8.320 -0.5444 -0.0014 -0.4810
38895SOL    HW218939   5.605   7.591   8.336 -0.8478 -0.3743 -0.3398
38896SOL     OW18940   1.689   3.240   0.149  0.1520  0.0730 -0.7420
38896SOL    HW118941   1.594   3.232   0.156  0.3116 -3.1618 -0.6812
38896SOL    HW218942   1.714   3.299   0.220 -1.5512 -2.0480  1.7875
38897SOL     OW18943   7.683   9.191   8.994 -0.1648  0.5353  0.0109
38897SOL    HW118944   7.777   9.185   8.979 -0.3039  2.6043 -2.4118
38897SOL    HW218945   7.668   9.283   9.016 -1.4999 -0.0812  2.0045
38898SOL     OW18946   7.918  10.229   9.083 -0.0837 -0.5120 -0.1201
38898SOL    HW118947   7.879  10.258   9.001 -1.9477 -0.6134  0.6930
38898SOL    HW218948   7.925  10.133   9.074  0.8050 -0.4200 -0.5818
38899SOL     OW18949   8.993   2.437   6.862  0.6853  0.2181  0.7611
38899SOL    HW118950   8.988   2.426   6.957  0.6397 -0.2511  0.7057
38899SOL    HW218951   8.990   2.348   6.827 -2.6116  0.4661  0.1425
38900SOL     OW18952   3.029   8.324   5.600 -1.3435 -0.1528  0.1907
38900SOL    HW118953   2.994   8.401   5.646 -1.8766 -0.1820 -0.1574
38900SOL    HW218954   3.033   8.256   5.667  0.1640  0.4650  0.7745
38901SOL     OW18955   0.796   1.374   1.011  0.5369 -0.1060  0.3543
38901SOL    HW118956   0.776   1.297   1.064 -1.2693  1.6245  2.4054
38901SOL    HW218957   0.780   1.345   0.921 -1.3129 -1.8277  1.1430
38902SOL     OW18958   4.406   8.646   5.122 -0.1716 -0.1629  0.2231
38902SOL    HW118959   4.458   8.705   5.067  0.6820  0.9597  2.1350
38902SOL    HW218960   4.370   8.582   5.061  0.7432  0.9936 -1.6244
38903SOL     OW18961   0.118   3.231   0.723  0.5814 -0.0157 -0.3046
38903SOL    HW118962   0.067   3.215   0.643  0.9757 -0.4631 -0.4702
38903SOL    HW218963   0.196   3.177   0.713  0.1891 -0.8464  0.8167
38904SOL     OW18964  10.145   6.721   3.124 -0.5493 -0.2467 -0.4828
38904SOL    HW118965  10.217   6.681   3.173 -0.8069  0.0834  0.1848
38904SOL    HW218966  10.068   6.672   3.151 -0.7417  0.1476 -0.3141
38905SOL     OW18967   6.727   0.016   5.172  0.0154  0.3451 -0.6273
38905SOL    HW118968   6.761  -0.063   5.213 -1.3729 -0.2032 -0.4642
38905SOL    HW218969   6.758   0.088   5.227  1.6838 -0.0293 -1.0495
38906SOL     OW18970   8.289   4.589   8.346 -0.4141  0.6982  0.0395
38906SOL    HW118971   8.288   4.535   8.267 -1.8491  1.5229 -0.5511
38906SOL    HW218972   8.367   4.643   8.337 -0.7682  1.0603 -1.0279
38907SOL     OW18973   9.409   7.000   2.445  0.0456 -0.1808 -0.1159
38907SOL    HW118974   9.461   6.938   2.496  1.8827  0.7198 -0.7969
38907SOL    HW218975   9.406   6.963   2.357  0.8540  0.5023 -0.4417
38908SOL     OW18976   1.783   3.702   4.500  0.2169  0.5166 -0.0798
38908SOL    HW118977   1.760   3.667   4.414  0.9310  0.2020 -0.1574
38908SOL    HW218978   1.713   3.763   4.521  0.6404  1.5387 -1.4344
38909SOL     OW18979   0.382   4.167   9.345  0.1813  0.1474  0.2982
38909SOL    HW118980   0.391   4.119   9.262  1.9240  1.4924 -0.3504
38909SOL    HW218981   0.373   4.259   9.319 -0.1941  0.5023  1.5986
38910SOL     OW18982   8.267   1.493   9.896 -0.1181 -0.2937 -0.0300
38910SOL    HW118983   8.314   1.508   9.978  1.5523  1.0808 -1.1603
38910SOL    HW218984   8.183   1.455   9.923  0.2202  0.4638  2.3197
38911SOL     OW18985   3.521   4.087   9.490  0.4280 -0.0740  0.4722
38911SOL    HW118986   3.535   4.047   9.404 -1.0083  0.3534  0.0076
38911SOL    HW218987   3.592   4.052   9.545  0.8541 -1.0337 -0.6508
38912SOL     OW18988   9.393   3.706   6.710  0.4787  0.4918 -0.8504
38912SOL    HW118989   9.416   3.738   6.798  0.2884 -0.5321 -0.4114
38912SOL    HW218990   9.478   3.690   6.668  0.5863 -0.4426 -0.3033
38913SOL     OW18991   8.628   9.040   7.633 -0.1464  0.0417  0.0998
38913SOL    HW118992   8.555   8.980   7.649  0.3806 -0.5799  0.1870
38913SOL    HW218993   8.661   9.017   7.547 -0.0002  0.2776  0.0905
38914SOL     OW18994   6.400   3.622  10.136  0.3952 -0.1919 -0.3552
38914SOL    HW118995   6.397   3.581  10.050 -1.2297  1.2759 -1.0450
38914SOL    HW218996   6.459   3.696  10.126  0.7961 -0.4593  0.0036
38915SOL     OW18997   4.215   9.722   6.965 -0.4507 -1.4148  0.3161
38915SOL    HW118998   4.198   9.785   7.034 -0.0283  0.3233 -1.0858
38915SOL    HW218999   4.142   9.732   6.904 -0.4226 -2.3700  0.1007
38916SOL     OW19000   6.168   4.704   2.299 -0.0997  0.1794 -0.0712
38916SOL    HW119001   6.133   4.777   2.248  2.5091  1.2162 -0.5581
38916SOL    HW219002   6.138   4.721   2.389 -0.2868  1.3448 -0.3381
38917SOL     OW19003   0.663   6.610   5.568  0.9107  0.3419 -0.2651
38917SOL    HW119004   0.584   6.580   5.524  2.8250 -1.4820 -2.7590
38917SOL    HW219005   0.662   6.705   5.558 -0.7857  0.3204 -0.4904
38918SOL     OW19006   7.469   8.512   2.360  0.5849 -0.0588  0.4583
38918SOL    HW119007   7.387   8.509   2.310  1.0443  1.5967 -0.4769
38918SOL    HW219008   7.525   8.447   2.317  0.6076  0.5989 -0.5555
38919SOL     OW19009   7.929   2.897   2.891 -0.2887 -0.3996 -0.2345
38919SOL    HW119010   7.900   2.882   2.801  0.5084 -2.0182 -0.2604
38919SOL    HW219011   7.975   2.981   2.888  0.3511 -0.7813 -1.4975
38920SOL     OW19012   5.722   7.088   1.694  0.0264  0.0729 -0.3339
38920SOL    HW119013   5.640   7.073   1.647 -0.0330  0.8344 -0.4898
38920SOL    HW219014   5.721   7.025   1.766 -0.8610  0.3230 -0.1270
38921SOL     OW19015   0.016   4.611   7.925  0.3808  0.0686  0.0208
38921SOL    HW119016   0.067   4.538   7.961 -0.5363 -1.6147 -1.9433
38921SOL    HW219017   0.000   4.588   7.834 -1.1516  2.0921 -0.3097
38922SOL     OW19018   2.572   7.342   4.299  0.1233  0.0687 -0.2006
38922SOL    HW119019   2.533   7.401   4.363  1.8318  0.3518  0.6632
38922SOL    HW219020   2.498   7.302   4.254 -1.0969  1.7739  0.1922
38923SOL     OW19021   1.760   1.637   5.295  0.3190 -0.0828  0.4215
38923SOL    HW119022   1.726   1.582   5.225 -0.3147  2.0662 -1.0591
38923SOL    HW219023   1.816   1.579   5.346  0.0696 -1.9629 -1.3181
38924SOL     OW19024   9.848   3.414   1.028  0.2355  0.2301  0.6375
38924SOL    HW119025   9.926   3.370   1.062 -1.0811 -1.5736  1.4986
38924SOL    HW219026   9.874   3.446   0.942  3.0181  2.9824  2.2789
38925SOL     OW19027   1.232   1.840   5.098 -0.2220 -0.0174  0.1640
38925SOL    HW119028   1.321   1.810   5.080 -0.3315 -0.5670  0.5112
38925SOL    HW219029   1.228   1.928   5.060  0.3281 -0.1639 -0.2401
38926SOL     OW19030   6.280   7.760   4.977 -0.3020 -0.0421  0.1523
38926SOL    HW119031   6.197   7.806   4.991  0.7583  1.8763  0.5217
38926SOL    HW219032   6.339   7.798   5.042  0.3183 -3.0244  1.5250
38927SOL     OW19033   3.266   4.250  10.393  0.3174 -0.1432  0.6668
38927SOL    HW119034   3.206   4.215  10.327  0.0651 -0.6573  1.1632
38927SOL    HW219035   3.249   4.198  10.471 -1.3494  2.1764  1.9896
38928SOL     OW19036   5.609   6.307   5.276  0.3700 -0.2103 -0.3377
38928SOL    HW119037   5.702   6.329   5.271  0.1015  0.9922 -0.3771
38928SOL    HW219038   5.603   6.220   5.237  1.4712 -0.2905 -0.3678
38929SOL     OW19039   2.027   7.894   1.092 -0.0840 -0.3663  0.1693
38929SOL    HW119040   2.088   7.913   1.021  0.1086  1.6019  0.7851
38929SOL    HW219041   1.941   7.891   1.050  0.3610 -3.3629 -0.7383
38930SOL     OW19042   8.188   6.264  10.264  0.4059 -0.3799 -0.1581
38930SOL    HW119043   8.107   6.241  10.218  1.5865 -1.6777 -1.6740
38930SOL    HW219044   8.159   6.287  10.352 -1.6270 -0.7336 -0.6820
38931SOL     OW19045   9.717   8.429   3.987 -0.5415  0.2835 -0.0481
38931SOL    HW119046   9.672   8.450   3.906  0.7743  0.0245 -0.8668
38931SOL    HW219047   9.723   8.512   4.034 -0.5550  0.5959 -0.5979
38932SOL     OW19048   1.496   4.166   3.367 -0.1114 -0.0860  0.3849
38932SOL    HW119049   1.401   4.166   3.382 -0.1606  0.4103  0.0813
38932SOL    HW219050   1.505   4.164   3.272  0.1965 -1.4106  0.4252
38933SOL     OW19051   3.240   0.147   9.190  0.0396 -0.0264 -0.3480
38933SOL    HW119052   3.273   0.103   9.269  1.2205  0.5986 -0.4675
38933SOL    HW219053   3.198   0.078   9.139 -0.2579 -0.5409  0.5697
38934SOL     OW19054   0.653   7.142   5.447  0.4655 -1.0108  1.0124
38934SOL    HW119055   0.709   7.192   5.388  0.5893 -1.0587  1.0881
38934SOL    HW219056   0.649   7.195   5.527 -2.3257  0.6743 -0.1175
38935SOL     OW19057   9.040   1.554   9.503 -0.0848  0.4145  0.0099
38935SOL    HW119058   8.996   1.519   9.426 -0.2825  2.3747 -0.8296
38935SOL    HW219059   9.095   1.625   9.469 -0.1073  1.2592  1.6484
38936SOL     OW19060   7.297   8.197   1.202 -0.5722 -0.1448  0.1384
38936SOL    HW119061   7.294   8.113   1.156 -1.7874  0.9342 -1.9124
38936SOL    HW219062   7.236   8.253   1.153 -1.1586  1.4247  2.5074
38937SOL     OW19063   8.439   4.462   7.731 -0.0144  0.2884 -0.2684
38937SOL    HW119064   8.416   4.405   7.657 -0.9741  0.8261 -0.4001
38937SOL    HW219065   8.359   4.468   7.783  1.0478 -1.2942  1.6861
38938SOL     OW19066   7.091   4.730   3.187 -0.2847 -0.3001 -0.8239
38938SOL    HW119067   7.020   4.694   3.239 -0.2699  0.7248 -0.0551
38938SOL    HW219068   7.048   4.781   3.119 -0.2977 -0.3857 -0.8791
38939SOL     OW19069   9.709   7.307   9.579  0.2086 -0.2568  0.6901
38939SOL    HW119070   9.631   7.315   9.524  0.4042  2.4512  0.6916
38939SOL    HW219071   9.745   7.222   9.555 -1.7750 -0.8213 -0.5965
38940SOL     OW19072   6.452   7.925   7.672  0.0368  0.2877  0.5116
38940SOL    HW119073   6.460   7.857   7.605 -1.7605  0.7119 -0.1910
38940SOL    HW219074   6.444   7.877   7.754  0.8223 -0.2881  0.2581
38941SOL     OW19075   4.377   1.872   4.801  0.1585  0.3414  0.0851
38941SOL    HW119076   4.369   1.829   4.715  1.6778 -0.2085  0.2014
38941SOL    HW219077   4.394   1.964   4.780  0.4171  0.2292 -0.2076
38942SOL     OW19078   4.246   9.269   4.844 -0.1881  0.5015  0.1659
38942SOL    HW119079   4.270   9.286   4.935  0.0879 -0.0389  0.1973
38942SOL    HW219080   4.161   9.312   4.833 -0.3707  0.3033  0.7668
38943SOL     OW19081   4.378   7.171   9.218 -0.2123 -0.6546  0.0554
38943SOL    HW119082   4.426   7.165   9.135  0.4483 -0.1938  0.3886
38943SOL    HW219083   4.289   7.195   9.193  0.2978  0.8289 -0.4689
38944SOL     OW19084  10.516   7.288   5.515  0.3487 -0.1846  0.4359
38944SOL    HW119085  10.591   7.340   5.543  1.1899 -0.9100 -0.3860
38944SOL    HW219086  10.555   7.211   5.473 -0.8618 -0.8713  0.5266
38945SOL     OW19087   8.224   8.132   4.424  0.1486 -0.1799  0.7459
38945SOL    HW119088   8.290   8.176   4.478 -0.3359 -0.6921  1.7874
38945SOL    HW219089   8.149   8.191   4.425  0.7114  0.6303 -0.8332
38946SOL     OW19090   7.271   4.187   8.872  0.1140  0.3166  0.1914
38946SOL    HW119091   7.240   4.096   8.869  0.4972  0.0189  2.6947
38946SOL    HW219092   7.194   4.238   8.893  0.4689  0.0784  2.3009
38947SOL     OW19093   9.465   6.166   5.043 -0.5628  0.3825 -0.1622
38947SOL    HW119094   9.526   6.237   5.061 -0.3004  0.3684 -0.9596
38947SOL    HW219095   9.387   6.210   5.007 -0.2996  0.2531 -0.9034
38948SOL     OW19096   7.285   4.149   9.681 -0.0988 -0.0480  0.1164
38948SOL    HW119097   7.250   4.164   9.769  1.2455 -1.0003  0.8372
38948SOL    HW219098   7.223   4.088   9.641  0.6287 -1.6703  1.3598
38949SOL     OW19099   1.620   6.233   5.147 -0.8064  0.1518  0.3640
38949SOL    HW119100   1.560   6.160   5.159 -3.7153  2.4117  0.6852
38949SOL    HW219101   1.707   6.194   5.153 -2.1748 -3.3128  0.0014
38950SOL     OW19102   7.016   9.522   0.026  0.4987 -0.6711  0.1839
38950SOL    HW119103   6.980   9.483  -0.053  2.9121 -0.2778 -1.1993
38950SOL    HW219104   7.036   9.613   0.001  0.2255 -0.2005  1.5993
38951SOL     OW19105   3.375   0.318   7.656  0.0424 -0.5641  0.0246
38951SOL    HW119106   3.325   0.395   7.683 -0.1543 -1.4840  2.5382
38951SOL    HW219107   3.466   0.339   7.678 -0.0074 -1.0211  0.6792
38952SOL     OW19108   1.687   9.401   0.368  0.7031 -0.2446  0.1033
38952SOL    HW119109   1.782   9.393   0.378  0.6569 -0.6037  0.2681
38952SOL    HW219110   1.670   9.495   0.372  0.9351 -0.2407  1.2130
38953SOL     OW19111   7.029   1.784   4.586  0.6372 -0.1420 -0.0594
38953SOL    HW119112   7.044   1.820   4.499 -1.0245 -0.6739 -0.6124
38953SOL    HW219113   7.113   1.794   4.631  1.4796  0.3201 -1.6458
38954SOL     OW19114   1.124   5.696   6.245  0.4842 -0.1027 -0.5004
38954SOL    HW119115   1.110   5.688   6.340 -0.7597 -0.4198 -0.6849
38954SOL    HW219116   1.058   5.760   6.217  1.3798  0.6006 -1.0417
38955SOL     OW19117   1.305   1.138   1.323 -0.0310  0.0672 -0.5033
38955SOL    HW119118   1.291   1.186   1.241  0.8532  1.2390 -0.0021
38955SOL    HW219119   1.251   1.186   1.387  1.9891  1.3818  0.3214
38956SOL     OW19120   6.798   8.751   1.208  0.0637 -0.3242  0.0098
38956SOL    HW119121   6.787   8.838   1.168 -1.4325  0.0161  1.0586
38956SOL    HW219122   6.826   8.770   1.298 -2.2152 -0.7856  0.8812
38957SOL     OW19123   7.998  10.205   2.697 -0.0882 -0.2117 -0.1997
38957SOL    HW119124   8.052  10.163   2.764 -0.1350  0.6149  0.3692
38957SOL    HW219125   8.031  10.294   2.692  0.1455 -0.3520 -1.5448
38958SOL     OW19126  10.260   6.780  10.114 -0.1730 -0.1694  0.0148
38958SOL    HW119127  10.291   6.773  10.205  2.2034 -1.7674 -0.7958
38958SOL    HW219128  10.319   6.844  10.074 -0.8943  0.1573 -0.5462
38959SOL     OW19129   4.850   9.616   3.417 -0.2719 -0.3644  0.7087
38959SOL    HW119130   4.925   9.572   3.376  0.0682 -0.2787  1.2239
38959SOL    HW219131   4.781   9.613   3.351  0.2090 -0.3841  0.1988
38960SOL     OW19132   1.921   7.748   3.297  0.3789  0.1917  0.1156
38960SOL    HW119133   1.857   7.679   3.308  1.4198 -0.9455 -0.6979
38960SOL    HW219134   1.872   7.821   3.260 -0.2796 -1.0049 -1.4875
38961SOL     OW19135   0.519   8.168   1.276  0.0146 -0.1310  0.3189
38961SOL    HW119136   0.564   8.246   1.244 -0.9005  1.1246  1.9302
38961SOL    HW219137   0.426   8.185   1.259 -0.0489 -2.1009 -1.7652
38962SOL     OW19138  10.582   2.635   7.842 -0.0073 -0.1019 -0.1845
38962SOL    HW119139  10.621   2.650   7.929  0.7710 -0.1290 -0.5202
38962SOL    HW219140  10.521   2.708   7.831 -0.8962 -0.6578  0.8126
38963SOL     OW19141   4.726   9.022   7.735  0.6096 -0.1803 -0.2568
38963SOL    HW119142   4.813   8.984   7.721  1.9805  2.7965 -0.5122
38963SOL    HW219143   4.740   9.090   7.801 -1.7862 -0.3658  0.5336
38964SOL     OW19144   1.763   6.151   8.923 -0.4778 -0.0504  0.2172
38964SOL    HW119145   1.825   6.095   8.877  1.7772  0.5168  2.3627
38964SOL    HW219146   1.741   6.219   8.860 -0.9039 -1.5868 -1.4020
38965SOL     OW19147   7.568   7.646   7.118 -0.2905  0.6464  0.1138
38965SOL    HW119148   7.654   7.673   7.150 -0.5262  1.5332  0.0418
38965SOL    HW219149   7.563   7.685   7.030 -0.8465  0.7672  0.2012
38966SOL     OW19150   9.989   3.627   0.830 -0.4527 -0.1744  0.3801
38966SOL    HW119151  10.020   3.546   0.790 -0.4337 -0.0438  0.1305
38966SOL    HW219152  10.066   3.685   0.830 -1.0024  0.6262 -1.4477
38967SOL     OW19153   5.514   4.626   9.751 -0.3795 -0.2065  0.3395
38967SOL    HW119154   5.604   4.652   9.732 -0.7032  1.2768  0.6761
38967SOL    HW219155   5.497   4.552   9.693  0.4471  0.6845 -1.0890
38968SOL     OW19156   8.376  10.637   1.216  0.8683  0.1242 -0.4297
38968SOL    HW119157   8.356  10.646   1.309  0.0574 -1.7293 -0.3691
38968SOL    HW219158   8.408  10.547   1.207 -1.8258 -0.7912 -2.3182
38969SOL     OW19159   0.845   0.804   6.996 -0.8970 -0.7084 -0.2077
38969SOL    HW119160   0.870   0.894   6.973 -1.1038 -0.2922  1.0626
38969SOL    HW219161   0.929   0.758   7.006 -0.6816 -0.0910  1.1496
38970SOL     OW19162   4.915   3.566   9.446 -0.4603 -0.4685  0.3905
38970SOL    HW119163   4.822   3.543   9.449 -0.7531  0.4448 -0.9581
38970SOL    HW219164   4.959   3.483   9.427 -1.0769 -0.7507  0.1729
38971SOL     OW19165   7.679   3.705   4.425 -0.3684 -0.2060 -0.3521
38971SOL    HW119166   7.756   3.686   4.479  1.9059  0.0549 -3.2509
38971SOL    HW219167   7.655   3.621   4.387  2.0016  0.3577 -3.5745
38972SOL     OW19168   9.399   3.192   7.228  0.8041  0.2767 -0.1467
38972SOL    HW119169   9.456   3.252   7.277 -0.6816  1.1581  0.5584
38972SOL    HW219170   9.377   3.124   7.291 -0.5722  1.0586  0.2697
38973SOL     OW19171  10.475   7.073   9.854 -0.2410 -0.0296 -0.2304
38973SOL    HW119172  10.496   7.047   9.764 -0.9585  1.6379 -0.9233
38973SOL    HW219173  10.464   7.168   9.850  0.2771  0.1636  1.7548
38974SOL     OW19174   8.638  10.315   4.595  0.3014  0.0428  0.2840
38974SOL    HW119175   8.563  10.374   4.587 -0.8555 -1.5421 -1.3219
38974SOL    HW219176   8.691  10.332   4.517  1.1321  0.5059  0.9430
38975SOL     OW19177   1.873   7.041   1.941 -0.1465 -0.3923  0.2192
38975SOL    HW119178   1.866   7.076   2.030  1.7394  1.4331 -0.2560
38975SOL    HW219179   1.795   6.987   1.930 -0.9096  0.0837  2.6424
38976SOL     OW19180   4.869   9.108   2.652 -0.4320 -0.3288  0.2688
38976SOL    HW119181   4.817   9.038   2.691 -0.6135 -1.4124 -1.8113
38976SOL    HW219182   4.869   9.089   2.558 -0.3672  2.3747 -0.3637
38977SOL     OW19183   1.753   6.175   1.011 -0.1416 -0.0861 -0.4303
38977SOL    HW119184   1.688   6.209   0.950 -0.9233  0.7337  0.8020
38977SOL    HW219185   1.822   6.139   0.956 -2.6317 -3.1446 -1.9193
38978SOL     OW19186   1.502   8.476   3.629 -0.5637  0.3749  0.4351
38978SOL    HW119187   1.528   8.543   3.566  0.1526  0.7433  1.1109
38978SOL    HW219188   1.548   8.397   3.600  0.5787  0.7897  1.0661
38979SOL     OW19189   8.286   2.102   6.873 -0.1098  0.4331  0.5216
38979SOL    HW119190   8.313   2.021   6.831 -0.4289  0.1620  0.8263
38979SOL    HW219191   8.291   2.083   6.967 -0.1576  0.7739  0.5947
38980SOL     OW19192   0.269   7.750   1.494 -0.2129  0.0028  0.5458
38980SOL    HW119193   0.305   7.761   1.406  0.2768  0.1023  0.7528
38980SOL    HW219194   0.201   7.817   1.501 -1.1374 -0.8203 -0.2002
38981SOL     OW19195   3.717   4.215   3.977  0.4150  0.6224  0.0629
38981SOL    HW119196   3.635   4.166   3.989  0.5212 -0.3032 -2.4695
38981SOL    HW219197   3.775   4.181   4.045 -0.6664 -0.1680  0.6254
38982SOL     OW19198   2.972   5.425   7.450  0.4001  0.0841  0.1559
38982SOL    HW119199   3.009   5.504   7.410  2.6899 -0.2536  1.4430
38982SOL    HW219200   3.037   5.357   7.433 -1.3209 -1.4671 -0.5383
38983SOL     OW19201   4.123   3.165   5.972 -0.6775  0.5466  0.0654
38983SOL    HW119202   4.045   3.164   6.027  0.0904  0.2954  1.2003
38983SOL    HW219203   4.190   3.121   6.025  0.3456  1.1370 -0.6939
38984SOL     OW19204   1.029   7.498   3.387 -0.6173  0.2617 -0.0466
38984SOL    HW119205   0.988   7.425   3.433  0.8875 -0.2990  0.4717
38984SOL    HW219206   0.959   7.564   3.379 -1.7879 -0.9174  0.1455
38985SOL     OW19207   8.529   5.487   7.305  0.2203  0.4495  0.3452
38985SOL    HW119208   8.561   5.424   7.240 -0.5486 -1.2997  1.5983
38985SOL    HW219209   8.592   5.560   7.300  0.6355  0.0072 -1.7533
38986SOL     OW19210   6.053   6.870   8.023  0.5564  0.6922 -0.3182
38986SOL    HW119211   6.043   6.804   8.091 -1.7023 -0.1785 -1.4119
38986SOL    HW219212   6.050   6.822   7.941  1.0377  1.9382 -1.1005
38987SOL     OW19213   7.819   2.991   9.581 -0.4725  0.0467 -0.1485
38987SOL    HW119214   7.826   2.942   9.499 -0.3598  1.1767 -0.8261
38987SOL    HW219215   7.748   2.946   9.629 -0.9221 -0.2890 -1.0960
38988SOL     OW19216   0.639   2.554   9.933 -0.0900 -0.0797 -0.1148
38988SOL    HW119217   0.678   2.634   9.898  0.7214 -1.1948 -1.8984
38988SOL    HW219218   0.590   2.583  10.010  1.7314  1.8431  0.4233
38989SOL     OW19219   6.343   8.997   3.060  0.0688 -0.5114 -0.3323
38989SOL    HW119220   6.295   9.079   3.057  0.5798  0.1073  3.6991
38989SOL    HW219221   6.434   9.022   3.070  0.5471 -1.6467 -1.4676
38990SOL     OW19222   0.031  10.631   4.170  0.0230 -0.1472 -0.1441
38990SOL    HW119223   0.115  10.663   4.204 -0.0997 -1.9361  2.0508
38990SOL    HW219224   0.031  10.537   4.188 -1.2473 -0.7732 -2.8301
38991SOL     OW19225   9.023   7.335   1.740  0.0890  0.0831 -0.1981
38991SOL    HW119226   8.977   7.415   1.765  1.1244  0.3348  0.9583
38991SOL    HW219227   8.957   7.266   1.748 -1.1627  0.9021 -2.3417
38992SOL     OW19228   9.883   2.378   5.188 -0.7314  0.3071 -0.7053
38992SOL    HW119229   9.816   2.311   5.175 -0.9539  0.3472  0.1674
38992SOL    HW219230   9.934   2.378   5.107 -2.6181  1.2274 -1.9660
38993SOL     OW19231   7.911   3.890   3.762 -0.4338 -0.6803  0.0633
38993SOL    HW119232   7.826   3.898   3.719  0.2332 -0.4392 -1.2439
38993SOL    HW219233   7.938   3.800   3.745 -0.1581 -0.5763 -0.0572
38994SOL     OW19234   2.418   4.014   1.817 -0.3221 -0.2406  0.2101
38994SOL    HW119235   2.475   4.065   1.875  0.4498  0.2227 -0.9155
38994SOL    HW219236   2.458   3.927   1.815 -0.7121 -0.4444  0.8484
38995SOL     OW19237   6.919   3.831   2.813  0.2962 -0.0991  0.1647
38995SOL    HW119238   6.983   3.767   2.782 -1.2012 -2.1030  0.9869
38995SOL    HW219239   6.856   3.779   2.864 -2.1539  1.6771 -0.8572
38996SOL     OW19240   2.072   9.401   4.292 -0.1294 -0.1186  0.4333
38996SOL    HW119241   2.154   9.388   4.340 -0.8635  1.3136  2.1829
38996SOL    HW219242   2.083   9.486   4.249 -0.9417  0.4058  1.2421
38997SOL     OW19243   1.401   7.068   8.605  0.2187 -0.1584  0.1634
38997SOL    HW119244   1.354   7.132   8.659  0.9093 -0.5299  1.2549
38997SOL    HW219245   1.366   6.983   8.633  0.9978 -0.3903  0.4482
38998SOL     OW19246   6.529   4.132   2.285  0.3603  0.0067 -0.5224
38998SOL    HW119247   6.475   4.083   2.347  1.1771  0.1587  0.3214
38998SOL    HW219248   6.618   4.101   2.300  0.3805 -1.3589 -2.9400
38999SOL     OW19249   1.788   6.606   1.755 -0.2009 -0.0584  0.1754
38999SOL    HW119250   1.702   6.594   1.715 -0.0994 -0.9859  0.2137
38999SOL    HW219251   1.835   6.525   1.737  0.9913  0.7799 -0.6135
39000SOL     OW19252   6.400   0.445   6.126 -0.5597  0.0911  0.4048
39000SOL    HW119253   6.423   0.374   6.066  0.7844 -0.3481  1.3799
39000SOL    HW219254   6.326   0.489   6.085 -0.4652 -0.9611 -0.9472
39001SOL     OW19255   0.422   2.226   2.435 -0.3893  0.0005  0.1634
39001SOL    HW119256   0.395   2.143   2.395 -2.6992  0.4256  0.7196
39001SOL    HW219257   0.360   2.239   2.507 -0.3802  2.4464 -0.2043
39002SOL     OW19258   7.647  10.227   3.370  0.2830 -0.4962  0.1564
39002SOL    HW119259   7.700  10.173   3.430  1.0263  0.7564  0.6681
39002SOL    HW219260   7.616  10.299   3.424 -0.4763 -0.2599 -0.5803
39003SOL     OW19261   0.389   6.736   6.171  0.3743  0.2358  0.2699
39003SOL    HW119262   0.392   6.814   6.226  0.5592  1.0055 -0.8017
39003SOL    HW219263   0.466   6.742   6.115  0.3198 -0.6495  0.0777
39004SOL     OW19264   7.169   5.656   1.986 -0.1569  0.2737  0.2644
39004SOL    HW119265   7.161   5.706   2.067 -0.0138 -0.0546  0.4819
39004SOL    HW219266   7.202   5.571   2.013  0.8107  0.4753 -0.2439
39005SOL     OW19267   5.469   0.312   8.715  0.1483 -0.1912  0.2434
39005SOL    HW119268   5.447   0.239   8.656  2.0086 -0.2262 -0.4597
39005SOL    HW219269   5.556   0.340   8.688 -0.1462  1.7305  1.0997
39006SOL     OW19270   5.172   3.095   7.571  0.3006 -0.1596  0.0982
39006SOL    HW119271   5.109   3.151   7.527  0.8616  0.4348  0.0347
39006SOL    HW219272   5.123   3.016   7.593 -0.7847  0.7446  1.0817
39007SOL     OW19273   0.744   4.586   3.682 -0.3159 -0.4556  0.6308
39007SOL    HW119274   0.711   4.669   3.718 -0.7762 -0.8846  1.2397
39007SOL    HW219275   0.731   4.594   3.588  1.2900  0.8683  0.4739
39008SOL     OW19276  10.312   0.179   5.333  0.1260 -0.0456  0.0385
39008SOL    HW119277  10.317   0.270   5.305 -0.2793 -0.1980 -0.5446
39008SOL    HW219278  10.387   0.167   5.391  0.7591  0.3759 -0.6843
39009SOL     OW19279   7.514   0.090   9.634  0.0758 -0.2030  0.3126
39009SOL    HW119280   7.595   0.129   9.667  0.1943  0.1169 -0.3411
39009SOL    HW219281   7.467   0.061   9.713  1.6512 -2.0748  0.6204
39010SOL     OW19282   5.153   5.808   2.720  0.0272  0.3555  0.3914
39010SOL    HW119283   5.141   5.892   2.675  1.1167  1.2859  1.7357
39010SOL    HW219284   5.065   5.785   2.750 -0.4310  0.5648 -0.7169
39011SOL     OW19285   0.620   2.860   1.415  0.1463  0.5540  0.1110
39011SOL    HW119286   0.650   2.776   1.381  0.3560  1.2713 -1.5569
39011SOL    HW219287   0.574   2.900   1.341 -0.4791  1.6582  1.0717
39012SOL     OW19288   7.822   5.731   4.356  0.2184 -0.8066 -0.1774
39012SOL    HW119289   7.909   5.747   4.321  0.2981 -0.6057  0.1106
39012SOL    HW219290   7.834   5.728   4.451  0.4329 -3.9484 -0.2305
39013SOL     OW19291   2.114   8.036   1.609 -0.2419 -0.2601 -0.2493
39013SOL    HW119292   2.209   8.050   1.601 -0.5214  2.1198 -0.1856
39013SOL    HW219293   2.095   8.055   1.701 -0.8082 -0.5188 -0.3090
39014SOL     OW19294   3.055   4.412   9.037  0.6786 -0.0642  0.4220
39014SOL    HW119295   3.111   4.485   9.012 -0.5975  1.6103  2.0967
39014SOL    HW219296   2.973   4.428   8.991 -0.4512  1.0462  2.6277
39015SOL     OW19297   4.661   0.263   0.384 -0.3136  0.8485  0.3470
39015SOL    HW119298   4.747   0.282   0.421  0.6866  0.7162 -1.7420
39015SOL    HW219299   4.649   0.169   0.396 -0.0863  0.8404  0.4983
39016SOL     OW19300   8.351   1.282   6.462  0.0624 -0.0863 -0.4109
39016SOL    HW119301   8.354   1.224   6.387 -0.8698 -1.3890  0.5052
39016SOL    HW219302   8.259   1.306   6.471  0.1236 -0.1077  0.4172
39017SOL     OW19303   8.823   1.529   5.414 -1.1748 -0.4286 -0.3656
39017SOL    HW119304   8.792   1.540   5.324  0.4750 -0.7542 -1.0230
39017SOL    HW219305   8.803   1.612   5.457  0.1085  0.6577 -1.7346
39018SOL     OW19306   3.673   1.328   6.076 -0.4476 -0.3405 -0.4862
39018SOL    HW119307   3.680   1.233   6.073 -1.7078 -0.4454 -1.0806
39018SOL    HW219308   3.580   1.344   6.094 -0.7509  0.7642 -2.6878
39019SOL     OW19309   5.051  10.007   3.193  0.3563  0.0487  0.2245
39019SOL    HW119310   5.102   9.930   3.167  0.1195  0.3538 -1.2391
39019SOL    HW219311   4.963   9.990   3.159 -0.3170 -0.0717  1.9452
39020SOL     OW19312   3.809   5.694   1.530 -0.2714  0.0938  0.1749
39020SOL    HW119313   3.886   5.744   1.503 -0.5971 -0.1184 -1.2460
39020SOL    HW219314   3.737   5.729   1.476 -1.0802 -0.0224  1.1405
39021SOL     OW19315   5.080   5.211   3.548  0.7615 -0.0886 -0.0491
39021SOL    HW119316   5.164   5.234   3.587  1.6154  0.1648 -1.9711
39021SOL    HW219317   5.039   5.295   3.527 -0.2418 -0.1927  1.3449
39022SOL     OW19318   0.568   2.185   6.075 -0.0771 -0.3885 -0.6217
39022SOL    HW119319   0.581   2.090   6.076  0.4850 -0.3880  2.4489
39022SOL    HW219320   0.484   2.199   6.119  0.6109  0.5657  0.4459
39023SOL     OW19321   8.347   0.026   8.091 -0.0327 -0.1109  0.0142
39023SOL    HW119322   8.394  -0.050   8.125  0.5042  0.3425  0.3026
39023SOL    HW219323   8.364   0.025   7.997  1.1834  0.4677  0.2127
39024SOL     OW19324   8.151   0.834   6.446  0.2527 -0.4383 -0.1015
39024SOL    HW119325   8.195   0.749   6.454 -0.4710 -0.7962  0.1639
39024SOL    HW219326   8.196   0.890   6.509  0.6463 -0.6561 -0.1822
39025SOL     OW19327   4.981   6.803   5.438 -0.3437 -0.3577  0.4265
39025SOL    HW119328   5.056   6.823   5.383 -0.5004 -2.3843 -0.6110
39025SOL    HW219329   4.986   6.867   5.509  1.5189  0.4736 -0.3811
39026SOL     OW19330   2.897   4.833  10.025 -0.4029 -0.1311 -0.0465
39026SOL    HW119331   2.857   4.861   9.942  1.2235  0.8008 -0.5692
39026SOL    HW219332   2.826   4.836  10.088 -1.3878  0.4549 -1.1350
39027SOL     OW19333   1.715   9.814   0.968 -0.2154 -0.5787 -0.7790
39027SOL    HW119334   1.781   9.747   0.982  0.4041 -0.2667 -2.0553
39027SOL    HW219335   1.722   9.836   0.875  0.2043  1.8888 -0.2235
39028SOL     OW19336   9.042   8.975   2.649 -0.4854  0.2326  0.2940
39028SOL    HW119337   8.951   9.003   2.638 -0.8888 -0.8908  0.6581
39028SOL    HW219338   9.037   8.880   2.657  0.8658 -0.0077 -1.2334
39029SOL     OW19339   1.739   7.953   2.383  0.1738 -0.7584 -0.2140
39029SOL    HW119340   1.768   8.034   2.341  0.6978  1.3245  3.6699
39029SOL    HW219341   1.649   7.970   2.408  0.3213 -1.3065  0.7487
39030SOL     OW19342   2.276   8.072   6.447 -0.5437  0.5871  0.6557
39030SOL    HW119343   2.306   8.151   6.492 -1.8939  1.7761 -0.4507
39030SOL    HW219344   2.214   8.031   6.507 -0.5058  0.8464  0.8691
39031SOL     OW19345   5.924   2.302   8.646 -0.5274  0.1045 -0.5282
39031SOL    HW119346   5.949   2.267   8.560 -1.9170 -0.9626 -0.5278
39031SOL    HW219347   5.828   2.301   8.645 -0.5612  1.1998  0.5962
39032SOL     OW19348   3.535   0.422   5.138 -0.1762 -0.2707  0.3639
39032SOL    HW119349   3.580   0.489   5.189 -1.6779 -0.1921  1.6579
39032SOL    HW219350   3.474   0.381   5.200 -0.3410 -1.8418 -0.7627
39033SOL     OW19351   1.493   5.701   0.839 -0.6067 -0.8406 -0.7814
39033SOL    HW119352   1.429   5.631   0.840 -0.6897 -0.7865 -1.6011
39033SOL    HW219353   1.459   5.766   0.901 -1.2627 -0.8804 -1.0954
39034SOL     OW19354   2.044   6.520   7.044  0.1577  0.0803 -0.1724
39034SOL    HW119355   1.981   6.450   7.059  1.0712 -0.6560  0.3957
39034SOL    HW219356   2.100   6.488   6.973  2.4229 -1.1637  1.9950
39035SOL     OW19357   0.840   9.335   4.991 -0.6560 -0.2059  0.8750
39035SOL    HW119358   0.757   9.378   4.974  0.0703  0.1621 -2.5924
39035SOL    HW219359   0.866   9.298   4.906  1.7053 -2.1832  2.2917
39036SOL     OW19360   1.810   6.249  10.195 -0.3789  0.5221  0.0220
39036SOL    HW119361   1.715   6.242  10.205 -0.3911  0.4945 -0.1144
39036SOL    HW219362   1.842   6.160  10.208 -0.6203 -0.0375 -2.6891
39037SOL     OW19363   7.098   4.424   2.544 -0.0307  0.5765 -0.2839
39037SOL    HW119364   7.113   4.482   2.618  2.2199  0.0983 -0.2886
39037SOL    HW219365   7.074   4.340   2.584  0.3948  0.5308 -0.1175
39038SOL     OW19366   4.278   7.365   1.781 -0.1116 -0.2472 -0.5271
39038SOL    HW119367   4.321   7.302   1.723 -0.5646 -0.9098 -0.1545
39038SOL    HW219368   4.305   7.451   1.748  0.1899 -0.6300 -1.2892
39039SOL     OW19369   9.475   9.050   9.030  0.6001  0.4812  0.1891
39039SOL    HW119370   9.453   8.958   9.011 -1.0632  0.8830 -0.0174
39039SOL    HW219371   9.471   9.057   9.125  2.4857 -0.0378  0.3424
39040SOL     OW19372   6.108   2.615   6.968  0.5550 -0.5601 -0.0640
39040SOL    HW119373   6.075   2.555   7.035  2.0370  0.5826  1.8179
39040SOL    HW219374   6.038   2.678   6.956 -0.9393 -2.4405 -1.9182
39041SOL     OW19375   3.541   8.453   2.061 -0.4753  0.1905  0.2042
39041SOL    HW119376   3.570   8.496   1.980 -1.4184 -0.9969 -0.8166
39041SOL    HW219377   3.570   8.511   2.131  1.7403  0.5047 -0.8815
39042SOL     OW19378   8.960   6.240   7.837 -0.1881 -0.0878  0.0406
39042SOL    HW119379   8.940   6.255   7.744 -0.8534 -0.9440  0.0319
39042SOL    HW219380   8.887   6.187   7.869  0.5635 -0.6977  0.7927
39043SOL     OW19381   6.933   0.518  10.129 -0.5411 -0.0762 -0.7925
39043SOL    HW119382   7.007   0.544  10.184 -0.2952 -0.9990 -0.6547
39043SOL    HW219383   6.867   0.585  10.143 -0.9442 -0.8691  1.5721
39044SOL     OW19384   3.362   1.127   7.229 -0.3928  0.1692 -0.2650
39044SOL    HW119385   3.361   1.052   7.169  1.5802 -1.0926  1.1727
39044SOL    HW219386   3.450   1.127   7.267 -1.0152  1.9535  1.3570
39045SOL     OW19387   2.257   8.022   4.190 -0.0053 -0.1421 -0.4160
39045SOL    HW119388   2.253   8.097   4.249 -0.8461 -0.4857 -0.0289
39045SOL    HW219389   2.172   8.021   4.146  0.7854  0.4224 -2.0455
39046SOL     OW19390   3.108  10.384   2.210 -0.2742 -0.1253  0.9227
39046SOL    HW119391   3.149  10.469   2.224  0.7506  0.3319 -3.2941
39046SOL    HW219392   3.015  10.400   2.222  0.0461  1.0746  2.0574
39047SOL     OW19393   3.804   3.997   6.334 -0.4279 -0.1907 -0.3849
39047SOL    HW119394   3.731   4.049   6.367  1.4731  2.4531  0.0215
39047SOL    HW219395   3.830   3.943   6.408 -1.0223 -0.0155 -0.0447
39048SOL     OW19396   9.916   6.116   7.088 -0.5943 -0.6900 -0.1422
39048SOL    HW119397   9.936   6.058   7.161 -1.4800 -0.5427  0.2235
39048SOL    HW219398   9.824   6.101   7.069 -1.1468  1.3365  0.6464
39049SOL     OW19399   8.959   7.951   4.140  0.1520 -0.4323 -0.1619
39049SOL    HW119400   8.991   8.023   4.194 -0.5264 -0.1629 -0.1063
39049SOL    HW219401   8.869   7.938   4.169 -0.1601 -0.4088 -1.0967
39050SOL     OW19402   1.040   8.254   0.243  0.2029 -0.3718  0.1554
39050SOL    HW119403   0.957   8.226   0.203  0.3992 -1.6941  0.6256
39050SOL    HW219404   1.025   8.346   0.267 -0.8054 -0.3239 -0.5910
39051SOL     OW19405   9.372   5.392   3.217 -0.4286  0.2462 -0.0148
39051SOL    HW119406   9.302   5.360   3.161 -1.1854  1.1077  0.4081
39051SOL    HW219407   9.385   5.483   3.189  0.4222  0.1482  0.0197
39052SOL     OW19408   7.238   3.746   5.536 -0.2431 -0.1603 -0.0849
39052SOL    HW119409   7.325   3.708   5.526  0.4284  1.3176 -0.1434
39052SOL    HW219410   7.215   3.777   5.448 -0.3347  0.4221  0.1353
39053SOL     OW19411   7.018  10.511  10.162  0.6364 -0.2861 -0.4508
39053SOL    HW119412   6.935  10.541  10.198  1.2164 -0.6581  1.2608
39053SOL    HW219413   7.043  10.436  10.216  2.2415  0.0114 -0.7047
39054SOL     OW19414   5.946   0.033   7.469  0.1910 -0.2369 -0.0641
39054SOL    HW119415   5.971  -0.056   7.494  1.4133  0.5717  1.8217
39054SOL    HW219416   5.904   0.069   7.548  1.1858  1.3576 -0.2187
39055SOL     OW19417   3.775   5.910   5.575  0.4072 -0.4620  0.4014
39055SOL    HW119418   3.715   5.946   5.509 -1.8022 -0.4292  2.2790
39055SOL    HW219419   3.799   5.986   5.629 -0.1809 -0.9198  1.3396
39056SOL     OW19420   1.312   2.337   8.364  0.2751 -0.3599 -0.5155
39056SOL    HW119421   1.297   2.251   8.325  0.2003 -0.6425  0.1181
39056SOL    HW219422   1.351   2.318   8.449 -0.3697  0.2041 -0.0799
39057SOL     OW19423   3.605   3.409   9.705 -0.3413  0.1005  0.1769
39057SOL    HW119424   3.555   3.489   9.694 -0.4553  0.0299  0.1817
39057SOL    HW219425   3.540   3.343   9.728 -0.3098 -0.1006 -0.3083
39058SOL     OW19426   1.126   8.898   4.976  0.8401 -0.1022  0.2992
39058SOL    HW119427   1.205   8.919   5.026  0.7092 -2.1361  1.4536
39058SOL    HW219428   1.055   8.903   5.040 -0.0538  1.9851 -0.7927
39059SOL     OW19429   1.289   3.299   1.989  0.1015  0.1686  0.1293
39059SOL    HW119430   1.307   3.214   2.029  1.6353  0.7873  0.8560
39059SOL    HW219431   1.339   3.362   2.042  3.3024  0.9312 -3.3440
39060SOL     OW19432   4.448   0.864  10.071 -0.6050 -0.4195 -0.0320
39060SOL    HW119433   4.378   0.926  10.049 -1.1608 -1.5513 -1.6891
39060SOL    HW219434   4.402   0.782  10.089  0.2518 -1.0134 -0.4695
39061SOL     OW19435  10.468   6.041   5.590  0.1346 -0.3515  0.0684
39061SOL    HW119436  10.514   6.067   5.671  0.6751 -0.3977 -0.2181
39061SOL    HW219437  10.538   6.033   5.525 -0.3559  0.1865 -0.5332
39062SOL     OW19438   3.153  10.403   3.734  0.0542 -0.2535  0.5196
39062SOL    HW119439   3.126  10.480   3.683  0.8215 -0.4547 -0.2136
39062SOL    HW219440   3.110  10.330   3.690  0.7229 -0.4281  0.1358
39063SOL     OW19441   6.003   4.704   5.493 -0.4593 -0.1381 -0.0725
39063SOL    HW119442   6.077   4.759   5.519 -1.4081  1.2457 -0.2463
39063SOL    HW219443   5.933   4.765   5.473 -1.6416 -1.4251 -0.0086
39064SOL     OW19444   6.947   5.039  10.637  0.1533  0.1114 -0.2478
39064SOL    HW119445   6.931   5.069  10.547  1.1646  0.3834 -0.3421
39064SOL    HW219446   7.041   5.025  10.642 -0.0784 -1.4947  0.2907
39065SOL     OW19447   3.358   2.289   0.554 -0.3033 -0.1747  0.3070
39065SOL    HW119448   3.364   2.304   0.648  0.4062 -1.5695  0.5177
39065SOL    HW219449   3.279   2.336   0.526  0.1356  1.2385  1.3713
39066SOL     OW19450   3.320   1.344   1.604  0.4213 -0.2071  0.0053
39066SOL    HW119451   3.409   1.320   1.630  0.3265  2.3091  3.2579
39066SOL    HW219452   3.267   1.268   1.629  1.3977 -1.0379 -0.3580
39067SOL     OW19453   8.670   9.183   0.898  1.1507  0.1761  0.1861
39067SOL    HW119454   8.657   9.278   0.909  1.4589  0.3659 -0.9449
39067SOL    HW219455   8.711   9.175   0.812  1.0929 -0.9988  0.2586
39068SOL     OW19456   2.178   0.539   8.978  0.2758  0.2564 -0.6227
39068SOL    HW119457   2.233   0.507   8.907  1.0957 -1.4052  0.7100
39068SOL    HW219458   2.161   0.462   9.032 -1.2132  1.2630  0.4233
39069SOL     OW19459   0.425   4.373   5.392  0.0368  0.5221  0.2688
39069SOL    HW119460   0.439   4.447   5.333  2.0423 -0.0962 -0.1182
39069SOL    HW219461   0.461   4.402   5.476  2.4981 -0.5281 -0.3221
39070SOL     OW19462   9.886   4.546   1.395 -0.7042  0.2642  0.1265
39070SOL    HW119463   9.831   4.468   1.399 -0.9490  0.3030 -1.6722
39070SOL    HW219464   9.825   4.619   1.407 -0.5900  0.2342  1.0048
39071SOL     OW19465   4.609   3.344   5.834 -0.2484 -0.1232 -1.0850
39071SOL    HW119466   4.580   3.423   5.879 -0.3274 -0.4572 -0.5331
39071SOL    HW219467   4.686   3.315   5.883 -0.1939 -0.3606 -1.3077
39072SOL     OW19468   1.020   6.102   5.980 -0.3133 -0.0189 -0.2054
39072SOL    HW119469   0.926   6.113   5.998 -0.6468 -1.9984 -0.4688
39072SOL    HW219470   1.024   6.078   5.888  0.5786  1.1870 -0.4959
39073SOL     OW19471   0.797   8.290  10.326  0.0007 -0.6174 -0.0423
39073SOL    HW119472   0.871   8.260  10.378  0.7457 -1.3006 -1.4415
39073SOL    HW219473   0.836   8.343  10.256 -0.8457 -0.7988 -0.6802
39074SOL     OW19474   5.414  10.572   1.384 -0.1267 -0.2014 -0.0081
39074SOL    HW119475   5.477  10.500   1.383 -0.2322 -0.3099  0.8217
39074SOL    HW219476   5.462  10.646   1.346  0.4417 -0.3340  0.4412
39075SOL     OW19477   6.296  10.345  10.527  0.6224  0.4114 -0.1849
39075SOL    HW119478   6.314  10.269  10.583  0.2279  0.2746 -0.2400
39075SOL    HW219479   6.219  10.319  10.476  1.1542  0.4274 -1.0001
39076SOL     OW19480   1.160   4.941   5.430  0.1328 -0.0993  0.0630
39076SOL    HW119481   1.077   4.988   5.440 -0.0018 -0.5246  1.1327
39076SOL    HW219482   1.208   4.991   5.364  0.7799  2.7037  2.4316
39077SOL     OW19483   6.836   7.613   3.585 -0.6181  0.6188 -0.4469
39077SOL    HW119484   6.910   7.555   3.572  0.4247  1.4514  1.3881
39077SOL    HW219485   6.836   7.632   3.679 -4.2861 -0.8253  0.0136
39078SOL     OW19486   0.220   2.302   5.034 -0.2248 -0.3291 -0.3203
39078SOL    HW119487   0.129   2.282   5.054  0.0182  0.4169  1.7427
39078SOL    HW219488   0.234   2.390   5.069  1.5988 -0.8768  0.4656
39079SOL     OW19489   5.904   2.611   9.249 -0.3756 -0.3047 -0.1991
39079SOL    HW119490   5.870   2.632   9.162 -1.3425 -2.2993 -0.3423
39079SOL    HW219491   5.976   2.550   9.232  0.4447  0.4698  0.3580
39080SOL     OW19492   8.946   7.638   8.777 -0.0334  0.4586  0.2523
39080SOL    HW119493   9.027   7.621   8.826  0.2193  0.9364  0.0074
39080SOL    HW219494   8.973   7.643   8.686 -0.7114 -1.8588 -0.1445
39081SOL     OW19495   5.983   0.075  10.341 -0.0983  0.3959 -0.0320
39081SOL    HW119496   5.901   0.054  10.297  0.3936 -0.6132 -0.5120
39081SOL    HW219497   5.972   0.165  10.372 -0.3235  1.3321 -2.5759
39082SOL     OW19498   4.430   7.458  10.153 -0.1463  0.3752 -0.0153
39082SOL    HW119499   4.386   7.421  10.229 -1.3171  1.0821 -0.3342
39082SOL    HW219500   4.403   7.403  10.080 -0.6727  0.9289 -0.2437
39083SOL     OW19501   9.544   1.241   2.788  0.3072  0.3332  0.0086
39083SOL    HW119502   9.545   1.154   2.828  0.1761 -0.0575 -0.8154
39083SOL    HW219503   9.623   1.244   2.734 -0.9225 -0.2638 -1.9575
39084SOL     OW19504   9.363   0.201  10.144  0.6315  0.0114  0.5527
39084SOL    HW119505   9.287   0.149  10.117  0.2347  0.2446  1.1891
39084SOL    HW219506   9.346   0.288  10.108  1.3987 -0.3329 -0.6927
39085SOL     OW19507   8.743   2.683   1.780  0.6654  0.3125 -0.0662
39085SOL    HW119508   8.777   2.753   1.835 -0.2085  0.8633 -0.2084
39085SOL    HW219509   8.821   2.641   1.743  1.1973  1.7037 -0.5878
39086SOL     OW19510   7.177   9.621   4.909 -0.0810  0.0476  0.3700
39086SOL    HW119511   7.227   9.575   4.842 -2.9090 -0.9817 -1.2008
39086SOL    HW219512   7.149   9.702   4.866 -0.5400  0.1592  0.8662
39087SOL     OW19513   7.002   7.879   4.995 -0.2807  0.2545  0.1452
39087SOL    HW119514   7.087   7.912   5.026  0.5278 -0.5765 -1.0610
39087SOL    HW219515   6.989   7.923   4.911 -1.6345  1.2424  0.8407
39088SOL     OW19516   8.190   2.447   0.817  0.3178 -0.1572  0.1356
39088SOL    HW119517   8.179   2.398   0.898  1.1945  0.9095  0.9333
39088SOL    HW219518   8.250   2.393   0.765  0.7324 -0.2774  0.7187
39089SOL     OW19519   4.660   3.792   1.104 -0.3647 -0.0837  0.1721
39089SOL    HW119520   4.573   3.765   1.073 -0.1032 -1.5338  0.5962
39089SOL    HW219521   4.643   3.861   1.168 -1.4249 -2.0083  2.0917
39090SOL     OW19522   9.956   5.494   9.769  0.4195  0.1175  0.5918
39090SOL    HW119523  10.008   5.468   9.845  1.1971  1.0276  0.3813
39090SOL    HW219524   9.870   5.455   9.785  0.8580 -0.5323  1.4500
39091SOL     OW19525   9.932   5.389   3.602  0.6577 -0.7619  0.1564
39091SOL    HW119526   9.871   5.323   3.567 -0.1544  0.0302  0.0538
39091SOL    HW219527  10.007   5.338   3.633 -0.5751 -1.8907  1.4440
39092SOL     OW19528   1.176   5.827   8.580  0.1756 -0.1359  0.4729
39092SOL    HW119529   1.254   5.809   8.633 -0.9319  0.8830  2.5792
39092SOL    HW219530   1.201   5.900   8.524  0.5190  0.7568  1.7400
39093SOL     OW19531   5.274   0.460   1.536  0.4653  0.1894  0.1156
39093SOL    HW119532   5.301   0.369   1.521 -3.1921 -1.0784  0.1173
39093SOL    HW219533   5.312   0.482   1.621  2.9002 -0.6122 -0.6685
39094SOL     OW19534   2.473   3.693   8.541  0.1276  0.2875 -0.2352
39094SOL    HW119535   2.538   3.742   8.490 -2.2443  2.0801 -1.7755
39094SOL    HW219536   2.464   3.744   8.622  0.0796  0.4829 -0.3626
39095SOL     OW19537   0.272   5.411   1.102 -0.7966  0.3657  0.1393
39095SOL    HW119538   0.286   5.317   1.091 -0.5776  0.1739  1.8931
39095SOL    HW219539   0.284   5.446   1.014  1.3157 -0.9664 -0.1863
39096SOL     OW19540   1.620   9.748   6.088 -0.6252 -0.0083  0.3539
39096SOL    HW119541   1.677   9.825   6.085  0.3729 -0.7381 -0.1334
39096SOL    HW219542   1.666   9.687   6.144 -1.6745 -0.0693  1.1716
39097SOL     OW19543   5.702   2.085   2.822 -0.7139 -0.2141  0.2300
39097SOL    HW119544   5.662   2.022   2.882 -2.6994  0.4847 -0.2642
39097SOL    HW219545   5.783   2.043   2.794 -1.6846 -2.3447  0.3317
39098SOL     OW19546   9.421   3.855  10.201 -0.7350 -0.8299 -0.3687
39098SOL    HW119547   9.349   3.839  10.139 -0.9465 -0.2350 -0.2884
39098SOL    HW219548   9.444   3.768  10.234 -3.8049 -0.8303  2.2747
39099SOL     OW19549   0.204   2.897   3.281  1.4519  0.4618 -0.3971
39099SOL    HW119550   0.219   2.805   3.301  0.8677  0.2910 -0.7252
39099SOL    HW219551   0.190   2.899   3.186 -1.1752  0.4907 -0.0801
39100SOL     OW19552   3.131   1.852   4.026  0.8926  0.1893 -0.6673
39100SOL    HW119553   3.064   1.844   4.094  1.2590  1.5594 -0.1031
39100SOL    HW219554   3.190   1.921   4.058  1.6830  0.1075 -1.8734
39101SOL     OW19555   3.793   2.215   4.467 -0.0997 -0.0955 -0.0837
39101SOL    HW119556   3.722   2.253   4.416  0.3411  1.8893  0.6818
39101SOL    HW219557   3.870   2.221   4.410  0.1513  1.0663  0.3341
39102SOL     OW19558   3.056   5.437   8.960  0.5375  0.7158  0.0116
39102SOL    HW119559   2.962   5.430   8.940  0.9115 -1.2054 -1.3099
39102SOL    HW219560   3.068   5.378   9.034  0.9062 -0.0704 -0.6614
39103SOL     OW19561   8.483   0.445   8.926  0.1448 -0.7339  0.3225
39103SOL    HW119562   8.484   0.502   9.002 -0.8109 -0.0082 -0.1931
39103SOL    HW219563   8.397   0.404   8.927  0.2557 -0.9926 -0.1808
39104SOL     OW19564   4.376   2.081   5.656 -0.5945 -0.1009  0.6085
39104SOL    HW119565   4.302   2.031   5.691 -0.5878 -0.1541  0.5482
39104SOL    HW219566   4.337   2.157   5.614 -0.8038 -1.1948 -1.3002
39105SOL     OW19567  10.654   8.858   6.962 -0.4043 -0.4467 -0.5436
39105SOL    HW119568  10.611   8.936   6.927 -0.5380 -0.1711  0.2158
39105SOL    HW219569  10.619   8.786   6.910 -1.2683 -0.1468 -0.3878
39106SOL     OW19570   8.243  10.379   0.835 -0.4052 -0.5409 -0.2534
39106SOL    HW119571   8.260  10.467   0.870  0.5824 -1.0531  0.6207
39106SOL    HW219572   8.243  10.322   0.912  0.3214 -1.4993 -0.9345
39107SOL     OW19573   3.810   3.286   2.961  0.5013 -0.7399  0.3091
39107SOL    HW119574   3.747   3.311   3.028  0.9120 -1.4994  0.9814
39107SOL    HW219575   3.807   3.358   2.898 -0.2032 -0.2306  0.9110
39108SOL     OW19576   7.937   5.265   7.504 -0.0184  0.0561  0.0469
39108SOL    HW119577   7.856   5.241   7.458 -1.3452  0.9750  1.7719
39108SOL    HW219578   7.937   5.210   7.582 -1.5502  3.2298  2.5095
39109SOL     OW19579   4.592   7.677   2.957  0.1589  0.1480 -0.2734
39109SOL    HW119580   4.674   7.728   2.956  0.8215 -0.8665  0.5641
39109SOL    HW219581   4.528   7.737   2.995  0.4141  1.0597 -1.2030
39110SOL     OW19582   9.451   8.785   8.926 -0.0300 -0.1734 -0.0591
39110SOL    HW119583   9.525   8.741   8.966  2.1351  1.0196 -2.4528
39110SOL    HW219584   9.430   8.731   8.850 -1.6063 -0.4238  0.5139
39111SOL     OW19585   7.842   3.270   1.712 -0.0851  0.6414  0.1483
39111SOL    HW119586   7.812   3.264   1.621 -0.1580  0.4158  0.1857
39111SOL    HW219587   7.925   3.316   1.707  0.0232  0.4241 -0.0591
39112SOL     OW19588   8.019   1.511   7.861 -0.3181  0.5742 -0.0598
39112SOL    HW119589   7.933   1.504   7.902 -0.2548  1.4888  0.2678
39112SOL    HW219590   8.013   1.457   7.783 -0.8151 -0.2817  0.5520
39113SOL     OW19591   5.485   8.462   5.051  0.0606 -0.3066  0.0852
39113SOL    HW119592   5.505   8.370   5.034  3.3952  0.0290  1.3517
39113SOL    HW219593   5.476   8.467   5.146 -3.5394  0.2278 -0.1558
39114SOL     OW19594   6.049   9.642   2.873 -0.5546 -0.1823  0.0958
39114SOL    HW119595   6.097   9.645   2.956 -0.6128  0.5739  0.1177
39114SOL    HW219596   5.979   9.580   2.887 -0.9714  0.4465  0.8503
39115SOL     OW19597   0.431   6.531   6.324 -0.2298 -0.3568 -0.4265
39115SOL    HW119598   0.445   6.466   6.255 -0.7644  0.5357 -1.3964
39115SOL    HW219599   0.404   6.610   6.278 -0.0755  0.4225  0.7734
39116SOL     OW19600   9.187   0.598  10.163 -0.1423 -0.1407  0.0217
39116SOL    HW119601   9.177   0.631  10.252 -2.2223 -0.1184 -0.1800
39116SOL    HW219602   9.111   0.631  10.115  0.0020 -1.5873 -1.3208
39117SOL     OW19603   2.999   3.434   0.083 -0.0858 -0.6593 -0.3643
39117SOL    HW119604   2.922   3.379   0.097  0.0852 -0.7554  0.2229
39117SOL    HW219605   2.964   3.523   0.075 -0.1668 -0.4946  1.3703
39118SOL     OW19606   3.852   8.897   4.143 -0.3292 -0.4417  0.5427
39118SOL    HW119607   3.783   8.943   4.190 -1.6513 -0.6982 -1.0418
39118SOL    HW219608   3.808   8.857   4.068  1.7553  0.5018 -1.3000
39119SOL     OW19609   1.105   1.485   0.685  0.4904 -0.0984  0.1785
39119SOL    HW119610   1.179   1.443   0.729  3.2562  1.3579 -2.6687
39119SOL    HW219611   1.089   1.564   0.736 -0.4853 -1.3337  1.8995
39120SOL     OW19612   1.898   7.859   9.052  0.6386 -0.0517  0.4021
39120SOL    HW119613   1.981   7.852   9.098  0.6639  0.7496  0.5074
39120SOL    HW219614   1.921   7.861   8.959  0.7619  0.3718  0.4378
39121SOL     OW19615   8.347   0.710   5.195 -0.6037  0.4575  0.6502
39121SOL    HW119616   8.281   0.737   5.259 -2.3679 -0.5819 -0.6451
39121SOL    HW219617   8.337   0.615   5.189  1.1517  0.2437  0.5261
39122SOL     OW19618   0.217   6.794   3.973 -0.2386  0.2781 -0.1673
39122SOL    HW119619   0.287   6.728   3.980  0.8123  1.0177 -2.6041
39122SOL    HW219620   0.199   6.819   4.063  1.1397 -1.4774  0.6679
39123SOL     OW19621   9.067  10.294   1.657  0.0098  0.5554  0.0887
39123SOL    HW119622   9.124  10.332   1.591 -1.3394  0.7723 -0.9926
39123SOL    HW219623   8.979  10.323   1.633 -0.4502  1.3521  2.4705
39124SOL     OW19624  10.145   4.658   8.977 -1.4074 -0.0168 -1.1037
39124SOL    HW119625  10.209   4.644   9.046 -2.0828  0.6355 -0.3223
39124SOL    HW219626  10.161   4.588   8.914 -2.1429 -1.9093  0.7253
39125SOL     OW19627   7.743   6.938   9.439 -0.1503  0.1261  0.1106
39125SOL    HW119628   7.766   6.846   9.446 -0.7874 -0.1832 -1.4546
39125SOL    HW219629   7.664   6.947   9.492 -0.5904 -0.4343 -0.4415
39126SOL     OW19630   6.410   8.426   4.262 -0.0008  0.4806  0.0611
39126SOL    HW119631   6.408   8.473   4.346 -1.6013 -0.1267  0.3909
39126SOL    HW219632   6.382   8.490   4.198  0.7123  0.7969  0.0562
39127SOL     OW19633   2.496   7.893   9.263 -0.2558 -0.6731 -0.1704
39127SOL    HW119634   2.566   7.851   9.214  0.2224  1.6524 -1.6418
39127SOL    HW219635   2.532   7.978   9.288 -1.4791 -0.7006  1.8633
39128SOL     OW19636   1.014   3.381   2.720  0.3343  0.3079  0.3225
39128SOL    HW119637   0.957   3.431   2.779 -2.6361 -3.3599  0.9022
39128SOL    HW219638   1.070   3.331   2.779  1.6876  1.1327 -0.2112
39129NA      NA19639   8.738   8.052   7.477 -0.0636  0.5650 -0.0537
39130NA      NA19640   0.429   3.227   6.298 -0.0686 -0.0822 -0.0766
39131NA      NA19641   6.951   3.075   5.712  0.2089 -0.1256  0.2404
39132NA      NA19642   5.248   7.800   7.469 -0.3744 -0.0150  0.2823
39133NA      NA19643   4.867   0.795   5.955 -0.0788 -0.5449 -0.5786
39134NA      NA19644   2.857   9.607   7.863  0.3105 -0.5055 -0.2918
39135NA      NA19645   1.139  10.244   7.724 -0.5354  0.1708 -0.0117
39136NA      NA19646   1.957  10.495   3.439 -0.0689 -0.5055 -0.3442
39137NA      NA19647   5.256   2.424   7.152 -0.2030  0.2825 -0.3348
39138NA      NA19648   9.415   4.434  10.440  0.2943 -0.1144 -0.2369
39139NA      NA19649   3.786   5.431   0.828 -0.3753  0.2891  0.4355
39140NA      NA19650   2.404   2.275   8.383  0.0546 -0.5098 -0.3931
39141NA      NA19651   2.232   0.385   9.819 -0.1829  0.7186  0.2282
39142NA      NA19652  10.395   0.318   3.319 -0.2911  0.4219 -0.0213
39143NA      NA19653   6.648   7.661   7.452 -0.4638  0.5696  0.0034
39144NA      NA19654   9.371   4.735   8.718  0.0206 -0.5413  0.3962
39145NA      NA19655   1.133  10.049   1.961  0.1862 -0.1623  0.0753
39146NA      NA19656   9.860   8.818   8.959 -0.2212 -0.1618  0.1197
39147NA      NA19657   6.801   6.840   0.535 -0.1496  0.1056  0.0816
39148NA      NA19658   1.161   0.230   2.368 -0.3784  0.2648 -0.3385
39149NA      NA19659   3.692   5.553   8.889  0.2695 -0.1449  0.1700
39150NA      NA19660   2.926   6.809   9.100  0.1067  0.1912 -0.1750
39151NA      NA19661   8.868  10.558  10.067  0.1932 -0.2638 -0.3623
39152NA      NA19662   9.488   7.273  10.607  0.0940  0.2297  0.0968
39153NA      NA19663   5.607  10.120   0.680  0.2071 -0.2566  0.2018
39154NA      NA19664  10.207   7.843   9.838 -0.4942  0.1037  0.4852
39155NA      NA19665   4.197   5.338   3.244  0.5594  0.0146  0.2080
39156NA      NA19666   5.388   7.793   4.134  0.1151  0.1409  0.2389
39157NA      NA19667   0.925   0.815   5.945  0.0690  1.0532  0.4337
39158NA      NA19668   1.686   8.993   4.261  0.2792  0.4127 -0.0569
39159NA      NA19669   1.268   9.990   5.962  0.0675  0.1210  0.5250
39160NA      NA19670   9.803   5.466   8.484 -0.0348 -0.1477  0.8089
39161NA      NA19671   7.171   8.205   1.559  0.1413  0.1464  0.0855
39162NA      NA19672   3.211   4.730   1.976  0.1706  0.7679  0.3036
39163NA      NA19673   5.081   8.653   0.820 -0.6027  0.6678  0.1624
39164NA      NA19674   8.316   6.480  10.199  0.2402  0.2458  0.0378
39165NA      NA19675   3.648   9.770   3.998 -0.0381  0.3723  0.2297
39166NA      NA19676   4.330   6.197   8.101 -0.1496  0.0026  0.0927
39167NA      NA19677   3.435   4.730   5.508  0.1444 -0.2847 -0.3973
39168NA      NA19678   7.348   5.259   9.689  0.0490  0.2969  0.0621
39169NA      NA19679   3.162   9.197  10.500 -0.0273 -0.5269 -0.3852
39170NA      NA19680   6.222   5.215   9.443 -0.4153  0.5176  0.1158
39171NA      NA19681   4.896   9.668   3.617  0.3364  0.2690  0.3395
39172NA      NA19682   7.442   7.776  10.424  0.0787 -0.0603 -0.1228
39173NA      NA19683   9.080   9.590   5.716  0.1727  0.2176 -0.2914
39174NA      NA19684   0.874   3.252   8.941 -0.2794  0.0507  0.1731
39175NA      NA19685   4.835   5.408   1.122  1.1680 -0.1431  0.0686
39176NA      NA19686  10.381   4.283   1.337  0.2246  0.3216  0.5369
39177NA      NA19687   8.373   9.633   2.321 -0.2271  0.3471 -0.0635
39178NA      NA19688   3.907   2.390   1.122 -0.3715  0.1048  0.0598
39179NA      NA19689   1.807   3.135  10.639  0.0446  0.0505  0.2549
39180NA      NA19690   2.175   7.573   1.994  0.0410 -0.0878 -0.0400
39181NA      NA19691   3.892   1.450   5.679 -0.3696 -0.1607  0.1883
39182NA      NA19692   9.064   5.456   6.010  0.3191 -0.3834  0.1182
39183NA      NA19693   1.161  10.196  10.150  0.4982  0.1170  0.2603
39184NA      NA19694   2.610   1.939   2.041 -0.0155 -0.2065  0.1952
39185NA      NA19695   9.018   1.488   9.705  0.0135 -0.2304 -0.4573
39186NA      NA19696   0.609   8.007   7.294 -0.1254 -0.3112  0.1999
39187NA      NA19697   1.317   2.354   2.567 -0.3749  0.0267 -0.5615
39188NA      NA19698   8.979   6.861   7.900  0.3326 -0.3863 -0.2801
39189NA      NA19699   8.429   1.103   8.276  0.0440 -0.0581  0.5092
39190NA      NA19700   0.845   6.664   6.343 -0.5208  0.5204  0.2694
39191NA      NA19701   1.762   6.057   0.181 -0.0044  0.0521 -0.6323
39192NA      NA19702   5.579   4.051   3.848  0.2590 -0.1774 -0.2955
39193NA      NA19703   5.362   0.597   4.554 -0.1107 -0.3017 -0.2330
39194NA      NA19704   9.147   8.616   3.519 -0.0669 -0.1977 -0.2168
39195NA      NA19705   1.665   7.369   6.916 -0.5785 -0.1587 -0.3753
39196NA      NA19706   8.923   6.855   2.623 -0.3134  0.3288  0.0162
39197NA      NA19707  10.165   1.884   2.081  0.0627  0.0060 -0.5285
39198NA      NA19708   7.167   2.050   3.096  0.3197  0.2296 -0.0358
39199NA      NA19709   6.835   4.092   1.912  0.2663 -0.4927 -0.2332
39200NA      NA19710   8.940   9.603   3.391 -0.2665 -0.2994 -0.3197
39201NA      NA19711   6.368   7.332   9.123  0.1564  0.3847 -0.0242
39202NA      NA19712   2.095   6.291   4.435 -0.2254 -0.3779  0.2488
39203NA      NA19713   2.796   7.313   7.363 -0.2056 -0.5205 -0.2367
39204NA      NA19714   5.761   1.718   9.965 -0.4638  0.3293  0.1117
39205NA      NA19715   7.601   0.183   6.923  0.2166  0.2086 -0.4582
39206NA      NA19716   5.101   1.307   9.714  0.1144  0.0599  0.2379
39207NA      NA19717  10.340   6.009   1.501  0.3213 -0.0357  0.0466
39208NA      NA19718   2.422   3.737   9.009 -0.0670  0.0407  0.1958
39209NA      NA19719   0.989   9.071   8.288  0.3197 -0.0992 -0.4748
39210NA      NA19720  10.603   3.715   3.786 -0.0514 -0.1913  0.3228
39211NA      NA19721   3.200   3.890   4.262 -0.4953 -0.0181 -0.8415
39212NA      NA19722   9.599   8.014   1.902  0.0285  0.0160  0.2704
39213NA      NA19723   4.342   2.951   5.662  0.4485 -0.3542  0.2076
39214NA      NA19724   1.546   1.115   9.343  0.0323 -0.0708  0.6424
39215NA      NA19725   5.544   2.503   0.537 -0.0239 -0.2770  0.2567
39216NA      NA19726   5.030   2.524   4.528  0.0525 -0.0689 -0.2072
39217NA      NA19727   4.017   2.431   0.248 -0.6223 -0.1653  0.3545
39218NA      NA19728   9.944   1.719   5.346 -0.4984  0.9116  0.1742
39219NA      NA19729   4.776   7.017   0.241 -0.0084 -0.1307 -0.1384
39220NA      NA19730   0.634   9.557  10.105 -0.3663 -0.0461  0.0867
39221NA      NA19731   3.765   5.848   2.715 -0.0375 -0.1340  0.3402
39222NA      NA19732   2.342   1.343   4.343  0.0927 -0.4000 -0.3283
39223NA      NA19733   0.144   5.750   6.975 -0.4360  0.4762 -0.0560
39224NA      NA19734   8.857  10.641   0.162  0.4463  0.3596 -0.0236
39225NA      NA19735   7.314   6.990   5.667 -0.0519 -0.2701  0.1725
39226NA      NA19736   8.995  10.587   4.803 -0.0655  0.0583  0.0860
39227NA      NA19737   2.538   3.281   1.072  0.5119  0.3696 -0.2050
39228NA      NA19738   2.419   8.544   6.553  0.3927 -0.3871  0.0924
39229NA      NA19739   9.491   3.652   9.741 -0.3780 -0.3178 -0.1041
39230NA      NA19740   7.285   6.957   1.636 -0.0269 -0.2940 -0.1715
39231NA      NA19741   9.882   5.439  10.349 -0.3372  0.3085  0.0425
39232NA      NA19742   1.522   6.748   0.389  0.5634 -0.0586  0.0824
39233NA      NA19743   4.832   8.172   7.046  0.3516 -0.5778  0.2258
39234NA      NA19744   8.738   3.623   4.042  0.0377  0.0388  0.2410
39235NA      NA19745   1.261   3.648   0.438 -0.1706  0.1993 -0.2667
39236NA      NA19746   7.770   4.506   2.800 -0.0974 -0.1373  0.0396
39237NA      NA19747  10.348  10.205   9.617  0.0332  0.1890  0.3387
39238NA      NA19748  10.252   3.901   7.941 -0.2581  0.3896 -0.5434
39239CL      CL19749   5.853   1.265   1.309 -0.3195 -0.0396 -0.1797
39240CL      CL19750   3.461   6.583   1.793 -0.1201  0.0545  0.2424
39241CL      CL19751   0.822   1.145   7.587  0.1211 -0.1422  0.4553
39242CL      CL19752   4.008   0.723   0.413  0.1411 -0.2580  0.0842
39243CL      CL19753  10.601   4.074   0.507  0.0586  0.0622 -0.5884
39244CL      CL19754   4.210   0.369   8.100 -0.2762 -0.3037  0.1065
39245CL      CL19755   7.969   5.425   9.474 -0.0170  0.1097 -0.2119
39246CL      CL19756   9.135   5.859   1.183  0.2390 -0.4441 -0.2162
39247CL      CL19757   0.370   9.520   9.740  0.1367 -0.1720 -0.0475
39248CL      CL19758   3.066   3.465   3.663 -0.2002 -0.5452  0.1152
39249CL      CL19759   6.978   2.979   9.566 -0.0371 -0.0089  0.2025
39250CL      CL19760   7.766   4.414   9.454 -0.1014  0.6233 -0.2606
39251CL      CL19761  10.051   3.596  10.073 -0.0538 -0.1247  0.1546
39252CL      CL19762   7.898   1.838   1.778  0.0778  0.1329  0.2408
39253CL      CL19763   0.605   7.755   7.255 -0.2227 -0.4741 -0.0433
39254CL      CL19764   1.386  10.289   9.298 -0.0090  0.0982  0.0043
39255CL      CL19765   7.486   8.567   5.743 -0.3632 -0.5853 -0.0412
39256CL      CL19766   0.814   7.951   4.025  0.1260 -0.2366  0.4193
39257CL      CL19767   8.624   5.302  10.017 -0.0840 -0.3126 -0.2536
39258CL      CL19768   4.636   8.737   2.435  0.0375 -0.1103  0.0530
39259CL      CL19769   0.262  10.558   3.026 -0.2692 -0.1653 -0.0600
39260CL      CL19770   7.537   6.606   2.771 -0.3137  0.3155 -0.1668
39261CL      CL19771   8.277   7.855   7.910 -0.1949 -0.3155  0.0311
39262CL      CL19772   3.192   6.491   9.169  0.0247  0.1987 -0.2808
39263CL      CL19773   2.552   9.423   1.369  0.4531 -0.1389 -0.3014
39264CL      CL19774   2.918   2.281   8.444 -0.5241 -0.0603  0.1167
39265CL      CL19775   1.238   1.037   2.932 -0.0284 -0.0984  0.6061
39266CL      CL19776   7.590   6.638   8.350  0.0985 -0.0358  0.1576
39267CL      CL19777   5.064   5.070   5.880 -0.2042  0.2487  0.1753
39268CL      CL19778   2.425   8.296   6.624  0.4356  0.1582 -0.0336
39269CL      CL19779   3.320   5.805   6.109 -0.5798  0.4224  0.1431
39270CL      CL19780   2.494   3.918   8.864 -0.1352  0.1008 -0.0699
39271CL      CL19781   3.527   2.036   1.690 -0.0392 -0.0952 -0.0654
39272CL      CL19782   2.049   0.118   0.791 -0.5465  0.1940  0.3337
39273CL      CL19783   1.822   0.450   3.641  0.1637 -0.1185 -0.2399
39274CL      CL19784   4.811   5.444   1.351 -0.0015 -0.1833 -0.0936
39275CL      CL19785   2.244   5.823   4.886 -0.0915  0.1027  0.1657
39276CL      CL19786  10.646   2.461   1.418  0.2920 -0.0543 -0.0335
39277CL      CL19787   9.233   2.231   5.051  0.4282 -0.0665 -0.1440
39278CL      CL19788   5.497  10.509   0.026  0.7128  0.4891  0.3396
39279CL      CL19789   7.114   6.665   0.799  0.2063 -0.1470  0.2175
39280CL      CL19790   1.992   1.378   0.358 -0.2533  0.0702  0.4681
39281CL      CL19791   1.994   8.907   9.291 -0.1672 -0.1014 -0.1860
39282CL      CL19792   8.330   0.211   1.681 -0.3617 -0.3388 -0.3701
39283CL      CL19793   3.330   9.656   1.867  0.0596  0.0965  0.0069
39284CL      CL19794   6.231   8.261   3.219  0.5150  0.4086  0.1498
39285CL      CL19795   9.826   4.707   0.782  0.0090  0.1396 -0.1739
39286CL      CL19796   4.673   5.293   3.350  0.5348  0.2582 -0.4010
39287CL      CL19797   2.787   5.212   1.842  0.0511  0.0599 -0.3222
39288CL      CL19798   8.178   0.795   7.868  0.2494  0.1804  0.1989
39289CL      CL19799   5.951   8.970   9.395 -0.2057 -0.0672 -0.0190
39290CL      CL19800   3.490   5.130   7.423 -0.5147  0.0344  0.0342
39291CL      CL19801   9.822   8.529   3.436 -0.3569 -0.5746 -0.1277
39292CL      CL19802   8.739   8.679   6.959 -0.3527  0.5624  0.2774
39293CL      CL19803   9.528   5.327  10.079 -0.0365  0.2976  0.2268
39294CL      CL19804   1.428   6.650   7.071  0.3181  0.0480 -0.3124
39295CL      CL19805   3.247   5.213  10.209  0.0539 -0.1499 -0.0778
39296CL      CL19806   5.664   7.876   7.436  0.1953 -0.4207  0.1011
39297CL      CL19807   5.790   3.272   7.334  0.0580  0.2986 -0.1844
39298CL      CL19808   7.690   2.074   0.975 -0.5485  0.0806 -0.4245
39299CL      CL19809   9.235   4.637   6.794 -0.0063  0.2716  0.1817
39300CL      CL19810   5.219   7.398   3.871 -0.0612  0.2984 -0.5524
39301CL      CL19811   4.476  10.010   6.404  0.1515  0.0925  0.1746
39302CL      CL19812   0.945   9.608   9.030 -0.2312  0.0577 -0.2396
39303CL      CL19813   6.729   1.907   3.967 -0.1906 -0.1220 -0.1121
39304CL      CL19814   7.466   7.559  10.312  0.0891  0.3274 -0.0261
39305CL      CL19815   0.672   6.006   5.888  0.0508  0.0406  0.3694
39306CL      CL19816   1.339   4.566   0.257 -0.0160 -0.1009  0.1156
39307CL      CL19817   1.357   3.874  10.043 -0.0292 -0.3008  0.0767
39308CL      CL19818   1.971   1.276   5.105  0.0658 -0.0857  0.2178
39309CL      CL19819   9.442   8.315   5.939 -0.1895 -0.7853  0.1857
39310CL      CL19820   4.926   4.237   3.907  0.1388 -0.4370 -0.1153
39311CL      CL19821   5.504   0.213   2.227  0.1469 -0.0042  0.3187
39312CL      CL19822   0.436   9.112   6.094 -0.0055  0.5533  0.1508
39313CL      CL19823   2.210   3.779   0.319  0.1791 -0.3007 -0.1289
39314CL      CL19824   7.919   8.538   2.958  0.0222  0.0266  0.1018
39315CL      CL19825   4.745   2.682   9.846 -0.0322 -0.5133  0.5329
39316CL      CL19826   1.206   2.014   7.467 -0.2813 -0.0386  0.2276
39317CL      CL19827   6.466   1.406   7.211  0.1697  0.4060 -0.0443
39318CL      CL19828   7.144   6.688  10.330  0.3143 -0.0082  0.2307
39319CL      CL19829   2.923   7.891   9.815  0.0028 -0.0033  0.1097
39320CL      CL19830  10.282   9.521   8.629  0.4857 -0.0419 -0.2388
39321CL      CL19831  10.398   8.985   1.156 -0.1409  0.1948  0.1314
39322CL      CL19832   6.749   8.674   3.777  0.2667 -0.1344 -0.4940
39323CL      CL19833  10.128   0.673   3.433  0.6349 -0.0637 -0.0960
39324CL      CL19834   8.635   5.399   0.908  0.2011 -0.0697 -0.0286
39325CL      CL19835   2.429   0.092   3.789  0.0080 -0.1684 -0.0164
39326CL      CL19836   7.578   4.613   0.462 -0.1944  0.1499  0.0748
39327CL      CL19837   0.361   2.474  10.406 -0.0362 -0.0389 -0.2204
39328CL      CL19838   7.236   7.033   3.374  0.0678  0.1497 -0.5965
39329CL      CL19839   3.238   2.850   0.801 -0.0576 -0.5545  0.1637
39330CL      CL19840   8.823   6.841   7.717  0.0804  0.0598 -0.1032
39331CL      CL19841   1.917   4.348   2.156 -0.1986  0.0218  0.0873
39332CL      CL19842   5.521   9.925   6.163  0.4087 -0.2904 -0.1117
39333CL      CL19843   6.988   2.917   2.753  0.3312 -0.2322 -0.1492
39334CL      CL19844   9.817   3.884  10.418 -0.1139  0.2453 -0.0618
39335CL      CL19845   8.633   6.872   1.526 -0.3166 -0.1187  0.0932
39336CL      CL19846   0.080   1.002   2.585  0.0311 -0.0829  0.2740
39337CL      CL19847   8.566  10.631   4.138 -0.4381 -0.1062 -0.4473
39338CL      CL19848   4.317   4.422   2.133 -0.6940  0.4467  0.2191
39339CL      CL19849   4.085   2.869   5.302  0.2023 -0.0169  0.1956
39340CL      CL19850   2.391   7.223   4.664  0.1520 -0.2321 -0.0258
39341CL      CL19851   5.699   6.286   7.181  0.5489  0.2260  0.0186
39342CL      CL19852   2.615   8.329   0.988 -0.1251  0.6248 -0.5952
39343CL      CL19853   7.858   5.310   4.432 -0.0826 -0.1494  0.3080
39344CL      CL19854   2.751   1.741   4.450  0.1679  0.1946  0.0455
39345CL      CL19855   9.016   4.031   2.372  0.1497 -0.0068 -0.6798
39346CL      CL19856   3.701   7.051   7.305 -0.0272 -0.0129  0.1083
39347CL      CL19857   0.839   9.405   9.547  0.0451  0.4043  0.0892
39348CL      CL19858   9.553   9.734   5.121 -0.0479 -0.1071 -0.0895
  10.65529  10.65529  10.65529
