;
;   File g4.5dpOcore_cooh_petim.itp  was generated
;   By user: sairam (1000)
;   On host: sairam
;   At date: Mon. February  1 16:07:15 2025
;
;   This is a standalone topology file
;
;   Created by:
;   ParmEd:       amb2gro_top_gro.py, VERSION 3.4.1
;   Executable:   amb2gro_top_gro.py
;   Library dir:  /usr/local/gromacs/share/gromacs/top
;   Command line:
;     ./amb2gro_top_gro.py -p g4.5dpOcore_cooh_petim.prmtop -c g4.5dpOcore_cooh_petim.inpcrd -t g4.5dpOcore_cooh_petim.itp -g g4.5dpOcore_cooh_petim.gro -b g4.5dpOcore_cooh_petim.pdb
;

;[ defaults ]
;; nbfunc        comb-rule       gen-pairs       fudgeLJ fudgeQQ
;1               2               yes             0.5          0.83333333  
;
;[ atomtypes ]
;; name    at.num    mass    charge ptype  sigma      epsilon
;os             8  16.000000  0.00000000  A     0.30000123        0.71128
;c3             6  12.010000  0.00000000  A     0.33996695      0.4577296
;h1             1   1.008000  0.00000000  A      0.2471353      0.0656888
;hc             1   1.008000  0.00000000  A     0.26495328      0.0656888
;hx             1   1.008000  0.00000000  A     0.19599772      0.0656888
;n4             7  14.010000  0.00000000  A     0.32499985        0.71128
;hn             1   1.008000  0.00000000  A     0.10690785      0.0656888
;c              6  12.010000  0.00000000  A     0.33996695       0.359824
;o              8  16.000000  0.00000000  A     0.29599219        0.87864
;oh             8  16.000000  0.00000000  A     0.30664734      0.8803136
;ho             1   1.008000  0.00000000  A              0              0


[ moleculetype ]
; Name            nrexcl
g4.5dpOcore_cooh_petim          3

[ atoms ]
;   nr       type  resnr residue  atom   cgnr    charge       mass  typeB    chargeB      massB
; residue    1 aaa rtp aaa q 2.0
    1         os      1    aaa     O1      1 -0.58111400  16.000000   ; qtot -0.581114
    2         c3      1    aaa     C1      2 0.17711200  12.010000   ; qtot -0.404002
    3         h1      1    aaa     H1      3 0.04565000   1.008000   ; qtot -0.358352
    4         h1      1    aaa     H2      4 0.04565000   1.008000   ; qtot -0.312702
    5         c3      1    aaa     C2      5 0.17711200  12.010000   ; qtot -0.135590
    6         h1      1    aaa     H3      6 0.04565000   1.008000   ; qtot -0.089940
    7         h1      1    aaa     H4      7 0.04565000   1.008000   ; qtot -0.044290
    8         c3      1    aaa     C3      8 0.15102100  12.010000   ; qtot 0.106731
    9         hc      1    aaa     H5      9 0.02538500   1.008000   ; qtot 0.132116
   10         hc      1    aaa     H6     10 0.02538500   1.008000   ; qtot 0.157501
   11         c3      1    aaa     C4     11 0.15102100  12.010000   ; qtot 0.308522
   12         hc      1    aaa     H7     12 0.02538500   1.008000   ; qtot 0.333907
   13         hc      1    aaa     H8     13 0.02538500   1.008000   ; qtot 0.359292
   14         c3      1    aaa     C5     14 -0.29474300  12.010000   ; qtot 0.064549
   15         hx      1    aaa     H9     15 0.12534200   1.008000   ; qtot 0.189891
   16         hx      1    aaa    H10     16 0.12534200   1.008000   ; qtot 0.315233
   17         c3      1    aaa     C6     17 -0.29474300  12.010000   ; qtot 0.020490
   18         hx      1    aaa    H11     18 0.12534200   1.008000   ; qtot 0.145832
   19         hx      1    aaa    H12     19 0.12534200   1.008000   ; qtot 0.271174
   20         n4      1    aaa     N1     20 -0.11447800  14.010000   ; qtot 0.156696
   21         n4      1    aaa     N2     21 -0.11447800  14.010000   ; qtot 0.042218
   22         c3      1    aaa     C7     22 -0.03432800  12.010000   ; qtot 0.007890
   23         hx      1    aaa    H13     23 0.10515400   1.008000   ; qtot 0.113044
   24         hx      1    aaa    H14     24 0.10515400   1.008000   ; qtot 0.218198
   25         c3      1    aaa     C8     25 -0.03432800  12.010000   ; qtot 0.183870
   26         hx      1    aaa    H15     26 0.10515400   1.008000   ; qtot 0.289024
   27         hx      1    aaa    H16     27 0.10515400   1.008000   ; qtot 0.394178
   28         c3      1    aaa     C9     28 -0.03432800  12.010000   ; qtot 0.359850
   29         hx      1    aaa    H17     29 0.10515400   1.008000   ; qtot 0.465004
   30         hx      1    aaa    H18     30 0.10515400   1.008000   ; qtot 0.570158
   31         c3      1    aaa    C10     31 -0.03432800  12.010000   ; qtot 0.535830
   32         hx      1    aaa    H19     32 0.10515400   1.008000   ; qtot 0.640984
   33         hx      1    aaa    H20     33 0.10515400   1.008000   ; qtot 0.746138
   34         c3      1    aaa    C11     34 -0.06183200  12.010000   ; qtot 0.684306
   35         hc      1    aaa    H21     35 0.08865200   1.008000   ; qtot 0.772958
   36         hc      1    aaa    H22     36 0.08865200   1.008000   ; qtot 0.861610
   37         c3      1    aaa    C12     37 -0.06183200  12.010000   ; qtot 0.799778
   38         hc      1    aaa    H23     38 0.08865200   1.008000   ; qtot 0.888430
   39         hc      1    aaa    H24     39 0.08865200   1.008000   ; qtot 0.977082
   40         c3      1    aaa    C13     40 -0.06183200  12.010000   ; qtot 0.915250
   41         hc      1    aaa    H25     41 0.08865200   1.008000   ; qtot 1.003902
   42         hc      1    aaa    H26     42 0.08865200   1.008000   ; qtot 1.092554
   43         c3      1    aaa    C14     43 -0.06183200  12.010000   ; qtot 1.030722
   44         hc      1    aaa    H27     44 0.08865200   1.008000   ; qtot 1.119374
   45         hc      1    aaa    H28     45 0.08865200   1.008000   ; qtot 1.208026
   46         c3      1    aaa    C15     46 -0.22217300  12.010000   ; qtot 0.985853
   47         hc      1    aaa    H29     47 0.16441900   1.008000   ; qtot 1.150272
   48         hc      1    aaa    H30     48 0.16441900   1.008000   ; qtot 1.314691
   49         c3      1    aaa    C16     49 -0.22217300  12.010000   ; qtot 1.092518
   50         hc      1    aaa    H31     50 0.16441900   1.008000   ; qtot 1.256937
   51         hc      1    aaa    H32     51 0.16441900   1.008000   ; qtot 1.421356
   52         c3      1    aaa    C17     52 -0.22217300  12.010000   ; qtot 1.199183
   53         hc      1    aaa    H33     53 0.16441900   1.008000   ; qtot 1.363602
   54         hc      1    aaa    H34     54 0.16441900   1.008000   ; qtot 1.528021
   55         c3      1    aaa    C18     55 -0.22217300  12.010000   ; qtot 1.305848
   56         hc      1    aaa    H35     56 0.16441900   1.008000   ; qtot 1.470267
   57         hc      1    aaa    H36     57 0.16441900   1.008000   ; qtot 1.634686
   58         hn      1    aaa    H38     58 0.18266300   1.008000   ; qtot 1.817349
   59         hn      1    aaa    H37     59 0.18266300   1.008000   ; qtot 2.000012
; residue    2 bbb rtp bbb q 1.0
   60         n4      2    bbb     N1     60 0.03726400  14.010000   ; qtot 2.037276
   61         c3      2    bbb     C1     61 -0.07020100  12.010000   ; qtot 1.967075
   62         hx      2    bbb     H1     62 0.12219000   1.008000   ; qtot 2.089265
   63         hx      2    bbb     H2     63 0.12219000   1.008000   ; qtot 2.211455
   64         c3      2    bbb     C2     64 -0.07020100  12.010000   ; qtot 2.141254
   65         hx      2    bbb     H3     65 0.12219000   1.008000   ; qtot 2.263444
   66         hx      2    bbb     H4     66 0.12219000   1.008000   ; qtot 2.385634
   67         c3      2    bbb     C3     67 -0.39007700  12.010000   ; qtot 1.995557
   68         hx      2    bbb     H5     68 0.14940300   1.008000   ; qtot 2.144960
   69         hx      2    bbb     H6     69 0.14940300   1.008000   ; qtot 2.294363
   70         c3      2    bbb     C4     70 0.18057300  12.010000   ; qtot 2.474936
   71         hc      2    bbb     H7     71 0.01788900   1.008000   ; qtot 2.492825
   72         hc      2    bbb     H8     72 0.01788900   1.008000   ; qtot 2.510714
   73         c3      2    bbb     C5     73 -0.11337700  12.010000   ; qtot 2.397337
   74         hc      2    bbb     H9     74 0.09515400   1.008000   ; qtot 2.492491
   75         hc      2    bbb    H10     75 0.09515400   1.008000   ; qtot 2.587645
   76         c3      2    bbb     C6     76 -0.11337700  12.010000   ; qtot 2.474268
   77         hc      2    bbb    H11     77 0.09515400   1.008000   ; qtot 2.569422
   78         hc      2    bbb    H12     78 0.09515400   1.008000   ; qtot 2.664576
   79         c3      2    bbb     C7     79 0.21842400  12.010000   ; qtot 2.883000
   80         h1      2    bbb    H13     80 0.04500300   1.008000   ; qtot 2.928003
   81         h1      2    bbb    H14     81 0.04500300   1.008000   ; qtot 2.973006
   82         c3      2    bbb     C8     82 -0.06455200  12.010000   ; qtot 2.908454
   83         h1      2    bbb    H15     83 0.13554100   1.008000   ; qtot 3.043995
   84         h1      2    bbb    H16     84 0.13554100   1.008000   ; qtot 3.179536
   85         c3      2    bbb     C9     85 -0.06455200  12.010000   ; qtot 3.114984
   86         h1      2    bbb    H17     86 0.13554100   1.008000   ; qtot 3.250525
   87         h1      2    bbb    H18     87 0.13554100   1.008000   ; qtot 3.386066
   88         os      2    bbb     O1     88 -0.62587700  16.000000   ; qtot 2.760189
   89         hn      2    bbb    H19     89 0.23982500   1.008000   ; qtot 3.000014
; residue    3 bbb rtp bbb q 1.0
   90         n4      3    bbb     N1     90 0.03726400  14.010000   ; qtot 3.037278
   91         c3      3    bbb     C1     91 -0.07020100  12.010000   ; qtot 2.967077
   92         hx      3    bbb     H1     92 0.12219000   1.008000   ; qtot 3.089267
   93         hx      3    bbb     H2     93 0.12219000   1.008000   ; qtot 3.211457
   94         c3      3    bbb     C2     94 -0.07020100  12.010000   ; qtot 3.141256
   95         hx      3    bbb     H3     95 0.12219000   1.008000   ; qtot 3.263446
   96         hx      3    bbb     H4     96 0.12219000   1.008000   ; qtot 3.385636
   97         c3      3    bbb     C3     97 -0.39007700  12.010000   ; qtot 2.995559
   98         hx      3    bbb     H5     98 0.14940300   1.008000   ; qtot 3.144962
   99         hx      3    bbb     H6     99 0.14940300   1.008000   ; qtot 3.294365
  100         c3      3    bbb     C4    100 0.18057300  12.010000   ; qtot 3.474938
  101         hc      3    bbb     H7    101 0.01788900   1.008000   ; qtot 3.492827
  102         hc      3    bbb     H8    102 0.01788900   1.008000   ; qtot 3.510716
  103         c3      3    bbb     C5    103 -0.11337700  12.010000   ; qtot 3.397339
  104         hc      3    bbb     H9    104 0.09515400   1.008000   ; qtot 3.492493
  105         hc      3    bbb    H10    105 0.09515400   1.008000   ; qtot 3.587647
  106         c3      3    bbb     C6    106 -0.11337700  12.010000   ; qtot 3.474270
  107         hc      3    bbb    H11    107 0.09515400   1.008000   ; qtot 3.569424
  108         hc      3    bbb    H12    108 0.09515400   1.008000   ; qtot 3.664578
  109         c3      3    bbb     C7    109 0.21842400  12.010000   ; qtot 3.883002
  110         h1      3    bbb    H13    110 0.04500300   1.008000   ; qtot 3.928005
  111         h1      3    bbb    H14    111 0.04500300   1.008000   ; qtot 3.973008
  112         c3      3    bbb     C8    112 -0.06455200  12.010000   ; qtot 3.908456
  113         h1      3    bbb    H15    113 0.13554100   1.008000   ; qtot 4.043997
  114         h1      3    bbb    H16    114 0.13554100   1.008000   ; qtot 4.179538
  115         c3      3    bbb     C9    115 -0.06455200  12.010000   ; qtot 4.114986
  116         h1      3    bbb    H17    116 0.13554100   1.008000   ; qtot 4.250527
  117         h1      3    bbb    H18    117 0.13554100   1.008000   ; qtot 4.386068
  118         os      3    bbb     O1    118 -0.62587700  16.000000   ; qtot 3.760191
  119         hn      3    bbb    H19    119 0.23982500   1.008000   ; qtot 4.000016
; residue    4 bbb rtp bbb q 1.0
  120         n4      4    bbb     N1    120 0.03726400  14.010000   ; qtot 4.037280
  121         c3      4    bbb     C1    121 -0.07020100  12.010000   ; qtot 3.967079
  122         hx      4    bbb     H1    122 0.12219000   1.008000   ; qtot 4.089269
  123         hx      4    bbb     H2    123 0.12219000   1.008000   ; qtot 4.211459
  124         c3      4    bbb     C2    124 -0.07020100  12.010000   ; qtot 4.141258
  125         hx      4    bbb     H3    125 0.12219000   1.008000   ; qtot 4.263448
  126         hx      4    bbb     H4    126 0.12219000   1.008000   ; qtot 4.385638
  127         c3      4    bbb     C3    127 -0.39007700  12.010000   ; qtot 3.995561
  128         hx      4    bbb     H5    128 0.14940300   1.008000   ; qtot 4.144964
  129         hx      4    bbb     H6    129 0.14940300   1.008000   ; qtot 4.294367
  130         c3      4    bbb     C4    130 0.18057300  12.010000   ; qtot 4.474940
  131         hc      4    bbb     H7    131 0.01788900   1.008000   ; qtot 4.492829
  132         hc      4    bbb     H8    132 0.01788900   1.008000   ; qtot 4.510718
  133         c3      4    bbb     C5    133 -0.11337700  12.010000   ; qtot 4.397341
  134         hc      4    bbb     H9    134 0.09515400   1.008000   ; qtot 4.492495
  135         hc      4    bbb    H10    135 0.09515400   1.008000   ; qtot 4.587649
  136         c3      4    bbb     C6    136 -0.11337700  12.010000   ; qtot 4.474272
  137         hc      4    bbb    H11    137 0.09515400   1.008000   ; qtot 4.569426
  138         hc      4    bbb    H12    138 0.09515400   1.008000   ; qtot 4.664580
  139         c3      4    bbb     C7    139 0.21842400  12.010000   ; qtot 4.883004
  140         h1      4    bbb    H13    140 0.04500300   1.008000   ; qtot 4.928007
  141         h1      4    bbb    H14    141 0.04500300   1.008000   ; qtot 4.973010
  142         c3      4    bbb     C8    142 -0.06455200  12.010000   ; qtot 4.908458
  143         h1      4    bbb    H15    143 0.13554100   1.008000   ; qtot 5.043999
  144         h1      4    bbb    H16    144 0.13554100   1.008000   ; qtot 5.179540
  145         c3      4    bbb     C9    145 -0.06455200  12.010000   ; qtot 5.114988
  146         h1      4    bbb    H17    146 0.13554100   1.008000   ; qtot 5.250529
  147         h1      4    bbb    H18    147 0.13554100   1.008000   ; qtot 5.386070
  148         os      4    bbb     O1    148 -0.62587700  16.000000   ; qtot 4.760193
  149         hn      4    bbb    H19    149 0.23982500   1.008000   ; qtot 5.000018
; residue    5 bbb rtp bbb q 1.0
  150         n4      5    bbb     N1    150 0.03726400  14.010000   ; qtot 5.037282
  151         c3      5    bbb     C1    151 -0.07020100  12.010000   ; qtot 4.967081
  152         hx      5    bbb     H1    152 0.12219000   1.008000   ; qtot 5.089271
  153         hx      5    bbb     H2    153 0.12219000   1.008000   ; qtot 5.211461
  154         c3      5    bbb     C2    154 -0.07020100  12.010000   ; qtot 5.141260
  155         hx      5    bbb     H3    155 0.12219000   1.008000   ; qtot 5.263450
  156         hx      5    bbb     H4    156 0.12219000   1.008000   ; qtot 5.385640
  157         c3      5    bbb     C3    157 -0.39007700  12.010000   ; qtot 4.995563
  158         hx      5    bbb     H5    158 0.14940300   1.008000   ; qtot 5.144966
  159         hx      5    bbb     H6    159 0.14940300   1.008000   ; qtot 5.294369
  160         c3      5    bbb     C4    160 0.18057300  12.010000   ; qtot 5.474942
  161         hc      5    bbb     H7    161 0.01788900   1.008000   ; qtot 5.492831
  162         hc      5    bbb     H8    162 0.01788900   1.008000   ; qtot 5.510720
  163         c3      5    bbb     C5    163 -0.11337700  12.010000   ; qtot 5.397343
  164         hc      5    bbb     H9    164 0.09515400   1.008000   ; qtot 5.492497
  165         hc      5    bbb    H10    165 0.09515400   1.008000   ; qtot 5.587651
  166         c3      5    bbb     C6    166 -0.11337700  12.010000   ; qtot 5.474274
  167         hc      5    bbb    H11    167 0.09515400   1.008000   ; qtot 5.569428
  168         hc      5    bbb    H12    168 0.09515400   1.008000   ; qtot 5.664582
  169         c3      5    bbb     C7    169 0.21842400  12.010000   ; qtot 5.883006
  170         h1      5    bbb    H13    170 0.04500300   1.008000   ; qtot 5.928009
  171         h1      5    bbb    H14    171 0.04500300   1.008000   ; qtot 5.973012
  172         c3      5    bbb     C8    172 -0.06455200  12.010000   ; qtot 5.908460
  173         h1      5    bbb    H15    173 0.13554100   1.008000   ; qtot 6.044001
  174         h1      5    bbb    H16    174 0.13554100   1.008000   ; qtot 6.179542
  175         c3      5    bbb     C9    175 -0.06455200  12.010000   ; qtot 6.114990
  176         h1      5    bbb    H17    176 0.13554100   1.008000   ; qtot 6.250531
  177         h1      5    bbb    H18    177 0.13554100   1.008000   ; qtot 6.386072
  178         os      5    bbb     O1    178 -0.62587700  16.000000   ; qtot 5.760195
  179         hn      5    bbb    H19    179 0.23982500   1.008000   ; qtot 6.000020
; residue    6 bbb rtp bbb q 1.0
  180         n4      6    bbb     N1    180 0.03726400  14.010000   ; qtot 6.037284
  181         c3      6    bbb     C1    181 -0.07020100  12.010000   ; qtot 5.967083
  182         hx      6    bbb     H1    182 0.12219000   1.008000   ; qtot 6.089273
  183         hx      6    bbb     H2    183 0.12219000   1.008000   ; qtot 6.211463
  184         c3      6    bbb     C2    184 -0.07020100  12.010000   ; qtot 6.141262
  185         hx      6    bbb     H3    185 0.12219000   1.008000   ; qtot 6.263452
  186         hx      6    bbb     H4    186 0.12219000   1.008000   ; qtot 6.385642
  187         c3      6    bbb     C3    187 -0.39007700  12.010000   ; qtot 5.995565
  188         hx      6    bbb     H5    188 0.14940300   1.008000   ; qtot 6.144968
  189         hx      6    bbb     H6    189 0.14940300   1.008000   ; qtot 6.294371
  190         c3      6    bbb     C4    190 0.18057300  12.010000   ; qtot 6.474944
  191         hc      6    bbb     H7    191 0.01788900   1.008000   ; qtot 6.492833
  192         hc      6    bbb     H8    192 0.01788900   1.008000   ; qtot 6.510722
  193         c3      6    bbb     C5    193 -0.11337700  12.010000   ; qtot 6.397345
  194         hc      6    bbb     H9    194 0.09515400   1.008000   ; qtot 6.492499
  195         hc      6    bbb    H10    195 0.09515400   1.008000   ; qtot 6.587653
  196         c3      6    bbb     C6    196 -0.11337700  12.010000   ; qtot 6.474276
  197         hc      6    bbb    H11    197 0.09515400   1.008000   ; qtot 6.569430
  198         hc      6    bbb    H12    198 0.09515400   1.008000   ; qtot 6.664584
  199         c3      6    bbb     C7    199 0.21842400  12.010000   ; qtot 6.883008
  200         h1      6    bbb    H13    200 0.04500300   1.008000   ; qtot 6.928011
  201         h1      6    bbb    H14    201 0.04500300   1.008000   ; qtot 6.973014
  202         c3      6    bbb     C8    202 -0.06455200  12.010000   ; qtot 6.908462
  203         h1      6    bbb    H15    203 0.13554100   1.008000   ; qtot 7.044003
  204         h1      6    bbb    H16    204 0.13554100   1.008000   ; qtot 7.179544
  205         c3      6    bbb     C9    205 -0.06455200  12.010000   ; qtot 7.114992
  206         h1      6    bbb    H17    206 0.13554100   1.008000   ; qtot 7.250533
  207         h1      6    bbb    H18    207 0.13554100   1.008000   ; qtot 7.386074
  208         os      6    bbb     O1    208 -0.62587700  16.000000   ; qtot 6.760197
  209         hn      6    bbb    H19    209 0.23982500   1.008000   ; qtot 7.000022
; residue    7 bbb rtp bbb q 1.0
  210         n4      7    bbb     N1    210 0.03726400  14.010000   ; qtot 7.037286
  211         c3      7    bbb     C1    211 -0.07020100  12.010000   ; qtot 6.967085
  212         hx      7    bbb     H1    212 0.12219000   1.008000   ; qtot 7.089275
  213         hx      7    bbb     H2    213 0.12219000   1.008000   ; qtot 7.211465
  214         c3      7    bbb     C2    214 -0.07020100  12.010000   ; qtot 7.141264
  215         hx      7    bbb     H3    215 0.12219000   1.008000   ; qtot 7.263454
  216         hx      7    bbb     H4    216 0.12219000   1.008000   ; qtot 7.385644
  217         c3      7    bbb     C3    217 -0.39007700  12.010000   ; qtot 6.995567
  218         hx      7    bbb     H5    218 0.14940300   1.008000   ; qtot 7.144970
  219         hx      7    bbb     H6    219 0.14940300   1.008000   ; qtot 7.294373
  220         c3      7    bbb     C4    220 0.18057300  12.010000   ; qtot 7.474946
  221         hc      7    bbb     H7    221 0.01788900   1.008000   ; qtot 7.492835
  222         hc      7    bbb     H8    222 0.01788900   1.008000   ; qtot 7.510724
  223         c3      7    bbb     C5    223 -0.11337700  12.010000   ; qtot 7.397347
  224         hc      7    bbb     H9    224 0.09515400   1.008000   ; qtot 7.492501
  225         hc      7    bbb    H10    225 0.09515400   1.008000   ; qtot 7.587655
  226         c3      7    bbb     C6    226 -0.11337700  12.010000   ; qtot 7.474278
  227         hc      7    bbb    H11    227 0.09515400   1.008000   ; qtot 7.569432
  228         hc      7    bbb    H12    228 0.09515400   1.008000   ; qtot 7.664586
  229         c3      7    bbb     C7    229 0.21842400  12.010000   ; qtot 7.883010
  230         h1      7    bbb    H13    230 0.04500300   1.008000   ; qtot 7.928013
  231         h1      7    bbb    H14    231 0.04500300   1.008000   ; qtot 7.973016
  232         c3      7    bbb     C8    232 -0.06455200  12.010000   ; qtot 7.908464
  233         h1      7    bbb    H15    233 0.13554100   1.008000   ; qtot 8.044005
  234         h1      7    bbb    H16    234 0.13554100   1.008000   ; qtot 8.179546
  235         c3      7    bbb     C9    235 -0.06455200  12.010000   ; qtot 8.114994
  236         h1      7    bbb    H17    236 0.13554100   1.008000   ; qtot 8.250535
  237         h1      7    bbb    H18    237 0.13554100   1.008000   ; qtot 8.386076
  238         os      7    bbb     O1    238 -0.62587700  16.000000   ; qtot 7.760199
  239         hn      7    bbb    H19    239 0.23982500   1.008000   ; qtot 8.000024
; residue    8 bbb rtp bbb q 1.0
  240         n4      8    bbb     N1    240 0.03726400  14.010000   ; qtot 8.037288
  241         c3      8    bbb     C1    241 -0.07020100  12.010000   ; qtot 7.967087
  242         hx      8    bbb     H1    242 0.12219000   1.008000   ; qtot 8.089277
  243         hx      8    bbb     H2    243 0.12219000   1.008000   ; qtot 8.211467
  244         c3      8    bbb     C2    244 -0.07020100  12.010000   ; qtot 8.141266
  245         hx      8    bbb     H3    245 0.12219000   1.008000   ; qtot 8.263456
  246         hx      8    bbb     H4    246 0.12219000   1.008000   ; qtot 8.385646
  247         c3      8    bbb     C3    247 -0.39007700  12.010000   ; qtot 7.995569
  248         hx      8    bbb     H5    248 0.14940300   1.008000   ; qtot 8.144972
  249         hx      8    bbb     H6    249 0.14940300   1.008000   ; qtot 8.294375
  250         c3      8    bbb     C4    250 0.18057300  12.010000   ; qtot 8.474948
  251         hc      8    bbb     H7    251 0.01788900   1.008000   ; qtot 8.492837
  252         hc      8    bbb     H8    252 0.01788900   1.008000   ; qtot 8.510726
  253         c3      8    bbb     C5    253 -0.11337700  12.010000   ; qtot 8.397349
  254         hc      8    bbb     H9    254 0.09515400   1.008000   ; qtot 8.492503
  255         hc      8    bbb    H10    255 0.09515400   1.008000   ; qtot 8.587657
  256         c3      8    bbb     C6    256 -0.11337700  12.010000   ; qtot 8.474280
  257         hc      8    bbb    H11    257 0.09515400   1.008000   ; qtot 8.569434
  258         hc      8    bbb    H12    258 0.09515400   1.008000   ; qtot 8.664588
  259         c3      8    bbb     C7    259 0.21842400  12.010000   ; qtot 8.883012
  260         h1      8    bbb    H13    260 0.04500300   1.008000   ; qtot 8.928015
  261         h1      8    bbb    H14    261 0.04500300   1.008000   ; qtot 8.973018
  262         c3      8    bbb     C8    262 -0.06455200  12.010000   ; qtot 8.908466
  263         h1      8    bbb    H15    263 0.13554100   1.008000   ; qtot 9.044007
  264         h1      8    bbb    H16    264 0.13554100   1.008000   ; qtot 9.179548
  265         c3      8    bbb     C9    265 -0.06455200  12.010000   ; qtot 9.114996
  266         h1      8    bbb    H17    266 0.13554100   1.008000   ; qtot 9.250537
  267         h1      8    bbb    H18    267 0.13554100   1.008000   ; qtot 9.386078
  268         os      8    bbb     O1    268 -0.62587700  16.000000   ; qtot 8.760201
  269         hn      8    bbb    H19    269 0.23982500   1.008000   ; qtot 9.000026
; residue    9 bbb rtp bbb q 1.0
  270         n4      9    bbb     N1    270 0.03726400  14.010000   ; qtot 9.037290
  271         c3      9    bbb     C1    271 -0.07020100  12.010000   ; qtot 8.967089
  272         hx      9    bbb     H1    272 0.12219000   1.008000   ; qtot 9.089279
  273         hx      9    bbb     H2    273 0.12219000   1.008000   ; qtot 9.211469
  274         c3      9    bbb     C2    274 -0.07020100  12.010000   ; qtot 9.141268
  275         hx      9    bbb     H3    275 0.12219000   1.008000   ; qtot 9.263458
  276         hx      9    bbb     H4    276 0.12219000   1.008000   ; qtot 9.385648
  277         c3      9    bbb     C3    277 -0.39007700  12.010000   ; qtot 8.995571
  278         hx      9    bbb     H5    278 0.14940300   1.008000   ; qtot 9.144974
  279         hx      9    bbb     H6    279 0.14940300   1.008000   ; qtot 9.294377
  280         c3      9    bbb     C4    280 0.18057300  12.010000   ; qtot 9.474950
  281         hc      9    bbb     H7    281 0.01788900   1.008000   ; qtot 9.492839
  282         hc      9    bbb     H8    282 0.01788900   1.008000   ; qtot 9.510728
  283         c3      9    bbb     C5    283 -0.11337700  12.010000   ; qtot 9.397351
  284         hc      9    bbb     H9    284 0.09515400   1.008000   ; qtot 9.492505
  285         hc      9    bbb    H10    285 0.09515400   1.008000   ; qtot 9.587659
  286         c3      9    bbb     C6    286 -0.11337700  12.010000   ; qtot 9.474282
  287         hc      9    bbb    H11    287 0.09515400   1.008000   ; qtot 9.569436
  288         hc      9    bbb    H12    288 0.09515400   1.008000   ; qtot 9.664590
  289         c3      9    bbb     C7    289 0.21842400  12.010000   ; qtot 9.883014
  290         h1      9    bbb    H13    290 0.04500300   1.008000   ; qtot 9.928017
  291         h1      9    bbb    H14    291 0.04500300   1.008000   ; qtot 9.973020
  292         c3      9    bbb     C8    292 -0.06455200  12.010000   ; qtot 9.908468
  293         h1      9    bbb    H15    293 0.13554100   1.008000   ; qtot 10.044009
  294         h1      9    bbb    H16    294 0.13554100   1.008000   ; qtot 10.179550
  295         c3      9    bbb     C9    295 -0.06455200  12.010000   ; qtot 10.114998
  296         h1      9    bbb    H17    296 0.13554100   1.008000   ; qtot 10.250539
  297         h1      9    bbb    H18    297 0.13554100   1.008000   ; qtot 10.386080
  298         os      9    bbb     O1    298 -0.62587700  16.000000   ; qtot 9.760203
  299         hn      9    bbb    H19    299 0.23982500   1.008000   ; qtot 10.000028
; residue   10 bbb rtp bbb q 1.0
  300         n4     10    bbb     N1    300 0.03726400  14.010000   ; qtot 10.037292
  301         c3     10    bbb     C1    301 -0.07020100  12.010000   ; qtot 9.967091
  302         hx     10    bbb     H1    302 0.12219000   1.008000   ; qtot 10.089281
  303         hx     10    bbb     H2    303 0.12219000   1.008000   ; qtot 10.211471
  304         c3     10    bbb     C2    304 -0.07020100  12.010000   ; qtot 10.141270
  305         hx     10    bbb     H3    305 0.12219000   1.008000   ; qtot 10.263460
  306         hx     10    bbb     H4    306 0.12219000   1.008000   ; qtot 10.385650
  307         c3     10    bbb     C3    307 -0.39007700  12.010000   ; qtot 9.995573
  308         hx     10    bbb     H5    308 0.14940300   1.008000   ; qtot 10.144976
  309         hx     10    bbb     H6    309 0.14940300   1.008000   ; qtot 10.294379
  310         c3     10    bbb     C4    310 0.18057300  12.010000   ; qtot 10.474952
  311         hc     10    bbb     H7    311 0.01788900   1.008000   ; qtot 10.492841
  312         hc     10    bbb     H8    312 0.01788900   1.008000   ; qtot 10.510730
  313         c3     10    bbb     C5    313 -0.11337700  12.010000   ; qtot 10.397353
  314         hc     10    bbb     H9    314 0.09515400   1.008000   ; qtot 10.492507
  315         hc     10    bbb    H10    315 0.09515400   1.008000   ; qtot 10.587661
  316         c3     10    bbb     C6    316 -0.11337700  12.010000   ; qtot 10.474284
  317         hc     10    bbb    H11    317 0.09515400   1.008000   ; qtot 10.569438
  318         hc     10    bbb    H12    318 0.09515400   1.008000   ; qtot 10.664592
  319         c3     10    bbb     C7    319 0.21842400  12.010000   ; qtot 10.883016
  320         h1     10    bbb    H13    320 0.04500300   1.008000   ; qtot 10.928019
  321         h1     10    bbb    H14    321 0.04500300   1.008000   ; qtot 10.973022
  322         c3     10    bbb     C8    322 -0.06455200  12.010000   ; qtot 10.908470
  323         h1     10    bbb    H15    323 0.13554100   1.008000   ; qtot 11.044011
  324         h1     10    bbb    H16    324 0.13554100   1.008000   ; qtot 11.179552
  325         c3     10    bbb     C9    325 -0.06455200  12.010000   ; qtot 11.115000
  326         h1     10    bbb    H17    326 0.13554100   1.008000   ; qtot 11.250541
  327         h1     10    bbb    H18    327 0.13554100   1.008000   ; qtot 11.386082
  328         os     10    bbb     O1    328 -0.62587700  16.000000   ; qtot 10.760205
  329         hn     10    bbb    H19    329 0.23982500   1.008000   ; qtot 11.000030
; residue   11 bbb rtp bbb q 1.0
  330         n4     11    bbb     N1    330 0.03726400  14.010000   ; qtot 11.037294
  331         c3     11    bbb     C1    331 -0.07020100  12.010000   ; qtot 10.967093
  332         hx     11    bbb     H1    332 0.12219000   1.008000   ; qtot 11.089283
  333         hx     11    bbb     H2    333 0.12219000   1.008000   ; qtot 11.211473
  334         c3     11    bbb     C2    334 -0.07020100  12.010000   ; qtot 11.141272
  335         hx     11    bbb     H3    335 0.12219000   1.008000   ; qtot 11.263462
  336         hx     11    bbb     H4    336 0.12219000   1.008000   ; qtot 11.385652
  337         c3     11    bbb     C3    337 -0.39007700  12.010000   ; qtot 10.995575
  338         hx     11    bbb     H5    338 0.14940300   1.008000   ; qtot 11.144978
  339         hx     11    bbb     H6    339 0.14940300   1.008000   ; qtot 11.294381
  340         c3     11    bbb     C4    340 0.18057300  12.010000   ; qtot 11.474954
  341         hc     11    bbb     H7    341 0.01788900   1.008000   ; qtot 11.492843
  342         hc     11    bbb     H8    342 0.01788900   1.008000   ; qtot 11.510732
  343         c3     11    bbb     C5    343 -0.11337700  12.010000   ; qtot 11.397355
  344         hc     11    bbb     H9    344 0.09515400   1.008000   ; qtot 11.492509
  345         hc     11    bbb    H10    345 0.09515400   1.008000   ; qtot 11.587663
  346         c3     11    bbb     C6    346 -0.11337700  12.010000   ; qtot 11.474286
  347         hc     11    bbb    H11    347 0.09515400   1.008000   ; qtot 11.569440
  348         hc     11    bbb    H12    348 0.09515400   1.008000   ; qtot 11.664594
  349         c3     11    bbb     C7    349 0.21842400  12.010000   ; qtot 11.883018
  350         h1     11    bbb    H13    350 0.04500300   1.008000   ; qtot 11.928021
  351         h1     11    bbb    H14    351 0.04500300   1.008000   ; qtot 11.973024
  352         c3     11    bbb     C8    352 -0.06455200  12.010000   ; qtot 11.908472
  353         h1     11    bbb    H15    353 0.13554100   1.008000   ; qtot 12.044013
  354         h1     11    bbb    H16    354 0.13554100   1.008000   ; qtot 12.179554
  355         c3     11    bbb     C9    355 -0.06455200  12.010000   ; qtot 12.115002
  356         h1     11    bbb    H17    356 0.13554100   1.008000   ; qtot 12.250543
  357         h1     11    bbb    H18    357 0.13554100   1.008000   ; qtot 12.386084
  358         os     11    bbb     O1    358 -0.62587700  16.000000   ; qtot 11.760207
  359         hn     11    bbb    H19    359 0.23982500   1.008000   ; qtot 12.000032
; residue   12 bbb rtp bbb q 1.0
  360         n4     12    bbb     N1    360 0.03726400  14.010000   ; qtot 12.037296
  361         c3     12    bbb     C1    361 -0.07020100  12.010000   ; qtot 11.967095
  362         hx     12    bbb     H1    362 0.12219000   1.008000   ; qtot 12.089285
  363         hx     12    bbb     H2    363 0.12219000   1.008000   ; qtot 12.211475
  364         c3     12    bbb     C2    364 -0.07020100  12.010000   ; qtot 12.141274
  365         hx     12    bbb     H3    365 0.12219000   1.008000   ; qtot 12.263464
  366         hx     12    bbb     H4    366 0.12219000   1.008000   ; qtot 12.385654
  367         c3     12    bbb     C3    367 -0.39007700  12.010000   ; qtot 11.995577
  368         hx     12    bbb     H5    368 0.14940300   1.008000   ; qtot 12.144980
  369         hx     12    bbb     H6    369 0.14940300   1.008000   ; qtot 12.294383
  370         c3     12    bbb     C4    370 0.18057300  12.010000   ; qtot 12.474956
  371         hc     12    bbb     H7    371 0.01788900   1.008000   ; qtot 12.492845
  372         hc     12    bbb     H8    372 0.01788900   1.008000   ; qtot 12.510734
  373         c3     12    bbb     C5    373 -0.11337700  12.010000   ; qtot 12.397357
  374         hc     12    bbb     H9    374 0.09515400   1.008000   ; qtot 12.492511
  375         hc     12    bbb    H10    375 0.09515400   1.008000   ; qtot 12.587665
  376         c3     12    bbb     C6    376 -0.11337700  12.010000   ; qtot 12.474288
  377         hc     12    bbb    H11    377 0.09515400   1.008000   ; qtot 12.569442
  378         hc     12    bbb    H12    378 0.09515400   1.008000   ; qtot 12.664596
  379         c3     12    bbb     C7    379 0.21842400  12.010000   ; qtot 12.883020
  380         h1     12    bbb    H13    380 0.04500300   1.008000   ; qtot 12.928023
  381         h1     12    bbb    H14    381 0.04500300   1.008000   ; qtot 12.973026
  382         c3     12    bbb     C8    382 -0.06455200  12.010000   ; qtot 12.908474
  383         h1     12    bbb    H15    383 0.13554100   1.008000   ; qtot 13.044015
  384         h1     12    bbb    H16    384 0.13554100   1.008000   ; qtot 13.179556
  385         c3     12    bbb     C9    385 -0.06455200  12.010000   ; qtot 13.115004
  386         h1     12    bbb    H17    386 0.13554100   1.008000   ; qtot 13.250545
  387         h1     12    bbb    H18    387 0.13554100   1.008000   ; qtot 13.386086
  388         os     12    bbb     O1    388 -0.62587700  16.000000   ; qtot 12.760209
  389         hn     12    bbb    H19    389 0.23982500   1.008000   ; qtot 13.000034
; residue   13 bbb rtp bbb q 1.0
  390         n4     13    bbb     N1    390 0.03726400  14.010000   ; qtot 13.037298
  391         c3     13    bbb     C1    391 -0.07020100  12.010000   ; qtot 12.967097
  392         hx     13    bbb     H1    392 0.12219000   1.008000   ; qtot 13.089287
  393         hx     13    bbb     H2    393 0.12219000   1.008000   ; qtot 13.211477
  394         c3     13    bbb     C2    394 -0.07020100  12.010000   ; qtot 13.141276
  395         hx     13    bbb     H3    395 0.12219000   1.008000   ; qtot 13.263466
  396         hx     13    bbb     H4    396 0.12219000   1.008000   ; qtot 13.385656
  397         c3     13    bbb     C3    397 -0.39007700  12.010000   ; qtot 12.995579
  398         hx     13    bbb     H5    398 0.14940300   1.008000   ; qtot 13.144982
  399         hx     13    bbb     H6    399 0.14940300   1.008000   ; qtot 13.294385
  400         c3     13    bbb     C4    400 0.18057300  12.010000   ; qtot 13.474958
  401         hc     13    bbb     H7    401 0.01788900   1.008000   ; qtot 13.492847
  402         hc     13    bbb     H8    402 0.01788900   1.008000   ; qtot 13.510736
  403         c3     13    bbb     C5    403 -0.11337700  12.010000   ; qtot 13.397359
  404         hc     13    bbb     H9    404 0.09515400   1.008000   ; qtot 13.492513
  405         hc     13    bbb    H10    405 0.09515400   1.008000   ; qtot 13.587667
  406         c3     13    bbb     C6    406 -0.11337700  12.010000   ; qtot 13.474290
  407         hc     13    bbb    H11    407 0.09515400   1.008000   ; qtot 13.569444
  408         hc     13    bbb    H12    408 0.09515400   1.008000   ; qtot 13.664598
  409         c3     13    bbb     C7    409 0.21842400  12.010000   ; qtot 13.883022
  410         h1     13    bbb    H13    410 0.04500300   1.008000   ; qtot 13.928025
  411         h1     13    bbb    H14    411 0.04500300   1.008000   ; qtot 13.973028
  412         c3     13    bbb     C8    412 -0.06455200  12.010000   ; qtot 13.908476
  413         h1     13    bbb    H15    413 0.13554100   1.008000   ; qtot 14.044017
  414         h1     13    bbb    H16    414 0.13554100   1.008000   ; qtot 14.179558
  415         c3     13    bbb     C9    415 -0.06455200  12.010000   ; qtot 14.115006
  416         h1     13    bbb    H17    416 0.13554100   1.008000   ; qtot 14.250547
  417         h1     13    bbb    H18    417 0.13554100   1.008000   ; qtot 14.386088
  418         os     13    bbb     O1    418 -0.62587700  16.000000   ; qtot 13.760211
  419         hn     13    bbb    H19    419 0.23982500   1.008000   ; qtot 14.000036
; residue   14 bbb rtp bbb q 1.0
  420         n4     14    bbb     N1    420 0.03726400  14.010000   ; qtot 14.037300
  421         c3     14    bbb     C1    421 -0.07020100  12.010000   ; qtot 13.967099
  422         hx     14    bbb     H1    422 0.12219000   1.008000   ; qtot 14.089289
  423         hx     14    bbb     H2    423 0.12219000   1.008000   ; qtot 14.211479
  424         c3     14    bbb     C2    424 -0.07020100  12.010000   ; qtot 14.141278
  425         hx     14    bbb     H3    425 0.12219000   1.008000   ; qtot 14.263468
  426         hx     14    bbb     H4    426 0.12219000   1.008000   ; qtot 14.385658
  427         c3     14    bbb     C3    427 -0.39007700  12.010000   ; qtot 13.995581
  428         hx     14    bbb     H5    428 0.14940300   1.008000   ; qtot 14.144984
  429         hx     14    bbb     H6    429 0.14940300   1.008000   ; qtot 14.294387
  430         c3     14    bbb     C4    430 0.18057300  12.010000   ; qtot 14.474960
  431         hc     14    bbb     H7    431 0.01788900   1.008000   ; qtot 14.492849
  432         hc     14    bbb     H8    432 0.01788900   1.008000   ; qtot 14.510738
  433         c3     14    bbb     C5    433 -0.11337700  12.010000   ; qtot 14.397361
  434         hc     14    bbb     H9    434 0.09515400   1.008000   ; qtot 14.492515
  435         hc     14    bbb    H10    435 0.09515400   1.008000   ; qtot 14.587669
  436         c3     14    bbb     C6    436 -0.11337700  12.010000   ; qtot 14.474292
  437         hc     14    bbb    H11    437 0.09515400   1.008000   ; qtot 14.569446
  438         hc     14    bbb    H12    438 0.09515400   1.008000   ; qtot 14.664600
  439         c3     14    bbb     C7    439 0.21842400  12.010000   ; qtot 14.883024
  440         h1     14    bbb    H13    440 0.04500300   1.008000   ; qtot 14.928027
  441         h1     14    bbb    H14    441 0.04500300   1.008000   ; qtot 14.973030
  442         c3     14    bbb     C8    442 -0.06455200  12.010000   ; qtot 14.908478
  443         h1     14    bbb    H15    443 0.13554100   1.008000   ; qtot 15.044019
  444         h1     14    bbb    H16    444 0.13554100   1.008000   ; qtot 15.179560
  445         c3     14    bbb     C9    445 -0.06455200  12.010000   ; qtot 15.115008
  446         h1     14    bbb    H17    446 0.13554100   1.008000   ; qtot 15.250549
  447         h1     14    bbb    H18    447 0.13554100   1.008000   ; qtot 15.386090
  448         os     14    bbb     O1    448 -0.62587700  16.000000   ; qtot 14.760213
  449         hn     14    bbb    H19    449 0.23982500   1.008000   ; qtot 15.000038
; residue   15 bbb rtp bbb q 1.0
  450         n4     15    bbb     N1    450 0.03726400  14.010000   ; qtot 15.037302
  451         c3     15    bbb     C1    451 -0.07020100  12.010000   ; qtot 14.967101
  452         hx     15    bbb     H1    452 0.12219000   1.008000   ; qtot 15.089291
  453         hx     15    bbb     H2    453 0.12219000   1.008000   ; qtot 15.211481
  454         c3     15    bbb     C2    454 -0.07020100  12.010000   ; qtot 15.141280
  455         hx     15    bbb     H3    455 0.12219000   1.008000   ; qtot 15.263470
  456         hx     15    bbb     H4    456 0.12219000   1.008000   ; qtot 15.385660
  457         c3     15    bbb     C3    457 -0.39007700  12.010000   ; qtot 14.995583
  458         hx     15    bbb     H5    458 0.14940300   1.008000   ; qtot 15.144986
  459         hx     15    bbb     H6    459 0.14940300   1.008000   ; qtot 15.294389
  460         c3     15    bbb     C4    460 0.18057300  12.010000   ; qtot 15.474962
  461         hc     15    bbb     H7    461 0.01788900   1.008000   ; qtot 15.492851
  462         hc     15    bbb     H8    462 0.01788900   1.008000   ; qtot 15.510740
  463         c3     15    bbb     C5    463 -0.11337700  12.010000   ; qtot 15.397363
  464         hc     15    bbb     H9    464 0.09515400   1.008000   ; qtot 15.492517
  465         hc     15    bbb    H10    465 0.09515400   1.008000   ; qtot 15.587671
  466         c3     15    bbb     C6    466 -0.11337700  12.010000   ; qtot 15.474294
  467         hc     15    bbb    H11    467 0.09515400   1.008000   ; qtot 15.569448
  468         hc     15    bbb    H12    468 0.09515400   1.008000   ; qtot 15.664602
  469         c3     15    bbb     C7    469 0.21842400  12.010000   ; qtot 15.883026
  470         h1     15    bbb    H13    470 0.04500300   1.008000   ; qtot 15.928029
  471         h1     15    bbb    H14    471 0.04500300   1.008000   ; qtot 15.973032
  472         c3     15    bbb     C8    472 -0.06455200  12.010000   ; qtot 15.908480
  473         h1     15    bbb    H15    473 0.13554100   1.008000   ; qtot 16.044021
  474         h1     15    bbb    H16    474 0.13554100   1.008000   ; qtot 16.179562
  475         c3     15    bbb     C9    475 -0.06455200  12.010000   ; qtot 16.115010
  476         h1     15    bbb    H17    476 0.13554100   1.008000   ; qtot 16.250551
  477         h1     15    bbb    H18    477 0.13554100   1.008000   ; qtot 16.386092
  478         os     15    bbb     O1    478 -0.62587700  16.000000   ; qtot 15.760215
  479         hn     15    bbb    H19    479 0.23982500   1.008000   ; qtot 16.000040
; residue   16 bbb rtp bbb q 1.0
  480         n4     16    bbb     N1    480 0.03726400  14.010000   ; qtot 16.037304
  481         c3     16    bbb     C1    481 -0.07020100  12.010000   ; qtot 15.967103
  482         hx     16    bbb     H1    482 0.12219000   1.008000   ; qtot 16.089293
  483         hx     16    bbb     H2    483 0.12219000   1.008000   ; qtot 16.211483
  484         c3     16    bbb     C2    484 -0.07020100  12.010000   ; qtot 16.141282
  485         hx     16    bbb     H3    485 0.12219000   1.008000   ; qtot 16.263472
  486         hx     16    bbb     H4    486 0.12219000   1.008000   ; qtot 16.385662
  487         c3     16    bbb     C3    487 -0.39007700  12.010000   ; qtot 15.995585
  488         hx     16    bbb     H5    488 0.14940300   1.008000   ; qtot 16.144988
  489         hx     16    bbb     H6    489 0.14940300   1.008000   ; qtot 16.294391
  490         c3     16    bbb     C4    490 0.18057300  12.010000   ; qtot 16.474964
  491         hc     16    bbb     H7    491 0.01788900   1.008000   ; qtot 16.492853
  492         hc     16    bbb     H8    492 0.01788900   1.008000   ; qtot 16.510742
  493         c3     16    bbb     C5    493 -0.11337700  12.010000   ; qtot 16.397365
  494         hc     16    bbb     H9    494 0.09515400   1.008000   ; qtot 16.492519
  495         hc     16    bbb    H10    495 0.09515400   1.008000   ; qtot 16.587673
  496         c3     16    bbb     C6    496 -0.11337700  12.010000   ; qtot 16.474296
  497         hc     16    bbb    H11    497 0.09515400   1.008000   ; qtot 16.569450
  498         hc     16    bbb    H12    498 0.09515400   1.008000   ; qtot 16.664604
  499         c3     16    bbb     C7    499 0.21842400  12.010000   ; qtot 16.883028
  500         h1     16    bbb    H13    500 0.04500300   1.008000   ; qtot 16.928031
  501         h1     16    bbb    H14    501 0.04500300   1.008000   ; qtot 16.973034
  502         c3     16    bbb     C8    502 -0.06455200  12.010000   ; qtot 16.908482
  503         h1     16    bbb    H15    503 0.13554100   1.008000   ; qtot 17.044023
  504         h1     16    bbb    H16    504 0.13554100   1.008000   ; qtot 17.179564
  505         c3     16    bbb     C9    505 -0.06455200  12.010000   ; qtot 17.115012
  506         h1     16    bbb    H17    506 0.13554100   1.008000   ; qtot 17.250553
  507         h1     16    bbb    H18    507 0.13554100   1.008000   ; qtot 17.386094
  508         os     16    bbb     O1    508 -0.62587700  16.000000   ; qtot 16.760217
  509         hn     16    bbb    H19    509 0.23982500   1.008000   ; qtot 17.000042
; residue   17 bbb rtp bbb q 1.0
  510         n4     17    bbb     N1    510 0.03726400  14.010000   ; qtot 17.037306
  511         c3     17    bbb     C1    511 -0.07020100  12.010000   ; qtot 16.967105
  512         hx     17    bbb     H1    512 0.12219000   1.008000   ; qtot 17.089295
  513         hx     17    bbb     H2    513 0.12219000   1.008000   ; qtot 17.211485
  514         c3     17    bbb     C2    514 -0.07020100  12.010000   ; qtot 17.141284
  515         hx     17    bbb     H3    515 0.12219000   1.008000   ; qtot 17.263474
  516         hx     17    bbb     H4    516 0.12219000   1.008000   ; qtot 17.385664
  517         c3     17    bbb     C3    517 -0.39007700  12.010000   ; qtot 16.995587
  518         hx     17    bbb     H5    518 0.14940300   1.008000   ; qtot 17.144990
  519         hx     17    bbb     H6    519 0.14940300   1.008000   ; qtot 17.294393
  520         c3     17    bbb     C4    520 0.18057300  12.010000   ; qtot 17.474966
  521         hc     17    bbb     H7    521 0.01788900   1.008000   ; qtot 17.492855
  522         hc     17    bbb     H8    522 0.01788900   1.008000   ; qtot 17.510744
  523         c3     17    bbb     C5    523 -0.11337700  12.010000   ; qtot 17.397367
  524         hc     17    bbb     H9    524 0.09515400   1.008000   ; qtot 17.492521
  525         hc     17    bbb    H10    525 0.09515400   1.008000   ; qtot 17.587675
  526         c3     17    bbb     C6    526 -0.11337700  12.010000   ; qtot 17.474298
  527         hc     17    bbb    H11    527 0.09515400   1.008000   ; qtot 17.569452
  528         hc     17    bbb    H12    528 0.09515400   1.008000   ; qtot 17.664606
  529         c3     17    bbb     C7    529 0.21842400  12.010000   ; qtot 17.883030
  530         h1     17    bbb    H13    530 0.04500300   1.008000   ; qtot 17.928033
  531         h1     17    bbb    H14    531 0.04500300   1.008000   ; qtot 17.973036
  532         c3     17    bbb     C8    532 -0.06455200  12.010000   ; qtot 17.908484
  533         h1     17    bbb    H15    533 0.13554100   1.008000   ; qtot 18.044025
  534         h1     17    bbb    H16    534 0.13554100   1.008000   ; qtot 18.179566
  535         c3     17    bbb     C9    535 -0.06455200  12.010000   ; qtot 18.115014
  536         h1     17    bbb    H17    536 0.13554100   1.008000   ; qtot 18.250555
  537         h1     17    bbb    H18    537 0.13554100   1.008000   ; qtot 18.386096
  538         os     17    bbb     O1    538 -0.62587700  16.000000   ; qtot 17.760219
  539         hn     17    bbb    H19    539 0.23982500   1.008000   ; qtot 18.000044
; residue   18 bbb rtp bbb q 1.0
  540         n4     18    bbb     N1    540 0.03726400  14.010000   ; qtot 18.037308
  541         c3     18    bbb     C1    541 -0.07020100  12.010000   ; qtot 17.967107
  542         hx     18    bbb     H1    542 0.12219000   1.008000   ; qtot 18.089297
  543         hx     18    bbb     H2    543 0.12219000   1.008000   ; qtot 18.211487
  544         c3     18    bbb     C2    544 -0.07020100  12.010000   ; qtot 18.141286
  545         hx     18    bbb     H3    545 0.12219000   1.008000   ; qtot 18.263476
  546         hx     18    bbb     H4    546 0.12219000   1.008000   ; qtot 18.385666
  547         c3     18    bbb     C3    547 -0.39007700  12.010000   ; qtot 17.995589
  548         hx     18    bbb     H5    548 0.14940300   1.008000   ; qtot 18.144992
  549         hx     18    bbb     H6    549 0.14940300   1.008000   ; qtot 18.294395
  550         c3     18    bbb     C4    550 0.18057300  12.010000   ; qtot 18.474968
  551         hc     18    bbb     H7    551 0.01788900   1.008000   ; qtot 18.492857
  552         hc     18    bbb     H8    552 0.01788900   1.008000   ; qtot 18.510746
  553         c3     18    bbb     C5    553 -0.11337700  12.010000   ; qtot 18.397369
  554         hc     18    bbb     H9    554 0.09515400   1.008000   ; qtot 18.492523
  555         hc     18    bbb    H10    555 0.09515400   1.008000   ; qtot 18.587677
  556         c3     18    bbb     C6    556 -0.11337700  12.010000   ; qtot 18.474300
  557         hc     18    bbb    H11    557 0.09515400   1.008000   ; qtot 18.569454
  558         hc     18    bbb    H12    558 0.09515400   1.008000   ; qtot 18.664608
  559         c3     18    bbb     C7    559 0.21842400  12.010000   ; qtot 18.883032
  560         h1     18    bbb    H13    560 0.04500300   1.008000   ; qtot 18.928035
  561         h1     18    bbb    H14    561 0.04500300   1.008000   ; qtot 18.973038
  562         c3     18    bbb     C8    562 -0.06455200  12.010000   ; qtot 18.908486
  563         h1     18    bbb    H15    563 0.13554100   1.008000   ; qtot 19.044027
  564         h1     18    bbb    H16    564 0.13554100   1.008000   ; qtot 19.179568
  565         c3     18    bbb     C9    565 -0.06455200  12.010000   ; qtot 19.115016
  566         h1     18    bbb    H17    566 0.13554100   1.008000   ; qtot 19.250557
  567         h1     18    bbb    H18    567 0.13554100   1.008000   ; qtot 19.386098
  568         os     18    bbb     O1    568 -0.62587700  16.000000   ; qtot 18.760221
  569         hn     18    bbb    H19    569 0.23982500   1.008000   ; qtot 19.000046
; residue   19 bbb rtp bbb q 1.0
  570         n4     19    bbb     N1    570 0.03726400  14.010000   ; qtot 19.037310
  571         c3     19    bbb     C1    571 -0.07020100  12.010000   ; qtot 18.967109
  572         hx     19    bbb     H1    572 0.12219000   1.008000   ; qtot 19.089299
  573         hx     19    bbb     H2    573 0.12219000   1.008000   ; qtot 19.211489
  574         c3     19    bbb     C2    574 -0.07020100  12.010000   ; qtot 19.141288
  575         hx     19    bbb     H3    575 0.12219000   1.008000   ; qtot 19.263478
  576         hx     19    bbb     H4    576 0.12219000   1.008000   ; qtot 19.385668
  577         c3     19    bbb     C3    577 -0.39007700  12.010000   ; qtot 18.995591
  578         hx     19    bbb     H5    578 0.14940300   1.008000   ; qtot 19.144994
  579         hx     19    bbb     H6    579 0.14940300   1.008000   ; qtot 19.294397
  580         c3     19    bbb     C4    580 0.18057300  12.010000   ; qtot 19.474970
  581         hc     19    bbb     H7    581 0.01788900   1.008000   ; qtot 19.492859
  582         hc     19    bbb     H8    582 0.01788900   1.008000   ; qtot 19.510748
  583         c3     19    bbb     C5    583 -0.11337700  12.010000   ; qtot 19.397371
  584         hc     19    bbb     H9    584 0.09515400   1.008000   ; qtot 19.492525
  585         hc     19    bbb    H10    585 0.09515400   1.008000   ; qtot 19.587679
  586         c3     19    bbb     C6    586 -0.11337700  12.010000   ; qtot 19.474302
  587         hc     19    bbb    H11    587 0.09515400   1.008000   ; qtot 19.569456
  588         hc     19    bbb    H12    588 0.09515400   1.008000   ; qtot 19.664610
  589         c3     19    bbb     C7    589 0.21842400  12.010000   ; qtot 19.883034
  590         h1     19    bbb    H13    590 0.04500300   1.008000   ; qtot 19.928037
  591         h1     19    bbb    H14    591 0.04500300   1.008000   ; qtot 19.973040
  592         c3     19    bbb     C8    592 -0.06455200  12.010000   ; qtot 19.908488
  593         h1     19    bbb    H15    593 0.13554100   1.008000   ; qtot 20.044029
  594         h1     19    bbb    H16    594 0.13554100   1.008000   ; qtot 20.179570
  595         c3     19    bbb     C9    595 -0.06455200  12.010000   ; qtot 20.115018
  596         h1     19    bbb    H17    596 0.13554100   1.008000   ; qtot 20.250559
  597         h1     19    bbb    H18    597 0.13554100   1.008000   ; qtot 20.386100
  598         os     19    bbb     O1    598 -0.62587700  16.000000   ; qtot 19.760223
  599         hn     19    bbb    H19    599 0.23982500   1.008000   ; qtot 20.000048
; residue   20 bbb rtp bbb q 1.0
  600         n4     20    bbb     N1    600 0.03726400  14.010000   ; qtot 20.037312
  601         c3     20    bbb     C1    601 -0.07020100  12.010000   ; qtot 19.967111
  602         hx     20    bbb     H1    602 0.12219000   1.008000   ; qtot 20.089301
  603         hx     20    bbb     H2    603 0.12219000   1.008000   ; qtot 20.211491
  604         c3     20    bbb     C2    604 -0.07020100  12.010000   ; qtot 20.141290
  605         hx     20    bbb     H3    605 0.12219000   1.008000   ; qtot 20.263480
  606         hx     20    bbb     H4    606 0.12219000   1.008000   ; qtot 20.385670
  607         c3     20    bbb     C3    607 -0.39007700  12.010000   ; qtot 19.995593
  608         hx     20    bbb     H5    608 0.14940300   1.008000   ; qtot 20.144996
  609         hx     20    bbb     H6    609 0.14940300   1.008000   ; qtot 20.294399
  610         c3     20    bbb     C4    610 0.18057300  12.010000   ; qtot 20.474972
  611         hc     20    bbb     H7    611 0.01788900   1.008000   ; qtot 20.492861
  612         hc     20    bbb     H8    612 0.01788900   1.008000   ; qtot 20.510750
  613         c3     20    bbb     C5    613 -0.11337700  12.010000   ; qtot 20.397373
  614         hc     20    bbb     H9    614 0.09515400   1.008000   ; qtot 20.492527
  615         hc     20    bbb    H10    615 0.09515400   1.008000   ; qtot 20.587681
  616         c3     20    bbb     C6    616 -0.11337700  12.010000   ; qtot 20.474304
  617         hc     20    bbb    H11    617 0.09515400   1.008000   ; qtot 20.569458
  618         hc     20    bbb    H12    618 0.09515400   1.008000   ; qtot 20.664612
  619         c3     20    bbb     C7    619 0.21842400  12.010000   ; qtot 20.883036
  620         h1     20    bbb    H13    620 0.04500300   1.008000   ; qtot 20.928039
  621         h1     20    bbb    H14    621 0.04500300   1.008000   ; qtot 20.973042
  622         c3     20    bbb     C8    622 -0.06455200  12.010000   ; qtot 20.908490
  623         h1     20    bbb    H15    623 0.13554100   1.008000   ; qtot 21.044031
  624         h1     20    bbb    H16    624 0.13554100   1.008000   ; qtot 21.179572
  625         c3     20    bbb     C9    625 -0.06455200  12.010000   ; qtot 21.115020
  626         h1     20    bbb    H17    626 0.13554100   1.008000   ; qtot 21.250561
  627         h1     20    bbb    H18    627 0.13554100   1.008000   ; qtot 21.386102
  628         os     20    bbb     O1    628 -0.62587700  16.000000   ; qtot 20.760225
  629         hn     20    bbb    H19    629 0.23982500   1.008000   ; qtot 21.000050
; residue   21 bbb rtp bbb q 1.0
  630         n4     21    bbb     N1    630 0.03726400  14.010000   ; qtot 21.037314
  631         c3     21    bbb     C1    631 -0.07020100  12.010000   ; qtot 20.967113
  632         hx     21    bbb     H1    632 0.12219000   1.008000   ; qtot 21.089303
  633         hx     21    bbb     H2    633 0.12219000   1.008000   ; qtot 21.211493
  634         c3     21    bbb     C2    634 -0.07020100  12.010000   ; qtot 21.141292
  635         hx     21    bbb     H3    635 0.12219000   1.008000   ; qtot 21.263482
  636         hx     21    bbb     H4    636 0.12219000   1.008000   ; qtot 21.385672
  637         c3     21    bbb     C3    637 -0.39007700  12.010000   ; qtot 20.995595
  638         hx     21    bbb     H5    638 0.14940300   1.008000   ; qtot 21.144998
  639         hx     21    bbb     H6    639 0.14940300   1.008000   ; qtot 21.294401
  640         c3     21    bbb     C4    640 0.18057300  12.010000   ; qtot 21.474974
  641         hc     21    bbb     H7    641 0.01788900   1.008000   ; qtot 21.492863
  642         hc     21    bbb     H8    642 0.01788900   1.008000   ; qtot 21.510752
  643         c3     21    bbb     C5    643 -0.11337700  12.010000   ; qtot 21.397375
  644         hc     21    bbb     H9    644 0.09515400   1.008000   ; qtot 21.492529
  645         hc     21    bbb    H10    645 0.09515400   1.008000   ; qtot 21.587683
  646         c3     21    bbb     C6    646 -0.11337700  12.010000   ; qtot 21.474306
  647         hc     21    bbb    H11    647 0.09515400   1.008000   ; qtot 21.569460
  648         hc     21    bbb    H12    648 0.09515400   1.008000   ; qtot 21.664614
  649         c3     21    bbb     C7    649 0.21842400  12.010000   ; qtot 21.883038
  650         h1     21    bbb    H13    650 0.04500300   1.008000   ; qtot 21.928041
  651         h1     21    bbb    H14    651 0.04500300   1.008000   ; qtot 21.973044
  652         c3     21    bbb     C8    652 -0.06455200  12.010000   ; qtot 21.908492
  653         h1     21    bbb    H15    653 0.13554100   1.008000   ; qtot 22.044033
  654         h1     21    bbb    H16    654 0.13554100   1.008000   ; qtot 22.179574
  655         c3     21    bbb     C9    655 -0.06455200  12.010000   ; qtot 22.115022
  656         h1     21    bbb    H17    656 0.13554100   1.008000   ; qtot 22.250563
  657         h1     21    bbb    H18    657 0.13554100   1.008000   ; qtot 22.386104
  658         os     21    bbb     O1    658 -0.62587700  16.000000   ; qtot 21.760227
  659         hn     21    bbb    H19    659 0.23982500   1.008000   ; qtot 22.000052
; residue   22 bbb rtp bbb q 1.0
  660         n4     22    bbb     N1    660 0.03726400  14.010000   ; qtot 22.037316
  661         c3     22    bbb     C1    661 -0.07020100  12.010000   ; qtot 21.967115
  662         hx     22    bbb     H1    662 0.12219000   1.008000   ; qtot 22.089305
  663         hx     22    bbb     H2    663 0.12219000   1.008000   ; qtot 22.211495
  664         c3     22    bbb     C2    664 -0.07020100  12.010000   ; qtot 22.141294
  665         hx     22    bbb     H3    665 0.12219000   1.008000   ; qtot 22.263484
  666         hx     22    bbb     H4    666 0.12219000   1.008000   ; qtot 22.385674
  667         c3     22    bbb     C3    667 -0.39007700  12.010000   ; qtot 21.995597
  668         hx     22    bbb     H5    668 0.14940300   1.008000   ; qtot 22.145000
  669         hx     22    bbb     H6    669 0.14940300   1.008000   ; qtot 22.294403
  670         c3     22    bbb     C4    670 0.18057300  12.010000   ; qtot 22.474976
  671         hc     22    bbb     H7    671 0.01788900   1.008000   ; qtot 22.492865
  672         hc     22    bbb     H8    672 0.01788900   1.008000   ; qtot 22.510754
  673         c3     22    bbb     C5    673 -0.11337700  12.010000   ; qtot 22.397377
  674         hc     22    bbb     H9    674 0.09515400   1.008000   ; qtot 22.492531
  675         hc     22    bbb    H10    675 0.09515400   1.008000   ; qtot 22.587685
  676         c3     22    bbb     C6    676 -0.11337700  12.010000   ; qtot 22.474308
  677         hc     22    bbb    H11    677 0.09515400   1.008000   ; qtot 22.569462
  678         hc     22    bbb    H12    678 0.09515400   1.008000   ; qtot 22.664616
  679         c3     22    bbb     C7    679 0.21842400  12.010000   ; qtot 22.883040
  680         h1     22    bbb    H13    680 0.04500300   1.008000   ; qtot 22.928043
  681         h1     22    bbb    H14    681 0.04500300   1.008000   ; qtot 22.973046
  682         c3     22    bbb     C8    682 -0.06455200  12.010000   ; qtot 22.908494
  683         h1     22    bbb    H15    683 0.13554100   1.008000   ; qtot 23.044035
  684         h1     22    bbb    H16    684 0.13554100   1.008000   ; qtot 23.179576
  685         c3     22    bbb     C9    685 -0.06455200  12.010000   ; qtot 23.115024
  686         h1     22    bbb    H17    686 0.13554100   1.008000   ; qtot 23.250565
  687         h1     22    bbb    H18    687 0.13554100   1.008000   ; qtot 23.386106
  688         os     22    bbb     O1    688 -0.62587700  16.000000   ; qtot 22.760229
  689         hn     22    bbb    H19    689 0.23982500   1.008000   ; qtot 23.000054
; residue   23 bbb rtp bbb q 1.0
  690         n4     23    bbb     N1    690 0.03726400  14.010000   ; qtot 23.037318
  691         c3     23    bbb     C1    691 -0.07020100  12.010000   ; qtot 22.967117
  692         hx     23    bbb     H1    692 0.12219000   1.008000   ; qtot 23.089307
  693         hx     23    bbb     H2    693 0.12219000   1.008000   ; qtot 23.211497
  694         c3     23    bbb     C2    694 -0.07020100  12.010000   ; qtot 23.141296
  695         hx     23    bbb     H3    695 0.12219000   1.008000   ; qtot 23.263486
  696         hx     23    bbb     H4    696 0.12219000   1.008000   ; qtot 23.385676
  697         c3     23    bbb     C3    697 -0.39007700  12.010000   ; qtot 22.995599
  698         hx     23    bbb     H5    698 0.14940300   1.008000   ; qtot 23.145002
  699         hx     23    bbb     H6    699 0.14940300   1.008000   ; qtot 23.294405
  700         c3     23    bbb     C4    700 0.18057300  12.010000   ; qtot 23.474978
  701         hc     23    bbb     H7    701 0.01788900   1.008000   ; qtot 23.492867
  702         hc     23    bbb     H8    702 0.01788900   1.008000   ; qtot 23.510756
  703         c3     23    bbb     C5    703 -0.11337700  12.010000   ; qtot 23.397379
  704         hc     23    bbb     H9    704 0.09515400   1.008000   ; qtot 23.492533
  705         hc     23    bbb    H10    705 0.09515400   1.008000   ; qtot 23.587687
  706         c3     23    bbb     C6    706 -0.11337700  12.010000   ; qtot 23.474310
  707         hc     23    bbb    H11    707 0.09515400   1.008000   ; qtot 23.569464
  708         hc     23    bbb    H12    708 0.09515400   1.008000   ; qtot 23.664618
  709         c3     23    bbb     C7    709 0.21842400  12.010000   ; qtot 23.883042
  710         h1     23    bbb    H13    710 0.04500300   1.008000   ; qtot 23.928045
  711         h1     23    bbb    H14    711 0.04500300   1.008000   ; qtot 23.973048
  712         c3     23    bbb     C8    712 -0.06455200  12.010000   ; qtot 23.908496
  713         h1     23    bbb    H15    713 0.13554100   1.008000   ; qtot 24.044037
  714         h1     23    bbb    H16    714 0.13554100   1.008000   ; qtot 24.179578
  715         c3     23    bbb     C9    715 -0.06455200  12.010000   ; qtot 24.115026
  716         h1     23    bbb    H17    716 0.13554100   1.008000   ; qtot 24.250567
  717         h1     23    bbb    H18    717 0.13554100   1.008000   ; qtot 24.386108
  718         os     23    bbb     O1    718 -0.62587700  16.000000   ; qtot 23.760231
  719         hn     23    bbb    H19    719 0.23982500   1.008000   ; qtot 24.000056
; residue   24 bbb rtp bbb q 1.0
  720         n4     24    bbb     N1    720 0.03726400  14.010000   ; qtot 24.037320
  721         c3     24    bbb     C1    721 -0.07020100  12.010000   ; qtot 23.967119
  722         hx     24    bbb     H1    722 0.12219000   1.008000   ; qtot 24.089309
  723         hx     24    bbb     H2    723 0.12219000   1.008000   ; qtot 24.211499
  724         c3     24    bbb     C2    724 -0.07020100  12.010000   ; qtot 24.141298
  725         hx     24    bbb     H3    725 0.12219000   1.008000   ; qtot 24.263488
  726         hx     24    bbb     H4    726 0.12219000   1.008000   ; qtot 24.385678
  727         c3     24    bbb     C3    727 -0.39007700  12.010000   ; qtot 23.995601
  728         hx     24    bbb     H5    728 0.14940300   1.008000   ; qtot 24.145004
  729         hx     24    bbb     H6    729 0.14940300   1.008000   ; qtot 24.294407
  730         c3     24    bbb     C4    730 0.18057300  12.010000   ; qtot 24.474980
  731         hc     24    bbb     H7    731 0.01788900   1.008000   ; qtot 24.492869
  732         hc     24    bbb     H8    732 0.01788900   1.008000   ; qtot 24.510758
  733         c3     24    bbb     C5    733 -0.11337700  12.010000   ; qtot 24.397381
  734         hc     24    bbb     H9    734 0.09515400   1.008000   ; qtot 24.492535
  735         hc     24    bbb    H10    735 0.09515400   1.008000   ; qtot 24.587689
  736         c3     24    bbb     C6    736 -0.11337700  12.010000   ; qtot 24.474312
  737         hc     24    bbb    H11    737 0.09515400   1.008000   ; qtot 24.569466
  738         hc     24    bbb    H12    738 0.09515400   1.008000   ; qtot 24.664620
  739         c3     24    bbb     C7    739 0.21842400  12.010000   ; qtot 24.883044
  740         h1     24    bbb    H13    740 0.04500300   1.008000   ; qtot 24.928047
  741         h1     24    bbb    H14    741 0.04500300   1.008000   ; qtot 24.973050
  742         c3     24    bbb     C8    742 -0.06455200  12.010000   ; qtot 24.908498
  743         h1     24    bbb    H15    743 0.13554100   1.008000   ; qtot 25.044039
  744         h1     24    bbb    H16    744 0.13554100   1.008000   ; qtot 25.179580
  745         c3     24    bbb     C9    745 -0.06455200  12.010000   ; qtot 25.115028
  746         h1     24    bbb    H17    746 0.13554100   1.008000   ; qtot 25.250569
  747         h1     24    bbb    H18    747 0.13554100   1.008000   ; qtot 25.386110
  748         os     24    bbb     O1    748 -0.62587700  16.000000   ; qtot 24.760233
  749         hn     24    bbb    H19    749 0.23982500   1.008000   ; qtot 25.000058
; residue   25 bbb rtp bbb q 1.0
  750         n4     25    bbb     N1    750 0.03726400  14.010000   ; qtot 25.037322
  751         c3     25    bbb     C1    751 -0.07020100  12.010000   ; qtot 24.967121
  752         hx     25    bbb     H1    752 0.12219000   1.008000   ; qtot 25.089311
  753         hx     25    bbb     H2    753 0.12219000   1.008000   ; qtot 25.211501
  754         c3     25    bbb     C2    754 -0.07020100  12.010000   ; qtot 25.141300
  755         hx     25    bbb     H3    755 0.12219000   1.008000   ; qtot 25.263490
  756         hx     25    bbb     H4    756 0.12219000   1.008000   ; qtot 25.385680
  757         c3     25    bbb     C3    757 -0.39007700  12.010000   ; qtot 24.995603
  758         hx     25    bbb     H5    758 0.14940300   1.008000   ; qtot 25.145006
  759         hx     25    bbb     H6    759 0.14940300   1.008000   ; qtot 25.294409
  760         c3     25    bbb     C4    760 0.18057300  12.010000   ; qtot 25.474982
  761         hc     25    bbb     H7    761 0.01788900   1.008000   ; qtot 25.492871
  762         hc     25    bbb     H8    762 0.01788900   1.008000   ; qtot 25.510760
  763         c3     25    bbb     C5    763 -0.11337700  12.010000   ; qtot 25.397383
  764         hc     25    bbb     H9    764 0.09515400   1.008000   ; qtot 25.492537
  765         hc     25    bbb    H10    765 0.09515400   1.008000   ; qtot 25.587691
  766         c3     25    bbb     C6    766 -0.11337700  12.010000   ; qtot 25.474314
  767         hc     25    bbb    H11    767 0.09515400   1.008000   ; qtot 25.569468
  768         hc     25    bbb    H12    768 0.09515400   1.008000   ; qtot 25.664622
  769         c3     25    bbb     C7    769 0.21842400  12.010000   ; qtot 25.883046
  770         h1     25    bbb    H13    770 0.04500300   1.008000   ; qtot 25.928049
  771         h1     25    bbb    H14    771 0.04500300   1.008000   ; qtot 25.973052
  772         c3     25    bbb     C8    772 -0.06455200  12.010000   ; qtot 25.908500
  773         h1     25    bbb    H15    773 0.13554100   1.008000   ; qtot 26.044041
  774         h1     25    bbb    H16    774 0.13554100   1.008000   ; qtot 26.179582
  775         c3     25    bbb     C9    775 -0.06455200  12.010000   ; qtot 26.115030
  776         h1     25    bbb    H17    776 0.13554100   1.008000   ; qtot 26.250571
  777         h1     25    bbb    H18    777 0.13554100   1.008000   ; qtot 26.386112
  778         os     25    bbb     O1    778 -0.62587700  16.000000   ; qtot 25.760235
  779         hn     25    bbb    H19    779 0.23982500   1.008000   ; qtot 26.000060
; residue   26 bbb rtp bbb q 1.0
  780         n4     26    bbb     N1    780 0.03726400  14.010000   ; qtot 26.037324
  781         c3     26    bbb     C1    781 -0.07020100  12.010000   ; qtot 25.967123
  782         hx     26    bbb     H1    782 0.12219000   1.008000   ; qtot 26.089313
  783         hx     26    bbb     H2    783 0.12219000   1.008000   ; qtot 26.211503
  784         c3     26    bbb     C2    784 -0.07020100  12.010000   ; qtot 26.141302
  785         hx     26    bbb     H3    785 0.12219000   1.008000   ; qtot 26.263492
  786         hx     26    bbb     H4    786 0.12219000   1.008000   ; qtot 26.385682
  787         c3     26    bbb     C3    787 -0.39007700  12.010000   ; qtot 25.995605
  788         hx     26    bbb     H5    788 0.14940300   1.008000   ; qtot 26.145008
  789         hx     26    bbb     H6    789 0.14940300   1.008000   ; qtot 26.294411
  790         c3     26    bbb     C4    790 0.18057300  12.010000   ; qtot 26.474984
  791         hc     26    bbb     H7    791 0.01788900   1.008000   ; qtot 26.492873
  792         hc     26    bbb     H8    792 0.01788900   1.008000   ; qtot 26.510762
  793         c3     26    bbb     C5    793 -0.11337700  12.010000   ; qtot 26.397385
  794         hc     26    bbb     H9    794 0.09515400   1.008000   ; qtot 26.492539
  795         hc     26    bbb    H10    795 0.09515400   1.008000   ; qtot 26.587693
  796         c3     26    bbb     C6    796 -0.11337700  12.010000   ; qtot 26.474316
  797         hc     26    bbb    H11    797 0.09515400   1.008000   ; qtot 26.569470
  798         hc     26    bbb    H12    798 0.09515400   1.008000   ; qtot 26.664624
  799         c3     26    bbb     C7    799 0.21842400  12.010000   ; qtot 26.883048
  800         h1     26    bbb    H13    800 0.04500300   1.008000   ; qtot 26.928051
  801         h1     26    bbb    H14    801 0.04500300   1.008000   ; qtot 26.973054
  802         c3     26    bbb     C8    802 -0.06455200  12.010000   ; qtot 26.908502
  803         h1     26    bbb    H15    803 0.13554100   1.008000   ; qtot 27.044043
  804         h1     26    bbb    H16    804 0.13554100   1.008000   ; qtot 27.179584
  805         c3     26    bbb     C9    805 -0.06455200  12.010000   ; qtot 27.115032
  806         h1     26    bbb    H17    806 0.13554100   1.008000   ; qtot 27.250573
  807         h1     26    bbb    H18    807 0.13554100   1.008000   ; qtot 27.386114
  808         os     26    bbb     O1    808 -0.62587700  16.000000   ; qtot 26.760237
  809         hn     26    bbb    H19    809 0.23982500   1.008000   ; qtot 27.000062
; residue   27 bbb rtp bbb q 1.0
  810         n4     27    bbb     N1    810 0.03726400  14.010000   ; qtot 27.037326
  811         c3     27    bbb     C1    811 -0.07020100  12.010000   ; qtot 26.967125
  812         hx     27    bbb     H1    812 0.12219000   1.008000   ; qtot 27.089315
  813         hx     27    bbb     H2    813 0.12219000   1.008000   ; qtot 27.211505
  814         c3     27    bbb     C2    814 -0.07020100  12.010000   ; qtot 27.141304
  815         hx     27    bbb     H3    815 0.12219000   1.008000   ; qtot 27.263494
  816         hx     27    bbb     H4    816 0.12219000   1.008000   ; qtot 27.385684
  817         c3     27    bbb     C3    817 -0.39007700  12.010000   ; qtot 26.995607
  818         hx     27    bbb     H5    818 0.14940300   1.008000   ; qtot 27.145010
  819         hx     27    bbb     H6    819 0.14940300   1.008000   ; qtot 27.294413
  820         c3     27    bbb     C4    820 0.18057300  12.010000   ; qtot 27.474986
  821         hc     27    bbb     H7    821 0.01788900   1.008000   ; qtot 27.492875
  822         hc     27    bbb     H8    822 0.01788900   1.008000   ; qtot 27.510764
  823         c3     27    bbb     C5    823 -0.11337700  12.010000   ; qtot 27.397387
  824         hc     27    bbb     H9    824 0.09515400   1.008000   ; qtot 27.492541
  825         hc     27    bbb    H10    825 0.09515400   1.008000   ; qtot 27.587695
  826         c3     27    bbb     C6    826 -0.11337700  12.010000   ; qtot 27.474318
  827         hc     27    bbb    H11    827 0.09515400   1.008000   ; qtot 27.569472
  828         hc     27    bbb    H12    828 0.09515400   1.008000   ; qtot 27.664626
  829         c3     27    bbb     C7    829 0.21842400  12.010000   ; qtot 27.883050
  830         h1     27    bbb    H13    830 0.04500300   1.008000   ; qtot 27.928053
  831         h1     27    bbb    H14    831 0.04500300   1.008000   ; qtot 27.973056
  832         c3     27    bbb     C8    832 -0.06455200  12.010000   ; qtot 27.908504
  833         h1     27    bbb    H15    833 0.13554100   1.008000   ; qtot 28.044045
  834         h1     27    bbb    H16    834 0.13554100   1.008000   ; qtot 28.179586
  835         c3     27    bbb     C9    835 -0.06455200  12.010000   ; qtot 28.115034
  836         h1     27    bbb    H17    836 0.13554100   1.008000   ; qtot 28.250575
  837         h1     27    bbb    H18    837 0.13554100   1.008000   ; qtot 28.386116
  838         os     27    bbb     O1    838 -0.62587700  16.000000   ; qtot 27.760239
  839         hn     27    bbb    H19    839 0.23982500   1.008000   ; qtot 28.000064
; residue   28 bbb rtp bbb q 1.0
  840         n4     28    bbb     N1    840 0.03726400  14.010000   ; qtot 28.037328
  841         c3     28    bbb     C1    841 -0.07020100  12.010000   ; qtot 27.967127
  842         hx     28    bbb     H1    842 0.12219000   1.008000   ; qtot 28.089317
  843         hx     28    bbb     H2    843 0.12219000   1.008000   ; qtot 28.211507
  844         c3     28    bbb     C2    844 -0.07020100  12.010000   ; qtot 28.141306
  845         hx     28    bbb     H3    845 0.12219000   1.008000   ; qtot 28.263496
  846         hx     28    bbb     H4    846 0.12219000   1.008000   ; qtot 28.385686
  847         c3     28    bbb     C3    847 -0.39007700  12.010000   ; qtot 27.995609
  848         hx     28    bbb     H5    848 0.14940300   1.008000   ; qtot 28.145012
  849         hx     28    bbb     H6    849 0.14940300   1.008000   ; qtot 28.294415
  850         c3     28    bbb     C4    850 0.18057300  12.010000   ; qtot 28.474988
  851         hc     28    bbb     H7    851 0.01788900   1.008000   ; qtot 28.492877
  852         hc     28    bbb     H8    852 0.01788900   1.008000   ; qtot 28.510766
  853         c3     28    bbb     C5    853 -0.11337700  12.010000   ; qtot 28.397389
  854         hc     28    bbb     H9    854 0.09515400   1.008000   ; qtot 28.492543
  855         hc     28    bbb    H10    855 0.09515400   1.008000   ; qtot 28.587697
  856         c3     28    bbb     C6    856 -0.11337700  12.010000   ; qtot 28.474320
  857         hc     28    bbb    H11    857 0.09515400   1.008000   ; qtot 28.569474
  858         hc     28    bbb    H12    858 0.09515400   1.008000   ; qtot 28.664628
  859         c3     28    bbb     C7    859 0.21842400  12.010000   ; qtot 28.883052
  860         h1     28    bbb    H13    860 0.04500300   1.008000   ; qtot 28.928055
  861         h1     28    bbb    H14    861 0.04500300   1.008000   ; qtot 28.973058
  862         c3     28    bbb     C8    862 -0.06455200  12.010000   ; qtot 28.908506
  863         h1     28    bbb    H15    863 0.13554100   1.008000   ; qtot 29.044047
  864         h1     28    bbb    H16    864 0.13554100   1.008000   ; qtot 29.179588
  865         c3     28    bbb     C9    865 -0.06455200  12.010000   ; qtot 29.115036
  866         h1     28    bbb    H17    866 0.13554100   1.008000   ; qtot 29.250577
  867         h1     28    bbb    H18    867 0.13554100   1.008000   ; qtot 29.386118
  868         os     28    bbb     O1    868 -0.62587700  16.000000   ; qtot 28.760241
  869         hn     28    bbb    H19    869 0.23982500   1.008000   ; qtot 29.000066
; residue   29 bbb rtp bbb q 1.0
  870         n4     29    bbb     N1    870 0.03726400  14.010000   ; qtot 29.037330
  871         c3     29    bbb     C1    871 -0.07020100  12.010000   ; qtot 28.967129
  872         hx     29    bbb     H1    872 0.12219000   1.008000   ; qtot 29.089319
  873         hx     29    bbb     H2    873 0.12219000   1.008000   ; qtot 29.211509
  874         c3     29    bbb     C2    874 -0.07020100  12.010000   ; qtot 29.141308
  875         hx     29    bbb     H3    875 0.12219000   1.008000   ; qtot 29.263498
  876         hx     29    bbb     H4    876 0.12219000   1.008000   ; qtot 29.385688
  877         c3     29    bbb     C3    877 -0.39007700  12.010000   ; qtot 28.995611
  878         hx     29    bbb     H5    878 0.14940300   1.008000   ; qtot 29.145014
  879         hx     29    bbb     H6    879 0.14940300   1.008000   ; qtot 29.294417
  880         c3     29    bbb     C4    880 0.18057300  12.010000   ; qtot 29.474990
  881         hc     29    bbb     H7    881 0.01788900   1.008000   ; qtot 29.492879
  882         hc     29    bbb     H8    882 0.01788900   1.008000   ; qtot 29.510768
  883         c3     29    bbb     C5    883 -0.11337700  12.010000   ; qtot 29.397391
  884         hc     29    bbb     H9    884 0.09515400   1.008000   ; qtot 29.492545
  885         hc     29    bbb    H10    885 0.09515400   1.008000   ; qtot 29.587699
  886         c3     29    bbb     C6    886 -0.11337700  12.010000   ; qtot 29.474322
  887         hc     29    bbb    H11    887 0.09515400   1.008000   ; qtot 29.569476
  888         hc     29    bbb    H12    888 0.09515400   1.008000   ; qtot 29.664630
  889         c3     29    bbb     C7    889 0.21842400  12.010000   ; qtot 29.883054
  890         h1     29    bbb    H13    890 0.04500300   1.008000   ; qtot 29.928057
  891         h1     29    bbb    H14    891 0.04500300   1.008000   ; qtot 29.973060
  892         c3     29    bbb     C8    892 -0.06455200  12.010000   ; qtot 29.908508
  893         h1     29    bbb    H15    893 0.13554100   1.008000   ; qtot 30.044049
  894         h1     29    bbb    H16    894 0.13554100   1.008000   ; qtot 30.179590
  895         c3     29    bbb     C9    895 -0.06455200  12.010000   ; qtot 30.115038
  896         h1     29    bbb    H17    896 0.13554100   1.008000   ; qtot 30.250579
  897         h1     29    bbb    H18    897 0.13554100   1.008000   ; qtot 30.386120
  898         os     29    bbb     O1    898 -0.62587700  16.000000   ; qtot 29.760243
  899         hn     29    bbb    H19    899 0.23982500   1.008000   ; qtot 30.000068
; residue   30 ccc rtp ccc q 1.0
  900         c3     30    ccc     C1    900 0.14608100  12.010000   ; qtot 30.146149
  901         h1     30    ccc     H1    901 0.06738100   1.008000   ; qtot 30.213530
  902         h1     30    ccc     H2    902 0.06738100   1.008000   ; qtot 30.280911
  903         c3     30    ccc     C2    903 -0.14571900  12.010000   ; qtot 30.135192
  904         hc     30    ccc     H3    904 0.08688100   1.008000   ; qtot 30.222073
  905         hc     30    ccc     H4    905 0.08688100   1.008000   ; qtot 30.308954
  906         c3     30    ccc     C3    906 0.12348100  12.010000   ; qtot 30.432435
  907         hx     30    ccc     H5    907 0.10638100   1.008000   ; qtot 30.538816
  908         hx     30    ccc     H6    908 0.10638100   1.008000   ; qtot 30.645197
  909         n4     30    ccc     N1    909 -0.69071900  14.010000   ; qtot 29.954478
  910         c3     30    ccc     C4    910 0.12498100  12.010000   ; qtot 30.079459
  911         hx     30    ccc     H7    911 0.12238100   1.008000   ; qtot 30.201840
  912         hx     30    ccc     H8    912 0.12238100   1.008000   ; qtot 30.324221
  913         c3     30    ccc     C5    913 -0.20771900  12.010000   ; qtot 30.116502
  914         hc     30    ccc     H9    914 0.11463100   1.008000   ; qtot 30.231133
  915         hc     30    ccc    H10    915 0.11463100   1.008000   ; qtot 30.345764
  916          c     30    ccc     C6    916 0.64078100  12.010000   ; qtot 30.986545
  917          o     30    ccc     O1    917 -0.49231900  16.000000   ; qtot 30.494226
  918         oh     30    ccc     O2    918 -0.51841900  16.000000   ; qtot 29.975807
  919         ho     30    ccc    H11    919 0.45318100   1.008000   ; qtot 30.428988
  920         c3     30    ccc     C7    920 0.12498100  12.010000   ; qtot 30.553969
  921         hx     30    ccc    H12    921 0.12238100   1.008000   ; qtot 30.676350
  922         hx     30    ccc    H13    922 0.12238100   1.008000   ; qtot 30.798731
  923         c3     30    ccc     C8    923 -0.20771900  12.010000   ; qtot 30.591012
  924         hc     30    ccc    H14    924 0.11463100   1.008000   ; qtot 30.705643
  925         hc     30    ccc    H15    925 0.11463100   1.008000   ; qtot 30.820274
  926          c     30    ccc     C9    926 0.64078100  12.010000   ; qtot 31.461055
  927          o     30    ccc     O3    927 -0.49231900  16.000000   ; qtot 30.968736
  928         oh     30    ccc     O4    928 -0.51841900  16.000000   ; qtot 30.450317
  929         ho     30    ccc    H16    929 0.45318100   1.008000   ; qtot 30.903498
  930         os     30    ccc     O5    930 -0.39491900  16.000000   ; qtot 30.508579
  931         hn     30    ccc    H17    931 0.49148100   1.008000   ; qtot 31.000060
; residue   31 ccc rtp ccc q 1.0
  932         c3     31    ccc     C1    932 0.14608100  12.010000   ; qtot 31.146141
  933         h1     31    ccc     H1    933 0.06738100   1.008000   ; qtot 31.213522
  934         h1     31    ccc     H2    934 0.06738100   1.008000   ; qtot 31.280903
  935         c3     31    ccc     C2    935 -0.14571900  12.010000   ; qtot 31.135184
  936         hc     31    ccc     H3    936 0.08688100   1.008000   ; qtot 31.222065
  937         hc     31    ccc     H4    937 0.08688100   1.008000   ; qtot 31.308946
  938         c3     31    ccc     C3    938 0.12348100  12.010000   ; qtot 31.432427
  939         hx     31    ccc     H5    939 0.10638100   1.008000   ; qtot 31.538808
  940         hx     31    ccc     H6    940 0.10638100   1.008000   ; qtot 31.645189
  941         n4     31    ccc     N1    941 -0.69071900  14.010000   ; qtot 30.954470
  942         c3     31    ccc     C4    942 0.12498100  12.010000   ; qtot 31.079451
  943         hx     31    ccc     H7    943 0.12238100   1.008000   ; qtot 31.201832
  944         hx     31    ccc     H8    944 0.12238100   1.008000   ; qtot 31.324213
  945         c3     31    ccc     C5    945 -0.20771900  12.010000   ; qtot 31.116494
  946         hc     31    ccc     H9    946 0.11463100   1.008000   ; qtot 31.231125
  947         hc     31    ccc    H10    947 0.11463100   1.008000   ; qtot 31.345756
  948          c     31    ccc     C6    948 0.64078100  12.010000   ; qtot 31.986537
  949          o     31    ccc     O1    949 -0.49231900  16.000000   ; qtot 31.494218
  950         oh     31    ccc     O2    950 -0.51841900  16.000000   ; qtot 30.975799
  951         ho     31    ccc    H11    951 0.45318100   1.008000   ; qtot 31.428980
  952         c3     31    ccc     C7    952 0.12498100  12.010000   ; qtot 31.553961
  953         hx     31    ccc    H12    953 0.12238100   1.008000   ; qtot 31.676342
  954         hx     31    ccc    H13    954 0.12238100   1.008000   ; qtot 31.798723
  955         c3     31    ccc     C8    955 -0.20771900  12.010000   ; qtot 31.591004
  956         hc     31    ccc    H14    956 0.11463100   1.008000   ; qtot 31.705635
  957         hc     31    ccc    H15    957 0.11463100   1.008000   ; qtot 31.820266
  958          c     31    ccc     C9    958 0.64078100  12.010000   ; qtot 32.461047
  959          o     31    ccc     O3    959 -0.49231900  16.000000   ; qtot 31.968728
  960         oh     31    ccc     O4    960 -0.51841900  16.000000   ; qtot 31.450309
  961         ho     31    ccc    H16    961 0.45318100   1.008000   ; qtot 31.903490
  962         os     31    ccc     O5    962 -0.39491900  16.000000   ; qtot 31.508571
  963         hn     31    ccc    H17    963 0.49148100   1.008000   ; qtot 32.000052
; residue   32 ccc rtp ccc q 1.0
  964         c3     32    ccc     C1    964 0.14608100  12.010000   ; qtot 32.146133
  965         h1     32    ccc     H1    965 0.06738100   1.008000   ; qtot 32.213514
  966         h1     32    ccc     H2    966 0.06738100   1.008000   ; qtot 32.280895
  967         c3     32    ccc     C2    967 -0.14571900  12.010000   ; qtot 32.135176
  968         hc     32    ccc     H3    968 0.08688100   1.008000   ; qtot 32.222057
  969         hc     32    ccc     H4    969 0.08688100   1.008000   ; qtot 32.308938
  970         c3     32    ccc     C3    970 0.12348100  12.010000   ; qtot 32.432419
  971         hx     32    ccc     H5    971 0.10638100   1.008000   ; qtot 32.538800
  972         hx     32    ccc     H6    972 0.10638100   1.008000   ; qtot 32.645181
  973         n4     32    ccc     N1    973 -0.69071900  14.010000   ; qtot 31.954462
  974         c3     32    ccc     C4    974 0.12498100  12.010000   ; qtot 32.079443
  975         hx     32    ccc     H7    975 0.12238100   1.008000   ; qtot 32.201824
  976         hx     32    ccc     H8    976 0.12238100   1.008000   ; qtot 32.324205
  977         c3     32    ccc     C5    977 -0.20771900  12.010000   ; qtot 32.116486
  978         hc     32    ccc     H9    978 0.11463100   1.008000   ; qtot 32.231117
  979         hc     32    ccc    H10    979 0.11463100   1.008000   ; qtot 32.345748
  980          c     32    ccc     C6    980 0.64078100  12.010000   ; qtot 32.986529
  981          o     32    ccc     O1    981 -0.49231900  16.000000   ; qtot 32.494210
  982         oh     32    ccc     O2    982 -0.51841900  16.000000   ; qtot 31.975791
  983         ho     32    ccc    H11    983 0.45318100   1.008000   ; qtot 32.428972
  984         c3     32    ccc     C7    984 0.12498100  12.010000   ; qtot 32.553953
  985         hx     32    ccc    H12    985 0.12238100   1.008000   ; qtot 32.676334
  986         hx     32    ccc    H13    986 0.12238100   1.008000   ; qtot 32.798715
  987         c3     32    ccc     C8    987 -0.20771900  12.010000   ; qtot 32.590996
  988         hc     32    ccc    H14    988 0.11463100   1.008000   ; qtot 32.705627
  989         hc     32    ccc    H15    989 0.11463100   1.008000   ; qtot 32.820258
  990          c     32    ccc     C9    990 0.64078100  12.010000   ; qtot 33.461039
  991          o     32    ccc     O3    991 -0.49231900  16.000000   ; qtot 32.968720
  992         oh     32    ccc     O4    992 -0.51841900  16.000000   ; qtot 32.450301
  993         ho     32    ccc    H16    993 0.45318100   1.008000   ; qtot 32.903482
  994         os     32    ccc     O5    994 -0.39491900  16.000000   ; qtot 32.508563
  995         hn     32    ccc    H17    995 0.49148100   1.008000   ; qtot 33.000044
; residue   33 ccc rtp ccc q 1.0
  996         c3     33    ccc     C1    996 0.14608100  12.010000   ; qtot 33.146125
  997         h1     33    ccc     H1    997 0.06738100   1.008000   ; qtot 33.213506
  998         h1     33    ccc     H2    998 0.06738100   1.008000   ; qtot 33.280887
  999         c3     33    ccc     C2    999 -0.14571900  12.010000   ; qtot 33.135168
 1000         hc     33    ccc     H3   1000 0.08688100   1.008000   ; qtot 33.222049
 1001         hc     33    ccc     H4   1001 0.08688100   1.008000   ; qtot 33.308930
 1002         c3     33    ccc     C3   1002 0.12348100  12.010000   ; qtot 33.432411
 1003         hx     33    ccc     H5   1003 0.10638100   1.008000   ; qtot 33.538792
 1004         hx     33    ccc     H6   1004 0.10638100   1.008000   ; qtot 33.645173
 1005         n4     33    ccc     N1   1005 -0.69071900  14.010000   ; qtot 32.954454
 1006         c3     33    ccc     C4   1006 0.12498100  12.010000   ; qtot 33.079435
 1007         hx     33    ccc     H7   1007 0.12238100   1.008000   ; qtot 33.201816
 1008         hx     33    ccc     H8   1008 0.12238100   1.008000   ; qtot 33.324197
 1009         c3     33    ccc     C5   1009 -0.20771900  12.010000   ; qtot 33.116478
 1010         hc     33    ccc     H9   1010 0.11463100   1.008000   ; qtot 33.231109
 1011         hc     33    ccc    H10   1011 0.11463100   1.008000   ; qtot 33.345740
 1012          c     33    ccc     C6   1012 0.64078100  12.010000   ; qtot 33.986521
 1013          o     33    ccc     O1   1013 -0.49231900  16.000000   ; qtot 33.494202
 1014         oh     33    ccc     O2   1014 -0.51841900  16.000000   ; qtot 32.975783
 1015         ho     33    ccc    H11   1015 0.45318100   1.008000   ; qtot 33.428964
 1016         c3     33    ccc     C7   1016 0.12498100  12.010000   ; qtot 33.553945
 1017         hx     33    ccc    H12   1017 0.12238100   1.008000   ; qtot 33.676326
 1018         hx     33    ccc    H13   1018 0.12238100   1.008000   ; qtot 33.798707
 1019         c3     33    ccc     C8   1019 -0.20771900  12.010000   ; qtot 33.590988
 1020         hc     33    ccc    H14   1020 0.11463100   1.008000   ; qtot 33.705619
 1021         hc     33    ccc    H15   1021 0.11463100   1.008000   ; qtot 33.820250
 1022          c     33    ccc     C9   1022 0.64078100  12.010000   ; qtot 34.461031
 1023          o     33    ccc     O3   1023 -0.49231900  16.000000   ; qtot 33.968712
 1024         oh     33    ccc     O4   1024 -0.51841900  16.000000   ; qtot 33.450293
 1025         ho     33    ccc    H16   1025 0.45318100   1.008000   ; qtot 33.903474
 1026         os     33    ccc     O5   1026 -0.39491900  16.000000   ; qtot 33.508555
 1027         hn     33    ccc    H17   1027 0.49148100   1.008000   ; qtot 34.000036
; residue   34 ccc rtp ccc q 1.0
 1028         c3     34    ccc     C1   1028 0.14608100  12.010000   ; qtot 34.146117
 1029         h1     34    ccc     H1   1029 0.06738100   1.008000   ; qtot 34.213498
 1030         h1     34    ccc     H2   1030 0.06738100   1.008000   ; qtot 34.280879
 1031         c3     34    ccc     C2   1031 -0.14571900  12.010000   ; qtot 34.135160
 1032         hc     34    ccc     H3   1032 0.08688100   1.008000   ; qtot 34.222041
 1033         hc     34    ccc     H4   1033 0.08688100   1.008000   ; qtot 34.308922
 1034         c3     34    ccc     C3   1034 0.12348100  12.010000   ; qtot 34.432403
 1035         hx     34    ccc     H5   1035 0.10638100   1.008000   ; qtot 34.538784
 1036         hx     34    ccc     H6   1036 0.10638100   1.008000   ; qtot 34.645165
 1037         n4     34    ccc     N1   1037 -0.69071900  14.010000   ; qtot 33.954446
 1038         c3     34    ccc     C4   1038 0.12498100  12.010000   ; qtot 34.079427
 1039         hx     34    ccc     H7   1039 0.12238100   1.008000   ; qtot 34.201808
 1040         hx     34    ccc     H8   1040 0.12238100   1.008000   ; qtot 34.324189
 1041         c3     34    ccc     C5   1041 -0.20771900  12.010000   ; qtot 34.116470
 1042         hc     34    ccc     H9   1042 0.11463100   1.008000   ; qtot 34.231101
 1043         hc     34    ccc    H10   1043 0.11463100   1.008000   ; qtot 34.345732
 1044          c     34    ccc     C6   1044 0.64078100  12.010000   ; qtot 34.986513
 1045          o     34    ccc     O1   1045 -0.49231900  16.000000   ; qtot 34.494194
 1046         oh     34    ccc     O2   1046 -0.51841900  16.000000   ; qtot 33.975775
 1047         ho     34    ccc    H11   1047 0.45318100   1.008000   ; qtot 34.428956
 1048         c3     34    ccc     C7   1048 0.12498100  12.010000   ; qtot 34.553937
 1049         hx     34    ccc    H12   1049 0.12238100   1.008000   ; qtot 34.676318
 1050         hx     34    ccc    H13   1050 0.12238100   1.008000   ; qtot 34.798699
 1051         c3     34    ccc     C8   1051 -0.20771900  12.010000   ; qtot 34.590980
 1052         hc     34    ccc    H14   1052 0.11463100   1.008000   ; qtot 34.705611
 1053         hc     34    ccc    H15   1053 0.11463100   1.008000   ; qtot 34.820242
 1054          c     34    ccc     C9   1054 0.64078100  12.010000   ; qtot 35.461023
 1055          o     34    ccc     O3   1055 -0.49231900  16.000000   ; qtot 34.968704
 1056         oh     34    ccc     O4   1056 -0.51841900  16.000000   ; qtot 34.450285
 1057         ho     34    ccc    H16   1057 0.45318100   1.008000   ; qtot 34.903466
 1058         os     34    ccc     O5   1058 -0.39491900  16.000000   ; qtot 34.508547
 1059         hn     34    ccc    H17   1059 0.49148100   1.008000   ; qtot 35.000028
; residue   35 ccc rtp ccc q 1.0
 1060         c3     35    ccc     C1   1060 0.14608100  12.010000   ; qtot 35.146109
 1061         h1     35    ccc     H1   1061 0.06738100   1.008000   ; qtot 35.213490
 1062         h1     35    ccc     H2   1062 0.06738100   1.008000   ; qtot 35.280871
 1063         c3     35    ccc     C2   1063 -0.14571900  12.010000   ; qtot 35.135152
 1064         hc     35    ccc     H3   1064 0.08688100   1.008000   ; qtot 35.222033
 1065         hc     35    ccc     H4   1065 0.08688100   1.008000   ; qtot 35.308914
 1066         c3     35    ccc     C3   1066 0.12348100  12.010000   ; qtot 35.432395
 1067         hx     35    ccc     H5   1067 0.10638100   1.008000   ; qtot 35.538776
 1068         hx     35    ccc     H6   1068 0.10638100   1.008000   ; qtot 35.645157
 1069         n4     35    ccc     N1   1069 -0.69071900  14.010000   ; qtot 34.954438
 1070         c3     35    ccc     C4   1070 0.12498100  12.010000   ; qtot 35.079419
 1071         hx     35    ccc     H7   1071 0.12238100   1.008000   ; qtot 35.201800
 1072         hx     35    ccc     H8   1072 0.12238100   1.008000   ; qtot 35.324181
 1073         c3     35    ccc     C5   1073 -0.20771900  12.010000   ; qtot 35.116462
 1074         hc     35    ccc     H9   1074 0.11463100   1.008000   ; qtot 35.231093
 1075         hc     35    ccc    H10   1075 0.11463100   1.008000   ; qtot 35.345724
 1076          c     35    ccc     C6   1076 0.64078100  12.010000   ; qtot 35.986505
 1077          o     35    ccc     O1   1077 -0.49231900  16.000000   ; qtot 35.494186
 1078         oh     35    ccc     O2   1078 -0.51841900  16.000000   ; qtot 34.975767
 1079         ho     35    ccc    H11   1079 0.45318100   1.008000   ; qtot 35.428948
 1080         c3     35    ccc     C7   1080 0.12498100  12.010000   ; qtot 35.553929
 1081         hx     35    ccc    H12   1081 0.12238100   1.008000   ; qtot 35.676310
 1082         hx     35    ccc    H13   1082 0.12238100   1.008000   ; qtot 35.798691
 1083         c3     35    ccc     C8   1083 -0.20771900  12.010000   ; qtot 35.590972
 1084         hc     35    ccc    H14   1084 0.11463100   1.008000   ; qtot 35.705603
 1085         hc     35    ccc    H15   1085 0.11463100   1.008000   ; qtot 35.820234
 1086          c     35    ccc     C9   1086 0.64078100  12.010000   ; qtot 36.461015
 1087          o     35    ccc     O3   1087 -0.49231900  16.000000   ; qtot 35.968696
 1088         oh     35    ccc     O4   1088 -0.51841900  16.000000   ; qtot 35.450277
 1089         ho     35    ccc    H16   1089 0.45318100   1.008000   ; qtot 35.903458
 1090         os     35    ccc     O5   1090 -0.39491900  16.000000   ; qtot 35.508539
 1091         hn     35    ccc    H17   1091 0.49148100   1.008000   ; qtot 36.000020
; residue   36 ccc rtp ccc q 1.0
 1092         c3     36    ccc     C1   1092 0.14608100  12.010000   ; qtot 36.146101
 1093         h1     36    ccc     H1   1093 0.06738100   1.008000   ; qtot 36.213482
 1094         h1     36    ccc     H2   1094 0.06738100   1.008000   ; qtot 36.280863
 1095         c3     36    ccc     C2   1095 -0.14571900  12.010000   ; qtot 36.135144
 1096         hc     36    ccc     H3   1096 0.08688100   1.008000   ; qtot 36.222025
 1097         hc     36    ccc     H4   1097 0.08688100   1.008000   ; qtot 36.308906
 1098         c3     36    ccc     C3   1098 0.12348100  12.010000   ; qtot 36.432387
 1099         hx     36    ccc     H5   1099 0.10638100   1.008000   ; qtot 36.538768
 1100         hx     36    ccc     H6   1100 0.10638100   1.008000   ; qtot 36.645149
 1101         n4     36    ccc     N1   1101 -0.69071900  14.010000   ; qtot 35.954430
 1102         c3     36    ccc     C4   1102 0.12498100  12.010000   ; qtot 36.079411
 1103         hx     36    ccc     H7   1103 0.12238100   1.008000   ; qtot 36.201792
 1104         hx     36    ccc     H8   1104 0.12238100   1.008000   ; qtot 36.324173
 1105         c3     36    ccc     C5   1105 -0.20771900  12.010000   ; qtot 36.116454
 1106         hc     36    ccc     H9   1106 0.11463100   1.008000   ; qtot 36.231085
 1107         hc     36    ccc    H10   1107 0.11463100   1.008000   ; qtot 36.345716
 1108          c     36    ccc     C6   1108 0.64078100  12.010000   ; qtot 36.986497
 1109          o     36    ccc     O1   1109 -0.49231900  16.000000   ; qtot 36.494178
 1110         oh     36    ccc     O2   1110 -0.51841900  16.000000   ; qtot 35.975759
 1111         ho     36    ccc    H11   1111 0.45318100   1.008000   ; qtot 36.428940
 1112         c3     36    ccc     C7   1112 0.12498100  12.010000   ; qtot 36.553921
 1113         hx     36    ccc    H12   1113 0.12238100   1.008000   ; qtot 36.676302
 1114         hx     36    ccc    H13   1114 0.12238100   1.008000   ; qtot 36.798683
 1115         c3     36    ccc     C8   1115 -0.20771900  12.010000   ; qtot 36.590964
 1116         hc     36    ccc    H14   1116 0.11463100   1.008000   ; qtot 36.705595
 1117         hc     36    ccc    H15   1117 0.11463100   1.008000   ; qtot 36.820226
 1118          c     36    ccc     C9   1118 0.64078100  12.010000   ; qtot 37.461007
 1119          o     36    ccc     O3   1119 -0.49231900  16.000000   ; qtot 36.968688
 1120         oh     36    ccc     O4   1120 -0.51841900  16.000000   ; qtot 36.450269
 1121         ho     36    ccc    H16   1121 0.45318100   1.008000   ; qtot 36.903450
 1122         os     36    ccc     O5   1122 -0.39491900  16.000000   ; qtot 36.508531
 1123         hn     36    ccc    H17   1123 0.49148100   1.008000   ; qtot 37.000012
; residue   37 ccc rtp ccc q 1.0
 1124         c3     37    ccc     C1   1124 0.14608100  12.010000   ; qtot 37.146093
 1125         h1     37    ccc     H1   1125 0.06738100   1.008000   ; qtot 37.213474
 1126         h1     37    ccc     H2   1126 0.06738100   1.008000   ; qtot 37.280855
 1127         c3     37    ccc     C2   1127 -0.14571900  12.010000   ; qtot 37.135136
 1128         hc     37    ccc     H3   1128 0.08688100   1.008000   ; qtot 37.222017
 1129         hc     37    ccc     H4   1129 0.08688100   1.008000   ; qtot 37.308898
 1130         c3     37    ccc     C3   1130 0.12348100  12.010000   ; qtot 37.432379
 1131         hx     37    ccc     H5   1131 0.10638100   1.008000   ; qtot 37.538760
 1132         hx     37    ccc     H6   1132 0.10638100   1.008000   ; qtot 37.645141
 1133         n4     37    ccc     N1   1133 -0.69071900  14.010000   ; qtot 36.954422
 1134         c3     37    ccc     C4   1134 0.12498100  12.010000   ; qtot 37.079403
 1135         hx     37    ccc     H7   1135 0.12238100   1.008000   ; qtot 37.201784
 1136         hx     37    ccc     H8   1136 0.12238100   1.008000   ; qtot 37.324165
 1137         c3     37    ccc     C5   1137 -0.20771900  12.010000   ; qtot 37.116446
 1138         hc     37    ccc     H9   1138 0.11463100   1.008000   ; qtot 37.231077
 1139         hc     37    ccc    H10   1139 0.11463100   1.008000   ; qtot 37.345708
 1140          c     37    ccc     C6   1140 0.64078100  12.010000   ; qtot 37.986489
 1141          o     37    ccc     O1   1141 -0.49231900  16.000000   ; qtot 37.494170
 1142         oh     37    ccc     O2   1142 -0.51841900  16.000000   ; qtot 36.975751
 1143         ho     37    ccc    H11   1143 0.45318100   1.008000   ; qtot 37.428932
 1144         c3     37    ccc     C7   1144 0.12498100  12.010000   ; qtot 37.553913
 1145         hx     37    ccc    H12   1145 0.12238100   1.008000   ; qtot 37.676294
 1146         hx     37    ccc    H13   1146 0.12238100   1.008000   ; qtot 37.798675
 1147         c3     37    ccc     C8   1147 -0.20771900  12.010000   ; qtot 37.590956
 1148         hc     37    ccc    H14   1148 0.11463100   1.008000   ; qtot 37.705587
 1149         hc     37    ccc    H15   1149 0.11463100   1.008000   ; qtot 37.820218
 1150          c     37    ccc     C9   1150 0.64078100  12.010000   ; qtot 38.460999
 1151          o     37    ccc     O3   1151 -0.49231900  16.000000   ; qtot 37.968680
 1152         oh     37    ccc     O4   1152 -0.51841900  16.000000   ; qtot 37.450261
 1153         ho     37    ccc    H16   1153 0.45318100   1.008000   ; qtot 37.903442
 1154         os     37    ccc     O5   1154 -0.39491900  16.000000   ; qtot 37.508523
 1155         hn     37    ccc    H17   1155 0.49148100   1.008000   ; qtot 38.000004
; residue   38 ccc rtp ccc q 1.0
 1156         c3     38    ccc     C1   1156 0.14608100  12.010000   ; qtot 38.146085
 1157         h1     38    ccc     H1   1157 0.06738100   1.008000   ; qtot 38.213466
 1158         h1     38    ccc     H2   1158 0.06738100   1.008000   ; qtot 38.280847
 1159         c3     38    ccc     C2   1159 -0.14571900  12.010000   ; qtot 38.135128
 1160         hc     38    ccc     H3   1160 0.08688100   1.008000   ; qtot 38.222009
 1161         hc     38    ccc     H4   1161 0.08688100   1.008000   ; qtot 38.308890
 1162         c3     38    ccc     C3   1162 0.12348100  12.010000   ; qtot 38.432371
 1163         hx     38    ccc     H5   1163 0.10638100   1.008000   ; qtot 38.538752
 1164         hx     38    ccc     H6   1164 0.10638100   1.008000   ; qtot 38.645133
 1165         n4     38    ccc     N1   1165 -0.69071900  14.010000   ; qtot 37.954414
 1166         c3     38    ccc     C4   1166 0.12498100  12.010000   ; qtot 38.079395
 1167         hx     38    ccc     H7   1167 0.12238100   1.008000   ; qtot 38.201776
 1168         hx     38    ccc     H8   1168 0.12238100   1.008000   ; qtot 38.324157
 1169         c3     38    ccc     C5   1169 -0.20771900  12.010000   ; qtot 38.116438
 1170         hc     38    ccc     H9   1170 0.11463100   1.008000   ; qtot 38.231069
 1171         hc     38    ccc    H10   1171 0.11463100   1.008000   ; qtot 38.345700
 1172          c     38    ccc     C6   1172 0.64078100  12.010000   ; qtot 38.986481
 1173          o     38    ccc     O1   1173 -0.49231900  16.000000   ; qtot 38.494162
 1174         oh     38    ccc     O2   1174 -0.51841900  16.000000   ; qtot 37.975743
 1175         ho     38    ccc    H11   1175 0.45318100   1.008000   ; qtot 38.428924
 1176         c3     38    ccc     C7   1176 0.12498100  12.010000   ; qtot 38.553905
 1177         hx     38    ccc    H12   1177 0.12238100   1.008000   ; qtot 38.676286
 1178         hx     38    ccc    H13   1178 0.12238100   1.008000   ; qtot 38.798667
 1179         c3     38    ccc     C8   1179 -0.20771900  12.010000   ; qtot 38.590948
 1180         hc     38    ccc    H14   1180 0.11463100   1.008000   ; qtot 38.705579
 1181         hc     38    ccc    H15   1181 0.11463100   1.008000   ; qtot 38.820210
 1182          c     38    ccc     C9   1182 0.64078100  12.010000   ; qtot 39.460991
 1183          o     38    ccc     O3   1183 -0.49231900  16.000000   ; qtot 38.968672
 1184         oh     38    ccc     O4   1184 -0.51841900  16.000000   ; qtot 38.450253
 1185         ho     38    ccc    H16   1185 0.45318100   1.008000   ; qtot 38.903434
 1186         os     38    ccc     O5   1186 -0.39491900  16.000000   ; qtot 38.508515
 1187         hn     38    ccc    H17   1187 0.49148100   1.008000   ; qtot 38.999996
; residue   39 ccc rtp ccc q 1.0
 1188         c3     39    ccc     C1   1188 0.14608100  12.010000   ; qtot 39.146077
 1189         h1     39    ccc     H1   1189 0.06738100   1.008000   ; qtot 39.213458
 1190         h1     39    ccc     H2   1190 0.06738100   1.008000   ; qtot 39.280839
 1191         c3     39    ccc     C2   1191 -0.14571900  12.010000   ; qtot 39.135120
 1192         hc     39    ccc     H3   1192 0.08688100   1.008000   ; qtot 39.222001
 1193         hc     39    ccc     H4   1193 0.08688100   1.008000   ; qtot 39.308882
 1194         c3     39    ccc     C3   1194 0.12348100  12.010000   ; qtot 39.432363
 1195         hx     39    ccc     H5   1195 0.10638100   1.008000   ; qtot 39.538744
 1196         hx     39    ccc     H6   1196 0.10638100   1.008000   ; qtot 39.645125
 1197         n4     39    ccc     N1   1197 -0.69071900  14.010000   ; qtot 38.954406
 1198         c3     39    ccc     C4   1198 0.12498100  12.010000   ; qtot 39.079387
 1199         hx     39    ccc     H7   1199 0.12238100   1.008000   ; qtot 39.201768
 1200         hx     39    ccc     H8   1200 0.12238100   1.008000   ; qtot 39.324149
 1201         c3     39    ccc     C5   1201 -0.20771900  12.010000   ; qtot 39.116430
 1202         hc     39    ccc     H9   1202 0.11463100   1.008000   ; qtot 39.231061
 1203         hc     39    ccc    H10   1203 0.11463100   1.008000   ; qtot 39.345692
 1204          c     39    ccc     C6   1204 0.64078100  12.010000   ; qtot 39.986473
 1205          o     39    ccc     O1   1205 -0.49231900  16.000000   ; qtot 39.494154
 1206         oh     39    ccc     O2   1206 -0.51841900  16.000000   ; qtot 38.975735
 1207         ho     39    ccc    H11   1207 0.45318100   1.008000   ; qtot 39.428916
 1208         c3     39    ccc     C7   1208 0.12498100  12.010000   ; qtot 39.553897
 1209         hx     39    ccc    H12   1209 0.12238100   1.008000   ; qtot 39.676278
 1210         hx     39    ccc    H13   1210 0.12238100   1.008000   ; qtot 39.798659
 1211         c3     39    ccc     C8   1211 -0.20771900  12.010000   ; qtot 39.590940
 1212         hc     39    ccc    H14   1212 0.11463100   1.008000   ; qtot 39.705571
 1213         hc     39    ccc    H15   1213 0.11463100   1.008000   ; qtot 39.820202
 1214          c     39    ccc     C9   1214 0.64078100  12.010000   ; qtot 40.460983
 1215          o     39    ccc     O3   1215 -0.49231900  16.000000   ; qtot 39.968664
 1216         oh     39    ccc     O4   1216 -0.51841900  16.000000   ; qtot 39.450245
 1217         ho     39    ccc    H16   1217 0.45318100   1.008000   ; qtot 39.903426
 1218         os     39    ccc     O5   1218 -0.39491900  16.000000   ; qtot 39.508507
 1219         hn     39    ccc    H17   1219 0.49148100   1.008000   ; qtot 39.999988
; residue   40 ccc rtp ccc q 1.0
 1220         c3     40    ccc     C1   1220 0.14608100  12.010000   ; qtot 40.146069
 1221         h1     40    ccc     H1   1221 0.06738100   1.008000   ; qtot 40.213450
 1222         h1     40    ccc     H2   1222 0.06738100   1.008000   ; qtot 40.280831
 1223         c3     40    ccc     C2   1223 -0.14571900  12.010000   ; qtot 40.135112
 1224         hc     40    ccc     H3   1224 0.08688100   1.008000   ; qtot 40.221993
 1225         hc     40    ccc     H4   1225 0.08688100   1.008000   ; qtot 40.308874
 1226         c3     40    ccc     C3   1226 0.12348100  12.010000   ; qtot 40.432355
 1227         hx     40    ccc     H5   1227 0.10638100   1.008000   ; qtot 40.538736
 1228         hx     40    ccc     H6   1228 0.10638100   1.008000   ; qtot 40.645117
 1229         n4     40    ccc     N1   1229 -0.69071900  14.010000   ; qtot 39.954398
 1230         c3     40    ccc     C4   1230 0.12498100  12.010000   ; qtot 40.079379
 1231         hx     40    ccc     H7   1231 0.12238100   1.008000   ; qtot 40.201760
 1232         hx     40    ccc     H8   1232 0.12238100   1.008000   ; qtot 40.324141
 1233         c3     40    ccc     C5   1233 -0.20771900  12.010000   ; qtot 40.116422
 1234         hc     40    ccc     H9   1234 0.11463100   1.008000   ; qtot 40.231053
 1235         hc     40    ccc    H10   1235 0.11463100   1.008000   ; qtot 40.345684
 1236          c     40    ccc     C6   1236 0.64078100  12.010000   ; qtot 40.986465
 1237          o     40    ccc     O1   1237 -0.49231900  16.000000   ; qtot 40.494146
 1238         oh     40    ccc     O2   1238 -0.51841900  16.000000   ; qtot 39.975727
 1239         ho     40    ccc    H11   1239 0.45318100   1.008000   ; qtot 40.428908
 1240         c3     40    ccc     C7   1240 0.12498100  12.010000   ; qtot 40.553889
 1241         hx     40    ccc    H12   1241 0.12238100   1.008000   ; qtot 40.676270
 1242         hx     40    ccc    H13   1242 0.12238100   1.008000   ; qtot 40.798651
 1243         c3     40    ccc     C8   1243 -0.20771900  12.010000   ; qtot 40.590932
 1244         hc     40    ccc    H14   1244 0.11463100   1.008000   ; qtot 40.705563
 1245         hc     40    ccc    H15   1245 0.11463100   1.008000   ; qtot 40.820194
 1246          c     40    ccc     C9   1246 0.64078100  12.010000   ; qtot 41.460975
 1247          o     40    ccc     O3   1247 -0.49231900  16.000000   ; qtot 40.968656
 1248         oh     40    ccc     O4   1248 -0.51841900  16.000000   ; qtot 40.450237
 1249         ho     40    ccc    H16   1249 0.45318100   1.008000   ; qtot 40.903418
 1250         os     40    ccc     O5   1250 -0.39491900  16.000000   ; qtot 40.508499
 1251         hn     40    ccc    H17   1251 0.49148100   1.008000   ; qtot 40.999980
; residue   41 ccc rtp ccc q 1.0
 1252         c3     41    ccc     C1   1252 0.14608100  12.010000   ; qtot 41.146061
 1253         h1     41    ccc     H1   1253 0.06738100   1.008000   ; qtot 41.213442
 1254         h1     41    ccc     H2   1254 0.06738100   1.008000   ; qtot 41.280823
 1255         c3     41    ccc     C2   1255 -0.14571900  12.010000   ; qtot 41.135104
 1256         hc     41    ccc     H3   1256 0.08688100   1.008000   ; qtot 41.221985
 1257         hc     41    ccc     H4   1257 0.08688100   1.008000   ; qtot 41.308866
 1258         c3     41    ccc     C3   1258 0.12348100  12.010000   ; qtot 41.432347
 1259         hx     41    ccc     H5   1259 0.10638100   1.008000   ; qtot 41.538728
 1260         hx     41    ccc     H6   1260 0.10638100   1.008000   ; qtot 41.645109
 1261         n4     41    ccc     N1   1261 -0.69071900  14.010000   ; qtot 40.954390
 1262         c3     41    ccc     C4   1262 0.12498100  12.010000   ; qtot 41.079371
 1263         hx     41    ccc     H7   1263 0.12238100   1.008000   ; qtot 41.201752
 1264         hx     41    ccc     H8   1264 0.12238100   1.008000   ; qtot 41.324133
 1265         c3     41    ccc     C5   1265 -0.20771900  12.010000   ; qtot 41.116414
 1266         hc     41    ccc     H9   1266 0.11463100   1.008000   ; qtot 41.231045
 1267         hc     41    ccc    H10   1267 0.11463100   1.008000   ; qtot 41.345676
 1268          c     41    ccc     C6   1268 0.64078100  12.010000   ; qtot 41.986457
 1269          o     41    ccc     O1   1269 -0.49231900  16.000000   ; qtot 41.494138
 1270         oh     41    ccc     O2   1270 -0.51841900  16.000000   ; qtot 40.975719
 1271         ho     41    ccc    H11   1271 0.45318100   1.008000   ; qtot 41.428900
 1272         c3     41    ccc     C7   1272 0.12498100  12.010000   ; qtot 41.553881
 1273         hx     41    ccc    H12   1273 0.12238100   1.008000   ; qtot 41.676262
 1274         hx     41    ccc    H13   1274 0.12238100   1.008000   ; qtot 41.798643
 1275         c3     41    ccc     C8   1275 -0.20771900  12.010000   ; qtot 41.590924
 1276         hc     41    ccc    H14   1276 0.11463100   1.008000   ; qtot 41.705555
 1277         hc     41    ccc    H15   1277 0.11463100   1.008000   ; qtot 41.820186
 1278          c     41    ccc     C9   1278 0.64078100  12.010000   ; qtot 42.460967
 1279          o     41    ccc     O3   1279 -0.49231900  16.000000   ; qtot 41.968648
 1280         oh     41    ccc     O4   1280 -0.51841900  16.000000   ; qtot 41.450229
 1281         ho     41    ccc    H16   1281 0.45318100   1.008000   ; qtot 41.903410
 1282         os     41    ccc     O5   1282 -0.39491900  16.000000   ; qtot 41.508491
 1283         hn     41    ccc    H17   1283 0.49148100   1.008000   ; qtot 41.999972
; residue   42 ccc rtp ccc q 1.0
 1284         c3     42    ccc     C1   1284 0.14608100  12.010000   ; qtot 42.146053
 1285         h1     42    ccc     H1   1285 0.06738100   1.008000   ; qtot 42.213434
 1286         h1     42    ccc     H2   1286 0.06738100   1.008000   ; qtot 42.280815
 1287         c3     42    ccc     C2   1287 -0.14571900  12.010000   ; qtot 42.135096
 1288         hc     42    ccc     H3   1288 0.08688100   1.008000   ; qtot 42.221977
 1289         hc     42    ccc     H4   1289 0.08688100   1.008000   ; qtot 42.308858
 1290         c3     42    ccc     C3   1290 0.12348100  12.010000   ; qtot 42.432339
 1291         hx     42    ccc     H5   1291 0.10638100   1.008000   ; qtot 42.538720
 1292         hx     42    ccc     H6   1292 0.10638100   1.008000   ; qtot 42.645101
 1293         n4     42    ccc     N1   1293 -0.69071900  14.010000   ; qtot 41.954382
 1294         c3     42    ccc     C4   1294 0.12498100  12.010000   ; qtot 42.079363
 1295         hx     42    ccc     H7   1295 0.12238100   1.008000   ; qtot 42.201744
 1296         hx     42    ccc     H8   1296 0.12238100   1.008000   ; qtot 42.324125
 1297         c3     42    ccc     C5   1297 -0.20771900  12.010000   ; qtot 42.116406
 1298         hc     42    ccc     H9   1298 0.11463100   1.008000   ; qtot 42.231037
 1299         hc     42    ccc    H10   1299 0.11463100   1.008000   ; qtot 42.345668
 1300          c     42    ccc     C6   1300 0.64078100  12.010000   ; qtot 42.986449
 1301          o     42    ccc     O1   1301 -0.49231900  16.000000   ; qtot 42.494130
 1302         oh     42    ccc     O2   1302 -0.51841900  16.000000   ; qtot 41.975711
 1303         ho     42    ccc    H11   1303 0.45318100   1.008000   ; qtot 42.428892
 1304         c3     42    ccc     C7   1304 0.12498100  12.010000   ; qtot 42.553873
 1305         hx     42    ccc    H12   1305 0.12238100   1.008000   ; qtot 42.676254
 1306         hx     42    ccc    H13   1306 0.12238100   1.008000   ; qtot 42.798635
 1307         c3     42    ccc     C8   1307 -0.20771900  12.010000   ; qtot 42.590916
 1308         hc     42    ccc    H14   1308 0.11463100   1.008000   ; qtot 42.705547
 1309         hc     42    ccc    H15   1309 0.11463100   1.008000   ; qtot 42.820178
 1310          c     42    ccc     C9   1310 0.64078100  12.010000   ; qtot 43.460959
 1311          o     42    ccc     O3   1311 -0.49231900  16.000000   ; qtot 42.968640
 1312         oh     42    ccc     O4   1312 -0.51841900  16.000000   ; qtot 42.450221
 1313         ho     42    ccc    H16   1313 0.45318100   1.008000   ; qtot 42.903402
 1314         os     42    ccc     O5   1314 -0.39491900  16.000000   ; qtot 42.508483
 1315         hn     42    ccc    H17   1315 0.49148100   1.008000   ; qtot 42.999964
; residue   43 ccc rtp ccc q 1.0
 1316         c3     43    ccc     C1   1316 0.14608100  12.010000   ; qtot 43.146045
 1317         h1     43    ccc     H1   1317 0.06738100   1.008000   ; qtot 43.213426
 1318         h1     43    ccc     H2   1318 0.06738100   1.008000   ; qtot 43.280807
 1319         c3     43    ccc     C2   1319 -0.14571900  12.010000   ; qtot 43.135088
 1320         hc     43    ccc     H3   1320 0.08688100   1.008000   ; qtot 43.221969
 1321         hc     43    ccc     H4   1321 0.08688100   1.008000   ; qtot 43.308850
 1322         c3     43    ccc     C3   1322 0.12348100  12.010000   ; qtot 43.432331
 1323         hx     43    ccc     H5   1323 0.10638100   1.008000   ; qtot 43.538712
 1324         hx     43    ccc     H6   1324 0.10638100   1.008000   ; qtot 43.645093
 1325         n4     43    ccc     N1   1325 -0.69071900  14.010000   ; qtot 42.954374
 1326         c3     43    ccc     C4   1326 0.12498100  12.010000   ; qtot 43.079355
 1327         hx     43    ccc     H7   1327 0.12238100   1.008000   ; qtot 43.201736
 1328         hx     43    ccc     H8   1328 0.12238100   1.008000   ; qtot 43.324117
 1329         c3     43    ccc     C5   1329 -0.20771900  12.010000   ; qtot 43.116398
 1330         hc     43    ccc     H9   1330 0.11463100   1.008000   ; qtot 43.231029
 1331         hc     43    ccc    H10   1331 0.11463100   1.008000   ; qtot 43.345660
 1332          c     43    ccc     C6   1332 0.64078100  12.010000   ; qtot 43.986441
 1333          o     43    ccc     O1   1333 -0.49231900  16.000000   ; qtot 43.494122
 1334         oh     43    ccc     O2   1334 -0.51841900  16.000000   ; qtot 42.975703
 1335         ho     43    ccc    H11   1335 0.45318100   1.008000   ; qtot 43.428884
 1336         c3     43    ccc     C7   1336 0.12498100  12.010000   ; qtot 43.553865
 1337         hx     43    ccc    H12   1337 0.12238100   1.008000   ; qtot 43.676246
 1338         hx     43    ccc    H13   1338 0.12238100   1.008000   ; qtot 43.798627
 1339         c3     43    ccc     C8   1339 -0.20771900  12.010000   ; qtot 43.590908
 1340         hc     43    ccc    H14   1340 0.11463100   1.008000   ; qtot 43.705539
 1341         hc     43    ccc    H15   1341 0.11463100   1.008000   ; qtot 43.820170
 1342          c     43    ccc     C9   1342 0.64078100  12.010000   ; qtot 44.460951
 1343          o     43    ccc     O3   1343 -0.49231900  16.000000   ; qtot 43.968632
 1344         oh     43    ccc     O4   1344 -0.51841900  16.000000   ; qtot 43.450213
 1345         ho     43    ccc    H16   1345 0.45318100   1.008000   ; qtot 43.903394
 1346         os     43    ccc     O5   1346 -0.39491900  16.000000   ; qtot 43.508475
 1347         hn     43    ccc    H17   1347 0.49148100   1.008000   ; qtot 43.999956
; residue   44 ccc rtp ccc q 1.0
 1348         c3     44    ccc     C1   1348 0.14608100  12.010000   ; qtot 44.146037
 1349         h1     44    ccc     H1   1349 0.06738100   1.008000   ; qtot 44.213418
 1350         h1     44    ccc     H2   1350 0.06738100   1.008000   ; qtot 44.280799
 1351         c3     44    ccc     C2   1351 -0.14571900  12.010000   ; qtot 44.135080
 1352         hc     44    ccc     H3   1352 0.08688100   1.008000   ; qtot 44.221961
 1353         hc     44    ccc     H4   1353 0.08688100   1.008000   ; qtot 44.308842
 1354         c3     44    ccc     C3   1354 0.12348100  12.010000   ; qtot 44.432323
 1355         hx     44    ccc     H5   1355 0.10638100   1.008000   ; qtot 44.538704
 1356         hx     44    ccc     H6   1356 0.10638100   1.008000   ; qtot 44.645085
 1357         n4     44    ccc     N1   1357 -0.69071900  14.010000   ; qtot 43.954366
 1358         c3     44    ccc     C4   1358 0.12498100  12.010000   ; qtot 44.079347
 1359         hx     44    ccc     H7   1359 0.12238100   1.008000   ; qtot 44.201728
 1360         hx     44    ccc     H8   1360 0.12238100   1.008000   ; qtot 44.324109
 1361         c3     44    ccc     C5   1361 -0.20771900  12.010000   ; qtot 44.116390
 1362         hc     44    ccc     H9   1362 0.11463100   1.008000   ; qtot 44.231021
 1363         hc     44    ccc    H10   1363 0.11463100   1.008000   ; qtot 44.345652
 1364          c     44    ccc     C6   1364 0.64078100  12.010000   ; qtot 44.986433
 1365          o     44    ccc     O1   1365 -0.49231900  16.000000   ; qtot 44.494114
 1366         oh     44    ccc     O2   1366 -0.51841900  16.000000   ; qtot 43.975695
 1367         ho     44    ccc    H11   1367 0.45318100   1.008000   ; qtot 44.428876
 1368         c3     44    ccc     C7   1368 0.12498100  12.010000   ; qtot 44.553857
 1369         hx     44    ccc    H12   1369 0.12238100   1.008000   ; qtot 44.676238
 1370         hx     44    ccc    H13   1370 0.12238100   1.008000   ; qtot 44.798619
 1371         c3     44    ccc     C8   1371 -0.20771900  12.010000   ; qtot 44.590900
 1372         hc     44    ccc    H14   1372 0.11463100   1.008000   ; qtot 44.705531
 1373         hc     44    ccc    H15   1373 0.11463100   1.008000   ; qtot 44.820162
 1374          c     44    ccc     C9   1374 0.64078100  12.010000   ; qtot 45.460943
 1375          o     44    ccc     O3   1375 -0.49231900  16.000000   ; qtot 44.968624
 1376         oh     44    ccc     O4   1376 -0.51841900  16.000000   ; qtot 44.450205
 1377         ho     44    ccc    H16   1377 0.45318100   1.008000   ; qtot 44.903386
 1378         os     44    ccc     O5   1378 -0.39491900  16.000000   ; qtot 44.508467
 1379         hn     44    ccc    H17   1379 0.49148100   1.008000   ; qtot 44.999948
; residue   45 ccc rtp ccc q 1.0
 1380         c3     45    ccc     C1   1380 0.14608100  12.010000   ; qtot 45.146029
 1381         h1     45    ccc     H1   1381 0.06738100   1.008000   ; qtot 45.213410
 1382         h1     45    ccc     H2   1382 0.06738100   1.008000   ; qtot 45.280791
 1383         c3     45    ccc     C2   1383 -0.14571900  12.010000   ; qtot 45.135072
 1384         hc     45    ccc     H3   1384 0.08688100   1.008000   ; qtot 45.221953
 1385         hc     45    ccc     H4   1385 0.08688100   1.008000   ; qtot 45.308834
 1386         c3     45    ccc     C3   1386 0.12348100  12.010000   ; qtot 45.432315
 1387         hx     45    ccc     H5   1387 0.10638100   1.008000   ; qtot 45.538696
 1388         hx     45    ccc     H6   1388 0.10638100   1.008000   ; qtot 45.645077
 1389         n4     45    ccc     N1   1389 -0.69071900  14.010000   ; qtot 44.954358
 1390         c3     45    ccc     C4   1390 0.12498100  12.010000   ; qtot 45.079339
 1391         hx     45    ccc     H7   1391 0.12238100   1.008000   ; qtot 45.201720
 1392         hx     45    ccc     H8   1392 0.12238100   1.008000   ; qtot 45.324101
 1393         c3     45    ccc     C5   1393 -0.20771900  12.010000   ; qtot 45.116382
 1394         hc     45    ccc     H9   1394 0.11463100   1.008000   ; qtot 45.231013
 1395         hc     45    ccc    H10   1395 0.11463100   1.008000   ; qtot 45.345644
 1396          c     45    ccc     C6   1396 0.64078100  12.010000   ; qtot 45.986425
 1397          o     45    ccc     O1   1397 -0.49231900  16.000000   ; qtot 45.494106
 1398         oh     45    ccc     O2   1398 -0.51841900  16.000000   ; qtot 44.975687
 1399         ho     45    ccc    H11   1399 0.45318100   1.008000   ; qtot 45.428868
 1400         c3     45    ccc     C7   1400 0.12498100  12.010000   ; qtot 45.553849
 1401         hx     45    ccc    H12   1401 0.12238100   1.008000   ; qtot 45.676230
 1402         hx     45    ccc    H13   1402 0.12238100   1.008000   ; qtot 45.798611
 1403         c3     45    ccc     C8   1403 -0.20771900  12.010000   ; qtot 45.590892
 1404         hc     45    ccc    H14   1404 0.11463100   1.008000   ; qtot 45.705523
 1405         hc     45    ccc    H15   1405 0.11463100   1.008000   ; qtot 45.820154
 1406          c     45    ccc     C9   1406 0.64078100  12.010000   ; qtot 46.460935
 1407          o     45    ccc     O3   1407 -0.49231900  16.000000   ; qtot 45.968616
 1408         oh     45    ccc     O4   1408 -0.51841900  16.000000   ; qtot 45.450197
 1409         ho     45    ccc    H16   1409 0.45318100   1.008000   ; qtot 45.903378
 1410         os     45    ccc     O5   1410 -0.39491900  16.000000   ; qtot 45.508459
 1411         hn     45    ccc    H17   1411 0.49148100   1.008000   ; qtot 45.999940
; residue   46 ccc rtp ccc q 1.0
 1412         c3     46    ccc     C1   1412 0.14608100  12.010000   ; qtot 46.146021
 1413         h1     46    ccc     H1   1413 0.06738100   1.008000   ; qtot 46.213402
 1414         h1     46    ccc     H2   1414 0.06738100   1.008000   ; qtot 46.280783
 1415         c3     46    ccc     C2   1415 -0.14571900  12.010000   ; qtot 46.135064
 1416         hc     46    ccc     H3   1416 0.08688100   1.008000   ; qtot 46.221945
 1417         hc     46    ccc     H4   1417 0.08688100   1.008000   ; qtot 46.308826
 1418         c3     46    ccc     C3   1418 0.12348100  12.010000   ; qtot 46.432307
 1419         hx     46    ccc     H5   1419 0.10638100   1.008000   ; qtot 46.538688
 1420         hx     46    ccc     H6   1420 0.10638100   1.008000   ; qtot 46.645069
 1421         n4     46    ccc     N1   1421 -0.69071900  14.010000   ; qtot 45.954350
 1422         c3     46    ccc     C4   1422 0.12498100  12.010000   ; qtot 46.079331
 1423         hx     46    ccc     H7   1423 0.12238100   1.008000   ; qtot 46.201712
 1424         hx     46    ccc     H8   1424 0.12238100   1.008000   ; qtot 46.324093
 1425         c3     46    ccc     C5   1425 -0.20771900  12.010000   ; qtot 46.116374
 1426         hc     46    ccc     H9   1426 0.11463100   1.008000   ; qtot 46.231005
 1427         hc     46    ccc    H10   1427 0.11463100   1.008000   ; qtot 46.345636
 1428          c     46    ccc     C6   1428 0.64078100  12.010000   ; qtot 46.986417
 1429          o     46    ccc     O1   1429 -0.49231900  16.000000   ; qtot 46.494098
 1430         oh     46    ccc     O2   1430 -0.51841900  16.000000   ; qtot 45.975679
 1431         ho     46    ccc    H11   1431 0.45318100   1.008000   ; qtot 46.428860
 1432         c3     46    ccc     C7   1432 0.12498100  12.010000   ; qtot 46.553841
 1433         hx     46    ccc    H12   1433 0.12238100   1.008000   ; qtot 46.676222
 1434         hx     46    ccc    H13   1434 0.12238100   1.008000   ; qtot 46.798603
 1435         c3     46    ccc     C8   1435 -0.20771900  12.010000   ; qtot 46.590884
 1436         hc     46    ccc    H14   1436 0.11463100   1.008000   ; qtot 46.705515
 1437         hc     46    ccc    H15   1437 0.11463100   1.008000   ; qtot 46.820146
 1438          c     46    ccc     C9   1438 0.64078100  12.010000   ; qtot 47.460927
 1439          o     46    ccc     O3   1439 -0.49231900  16.000000   ; qtot 46.968608
 1440         oh     46    ccc     O4   1440 -0.51841900  16.000000   ; qtot 46.450189
 1441         ho     46    ccc    H16   1441 0.45318100   1.008000   ; qtot 46.903370
 1442         os     46    ccc     O5   1442 -0.39491900  16.000000   ; qtot 46.508451
 1443         hn     46    ccc    H17   1443 0.49148100   1.008000   ; qtot 46.999932
; residue   47 ccc rtp ccc q 1.0
 1444         c3     47    ccc     C1   1444 0.14608100  12.010000   ; qtot 47.146013
 1445         h1     47    ccc     H1   1445 0.06738100   1.008000   ; qtot 47.213394
 1446         h1     47    ccc     H2   1446 0.06738100   1.008000   ; qtot 47.280775
 1447         c3     47    ccc     C2   1447 -0.14571900  12.010000   ; qtot 47.135056
 1448         hc     47    ccc     H3   1448 0.08688100   1.008000   ; qtot 47.221937
 1449         hc     47    ccc     H4   1449 0.08688100   1.008000   ; qtot 47.308818
 1450         c3     47    ccc     C3   1450 0.12348100  12.010000   ; qtot 47.432299
 1451         hx     47    ccc     H5   1451 0.10638100   1.008000   ; qtot 47.538680
 1452         hx     47    ccc     H6   1452 0.10638100   1.008000   ; qtot 47.645061
 1453         n4     47    ccc     N1   1453 -0.69071900  14.010000   ; qtot 46.954342
 1454         c3     47    ccc     C4   1454 0.12498100  12.010000   ; qtot 47.079323
 1455         hx     47    ccc     H7   1455 0.12238100   1.008000   ; qtot 47.201704
 1456         hx     47    ccc     H8   1456 0.12238100   1.008000   ; qtot 47.324085
 1457         c3     47    ccc     C5   1457 -0.20771900  12.010000   ; qtot 47.116366
 1458         hc     47    ccc     H9   1458 0.11463100   1.008000   ; qtot 47.230997
 1459         hc     47    ccc    H10   1459 0.11463100   1.008000   ; qtot 47.345628
 1460          c     47    ccc     C6   1460 0.64078100  12.010000   ; qtot 47.986409
 1461          o     47    ccc     O1   1461 -0.49231900  16.000000   ; qtot 47.494090
 1462         oh     47    ccc     O2   1462 -0.51841900  16.000000   ; qtot 46.975671
 1463         ho     47    ccc    H11   1463 0.45318100   1.008000   ; qtot 47.428852
 1464         c3     47    ccc     C7   1464 0.12498100  12.010000   ; qtot 47.553833
 1465         hx     47    ccc    H12   1465 0.12238100   1.008000   ; qtot 47.676214
 1466         hx     47    ccc    H13   1466 0.12238100   1.008000   ; qtot 47.798595
 1467         c3     47    ccc     C8   1467 -0.20771900  12.010000   ; qtot 47.590876
 1468         hc     47    ccc    H14   1468 0.11463100   1.008000   ; qtot 47.705507
 1469         hc     47    ccc    H15   1469 0.11463100   1.008000   ; qtot 47.820138
 1470          c     47    ccc     C9   1470 0.64078100  12.010000   ; qtot 48.460919
 1471          o     47    ccc     O3   1471 -0.49231900  16.000000   ; qtot 47.968600
 1472         oh     47    ccc     O4   1472 -0.51841900  16.000000   ; qtot 47.450181
 1473         ho     47    ccc    H16   1473 0.45318100   1.008000   ; qtot 47.903362
 1474         os     47    ccc     O5   1474 -0.39491900  16.000000   ; qtot 47.508443
 1475         hn     47    ccc    H17   1475 0.49148100   1.008000   ; qtot 47.999924
; residue   48 ccc rtp ccc q 1.0
 1476         c3     48    ccc     C1   1476 0.14608100  12.010000   ; qtot 48.146005
 1477         h1     48    ccc     H1   1477 0.06738100   1.008000   ; qtot 48.213386
 1478         h1     48    ccc     H2   1478 0.06738100   1.008000   ; qtot 48.280767
 1479         c3     48    ccc     C2   1479 -0.14571900  12.010000   ; qtot 48.135048
 1480         hc     48    ccc     H3   1480 0.08688100   1.008000   ; qtot 48.221929
 1481         hc     48    ccc     H4   1481 0.08688100   1.008000   ; qtot 48.308810
 1482         c3     48    ccc     C3   1482 0.12348100  12.010000   ; qtot 48.432291
 1483         hx     48    ccc     H5   1483 0.10638100   1.008000   ; qtot 48.538672
 1484         hx     48    ccc     H6   1484 0.10638100   1.008000   ; qtot 48.645053
 1485         n4     48    ccc     N1   1485 -0.69071900  14.010000   ; qtot 47.954334
 1486         c3     48    ccc     C4   1486 0.12498100  12.010000   ; qtot 48.079315
 1487         hx     48    ccc     H7   1487 0.12238100   1.008000   ; qtot 48.201696
 1488         hx     48    ccc     H8   1488 0.12238100   1.008000   ; qtot 48.324077
 1489         c3     48    ccc     C5   1489 -0.20771900  12.010000   ; qtot 48.116358
 1490         hc     48    ccc     H9   1490 0.11463100   1.008000   ; qtot 48.230989
 1491         hc     48    ccc    H10   1491 0.11463100   1.008000   ; qtot 48.345620
 1492          c     48    ccc     C6   1492 0.64078100  12.010000   ; qtot 48.986401
 1493          o     48    ccc     O1   1493 -0.49231900  16.000000   ; qtot 48.494082
 1494         oh     48    ccc     O2   1494 -0.51841900  16.000000   ; qtot 47.975663
 1495         ho     48    ccc    H11   1495 0.45318100   1.008000   ; qtot 48.428844
 1496         c3     48    ccc     C7   1496 0.12498100  12.010000   ; qtot 48.553825
 1497         hx     48    ccc    H12   1497 0.12238100   1.008000   ; qtot 48.676206
 1498         hx     48    ccc    H13   1498 0.12238100   1.008000   ; qtot 48.798587
 1499         c3     48    ccc     C8   1499 -0.20771900  12.010000   ; qtot 48.590868
 1500         hc     48    ccc    H14   1500 0.11463100   1.008000   ; qtot 48.705499
 1501         hc     48    ccc    H15   1501 0.11463100   1.008000   ; qtot 48.820130
 1502          c     48    ccc     C9   1502 0.64078100  12.010000   ; qtot 49.460911
 1503          o     48    ccc     O3   1503 -0.49231900  16.000000   ; qtot 48.968592
 1504         oh     48    ccc     O4   1504 -0.51841900  16.000000   ; qtot 48.450173
 1505         ho     48    ccc    H16   1505 0.45318100   1.008000   ; qtot 48.903354
 1506         os     48    ccc     O5   1506 -0.39491900  16.000000   ; qtot 48.508435
 1507         hn     48    ccc    H17   1507 0.49148100   1.008000   ; qtot 48.999916
; residue   49 ccc rtp ccc q 1.0
 1508         c3     49    ccc     C1   1508 0.14608100  12.010000   ; qtot 49.145997
 1509         h1     49    ccc     H1   1509 0.06738100   1.008000   ; qtot 49.213378
 1510         h1     49    ccc     H2   1510 0.06738100   1.008000   ; qtot 49.280759
 1511         c3     49    ccc     C2   1511 -0.14571900  12.010000   ; qtot 49.135040
 1512         hc     49    ccc     H3   1512 0.08688100   1.008000   ; qtot 49.221921
 1513         hc     49    ccc     H4   1513 0.08688100   1.008000   ; qtot 49.308802
 1514         c3     49    ccc     C3   1514 0.12348100  12.010000   ; qtot 49.432283
 1515         hx     49    ccc     H5   1515 0.10638100   1.008000   ; qtot 49.538664
 1516         hx     49    ccc     H6   1516 0.10638100   1.008000   ; qtot 49.645045
 1517         n4     49    ccc     N1   1517 -0.69071900  14.010000   ; qtot 48.954326
 1518         c3     49    ccc     C4   1518 0.12498100  12.010000   ; qtot 49.079307
 1519         hx     49    ccc     H7   1519 0.12238100   1.008000   ; qtot 49.201688
 1520         hx     49    ccc     H8   1520 0.12238100   1.008000   ; qtot 49.324069
 1521         c3     49    ccc     C5   1521 -0.20771900  12.010000   ; qtot 49.116350
 1522         hc     49    ccc     H9   1522 0.11463100   1.008000   ; qtot 49.230981
 1523         hc     49    ccc    H10   1523 0.11463100   1.008000   ; qtot 49.345612
 1524          c     49    ccc     C6   1524 0.64078100  12.010000   ; qtot 49.986393
 1525          o     49    ccc     O1   1525 -0.49231900  16.000000   ; qtot 49.494074
 1526         oh     49    ccc     O2   1526 -0.51841900  16.000000   ; qtot 48.975655
 1527         ho     49    ccc    H11   1527 0.45318100   1.008000   ; qtot 49.428836
 1528         c3     49    ccc     C7   1528 0.12498100  12.010000   ; qtot 49.553817
 1529         hx     49    ccc    H12   1529 0.12238100   1.008000   ; qtot 49.676198
 1530         hx     49    ccc    H13   1530 0.12238100   1.008000   ; qtot 49.798579
 1531         c3     49    ccc     C8   1531 -0.20771900  12.010000   ; qtot 49.590860
 1532         hc     49    ccc    H14   1532 0.11463100   1.008000   ; qtot 49.705491
 1533         hc     49    ccc    H15   1533 0.11463100   1.008000   ; qtot 49.820122
 1534          c     49    ccc     C9   1534 0.64078100  12.010000   ; qtot 50.460903
 1535          o     49    ccc     O3   1535 -0.49231900  16.000000   ; qtot 49.968584
 1536         oh     49    ccc     O4   1536 -0.51841900  16.000000   ; qtot 49.450165
 1537         ho     49    ccc    H16   1537 0.45318100   1.008000   ; qtot 49.903346
 1538         os     49    ccc     O5   1538 -0.39491900  16.000000   ; qtot 49.508427
 1539         hn     49    ccc    H17   1539 0.49148100   1.008000   ; qtot 49.999908
; residue   50 ccc rtp ccc q 1.0
 1540         c3     50    ccc     C1   1540 0.14608100  12.010000   ; qtot 50.145989
 1541         h1     50    ccc     H1   1541 0.06738100   1.008000   ; qtot 50.213370
 1542         h1     50    ccc     H2   1542 0.06738100   1.008000   ; qtot 50.280751
 1543         c3     50    ccc     C2   1543 -0.14571900  12.010000   ; qtot 50.135032
 1544         hc     50    ccc     H3   1544 0.08688100   1.008000   ; qtot 50.221913
 1545         hc     50    ccc     H4   1545 0.08688100   1.008000   ; qtot 50.308794
 1546         c3     50    ccc     C3   1546 0.12348100  12.010000   ; qtot 50.432275
 1547         hx     50    ccc     H5   1547 0.10638100   1.008000   ; qtot 50.538656
 1548         hx     50    ccc     H6   1548 0.10638100   1.008000   ; qtot 50.645037
 1549         n4     50    ccc     N1   1549 -0.69071900  14.010000   ; qtot 49.954318
 1550         c3     50    ccc     C4   1550 0.12498100  12.010000   ; qtot 50.079299
 1551         hx     50    ccc     H7   1551 0.12238100   1.008000   ; qtot 50.201680
 1552         hx     50    ccc     H8   1552 0.12238100   1.008000   ; qtot 50.324061
 1553         c3     50    ccc     C5   1553 -0.20771900  12.010000   ; qtot 50.116342
 1554         hc     50    ccc     H9   1554 0.11463100   1.008000   ; qtot 50.230973
 1555         hc     50    ccc    H10   1555 0.11463100   1.008000   ; qtot 50.345604
 1556          c     50    ccc     C6   1556 0.64078100  12.010000   ; qtot 50.986385
 1557          o     50    ccc     O1   1557 -0.49231900  16.000000   ; qtot 50.494066
 1558         oh     50    ccc     O2   1558 -0.51841900  16.000000   ; qtot 49.975647
 1559         ho     50    ccc    H11   1559 0.45318100   1.008000   ; qtot 50.428828
 1560         c3     50    ccc     C7   1560 0.12498100  12.010000   ; qtot 50.553809
 1561         hx     50    ccc    H12   1561 0.12238100   1.008000   ; qtot 50.676190
 1562         hx     50    ccc    H13   1562 0.12238100   1.008000   ; qtot 50.798571
 1563         c3     50    ccc     C8   1563 -0.20771900  12.010000   ; qtot 50.590852
 1564         hc     50    ccc    H14   1564 0.11463100   1.008000   ; qtot 50.705483
 1565         hc     50    ccc    H15   1565 0.11463100   1.008000   ; qtot 50.820114
 1566          c     50    ccc     C9   1566 0.64078100  12.010000   ; qtot 51.460895
 1567          o     50    ccc     O3   1567 -0.49231900  16.000000   ; qtot 50.968576
 1568         oh     50    ccc     O4   1568 -0.51841900  16.000000   ; qtot 50.450157
 1569         ho     50    ccc    H16   1569 0.45318100   1.008000   ; qtot 50.903338
 1570         os     50    ccc     O5   1570 -0.39491900  16.000000   ; qtot 50.508419
 1571         hn     50    ccc    H17   1571 0.49148100   1.008000   ; qtot 50.999900
; residue   51 ccc rtp ccc q 1.0
 1572         c3     51    ccc     C1   1572 0.14608100  12.010000   ; qtot 51.145981
 1573         h1     51    ccc     H1   1573 0.06738100   1.008000   ; qtot 51.213362
 1574         h1     51    ccc     H2   1574 0.06738100   1.008000   ; qtot 51.280743
 1575         c3     51    ccc     C2   1575 -0.14571900  12.010000   ; qtot 51.135024
 1576         hc     51    ccc     H3   1576 0.08688100   1.008000   ; qtot 51.221905
 1577         hc     51    ccc     H4   1577 0.08688100   1.008000   ; qtot 51.308786
 1578         c3     51    ccc     C3   1578 0.12348100  12.010000   ; qtot 51.432267
 1579         hx     51    ccc     H5   1579 0.10638100   1.008000   ; qtot 51.538648
 1580         hx     51    ccc     H6   1580 0.10638100   1.008000   ; qtot 51.645029
 1581         n4     51    ccc     N1   1581 -0.69071900  14.010000   ; qtot 50.954310
 1582         c3     51    ccc     C4   1582 0.12498100  12.010000   ; qtot 51.079291
 1583         hx     51    ccc     H7   1583 0.12238100   1.008000   ; qtot 51.201672
 1584         hx     51    ccc     H8   1584 0.12238100   1.008000   ; qtot 51.324053
 1585         c3     51    ccc     C5   1585 -0.20771900  12.010000   ; qtot 51.116334
 1586         hc     51    ccc     H9   1586 0.11463100   1.008000   ; qtot 51.230965
 1587         hc     51    ccc    H10   1587 0.11463100   1.008000   ; qtot 51.345596
 1588          c     51    ccc     C6   1588 0.64078100  12.010000   ; qtot 51.986377
 1589          o     51    ccc     O1   1589 -0.49231900  16.000000   ; qtot 51.494058
 1590         oh     51    ccc     O2   1590 -0.51841900  16.000000   ; qtot 50.975639
 1591         ho     51    ccc    H11   1591 0.45318100   1.008000   ; qtot 51.428820
 1592         c3     51    ccc     C7   1592 0.12498100  12.010000   ; qtot 51.553801
 1593         hx     51    ccc    H12   1593 0.12238100   1.008000   ; qtot 51.676182
 1594         hx     51    ccc    H13   1594 0.12238100   1.008000   ; qtot 51.798563
 1595         c3     51    ccc     C8   1595 -0.20771900  12.010000   ; qtot 51.590844
 1596         hc     51    ccc    H14   1596 0.11463100   1.008000   ; qtot 51.705475
 1597         hc     51    ccc    H15   1597 0.11463100   1.008000   ; qtot 51.820106
 1598          c     51    ccc     C9   1598 0.64078100  12.010000   ; qtot 52.460887
 1599          o     51    ccc     O3   1599 -0.49231900  16.000000   ; qtot 51.968568
 1600         oh     51    ccc     O4   1600 -0.51841900  16.000000   ; qtot 51.450149
 1601         ho     51    ccc    H16   1601 0.45318100   1.008000   ; qtot 51.903330
 1602         os     51    ccc     O5   1602 -0.39491900  16.000000   ; qtot 51.508411
 1603         hn     51    ccc    H17   1603 0.49148100   1.008000   ; qtot 51.999892
; residue   52 ccc rtp ccc q 1.0
 1604         c3     52    ccc     C1   1604 0.14608100  12.010000   ; qtot 52.145973
 1605         h1     52    ccc     H1   1605 0.06738100   1.008000   ; qtot 52.213354
 1606         h1     52    ccc     H2   1606 0.06738100   1.008000   ; qtot 52.280735
 1607         c3     52    ccc     C2   1607 -0.14571900  12.010000   ; qtot 52.135016
 1608         hc     52    ccc     H3   1608 0.08688100   1.008000   ; qtot 52.221897
 1609         hc     52    ccc     H4   1609 0.08688100   1.008000   ; qtot 52.308778
 1610         c3     52    ccc     C3   1610 0.12348100  12.010000   ; qtot 52.432259
 1611         hx     52    ccc     H5   1611 0.10638100   1.008000   ; qtot 52.538640
 1612         hx     52    ccc     H6   1612 0.10638100   1.008000   ; qtot 52.645021
 1613         n4     52    ccc     N1   1613 -0.69071900  14.010000   ; qtot 51.954302
 1614         c3     52    ccc     C4   1614 0.12498100  12.010000   ; qtot 52.079283
 1615         hx     52    ccc     H7   1615 0.12238100   1.008000   ; qtot 52.201664
 1616         hx     52    ccc     H8   1616 0.12238100   1.008000   ; qtot 52.324045
 1617         c3     52    ccc     C5   1617 -0.20771900  12.010000   ; qtot 52.116326
 1618         hc     52    ccc     H9   1618 0.11463100   1.008000   ; qtot 52.230957
 1619         hc     52    ccc    H10   1619 0.11463100   1.008000   ; qtot 52.345588
 1620          c     52    ccc     C6   1620 0.64078100  12.010000   ; qtot 52.986369
 1621          o     52    ccc     O1   1621 -0.49231900  16.000000   ; qtot 52.494050
 1622         oh     52    ccc     O2   1622 -0.51841900  16.000000   ; qtot 51.975631
 1623         ho     52    ccc    H11   1623 0.45318100   1.008000   ; qtot 52.428812
 1624         c3     52    ccc     C7   1624 0.12498100  12.010000   ; qtot 52.553793
 1625         hx     52    ccc    H12   1625 0.12238100   1.008000   ; qtot 52.676174
 1626         hx     52    ccc    H13   1626 0.12238100   1.008000   ; qtot 52.798555
 1627         c3     52    ccc     C8   1627 -0.20771900  12.010000   ; qtot 52.590836
 1628         hc     52    ccc    H14   1628 0.11463100   1.008000   ; qtot 52.705467
 1629         hc     52    ccc    H15   1629 0.11463100   1.008000   ; qtot 52.820098
 1630          c     52    ccc     C9   1630 0.64078100  12.010000   ; qtot 53.460879
 1631          o     52    ccc     O3   1631 -0.49231900  16.000000   ; qtot 52.968560
 1632         oh     52    ccc     O4   1632 -0.51841900  16.000000   ; qtot 52.450141
 1633         ho     52    ccc    H16   1633 0.45318100   1.008000   ; qtot 52.903322
 1634         os     52    ccc     O5   1634 -0.39491900  16.000000   ; qtot 52.508403
 1635         hn     52    ccc    H17   1635 0.49148100   1.008000   ; qtot 52.999884
; residue   53 ccc rtp ccc q 1.0
 1636         c3     53    ccc     C1   1636 0.14608100  12.010000   ; qtot 53.145965
 1637         h1     53    ccc     H1   1637 0.06738100   1.008000   ; qtot 53.213346
 1638         h1     53    ccc     H2   1638 0.06738100   1.008000   ; qtot 53.280727
 1639         c3     53    ccc     C2   1639 -0.14571900  12.010000   ; qtot 53.135008
 1640         hc     53    ccc     H3   1640 0.08688100   1.008000   ; qtot 53.221889
 1641         hc     53    ccc     H4   1641 0.08688100   1.008000   ; qtot 53.308770
 1642         c3     53    ccc     C3   1642 0.12348100  12.010000   ; qtot 53.432251
 1643         hx     53    ccc     H5   1643 0.10638100   1.008000   ; qtot 53.538632
 1644         hx     53    ccc     H6   1644 0.10638100   1.008000   ; qtot 53.645013
 1645         n4     53    ccc     N1   1645 -0.69071900  14.010000   ; qtot 52.954294
 1646         c3     53    ccc     C4   1646 0.12498100  12.010000   ; qtot 53.079275
 1647         hx     53    ccc     H7   1647 0.12238100   1.008000   ; qtot 53.201656
 1648         hx     53    ccc     H8   1648 0.12238100   1.008000   ; qtot 53.324037
 1649         c3     53    ccc     C5   1649 -0.20771900  12.010000   ; qtot 53.116318
 1650         hc     53    ccc     H9   1650 0.11463100   1.008000   ; qtot 53.230949
 1651         hc     53    ccc    H10   1651 0.11463100   1.008000   ; qtot 53.345580
 1652          c     53    ccc     C6   1652 0.64078100  12.010000   ; qtot 53.986361
 1653          o     53    ccc     O1   1653 -0.49231900  16.000000   ; qtot 53.494042
 1654         oh     53    ccc     O2   1654 -0.51841900  16.000000   ; qtot 52.975623
 1655         ho     53    ccc    H11   1655 0.45318100   1.008000   ; qtot 53.428804
 1656         c3     53    ccc     C7   1656 0.12498100  12.010000   ; qtot 53.553785
 1657         hx     53    ccc    H12   1657 0.12238100   1.008000   ; qtot 53.676166
 1658         hx     53    ccc    H13   1658 0.12238100   1.008000   ; qtot 53.798547
 1659         c3     53    ccc     C8   1659 -0.20771900  12.010000   ; qtot 53.590828
 1660         hc     53    ccc    H14   1660 0.11463100   1.008000   ; qtot 53.705459
 1661         hc     53    ccc    H15   1661 0.11463100   1.008000   ; qtot 53.820090
 1662          c     53    ccc     C9   1662 0.64078100  12.010000   ; qtot 54.460871
 1663          o     53    ccc     O3   1663 -0.49231900  16.000000   ; qtot 53.968552
 1664         oh     53    ccc     O4   1664 -0.51841900  16.000000   ; qtot 53.450133
 1665         ho     53    ccc    H16   1665 0.45318100   1.008000   ; qtot 53.903314
 1666         os     53    ccc     O5   1666 -0.39491900  16.000000   ; qtot 53.508395
 1667         hn     53    ccc    H17   1667 0.49148100   1.008000   ; qtot 53.999876
; residue   54 ccc rtp ccc q 1.0
 1668         c3     54    ccc     C1   1668 0.14608100  12.010000   ; qtot 54.145957
 1669         h1     54    ccc     H1   1669 0.06738100   1.008000   ; qtot 54.213338
 1670         h1     54    ccc     H2   1670 0.06738100   1.008000   ; qtot 54.280719
 1671         c3     54    ccc     C2   1671 -0.14571900  12.010000   ; qtot 54.135000
 1672         hc     54    ccc     H3   1672 0.08688100   1.008000   ; qtot 54.221881
 1673         hc     54    ccc     H4   1673 0.08688100   1.008000   ; qtot 54.308762
 1674         c3     54    ccc     C3   1674 0.12348100  12.010000   ; qtot 54.432243
 1675         hx     54    ccc     H5   1675 0.10638100   1.008000   ; qtot 54.538624
 1676         hx     54    ccc     H6   1676 0.10638100   1.008000   ; qtot 54.645005
 1677         n4     54    ccc     N1   1677 -0.69071900  14.010000   ; qtot 53.954286
 1678         c3     54    ccc     C4   1678 0.12498100  12.010000   ; qtot 54.079267
 1679         hx     54    ccc     H7   1679 0.12238100   1.008000   ; qtot 54.201648
 1680         hx     54    ccc     H8   1680 0.12238100   1.008000   ; qtot 54.324029
 1681         c3     54    ccc     C5   1681 -0.20771900  12.010000   ; qtot 54.116310
 1682         hc     54    ccc     H9   1682 0.11463100   1.008000   ; qtot 54.230941
 1683         hc     54    ccc    H10   1683 0.11463100   1.008000   ; qtot 54.345572
 1684          c     54    ccc     C6   1684 0.64078100  12.010000   ; qtot 54.986353
 1685          o     54    ccc     O1   1685 -0.49231900  16.000000   ; qtot 54.494034
 1686         oh     54    ccc     O2   1686 -0.51841900  16.000000   ; qtot 53.975615
 1687         ho     54    ccc    H11   1687 0.45318100   1.008000   ; qtot 54.428796
 1688         c3     54    ccc     C7   1688 0.12498100  12.010000   ; qtot 54.553777
 1689         hx     54    ccc    H12   1689 0.12238100   1.008000   ; qtot 54.676158
 1690         hx     54    ccc    H13   1690 0.12238100   1.008000   ; qtot 54.798539
 1691         c3     54    ccc     C8   1691 -0.20771900  12.010000   ; qtot 54.590820
 1692         hc     54    ccc    H14   1692 0.11463100   1.008000   ; qtot 54.705451
 1693         hc     54    ccc    H15   1693 0.11463100   1.008000   ; qtot 54.820082
 1694          c     54    ccc     C9   1694 0.64078100  12.010000   ; qtot 55.460863
 1695          o     54    ccc     O3   1695 -0.49231900  16.000000   ; qtot 54.968544
 1696         oh     54    ccc     O4   1696 -0.51841900  16.000000   ; qtot 54.450125
 1697         ho     54    ccc    H16   1697 0.45318100   1.008000   ; qtot 54.903306
 1698         os     54    ccc     O5   1698 -0.39491900  16.000000   ; qtot 54.508387
 1699         hn     54    ccc    H17   1699 0.49148100   1.008000   ; qtot 54.999868
; residue   55 ccc rtp ccc q 1.0
 1700         c3     55    ccc     C1   1700 0.14608100  12.010000   ; qtot 55.145949
 1701         h1     55    ccc     H1   1701 0.06738100   1.008000   ; qtot 55.213330
 1702         h1     55    ccc     H2   1702 0.06738100   1.008000   ; qtot 55.280711
 1703         c3     55    ccc     C2   1703 -0.14571900  12.010000   ; qtot 55.134992
 1704         hc     55    ccc     H3   1704 0.08688100   1.008000   ; qtot 55.221873
 1705         hc     55    ccc     H4   1705 0.08688100   1.008000   ; qtot 55.308754
 1706         c3     55    ccc     C3   1706 0.12348100  12.010000   ; qtot 55.432235
 1707         hx     55    ccc     H5   1707 0.10638100   1.008000   ; qtot 55.538616
 1708         hx     55    ccc     H6   1708 0.10638100   1.008000   ; qtot 55.644997
 1709         n4     55    ccc     N1   1709 -0.69071900  14.010000   ; qtot 54.954278
 1710         c3     55    ccc     C4   1710 0.12498100  12.010000   ; qtot 55.079259
 1711         hx     55    ccc     H7   1711 0.12238100   1.008000   ; qtot 55.201640
 1712         hx     55    ccc     H8   1712 0.12238100   1.008000   ; qtot 55.324021
 1713         c3     55    ccc     C5   1713 -0.20771900  12.010000   ; qtot 55.116302
 1714         hc     55    ccc     H9   1714 0.11463100   1.008000   ; qtot 55.230933
 1715         hc     55    ccc    H10   1715 0.11463100   1.008000   ; qtot 55.345564
 1716          c     55    ccc     C6   1716 0.64078100  12.010000   ; qtot 55.986345
 1717          o     55    ccc     O1   1717 -0.49231900  16.000000   ; qtot 55.494026
 1718         oh     55    ccc     O2   1718 -0.51841900  16.000000   ; qtot 54.975607
 1719         ho     55    ccc    H11   1719 0.45318100   1.008000   ; qtot 55.428788
 1720         c3     55    ccc     C7   1720 0.12498100  12.010000   ; qtot 55.553769
 1721         hx     55    ccc    H12   1721 0.12238100   1.008000   ; qtot 55.676150
 1722         hx     55    ccc    H13   1722 0.12238100   1.008000   ; qtot 55.798531
 1723         c3     55    ccc     C8   1723 -0.20771900  12.010000   ; qtot 55.590812
 1724         hc     55    ccc    H14   1724 0.11463100   1.008000   ; qtot 55.705443
 1725         hc     55    ccc    H15   1725 0.11463100   1.008000   ; qtot 55.820074
 1726          c     55    ccc     C9   1726 0.64078100  12.010000   ; qtot 56.460855
 1727          o     55    ccc     O3   1727 -0.49231900  16.000000   ; qtot 55.968536
 1728         oh     55    ccc     O4   1728 -0.51841900  16.000000   ; qtot 55.450117
 1729         ho     55    ccc    H16   1729 0.45318100   1.008000   ; qtot 55.903298
 1730         os     55    ccc     O5   1730 -0.39491900  16.000000   ; qtot 55.508379
 1731         hn     55    ccc    H17   1731 0.49148100   1.008000   ; qtot 55.999860
; residue   56 ccc rtp ccc q 1.0
 1732         c3     56    ccc     C1   1732 0.14608100  12.010000   ; qtot 56.145941
 1733         h1     56    ccc     H1   1733 0.06738100   1.008000   ; qtot 56.213322
 1734         h1     56    ccc     H2   1734 0.06738100   1.008000   ; qtot 56.280703
 1735         c3     56    ccc     C2   1735 -0.14571900  12.010000   ; qtot 56.134984
 1736         hc     56    ccc     H3   1736 0.08688100   1.008000   ; qtot 56.221865
 1737         hc     56    ccc     H4   1737 0.08688100   1.008000   ; qtot 56.308746
 1738         c3     56    ccc     C3   1738 0.12348100  12.010000   ; qtot 56.432227
 1739         hx     56    ccc     H5   1739 0.10638100   1.008000   ; qtot 56.538608
 1740         hx     56    ccc     H6   1740 0.10638100   1.008000   ; qtot 56.644989
 1741         n4     56    ccc     N1   1741 -0.69071900  14.010000   ; qtot 55.954270
 1742         c3     56    ccc     C4   1742 0.12498100  12.010000   ; qtot 56.079251
 1743         hx     56    ccc     H7   1743 0.12238100   1.008000   ; qtot 56.201632
 1744         hx     56    ccc     H8   1744 0.12238100   1.008000   ; qtot 56.324013
 1745         c3     56    ccc     C5   1745 -0.20771900  12.010000   ; qtot 56.116294
 1746         hc     56    ccc     H9   1746 0.11463100   1.008000   ; qtot 56.230925
 1747         hc     56    ccc    H10   1747 0.11463100   1.008000   ; qtot 56.345556
 1748          c     56    ccc     C6   1748 0.64078100  12.010000   ; qtot 56.986337
 1749          o     56    ccc     O1   1749 -0.49231900  16.000000   ; qtot 56.494018
 1750         oh     56    ccc     O2   1750 -0.51841900  16.000000   ; qtot 55.975599
 1751         ho     56    ccc    H11   1751 0.45318100   1.008000   ; qtot 56.428780
 1752         c3     56    ccc     C7   1752 0.12498100  12.010000   ; qtot 56.553761
 1753         hx     56    ccc    H12   1753 0.12238100   1.008000   ; qtot 56.676142
 1754         hx     56    ccc    H13   1754 0.12238100   1.008000   ; qtot 56.798523
 1755         c3     56    ccc     C8   1755 -0.20771900  12.010000   ; qtot 56.590804
 1756         hc     56    ccc    H14   1756 0.11463100   1.008000   ; qtot 56.705435
 1757         hc     56    ccc    H15   1757 0.11463100   1.008000   ; qtot 56.820066
 1758          c     56    ccc     C9   1758 0.64078100  12.010000   ; qtot 57.460847
 1759          o     56    ccc     O3   1759 -0.49231900  16.000000   ; qtot 56.968528
 1760         oh     56    ccc     O4   1760 -0.51841900  16.000000   ; qtot 56.450109
 1761         ho     56    ccc    H16   1761 0.45318100   1.008000   ; qtot 56.903290
 1762         os     56    ccc     O5   1762 -0.39491900  16.000000   ; qtot 56.508371
 1763         hn     56    ccc    H17   1763 0.49148100   1.008000   ; qtot 56.999852
; residue   57 ccc rtp ccc q 1.0
 1764         c3     57    ccc     C1   1764 0.14608100  12.010000   ; qtot 57.145933
 1765         h1     57    ccc     H1   1765 0.06738100   1.008000   ; qtot 57.213314
 1766         h1     57    ccc     H2   1766 0.06738100   1.008000   ; qtot 57.280695
 1767         c3     57    ccc     C2   1767 -0.14571900  12.010000   ; qtot 57.134976
 1768         hc     57    ccc     H3   1768 0.08688100   1.008000   ; qtot 57.221857
 1769         hc     57    ccc     H4   1769 0.08688100   1.008000   ; qtot 57.308738
 1770         c3     57    ccc     C3   1770 0.12348100  12.010000   ; qtot 57.432219
 1771         hx     57    ccc     H5   1771 0.10638100   1.008000   ; qtot 57.538600
 1772         hx     57    ccc     H6   1772 0.10638100   1.008000   ; qtot 57.644981
 1773         n4     57    ccc     N1   1773 -0.69071900  14.010000   ; qtot 56.954262
 1774         c3     57    ccc     C4   1774 0.12498100  12.010000   ; qtot 57.079243
 1775         hx     57    ccc     H7   1775 0.12238100   1.008000   ; qtot 57.201624
 1776         hx     57    ccc     H8   1776 0.12238100   1.008000   ; qtot 57.324005
 1777         c3     57    ccc     C5   1777 -0.20771900  12.010000   ; qtot 57.116286
 1778         hc     57    ccc     H9   1778 0.11463100   1.008000   ; qtot 57.230917
 1779         hc     57    ccc    H10   1779 0.11463100   1.008000   ; qtot 57.345548
 1780          c     57    ccc     C6   1780 0.64078100  12.010000   ; qtot 57.986329
 1781          o     57    ccc     O1   1781 -0.49231900  16.000000   ; qtot 57.494010
 1782         oh     57    ccc     O2   1782 -0.51841900  16.000000   ; qtot 56.975591
 1783         ho     57    ccc    H11   1783 0.45318100   1.008000   ; qtot 57.428772
 1784         c3     57    ccc     C7   1784 0.12498100  12.010000   ; qtot 57.553753
 1785         hx     57    ccc    H12   1785 0.12238100   1.008000   ; qtot 57.676134
 1786         hx     57    ccc    H13   1786 0.12238100   1.008000   ; qtot 57.798515
 1787         c3     57    ccc     C8   1787 -0.20771900  12.010000   ; qtot 57.590796
 1788         hc     57    ccc    H14   1788 0.11463100   1.008000   ; qtot 57.705427
 1789         hc     57    ccc    H15   1789 0.11463100   1.008000   ; qtot 57.820058
 1790          c     57    ccc     C9   1790 0.64078100  12.010000   ; qtot 58.460839
 1791          o     57    ccc     O3   1791 -0.49231900  16.000000   ; qtot 57.968520
 1792         oh     57    ccc     O4   1792 -0.51841900  16.000000   ; qtot 57.450101
 1793         ho     57    ccc    H16   1793 0.45318100   1.008000   ; qtot 57.903282
 1794         os     57    ccc     O5   1794 -0.39491900  16.000000   ; qtot 57.508363
 1795         hn     57    ccc    H17   1795 0.49148100   1.008000   ; qtot 57.999844
; residue   58 ccc rtp ccc q 1.0
 1796         c3     58    ccc     C1   1796 0.14608100  12.010000   ; qtot 58.145925
 1797         h1     58    ccc     H1   1797 0.06738100   1.008000   ; qtot 58.213306
 1798         h1     58    ccc     H2   1798 0.06738100   1.008000   ; qtot 58.280687
 1799         c3     58    ccc     C2   1799 -0.14571900  12.010000   ; qtot 58.134968
 1800         hc     58    ccc     H3   1800 0.08688100   1.008000   ; qtot 58.221849
 1801         hc     58    ccc     H4   1801 0.08688100   1.008000   ; qtot 58.308730
 1802         c3     58    ccc     C3   1802 0.12348100  12.010000   ; qtot 58.432211
 1803         hx     58    ccc     H5   1803 0.10638100   1.008000   ; qtot 58.538592
 1804         hx     58    ccc     H6   1804 0.10638100   1.008000   ; qtot 58.644973
 1805         n4     58    ccc     N1   1805 -0.69071900  14.010000   ; qtot 57.954254
 1806         c3     58    ccc     C4   1806 0.12498100  12.010000   ; qtot 58.079235
 1807         hx     58    ccc     H7   1807 0.12238100   1.008000   ; qtot 58.201616
 1808         hx     58    ccc     H8   1808 0.12238100   1.008000   ; qtot 58.323997
 1809         c3     58    ccc     C5   1809 -0.20771900  12.010000   ; qtot 58.116278
 1810         hc     58    ccc     H9   1810 0.11463100   1.008000   ; qtot 58.230909
 1811         hc     58    ccc    H10   1811 0.11463100   1.008000   ; qtot 58.345540
 1812          c     58    ccc     C6   1812 0.64078100  12.010000   ; qtot 58.986321
 1813          o     58    ccc     O1   1813 -0.49231900  16.000000   ; qtot 58.494002
 1814         oh     58    ccc     O2   1814 -0.51841900  16.000000   ; qtot 57.975583
 1815         ho     58    ccc    H11   1815 0.45318100   1.008000   ; qtot 58.428764
 1816         c3     58    ccc     C7   1816 0.12498100  12.010000   ; qtot 58.553745
 1817         hx     58    ccc    H12   1817 0.12238100   1.008000   ; qtot 58.676126
 1818         hx     58    ccc    H13   1818 0.12238100   1.008000   ; qtot 58.798507
 1819         c3     58    ccc     C8   1819 -0.20771900  12.010000   ; qtot 58.590788
 1820         hc     58    ccc    H14   1820 0.11463100   1.008000   ; qtot 58.705419
 1821         hc     58    ccc    H15   1821 0.11463100   1.008000   ; qtot 58.820050
 1822          c     58    ccc     C9   1822 0.64078100  12.010000   ; qtot 59.460831
 1823          o     58    ccc     O3   1823 -0.49231900  16.000000   ; qtot 58.968512
 1824         oh     58    ccc     O4   1824 -0.51841900  16.000000   ; qtot 58.450093
 1825         ho     58    ccc    H16   1825 0.45318100   1.008000   ; qtot 58.903274
 1826         os     58    ccc     O5   1826 -0.39491900  16.000000   ; qtot 58.508355
 1827         hn     58    ccc    H17   1827 0.49148100   1.008000   ; qtot 58.999836
; residue   59 ccc rtp ccc q 1.0
 1828         c3     59    ccc     C1   1828 0.14608100  12.010000   ; qtot 59.145917
 1829         h1     59    ccc     H1   1829 0.06738100   1.008000   ; qtot 59.213298
 1830         h1     59    ccc     H2   1830 0.06738100   1.008000   ; qtot 59.280679
 1831         c3     59    ccc     C2   1831 -0.14571900  12.010000   ; qtot 59.134960
 1832         hc     59    ccc     H3   1832 0.08688100   1.008000   ; qtot 59.221841
 1833         hc     59    ccc     H4   1833 0.08688100   1.008000   ; qtot 59.308722
 1834         c3     59    ccc     C3   1834 0.12348100  12.010000   ; qtot 59.432203
 1835         hx     59    ccc     H5   1835 0.10638100   1.008000   ; qtot 59.538584
 1836         hx     59    ccc     H6   1836 0.10638100   1.008000   ; qtot 59.644965
 1837         n4     59    ccc     N1   1837 -0.69071900  14.010000   ; qtot 58.954246
 1838         c3     59    ccc     C4   1838 0.12498100  12.010000   ; qtot 59.079227
 1839         hx     59    ccc     H7   1839 0.12238100   1.008000   ; qtot 59.201608
 1840         hx     59    ccc     H8   1840 0.12238100   1.008000   ; qtot 59.323989
 1841         c3     59    ccc     C5   1841 -0.20771900  12.010000   ; qtot 59.116270
 1842         hc     59    ccc     H9   1842 0.11463100   1.008000   ; qtot 59.230901
 1843         hc     59    ccc    H10   1843 0.11463100   1.008000   ; qtot 59.345532
 1844          c     59    ccc     C6   1844 0.64078100  12.010000   ; qtot 59.986313
 1845          o     59    ccc     O1   1845 -0.49231900  16.000000   ; qtot 59.493994
 1846         oh     59    ccc     O2   1846 -0.51841900  16.000000   ; qtot 58.975575
 1847         ho     59    ccc    H11   1847 0.45318100   1.008000   ; qtot 59.428756
 1848         c3     59    ccc     C7   1848 0.12498100  12.010000   ; qtot 59.553737
 1849         hx     59    ccc    H12   1849 0.12238100   1.008000   ; qtot 59.676118
 1850         hx     59    ccc    H13   1850 0.12238100   1.008000   ; qtot 59.798499
 1851         c3     59    ccc     C8   1851 -0.20771900  12.010000   ; qtot 59.590780
 1852         hc     59    ccc    H14   1852 0.11463100   1.008000   ; qtot 59.705411
 1853         hc     59    ccc    H15   1853 0.11463100   1.008000   ; qtot 59.820042
 1854          c     59    ccc     C9   1854 0.64078100  12.010000   ; qtot 60.460823
 1855          o     59    ccc     O3   1855 -0.49231900  16.000000   ; qtot 59.968504
 1856         oh     59    ccc     O4   1856 -0.51841900  16.000000   ; qtot 59.450085
 1857         ho     59    ccc    H16   1857 0.45318100   1.008000   ; qtot 59.903266
 1858         os     59    ccc     O5   1858 -0.39491900  16.000000   ; qtot 59.508347
 1859         hn     59    ccc    H17   1859 0.49148100   1.008000   ; qtot 59.999828
; residue   60 ccc rtp ccc q 1.0
 1860         c3     60    ccc     C1   1860 0.14608100  12.010000   ; qtot 60.145909
 1861         h1     60    ccc     H1   1861 0.06738100   1.008000   ; qtot 60.213290
 1862         h1     60    ccc     H2   1862 0.06738100   1.008000   ; qtot 60.280671
 1863         c3     60    ccc     C2   1863 -0.14571900  12.010000   ; qtot 60.134952
 1864         hc     60    ccc     H3   1864 0.08688100   1.008000   ; qtot 60.221833
 1865         hc     60    ccc     H4   1865 0.08688100   1.008000   ; qtot 60.308714
 1866         c3     60    ccc     C3   1866 0.12348100  12.010000   ; qtot 60.432195
 1867         hx     60    ccc     H5   1867 0.10638100   1.008000   ; qtot 60.538576
 1868         hx     60    ccc     H6   1868 0.10638100   1.008000   ; qtot 60.644957
 1869         n4     60    ccc     N1   1869 -0.69071900  14.010000   ; qtot 59.954238
 1870         c3     60    ccc     C4   1870 0.12498100  12.010000   ; qtot 60.079219
 1871         hx     60    ccc     H7   1871 0.12238100   1.008000   ; qtot 60.201600
 1872         hx     60    ccc     H8   1872 0.12238100   1.008000   ; qtot 60.323981
 1873         c3     60    ccc     C5   1873 -0.20771900  12.010000   ; qtot 60.116262
 1874         hc     60    ccc     H9   1874 0.11463100   1.008000   ; qtot 60.230893
 1875         hc     60    ccc    H10   1875 0.11463100   1.008000   ; qtot 60.345524
 1876          c     60    ccc     C6   1876 0.64078100  12.010000   ; qtot 60.986305
 1877          o     60    ccc     O1   1877 -0.49231900  16.000000   ; qtot 60.493986
 1878         oh     60    ccc     O2   1878 -0.51841900  16.000000   ; qtot 59.975567
 1879         ho     60    ccc    H11   1879 0.45318100   1.008000   ; qtot 60.428748
 1880         c3     60    ccc     C7   1880 0.12498100  12.010000   ; qtot 60.553729
 1881         hx     60    ccc    H12   1881 0.12238100   1.008000   ; qtot 60.676110
 1882         hx     60    ccc    H13   1882 0.12238100   1.008000   ; qtot 60.798491
 1883         c3     60    ccc     C8   1883 -0.20771900  12.010000   ; qtot 60.590772
 1884         hc     60    ccc    H14   1884 0.11463100   1.008000   ; qtot 60.705403
 1885         hc     60    ccc    H15   1885 0.11463100   1.008000   ; qtot 60.820034
 1886          c     60    ccc     C9   1886 0.64078100  12.010000   ; qtot 61.460815
 1887          o     60    ccc     O3   1887 -0.49231900  16.000000   ; qtot 60.968496
 1888         oh     60    ccc     O4   1888 -0.51841900  16.000000   ; qtot 60.450077
 1889         ho     60    ccc    H16   1889 0.45318100   1.008000   ; qtot 60.903258
 1890         os     60    ccc     O5   1890 -0.39491900  16.000000   ; qtot 60.508339
 1891         hn     60    ccc    H17   1891 0.49148100   1.008000   ; qtot 60.999820
; residue   61 ccc rtp ccc q 1.0
 1892         c3     61    ccc     C1   1892 0.14608100  12.010000   ; qtot 61.145901
 1893         h1     61    ccc     H1   1893 0.06738100   1.008000   ; qtot 61.213282
 1894         h1     61    ccc     H2   1894 0.06738100   1.008000   ; qtot 61.280663
 1895         c3     61    ccc     C2   1895 -0.14571900  12.010000   ; qtot 61.134944
 1896         hc     61    ccc     H3   1896 0.08688100   1.008000   ; qtot 61.221825
 1897         hc     61    ccc     H4   1897 0.08688100   1.008000   ; qtot 61.308706
 1898         c3     61    ccc     C3   1898 0.12348100  12.010000   ; qtot 61.432187
 1899         hx     61    ccc     H5   1899 0.10638100   1.008000   ; qtot 61.538568
 1900         hx     61    ccc     H6   1900 0.10638100   1.008000   ; qtot 61.644949
 1901         n4     61    ccc     N1   1901 -0.69071900  14.010000   ; qtot 60.954230
 1902         c3     61    ccc     C4   1902 0.12498100  12.010000   ; qtot 61.079211
 1903         hx     61    ccc     H7   1903 0.12238100   1.008000   ; qtot 61.201592
 1904         hx     61    ccc     H8   1904 0.12238100   1.008000   ; qtot 61.323973
 1905         c3     61    ccc     C5   1905 -0.20771900  12.010000   ; qtot 61.116254
 1906         hc     61    ccc     H9   1906 0.11463100   1.008000   ; qtot 61.230885
 1907         hc     61    ccc    H10   1907 0.11463100   1.008000   ; qtot 61.345516
 1908          c     61    ccc     C6   1908 0.64078100  12.010000   ; qtot 61.986297
 1909          o     61    ccc     O1   1909 -0.49231900  16.000000   ; qtot 61.493978
 1910         oh     61    ccc     O2   1910 -0.51841900  16.000000   ; qtot 60.975559
 1911         ho     61    ccc    H11   1911 0.45318100   1.008000   ; qtot 61.428740
 1912         c3     61    ccc     C7   1912 0.12498100  12.010000   ; qtot 61.553721
 1913         hx     61    ccc    H12   1913 0.12238100   1.008000   ; qtot 61.676102
 1914         hx     61    ccc    H13   1914 0.12238100   1.008000   ; qtot 61.798483
 1915         c3     61    ccc     C8   1915 -0.20771900  12.010000   ; qtot 61.590764
 1916         hc     61    ccc    H14   1916 0.11463100   1.008000   ; qtot 61.705395
 1917         hc     61    ccc    H15   1917 0.11463100   1.008000   ; qtot 61.820026
 1918          c     61    ccc     C9   1918 0.64078100  12.010000   ; qtot 62.460807
 1919          o     61    ccc     O3   1919 -0.49231900  16.000000   ; qtot 61.968488
 1920         oh     61    ccc     O4   1920 -0.51841900  16.000000   ; qtot 61.450069
 1921         ho     61    ccc    H16   1921 0.45318100   1.008000   ; qtot 61.903250
 1922         os     61    ccc     O5   1922 -0.39491900  16.000000   ; qtot 61.508331
 1923         hn     61    ccc    H17   1923 0.49148100   1.008000   ; qtot 61.999812

[ bonds ]
;    ai     aj funct         c0         c1         c2         c3
      1      2     1   0.14316 258236.480000
      1      5     1   0.14316 258236.480000
      2      8     1   0.15375 251793.120000
      5     11     1   0.15375 251793.120000
      8     14     1   0.15375 251793.120000
     11     17     1   0.15375 251793.120000
     14     20     1   0.15110 237065.440000
     17     21     1   0.15110 237065.440000
     20     28     1   0.15110 237065.440000
     20     31     1   0.15110 237065.440000
     21     22     1   0.15110 237065.440000
     21     25     1   0.15110 237065.440000
     22     34     1   0.15375 251793.120000
     25     37     1   0.15375 251793.120000
     28     40     1   0.15375 251793.120000
     31     43     1   0.15375 251793.120000
     34     55     1   0.15375 251793.120000
     37     52     1   0.15375 251793.120000
     40     49     1   0.15375 251793.120000
     43     46     1   0.15375 251793.120000
     46     88     1   0.14316 258236.480000
     49    118     1   0.14316 258236.480000
     52    148     1   0.14316 258236.480000
     55    178     1   0.14316 258236.480000
     60     61     1   0.15110 237065.440000
     60     64     1   0.15110 237065.440000
     60     67     1   0.15110 237065.440000
     61     73     1   0.15375 251793.120000
     64     76     1   0.15375 251793.120000
     67     70     1   0.15375 251793.120000
     70     79     1   0.15375 251793.120000
     73     85     1   0.15375 251793.120000
     76     82     1   0.15375 251793.120000
     79     88     1   0.14316 258236.480000
     82    208     1   0.14316 258236.480000
     85    238     1   0.14316 258236.480000
     90     91     1   0.15110 237065.440000
     90     94     1   0.15110 237065.440000
     90     97     1   0.15110 237065.440000
     91    103     1   0.15375 251793.120000
     94    106     1   0.15375 251793.120000
     97    100     1   0.15375 251793.120000
    100    109     1   0.15375 251793.120000
    103    115     1   0.15375 251793.120000
    106    112     1   0.15375 251793.120000
    109    118     1   0.14316 258236.480000
    112    268     1   0.14316 258236.480000
    115    298     1   0.14316 258236.480000
    120    121     1   0.15110 237065.440000
    120    124     1   0.15110 237065.440000
    120    127     1   0.15110 237065.440000
    121    133     1   0.15375 251793.120000
    124    136     1   0.15375 251793.120000
    127    130     1   0.15375 251793.120000
    130    139     1   0.15375 251793.120000
    133    145     1   0.15375 251793.120000
    136    142     1   0.15375 251793.120000
    139    148     1   0.14316 258236.480000
    142    328     1   0.14316 258236.480000
    145    358     1   0.14316 258236.480000
    150    151     1   0.15110 237065.440000
    150    154     1   0.15110 237065.440000
    150    157     1   0.15110 237065.440000
    151    163     1   0.15375 251793.120000
    154    166     1   0.15375 251793.120000
    157    160     1   0.15375 251793.120000
    160    169     1   0.15375 251793.120000
    163    175     1   0.15375 251793.120000
    166    172     1   0.15375 251793.120000
    169    178     1   0.14316 258236.480000
    172    388     1   0.14316 258236.480000
    175    418     1   0.14316 258236.480000
    180    181     1   0.15110 237065.440000
    180    184     1   0.15110 237065.440000
    180    187     1   0.15110 237065.440000
    181    193     1   0.15375 251793.120000
    184    196     1   0.15375 251793.120000
    187    190     1   0.15375 251793.120000
    190    199     1   0.15375 251793.120000
    193    205     1   0.15375 251793.120000
    196    202     1   0.15375 251793.120000
    199    208     1   0.14316 258236.480000
    202    448     1   0.14316 258236.480000
    205    478     1   0.14316 258236.480000
    210    211     1   0.15110 237065.440000
    210    214     1   0.15110 237065.440000
    210    217     1   0.15110 237065.440000
    211    223     1   0.15375 251793.120000
    214    226     1   0.15375 251793.120000
    217    220     1   0.15375 251793.120000
    220    229     1   0.15375 251793.120000
    223    235     1   0.15375 251793.120000
    226    232     1   0.15375 251793.120000
    229    238     1   0.14316 258236.480000
    232    508     1   0.14316 258236.480000
    235    538     1   0.14316 258236.480000
    240    241     1   0.15110 237065.440000
    240    244     1   0.15110 237065.440000
    240    247     1   0.15110 237065.440000
    241    253     1   0.15375 251793.120000
    244    256     1   0.15375 251793.120000
    247    250     1   0.15375 251793.120000
    250    259     1   0.15375 251793.120000
    253    265     1   0.15375 251793.120000
    256    262     1   0.15375 251793.120000
    259    268     1   0.14316 258236.480000
    262    568     1   0.14316 258236.480000
    265    598     1   0.14316 258236.480000
    270    271     1   0.15110 237065.440000
    270    274     1   0.15110 237065.440000
    270    277     1   0.15110 237065.440000
    271    283     1   0.15375 251793.120000
    274    286     1   0.15375 251793.120000
    277    280     1   0.15375 251793.120000
    280    289     1   0.15375 251793.120000
    283    295     1   0.15375 251793.120000
    286    292     1   0.15375 251793.120000
    289    298     1   0.14316 258236.480000
    292    628     1   0.14316 258236.480000
    295    658     1   0.14316 258236.480000
    300    301     1   0.15110 237065.440000
    300    304     1   0.15110 237065.440000
    300    307     1   0.15110 237065.440000
    301    313     1   0.15375 251793.120000
    304    316     1   0.15375 251793.120000
    307    310     1   0.15375 251793.120000
    310    319     1   0.15375 251793.120000
    313    325     1   0.15375 251793.120000
    316    322     1   0.15375 251793.120000
    319    328     1   0.14316 258236.480000
    322    688     1   0.14316 258236.480000
    325    718     1   0.14316 258236.480000
    330    331     1   0.15110 237065.440000
    330    334     1   0.15110 237065.440000
    330    337     1   0.15110 237065.440000
    331    343     1   0.15375 251793.120000
    334    346     1   0.15375 251793.120000
    337    340     1   0.15375 251793.120000
    340    349     1   0.15375 251793.120000
    343    355     1   0.15375 251793.120000
    346    352     1   0.15375 251793.120000
    349    358     1   0.14316 258236.480000
    352    748     1   0.14316 258236.480000
    355    778     1   0.14316 258236.480000
    360    361     1   0.15110 237065.440000
    360    364     1   0.15110 237065.440000
    360    367     1   0.15110 237065.440000
    361    373     1   0.15375 251793.120000
    364    376     1   0.15375 251793.120000
    367    370     1   0.15375 251793.120000
    370    379     1   0.15375 251793.120000
    373    385     1   0.15375 251793.120000
    376    382     1   0.15375 251793.120000
    379    388     1   0.14316 258236.480000
    382    808     1   0.14316 258236.480000
    385    838     1   0.14316 258236.480000
    390    391     1   0.15110 237065.440000
    390    394     1   0.15110 237065.440000
    390    397     1   0.15110 237065.440000
    391    403     1   0.15375 251793.120000
    394    406     1   0.15375 251793.120000
    397    400     1   0.15375 251793.120000
    400    409     1   0.15375 251793.120000
    403    415     1   0.15375 251793.120000
    406    412     1   0.15375 251793.120000
    409    418     1   0.14316 258236.480000
    412    868     1   0.14316 258236.480000
    415    898     1   0.14316 258236.480000
    420    421     1   0.15110 237065.440000
    420    424     1   0.15110 237065.440000
    420    427     1   0.15110 237065.440000
    421    433     1   0.15375 251793.120000
    424    436     1   0.15375 251793.120000
    427    430     1   0.15375 251793.120000
    430    439     1   0.15375 251793.120000
    433    445     1   0.15375 251793.120000
    436    442     1   0.15375 251793.120000
    439    448     1   0.14316 258236.480000
    442    930     1   0.14316 258236.480000
    445    962     1   0.14316 258236.480000
    450    451     1   0.15110 237065.440000
    450    454     1   0.15110 237065.440000
    450    457     1   0.15110 237065.440000
    451    463     1   0.15375 251793.120000
    454    466     1   0.15375 251793.120000
    457    460     1   0.15375 251793.120000
    460    469     1   0.15375 251793.120000
    463    475     1   0.15375 251793.120000
    466    472     1   0.15375 251793.120000
    469    478     1   0.14316 258236.480000
    472    994     1   0.14316 258236.480000
    475   1026     1   0.14316 258236.480000
    480    481     1   0.15110 237065.440000
    480    484     1   0.15110 237065.440000
    480    487     1   0.15110 237065.440000
    481    493     1   0.15375 251793.120000
    484    496     1   0.15375 251793.120000
    487    490     1   0.15375 251793.120000
    490    499     1   0.15375 251793.120000
    493    505     1   0.15375 251793.120000
    496    502     1   0.15375 251793.120000
    499    508     1   0.14316 258236.480000
    502   1058     1   0.14316 258236.480000
    505   1090     1   0.14316 258236.480000
    510    511     1   0.15110 237065.440000
    510    514     1   0.15110 237065.440000
    510    517     1   0.15110 237065.440000
    511    523     1   0.15375 251793.120000
    514    526     1   0.15375 251793.120000
    517    520     1   0.15375 251793.120000
    520    529     1   0.15375 251793.120000
    523    535     1   0.15375 251793.120000
    526    532     1   0.15375 251793.120000
    529    538     1   0.14316 258236.480000
    532   1122     1   0.14316 258236.480000
    535   1154     1   0.14316 258236.480000
    540    541     1   0.15110 237065.440000
    540    544     1   0.15110 237065.440000
    540    547     1   0.15110 237065.440000
    541    553     1   0.15375 251793.120000
    544    556     1   0.15375 251793.120000
    547    550     1   0.15375 251793.120000
    550    559     1   0.15375 251793.120000
    553    565     1   0.15375 251793.120000
    556    562     1   0.15375 251793.120000
    559    568     1   0.14316 258236.480000
    562   1186     1   0.14316 258236.480000
    565   1218     1   0.14316 258236.480000
    570    571     1   0.15110 237065.440000
    570    574     1   0.15110 237065.440000
    570    577     1   0.15110 237065.440000
    571    583     1   0.15375 251793.120000
    574    586     1   0.15375 251793.120000
    577    580     1   0.15375 251793.120000
    580    589     1   0.15375 251793.120000
    583    595     1   0.15375 251793.120000
    586    592     1   0.15375 251793.120000
    589    598     1   0.14316 258236.480000
    592   1250     1   0.14316 258236.480000
    595   1282     1   0.14316 258236.480000
    600    601     1   0.15110 237065.440000
    600    604     1   0.15110 237065.440000
    600    607     1   0.15110 237065.440000
    601    613     1   0.15375 251793.120000
    604    616     1   0.15375 251793.120000
    607    610     1   0.15375 251793.120000
    610    619     1   0.15375 251793.120000
    613    625     1   0.15375 251793.120000
    616    622     1   0.15375 251793.120000
    619    628     1   0.14316 258236.480000
    622   1314     1   0.14316 258236.480000
    625   1346     1   0.14316 258236.480000
    630    631     1   0.15110 237065.440000
    630    634     1   0.15110 237065.440000
    630    637     1   0.15110 237065.440000
    631    643     1   0.15375 251793.120000
    634    646     1   0.15375 251793.120000
    637    640     1   0.15375 251793.120000
    640    649     1   0.15375 251793.120000
    643    655     1   0.15375 251793.120000
    646    652     1   0.15375 251793.120000
    649    658     1   0.14316 258236.480000
    652   1378     1   0.14316 258236.480000
    655   1410     1   0.14316 258236.480000
    660    661     1   0.15110 237065.440000
    660    664     1   0.15110 237065.440000
    660    667     1   0.15110 237065.440000
    661    673     1   0.15375 251793.120000
    664    676     1   0.15375 251793.120000
    667    670     1   0.15375 251793.120000
    670    679     1   0.15375 251793.120000
    673    685     1   0.15375 251793.120000
    676    682     1   0.15375 251793.120000
    679    688     1   0.14316 258236.480000
    682   1442     1   0.14316 258236.480000
    685   1474     1   0.14316 258236.480000
    690    691     1   0.15110 237065.440000
    690    694     1   0.15110 237065.440000
    690    697     1   0.15110 237065.440000
    691    703     1   0.15375 251793.120000
    694    706     1   0.15375 251793.120000
    697    700     1   0.15375 251793.120000
    700    709     1   0.15375 251793.120000
    703    715     1   0.15375 251793.120000
    706    712     1   0.15375 251793.120000
    709    718     1   0.14316 258236.480000
    712   1506     1   0.14316 258236.480000
    715   1538     1   0.14316 258236.480000
    720    721     1   0.15110 237065.440000
    720    724     1   0.15110 237065.440000
    720    727     1   0.15110 237065.440000
    721    733     1   0.15375 251793.120000
    724    736     1   0.15375 251793.120000
    727    730     1   0.15375 251793.120000
    730    739     1   0.15375 251793.120000
    733    745     1   0.15375 251793.120000
    736    742     1   0.15375 251793.120000
    739    748     1   0.14316 258236.480000
    742   1570     1   0.14316 258236.480000
    745   1602     1   0.14316 258236.480000
    750    751     1   0.15110 237065.440000
    750    754     1   0.15110 237065.440000
    750    757     1   0.15110 237065.440000
    751    763     1   0.15375 251793.120000
    754    766     1   0.15375 251793.120000
    757    760     1   0.15375 251793.120000
    760    769     1   0.15375 251793.120000
    763    775     1   0.15375 251793.120000
    766    772     1   0.15375 251793.120000
    769    778     1   0.14316 258236.480000
    772   1634     1   0.14316 258236.480000
    775   1666     1   0.14316 258236.480000
    780    781     1   0.15110 237065.440000
    780    784     1   0.15110 237065.440000
    780    787     1   0.15110 237065.440000
    781    793     1   0.15375 251793.120000
    784    796     1   0.15375 251793.120000
    787    790     1   0.15375 251793.120000
    790    799     1   0.15375 251793.120000
    793    805     1   0.15375 251793.120000
    796    802     1   0.15375 251793.120000
    799    808     1   0.14316 258236.480000
    802   1698     1   0.14316 258236.480000
    805   1730     1   0.14316 258236.480000
    810    811     1   0.15110 237065.440000
    810    814     1   0.15110 237065.440000
    810    817     1   0.15110 237065.440000
    811    823     1   0.15375 251793.120000
    814    826     1   0.15375 251793.120000
    817    820     1   0.15375 251793.120000
    820    829     1   0.15375 251793.120000
    823    835     1   0.15375 251793.120000
    826    832     1   0.15375 251793.120000
    829    838     1   0.14316 258236.480000
    832   1762     1   0.14316 258236.480000
    835   1794     1   0.14316 258236.480000
    840    841     1   0.15110 237065.440000
    840    844     1   0.15110 237065.440000
    840    847     1   0.15110 237065.440000
    841    853     1   0.15375 251793.120000
    844    856     1   0.15375 251793.120000
    847    850     1   0.15375 251793.120000
    850    859     1   0.15375 251793.120000
    853    865     1   0.15375 251793.120000
    856    862     1   0.15375 251793.120000
    859    868     1   0.14316 258236.480000
    862   1826     1   0.14316 258236.480000
    865   1858     1   0.14316 258236.480000
    870    871     1   0.15110 237065.440000
    870    874     1   0.15110 237065.440000
    870    877     1   0.15110 237065.440000
    871    883     1   0.15375 251793.120000
    874    886     1   0.15375 251793.120000
    877    880     1   0.15375 251793.120000
    880    889     1   0.15375 251793.120000
    883    895     1   0.15375 251793.120000
    886    892     1   0.15375 251793.120000
    889    898     1   0.14316 258236.480000
    892   1890     1   0.14316 258236.480000
    895   1922     1   0.14316 258236.480000
    900    903     1   0.15375 251793.120000
    900    930     1   0.14316 258236.480000
    903    906     1   0.15375 251793.120000
    906    909     1   0.15110 237065.440000
    909    910     1   0.15110 237065.440000
    909    920     1   0.15110 237065.440000
    910    913     1   0.15375 251793.120000
    913    916     1   0.15241 261918.400000
    916    917     1   0.12183 533627.360000
    916    918     1   0.13513 334803.680000
    920    923     1   0.15375 251793.120000
    923    926     1   0.15241 261918.400000
    926    927     1   0.12183 533627.360000
    926    928     1   0.13513 334803.680000
    932    935     1   0.15375 251793.120000
    932    962     1   0.14316 258236.480000
    935    938     1   0.15375 251793.120000
    938    941     1   0.15110 237065.440000
    941    942     1   0.15110 237065.440000
    941    952     1   0.15110 237065.440000
    942    945     1   0.15375 251793.120000
    945    948     1   0.15241 261918.400000
    948    949     1   0.12183 533627.360000
    948    950     1   0.13513 334803.680000
    952    955     1   0.15375 251793.120000
    955    958     1   0.15241 261918.400000
    958    959     1   0.12183 533627.360000
    958    960     1   0.13513 334803.680000
    964    967     1   0.15375 251793.120000
    964    994     1   0.14316 258236.480000
    967    970     1   0.15375 251793.120000
    970    973     1   0.15110 237065.440000
    973    974     1   0.15110 237065.440000
    973    984     1   0.15110 237065.440000
    974    977     1   0.15375 251793.120000
    977    980     1   0.15241 261918.400000
    980    981     1   0.12183 533627.360000
    980    982     1   0.13513 334803.680000
    984    987     1   0.15375 251793.120000
    987    990     1   0.15241 261918.400000
    990    991     1   0.12183 533627.360000
    990    992     1   0.13513 334803.680000
    996    999     1   0.15375 251793.120000
    996   1026     1   0.14316 258236.480000
    999   1002     1   0.15375 251793.120000
   1002   1005     1   0.15110 237065.440000
   1005   1006     1   0.15110 237065.440000
   1005   1016     1   0.15110 237065.440000
   1006   1009     1   0.15375 251793.120000
   1009   1012     1   0.15241 261918.400000
   1012   1013     1   0.12183 533627.360000
   1012   1014     1   0.13513 334803.680000
   1016   1019     1   0.15375 251793.120000
   1019   1022     1   0.15241 261918.400000
   1022   1023     1   0.12183 533627.360000
   1022   1024     1   0.13513 334803.680000
   1028   1031     1   0.15375 251793.120000
   1028   1058     1   0.14316 258236.480000
   1031   1034     1   0.15375 251793.120000
   1034   1037     1   0.15110 237065.440000
   1037   1038     1   0.15110 237065.440000
   1037   1048     1   0.15110 237065.440000
   1038   1041     1   0.15375 251793.120000
   1041   1044     1   0.15241 261918.400000
   1044   1045     1   0.12183 533627.360000
   1044   1046     1   0.13513 334803.680000
   1048   1051     1   0.15375 251793.120000
   1051   1054     1   0.15241 261918.400000
   1054   1055     1   0.12183 533627.360000
   1054   1056     1   0.13513 334803.680000
   1060   1063     1   0.15375 251793.120000
   1060   1090     1   0.14316 258236.480000
   1063   1066     1   0.15375 251793.120000
   1066   1069     1   0.15110 237065.440000
   1069   1070     1   0.15110 237065.440000
   1069   1080     1   0.15110 237065.440000
   1070   1073     1   0.15375 251793.120000
   1073   1076     1   0.15241 261918.400000
   1076   1077     1   0.12183 533627.360000
   1076   1078     1   0.13513 334803.680000
   1080   1083     1   0.15375 251793.120000
   1083   1086     1   0.15241 261918.400000
   1086   1087     1   0.12183 533627.360000
   1086   1088     1   0.13513 334803.680000
   1092   1095     1   0.15375 251793.120000
   1092   1122     1   0.14316 258236.480000
   1095   1098     1   0.15375 251793.120000
   1098   1101     1   0.15110 237065.440000
   1101   1102     1   0.15110 237065.440000
   1101   1112     1   0.15110 237065.440000
   1102   1105     1   0.15375 251793.120000
   1105   1108     1   0.15241 261918.400000
   1108   1109     1   0.12183 533627.360000
   1108   1110     1   0.13513 334803.680000
   1112   1115     1   0.15375 251793.120000
   1115   1118     1   0.15241 261918.400000
   1118   1119     1   0.12183 533627.360000
   1118   1120     1   0.13513 334803.680000
   1124   1127     1   0.15375 251793.120000
   1124   1154     1   0.14316 258236.480000
   1127   1130     1   0.15375 251793.120000
   1130   1133     1   0.15110 237065.440000
   1133   1134     1   0.15110 237065.440000
   1133   1144     1   0.15110 237065.440000
   1134   1137     1   0.15375 251793.120000
   1137   1140     1   0.15241 261918.400000
   1140   1141     1   0.12183 533627.360000
   1140   1142     1   0.13513 334803.680000
   1144   1147     1   0.15375 251793.120000
   1147   1150     1   0.15241 261918.400000
   1150   1151     1   0.12183 533627.360000
   1150   1152     1   0.13513 334803.680000
   1156   1159     1   0.15375 251793.120000
   1156   1186     1   0.14316 258236.480000
   1159   1162     1   0.15375 251793.120000
   1162   1165     1   0.15110 237065.440000
   1165   1166     1   0.15110 237065.440000
   1165   1176     1   0.15110 237065.440000
   1166   1169     1   0.15375 251793.120000
   1169   1172     1   0.15241 261918.400000
   1172   1173     1   0.12183 533627.360000
   1172   1174     1   0.13513 334803.680000
   1176   1179     1   0.15375 251793.120000
   1179   1182     1   0.15241 261918.400000
   1182   1183     1   0.12183 533627.360000
   1182   1184     1   0.13513 334803.680000
   1188   1191     1   0.15375 251793.120000
   1188   1218     1   0.14316 258236.480000
   1191   1194     1   0.15375 251793.120000
   1194   1197     1   0.15110 237065.440000
   1197   1198     1   0.15110 237065.440000
   1197   1208     1   0.15110 237065.440000
   1198   1201     1   0.15375 251793.120000
   1201   1204     1   0.15241 261918.400000
   1204   1205     1   0.12183 533627.360000
   1204   1206     1   0.13513 334803.680000
   1208   1211     1   0.15375 251793.120000
   1211   1214     1   0.15241 261918.400000
   1214   1215     1   0.12183 533627.360000
   1214   1216     1   0.13513 334803.680000
   1220   1223     1   0.15375 251793.120000
   1220   1250     1   0.14316 258236.480000
   1223   1226     1   0.15375 251793.120000
   1226   1229     1   0.15110 237065.440000
   1229   1230     1   0.15110 237065.440000
   1229   1240     1   0.15110 237065.440000
   1230   1233     1   0.15375 251793.120000
   1233   1236     1   0.15241 261918.400000
   1236   1237     1   0.12183 533627.360000
   1236   1238     1   0.13513 334803.680000
   1240   1243     1   0.15375 251793.120000
   1243   1246     1   0.15241 261918.400000
   1246   1247     1   0.12183 533627.360000
   1246   1248     1   0.13513 334803.680000
   1252   1255     1   0.15375 251793.120000
   1252   1282     1   0.14316 258236.480000
   1255   1258     1   0.15375 251793.120000
   1258   1261     1   0.15110 237065.440000
   1261   1262     1   0.15110 237065.440000
   1261   1272     1   0.15110 237065.440000
   1262   1265     1   0.15375 251793.120000
   1265   1268     1   0.15241 261918.400000
   1268   1269     1   0.12183 533627.360000
   1268   1270     1   0.13513 334803.680000
   1272   1275     1   0.15375 251793.120000
   1275   1278     1   0.15241 261918.400000
   1278   1279     1   0.12183 533627.360000
   1278   1280     1   0.13513 334803.680000
   1284   1287     1   0.15375 251793.120000
   1284   1314     1   0.14316 258236.480000
   1287   1290     1   0.15375 251793.120000
   1290   1293     1   0.15110 237065.440000
   1293   1294     1   0.15110 237065.440000
   1293   1304     1   0.15110 237065.440000
   1294   1297     1   0.15375 251793.120000
   1297   1300     1   0.15241 261918.400000
   1300   1301     1   0.12183 533627.360000
   1300   1302     1   0.13513 334803.680000
   1304   1307     1   0.15375 251793.120000
   1307   1310     1   0.15241 261918.400000
   1310   1311     1   0.12183 533627.360000
   1310   1312     1   0.13513 334803.680000
   1316   1319     1   0.15375 251793.120000
   1316   1346     1   0.14316 258236.480000
   1319   1322     1   0.15375 251793.120000
   1322   1325     1   0.15110 237065.440000
   1325   1326     1   0.15110 237065.440000
   1325   1336     1   0.15110 237065.440000
   1326   1329     1   0.15375 251793.120000
   1329   1332     1   0.15241 261918.400000
   1332   1333     1   0.12183 533627.360000
   1332   1334     1   0.13513 334803.680000
   1336   1339     1   0.15375 251793.120000
   1339   1342     1   0.15241 261918.400000
   1342   1343     1   0.12183 533627.360000
   1342   1344     1   0.13513 334803.680000
   1348   1351     1   0.15375 251793.120000
   1348   1378     1   0.14316 258236.480000
   1351   1354     1   0.15375 251793.120000
   1354   1357     1   0.15110 237065.440000
   1357   1358     1   0.15110 237065.440000
   1357   1368     1   0.15110 237065.440000
   1358   1361     1   0.15375 251793.120000
   1361   1364     1   0.15241 261918.400000
   1364   1365     1   0.12183 533627.360000
   1364   1366     1   0.13513 334803.680000
   1368   1371     1   0.15375 251793.120000
   1371   1374     1   0.15241 261918.400000
   1374   1375     1   0.12183 533627.360000
   1374   1376     1   0.13513 334803.680000
   1380   1383     1   0.15375 251793.120000
   1380   1410     1   0.14316 258236.480000
   1383   1386     1   0.15375 251793.120000
   1386   1389     1   0.15110 237065.440000
   1389   1390     1   0.15110 237065.440000
   1389   1400     1   0.15110 237065.440000
   1390   1393     1   0.15375 251793.120000
   1393   1396     1   0.15241 261918.400000
   1396   1397     1   0.12183 533627.360000
   1396   1398     1   0.13513 334803.680000
   1400   1403     1   0.15375 251793.120000
   1403   1406     1   0.15241 261918.400000
   1406   1407     1   0.12183 533627.360000
   1406   1408     1   0.13513 334803.680000
   1412   1415     1   0.15375 251793.120000
   1412   1442     1   0.14316 258236.480000
   1415   1418     1   0.15375 251793.120000
   1418   1421     1   0.15110 237065.440000
   1421   1422     1   0.15110 237065.440000
   1421   1432     1   0.15110 237065.440000
   1422   1425     1   0.15375 251793.120000
   1425   1428     1   0.15241 261918.400000
   1428   1429     1   0.12183 533627.360000
   1428   1430     1   0.13513 334803.680000
   1432   1435     1   0.15375 251793.120000
   1435   1438     1   0.15241 261918.400000
   1438   1439     1   0.12183 533627.360000
   1438   1440     1   0.13513 334803.680000
   1444   1447     1   0.15375 251793.120000
   1444   1474     1   0.14316 258236.480000
   1447   1450     1   0.15375 251793.120000
   1450   1453     1   0.15110 237065.440000
   1453   1454     1   0.15110 237065.440000
   1453   1464     1   0.15110 237065.440000
   1454   1457     1   0.15375 251793.120000
   1457   1460     1   0.15241 261918.400000
   1460   1461     1   0.12183 533627.360000
   1460   1462     1   0.13513 334803.680000
   1464   1467     1   0.15375 251793.120000
   1467   1470     1   0.15241 261918.400000
   1470   1471     1   0.12183 533627.360000
   1470   1472     1   0.13513 334803.680000
   1476   1479     1   0.15375 251793.120000
   1476   1506     1   0.14316 258236.480000
   1479   1482     1   0.15375 251793.120000
   1482   1485     1   0.15110 237065.440000
   1485   1486     1   0.15110 237065.440000
   1485   1496     1   0.15110 237065.440000
   1486   1489     1   0.15375 251793.120000
   1489   1492     1   0.15241 261918.400000
   1492   1493     1   0.12183 533627.360000
   1492   1494     1   0.13513 334803.680000
   1496   1499     1   0.15375 251793.120000
   1499   1502     1   0.15241 261918.400000
   1502   1503     1   0.12183 533627.360000
   1502   1504     1   0.13513 334803.680000
   1508   1511     1   0.15375 251793.120000
   1508   1538     1   0.14316 258236.480000
   1511   1514     1   0.15375 251793.120000
   1514   1517     1   0.15110 237065.440000
   1517   1518     1   0.15110 237065.440000
   1517   1528     1   0.15110 237065.440000
   1518   1521     1   0.15375 251793.120000
   1521   1524     1   0.15241 261918.400000
   1524   1525     1   0.12183 533627.360000
   1524   1526     1   0.13513 334803.680000
   1528   1531     1   0.15375 251793.120000
   1531   1534     1   0.15241 261918.400000
   1534   1535     1   0.12183 533627.360000
   1534   1536     1   0.13513 334803.680000
   1540   1543     1   0.15375 251793.120000
   1540   1570     1   0.14316 258236.480000
   1543   1546     1   0.15375 251793.120000
   1546   1549     1   0.15110 237065.440000
   1549   1550     1   0.15110 237065.440000
   1549   1560     1   0.15110 237065.440000
   1550   1553     1   0.15375 251793.120000
   1553   1556     1   0.15241 261918.400000
   1556   1557     1   0.12183 533627.360000
   1556   1558     1   0.13513 334803.680000
   1560   1563     1   0.15375 251793.120000
   1563   1566     1   0.15241 261918.400000
   1566   1567     1   0.12183 533627.360000
   1566   1568     1   0.13513 334803.680000
   1572   1575     1   0.15375 251793.120000
   1572   1602     1   0.14316 258236.480000
   1575   1578     1   0.15375 251793.120000
   1578   1581     1   0.15110 237065.440000
   1581   1582     1   0.15110 237065.440000
   1581   1592     1   0.15110 237065.440000
   1582   1585     1   0.15375 251793.120000
   1585   1588     1   0.15241 261918.400000
   1588   1589     1   0.12183 533627.360000
   1588   1590     1   0.13513 334803.680000
   1592   1595     1   0.15375 251793.120000
   1595   1598     1   0.15241 261918.400000
   1598   1599     1   0.12183 533627.360000
   1598   1600     1   0.13513 334803.680000
   1604   1607     1   0.15375 251793.120000
   1604   1634     1   0.14316 258236.480000
   1607   1610     1   0.15375 251793.120000
   1610   1613     1   0.15110 237065.440000
   1613   1614     1   0.15110 237065.440000
   1613   1624     1   0.15110 237065.440000
   1614   1617     1   0.15375 251793.120000
   1617   1620     1   0.15241 261918.400000
   1620   1621     1   0.12183 533627.360000
   1620   1622     1   0.13513 334803.680000
   1624   1627     1   0.15375 251793.120000
   1627   1630     1   0.15241 261918.400000
   1630   1631     1   0.12183 533627.360000
   1630   1632     1   0.13513 334803.680000
   1636   1639     1   0.15375 251793.120000
   1636   1666     1   0.14316 258236.480000
   1639   1642     1   0.15375 251793.120000
   1642   1645     1   0.15110 237065.440000
   1645   1646     1   0.15110 237065.440000
   1645   1656     1   0.15110 237065.440000
   1646   1649     1   0.15375 251793.120000
   1649   1652     1   0.15241 261918.400000
   1652   1653     1   0.12183 533627.360000
   1652   1654     1   0.13513 334803.680000
   1656   1659     1   0.15375 251793.120000
   1659   1662     1   0.15241 261918.400000
   1662   1663     1   0.12183 533627.360000
   1662   1664     1   0.13513 334803.680000
   1668   1671     1   0.15375 251793.120000
   1668   1698     1   0.14316 258236.480000
   1671   1674     1   0.15375 251793.120000
   1674   1677     1   0.15110 237065.440000
   1677   1678     1   0.15110 237065.440000
   1677   1688     1   0.15110 237065.440000
   1678   1681     1   0.15375 251793.120000
   1681   1684     1   0.15241 261918.400000
   1684   1685     1   0.12183 533627.360000
   1684   1686     1   0.13513 334803.680000
   1688   1691     1   0.15375 251793.120000
   1691   1694     1   0.15241 261918.400000
   1694   1695     1   0.12183 533627.360000
   1694   1696     1   0.13513 334803.680000
   1700   1703     1   0.15375 251793.120000
   1700   1730     1   0.14316 258236.480000
   1703   1706     1   0.15375 251793.120000
   1706   1709     1   0.15110 237065.440000
   1709   1710     1   0.15110 237065.440000
   1709   1720     1   0.15110 237065.440000
   1710   1713     1   0.15375 251793.120000
   1713   1716     1   0.15241 261918.400000
   1716   1717     1   0.12183 533627.360000
   1716   1718     1   0.13513 334803.680000
   1720   1723     1   0.15375 251793.120000
   1723   1726     1   0.15241 261918.400000
   1726   1727     1   0.12183 533627.360000
   1726   1728     1   0.13513 334803.680000
   1732   1735     1   0.15375 251793.120000
   1732   1762     1   0.14316 258236.480000
   1735   1738     1   0.15375 251793.120000
   1738   1741     1   0.15110 237065.440000
   1741   1742     1   0.15110 237065.440000
   1741   1752     1   0.15110 237065.440000
   1742   1745     1   0.15375 251793.120000
   1745   1748     1   0.15241 261918.400000
   1748   1749     1   0.12183 533627.360000
   1748   1750     1   0.13513 334803.680000
   1752   1755     1   0.15375 251793.120000
   1755   1758     1   0.15241 261918.400000
   1758   1759     1   0.12183 533627.360000
   1758   1760     1   0.13513 334803.680000
   1764   1767     1   0.15375 251793.120000
   1764   1794     1   0.14316 258236.480000
   1767   1770     1   0.15375 251793.120000
   1770   1773     1   0.15110 237065.440000
   1773   1774     1   0.15110 237065.440000
   1773   1784     1   0.15110 237065.440000
   1774   1777     1   0.15375 251793.120000
   1777   1780     1   0.15241 261918.400000
   1780   1781     1   0.12183 533627.360000
   1780   1782     1   0.13513 334803.680000
   1784   1787     1   0.15375 251793.120000
   1787   1790     1   0.15241 261918.400000
   1790   1791     1   0.12183 533627.360000
   1790   1792     1   0.13513 334803.680000
   1796   1799     1   0.15375 251793.120000
   1796   1826     1   0.14316 258236.480000
   1799   1802     1   0.15375 251793.120000
   1802   1805     1   0.15110 237065.440000
   1805   1806     1   0.15110 237065.440000
   1805   1816     1   0.15110 237065.440000
   1806   1809     1   0.15375 251793.120000
   1809   1812     1   0.15241 261918.400000
   1812   1813     1   0.12183 533627.360000
   1812   1814     1   0.13513 334803.680000
   1816   1819     1   0.15375 251793.120000
   1819   1822     1   0.15241 261918.400000
   1822   1823     1   0.12183 533627.360000
   1822   1824     1   0.13513 334803.680000
   1828   1831     1   0.15375 251793.120000
   1828   1858     1   0.14316 258236.480000
   1831   1834     1   0.15375 251793.120000
   1834   1837     1   0.15110 237065.440000
   1837   1838     1   0.15110 237065.440000
   1837   1848     1   0.15110 237065.440000
   1838   1841     1   0.15375 251793.120000
   1841   1844     1   0.15241 261918.400000
   1844   1845     1   0.12183 533627.360000
   1844   1846     1   0.13513 334803.680000
   1848   1851     1   0.15375 251793.120000
   1851   1854     1   0.15241 261918.400000
   1854   1855     1   0.12183 533627.360000
   1854   1856     1   0.13513 334803.680000
   1860   1863     1   0.15375 251793.120000
   1860   1890     1   0.14316 258236.480000
   1863   1866     1   0.15375 251793.120000
   1866   1869     1   0.15110 237065.440000
   1869   1870     1   0.15110 237065.440000
   1869   1880     1   0.15110 237065.440000
   1870   1873     1   0.15375 251793.120000
   1873   1876     1   0.15241 261918.400000
   1876   1877     1   0.12183 533627.360000
   1876   1878     1   0.13513 334803.680000
   1880   1883     1   0.15375 251793.120000
   1883   1886     1   0.15241 261918.400000
   1886   1887     1   0.12183 533627.360000
   1886   1888     1   0.13513 334803.680000
   1892   1895     1   0.15375 251793.120000
   1892   1922     1   0.14316 258236.480000
   1895   1898     1   0.15375 251793.120000
   1898   1901     1   0.15110 237065.440000
   1901   1902     1   0.15110 237065.440000
   1901   1912     1   0.15110 237065.440000
   1902   1905     1   0.15375 251793.120000
   1905   1908     1   0.15241 261918.400000
   1908   1909     1   0.12183 533627.360000
   1908   1910     1   0.13513 334803.680000
   1912   1915     1   0.15375 251793.120000
   1915   1918     1   0.15241 261918.400000
   1918   1919     1   0.12183 533627.360000
   1918   1920     1   0.13513 334803.680000
      2      3     1   0.10969 276646.080000
      2      4     1   0.10969 276646.080000
      5      6     1   0.10969 276646.080000
      5      7     1   0.10969 276646.080000
      8      9     1   0.10969 276646.080000
      8     10     1   0.10969 276646.080000
     11     12     1   0.10969 276646.080000
     11     13     1   0.10969 276646.080000
     14     15     1   0.10910 283424.160000
     14     16     1   0.10910 283424.160000
     17     18     1   0.10910 283424.160000
     17     19     1   0.10910 283424.160000
     20     58     1   0.10304 312293.760000
     21     59     1   0.10304 312293.760000
     22     23     1   0.10910 283424.160000
     22     24     1   0.10910 283424.160000
     25     26     1   0.10910 283424.160000
     25     27     1   0.10910 283424.160000
     28     29     1   0.10910 283424.160000
     28     30     1   0.10910 283424.160000
     31     32     1   0.10910 283424.160000
     31     33     1   0.10910 283424.160000
     34     35     1   0.10969 276646.080000
     34     36     1   0.10969 276646.080000
     37     38     1   0.10969 276646.080000
     37     39     1   0.10969 276646.080000
     40     41     1   0.10969 276646.080000
     40     42     1   0.10969 276646.080000
     43     44     1   0.10969 276646.080000
     43     45     1   0.10969 276646.080000
     46     47     1   0.10969 276646.080000
     46     48     1   0.10969 276646.080000
     49     50     1   0.10969 276646.080000
     49     51     1   0.10969 276646.080000
     52     53     1   0.10969 276646.080000
     52     54     1   0.10969 276646.080000
     55     56     1   0.10969 276646.080000
     55     57     1   0.10969 276646.080000
     60     89     1   0.10304 312293.760000
     61     62     1   0.10910 283424.160000
     61     63     1   0.10910 283424.160000
     64     65     1   0.10910 283424.160000
     64     66     1   0.10910 283424.160000
     67     68     1   0.10910 283424.160000
     67     69     1   0.10910 283424.160000
     70     71     1   0.10969 276646.080000
     70     72     1   0.10969 276646.080000
     73     74     1   0.10969 276646.080000
     73     75     1   0.10969 276646.080000
     76     77     1   0.10969 276646.080000
     76     78     1   0.10969 276646.080000
     79     80     1   0.10969 276646.080000
     79     81     1   0.10969 276646.080000
     82     83     1   0.10969 276646.080000
     82     84     1   0.10969 276646.080000
     85     86     1   0.10969 276646.080000
     85     87     1   0.10969 276646.080000
     90    119     1   0.10304 312293.760000
     91     92     1   0.10910 283424.160000
     91     93     1   0.10910 283424.160000
     94     95     1   0.10910 283424.160000
     94     96     1   0.10910 283424.160000
     97     98     1   0.10910 283424.160000
     97     99     1   0.10910 283424.160000
    100    101     1   0.10969 276646.080000
    100    102     1   0.10969 276646.080000
    103    104     1   0.10969 276646.080000
    103    105     1   0.10969 276646.080000
    106    107     1   0.10969 276646.080000
    106    108     1   0.10969 276646.080000
    109    110     1   0.10969 276646.080000
    109    111     1   0.10969 276646.080000
    112    113     1   0.10969 276646.080000
    112    114     1   0.10969 276646.080000
    115    116     1   0.10969 276646.080000
    115    117     1   0.10969 276646.080000
    120    149     1   0.10304 312293.760000
    121    122     1   0.10910 283424.160000
    121    123     1   0.10910 283424.160000
    124    125     1   0.10910 283424.160000
    124    126     1   0.10910 283424.160000
    127    128     1   0.10910 283424.160000
    127    129     1   0.10910 283424.160000
    130    131     1   0.10969 276646.080000
    130    132     1   0.10969 276646.080000
    133    134     1   0.10969 276646.080000
    133    135     1   0.10969 276646.080000
    136    137     1   0.10969 276646.080000
    136    138     1   0.10969 276646.080000
    139    140     1   0.10969 276646.080000
    139    141     1   0.10969 276646.080000
    142    143     1   0.10969 276646.080000
    142    144     1   0.10969 276646.080000
    145    146     1   0.10969 276646.080000
    145    147     1   0.10969 276646.080000
    150    179     1   0.10304 312293.760000
    151    152     1   0.10910 283424.160000
    151    153     1   0.10910 283424.160000
    154    155     1   0.10910 283424.160000
    154    156     1   0.10910 283424.160000
    157    158     1   0.10910 283424.160000
    157    159     1   0.10910 283424.160000
    160    161     1   0.10969 276646.080000
    160    162     1   0.10969 276646.080000
    163    164     1   0.10969 276646.080000
    163    165     1   0.10969 276646.080000
    166    167     1   0.10969 276646.080000
    166    168     1   0.10969 276646.080000
    169    170     1   0.10969 276646.080000
    169    171     1   0.10969 276646.080000
    172    173     1   0.10969 276646.080000
    172    174     1   0.10969 276646.080000
    175    176     1   0.10969 276646.080000
    175    177     1   0.10969 276646.080000
    180    209     1   0.10304 312293.760000
    181    182     1   0.10910 283424.160000
    181    183     1   0.10910 283424.160000
    184    185     1   0.10910 283424.160000
    184    186     1   0.10910 283424.160000
    187    188     1   0.10910 283424.160000
    187    189     1   0.10910 283424.160000
    190    191     1   0.10969 276646.080000
    190    192     1   0.10969 276646.080000
    193    194     1   0.10969 276646.080000
    193    195     1   0.10969 276646.080000
    196    197     1   0.10969 276646.080000
    196    198     1   0.10969 276646.080000
    199    200     1   0.10969 276646.080000
    199    201     1   0.10969 276646.080000
    202    203     1   0.10969 276646.080000
    202    204     1   0.10969 276646.080000
    205    206     1   0.10969 276646.080000
    205    207     1   0.10969 276646.080000
    210    239     1   0.10304 312293.760000
    211    212     1   0.10910 283424.160000
    211    213     1   0.10910 283424.160000
    214    215     1   0.10910 283424.160000
    214    216     1   0.10910 283424.160000
    217    218     1   0.10910 283424.160000
    217    219     1   0.10910 283424.160000
    220    221     1   0.10969 276646.080000
    220    222     1   0.10969 276646.080000
    223    224     1   0.10969 276646.080000
    223    225     1   0.10969 276646.080000
    226    227     1   0.10969 276646.080000
    226    228     1   0.10969 276646.080000
    229    230     1   0.10969 276646.080000
    229    231     1   0.10969 276646.080000
    232    233     1   0.10969 276646.080000
    232    234     1   0.10969 276646.080000
    235    236     1   0.10969 276646.080000
    235    237     1   0.10969 276646.080000
    240    269     1   0.10304 312293.760000
    241    242     1   0.10910 283424.160000
    241    243     1   0.10910 283424.160000
    244    245     1   0.10910 283424.160000
    244    246     1   0.10910 283424.160000
    247    248     1   0.10910 283424.160000
    247    249     1   0.10910 283424.160000
    250    251     1   0.10969 276646.080000
    250    252     1   0.10969 276646.080000
    253    254     1   0.10969 276646.080000
    253    255     1   0.10969 276646.080000
    256    257     1   0.10969 276646.080000
    256    258     1   0.10969 276646.080000
    259    260     1   0.10969 276646.080000
    259    261     1   0.10969 276646.080000
    262    263     1   0.10969 276646.080000
    262    264     1   0.10969 276646.080000
    265    266     1   0.10969 276646.080000
    265    267     1   0.10969 276646.080000
    270    299     1   0.10304 312293.760000
    271    272     1   0.10910 283424.160000
    271    273     1   0.10910 283424.160000
    274    275     1   0.10910 283424.160000
    274    276     1   0.10910 283424.160000
    277    278     1   0.10910 283424.160000
    277    279     1   0.10910 283424.160000
    280    281     1   0.10969 276646.080000
    280    282     1   0.10969 276646.080000
    283    284     1   0.10969 276646.080000
    283    285     1   0.10969 276646.080000
    286    287     1   0.10969 276646.080000
    286    288     1   0.10969 276646.080000
    289    290     1   0.10969 276646.080000
    289    291     1   0.10969 276646.080000
    292    293     1   0.10969 276646.080000
    292    294     1   0.10969 276646.080000
    295    296     1   0.10969 276646.080000
    295    297     1   0.10969 276646.080000
    300    329     1   0.10304 312293.760000
    301    302     1   0.10910 283424.160000
    301    303     1   0.10910 283424.160000
    304    305     1   0.10910 283424.160000
    304    306     1   0.10910 283424.160000
    307    308     1   0.10910 283424.160000
    307    309     1   0.10910 283424.160000
    310    311     1   0.10969 276646.080000
    310    312     1   0.10969 276646.080000
    313    314     1   0.10969 276646.080000
    313    315     1   0.10969 276646.080000
    316    317     1   0.10969 276646.080000
    316    318     1   0.10969 276646.080000
    319    320     1   0.10969 276646.080000
    319    321     1   0.10969 276646.080000
    322    323     1   0.10969 276646.080000
    322    324     1   0.10969 276646.080000
    325    326     1   0.10969 276646.080000
    325    327     1   0.10969 276646.080000
    330    359     1   0.10304 312293.760000
    331    332     1   0.10910 283424.160000
    331    333     1   0.10910 283424.160000
    334    335     1   0.10910 283424.160000
    334    336     1   0.10910 283424.160000
    337    338     1   0.10910 283424.160000
    337    339     1   0.10910 283424.160000
    340    341     1   0.10969 276646.080000
    340    342     1   0.10969 276646.080000
    343    344     1   0.10969 276646.080000
    343    345     1   0.10969 276646.080000
    346    347     1   0.10969 276646.080000
    346    348     1   0.10969 276646.080000
    349    350     1   0.10969 276646.080000
    349    351     1   0.10969 276646.080000
    352    353     1   0.10969 276646.080000
    352    354     1   0.10969 276646.080000
    355    356     1   0.10969 276646.080000
    355    357     1   0.10969 276646.080000
    360    389     1   0.10304 312293.760000
    361    362     1   0.10910 283424.160000
    361    363     1   0.10910 283424.160000
    364    365     1   0.10910 283424.160000
    364    366     1   0.10910 283424.160000
    367    368     1   0.10910 283424.160000
    367    369     1   0.10910 283424.160000
    370    371     1   0.10969 276646.080000
    370    372     1   0.10969 276646.080000
    373    374     1   0.10969 276646.080000
    373    375     1   0.10969 276646.080000
    376    377     1   0.10969 276646.080000
    376    378     1   0.10969 276646.080000
    379    380     1   0.10969 276646.080000
    379    381     1   0.10969 276646.080000
    382    383     1   0.10969 276646.080000
    382    384     1   0.10969 276646.080000
    385    386     1   0.10969 276646.080000
    385    387     1   0.10969 276646.080000
    390    419     1   0.10304 312293.760000
    391    392     1   0.10910 283424.160000
    391    393     1   0.10910 283424.160000
    394    395     1   0.10910 283424.160000
    394    396     1   0.10910 283424.160000
    397    398     1   0.10910 283424.160000
    397    399     1   0.10910 283424.160000
    400    401     1   0.10969 276646.080000
    400    402     1   0.10969 276646.080000
    403    404     1   0.10969 276646.080000
    403    405     1   0.10969 276646.080000
    406    407     1   0.10969 276646.080000
    406    408     1   0.10969 276646.080000
    409    410     1   0.10969 276646.080000
    409    411     1   0.10969 276646.080000
    412    413     1   0.10969 276646.080000
    412    414     1   0.10969 276646.080000
    415    416     1   0.10969 276646.080000
    415    417     1   0.10969 276646.080000
    420    449     1   0.10304 312293.760000
    421    422     1   0.10910 283424.160000
    421    423     1   0.10910 283424.160000
    424    425     1   0.10910 283424.160000
    424    426     1   0.10910 283424.160000
    427    428     1   0.10910 283424.160000
    427    429     1   0.10910 283424.160000
    430    431     1   0.10969 276646.080000
    430    432     1   0.10969 276646.080000
    433    434     1   0.10969 276646.080000
    433    435     1   0.10969 276646.080000
    436    437     1   0.10969 276646.080000
    436    438     1   0.10969 276646.080000
    439    440     1   0.10969 276646.080000
    439    441     1   0.10969 276646.080000
    442    443     1   0.10969 276646.080000
    442    444     1   0.10969 276646.080000
    445    446     1   0.10969 276646.080000
    445    447     1   0.10969 276646.080000
    450    479     1   0.10304 312293.760000
    451    452     1   0.10910 283424.160000
    451    453     1   0.10910 283424.160000
    454    455     1   0.10910 283424.160000
    454    456     1   0.10910 283424.160000
    457    458     1   0.10910 283424.160000
    457    459     1   0.10910 283424.160000
    460    461     1   0.10969 276646.080000
    460    462     1   0.10969 276646.080000
    463    464     1   0.10969 276646.080000
    463    465     1   0.10969 276646.080000
    466    467     1   0.10969 276646.080000
    466    468     1   0.10969 276646.080000
    469    470     1   0.10969 276646.080000
    469    471     1   0.10969 276646.080000
    472    473     1   0.10969 276646.080000
    472    474     1   0.10969 276646.080000
    475    476     1   0.10969 276646.080000
    475    477     1   0.10969 276646.080000
    480    509     1   0.10304 312293.760000
    481    482     1   0.10910 283424.160000
    481    483     1   0.10910 283424.160000
    484    485     1   0.10910 283424.160000
    484    486     1   0.10910 283424.160000
    487    488     1   0.10910 283424.160000
    487    489     1   0.10910 283424.160000
    490    491     1   0.10969 276646.080000
    490    492     1   0.10969 276646.080000
    493    494     1   0.10969 276646.080000
    493    495     1   0.10969 276646.080000
    496    497     1   0.10969 276646.080000
    496    498     1   0.10969 276646.080000
    499    500     1   0.10969 276646.080000
    499    501     1   0.10969 276646.080000
    502    503     1   0.10969 276646.080000
    502    504     1   0.10969 276646.080000
    505    506     1   0.10969 276646.080000
    505    507     1   0.10969 276646.080000
    510    539     1   0.10304 312293.760000
    511    512     1   0.10910 283424.160000
    511    513     1   0.10910 283424.160000
    514    515     1   0.10910 283424.160000
    514    516     1   0.10910 283424.160000
    517    518     1   0.10910 283424.160000
    517    519     1   0.10910 283424.160000
    520    521     1   0.10969 276646.080000
    520    522     1   0.10969 276646.080000
    523    524     1   0.10969 276646.080000
    523    525     1   0.10969 276646.080000
    526    527     1   0.10969 276646.080000
    526    528     1   0.10969 276646.080000
    529    530     1   0.10969 276646.080000
    529    531     1   0.10969 276646.080000
    532    533     1   0.10969 276646.080000
    532    534     1   0.10969 276646.080000
    535    536     1   0.10969 276646.080000
    535    537     1   0.10969 276646.080000
    540    569     1   0.10304 312293.760000
    541    542     1   0.10910 283424.160000
    541    543     1   0.10910 283424.160000
    544    545     1   0.10910 283424.160000
    544    546     1   0.10910 283424.160000
    547    548     1   0.10910 283424.160000
    547    549     1   0.10910 283424.160000
    550    551     1   0.10969 276646.080000
    550    552     1   0.10969 276646.080000
    553    554     1   0.10969 276646.080000
    553    555     1   0.10969 276646.080000
    556    557     1   0.10969 276646.080000
    556    558     1   0.10969 276646.080000
    559    560     1   0.10969 276646.080000
    559    561     1   0.10969 276646.080000
    562    563     1   0.10969 276646.080000
    562    564     1   0.10969 276646.080000
    565    566     1   0.10969 276646.080000
    565    567     1   0.10969 276646.080000
    570    599     1   0.10304 312293.760000
    571    572     1   0.10910 283424.160000
    571    573     1   0.10910 283424.160000
    574    575     1   0.10910 283424.160000
    574    576     1   0.10910 283424.160000
    577    578     1   0.10910 283424.160000
    577    579     1   0.10910 283424.160000
    580    581     1   0.10969 276646.080000
    580    582     1   0.10969 276646.080000
    583    584     1   0.10969 276646.080000
    583    585     1   0.10969 276646.080000
    586    587     1   0.10969 276646.080000
    586    588     1   0.10969 276646.080000
    589    590     1   0.10969 276646.080000
    589    591     1   0.10969 276646.080000
    592    593     1   0.10969 276646.080000
    592    594     1   0.10969 276646.080000
    595    596     1   0.10969 276646.080000
    595    597     1   0.10969 276646.080000
    600    629     1   0.10304 312293.760000
    601    602     1   0.10910 283424.160000
    601    603     1   0.10910 283424.160000
    604    605     1   0.10910 283424.160000
    604    606     1   0.10910 283424.160000
    607    608     1   0.10910 283424.160000
    607    609     1   0.10910 283424.160000
    610    611     1   0.10969 276646.080000
    610    612     1   0.10969 276646.080000
    613    614     1   0.10969 276646.080000
    613    615     1   0.10969 276646.080000
    616    617     1   0.10969 276646.080000
    616    618     1   0.10969 276646.080000
    619    620     1   0.10969 276646.080000
    619    621     1   0.10969 276646.080000
    622    623     1   0.10969 276646.080000
    622    624     1   0.10969 276646.080000
    625    626     1   0.10969 276646.080000
    625    627     1   0.10969 276646.080000
    630    659     1   0.10304 312293.760000
    631    632     1   0.10910 283424.160000
    631    633     1   0.10910 283424.160000
    634    635     1   0.10910 283424.160000
    634    636     1   0.10910 283424.160000
    637    638     1   0.10910 283424.160000
    637    639     1   0.10910 283424.160000
    640    641     1   0.10969 276646.080000
    640    642     1   0.10969 276646.080000
    643    644     1   0.10969 276646.080000
    643    645     1   0.10969 276646.080000
    646    647     1   0.10969 276646.080000
    646    648     1   0.10969 276646.080000
    649    650     1   0.10969 276646.080000
    649    651     1   0.10969 276646.080000
    652    653     1   0.10969 276646.080000
    652    654     1   0.10969 276646.080000
    655    656     1   0.10969 276646.080000
    655    657     1   0.10969 276646.080000
    660    689     1   0.10304 312293.760000
    661    662     1   0.10910 283424.160000
    661    663     1   0.10910 283424.160000
    664    665     1   0.10910 283424.160000
    664    666     1   0.10910 283424.160000
    667    668     1   0.10910 283424.160000
    667    669     1   0.10910 283424.160000
    670    671     1   0.10969 276646.080000
    670    672     1   0.10969 276646.080000
    673    674     1   0.10969 276646.080000
    673    675     1   0.10969 276646.080000
    676    677     1   0.10969 276646.080000
    676    678     1   0.10969 276646.080000
    679    680     1   0.10969 276646.080000
    679    681     1   0.10969 276646.080000
    682    683     1   0.10969 276646.080000
    682    684     1   0.10969 276646.080000
    685    686     1   0.10969 276646.080000
    685    687     1   0.10969 276646.080000
    690    719     1   0.10304 312293.760000
    691    692     1   0.10910 283424.160000
    691    693     1   0.10910 283424.160000
    694    695     1   0.10910 283424.160000
    694    696     1   0.10910 283424.160000
    697    698     1   0.10910 283424.160000
    697    699     1   0.10910 283424.160000
    700    701     1   0.10969 276646.080000
    700    702     1   0.10969 276646.080000
    703    704     1   0.10969 276646.080000
    703    705     1   0.10969 276646.080000
    706    707     1   0.10969 276646.080000
    706    708     1   0.10969 276646.080000
    709    710     1   0.10969 276646.080000
    709    711     1   0.10969 276646.080000
    712    713     1   0.10969 276646.080000
    712    714     1   0.10969 276646.080000
    715    716     1   0.10969 276646.080000
    715    717     1   0.10969 276646.080000
    720    749     1   0.10304 312293.760000
    721    722     1   0.10910 283424.160000
    721    723     1   0.10910 283424.160000
    724    725     1   0.10910 283424.160000
    724    726     1   0.10910 283424.160000
    727    728     1   0.10910 283424.160000
    727    729     1   0.10910 283424.160000
    730    731     1   0.10969 276646.080000
    730    732     1   0.10969 276646.080000
    733    734     1   0.10969 276646.080000
    733    735     1   0.10969 276646.080000
    736    737     1   0.10969 276646.080000
    736    738     1   0.10969 276646.080000
    739    740     1   0.10969 276646.080000
    739    741     1   0.10969 276646.080000
    742    743     1   0.10969 276646.080000
    742    744     1   0.10969 276646.080000
    745    746     1   0.10969 276646.080000
    745    747     1   0.10969 276646.080000
    750    779     1   0.10304 312293.760000
    751    752     1   0.10910 283424.160000
    751    753     1   0.10910 283424.160000
    754    755     1   0.10910 283424.160000
    754    756     1   0.10910 283424.160000
    757    758     1   0.10910 283424.160000
    757    759     1   0.10910 283424.160000
    760    761     1   0.10969 276646.080000
    760    762     1   0.10969 276646.080000
    763    764     1   0.10969 276646.080000
    763    765     1   0.10969 276646.080000
    766    767     1   0.10969 276646.080000
    766    768     1   0.10969 276646.080000
    769    770     1   0.10969 276646.080000
    769    771     1   0.10969 276646.080000
    772    773     1   0.10969 276646.080000
    772    774     1   0.10969 276646.080000
    775    776     1   0.10969 276646.080000
    775    777     1   0.10969 276646.080000
    780    809     1   0.10304 312293.760000
    781    782     1   0.10910 283424.160000
    781    783     1   0.10910 283424.160000
    784    785     1   0.10910 283424.160000
    784    786     1   0.10910 283424.160000
    787    788     1   0.10910 283424.160000
    787    789     1   0.10910 283424.160000
    790    791     1   0.10969 276646.080000
    790    792     1   0.10969 276646.080000
    793    794     1   0.10969 276646.080000
    793    795     1   0.10969 276646.080000
    796    797     1   0.10969 276646.080000
    796    798     1   0.10969 276646.080000
    799    800     1   0.10969 276646.080000
    799    801     1   0.10969 276646.080000
    802    803     1   0.10969 276646.080000
    802    804     1   0.10969 276646.080000
    805    806     1   0.10969 276646.080000
    805    807     1   0.10969 276646.080000
    810    839     1   0.10304 312293.760000
    811    812     1   0.10910 283424.160000
    811    813     1   0.10910 283424.160000
    814    815     1   0.10910 283424.160000
    814    816     1   0.10910 283424.160000
    817    818     1   0.10910 283424.160000
    817    819     1   0.10910 283424.160000
    820    821     1   0.10969 276646.080000
    820    822     1   0.10969 276646.080000
    823    824     1   0.10969 276646.080000
    823    825     1   0.10969 276646.080000
    826    827     1   0.10969 276646.080000
    826    828     1   0.10969 276646.080000
    829    830     1   0.10969 276646.080000
    829    831     1   0.10969 276646.080000
    832    833     1   0.10969 276646.080000
    832    834     1   0.10969 276646.080000
    835    836     1   0.10969 276646.080000
    835    837     1   0.10969 276646.080000
    840    869     1   0.10304 312293.760000
    841    842     1   0.10910 283424.160000
    841    843     1   0.10910 283424.160000
    844    845     1   0.10910 283424.160000
    844    846     1   0.10910 283424.160000
    847    848     1   0.10910 283424.160000
    847    849     1   0.10910 283424.160000
    850    851     1   0.10969 276646.080000
    850    852     1   0.10969 276646.080000
    853    854     1   0.10969 276646.080000
    853    855     1   0.10969 276646.080000
    856    857     1   0.10969 276646.080000
    856    858     1   0.10969 276646.080000
    859    860     1   0.10969 276646.080000
    859    861     1   0.10969 276646.080000
    862    863     1   0.10969 276646.080000
    862    864     1   0.10969 276646.080000
    865    866     1   0.10969 276646.080000
    865    867     1   0.10969 276646.080000
    870    899     1   0.10304 312293.760000
    871    872     1   0.10910 283424.160000
    871    873     1   0.10910 283424.160000
    874    875     1   0.10910 283424.160000
    874    876     1   0.10910 283424.160000
    877    878     1   0.10910 283424.160000
    877    879     1   0.10910 283424.160000
    880    881     1   0.10969 276646.080000
    880    882     1   0.10969 276646.080000
    883    884     1   0.10969 276646.080000
    883    885     1   0.10969 276646.080000
    886    887     1   0.10969 276646.080000
    886    888     1   0.10969 276646.080000
    889    890     1   0.10969 276646.080000
    889    891     1   0.10969 276646.080000
    892    893     1   0.10969 276646.080000
    892    894     1   0.10969 276646.080000
    895    896     1   0.10969 276646.080000
    895    897     1   0.10969 276646.080000
    900    901     1   0.10969 276646.080000
    900    902     1   0.10969 276646.080000
    903    904     1   0.10969 276646.080000
    903    905     1   0.10969 276646.080000
    906    907     1   0.10910 283424.160000
    906    908     1   0.10910 283424.160000
    909    931     1   0.10304 312293.760000
    910    911     1   0.10910 283424.160000
    910    912     1   0.10910 283424.160000
    913    914     1   0.10969 276646.080000
    913    915     1   0.10969 276646.080000
    918    919     1   0.09730 310787.520000
    920    921     1   0.10910 283424.160000
    920    922     1   0.10910 283424.160000
    923    924     1   0.10969 276646.080000
    923    925     1   0.10969 276646.080000
    928    929     1   0.09730 310787.520000
    932    933     1   0.10969 276646.080000
    932    934     1   0.10969 276646.080000
    935    936     1   0.10969 276646.080000
    935    937     1   0.10969 276646.080000
    938    939     1   0.10910 283424.160000
    938    940     1   0.10910 283424.160000
    941    963     1   0.10304 312293.760000
    942    943     1   0.10910 283424.160000
    942    944     1   0.10910 283424.160000
    945    946     1   0.10969 276646.080000
    945    947     1   0.10969 276646.080000
    950    951     1   0.09730 310787.520000
    952    953     1   0.10910 283424.160000
    952    954     1   0.10910 283424.160000
    955    956     1   0.10969 276646.080000
    955    957     1   0.10969 276646.080000
    960    961     1   0.09730 310787.520000
    964    965     1   0.10969 276646.080000
    964    966     1   0.10969 276646.080000
    967    968     1   0.10969 276646.080000
    967    969     1   0.10969 276646.080000
    970    971     1   0.10910 283424.160000
    970    972     1   0.10910 283424.160000
    973    995     1   0.10304 312293.760000
    974    975     1   0.10910 283424.160000
    974    976     1   0.10910 283424.160000
    977    978     1   0.10969 276646.080000
    977    979     1   0.10969 276646.080000
    982    983     1   0.09730 310787.520000
    984    985     1   0.10910 283424.160000
    984    986     1   0.10910 283424.160000
    987    988     1   0.10969 276646.080000
    987    989     1   0.10969 276646.080000
    992    993     1   0.09730 310787.520000
    996    997     1   0.10969 276646.080000
    996    998     1   0.10969 276646.080000
    999   1000     1   0.10969 276646.080000
    999   1001     1   0.10969 276646.080000
   1002   1003     1   0.10910 283424.160000
   1002   1004     1   0.10910 283424.160000
   1005   1027     1   0.10304 312293.760000
   1006   1007     1   0.10910 283424.160000
   1006   1008     1   0.10910 283424.160000
   1009   1010     1   0.10969 276646.080000
   1009   1011     1   0.10969 276646.080000
   1014   1015     1   0.09730 310787.520000
   1016   1017     1   0.10910 283424.160000
   1016   1018     1   0.10910 283424.160000
   1019   1020     1   0.10969 276646.080000
   1019   1021     1   0.10969 276646.080000
   1024   1025     1   0.09730 310787.520000
   1028   1029     1   0.10969 276646.080000
   1028   1030     1   0.10969 276646.080000
   1031   1032     1   0.10969 276646.080000
   1031   1033     1   0.10969 276646.080000
   1034   1035     1   0.10910 283424.160000
   1034   1036     1   0.10910 283424.160000
   1037   1059     1   0.10304 312293.760000
   1038   1039     1   0.10910 283424.160000
   1038   1040     1   0.10910 283424.160000
   1041   1042     1   0.10969 276646.080000
   1041   1043     1   0.10969 276646.080000
   1046   1047     1   0.09730 310787.520000
   1048   1049     1   0.10910 283424.160000
   1048   1050     1   0.10910 283424.160000
   1051   1052     1   0.10969 276646.080000
   1051   1053     1   0.10969 276646.080000
   1056   1057     1   0.09730 310787.520000
   1060   1061     1   0.10969 276646.080000
   1060   1062     1   0.10969 276646.080000
   1063   1064     1   0.10969 276646.080000
   1063   1065     1   0.10969 276646.080000
   1066   1067     1   0.10910 283424.160000
   1066   1068     1   0.10910 283424.160000
   1069   1091     1   0.10304 312293.760000
   1070   1071     1   0.10910 283424.160000
   1070   1072     1   0.10910 283424.160000
   1073   1074     1   0.10969 276646.080000
   1073   1075     1   0.10969 276646.080000
   1078   1079     1   0.09730 310787.520000
   1080   1081     1   0.10910 283424.160000
   1080   1082     1   0.10910 283424.160000
   1083   1084     1   0.10969 276646.080000
   1083   1085     1   0.10969 276646.080000
   1088   1089     1   0.09730 310787.520000
   1092   1093     1   0.10969 276646.080000
   1092   1094     1   0.10969 276646.080000
   1095   1096     1   0.10969 276646.080000
   1095   1097     1   0.10969 276646.080000
   1098   1099     1   0.10910 283424.160000
   1098   1100     1   0.10910 283424.160000
   1101   1123     1   0.10304 312293.760000
   1102   1103     1   0.10910 283424.160000
   1102   1104     1   0.10910 283424.160000
   1105   1106     1   0.10969 276646.080000
   1105   1107     1   0.10969 276646.080000
   1110   1111     1   0.09730 310787.520000
   1112   1113     1   0.10910 283424.160000
   1112   1114     1   0.10910 283424.160000
   1115   1116     1   0.10969 276646.080000
   1115   1117     1   0.10969 276646.080000
   1120   1121     1   0.09730 310787.520000
   1124   1125     1   0.10969 276646.080000
   1124   1126     1   0.10969 276646.080000
   1127   1128     1   0.10969 276646.080000
   1127   1129     1   0.10969 276646.080000
   1130   1131     1   0.10910 283424.160000
   1130   1132     1   0.10910 283424.160000
   1133   1155     1   0.10304 312293.760000
   1134   1135     1   0.10910 283424.160000
   1134   1136     1   0.10910 283424.160000
   1137   1138     1   0.10969 276646.080000
   1137   1139     1   0.10969 276646.080000
   1142   1143     1   0.09730 310787.520000
   1144   1145     1   0.10910 283424.160000
   1144   1146     1   0.10910 283424.160000
   1147   1148     1   0.10969 276646.080000
   1147   1149     1   0.10969 276646.080000
   1152   1153     1   0.09730 310787.520000
   1156   1157     1   0.10969 276646.080000
   1156   1158     1   0.10969 276646.080000
   1159   1160     1   0.10969 276646.080000
   1159   1161     1   0.10969 276646.080000
   1162   1163     1   0.10910 283424.160000
   1162   1164     1   0.10910 283424.160000
   1165   1187     1   0.10304 312293.760000
   1166   1167     1   0.10910 283424.160000
   1166   1168     1   0.10910 283424.160000
   1169   1170     1   0.10969 276646.080000
   1169   1171     1   0.10969 276646.080000
   1174   1175     1   0.09730 310787.520000
   1176   1177     1   0.10910 283424.160000
   1176   1178     1   0.10910 283424.160000
   1179   1180     1   0.10969 276646.080000
   1179   1181     1   0.10969 276646.080000
   1184   1185     1   0.09730 310787.520000
   1188   1189     1   0.10969 276646.080000
   1188   1190     1   0.10969 276646.080000
   1191   1192     1   0.10969 276646.080000
   1191   1193     1   0.10969 276646.080000
   1194   1195     1   0.10910 283424.160000
   1194   1196     1   0.10910 283424.160000
   1197   1219     1   0.10304 312293.760000
   1198   1199     1   0.10910 283424.160000
   1198   1200     1   0.10910 283424.160000
   1201   1202     1   0.10969 276646.080000
   1201   1203     1   0.10969 276646.080000
   1206   1207     1   0.09730 310787.520000
   1208   1209     1   0.10910 283424.160000
   1208   1210     1   0.10910 283424.160000
   1211   1212     1   0.10969 276646.080000
   1211   1213     1   0.10969 276646.080000
   1216   1217     1   0.09730 310787.520000
   1220   1221     1   0.10969 276646.080000
   1220   1222     1   0.10969 276646.080000
   1223   1224     1   0.10969 276646.080000
   1223   1225     1   0.10969 276646.080000
   1226   1227     1   0.10910 283424.160000
   1226   1228     1   0.10910 283424.160000
   1229   1251     1   0.10304 312293.760000
   1230   1231     1   0.10910 283424.160000
   1230   1232     1   0.10910 283424.160000
   1233   1234     1   0.10969 276646.080000
   1233   1235     1   0.10969 276646.080000
   1238   1239     1   0.09730 310787.520000
   1240   1241     1   0.10910 283424.160000
   1240   1242     1   0.10910 283424.160000
   1243   1244     1   0.10969 276646.080000
   1243   1245     1   0.10969 276646.080000
   1248   1249     1   0.09730 310787.520000
   1252   1253     1   0.10969 276646.080000
   1252   1254     1   0.10969 276646.080000
   1255   1256     1   0.10969 276646.080000
   1255   1257     1   0.10969 276646.080000
   1258   1259     1   0.10910 283424.160000
   1258   1260     1   0.10910 283424.160000
   1261   1283     1   0.10304 312293.760000
   1262   1263     1   0.10910 283424.160000
   1262   1264     1   0.10910 283424.160000
   1265   1266     1   0.10969 276646.080000
   1265   1267     1   0.10969 276646.080000
   1270   1271     1   0.09730 310787.520000
   1272   1273     1   0.10910 283424.160000
   1272   1274     1   0.10910 283424.160000
   1275   1276     1   0.10969 276646.080000
   1275   1277     1   0.10969 276646.080000
   1280   1281     1   0.09730 310787.520000
   1284   1285     1   0.10969 276646.080000
   1284   1286     1   0.10969 276646.080000
   1287   1288     1   0.10969 276646.080000
   1287   1289     1   0.10969 276646.080000
   1290   1291     1   0.10910 283424.160000
   1290   1292     1   0.10910 283424.160000
   1293   1315     1   0.10304 312293.760000
   1294   1295     1   0.10910 283424.160000
   1294   1296     1   0.10910 283424.160000
   1297   1298     1   0.10969 276646.080000
   1297   1299     1   0.10969 276646.080000
   1302   1303     1   0.09730 310787.520000
   1304   1305     1   0.10910 283424.160000
   1304   1306     1   0.10910 283424.160000
   1307   1308     1   0.10969 276646.080000
   1307   1309     1   0.10969 276646.080000
   1312   1313     1   0.09730 310787.520000
   1316   1317     1   0.10969 276646.080000
   1316   1318     1   0.10969 276646.080000
   1319   1320     1   0.10969 276646.080000
   1319   1321     1   0.10969 276646.080000
   1322   1323     1   0.10910 283424.160000
   1322   1324     1   0.10910 283424.160000
   1325   1347     1   0.10304 312293.760000
   1326   1327     1   0.10910 283424.160000
   1326   1328     1   0.10910 283424.160000
   1329   1330     1   0.10969 276646.080000
   1329   1331     1   0.10969 276646.080000
   1334   1335     1   0.09730 310787.520000
   1336   1337     1   0.10910 283424.160000
   1336   1338     1   0.10910 283424.160000
   1339   1340     1   0.10969 276646.080000
   1339   1341     1   0.10969 276646.080000
   1344   1345     1   0.09730 310787.520000
   1348   1349     1   0.10969 276646.080000
   1348   1350     1   0.10969 276646.080000
   1351   1352     1   0.10969 276646.080000
   1351   1353     1   0.10969 276646.080000
   1354   1355     1   0.10910 283424.160000
   1354   1356     1   0.10910 283424.160000
   1357   1379     1   0.10304 312293.760000
   1358   1359     1   0.10910 283424.160000
   1358   1360     1   0.10910 283424.160000
   1361   1362     1   0.10969 276646.080000
   1361   1363     1   0.10969 276646.080000
   1366   1367     1   0.09730 310787.520000
   1368   1369     1   0.10910 283424.160000
   1368   1370     1   0.10910 283424.160000
   1371   1372     1   0.10969 276646.080000
   1371   1373     1   0.10969 276646.080000
   1376   1377     1   0.09730 310787.520000
   1380   1381     1   0.10969 276646.080000
   1380   1382     1   0.10969 276646.080000
   1383   1384     1   0.10969 276646.080000
   1383   1385     1   0.10969 276646.080000
   1386   1387     1   0.10910 283424.160000
   1386   1388     1   0.10910 283424.160000
   1389   1411     1   0.10304 312293.760000
   1390   1391     1   0.10910 283424.160000
   1390   1392     1   0.10910 283424.160000
   1393   1394     1   0.10969 276646.080000
   1393   1395     1   0.10969 276646.080000
   1398   1399     1   0.09730 310787.520000
   1400   1401     1   0.10910 283424.160000
   1400   1402     1   0.10910 283424.160000
   1403   1404     1   0.10969 276646.080000
   1403   1405     1   0.10969 276646.080000
   1408   1409     1   0.09730 310787.520000
   1412   1413     1   0.10969 276646.080000
   1412   1414     1   0.10969 276646.080000
   1415   1416     1   0.10969 276646.080000
   1415   1417     1   0.10969 276646.080000
   1418   1419     1   0.10910 283424.160000
   1418   1420     1   0.10910 283424.160000
   1421   1443     1   0.10304 312293.760000
   1422   1423     1   0.10910 283424.160000
   1422   1424     1   0.10910 283424.160000
   1425   1426     1   0.10969 276646.080000
   1425   1427     1   0.10969 276646.080000
   1430   1431     1   0.09730 310787.520000
   1432   1433     1   0.10910 283424.160000
   1432   1434     1   0.10910 283424.160000
   1435   1436     1   0.10969 276646.080000
   1435   1437     1   0.10969 276646.080000
   1440   1441     1   0.09730 310787.520000
   1444   1445     1   0.10969 276646.080000
   1444   1446     1   0.10969 276646.080000
   1447   1448     1   0.10969 276646.080000
   1447   1449     1   0.10969 276646.080000
   1450   1451     1   0.10910 283424.160000
   1450   1452     1   0.10910 283424.160000
   1453   1475     1   0.10304 312293.760000
   1454   1455     1   0.10910 283424.160000
   1454   1456     1   0.10910 283424.160000
   1457   1458     1   0.10969 276646.080000
   1457   1459     1   0.10969 276646.080000
   1462   1463     1   0.09730 310787.520000
   1464   1465     1   0.10910 283424.160000
   1464   1466     1   0.10910 283424.160000
   1467   1468     1   0.10969 276646.080000
   1467   1469     1   0.10969 276646.080000
   1472   1473     1   0.09730 310787.520000
   1476   1477     1   0.10969 276646.080000
   1476   1478     1   0.10969 276646.080000
   1479   1480     1   0.10969 276646.080000
   1479   1481     1   0.10969 276646.080000
   1482   1483     1   0.10910 283424.160000
   1482   1484     1   0.10910 283424.160000
   1485   1507     1   0.10304 312293.760000
   1486   1487     1   0.10910 283424.160000
   1486   1488     1   0.10910 283424.160000
   1489   1490     1   0.10969 276646.080000
   1489   1491     1   0.10969 276646.080000
   1494   1495     1   0.09730 310787.520000
   1496   1497     1   0.10910 283424.160000
   1496   1498     1   0.10910 283424.160000
   1499   1500     1   0.10969 276646.080000
   1499   1501     1   0.10969 276646.080000
   1504   1505     1   0.09730 310787.520000
   1508   1509     1   0.10969 276646.080000
   1508   1510     1   0.10969 276646.080000
   1511   1512     1   0.10969 276646.080000
   1511   1513     1   0.10969 276646.080000
   1514   1515     1   0.10910 283424.160000
   1514   1516     1   0.10910 283424.160000
   1517   1539     1   0.10304 312293.760000
   1518   1519     1   0.10910 283424.160000
   1518   1520     1   0.10910 283424.160000
   1521   1522     1   0.10969 276646.080000
   1521   1523     1   0.10969 276646.080000
   1526   1527     1   0.09730 310787.520000
   1528   1529     1   0.10910 283424.160000
   1528   1530     1   0.10910 283424.160000
   1531   1532     1   0.10969 276646.080000
   1531   1533     1   0.10969 276646.080000
   1536   1537     1   0.09730 310787.520000
   1540   1541     1   0.10969 276646.080000
   1540   1542     1   0.10969 276646.080000
   1543   1544     1   0.10969 276646.080000
   1543   1545     1   0.10969 276646.080000
   1546   1547     1   0.10910 283424.160000
   1546   1548     1   0.10910 283424.160000
   1549   1571     1   0.10304 312293.760000
   1550   1551     1   0.10910 283424.160000
   1550   1552     1   0.10910 283424.160000
   1553   1554     1   0.10969 276646.080000
   1553   1555     1   0.10969 276646.080000
   1558   1559     1   0.09730 310787.520000
   1560   1561     1   0.10910 283424.160000
   1560   1562     1   0.10910 283424.160000
   1563   1564     1   0.10969 276646.080000
   1563   1565     1   0.10969 276646.080000
   1568   1569     1   0.09730 310787.520000
   1572   1573     1   0.10969 276646.080000
   1572   1574     1   0.10969 276646.080000
   1575   1576     1   0.10969 276646.080000
   1575   1577     1   0.10969 276646.080000
   1578   1579     1   0.10910 283424.160000
   1578   1580     1   0.10910 283424.160000
   1581   1603     1   0.10304 312293.760000
   1582   1583     1   0.10910 283424.160000
   1582   1584     1   0.10910 283424.160000
   1585   1586     1   0.10969 276646.080000
   1585   1587     1   0.10969 276646.080000
   1590   1591     1   0.09730 310787.520000
   1592   1593     1   0.10910 283424.160000
   1592   1594     1   0.10910 283424.160000
   1595   1596     1   0.10969 276646.080000
   1595   1597     1   0.10969 276646.080000
   1600   1601     1   0.09730 310787.520000
   1604   1605     1   0.10969 276646.080000
   1604   1606     1   0.10969 276646.080000
   1607   1608     1   0.10969 276646.080000
   1607   1609     1   0.10969 276646.080000
   1610   1611     1   0.10910 283424.160000
   1610   1612     1   0.10910 283424.160000
   1613   1635     1   0.10304 312293.760000
   1614   1615     1   0.10910 283424.160000
   1614   1616     1   0.10910 283424.160000
   1617   1618     1   0.10969 276646.080000
   1617   1619     1   0.10969 276646.080000
   1622   1623     1   0.09730 310787.520000
   1624   1625     1   0.10910 283424.160000
   1624   1626     1   0.10910 283424.160000
   1627   1628     1   0.10969 276646.080000
   1627   1629     1   0.10969 276646.080000
   1632   1633     1   0.09730 310787.520000
   1636   1637     1   0.10969 276646.080000
   1636   1638     1   0.10969 276646.080000
   1639   1640     1   0.10969 276646.080000
   1639   1641     1   0.10969 276646.080000
   1642   1643     1   0.10910 283424.160000
   1642   1644     1   0.10910 283424.160000
   1645   1667     1   0.10304 312293.760000
   1646   1647     1   0.10910 283424.160000
   1646   1648     1   0.10910 283424.160000
   1649   1650     1   0.10969 276646.080000
   1649   1651     1   0.10969 276646.080000
   1654   1655     1   0.09730 310787.520000
   1656   1657     1   0.10910 283424.160000
   1656   1658     1   0.10910 283424.160000
   1659   1660     1   0.10969 276646.080000
   1659   1661     1   0.10969 276646.080000
   1664   1665     1   0.09730 310787.520000
   1668   1669     1   0.10969 276646.080000
   1668   1670     1   0.10969 276646.080000
   1671   1672     1   0.10969 276646.080000
   1671   1673     1   0.10969 276646.080000
   1674   1675     1   0.10910 283424.160000
   1674   1676     1   0.10910 283424.160000
   1677   1699     1   0.10304 312293.760000
   1678   1679     1   0.10910 283424.160000
   1678   1680     1   0.10910 283424.160000
   1681   1682     1   0.10969 276646.080000
   1681   1683     1   0.10969 276646.080000
   1686   1687     1   0.09730 310787.520000
   1688   1689     1   0.10910 283424.160000
   1688   1690     1   0.10910 283424.160000
   1691   1692     1   0.10969 276646.080000
   1691   1693     1   0.10969 276646.080000
   1696   1697     1   0.09730 310787.520000
   1700   1701     1   0.10969 276646.080000
   1700   1702     1   0.10969 276646.080000
   1703   1704     1   0.10969 276646.080000
   1703   1705     1   0.10969 276646.080000
   1706   1707     1   0.10910 283424.160000
   1706   1708     1   0.10910 283424.160000
   1709   1731     1   0.10304 312293.760000
   1710   1711     1   0.10910 283424.160000
   1710   1712     1   0.10910 283424.160000
   1713   1714     1   0.10969 276646.080000
   1713   1715     1   0.10969 276646.080000
   1718   1719     1   0.09730 310787.520000
   1720   1721     1   0.10910 283424.160000
   1720   1722     1   0.10910 283424.160000
   1723   1724     1   0.10969 276646.080000
   1723   1725     1   0.10969 276646.080000
   1728   1729     1   0.09730 310787.520000
   1732   1733     1   0.10969 276646.080000
   1732   1734     1   0.10969 276646.080000
   1735   1736     1   0.10969 276646.080000
   1735   1737     1   0.10969 276646.080000
   1738   1739     1   0.10910 283424.160000
   1738   1740     1   0.10910 283424.160000
   1741   1763     1   0.10304 312293.760000
   1742   1743     1   0.10910 283424.160000
   1742   1744     1   0.10910 283424.160000
   1745   1746     1   0.10969 276646.080000
   1745   1747     1   0.10969 276646.080000
   1750   1751     1   0.09730 310787.520000
   1752   1753     1   0.10910 283424.160000
   1752   1754     1   0.10910 283424.160000
   1755   1756     1   0.10969 276646.080000
   1755   1757     1   0.10969 276646.080000
   1760   1761     1   0.09730 310787.520000
   1764   1765     1   0.10969 276646.080000
   1764   1766     1   0.10969 276646.080000
   1767   1768     1   0.10969 276646.080000
   1767   1769     1   0.10969 276646.080000
   1770   1771     1   0.10910 283424.160000
   1770   1772     1   0.10910 283424.160000
   1773   1795     1   0.10304 312293.760000
   1774   1775     1   0.10910 283424.160000
   1774   1776     1   0.10910 283424.160000
   1777   1778     1   0.10969 276646.080000
   1777   1779     1   0.10969 276646.080000
   1782   1783     1   0.09730 310787.520000
   1784   1785     1   0.10910 283424.160000
   1784   1786     1   0.10910 283424.160000
   1787   1788     1   0.10969 276646.080000
   1787   1789     1   0.10969 276646.080000
   1792   1793     1   0.09730 310787.520000
   1796   1797     1   0.10969 276646.080000
   1796   1798     1   0.10969 276646.080000
   1799   1800     1   0.10969 276646.080000
   1799   1801     1   0.10969 276646.080000
   1802   1803     1   0.10910 283424.160000
   1802   1804     1   0.10910 283424.160000
   1805   1827     1   0.10304 312293.760000
   1806   1807     1   0.10910 283424.160000
   1806   1808     1   0.10910 283424.160000
   1809   1810     1   0.10969 276646.080000
   1809   1811     1   0.10969 276646.080000
   1814   1815     1   0.09730 310787.520000
   1816   1817     1   0.10910 283424.160000
   1816   1818     1   0.10910 283424.160000
   1819   1820     1   0.10969 276646.080000
   1819   1821     1   0.10969 276646.080000
   1824   1825     1   0.09730 310787.520000
   1828   1829     1   0.10969 276646.080000
   1828   1830     1   0.10969 276646.080000
   1831   1832     1   0.10969 276646.080000
   1831   1833     1   0.10969 276646.080000
   1834   1835     1   0.10910 283424.160000
   1834   1836     1   0.10910 283424.160000
   1837   1859     1   0.10304 312293.760000
   1838   1839     1   0.10910 283424.160000
   1838   1840     1   0.10910 283424.160000
   1841   1842     1   0.10969 276646.080000
   1841   1843     1   0.10969 276646.080000
   1846   1847     1   0.09730 310787.520000
   1848   1849     1   0.10910 283424.160000
   1848   1850     1   0.10910 283424.160000
   1851   1852     1   0.10969 276646.080000
   1851   1853     1   0.10969 276646.080000
   1856   1857     1   0.09730 310787.520000
   1860   1861     1   0.10969 276646.080000
   1860   1862     1   0.10969 276646.080000
   1863   1864     1   0.10969 276646.080000
   1863   1865     1   0.10969 276646.080000
   1866   1867     1   0.10910 283424.160000
   1866   1868     1   0.10910 283424.160000
   1869   1891     1   0.10304 312293.760000
   1870   1871     1   0.10910 283424.160000
   1870   1872     1   0.10910 283424.160000
   1873   1874     1   0.10969 276646.080000
   1873   1875     1   0.10969 276646.080000
   1878   1879     1   0.09730 310787.520000
   1880   1881     1   0.10910 283424.160000
   1880   1882     1   0.10910 283424.160000
   1883   1884     1   0.10969 276646.080000
   1883   1885     1   0.10969 276646.080000
   1888   1889     1   0.09730 310787.520000
   1892   1893     1   0.10969 276646.080000
   1892   1894     1   0.10969 276646.080000
   1895   1896     1   0.10969 276646.080000
   1895   1897     1   0.10969 276646.080000
   1898   1899     1   0.10910 283424.160000
   1898   1900     1   0.10910 283424.160000
   1901   1923     1   0.10304 312293.760000
   1902   1903     1   0.10910 283424.160000
   1902   1904     1   0.10910 283424.160000
   1905   1906     1   0.10969 276646.080000
   1905   1907     1   0.10969 276646.080000
   1910   1911     1   0.09730 310787.520000
   1912   1913     1   0.10910 283424.160000
   1912   1914     1   0.10910 283424.160000
   1915   1916     1   0.10969 276646.080000
   1915   1917     1   0.10969 276646.080000
   1920   1921     1   0.09730 310787.520000

[ pairs ]
;    ai     aj funct         c0         c1         c2         c3
      1     14     1
      1     17     1
      2     11     1
      2     20     1
      5      8     1
      5     21     1
      8     28     1
      8     31     1
     11     22     1
     11     25     1
     14     40     1
     14     43     1
     17     34     1
     17     37     1
     20     49     1
     20     46     1
     21     55     1
     21     52     1
     22     37     1
     22    178     1
     25     34     1
     25    148     1
     28     43     1
     28    118     1
     31     40     1
     31     88     1
     34    169     1
     37    139     1
     40    109     1
     43     79     1
     46     70     1
     49    100     1
     52    130     1
     55    160     1
     60     85     1
     60     82     1
     60     79     1
     61     76     1
     61     70     1
     61    238     1
     64     73     1
     64     70     1
     64    208     1
     67     73     1
     67     76     1
     67     88     1
     73    229     1
     76    199     1
     82    190     1
     85    220     1
     90    115     1
     90    112     1
     90    109     1
     91    106     1
     91    100     1
     91    298     1
     94    103     1
     94    100     1
     94    268     1
     97    103     1
     97    106     1
     97    118     1
    103    289     1
    106    259     1
    112    250     1
    115    280     1
    120    145     1
    120    142     1
    120    139     1
    121    136     1
    121    130     1
    121    358     1
    124    133     1
    124    130     1
    124    328     1
    127    133     1
    127    136     1
    127    148     1
    133    349     1
    136    319     1
    142    310     1
    145    340     1
    150    175     1
    150    172     1
    150    169     1
    151    166     1
    151    160     1
    151    418     1
    154    163     1
    154    160     1
    154    388     1
    157    163     1
    157    166     1
    157    178     1
    163    409     1
    166    379     1
    172    370     1
    175    400     1
    180    205     1
    180    202     1
    180    199     1
    181    196     1
    181    190     1
    181    478     1
    184    193     1
    184    190     1
    184    448     1
    187    193     1
    187    196     1
    187    208     1
    193    469     1
    196    439     1
    202    430     1
    205    460     1
    210    235     1
    210    232     1
    210    229     1
    211    226     1
    211    220     1
    211    538     1
    214    223     1
    214    220     1
    214    508     1
    217    223     1
    217    226     1
    217    238     1
    223    529     1
    226    499     1
    232    490     1
    235    520     1
    240    265     1
    240    262     1
    240    259     1
    241    256     1
    241    250     1
    241    598     1
    244    253     1
    244    250     1
    244    568     1
    247    253     1
    247    256     1
    247    268     1
    253    589     1
    256    559     1
    262    550     1
    265    580     1
    270    295     1
    270    292     1
    270    289     1
    271    286     1
    271    280     1
    271    658     1
    274    283     1
    274    280     1
    274    628     1
    277    283     1
    277    286     1
    277    298     1
    283    649     1
    286    619     1
    292    610     1
    295    640     1
    300    325     1
    300    322     1
    300    319     1
    301    316     1
    301    310     1
    301    718     1
    304    313     1
    304    310     1
    304    688     1
    307    313     1
    307    316     1
    307    328     1
    313    709     1
    316    679     1
    322    670     1
    325    700     1
    330    355     1
    330    352     1
    330    349     1
    331    346     1
    331    340     1
    331    778     1
    334    343     1
    334    340     1
    334    748     1
    337    343     1
    337    346     1
    337    358     1
    343    769     1
    346    739     1
    352    730     1
    355    760     1
    360    385     1
    360    382     1
    360    379     1
    361    376     1
    361    370     1
    361    838     1
    364    373     1
    364    370     1
    364    808     1
    367    373     1
    367    376     1
    367    388     1
    373    829     1
    376    799     1
    382    790     1
    385    820     1
    390    415     1
    390    412     1
    390    409     1
    391    406     1
    391    400     1
    391    898     1
    394    403     1
    394    400     1
    394    868     1
    397    403     1
    397    406     1
    397    418     1
    403    889     1
    406    859     1
    412    850     1
    415    880     1
    420    445     1
    420    442     1
    420    439     1
    421    436     1
    421    430     1
    421    962     1
    424    433     1
    424    430     1
    424    930     1
    427    433     1
    427    436     1
    427    448     1
    433    932     1
    436    900     1
    442    903     1
    445    935     1
    450    475     1
    450    472     1
    450    469     1
    451    466     1
    451    460     1
    451   1026     1
    454    463     1
    454    460     1
    454    994     1
    457    463     1
    457    466     1
    457    478     1
    463    996     1
    466    964     1
    472    967     1
    475    999     1
    480    505     1
    480    502     1
    480    499     1
    481    496     1
    481    490     1
    481   1090     1
    484    493     1
    484    490     1
    484   1058     1
    487    493     1
    487    496     1
    487    508     1
    493   1060     1
    496   1028     1
    502   1031     1
    505   1063     1
    510    535     1
    510    532     1
    510    529     1
    511    526     1
    511    520     1
    511   1154     1
    514    523     1
    514    520     1
    514   1122     1
    517    523     1
    517    526     1
    517    538     1
    523   1124     1
    526   1092     1
    532   1095     1
    535   1127     1
    540    565     1
    540    562     1
    540    559     1
    541    556     1
    541    550     1
    541   1218     1
    544    553     1
    544    550     1
    544   1186     1
    547    553     1
    547    556     1
    547    568     1
    553   1188     1
    556   1156     1
    562   1159     1
    565   1191     1
    570    595     1
    570    592     1
    570    589     1
    571    586     1
    571    580     1
    571   1282     1
    574    583     1
    574    580     1
    574   1250     1
    577    583     1
    577    586     1
    577    598     1
    583   1252     1
    586   1220     1
    592   1223     1
    595   1255     1
    600    625     1
    600    622     1
    600    619     1
    601    616     1
    601    610     1
    601   1346     1
    604    613     1
    604    610     1
    604   1314     1
    607    613     1
    607    616     1
    607    628     1
    613   1316     1
    616   1284     1
    622   1287     1
    625   1319     1
    630    655     1
    630    652     1
    630    649     1
    631    646     1
    631    640     1
    631   1410     1
    634    643     1
    634    640     1
    634   1378     1
    637    643     1
    637    646     1
    637    658     1
    643   1380     1
    646   1348     1
    652   1351     1
    655   1383     1
    660    685     1
    660    682     1
    660    679     1
    661    676     1
    661    670     1
    661   1474     1
    664    673     1
    664    670     1
    664   1442     1
    667    673     1
    667    676     1
    667    688     1
    673   1444     1
    676   1412     1
    682   1415     1
    685   1447     1
    690    715     1
    690    712     1
    690    709     1
    691    706     1
    691    700     1
    691   1538     1
    694    703     1
    694    700     1
    694   1506     1
    697    703     1
    697    706     1
    697    718     1
    703   1508     1
    706   1476     1
    712   1479     1
    715   1511     1
    720    745     1
    720    742     1
    720    739     1
    721    736     1
    721    730     1
    721   1602     1
    724    733     1
    724    730     1
    724   1570     1
    727    733     1
    727    736     1
    727    748     1
    733   1572     1
    736   1540     1
    742   1543     1
    745   1575     1
    750    775     1
    750    772     1
    750    769     1
    751    766     1
    751    760     1
    751   1666     1
    754    763     1
    754    760     1
    754   1634     1
    757    763     1
    757    766     1
    757    778     1
    763   1636     1
    766   1604     1
    772   1607     1
    775   1639     1
    780    805     1
    780    802     1
    780    799     1
    781    796     1
    781    790     1
    781   1730     1
    784    793     1
    784    790     1
    784   1698     1
    787    793     1
    787    796     1
    787    808     1
    793   1700     1
    796   1668     1
    802   1671     1
    805   1703     1
    810    835     1
    810    832     1
    810    829     1
    811    826     1
    811    820     1
    811   1794     1
    814    823     1
    814    820     1
    814   1762     1
    817    823     1
    817    826     1
    817    838     1
    823   1764     1
    826   1732     1
    832   1735     1
    835   1767     1
    840    865     1
    840    862     1
    840    859     1
    841    856     1
    841    850     1
    841   1858     1
    844    853     1
    844    850     1
    844   1826     1
    847    853     1
    847    856     1
    847    868     1
    853   1828     1
    856   1796     1
    862   1799     1
    865   1831     1
    870    895     1
    870    892     1
    870    889     1
    871    886     1
    871    880     1
    871   1922     1
    874    883     1
    874    880     1
    874   1890     1
    877    883     1
    877    886     1
    877    898     1
    883   1892     1
    886   1860     1
    892   1863     1
    895   1895     1
    900    909     1
    903    910     1
    903    920     1
    906    930     1
    906    913     1
    906    923     1
    909    916     1
    909    926     1
    910    923     1
    910    917     1
    910    918     1
    913    920     1
    920    927     1
    920    928     1
    932    941     1
    935    942     1
    935    952     1
    938    945     1
    938    955     1
    938    962     1
    941    948     1
    941    958     1
    942    949     1
    942    950     1
    942    955     1
    945    952     1
    952    959     1
    952    960     1
    964    973     1
    967    974     1
    967    984     1
    970    994     1
    970    977     1
    970    987     1
    973    980     1
    973    990     1
    974    987     1
    974    981     1
    974    982     1
    977    984     1
    984    991     1
    984    992     1
    996   1005     1
    999   1006     1
    999   1016     1
   1002   1009     1
   1002   1019     1
   1002   1026     1
   1005   1012     1
   1005   1022     1
   1006   1013     1
   1006   1014     1
   1006   1019     1
   1009   1016     1
   1016   1023     1
   1016   1024     1
   1028   1037     1
   1031   1038     1
   1031   1048     1
   1034   1058     1
   1034   1041     1
   1034   1051     1
   1037   1044     1
   1037   1054     1
   1038   1051     1
   1038   1045     1
   1038   1046     1
   1041   1048     1
   1048   1055     1
   1048   1056     1
   1060   1069     1
   1063   1070     1
   1063   1080     1
   1066   1073     1
   1066   1083     1
   1066   1090     1
   1069   1076     1
   1069   1086     1
   1070   1077     1
   1070   1078     1
   1070   1083     1
   1073   1080     1
   1080   1087     1
   1080   1088     1
   1092   1101     1
   1095   1102     1
   1095   1112     1
   1098   1122     1
   1098   1105     1
   1098   1115     1
   1101   1108     1
   1101   1118     1
   1102   1115     1
   1102   1109     1
   1102   1110     1
   1105   1112     1
   1112   1119     1
   1112   1120     1
   1124   1133     1
   1127   1134     1
   1127   1144     1
   1130   1137     1
   1130   1147     1
   1130   1154     1
   1133   1140     1
   1133   1150     1
   1134   1141     1
   1134   1142     1
   1134   1147     1
   1137   1144     1
   1144   1151     1
   1144   1152     1
   1156   1165     1
   1159   1166     1
   1159   1176     1
   1162   1186     1
   1162   1169     1
   1162   1179     1
   1165   1172     1
   1165   1182     1
   1166   1179     1
   1166   1173     1
   1166   1174     1
   1169   1176     1
   1176   1183     1
   1176   1184     1
   1188   1197     1
   1191   1198     1
   1191   1208     1
   1194   1201     1
   1194   1211     1
   1194   1218     1
   1197   1204     1
   1197   1214     1
   1198   1205     1
   1198   1206     1
   1198   1211     1
   1201   1208     1
   1208   1215     1
   1208   1216     1
   1220   1229     1
   1223   1230     1
   1223   1240     1
   1226   1250     1
   1226   1233     1
   1226   1243     1
   1229   1236     1
   1229   1246     1
   1230   1243     1
   1230   1237     1
   1230   1238     1
   1233   1240     1
   1240   1247     1
   1240   1248     1
   1252   1261     1
   1255   1262     1
   1255   1272     1
   1258   1265     1
   1258   1275     1
   1258   1282     1
   1261   1268     1
   1261   1278     1
   1262   1269     1
   1262   1270     1
   1262   1275     1
   1265   1272     1
   1272   1279     1
   1272   1280     1
   1284   1293     1
   1287   1294     1
   1287   1304     1
   1290   1314     1
   1290   1297     1
   1290   1307     1
   1293   1300     1
   1293   1310     1
   1294   1307     1
   1294   1301     1
   1294   1302     1
   1297   1304     1
   1304   1311     1
   1304   1312     1
   1316   1325     1
   1319   1326     1
   1319   1336     1
   1322   1329     1
   1322   1339     1
   1322   1346     1
   1325   1332     1
   1325   1342     1
   1326   1333     1
   1326   1334     1
   1326   1339     1
   1329   1336     1
   1336   1343     1
   1336   1344     1
   1348   1357     1
   1351   1358     1
   1351   1368     1
   1354   1378     1
   1354   1361     1
   1354   1371     1
   1357   1364     1
   1357   1374     1
   1358   1371     1
   1358   1365     1
   1358   1366     1
   1361   1368     1
   1368   1375     1
   1368   1376     1
   1380   1389     1
   1383   1390     1
   1383   1400     1
   1386   1393     1
   1386   1403     1
   1386   1410     1
   1389   1396     1
   1389   1406     1
   1390   1397     1
   1390   1398     1
   1390   1403     1
   1393   1400     1
   1400   1407     1
   1400   1408     1
   1412   1421     1
   1415   1422     1
   1415   1432     1
   1418   1442     1
   1418   1425     1
   1418   1435     1
   1421   1428     1
   1421   1438     1
   1422   1435     1
   1422   1429     1
   1422   1430     1
   1425   1432     1
   1432   1439     1
   1432   1440     1
   1444   1453     1
   1447   1454     1
   1447   1464     1
   1450   1457     1
   1450   1467     1
   1450   1474     1
   1453   1460     1
   1453   1470     1
   1454   1461     1
   1454   1462     1
   1454   1467     1
   1457   1464     1
   1464   1471     1
   1464   1472     1
   1476   1485     1
   1479   1486     1
   1479   1496     1
   1482   1506     1
   1482   1489     1
   1482   1499     1
   1485   1492     1
   1485   1502     1
   1486   1499     1
   1486   1493     1
   1486   1494     1
   1489   1496     1
   1496   1503     1
   1496   1504     1
   1508   1517     1
   1511   1518     1
   1511   1528     1
   1514   1521     1
   1514   1531     1
   1514   1538     1
   1517   1524     1
   1517   1534     1
   1518   1525     1
   1518   1526     1
   1518   1531     1
   1521   1528     1
   1528   1535     1
   1528   1536     1
   1540   1549     1
   1543   1550     1
   1543   1560     1
   1546   1570     1
   1546   1553     1
   1546   1563     1
   1549   1556     1
   1549   1566     1
   1550   1563     1
   1550   1557     1
   1550   1558     1
   1553   1560     1
   1560   1567     1
   1560   1568     1
   1572   1581     1
   1575   1582     1
   1575   1592     1
   1578   1585     1
   1578   1595     1
   1578   1602     1
   1581   1588     1
   1581   1598     1
   1582   1589     1
   1582   1590     1
   1582   1595     1
   1585   1592     1
   1592   1599     1
   1592   1600     1
   1604   1613     1
   1607   1614     1
   1607   1624     1
   1610   1634     1
   1610   1617     1
   1610   1627     1
   1613   1620     1
   1613   1630     1
   1614   1627     1
   1614   1621     1
   1614   1622     1
   1617   1624     1
   1624   1631     1
   1624   1632     1
   1636   1645     1
   1639   1646     1
   1639   1656     1
   1642   1649     1
   1642   1659     1
   1642   1666     1
   1645   1652     1
   1645   1662     1
   1646   1653     1
   1646   1654     1
   1646   1659     1
   1649   1656     1
   1656   1663     1
   1656   1664     1
   1668   1677     1
   1671   1678     1
   1671   1688     1
   1674   1698     1
   1674   1681     1
   1674   1691     1
   1677   1684     1
   1677   1694     1
   1678   1691     1
   1678   1685     1
   1678   1686     1
   1681   1688     1
   1688   1695     1
   1688   1696     1
   1700   1709     1
   1703   1710     1
   1703   1720     1
   1706   1713     1
   1706   1723     1
   1706   1730     1
   1709   1716     1
   1709   1726     1
   1710   1717     1
   1710   1718     1
   1710   1723     1
   1713   1720     1
   1720   1727     1
   1720   1728     1
   1732   1741     1
   1735   1742     1
   1735   1752     1
   1738   1762     1
   1738   1745     1
   1738   1755     1
   1741   1748     1
   1741   1758     1
   1742   1755     1
   1742   1749     1
   1742   1750     1
   1745   1752     1
   1752   1759     1
   1752   1760     1
   1764   1773     1
   1767   1774     1
   1767   1784     1
   1770   1777     1
   1770   1787     1
   1770   1794     1
   1773   1780     1
   1773   1790     1
   1774   1781     1
   1774   1782     1
   1774   1787     1
   1777   1784     1
   1784   1791     1
   1784   1792     1
   1796   1805     1
   1799   1806     1
   1799   1816     1
   1802   1826     1
   1802   1809     1
   1802   1819     1
   1805   1812     1
   1805   1822     1
   1806   1819     1
   1806   1813     1
   1806   1814     1
   1809   1816     1
   1816   1823     1
   1816   1824     1
   1828   1837     1
   1831   1838     1
   1831   1848     1
   1834   1841     1
   1834   1851     1
   1834   1858     1
   1837   1844     1
   1837   1854     1
   1838   1845     1
   1838   1846     1
   1838   1851     1
   1841   1848     1
   1848   1855     1
   1848   1856     1
   1860   1869     1
   1863   1870     1
   1863   1880     1
   1866   1890     1
   1866   1873     1
   1866   1883     1
   1869   1876     1
   1869   1886     1
   1870   1883     1
   1870   1877     1
   1870   1878     1
   1873   1880     1
   1880   1887     1
   1880   1888     1
   1892   1901     1
   1895   1902     1
   1895   1912     1
   1898   1905     1
   1898   1915     1
   1898   1922     1
   1901   1908     1
   1901   1918     1
   1902   1909     1
   1902   1910     1
   1902   1915     1
   1905   1912     1
   1912   1919     1
   1912   1920     1
      1      9     1
      1     10     1
      1     12     1
      1     13     1
      2      6     1
      2      7     1
      2     15     1
      2     16     1
      5      3     1
      3     14     1
      3      9     1
      3     10     1
      5      4     1
      4     14     1
      4      9     1
      4     10     1
      5     18     1
      5     19     1
      6     17     1
      6     12     1
      6     13     1
      7     17     1
      7     12     1
      7     13     1
      8     58     1
      9     20     1
      9     15     1
      9     16     1
     10     20     1
     10     15     1
     10     16     1
     11     59     1
     12     21     1
     12     18     1
     12     19     1
     13     21     1
     13     18     1
     13     19     1
     14     29     1
     14     30     1
     14     32     1
     14     33     1
     15     28     1
     15     31     1
     15     58     1
     16     28     1
     16     31     1
     16     58     1
     17     23     1
     17     24     1
     17     26     1
     17     27     1
     18     22     1
     18     25     1
     18     59     1
     19     22     1
     19     25     1
     19     59     1
     20     41     1
     20     42     1
     20     44     1
     20     45     1
     21     35     1
     21     36     1
     21     38     1
     21     39     1
     22     26     1
     22     27     1
     22     56     1
     22     57     1
     23     25     1
     23     59     1
     23     55     1
     23     35     1
     23     36     1
     24     25     1
     24     59     1
     24     55     1
     24     35     1
     24     36     1
     25     53     1
     25     54     1
     26     59     1
     26     52     1
     26     38     1
     26     39     1
     27     59     1
     27     52     1
     27     38     1
     27     39     1
     28     32     1
     28     33     1
     28     50     1
     28     51     1
     29     31     1
     29     58     1
     29     49     1
     29     41     1
     29     42     1
     30     31     1
     30     58     1
     30     49     1
     30     41     1
     30     42     1
     31     47     1
     31     48     1
     32     58     1
     32     46     1
     32     44     1
     32     45     1
     33     58     1
     33     46     1
     33     44     1
     33     45     1
     34     59     1
     35    178     1
     35     56     1
     35     57     1
     36    178     1
     36     56     1
     36     57     1
     37     59     1
     38    148     1
     38     53     1
     38     54     1
     39    148     1
     39     53     1
     39     54     1
     40     58     1
     41    118     1
     41     50     1
     41     51     1
     42    118     1
     42     50     1
     42     51     1
     43     58     1
     44     88     1
     44     47     1
     44     48     1
     45     88     1
     45     47     1
     45     48     1
     46     80     1
     46     81     1
     47     79     1
     48     79     1
     49    110     1
     49    111     1
     50    109     1
     51    109     1
     52    140     1
     52    141     1
     53    139     1
     54    139     1
     55    170     1
     55    171     1
     56    169     1
     57    169     1
     60     74     1
     60     75     1
     60     77     1
     60     78     1
     60     71     1
     60     72     1
     61     65     1
     61     66     1
     61     68     1
     61     69     1
     61     86     1
     61     87     1
     62     64     1
     62     67     1
     62     89     1
     62     85     1
     62     74     1
     62     75     1
     63     64     1
     63     67     1
     63     89     1
     63     85     1
     63     74     1
     63     75     1
     64     68     1
     64     69     1
     64     83     1
     64     84     1
     65     67     1
     65     89     1
     65     82     1
     65     77     1
     65     78     1
     66     67     1
     66     89     1
     66     82     1
     66     77     1
     66     78     1
     67     80     1
     67     81     1
     68     89     1
     68     79     1
     68     71     1
     68     72     1
     69     89     1
     69     79     1
     69     71     1
     69     72     1
     70     89     1
     71     88     1
     71     80     1
     71     81     1
     72     88     1
     72     80     1
     72     81     1
     73     89     1
     74    238     1
     74     86     1
     74     87     1
     75    238     1
     75     86     1
     75     87     1
     76     89     1
     77    208     1
     77     83     1
     77     84     1
     78    208     1
     78     83     1
     78     84     1
     82    200     1
     82    201     1
     83    199     1
     84    199     1
     85    230     1
     85    231     1
     86    229     1
     87    229     1
     90    104     1
     90    105     1
     90    107     1
     90    108     1
     90    101     1
     90    102     1
     91     95     1
     91     96     1
     91     98     1
     91     99     1
     91    116     1
     91    117     1
     92     94     1
     92     97     1
     92    119     1
     92    115     1
     92    104     1
     92    105     1
     93     94     1
     93     97     1
     93    119     1
     93    115     1
     93    104     1
     93    105     1
     94     98     1
     94     99     1
     94    113     1
     94    114     1
     95     97     1
     95    119     1
     95    112     1
     95    107     1
     95    108     1
     96     97     1
     96    119     1
     96    112     1
     96    107     1
     96    108     1
     97    110     1
     97    111     1
     98    119     1
     98    109     1
     98    101     1
     98    102     1
     99    119     1
     99    109     1
     99    101     1
     99    102     1
    100    119     1
    101    118     1
    101    110     1
    101    111     1
    102    118     1
    102    110     1
    102    111     1
    103    119     1
    104    298     1
    104    116     1
    104    117     1
    105    298     1
    105    116     1
    105    117     1
    106    119     1
    107    268     1
    107    113     1
    107    114     1
    108    268     1
    108    113     1
    108    114     1
    112    260     1
    112    261     1
    113    259     1
    114    259     1
    115    290     1
    115    291     1
    116    289     1
    117    289     1
    120    134     1
    120    135     1
    120    137     1
    120    138     1
    120    131     1
    120    132     1
    121    125     1
    121    126     1
    121    128     1
    121    129     1
    121    146     1
    121    147     1
    122    124     1
    122    127     1
    122    149     1
    122    145     1
    122    134     1
    122    135     1
    123    124     1
    123    127     1
    123    149     1
    123    145     1
    123    134     1
    123    135     1
    124    128     1
    124    129     1
    124    143     1
    124    144     1
    125    127     1
    125    149     1
    125    142     1
    125    137     1
    125    138     1
    126    127     1
    126    149     1
    126    142     1
    126    137     1
    126    138     1
    127    140     1
    127    141     1
    128    149     1
    128    139     1
    128    131     1
    128    132     1
    129    149     1
    129    139     1
    129    131     1
    129    132     1
    130    149     1
    131    148     1
    131    140     1
    131    141     1
    132    148     1
    132    140     1
    132    141     1
    133    149     1
    134    358     1
    134    146     1
    134    147     1
    135    358     1
    135    146     1
    135    147     1
    136    149     1
    137    328     1
    137    143     1
    137    144     1
    138    328     1
    138    143     1
    138    144     1
    142    320     1
    142    321     1
    143    319     1
    144    319     1
    145    350     1
    145    351     1
    146    349     1
    147    349     1
    150    164     1
    150    165     1
    150    167     1
    150    168     1
    150    161     1
    150    162     1
    151    155     1
    151    156     1
    151    158     1
    151    159     1
    151    176     1
    151    177     1
    152    154     1
    152    157     1
    152    179     1
    152    175     1
    152    164     1
    152    165     1
    153    154     1
    153    157     1
    153    179     1
    153    175     1
    153    164     1
    153    165     1
    154    158     1
    154    159     1
    154    173     1
    154    174     1
    155    157     1
    155    179     1
    155    172     1
    155    167     1
    155    168     1
    156    157     1
    156    179     1
    156    172     1
    156    167     1
    156    168     1
    157    170     1
    157    171     1
    158    179     1
    158    169     1
    158    161     1
    158    162     1
    159    179     1
    159    169     1
    159    161     1
    159    162     1
    160    179     1
    161    178     1
    161    170     1
    161    171     1
    162    178     1
    162    170     1
    162    171     1
    163    179     1
    164    418     1
    164    176     1
    164    177     1
    165    418     1
    165    176     1
    165    177     1
    166    179     1
    167    388     1
    167    173     1
    167    174     1
    168    388     1
    168    173     1
    168    174     1
    172    380     1
    172    381     1
    173    379     1
    174    379     1
    175    410     1
    175    411     1
    176    409     1
    177    409     1
    180    194     1
    180    195     1
    180    197     1
    180    198     1
    180    191     1
    180    192     1
    181    185     1
    181    186     1
    181    188     1
    181    189     1
    181    206     1
    181    207     1
    182    184     1
    182    187     1
    182    209     1
    182    205     1
    182    194     1
    182    195     1
    183    184     1
    183    187     1
    183    209     1
    183    205     1
    183    194     1
    183    195     1
    184    188     1
    184    189     1
    184    203     1
    184    204     1
    185    187     1
    185    209     1
    185    202     1
    185    197     1
    185    198     1
    186    187     1
    186    209     1
    186    202     1
    186    197     1
    186    198     1
    187    200     1
    187    201     1
    188    209     1
    188    199     1
    188    191     1
    188    192     1
    189    209     1
    189    199     1
    189    191     1
    189    192     1
    190    209     1
    191    208     1
    191    200     1
    191    201     1
    192    208     1
    192    200     1
    192    201     1
    193    209     1
    194    478     1
    194    206     1
    194    207     1
    195    478     1
    195    206     1
    195    207     1
    196    209     1
    197    448     1
    197    203     1
    197    204     1
    198    448     1
    198    203     1
    198    204     1
    202    440     1
    202    441     1
    203    439     1
    204    439     1
    205    470     1
    205    471     1
    206    469     1
    207    469     1
    210    224     1
    210    225     1
    210    227     1
    210    228     1
    210    221     1
    210    222     1
    211    215     1
    211    216     1
    211    218     1
    211    219     1
    211    236     1
    211    237     1
    212    214     1
    212    217     1
    212    239     1
    212    235     1
    212    224     1
    212    225     1
    213    214     1
    213    217     1
    213    239     1
    213    235     1
    213    224     1
    213    225     1
    214    218     1
    214    219     1
    214    233     1
    214    234     1
    215    217     1
    215    239     1
    215    232     1
    215    227     1
    215    228     1
    216    217     1
    216    239     1
    216    232     1
    216    227     1
    216    228     1
    217    230     1
    217    231     1
    218    239     1
    218    229     1
    218    221     1
    218    222     1
    219    239     1
    219    229     1
    219    221     1
    219    222     1
    220    239     1
    221    238     1
    221    230     1
    221    231     1
    222    238     1
    222    230     1
    222    231     1
    223    239     1
    224    538     1
    224    236     1
    224    237     1
    225    538     1
    225    236     1
    225    237     1
    226    239     1
    227    508     1
    227    233     1
    227    234     1
    228    508     1
    228    233     1
    228    234     1
    232    500     1
    232    501     1
    233    499     1
    234    499     1
    235    530     1
    235    531     1
    236    529     1
    237    529     1
    240    254     1
    240    255     1
    240    257     1
    240    258     1
    240    251     1
    240    252     1
    241    245     1
    241    246     1
    241    248     1
    241    249     1
    241    266     1
    241    267     1
    242    244     1
    242    247     1
    242    269     1
    242    265     1
    242    254     1
    242    255     1
    243    244     1
    243    247     1
    243    269     1
    243    265     1
    243    254     1
    243    255     1
    244    248     1
    244    249     1
    244    263     1
    244    264     1
    245    247     1
    245    269     1
    245    262     1
    245    257     1
    245    258     1
    246    247     1
    246    269     1
    246    262     1
    246    257     1
    246    258     1
    247    260     1
    247    261     1
    248    269     1
    248    259     1
    248    251     1
    248    252     1
    249    269     1
    249    259     1
    249    251     1
    249    252     1
    250    269     1
    251    268     1
    251    260     1
    251    261     1
    252    268     1
    252    260     1
    252    261     1
    253    269     1
    254    598     1
    254    266     1
    254    267     1
    255    598     1
    255    266     1
    255    267     1
    256    269     1
    257    568     1
    257    263     1
    257    264     1
    258    568     1
    258    263     1
    258    264     1
    262    560     1
    262    561     1
    263    559     1
    264    559     1
    265    590     1
    265    591     1
    266    589     1
    267    589     1
    270    284     1
    270    285     1
    270    287     1
    270    288     1
    270    281     1
    270    282     1
    271    275     1
    271    276     1
    271    278     1
    271    279     1
    271    296     1
    271    297     1
    272    274     1
    272    277     1
    272    299     1
    272    295     1
    272    284     1
    272    285     1
    273    274     1
    273    277     1
    273    299     1
    273    295     1
    273    284     1
    273    285     1
    274    278     1
    274    279     1
    274    293     1
    274    294     1
    275    277     1
    275    299     1
    275    292     1
    275    287     1
    275    288     1
    276    277     1
    276    299     1
    276    292     1
    276    287     1
    276    288     1
    277    290     1
    277    291     1
    278    299     1
    278    289     1
    278    281     1
    278    282     1
    279    299     1
    279    289     1
    279    281     1
    279    282     1
    280    299     1
    281    298     1
    281    290     1
    281    291     1
    282    298     1
    282    290     1
    282    291     1
    283    299     1
    284    658     1
    284    296     1
    284    297     1
    285    658     1
    285    296     1
    285    297     1
    286    299     1
    287    628     1
    287    293     1
    287    294     1
    288    628     1
    288    293     1
    288    294     1
    292    620     1
    292    621     1
    293    619     1
    294    619     1
    295    650     1
    295    651     1
    296    649     1
    297    649     1
    300    314     1
    300    315     1
    300    317     1
    300    318     1
    300    311     1
    300    312     1
    301    305     1
    301    306     1
    301    308     1
    301    309     1
    301    326     1
    301    327     1
    302    304     1
    302    307     1
    302    329     1
    302    325     1
    302    314     1
    302    315     1
    303    304     1
    303    307     1
    303    329     1
    303    325     1
    303    314     1
    303    315     1
    304    308     1
    304    309     1
    304    323     1
    304    324     1
    305    307     1
    305    329     1
    305    322     1
    305    317     1
    305    318     1
    306    307     1
    306    329     1
    306    322     1
    306    317     1
    306    318     1
    307    320     1
    307    321     1
    308    329     1
    308    319     1
    308    311     1
    308    312     1
    309    329     1
    309    319     1
    309    311     1
    309    312     1
    310    329     1
    311    328     1
    311    320     1
    311    321     1
    312    328     1
    312    320     1
    312    321     1
    313    329     1
    314    718     1
    314    326     1
    314    327     1
    315    718     1
    315    326     1
    315    327     1
    316    329     1
    317    688     1
    317    323     1
    317    324     1
    318    688     1
    318    323     1
    318    324     1
    322    680     1
    322    681     1
    323    679     1
    324    679     1
    325    710     1
    325    711     1
    326    709     1
    327    709     1
    330    344     1
    330    345     1
    330    347     1
    330    348     1
    330    341     1
    330    342     1
    331    335     1
    331    336     1
    331    338     1
    331    339     1
    331    356     1
    331    357     1
    332    334     1
    332    337     1
    332    359     1
    332    355     1
    332    344     1
    332    345     1
    333    334     1
    333    337     1
    333    359     1
    333    355     1
    333    344     1
    333    345     1
    334    338     1
    334    339     1
    334    353     1
    334    354     1
    335    337     1
    335    359     1
    335    352     1
    335    347     1
    335    348     1
    336    337     1
    336    359     1
    336    352     1
    336    347     1
    336    348     1
    337    350     1
    337    351     1
    338    359     1
    338    349     1
    338    341     1
    338    342     1
    339    359     1
    339    349     1
    339    341     1
    339    342     1
    340    359     1
    341    358     1
    341    350     1
    341    351     1
    342    358     1
    342    350     1
    342    351     1
    343    359     1
    344    778     1
    344    356     1
    344    357     1
    345    778     1
    345    356     1
    345    357     1
    346    359     1
    347    748     1
    347    353     1
    347    354     1
    348    748     1
    348    353     1
    348    354     1
    352    740     1
    352    741     1
    353    739     1
    354    739     1
    355    770     1
    355    771     1
    356    769     1
    357    769     1
    360    374     1
    360    375     1
    360    377     1
    360    378     1
    360    371     1
    360    372     1
    361    365     1
    361    366     1
    361    368     1
    361    369     1
    361    386     1
    361    387     1
    362    364     1
    362    367     1
    362    389     1
    362    385     1
    362    374     1
    362    375     1
    363    364     1
    363    367     1
    363    389     1
    363    385     1
    363    374     1
    363    375     1
    364    368     1
    364    369     1
    364    383     1
    364    384     1
    365    367     1
    365    389     1
    365    382     1
    365    377     1
    365    378     1
    366    367     1
    366    389     1
    366    382     1
    366    377     1
    366    378     1
    367    380     1
    367    381     1
    368    389     1
    368    379     1
    368    371     1
    368    372     1
    369    389     1
    369    379     1
    369    371     1
    369    372     1
    370    389     1
    371    388     1
    371    380     1
    371    381     1
    372    388     1
    372    380     1
    372    381     1
    373    389     1
    374    838     1
    374    386     1
    374    387     1
    375    838     1
    375    386     1
    375    387     1
    376    389     1
    377    808     1
    377    383     1
    377    384     1
    378    808     1
    378    383     1
    378    384     1
    382    800     1
    382    801     1
    383    799     1
    384    799     1
    385    830     1
    385    831     1
    386    829     1
    387    829     1
    390    404     1
    390    405     1
    390    407     1
    390    408     1
    390    401     1
    390    402     1
    391    395     1
    391    396     1
    391    398     1
    391    399     1
    391    416     1
    391    417     1
    392    394     1
    392    397     1
    392    419     1
    392    415     1
    392    404     1
    392    405     1
    393    394     1
    393    397     1
    393    419     1
    393    415     1
    393    404     1
    393    405     1
    394    398     1
    394    399     1
    394    413     1
    394    414     1
    395    397     1
    395    419     1
    395    412     1
    395    407     1
    395    408     1
    396    397     1
    396    419     1
    396    412     1
    396    407     1
    396    408     1
    397    410     1
    397    411     1
    398    419     1
    398    409     1
    398    401     1
    398    402     1
    399    419     1
    399    409     1
    399    401     1
    399    402     1
    400    419     1
    401    418     1
    401    410     1
    401    411     1
    402    418     1
    402    410     1
    402    411     1
    403    419     1
    404    898     1
    404    416     1
    404    417     1
    405    898     1
    405    416     1
    405    417     1
    406    419     1
    407    868     1
    407    413     1
    407    414     1
    408    868     1
    408    413     1
    408    414     1
    412    860     1
    412    861     1
    413    859     1
    414    859     1
    415    890     1
    415    891     1
    416    889     1
    417    889     1
    420    434     1
    420    435     1
    420    437     1
    420    438     1
    420    431     1
    420    432     1
    421    425     1
    421    426     1
    421    428     1
    421    429     1
    421    446     1
    421    447     1
    422    424     1
    422    427     1
    422    449     1
    422    445     1
    422    434     1
    422    435     1
    423    424     1
    423    427     1
    423    449     1
    423    445     1
    423    434     1
    423    435     1
    424    428     1
    424    429     1
    424    443     1
    424    444     1
    425    427     1
    425    449     1
    425    442     1
    425    437     1
    425    438     1
    426    427     1
    426    449     1
    426    442     1
    426    437     1
    426    438     1
    427    440     1
    427    441     1
    428    449     1
    428    439     1
    428    431     1
    428    432     1
    429    449     1
    429    439     1
    429    431     1
    429    432     1
    430    449     1
    431    448     1
    431    440     1
    431    441     1
    432    448     1
    432    440     1
    432    441     1
    433    449     1
    434    962     1
    434    446     1
    434    447     1
    435    962     1
    435    446     1
    435    447     1
    436    449     1
    437    930     1
    437    443     1
    437    444     1
    438    930     1
    438    443     1
    438    444     1
    442    901     1
    442    902     1
    443    900     1
    444    900     1
    445    933     1
    445    934     1
    446    932     1
    447    932     1
    450    464     1
    450    465     1
    450    467     1
    450    468     1
    450    461     1
    450    462     1
    451    455     1
    451    456     1
    451    458     1
    451    459     1
    451    476     1
    451    477     1
    452    454     1
    452    457     1
    452    479     1
    452    475     1
    452    464     1
    452    465     1
    453    454     1
    453    457     1
    453    479     1
    453    475     1
    453    464     1
    453    465     1
    454    458     1
    454    459     1
    454    473     1
    454    474     1
    455    457     1
    455    479     1
    455    472     1
    455    467     1
    455    468     1
    456    457     1
    456    479     1
    456    472     1
    456    467     1
    456    468     1
    457    470     1
    457    471     1
    458    479     1
    458    469     1
    458    461     1
    458    462     1
    459    479     1
    459    469     1
    459    461     1
    459    462     1
    460    479     1
    461    478     1
    461    470     1
    461    471     1
    462    478     1
    462    470     1
    462    471     1
    463    479     1
    464   1026     1
    464    476     1
    464    477     1
    465   1026     1
    465    476     1
    465    477     1
    466    479     1
    467    994     1
    467    473     1
    467    474     1
    468    994     1
    468    473     1
    468    474     1
    472    965     1
    472    966     1
    473    964     1
    474    964     1
    475    997     1
    475    998     1
    476    996     1
    477    996     1
    480    494     1
    480    495     1
    480    497     1
    480    498     1
    480    491     1
    480    492     1
    481    485     1
    481    486     1
    481    488     1
    481    489     1
    481    506     1
    481    507     1
    482    484     1
    482    487     1
    482    509     1
    482    505     1
    482    494     1
    482    495     1
    483    484     1
    483    487     1
    483    509     1
    483    505     1
    483    494     1
    483    495     1
    484    488     1
    484    489     1
    484    503     1
    484    504     1
    485    487     1
    485    509     1
    485    502     1
    485    497     1
    485    498     1
    486    487     1
    486    509     1
    486    502     1
    486    497     1
    486    498     1
    487    500     1
    487    501     1
    488    509     1
    488    499     1
    488    491     1
    488    492     1
    489    509     1
    489    499     1
    489    491     1
    489    492     1
    490    509     1
    491    508     1
    491    500     1
    491    501     1
    492    508     1
    492    500     1
    492    501     1
    493    509     1
    494   1090     1
    494    506     1
    494    507     1
    495   1090     1
    495    506     1
    495    507     1
    496    509     1
    497   1058     1
    497    503     1
    497    504     1
    498   1058     1
    498    503     1
    498    504     1
    502   1029     1
    502   1030     1
    503   1028     1
    504   1028     1
    505   1061     1
    505   1062     1
    506   1060     1
    507   1060     1
    510    524     1
    510    525     1
    510    527     1
    510    528     1
    510    521     1
    510    522     1
    511    515     1
    511    516     1
    511    518     1
    511    519     1
    511    536     1
    511    537     1
    512    514     1
    512    517     1
    512    539     1
    512    535     1
    512    524     1
    512    525     1
    513    514     1
    513    517     1
    513    539     1
    513    535     1
    513    524     1
    513    525     1
    514    518     1
    514    519     1
    514    533     1
    514    534     1
    515    517     1
    515    539     1
    515    532     1
    515    527     1
    515    528     1
    516    517     1
    516    539     1
    516    532     1
    516    527     1
    516    528     1
    517    530     1
    517    531     1
    518    539     1
    518    529     1
    518    521     1
    518    522     1
    519    539     1
    519    529     1
    519    521     1
    519    522     1
    520    539     1
    521    538     1
    521    530     1
    521    531     1
    522    538     1
    522    530     1
    522    531     1
    523    539     1
    524   1154     1
    524    536     1
    524    537     1
    525   1154     1
    525    536     1
    525    537     1
    526    539     1
    527   1122     1
    527    533     1
    527    534     1
    528   1122     1
    528    533     1
    528    534     1
    532   1093     1
    532   1094     1
    533   1092     1
    534   1092     1
    535   1125     1
    535   1126     1
    536   1124     1
    537   1124     1
    540    554     1
    540    555     1
    540    557     1
    540    558     1
    540    551     1
    540    552     1
    541    545     1
    541    546     1
    541    548     1
    541    549     1
    541    566     1
    541    567     1
    542    544     1
    542    547     1
    542    569     1
    542    565     1
    542    554     1
    542    555     1
    543    544     1
    543    547     1
    543    569     1
    543    565     1
    543    554     1
    543    555     1
    544    548     1
    544    549     1
    544    563     1
    544    564     1
    545    547     1
    545    569     1
    545    562     1
    545    557     1
    545    558     1
    546    547     1
    546    569     1
    546    562     1
    546    557     1
    546    558     1
    547    560     1
    547    561     1
    548    569     1
    548    559     1
    548    551     1
    548    552     1
    549    569     1
    549    559     1
    549    551     1
    549    552     1
    550    569     1
    551    568     1
    551    560     1
    551    561     1
    552    568     1
    552    560     1
    552    561     1
    553    569     1
    554   1218     1
    554    566     1
    554    567     1
    555   1218     1
    555    566     1
    555    567     1
    556    569     1
    557   1186     1
    557    563     1
    557    564     1
    558   1186     1
    558    563     1
    558    564     1
    562   1157     1
    562   1158     1
    563   1156     1
    564   1156     1
    565   1189     1
    565   1190     1
    566   1188     1
    567   1188     1
    570    584     1
    570    585     1
    570    587     1
    570    588     1
    570    581     1
    570    582     1
    571    575     1
    571    576     1
    571    578     1
    571    579     1
    571    596     1
    571    597     1
    572    574     1
    572    577     1
    572    599     1
    572    595     1
    572    584     1
    572    585     1
    573    574     1
    573    577     1
    573    599     1
    573    595     1
    573    584     1
    573    585     1
    574    578     1
    574    579     1
    574    593     1
    574    594     1
    575    577     1
    575    599     1
    575    592     1
    575    587     1
    575    588     1
    576    577     1
    576    599     1
    576    592     1
    576    587     1
    576    588     1
    577    590     1
    577    591     1
    578    599     1
    578    589     1
    578    581     1
    578    582     1
    579    599     1
    579    589     1
    579    581     1
    579    582     1
    580    599     1
    581    598     1
    581    590     1
    581    591     1
    582    598     1
    582    590     1
    582    591     1
    583    599     1
    584   1282     1
    584    596     1
    584    597     1
    585   1282     1
    585    596     1
    585    597     1
    586    599     1
    587   1250     1
    587    593     1
    587    594     1
    588   1250     1
    588    593     1
    588    594     1
    592   1221     1
    592   1222     1
    593   1220     1
    594   1220     1
    595   1253     1
    595   1254     1
    596   1252     1
    597   1252     1
    600    614     1
    600    615     1
    600    617     1
    600    618     1
    600    611     1
    600    612     1
    601    605     1
    601    606     1
    601    608     1
    601    609     1
    601    626     1
    601    627     1
    602    604     1
    602    607     1
    602    629     1
    602    625     1
    602    614     1
    602    615     1
    603    604     1
    603    607     1
    603    629     1
    603    625     1
    603    614     1
    603    615     1
    604    608     1
    604    609     1
    604    623     1
    604    624     1
    605    607     1
    605    629     1
    605    622     1
    605    617     1
    605    618     1
    606    607     1
    606    629     1
    606    622     1
    606    617     1
    606    618     1
    607    620     1
    607    621     1
    608    629     1
    608    619     1
    608    611     1
    608    612     1
    609    629     1
    609    619     1
    609    611     1
    609    612     1
    610    629     1
    611    628     1
    611    620     1
    611    621     1
    612    628     1
    612    620     1
    612    621     1
    613    629     1
    614   1346     1
    614    626     1
    614    627     1
    615   1346     1
    615    626     1
    615    627     1
    616    629     1
    617   1314     1
    617    623     1
    617    624     1
    618   1314     1
    618    623     1
    618    624     1
    622   1285     1
    622   1286     1
    623   1284     1
    624   1284     1
    625   1317     1
    625   1318     1
    626   1316     1
    627   1316     1
    630    644     1
    630    645     1
    630    647     1
    630    648     1
    630    641     1
    630    642     1
    631    635     1
    631    636     1
    631    638     1
    631    639     1
    631    656     1
    631    657     1
    632    634     1
    632    637     1
    632    659     1
    632    655     1
    632    644     1
    632    645     1
    633    634     1
    633    637     1
    633    659     1
    633    655     1
    633    644     1
    633    645     1
    634    638     1
    634    639     1
    634    653     1
    634    654     1
    635    637     1
    635    659     1
    635    652     1
    635    647     1
    635    648     1
    636    637     1
    636    659     1
    636    652     1
    636    647     1
    636    648     1
    637    650     1
    637    651     1
    638    659     1
    638    649     1
    638    641     1
    638    642     1
    639    659     1
    639    649     1
    639    641     1
    639    642     1
    640    659     1
    641    658     1
    641    650     1
    641    651     1
    642    658     1
    642    650     1
    642    651     1
    643    659     1
    644   1410     1
    644    656     1
    644    657     1
    645   1410     1
    645    656     1
    645    657     1
    646    659     1
    647   1378     1
    647    653     1
    647    654     1
    648   1378     1
    648    653     1
    648    654     1
    652   1349     1
    652   1350     1
    653   1348     1
    654   1348     1
    655   1381     1
    655   1382     1
    656   1380     1
    657   1380     1
    660    674     1
    660    675     1
    660    677     1
    660    678     1
    660    671     1
    660    672     1
    661    665     1
    661    666     1
    661    668     1
    661    669     1
    661    686     1
    661    687     1
    662    664     1
    662    667     1
    662    689     1
    662    685     1
    662    674     1
    662    675     1
    663    664     1
    663    667     1
    663    689     1
    663    685     1
    663    674     1
    663    675     1
    664    668     1
    664    669     1
    664    683     1
    664    684     1
    665    667     1
    665    689     1
    665    682     1
    665    677     1
    665    678     1
    666    667     1
    666    689     1
    666    682     1
    666    677     1
    666    678     1
    667    680     1
    667    681     1
    668    689     1
    668    679     1
    668    671     1
    668    672     1
    669    689     1
    669    679     1
    669    671     1
    669    672     1
    670    689     1
    671    688     1
    671    680     1
    671    681     1
    672    688     1
    672    680     1
    672    681     1
    673    689     1
    674   1474     1
    674    686     1
    674    687     1
    675   1474     1
    675    686     1
    675    687     1
    676    689     1
    677   1442     1
    677    683     1
    677    684     1
    678   1442     1
    678    683     1
    678    684     1
    682   1413     1
    682   1414     1
    683   1412     1
    684   1412     1
    685   1445     1
    685   1446     1
    686   1444     1
    687   1444     1
    690    704     1
    690    705     1
    690    707     1
    690    708     1
    690    701     1
    690    702     1
    691    695     1
    691    696     1
    691    698     1
    691    699     1
    691    716     1
    691    717     1
    692    694     1
    692    697     1
    692    719     1
    692    715     1
    692    704     1
    692    705     1
    693    694     1
    693    697     1
    693    719     1
    693    715     1
    693    704     1
    693    705     1
    694    698     1
    694    699     1
    694    713     1
    694    714     1
    695    697     1
    695    719     1
    695    712     1
    695    707     1
    695    708     1
    696    697     1
    696    719     1
    696    712     1
    696    707     1
    696    708     1
    697    710     1
    697    711     1
    698    719     1
    698    709     1
    698    701     1
    698    702     1
    699    719     1
    699    709     1
    699    701     1
    699    702     1
    700    719     1
    701    718     1
    701    710     1
    701    711     1
    702    718     1
    702    710     1
    702    711     1
    703    719     1
    704   1538     1
    704    716     1
    704    717     1
    705   1538     1
    705    716     1
    705    717     1
    706    719     1
    707   1506     1
    707    713     1
    707    714     1
    708   1506     1
    708    713     1
    708    714     1
    712   1477     1
    712   1478     1
    713   1476     1
    714   1476     1
    715   1509     1
    715   1510     1
    716   1508     1
    717   1508     1
    720    734     1
    720    735     1
    720    737     1
    720    738     1
    720    731     1
    720    732     1
    721    725     1
    721    726     1
    721    728     1
    721    729     1
    721    746     1
    721    747     1
    722    724     1
    722    727     1
    722    749     1
    722    745     1
    722    734     1
    722    735     1
    723    724     1
    723    727     1
    723    749     1
    723    745     1
    723    734     1
    723    735     1
    724    728     1
    724    729     1
    724    743     1
    724    744     1
    725    727     1
    725    749     1
    725    742     1
    725    737     1
    725    738     1
    726    727     1
    726    749     1
    726    742     1
    726    737     1
    726    738     1
    727    740     1
    727    741     1
    728    749     1
    728    739     1
    728    731     1
    728    732     1
    729    749     1
    729    739     1
    729    731     1
    729    732     1
    730    749     1
    731    748     1
    731    740     1
    731    741     1
    732    748     1
    732    740     1
    732    741     1
    733    749     1
    734   1602     1
    734    746     1
    734    747     1
    735   1602     1
    735    746     1
    735    747     1
    736    749     1
    737   1570     1
    737    743     1
    737    744     1
    738   1570     1
    738    743     1
    738    744     1
    742   1541     1
    742   1542     1
    743   1540     1
    744   1540     1
    745   1573     1
    745   1574     1
    746   1572     1
    747   1572     1
    750    764     1
    750    765     1
    750    767     1
    750    768     1
    750    761     1
    750    762     1
    751    755     1
    751    756     1
    751    758     1
    751    759     1
    751    776     1
    751    777     1
    752    754     1
    752    757     1
    752    779     1
    752    775     1
    752    764     1
    752    765     1
    753    754     1
    753    757     1
    753    779     1
    753    775     1
    753    764     1
    753    765     1
    754    758     1
    754    759     1
    754    773     1
    754    774     1
    755    757     1
    755    779     1
    755    772     1
    755    767     1
    755    768     1
    756    757     1
    756    779     1
    756    772     1
    756    767     1
    756    768     1
    757    770     1
    757    771     1
    758    779     1
    758    769     1
    758    761     1
    758    762     1
    759    779     1
    759    769     1
    759    761     1
    759    762     1
    760    779     1
    761    778     1
    761    770     1
    761    771     1
    762    778     1
    762    770     1
    762    771     1
    763    779     1
    764   1666     1
    764    776     1
    764    777     1
    765   1666     1
    765    776     1
    765    777     1
    766    779     1
    767   1634     1
    767    773     1
    767    774     1
    768   1634     1
    768    773     1
    768    774     1
    772   1605     1
    772   1606     1
    773   1604     1
    774   1604     1
    775   1637     1
    775   1638     1
    776   1636     1
    777   1636     1
    780    794     1
    780    795     1
    780    797     1
    780    798     1
    780    791     1
    780    792     1
    781    785     1
    781    786     1
    781    788     1
    781    789     1
    781    806     1
    781    807     1
    782    784     1
    782    787     1
    782    809     1
    782    805     1
    782    794     1
    782    795     1
    783    784     1
    783    787     1
    783    809     1
    783    805     1
    783    794     1
    783    795     1
    784    788     1
    784    789     1
    784    803     1
    784    804     1
    785    787     1
    785    809     1
    785    802     1
    785    797     1
    785    798     1
    786    787     1
    786    809     1
    786    802     1
    786    797     1
    786    798     1
    787    800     1
    787    801     1
    788    809     1
    788    799     1
    788    791     1
    788    792     1
    789    809     1
    789    799     1
    789    791     1
    789    792     1
    790    809     1
    791    808     1
    791    800     1
    791    801     1
    792    808     1
    792    800     1
    792    801     1
    793    809     1
    794   1730     1
    794    806     1
    794    807     1
    795   1730     1
    795    806     1
    795    807     1
    796    809     1
    797   1698     1
    797    803     1
    797    804     1
    798   1698     1
    798    803     1
    798    804     1
    802   1669     1
    802   1670     1
    803   1668     1
    804   1668     1
    805   1701     1
    805   1702     1
    806   1700     1
    807   1700     1
    810    824     1
    810    825     1
    810    827     1
    810    828     1
    810    821     1
    810    822     1
    811    815     1
    811    816     1
    811    818     1
    811    819     1
    811    836     1
    811    837     1
    812    814     1
    812    817     1
    812    839     1
    812    835     1
    812    824     1
    812    825     1
    813    814     1
    813    817     1
    813    839     1
    813    835     1
    813    824     1
    813    825     1
    814    818     1
    814    819     1
    814    833     1
    814    834     1
    815    817     1
    815    839     1
    815    832     1
    815    827     1
    815    828     1
    816    817     1
    816    839     1
    816    832     1
    816    827     1
    816    828     1
    817    830     1
    817    831     1
    818    839     1
    818    829     1
    818    821     1
    818    822     1
    819    839     1
    819    829     1
    819    821     1
    819    822     1
    820    839     1
    821    838     1
    821    830     1
    821    831     1
    822    838     1
    822    830     1
    822    831     1
    823    839     1
    824   1794     1
    824    836     1
    824    837     1
    825   1794     1
    825    836     1
    825    837     1
    826    839     1
    827   1762     1
    827    833     1
    827    834     1
    828   1762     1
    828    833     1
    828    834     1
    832   1733     1
    832   1734     1
    833   1732     1
    834   1732     1
    835   1765     1
    835   1766     1
    836   1764     1
    837   1764     1
    840    854     1
    840    855     1
    840    857     1
    840    858     1
    840    851     1
    840    852     1
    841    845     1
    841    846     1
    841    848     1
    841    849     1
    841    866     1
    841    867     1
    842    844     1
    842    847     1
    842    869     1
    842    865     1
    842    854     1
    842    855     1
    843    844     1
    843    847     1
    843    869     1
    843    865     1
    843    854     1
    843    855     1
    844    848     1
    844    849     1
    844    863     1
    844    864     1
    845    847     1
    845    869     1
    845    862     1
    845    857     1
    845    858     1
    846    847     1
    846    869     1
    846    862     1
    846    857     1
    846    858     1
    847    860     1
    847    861     1
    848    869     1
    848    859     1
    848    851     1
    848    852     1
    849    869     1
    849    859     1
    849    851     1
    849    852     1
    850    869     1
    851    868     1
    851    860     1
    851    861     1
    852    868     1
    852    860     1
    852    861     1
    853    869     1
    854   1858     1
    854    866     1
    854    867     1
    855   1858     1
    855    866     1
    855    867     1
    856    869     1
    857   1826     1
    857    863     1
    857    864     1
    858   1826     1
    858    863     1
    858    864     1
    862   1797     1
    862   1798     1
    863   1796     1
    864   1796     1
    865   1829     1
    865   1830     1
    866   1828     1
    867   1828     1
    870    884     1
    870    885     1
    870    887     1
    870    888     1
    870    881     1
    870    882     1
    871    875     1
    871    876     1
    871    878     1
    871    879     1
    871    896     1
    871    897     1
    872    874     1
    872    877     1
    872    899     1
    872    895     1
    872    884     1
    872    885     1
    873    874     1
    873    877     1
    873    899     1
    873    895     1
    873    884     1
    873    885     1
    874    878     1
    874    879     1
    874    893     1
    874    894     1
    875    877     1
    875    899     1
    875    892     1
    875    887     1
    875    888     1
    876    877     1
    876    899     1
    876    892     1
    876    887     1
    876    888     1
    877    890     1
    877    891     1
    878    899     1
    878    889     1
    878    881     1
    878    882     1
    879    899     1
    879    889     1
    879    881     1
    879    882     1
    880    899     1
    881    898     1
    881    890     1
    881    891     1
    882    898     1
    882    890     1
    882    891     1
    883    899     1
    884   1922     1
    884    896     1
    884    897     1
    885   1922     1
    885    896     1
    885    897     1
    886    899     1
    887   1890     1
    887    893     1
    887    894     1
    888   1890     1
    888    893     1
    888    894     1
    892   1861     1
    892   1862     1
    893   1860     1
    894   1860     1
    895   1893     1
    895   1894     1
    896   1892     1
    897   1892     1
    900    907     1
    900    908     1
    901    906     1
    901    904     1
    901    905     1
    902    906     1
    902    904     1
    902    905     1
    903    931     1
    904    930     1
    904    909     1
    904    907     1
    904    908     1
    905    930     1
    905    909     1
    905    907     1
    905    908     1
    906    911     1
    906    912     1
    906    921     1
    906    922     1
    907    910     1
    907    920     1
    907    931     1
    908    910     1
    908    920     1
    908    931     1
    909    914     1
    909    915     1
    909    924     1
    909    925     1
    910    921     1
    910    922     1
    911    920     1
    911    931     1
    911    916     1
    911    914     1
    911    915     1
    912    920     1
    912    931     1
    912    916     1
    912    914     1
    912    915     1
    913    931     1
    913    919     1
    914    917     1
    914    918     1
    915    917     1
    915    918     1
    917    919     1
    921    931     1
    921    926     1
    921    924     1
    921    925     1
    922    931     1
    922    926     1
    922    924     1
    922    925     1
    923    931     1
    923    929     1
    924    927     1
    924    928     1
    925    927     1
    925    928     1
    927    929     1
    932    939     1
    932    940     1
    933    938     1
    933    936     1
    933    937     1
    934    938     1
    934    936     1
    934    937     1
    935    963     1
    936    941     1
    936    939     1
    936    940     1
    936    962     1
    937    941     1
    937    939     1
    937    940     1
    937    962     1
    938    943     1
    938    944     1
    938    953     1
    938    954     1
    939    942     1
    939    952     1
    939    963     1
    940    942     1
    940    952     1
    940    963     1
    941    946     1
    941    947     1
    941    956     1
    941    957     1
    942    953     1
    942    954     1
    943    948     1
    943    946     1
    943    947     1
    943    952     1
    943    963     1
    944    948     1
    944    946     1
    944    947     1
    944    952     1
    944    963     1
    945    951     1
    945    963     1
    946    949     1
    946    950     1
    947    949     1
    947    950     1
    949    951     1
    953    958     1
    953    956     1
    953    957     1
    953    963     1
    954    958     1
    954    956     1
    954    957     1
    954    963     1
    955    961     1
    955    963     1
    956    959     1
    956    960     1
    957    959     1
    957    960     1
    959    961     1
    964    971     1
    964    972     1
    965    970     1
    965    968     1
    965    969     1
    966    970     1
    966    968     1
    966    969     1
    967    995     1
    968    994     1
    968    973     1
    968    971     1
    968    972     1
    969    994     1
    969    973     1
    969    971     1
    969    972     1
    970    975     1
    970    976     1
    970    985     1
    970    986     1
    971    974     1
    971    984     1
    971    995     1
    972    974     1
    972    984     1
    972    995     1
    973    978     1
    973    979     1
    973    988     1
    973    989     1
    974    985     1
    974    986     1
    975    984     1
    975    995     1
    975    980     1
    975    978     1
    975    979     1
    976    984     1
    976    995     1
    976    980     1
    976    978     1
    976    979     1
    977    995     1
    977    983     1
    978    981     1
    978    982     1
    979    981     1
    979    982     1
    981    983     1
    985    995     1
    985    990     1
    985    988     1
    985    989     1
    986    995     1
    986    990     1
    986    988     1
    986    989     1
    987    995     1
    987    993     1
    988    991     1
    988    992     1
    989    991     1
    989    992     1
    991    993     1
    996   1003     1
    996   1004     1
    997   1002     1
    997   1000     1
    997   1001     1
    998   1002     1
    998   1000     1
    998   1001     1
    999   1027     1
   1000   1005     1
   1000   1003     1
   1000   1004     1
   1000   1026     1
   1001   1005     1
   1001   1003     1
   1001   1004     1
   1001   1026     1
   1002   1007     1
   1002   1008     1
   1002   1017     1
   1002   1018     1
   1003   1006     1
   1003   1016     1
   1003   1027     1
   1004   1006     1
   1004   1016     1
   1004   1027     1
   1005   1010     1
   1005   1011     1
   1005   1020     1
   1005   1021     1
   1006   1017     1
   1006   1018     1
   1007   1012     1
   1007   1010     1
   1007   1011     1
   1007   1016     1
   1007   1027     1
   1008   1012     1
   1008   1010     1
   1008   1011     1
   1008   1016     1
   1008   1027     1
   1009   1015     1
   1009   1027     1
   1010   1013     1
   1010   1014     1
   1011   1013     1
   1011   1014     1
   1013   1015     1
   1017   1022     1
   1017   1020     1
   1017   1021     1
   1017   1027     1
   1018   1022     1
   1018   1020     1
   1018   1021     1
   1018   1027     1
   1019   1025     1
   1019   1027     1
   1020   1023     1
   1020   1024     1
   1021   1023     1
   1021   1024     1
   1023   1025     1
   1028   1035     1
   1028   1036     1
   1029   1034     1
   1029   1032     1
   1029   1033     1
   1030   1034     1
   1030   1032     1
   1030   1033     1
   1031   1059     1
   1032   1058     1
   1032   1037     1
   1032   1035     1
   1032   1036     1
   1033   1058     1
   1033   1037     1
   1033   1035     1
   1033   1036     1
   1034   1039     1
   1034   1040     1
   1034   1049     1
   1034   1050     1
   1035   1038     1
   1035   1048     1
   1035   1059     1
   1036   1038     1
   1036   1048     1
   1036   1059     1
   1037   1042     1
   1037   1043     1
   1037   1052     1
   1037   1053     1
   1038   1049     1
   1038   1050     1
   1039   1048     1
   1039   1059     1
   1039   1044     1
   1039   1042     1
   1039   1043     1
   1040   1048     1
   1040   1059     1
   1040   1044     1
   1040   1042     1
   1040   1043     1
   1041   1059     1
   1041   1047     1
   1042   1045     1
   1042   1046     1
   1043   1045     1
   1043   1046     1
   1045   1047     1
   1049   1059     1
   1049   1054     1
   1049   1052     1
   1049   1053     1
   1050   1059     1
   1050   1054     1
   1050   1052     1
   1050   1053     1
   1051   1059     1
   1051   1057     1
   1052   1055     1
   1052   1056     1
   1053   1055     1
   1053   1056     1
   1055   1057     1
   1060   1067     1
   1060   1068     1
   1061   1066     1
   1061   1064     1
   1061   1065     1
   1062   1066     1
   1062   1064     1
   1062   1065     1
   1063   1091     1
   1064   1069     1
   1064   1067     1
   1064   1068     1
   1064   1090     1
   1065   1069     1
   1065   1067     1
   1065   1068     1
   1065   1090     1
   1066   1071     1
   1066   1072     1
   1066   1081     1
   1066   1082     1
   1067   1070     1
   1067   1080     1
   1067   1091     1
   1068   1070     1
   1068   1080     1
   1068   1091     1
   1069   1074     1
   1069   1075     1
   1069   1084     1
   1069   1085     1
   1070   1081     1
   1070   1082     1
   1071   1076     1
   1071   1074     1
   1071   1075     1
   1071   1080     1
   1071   1091     1
   1072   1076     1
   1072   1074     1
   1072   1075     1
   1072   1080     1
   1072   1091     1
   1073   1079     1
   1073   1091     1
   1074   1077     1
   1074   1078     1
   1075   1077     1
   1075   1078     1
   1077   1079     1
   1081   1086     1
   1081   1084     1
   1081   1085     1
   1081   1091     1
   1082   1086     1
   1082   1084     1
   1082   1085     1
   1082   1091     1
   1083   1089     1
   1083   1091     1
   1084   1087     1
   1084   1088     1
   1085   1087     1
   1085   1088     1
   1087   1089     1
   1092   1099     1
   1092   1100     1
   1093   1098     1
   1093   1096     1
   1093   1097     1
   1094   1098     1
   1094   1096     1
   1094   1097     1
   1095   1123     1
   1096   1122     1
   1096   1101     1
   1096   1099     1
   1096   1100     1
   1097   1122     1
   1097   1101     1
   1097   1099     1
   1097   1100     1
   1098   1103     1
   1098   1104     1
   1098   1113     1
   1098   1114     1
   1099   1102     1
   1099   1112     1
   1099   1123     1
   1100   1102     1
   1100   1112     1
   1100   1123     1
   1101   1106     1
   1101   1107     1
   1101   1116     1
   1101   1117     1
   1102   1113     1
   1102   1114     1
   1103   1112     1
   1103   1123     1
   1103   1108     1
   1103   1106     1
   1103   1107     1
   1104   1112     1
   1104   1123     1
   1104   1108     1
   1104   1106     1
   1104   1107     1
   1105   1123     1
   1105   1111     1
   1106   1109     1
   1106   1110     1
   1107   1109     1
   1107   1110     1
   1109   1111     1
   1113   1123     1
   1113   1118     1
   1113   1116     1
   1113   1117     1
   1114   1123     1
   1114   1118     1
   1114   1116     1
   1114   1117     1
   1115   1123     1
   1115   1121     1
   1116   1119     1
   1116   1120     1
   1117   1119     1
   1117   1120     1
   1119   1121     1
   1124   1131     1
   1124   1132     1
   1125   1130     1
   1125   1128     1
   1125   1129     1
   1126   1130     1
   1126   1128     1
   1126   1129     1
   1127   1155     1
   1128   1133     1
   1128   1131     1
   1128   1132     1
   1128   1154     1
   1129   1133     1
   1129   1131     1
   1129   1132     1
   1129   1154     1
   1130   1135     1
   1130   1136     1
   1130   1145     1
   1130   1146     1
   1131   1134     1
   1131   1144     1
   1131   1155     1
   1132   1134     1
   1132   1144     1
   1132   1155     1
   1133   1138     1
   1133   1139     1
   1133   1148     1
   1133   1149     1
   1134   1145     1
   1134   1146     1
   1135   1140     1
   1135   1138     1
   1135   1139     1
   1135   1144     1
   1135   1155     1
   1136   1140     1
   1136   1138     1
   1136   1139     1
   1136   1144     1
   1136   1155     1
   1137   1143     1
   1137   1155     1
   1138   1141     1
   1138   1142     1
   1139   1141     1
   1139   1142     1
   1141   1143     1
   1145   1150     1
   1145   1148     1
   1145   1149     1
   1145   1155     1
   1146   1150     1
   1146   1148     1
   1146   1149     1
   1146   1155     1
   1147   1153     1
   1147   1155     1
   1148   1151     1
   1148   1152     1
   1149   1151     1
   1149   1152     1
   1151   1153     1
   1156   1163     1
   1156   1164     1
   1157   1162     1
   1157   1160     1
   1157   1161     1
   1158   1162     1
   1158   1160     1
   1158   1161     1
   1159   1187     1
   1160   1186     1
   1160   1165     1
   1160   1163     1
   1160   1164     1
   1161   1186     1
   1161   1165     1
   1161   1163     1
   1161   1164     1
   1162   1167     1
   1162   1168     1
   1162   1177     1
   1162   1178     1
   1163   1166     1
   1163   1176     1
   1163   1187     1
   1164   1166     1
   1164   1176     1
   1164   1187     1
   1165   1170     1
   1165   1171     1
   1165   1180     1
   1165   1181     1
   1166   1177     1
   1166   1178     1
   1167   1176     1
   1167   1187     1
   1167   1172     1
   1167   1170     1
   1167   1171     1
   1168   1176     1
   1168   1187     1
   1168   1172     1
   1168   1170     1
   1168   1171     1
   1169   1187     1
   1169   1175     1
   1170   1173     1
   1170   1174     1
   1171   1173     1
   1171   1174     1
   1173   1175     1
   1177   1187     1
   1177   1182     1
   1177   1180     1
   1177   1181     1
   1178   1187     1
   1178   1182     1
   1178   1180     1
   1178   1181     1
   1179   1187     1
   1179   1185     1
   1180   1183     1
   1180   1184     1
   1181   1183     1
   1181   1184     1
   1183   1185     1
   1188   1195     1
   1188   1196     1
   1189   1194     1
   1189   1192     1
   1189   1193     1
   1190   1194     1
   1190   1192     1
   1190   1193     1
   1191   1219     1
   1192   1197     1
   1192   1195     1
   1192   1196     1
   1192   1218     1
   1193   1197     1
   1193   1195     1
   1193   1196     1
   1193   1218     1
   1194   1199     1
   1194   1200     1
   1194   1209     1
   1194   1210     1
   1195   1198     1
   1195   1208     1
   1195   1219     1
   1196   1198     1
   1196   1208     1
   1196   1219     1
   1197   1202     1
   1197   1203     1
   1197   1212     1
   1197   1213     1
   1198   1209     1
   1198   1210     1
   1199   1204     1
   1199   1202     1
   1199   1203     1
   1199   1208     1
   1199   1219     1
   1200   1204     1
   1200   1202     1
   1200   1203     1
   1200   1208     1
   1200   1219     1
   1201   1207     1
   1201   1219     1
   1202   1205     1
   1202   1206     1
   1203   1205     1
   1203   1206     1
   1205   1207     1
   1209   1214     1
   1209   1212     1
   1209   1213     1
   1209   1219     1
   1210   1214     1
   1210   1212     1
   1210   1213     1
   1210   1219     1
   1211   1217     1
   1211   1219     1
   1212   1215     1
   1212   1216     1
   1213   1215     1
   1213   1216     1
   1215   1217     1
   1220   1227     1
   1220   1228     1
   1221   1226     1
   1221   1224     1
   1221   1225     1
   1222   1226     1
   1222   1224     1
   1222   1225     1
   1223   1251     1
   1224   1250     1
   1224   1229     1
   1224   1227     1
   1224   1228     1
   1225   1250     1
   1225   1229     1
   1225   1227     1
   1225   1228     1
   1226   1231     1
   1226   1232     1
   1226   1241     1
   1226   1242     1
   1227   1230     1
   1227   1240     1
   1227   1251     1
   1228   1230     1
   1228   1240     1
   1228   1251     1
   1229   1234     1
   1229   1235     1
   1229   1244     1
   1229   1245     1
   1230   1241     1
   1230   1242     1
   1231   1240     1
   1231   1251     1
   1231   1236     1
   1231   1234     1
   1231   1235     1
   1232   1240     1
   1232   1251     1
   1232   1236     1
   1232   1234     1
   1232   1235     1
   1233   1251     1
   1233   1239     1
   1234   1237     1
   1234   1238     1
   1235   1237     1
   1235   1238     1
   1237   1239     1
   1241   1251     1
   1241   1246     1
   1241   1244     1
   1241   1245     1
   1242   1251     1
   1242   1246     1
   1242   1244     1
   1242   1245     1
   1243   1251     1
   1243   1249     1
   1244   1247     1
   1244   1248     1
   1245   1247     1
   1245   1248     1
   1247   1249     1
   1252   1259     1
   1252   1260     1
   1253   1258     1
   1253   1256     1
   1253   1257     1
   1254   1258     1
   1254   1256     1
   1254   1257     1
   1255   1283     1
   1256   1261     1
   1256   1259     1
   1256   1260     1
   1256   1282     1
   1257   1261     1
   1257   1259     1
   1257   1260     1
   1257   1282     1
   1258   1263     1
   1258   1264     1
   1258   1273     1
   1258   1274     1
   1259   1262     1
   1259   1272     1
   1259   1283     1
   1260   1262     1
   1260   1272     1
   1260   1283     1
   1261   1266     1
   1261   1267     1
   1261   1276     1
   1261   1277     1
   1262   1273     1
   1262   1274     1
   1263   1268     1
   1263   1266     1
   1263   1267     1
   1263   1272     1
   1263   1283     1
   1264   1268     1
   1264   1266     1
   1264   1267     1
   1264   1272     1
   1264   1283     1
   1265   1271     1
   1265   1283     1
   1266   1269     1
   1266   1270     1
   1267   1269     1
   1267   1270     1
   1269   1271     1
   1273   1278     1
   1273   1276     1
   1273   1277     1
   1273   1283     1
   1274   1278     1
   1274   1276     1
   1274   1277     1
   1274   1283     1
   1275   1281     1
   1275   1283     1
   1276   1279     1
   1276   1280     1
   1277   1279     1
   1277   1280     1
   1279   1281     1
   1284   1291     1
   1284   1292     1
   1285   1290     1
   1285   1288     1
   1285   1289     1
   1286   1290     1
   1286   1288     1
   1286   1289     1
   1287   1315     1
   1288   1314     1
   1288   1293     1
   1288   1291     1
   1288   1292     1
   1289   1314     1
   1289   1293     1
   1289   1291     1
   1289   1292     1
   1290   1295     1
   1290   1296     1
   1290   1305     1
   1290   1306     1
   1291   1294     1
   1291   1304     1
   1291   1315     1
   1292   1294     1
   1292   1304     1
   1292   1315     1
   1293   1298     1
   1293   1299     1
   1293   1308     1
   1293   1309     1
   1294   1305     1
   1294   1306     1
   1295   1304     1
   1295   1315     1
   1295   1300     1
   1295   1298     1
   1295   1299     1
   1296   1304     1
   1296   1315     1
   1296   1300     1
   1296   1298     1
   1296   1299     1
   1297   1315     1
   1297   1303     1
   1298   1301     1
   1298   1302     1
   1299   1301     1
   1299   1302     1
   1301   1303     1
   1305   1315     1
   1305   1310     1
   1305   1308     1
   1305   1309     1
   1306   1315     1
   1306   1310     1
   1306   1308     1
   1306   1309     1
   1307   1315     1
   1307   1313     1
   1308   1311     1
   1308   1312     1
   1309   1311     1
   1309   1312     1
   1311   1313     1
   1316   1323     1
   1316   1324     1
   1317   1322     1
   1317   1320     1
   1317   1321     1
   1318   1322     1
   1318   1320     1
   1318   1321     1
   1319   1347     1
   1320   1325     1
   1320   1323     1
   1320   1324     1
   1320   1346     1
   1321   1325     1
   1321   1323     1
   1321   1324     1
   1321   1346     1
   1322   1327     1
   1322   1328     1
   1322   1337     1
   1322   1338     1
   1323   1326     1
   1323   1336     1
   1323   1347     1
   1324   1326     1
   1324   1336     1
   1324   1347     1
   1325   1330     1
   1325   1331     1
   1325   1340     1
   1325   1341     1
   1326   1337     1
   1326   1338     1
   1327   1332     1
   1327   1330     1
   1327   1331     1
   1327   1336     1
   1327   1347     1
   1328   1332     1
   1328   1330     1
   1328   1331     1
   1328   1336     1
   1328   1347     1
   1329   1335     1
   1329   1347     1
   1330   1333     1
   1330   1334     1
   1331   1333     1
   1331   1334     1
   1333   1335     1
   1337   1342     1
   1337   1340     1
   1337   1341     1
   1337   1347     1
   1338   1342     1
   1338   1340     1
   1338   1341     1
   1338   1347     1
   1339   1345     1
   1339   1347     1
   1340   1343     1
   1340   1344     1
   1341   1343     1
   1341   1344     1
   1343   1345     1
   1348   1355     1
   1348   1356     1
   1349   1354     1
   1349   1352     1
   1349   1353     1
   1350   1354     1
   1350   1352     1
   1350   1353     1
   1351   1379     1
   1352   1378     1
   1352   1357     1
   1352   1355     1
   1352   1356     1
   1353   1378     1
   1353   1357     1
   1353   1355     1
   1353   1356     1
   1354   1359     1
   1354   1360     1
   1354   1369     1
   1354   1370     1
   1355   1358     1
   1355   1368     1
   1355   1379     1
   1356   1358     1
   1356   1368     1
   1356   1379     1
   1357   1362     1
   1357   1363     1
   1357   1372     1
   1357   1373     1
   1358   1369     1
   1358   1370     1
   1359   1368     1
   1359   1379     1
   1359   1364     1
   1359   1362     1
   1359   1363     1
   1360   1368     1
   1360   1379     1
   1360   1364     1
   1360   1362     1
   1360   1363     1
   1361   1379     1
   1361   1367     1
   1362   1365     1
   1362   1366     1
   1363   1365     1
   1363   1366     1
   1365   1367     1
   1369   1379     1
   1369   1374     1
   1369   1372     1
   1369   1373     1
   1370   1379     1
   1370   1374     1
   1370   1372     1
   1370   1373     1
   1371   1379     1
   1371   1377     1
   1372   1375     1
   1372   1376     1
   1373   1375     1
   1373   1376     1
   1375   1377     1
   1380   1387     1
   1380   1388     1
   1381   1386     1
   1381   1384     1
   1381   1385     1
   1382   1386     1
   1382   1384     1
   1382   1385     1
   1383   1411     1
   1384   1389     1
   1384   1387     1
   1384   1388     1
   1384   1410     1
   1385   1389     1
   1385   1387     1
   1385   1388     1
   1385   1410     1
   1386   1391     1
   1386   1392     1
   1386   1401     1
   1386   1402     1
   1387   1390     1
   1387   1400     1
   1387   1411     1
   1388   1390     1
   1388   1400     1
   1388   1411     1
   1389   1394     1
   1389   1395     1
   1389   1404     1
   1389   1405     1
   1390   1401     1
   1390   1402     1
   1391   1396     1
   1391   1394     1
   1391   1395     1
   1391   1400     1
   1391   1411     1
   1392   1396     1
   1392   1394     1
   1392   1395     1
   1392   1400     1
   1392   1411     1
   1393   1399     1
   1393   1411     1
   1394   1397     1
   1394   1398     1
   1395   1397     1
   1395   1398     1
   1397   1399     1
   1401   1406     1
   1401   1404     1
   1401   1405     1
   1401   1411     1
   1402   1406     1
   1402   1404     1
   1402   1405     1
   1402   1411     1
   1403   1409     1
   1403   1411     1
   1404   1407     1
   1404   1408     1
   1405   1407     1
   1405   1408     1
   1407   1409     1
   1412   1419     1
   1412   1420     1
   1413   1418     1
   1413   1416     1
   1413   1417     1
   1414   1418     1
   1414   1416     1
   1414   1417     1
   1415   1443     1
   1416   1442     1
   1416   1421     1
   1416   1419     1
   1416   1420     1
   1417   1442     1
   1417   1421     1
   1417   1419     1
   1417   1420     1
   1418   1423     1
   1418   1424     1
   1418   1433     1
   1418   1434     1
   1419   1422     1
   1419   1432     1
   1419   1443     1
   1420   1422     1
   1420   1432     1
   1420   1443     1
   1421   1426     1
   1421   1427     1
   1421   1436     1
   1421   1437     1
   1422   1433     1
   1422   1434     1
   1423   1432     1
   1423   1443     1
   1423   1428     1
   1423   1426     1
   1423   1427     1
   1424   1432     1
   1424   1443     1
   1424   1428     1
   1424   1426     1
   1424   1427     1
   1425   1443     1
   1425   1431     1
   1426   1429     1
   1426   1430     1
   1427   1429     1
   1427   1430     1
   1429   1431     1
   1433   1443     1
   1433   1438     1
   1433   1436     1
   1433   1437     1
   1434   1443     1
   1434   1438     1
   1434   1436     1
   1434   1437     1
   1435   1443     1
   1435   1441     1
   1436   1439     1
   1436   1440     1
   1437   1439     1
   1437   1440     1
   1439   1441     1
   1444   1451     1
   1444   1452     1
   1445   1450     1
   1445   1448     1
   1445   1449     1
   1446   1450     1
   1446   1448     1
   1446   1449     1
   1447   1475     1
   1448   1453     1
   1448   1451     1
   1448   1452     1
   1448   1474     1
   1449   1453     1
   1449   1451     1
   1449   1452     1
   1449   1474     1
   1450   1455     1
   1450   1456     1
   1450   1465     1
   1450   1466     1
   1451   1454     1
   1451   1464     1
   1451   1475     1
   1452   1454     1
   1452   1464     1
   1452   1475     1
   1453   1458     1
   1453   1459     1
   1453   1468     1
   1453   1469     1
   1454   1465     1
   1454   1466     1
   1455   1460     1
   1455   1458     1
   1455   1459     1
   1455   1464     1
   1455   1475     1
   1456   1460     1
   1456   1458     1
   1456   1459     1
   1456   1464     1
   1456   1475     1
   1457   1463     1
   1457   1475     1
   1458   1461     1
   1458   1462     1
   1459   1461     1
   1459   1462     1
   1461   1463     1
   1465   1470     1
   1465   1468     1
   1465   1469     1
   1465   1475     1
   1466   1470     1
   1466   1468     1
   1466   1469     1
   1466   1475     1
   1467   1473     1
   1467   1475     1
   1468   1471     1
   1468   1472     1
   1469   1471     1
   1469   1472     1
   1471   1473     1
   1476   1483     1
   1476   1484     1
   1477   1482     1
   1477   1480     1
   1477   1481     1
   1478   1482     1
   1478   1480     1
   1478   1481     1
   1479   1507     1
   1480   1506     1
   1480   1485     1
   1480   1483     1
   1480   1484     1
   1481   1506     1
   1481   1485     1
   1481   1483     1
   1481   1484     1
   1482   1487     1
   1482   1488     1
   1482   1497     1
   1482   1498     1
   1483   1486     1
   1483   1496     1
   1483   1507     1
   1484   1486     1
   1484   1496     1
   1484   1507     1
   1485   1490     1
   1485   1491     1
   1485   1500     1
   1485   1501     1
   1486   1497     1
   1486   1498     1
   1487   1496     1
   1487   1507     1
   1487   1492     1
   1487   1490     1
   1487   1491     1
   1488   1496     1
   1488   1507     1
   1488   1492     1
   1488   1490     1
   1488   1491     1
   1489   1507     1
   1489   1495     1
   1490   1493     1
   1490   1494     1
   1491   1493     1
   1491   1494     1
   1493   1495     1
   1497   1507     1
   1497   1502     1
   1497   1500     1
   1497   1501     1
   1498   1507     1
   1498   1502     1
   1498   1500     1
   1498   1501     1
   1499   1507     1
   1499   1505     1
   1500   1503     1
   1500   1504     1
   1501   1503     1
   1501   1504     1
   1503   1505     1
   1508   1515     1
   1508   1516     1
   1509   1514     1
   1509   1512     1
   1509   1513     1
   1510   1514     1
   1510   1512     1
   1510   1513     1
   1511   1539     1
   1512   1517     1
   1512   1515     1
   1512   1516     1
   1512   1538     1
   1513   1517     1
   1513   1515     1
   1513   1516     1
   1513   1538     1
   1514   1519     1
   1514   1520     1
   1514   1529     1
   1514   1530     1
   1515   1518     1
   1515   1528     1
   1515   1539     1
   1516   1518     1
   1516   1528     1
   1516   1539     1
   1517   1522     1
   1517   1523     1
   1517   1532     1
   1517   1533     1
   1518   1529     1
   1518   1530     1
   1519   1524     1
   1519   1522     1
   1519   1523     1
   1519   1528     1
   1519   1539     1
   1520   1524     1
   1520   1522     1
   1520   1523     1
   1520   1528     1
   1520   1539     1
   1521   1527     1
   1521   1539     1
   1522   1525     1
   1522   1526     1
   1523   1525     1
   1523   1526     1
   1525   1527     1
   1529   1534     1
   1529   1532     1
   1529   1533     1
   1529   1539     1
   1530   1534     1
   1530   1532     1
   1530   1533     1
   1530   1539     1
   1531   1537     1
   1531   1539     1
   1532   1535     1
   1532   1536     1
   1533   1535     1
   1533   1536     1
   1535   1537     1
   1540   1547     1
   1540   1548     1
   1541   1546     1
   1541   1544     1
   1541   1545     1
   1542   1546     1
   1542   1544     1
   1542   1545     1
   1543   1571     1
   1544   1570     1
   1544   1549     1
   1544   1547     1
   1544   1548     1
   1545   1570     1
   1545   1549     1
   1545   1547     1
   1545   1548     1
   1546   1551     1
   1546   1552     1
   1546   1561     1
   1546   1562     1
   1547   1550     1
   1547   1560     1
   1547   1571     1
   1548   1550     1
   1548   1560     1
   1548   1571     1
   1549   1554     1
   1549   1555     1
   1549   1564     1
   1549   1565     1
   1550   1561     1
   1550   1562     1
   1551   1560     1
   1551   1571     1
   1551   1556     1
   1551   1554     1
   1551   1555     1
   1552   1560     1
   1552   1571     1
   1552   1556     1
   1552   1554     1
   1552   1555     1
   1553   1571     1
   1553   1559     1
   1554   1557     1
   1554   1558     1
   1555   1557     1
   1555   1558     1
   1557   1559     1
   1561   1571     1
   1561   1566     1
   1561   1564     1
   1561   1565     1
   1562   1571     1
   1562   1566     1
   1562   1564     1
   1562   1565     1
   1563   1571     1
   1563   1569     1
   1564   1567     1
   1564   1568     1
   1565   1567     1
   1565   1568     1
   1567   1569     1
   1572   1579     1
   1572   1580     1
   1573   1578     1
   1573   1576     1
   1573   1577     1
   1574   1578     1
   1574   1576     1
   1574   1577     1
   1575   1603     1
   1576   1581     1
   1576   1579     1
   1576   1580     1
   1576   1602     1
   1577   1581     1
   1577   1579     1
   1577   1580     1
   1577   1602     1
   1578   1583     1
   1578   1584     1
   1578   1593     1
   1578   1594     1
   1579   1582     1
   1579   1592     1
   1579   1603     1
   1580   1582     1
   1580   1592     1
   1580   1603     1
   1581   1586     1
   1581   1587     1
   1581   1596     1
   1581   1597     1
   1582   1593     1
   1582   1594     1
   1583   1588     1
   1583   1586     1
   1583   1587     1
   1583   1592     1
   1583   1603     1
   1584   1588     1
   1584   1586     1
   1584   1587     1
   1584   1592     1
   1584   1603     1
   1585   1591     1
   1585   1603     1
   1586   1589     1
   1586   1590     1
   1587   1589     1
   1587   1590     1
   1589   1591     1
   1593   1598     1
   1593   1596     1
   1593   1597     1
   1593   1603     1
   1594   1598     1
   1594   1596     1
   1594   1597     1
   1594   1603     1
   1595   1601     1
   1595   1603     1
   1596   1599     1
   1596   1600     1
   1597   1599     1
   1597   1600     1
   1599   1601     1
   1604   1611     1
   1604   1612     1
   1605   1610     1
   1605   1608     1
   1605   1609     1
   1606   1610     1
   1606   1608     1
   1606   1609     1
   1607   1635     1
   1608   1634     1
   1608   1613     1
   1608   1611     1
   1608   1612     1
   1609   1634     1
   1609   1613     1
   1609   1611     1
   1609   1612     1
   1610   1615     1
   1610   1616     1
   1610   1625     1
   1610   1626     1
   1611   1614     1
   1611   1624     1
   1611   1635     1
   1612   1614     1
   1612   1624     1
   1612   1635     1
   1613   1618     1
   1613   1619     1
   1613   1628     1
   1613   1629     1
   1614   1625     1
   1614   1626     1
   1615   1624     1
   1615   1635     1
   1615   1620     1
   1615   1618     1
   1615   1619     1
   1616   1624     1
   1616   1635     1
   1616   1620     1
   1616   1618     1
   1616   1619     1
   1617   1635     1
   1617   1623     1
   1618   1621     1
   1618   1622     1
   1619   1621     1
   1619   1622     1
   1621   1623     1
   1625   1635     1
   1625   1630     1
   1625   1628     1
   1625   1629     1
   1626   1635     1
   1626   1630     1
   1626   1628     1
   1626   1629     1
   1627   1635     1
   1627   1633     1
   1628   1631     1
   1628   1632     1
   1629   1631     1
   1629   1632     1
   1631   1633     1
   1636   1643     1
   1636   1644     1
   1637   1642     1
   1637   1640     1
   1637   1641     1
   1638   1642     1
   1638   1640     1
   1638   1641     1
   1639   1667     1
   1640   1645     1
   1640   1643     1
   1640   1644     1
   1640   1666     1
   1641   1645     1
   1641   1643     1
   1641   1644     1
   1641   1666     1
   1642   1647     1
   1642   1648     1
   1642   1657     1
   1642   1658     1
   1643   1646     1
   1643   1656     1
   1643   1667     1
   1644   1646     1
   1644   1656     1
   1644   1667     1
   1645   1650     1
   1645   1651     1
   1645   1660     1
   1645   1661     1
   1646   1657     1
   1646   1658     1
   1647   1652     1
   1647   1650     1
   1647   1651     1
   1647   1656     1
   1647   1667     1
   1648   1652     1
   1648   1650     1
   1648   1651     1
   1648   1656     1
   1648   1667     1
   1649   1655     1
   1649   1667     1
   1650   1653     1
   1650   1654     1
   1651   1653     1
   1651   1654     1
   1653   1655     1
   1657   1662     1
   1657   1660     1
   1657   1661     1
   1657   1667     1
   1658   1662     1
   1658   1660     1
   1658   1661     1
   1658   1667     1
   1659   1665     1
   1659   1667     1
   1660   1663     1
   1660   1664     1
   1661   1663     1
   1661   1664     1
   1663   1665     1
   1668   1675     1
   1668   1676     1
   1669   1674     1
   1669   1672     1
   1669   1673     1
   1670   1674     1
   1670   1672     1
   1670   1673     1
   1671   1699     1
   1672   1698     1
   1672   1677     1
   1672   1675     1
   1672   1676     1
   1673   1698     1
   1673   1677     1
   1673   1675     1
   1673   1676     1
   1674   1679     1
   1674   1680     1
   1674   1689     1
   1674   1690     1
   1675   1678     1
   1675   1688     1
   1675   1699     1
   1676   1678     1
   1676   1688     1
   1676   1699     1
   1677   1682     1
   1677   1683     1
   1677   1692     1
   1677   1693     1
   1678   1689     1
   1678   1690     1
   1679   1688     1
   1679   1699     1
   1679   1684     1
   1679   1682     1
   1679   1683     1
   1680   1688     1
   1680   1699     1
   1680   1684     1
   1680   1682     1
   1680   1683     1
   1681   1699     1
   1681   1687     1
   1682   1685     1
   1682   1686     1
   1683   1685     1
   1683   1686     1
   1685   1687     1
   1689   1699     1
   1689   1694     1
   1689   1692     1
   1689   1693     1
   1690   1699     1
   1690   1694     1
   1690   1692     1
   1690   1693     1
   1691   1699     1
   1691   1697     1
   1692   1695     1
   1692   1696     1
   1693   1695     1
   1693   1696     1
   1695   1697     1
   1700   1707     1
   1700   1708     1
   1701   1706     1
   1701   1704     1
   1701   1705     1
   1702   1706     1
   1702   1704     1
   1702   1705     1
   1703   1731     1
   1704   1709     1
   1704   1707     1
   1704   1708     1
   1704   1730     1
   1705   1709     1
   1705   1707     1
   1705   1708     1
   1705   1730     1
   1706   1711     1
   1706   1712     1
   1706   1721     1
   1706   1722     1
   1707   1710     1
   1707   1720     1
   1707   1731     1
   1708   1710     1
   1708   1720     1
   1708   1731     1
   1709   1714     1
   1709   1715     1
   1709   1724     1
   1709   1725     1
   1710   1721     1
   1710   1722     1
   1711   1716     1
   1711   1714     1
   1711   1715     1
   1711   1720     1
   1711   1731     1
   1712   1716     1
   1712   1714     1
   1712   1715     1
   1712   1720     1
   1712   1731     1
   1713   1719     1
   1713   1731     1
   1714   1717     1
   1714   1718     1
   1715   1717     1
   1715   1718     1
   1717   1719     1
   1721   1726     1
   1721   1724     1
   1721   1725     1
   1721   1731     1
   1722   1726     1
   1722   1724     1
   1722   1725     1
   1722   1731     1
   1723   1729     1
   1723   1731     1
   1724   1727     1
   1724   1728     1
   1725   1727     1
   1725   1728     1
   1727   1729     1
   1732   1739     1
   1732   1740     1
   1733   1738     1
   1733   1736     1
   1733   1737     1
   1734   1738     1
   1734   1736     1
   1734   1737     1
   1735   1763     1
   1736   1762     1
   1736   1741     1
   1736   1739     1
   1736   1740     1
   1737   1762     1
   1737   1741     1
   1737   1739     1
   1737   1740     1
   1738   1743     1
   1738   1744     1
   1738   1753     1
   1738   1754     1
   1739   1742     1
   1739   1752     1
   1739   1763     1
   1740   1742     1
   1740   1752     1
   1740   1763     1
   1741   1746     1
   1741   1747     1
   1741   1756     1
   1741   1757     1
   1742   1753     1
   1742   1754     1
   1743   1752     1
   1743   1763     1
   1743   1748     1
   1743   1746     1
   1743   1747     1
   1744   1752     1
   1744   1763     1
   1744   1748     1
   1744   1746     1
   1744   1747     1
   1745   1763     1
   1745   1751     1
   1746   1749     1
   1746   1750     1
   1747   1749     1
   1747   1750     1
   1749   1751     1
   1753   1763     1
   1753   1758     1
   1753   1756     1
   1753   1757     1
   1754   1763     1
   1754   1758     1
   1754   1756     1
   1754   1757     1
   1755   1763     1
   1755   1761     1
   1756   1759     1
   1756   1760     1
   1757   1759     1
   1757   1760     1
   1759   1761     1
   1764   1771     1
   1764   1772     1
   1765   1770     1
   1765   1768     1
   1765   1769     1
   1766   1770     1
   1766   1768     1
   1766   1769     1
   1767   1795     1
   1768   1773     1
   1768   1771     1
   1768   1772     1
   1768   1794     1
   1769   1773     1
   1769   1771     1
   1769   1772     1
   1769   1794     1
   1770   1775     1
   1770   1776     1
   1770   1785     1
   1770   1786     1
   1771   1774     1
   1771   1784     1
   1771   1795     1
   1772   1774     1
   1772   1784     1
   1772   1795     1
   1773   1778     1
   1773   1779     1
   1773   1788     1
   1773   1789     1
   1774   1785     1
   1774   1786     1
   1775   1780     1
   1775   1778     1
   1775   1779     1
   1775   1784     1
   1775   1795     1
   1776   1780     1
   1776   1778     1
   1776   1779     1
   1776   1784     1
   1776   1795     1
   1777   1783     1
   1777   1795     1
   1778   1781     1
   1778   1782     1
   1779   1781     1
   1779   1782     1
   1781   1783     1
   1785   1790     1
   1785   1788     1
   1785   1789     1
   1785   1795     1
   1786   1790     1
   1786   1788     1
   1786   1789     1
   1786   1795     1
   1787   1793     1
   1787   1795     1
   1788   1791     1
   1788   1792     1
   1789   1791     1
   1789   1792     1
   1791   1793     1
   1796   1803     1
   1796   1804     1
   1797   1802     1
   1797   1800     1
   1797   1801     1
   1798   1802     1
   1798   1800     1
   1798   1801     1
   1799   1827     1
   1800   1826     1
   1800   1805     1
   1800   1803     1
   1800   1804     1
   1801   1826     1
   1801   1805     1
   1801   1803     1
   1801   1804     1
   1802   1807     1
   1802   1808     1
   1802   1817     1
   1802   1818     1
   1803   1806     1
   1803   1816     1
   1803   1827     1
   1804   1806     1
   1804   1816     1
   1804   1827     1
   1805   1810     1
   1805   1811     1
   1805   1820     1
   1805   1821     1
   1806   1817     1
   1806   1818     1
   1807   1816     1
   1807   1827     1
   1807   1812     1
   1807   1810     1
   1807   1811     1
   1808   1816     1
   1808   1827     1
   1808   1812     1
   1808   1810     1
   1808   1811     1
   1809   1827     1
   1809   1815     1
   1810   1813     1
   1810   1814     1
   1811   1813     1
   1811   1814     1
   1813   1815     1
   1817   1827     1
   1817   1822     1
   1817   1820     1
   1817   1821     1
   1818   1827     1
   1818   1822     1
   1818   1820     1
   1818   1821     1
   1819   1827     1
   1819   1825     1
   1820   1823     1
   1820   1824     1
   1821   1823     1
   1821   1824     1
   1823   1825     1
   1828   1835     1
   1828   1836     1
   1829   1834     1
   1829   1832     1
   1829   1833     1
   1830   1834     1
   1830   1832     1
   1830   1833     1
   1831   1859     1
   1832   1837     1
   1832   1835     1
   1832   1836     1
   1832   1858     1
   1833   1837     1
   1833   1835     1
   1833   1836     1
   1833   1858     1
   1834   1839     1
   1834   1840     1
   1834   1849     1
   1834   1850     1
   1835   1838     1
   1835   1848     1
   1835   1859     1
   1836   1838     1
   1836   1848     1
   1836   1859     1
   1837   1842     1
   1837   1843     1
   1837   1852     1
   1837   1853     1
   1838   1849     1
   1838   1850     1
   1839   1844     1
   1839   1842     1
   1839   1843     1
   1839   1848     1
   1839   1859     1
   1840   1844     1
   1840   1842     1
   1840   1843     1
   1840   1848     1
   1840   1859     1
   1841   1847     1
   1841   1859     1
   1842   1845     1
   1842   1846     1
   1843   1845     1
   1843   1846     1
   1845   1847     1
   1849   1854     1
   1849   1852     1
   1849   1853     1
   1849   1859     1
   1850   1854     1
   1850   1852     1
   1850   1853     1
   1850   1859     1
   1851   1857     1
   1851   1859     1
   1852   1855     1
   1852   1856     1
   1853   1855     1
   1853   1856     1
   1855   1857     1
   1860   1867     1
   1860   1868     1
   1861   1866     1
   1861   1864     1
   1861   1865     1
   1862   1866     1
   1862   1864     1
   1862   1865     1
   1863   1891     1
   1864   1890     1
   1864   1869     1
   1864   1867     1
   1864   1868     1
   1865   1890     1
   1865   1869     1
   1865   1867     1
   1865   1868     1
   1866   1871     1
   1866   1872     1
   1866   1881     1
   1866   1882     1
   1867   1870     1
   1867   1880     1
   1867   1891     1
   1868   1870     1
   1868   1880     1
   1868   1891     1
   1869   1874     1
   1869   1875     1
   1869   1884     1
   1869   1885     1
   1870   1881     1
   1870   1882     1
   1871   1880     1
   1871   1891     1
   1871   1876     1
   1871   1874     1
   1871   1875     1
   1872   1880     1
   1872   1891     1
   1872   1876     1
   1872   1874     1
   1872   1875     1
   1873   1891     1
   1873   1879     1
   1874   1877     1
   1874   1878     1
   1875   1877     1
   1875   1878     1
   1877   1879     1
   1881   1891     1
   1881   1886     1
   1881   1884     1
   1881   1885     1
   1882   1891     1
   1882   1886     1
   1882   1884     1
   1882   1885     1
   1883   1891     1
   1883   1889     1
   1884   1887     1
   1884   1888     1
   1885   1887     1
   1885   1888     1
   1887   1889     1
   1892   1899     1
   1892   1900     1
   1893   1898     1
   1893   1896     1
   1893   1897     1
   1894   1898     1
   1894   1896     1
   1894   1897     1
   1895   1923     1
   1896   1901     1
   1896   1899     1
   1896   1900     1
   1896   1922     1
   1897   1901     1
   1897   1899     1
   1897   1900     1
   1897   1922     1
   1898   1903     1
   1898   1904     1
   1898   1913     1
   1898   1914     1
   1899   1902     1
   1899   1912     1
   1899   1923     1
   1900   1902     1
   1900   1912     1
   1900   1923     1
   1901   1906     1
   1901   1907     1
   1901   1916     1
   1901   1917     1
   1902   1913     1
   1902   1914     1
   1903   1908     1
   1903   1906     1
   1903   1907     1
   1903   1912     1
   1903   1923     1
   1904   1908     1
   1904   1906     1
   1904   1907     1
   1904   1912     1
   1904   1923     1
   1905   1911     1
   1905   1923     1
   1906   1909     1
   1906   1910     1
   1907   1909     1
   1907   1910     1
   1909   1911     1
   1913   1918     1
   1913   1916     1
   1913   1917     1
   1913   1923     1
   1914   1918     1
   1914   1916     1
   1914   1917     1
   1914   1923     1
   1915   1921     1
   1915   1923     1
   1916   1919     1
   1916   1920     1
   1917   1919     1
   1917   1920     1
   1919   1921     1

[ angles ]
;    ai     aj     ak funct         c0         c1         c2         c3
      1      2      8     1   107.9700462 569.024000
      1      5     11     1   107.9700462 569.024000
      2      1      5     1   112.4800480 524.673600
      2      8     14     1   111.5100476 526.347200
      5     11     17     1   111.5100476 526.347200
      8     14     20     1   114.2100488 537.225600
     11     17     21     1   114.2100488 537.225600
     14     20     28     1   109.6600471 523.836800
     14     20     31     1   109.6600471 523.836800
     17     21     22     1   109.6600471 523.836800
     17     21     25     1   109.6600471 523.836800
     20     28     40     1   114.2100488 537.225600
     20     31     43     1   114.2100488 537.225600
     21     22     34     1   114.2100488 537.225600
     21     25     37     1   114.2100488 537.225600
     22     21     25     1   109.6600471 523.836800
     22     34     55     1   111.5100476 526.347200
     25     37     52     1   111.5100476 526.347200
     28     20     31     1   109.6600471 523.836800
     28     40     49     1   111.5100476 526.347200
     31     43     46     1   111.5100476 526.347200
     34     55    178     1   107.9700462 569.024000
     37     52    148     1   107.9700462 569.024000
     40     49    118     1   107.9700462 569.024000
     43     46     88     1   107.9700462 569.024000
     46     88     79     1   112.4800480 524.673600
     49    118    109     1   112.4800480 524.673600
     52    148    139     1   112.4800480 524.673600
     55    178    169     1   112.4800480 524.673600
     60     61     73     1   114.2100488 537.225600
     60     64     76     1   114.2100488 537.225600
     60     67     70     1   114.2100488 537.225600
     61     60     64     1   109.6600471 523.836800
     61     60     67     1   109.6600471 523.836800
     61     73     85     1   111.5100476 526.347200
     64     60     67     1   109.6600471 523.836800
     64     76     82     1   111.5100476 526.347200
     67     70     79     1   111.5100476 526.347200
     70     79     88     1   107.9700462 569.024000
     73     85    238     1   107.9700462 569.024000
     76     82    208     1   107.9700462 569.024000
     82    208    199     1   112.4800480 524.673600
     85    238    229     1   112.4800480 524.673600
     90     91    103     1   114.2100488 537.225600
     90     94    106     1   114.2100488 537.225600
     90     97    100     1   114.2100488 537.225600
     91     90     94     1   109.6600471 523.836800
     91     90     97     1   109.6600471 523.836800
     91    103    115     1   111.5100476 526.347200
     94     90     97     1   109.6600471 523.836800
     94    106    112     1   111.5100476 526.347200
     97    100    109     1   111.5100476 526.347200
    100    109    118     1   107.9700462 569.024000
    103    115    298     1   107.9700462 569.024000
    106    112    268     1   107.9700462 569.024000
    112    268    259     1   112.4800480 524.673600
    115    298    289     1   112.4800480 524.673600
    120    121    133     1   114.2100488 537.225600
    120    124    136     1   114.2100488 537.225600
    120    127    130     1   114.2100488 537.225600
    121    120    124     1   109.6600471 523.836800
    121    120    127     1   109.6600471 523.836800
    121    133    145     1   111.5100476 526.347200
    124    120    127     1   109.6600471 523.836800
    124    136    142     1   111.5100476 526.347200
    127    130    139     1   111.5100476 526.347200
    130    139    148     1   107.9700462 569.024000
    133    145    358     1   107.9700462 569.024000
    136    142    328     1   107.9700462 569.024000
    142    328    319     1   112.4800480 524.673600
    145    358    349     1   112.4800480 524.673600
    150    151    163     1   114.2100488 537.225600
    150    154    166     1   114.2100488 537.225600
    150    157    160     1   114.2100488 537.225600
    151    150    154     1   109.6600471 523.836800
    151    150    157     1   109.6600471 523.836800
    151    163    175     1   111.5100476 526.347200
    154    150    157     1   109.6600471 523.836800
    154    166    172     1   111.5100476 526.347200
    157    160    169     1   111.5100476 526.347200
    160    169    178     1   107.9700462 569.024000
    163    175    418     1   107.9700462 569.024000
    166    172    388     1   107.9700462 569.024000
    172    388    379     1   112.4800480 524.673600
    175    418    409     1   112.4800480 524.673600
    180    181    193     1   114.2100488 537.225600
    180    184    196     1   114.2100488 537.225600
    180    187    190     1   114.2100488 537.225600
    181    180    184     1   109.6600471 523.836800
    181    180    187     1   109.6600471 523.836800
    181    193    205     1   111.5100476 526.347200
    184    180    187     1   109.6600471 523.836800
    184    196    202     1   111.5100476 526.347200
    187    190    199     1   111.5100476 526.347200
    190    199    208     1   107.9700462 569.024000
    193    205    478     1   107.9700462 569.024000
    196    202    448     1   107.9700462 569.024000
    202    448    439     1   112.4800480 524.673600
    205    478    469     1   112.4800480 524.673600
    210    211    223     1   114.2100488 537.225600
    210    214    226     1   114.2100488 537.225600
    210    217    220     1   114.2100488 537.225600
    211    210    214     1   109.6600471 523.836800
    211    210    217     1   109.6600471 523.836800
    211    223    235     1   111.5100476 526.347200
    214    210    217     1   109.6600471 523.836800
    214    226    232     1   111.5100476 526.347200
    217    220    229     1   111.5100476 526.347200
    220    229    238     1   107.9700462 569.024000
    223    235    538     1   107.9700462 569.024000
    226    232    508     1   107.9700462 569.024000
    232    508    499     1   112.4800480 524.673600
    235    538    529     1   112.4800480 524.673600
    240    241    253     1   114.2100488 537.225600
    240    244    256     1   114.2100488 537.225600
    240    247    250     1   114.2100488 537.225600
    241    240    244     1   109.6600471 523.836800
    241    240    247     1   109.6600471 523.836800
    241    253    265     1   111.5100476 526.347200
    244    240    247     1   109.6600471 523.836800
    244    256    262     1   111.5100476 526.347200
    247    250    259     1   111.5100476 526.347200
    250    259    268     1   107.9700462 569.024000
    253    265    598     1   107.9700462 569.024000
    256    262    568     1   107.9700462 569.024000
    262    568    559     1   112.4800480 524.673600
    265    598    589     1   112.4800480 524.673600
    270    271    283     1   114.2100488 537.225600
    270    274    286     1   114.2100488 537.225600
    270    277    280     1   114.2100488 537.225600
    271    270    274     1   109.6600471 523.836800
    271    270    277     1   109.6600471 523.836800
    271    283    295     1   111.5100476 526.347200
    274    270    277     1   109.6600471 523.836800
    274    286    292     1   111.5100476 526.347200
    277    280    289     1   111.5100476 526.347200
    280    289    298     1   107.9700462 569.024000
    283    295    658     1   107.9700462 569.024000
    286    292    628     1   107.9700462 569.024000
    292    628    619     1   112.4800480 524.673600
    295    658    649     1   112.4800480 524.673600
    300    301    313     1   114.2100488 537.225600
    300    304    316     1   114.2100488 537.225600
    300    307    310     1   114.2100488 537.225600
    301    300    304     1   109.6600471 523.836800
    301    300    307     1   109.6600471 523.836800
    301    313    325     1   111.5100476 526.347200
    304    300    307     1   109.6600471 523.836800
    304    316    322     1   111.5100476 526.347200
    307    310    319     1   111.5100476 526.347200
    310    319    328     1   107.9700462 569.024000
    313    325    718     1   107.9700462 569.024000
    316    322    688     1   107.9700462 569.024000
    322    688    679     1   112.4800480 524.673600
    325    718    709     1   112.4800480 524.673600
    330    331    343     1   114.2100488 537.225600
    330    334    346     1   114.2100488 537.225600
    330    337    340     1   114.2100488 537.225600
    331    330    334     1   109.6600471 523.836800
    331    330    337     1   109.6600471 523.836800
    331    343    355     1   111.5100476 526.347200
    334    330    337     1   109.6600471 523.836800
    334    346    352     1   111.5100476 526.347200
    337    340    349     1   111.5100476 526.347200
    340    349    358     1   107.9700462 569.024000
    343    355    778     1   107.9700462 569.024000
    346    352    748     1   107.9700462 569.024000
    352    748    739     1   112.4800480 524.673600
    355    778    769     1   112.4800480 524.673600
    360    361    373     1   114.2100488 537.225600
    360    364    376     1   114.2100488 537.225600
    360    367    370     1   114.2100488 537.225600
    361    360    364     1   109.6600471 523.836800
    361    360    367     1   109.6600471 523.836800
    361    373    385     1   111.5100476 526.347200
    364    360    367     1   109.6600471 523.836800
    364    376    382     1   111.5100476 526.347200
    367    370    379     1   111.5100476 526.347200
    370    379    388     1   107.9700462 569.024000
    373    385    838     1   107.9700462 569.024000
    376    382    808     1   107.9700462 569.024000
    382    808    799     1   112.4800480 524.673600
    385    838    829     1   112.4800480 524.673600
    390    391    403     1   114.2100488 537.225600
    390    394    406     1   114.2100488 537.225600
    390    397    400     1   114.2100488 537.225600
    391    390    394     1   109.6600471 523.836800
    391    390    397     1   109.6600471 523.836800
    391    403    415     1   111.5100476 526.347200
    394    390    397     1   109.6600471 523.836800
    394    406    412     1   111.5100476 526.347200
    397    400    409     1   111.5100476 526.347200
    400    409    418     1   107.9700462 569.024000
    403    415    898     1   107.9700462 569.024000
    406    412    868     1   107.9700462 569.024000
    412    868    859     1   112.4800480 524.673600
    415    898    889     1   112.4800480 524.673600
    420    421    433     1   114.2100488 537.225600
    420    424    436     1   114.2100488 537.225600
    420    427    430     1   114.2100488 537.225600
    421    420    424     1   109.6600471 523.836800
    421    420    427     1   109.6600471 523.836800
    421    433    445     1   111.5100476 526.347200
    424    420    427     1   109.6600471 523.836800
    424    436    442     1   111.5100476 526.347200
    427    430    439     1   111.5100476 526.347200
    430    439    448     1   107.9700462 569.024000
    433    445    962     1   107.9700462 569.024000
    436    442    930     1   107.9700462 569.024000
    442    930    900     1   112.4800480 524.673600
    445    962    932     1   112.4800480 524.673600
    450    451    463     1   114.2100488 537.225600
    450    454    466     1   114.2100488 537.225600
    450    457    460     1   114.2100488 537.225600
    451    450    454     1   109.6600471 523.836800
    451    450    457     1   109.6600471 523.836800
    451    463    475     1   111.5100476 526.347200
    454    450    457     1   109.6600471 523.836800
    454    466    472     1   111.5100476 526.347200
    457    460    469     1   111.5100476 526.347200
    460    469    478     1   107.9700462 569.024000
    463    475   1026     1   107.9700462 569.024000
    466    472    994     1   107.9700462 569.024000
    472    994    964     1   112.4800480 524.673600
    475   1026    996     1   112.4800480 524.673600
    480    481    493     1   114.2100488 537.225600
    480    484    496     1   114.2100488 537.225600
    480    487    490     1   114.2100488 537.225600
    481    480    484     1   109.6600471 523.836800
    481    480    487     1   109.6600471 523.836800
    481    493    505     1   111.5100476 526.347200
    484    480    487     1   109.6600471 523.836800
    484    496    502     1   111.5100476 526.347200
    487    490    499     1   111.5100476 526.347200
    490    499    508     1   107.9700462 569.024000
    493    505   1090     1   107.9700462 569.024000
    496    502   1058     1   107.9700462 569.024000
    502   1058   1028     1   112.4800480 524.673600
    505   1090   1060     1   112.4800480 524.673600
    510    511    523     1   114.2100488 537.225600
    510    514    526     1   114.2100488 537.225600
    510    517    520     1   114.2100488 537.225600
    511    510    514     1   109.6600471 523.836800
    511    510    517     1   109.6600471 523.836800
    511    523    535     1   111.5100476 526.347200
    514    510    517     1   109.6600471 523.836800
    514    526    532     1   111.5100476 526.347200
    517    520    529     1   111.5100476 526.347200
    520    529    538     1   107.9700462 569.024000
    523    535   1154     1   107.9700462 569.024000
    526    532   1122     1   107.9700462 569.024000
    532   1122   1092     1   112.4800480 524.673600
    535   1154   1124     1   112.4800480 524.673600
    540    541    553     1   114.2100488 537.225600
    540    544    556     1   114.2100488 537.225600
    540    547    550     1   114.2100488 537.225600
    541    540    544     1   109.6600471 523.836800
    541    540    547     1   109.6600471 523.836800
    541    553    565     1   111.5100476 526.347200
    544    540    547     1   109.6600471 523.836800
    544    556    562     1   111.5100476 526.347200
    547    550    559     1   111.5100476 526.347200
    550    559    568     1   107.9700462 569.024000
    553    565   1218     1   107.9700462 569.024000
    556    562   1186     1   107.9700462 569.024000
    562   1186   1156     1   112.4800480 524.673600
    565   1218   1188     1   112.4800480 524.673600
    570    571    583     1   114.2100488 537.225600
    570    574    586     1   114.2100488 537.225600
    570    577    580     1   114.2100488 537.225600
    571    570    574     1   109.6600471 523.836800
    571    570    577     1   109.6600471 523.836800
    571    583    595     1   111.5100476 526.347200
    574    570    577     1   109.6600471 523.836800
    574    586    592     1   111.5100476 526.347200
    577    580    589     1   111.5100476 526.347200
    580    589    598     1   107.9700462 569.024000
    583    595   1282     1   107.9700462 569.024000
    586    592   1250     1   107.9700462 569.024000
    592   1250   1220     1   112.4800480 524.673600
    595   1282   1252     1   112.4800480 524.673600
    600    601    613     1   114.2100488 537.225600
    600    604    616     1   114.2100488 537.225600
    600    607    610     1   114.2100488 537.225600
    601    600    604     1   109.6600471 523.836800
    601    600    607     1   109.6600471 523.836800
    601    613    625     1   111.5100476 526.347200
    604    600    607     1   109.6600471 523.836800
    604    616    622     1   111.5100476 526.347200
    607    610    619     1   111.5100476 526.347200
    610    619    628     1   107.9700462 569.024000
    613    625   1346     1   107.9700462 569.024000
    616    622   1314     1   107.9700462 569.024000
    622   1314   1284     1   112.4800480 524.673600
    625   1346   1316     1   112.4800480 524.673600
    630    631    643     1   114.2100488 537.225600
    630    634    646     1   114.2100488 537.225600
    630    637    640     1   114.2100488 537.225600
    631    630    634     1   109.6600471 523.836800
    631    630    637     1   109.6600471 523.836800
    631    643    655     1   111.5100476 526.347200
    634    630    637     1   109.6600471 523.836800
    634    646    652     1   111.5100476 526.347200
    637    640    649     1   111.5100476 526.347200
    640    649    658     1   107.9700462 569.024000
    643    655   1410     1   107.9700462 569.024000
    646    652   1378     1   107.9700462 569.024000
    652   1378   1348     1   112.4800480 524.673600
    655   1410   1380     1   112.4800480 524.673600
    660    661    673     1   114.2100488 537.225600
    660    664    676     1   114.2100488 537.225600
    660    667    670     1   114.2100488 537.225600
    661    660    664     1   109.6600471 523.836800
    661    660    667     1   109.6600471 523.836800
    661    673    685     1   111.5100476 526.347200
    664    660    667     1   109.6600471 523.836800
    664    676    682     1   111.5100476 526.347200
    667    670    679     1   111.5100476 526.347200
    670    679    688     1   107.9700462 569.024000
    673    685   1474     1   107.9700462 569.024000
    676    682   1442     1   107.9700462 569.024000
    682   1442   1412     1   112.4800480 524.673600
    685   1474   1444     1   112.4800480 524.673600
    690    691    703     1   114.2100488 537.225600
    690    694    706     1   114.2100488 537.225600
    690    697    700     1   114.2100488 537.225600
    691    690    694     1   109.6600471 523.836800
    691    690    697     1   109.6600471 523.836800
    691    703    715     1   111.5100476 526.347200
    694    690    697     1   109.6600471 523.836800
    694    706    712     1   111.5100476 526.347200
    697    700    709     1   111.5100476 526.347200
    700    709    718     1   107.9700462 569.024000
    703    715   1538     1   107.9700462 569.024000
    706    712   1506     1   107.9700462 569.024000
    712   1506   1476     1   112.4800480 524.673600
    715   1538   1508     1   112.4800480 524.673600
    720    721    733     1   114.2100488 537.225600
    720    724    736     1   114.2100488 537.225600
    720    727    730     1   114.2100488 537.225600
    721    720    724     1   109.6600471 523.836800
    721    720    727     1   109.6600471 523.836800
    721    733    745     1   111.5100476 526.347200
    724    720    727     1   109.6600471 523.836800
    724    736    742     1   111.5100476 526.347200
    727    730    739     1   111.5100476 526.347200
    730    739    748     1   107.9700462 569.024000
    733    745   1602     1   107.9700462 569.024000
    736    742   1570     1   107.9700462 569.024000
    742   1570   1540     1   112.4800480 524.673600
    745   1602   1572     1   112.4800480 524.673600
    750    751    763     1   114.2100488 537.225600
    750    754    766     1   114.2100488 537.225600
    750    757    760     1   114.2100488 537.225600
    751    750    754     1   109.6600471 523.836800
    751    750    757     1   109.6600471 523.836800
    751    763    775     1   111.5100476 526.347200
    754    750    757     1   109.6600471 523.836800
    754    766    772     1   111.5100476 526.347200
    757    760    769     1   111.5100476 526.347200
    760    769    778     1   107.9700462 569.024000
    763    775   1666     1   107.9700462 569.024000
    766    772   1634     1   107.9700462 569.024000
    772   1634   1604     1   112.4800480 524.673600
    775   1666   1636     1   112.4800480 524.673600
    780    781    793     1   114.2100488 537.225600
    780    784    796     1   114.2100488 537.225600
    780    787    790     1   114.2100488 537.225600
    781    780    784     1   109.6600471 523.836800
    781    780    787     1   109.6600471 523.836800
    781    793    805     1   111.5100476 526.347200
    784    780    787     1   109.6600471 523.836800
    784    796    802     1   111.5100476 526.347200
    787    790    799     1   111.5100476 526.347200
    790    799    808     1   107.9700462 569.024000
    793    805   1730     1   107.9700462 569.024000
    796    802   1698     1   107.9700462 569.024000
    802   1698   1668     1   112.4800480 524.673600
    805   1730   1700     1   112.4800480 524.673600
    810    811    823     1   114.2100488 537.225600
    810    814    826     1   114.2100488 537.225600
    810    817    820     1   114.2100488 537.225600
    811    810    814     1   109.6600471 523.836800
    811    810    817     1   109.6600471 523.836800
    811    823    835     1   111.5100476 526.347200
    814    810    817     1   109.6600471 523.836800
    814    826    832     1   111.5100476 526.347200
    817    820    829     1   111.5100476 526.347200
    820    829    838     1   107.9700462 569.024000
    823    835   1794     1   107.9700462 569.024000
    826    832   1762     1   107.9700462 569.024000
    832   1762   1732     1   112.4800480 524.673600
    835   1794   1764     1   112.4800480 524.673600
    840    841    853     1   114.2100488 537.225600
    840    844    856     1   114.2100488 537.225600
    840    847    850     1   114.2100488 537.225600
    841    840    844     1   109.6600471 523.836800
    841    840    847     1   109.6600471 523.836800
    841    853    865     1   111.5100476 526.347200
    844    840    847     1   109.6600471 523.836800
    844    856    862     1   111.5100476 526.347200
    847    850    859     1   111.5100476 526.347200
    850    859    868     1   107.9700462 569.024000
    853    865   1858     1   107.9700462 569.024000
    856    862   1826     1   107.9700462 569.024000
    862   1826   1796     1   112.4800480 524.673600
    865   1858   1828     1   112.4800480 524.673600
    870    871    883     1   114.2100488 537.225600
    870    874    886     1   114.2100488 537.225600
    870    877    880     1   114.2100488 537.225600
    871    870    874     1   109.6600471 523.836800
    871    870    877     1   109.6600471 523.836800
    871    883    895     1   111.5100476 526.347200
    874    870    877     1   109.6600471 523.836800
    874    886    892     1   111.5100476 526.347200
    877    880    889     1   111.5100476 526.347200
    880    889    898     1   107.9700462 569.024000
    883    895   1922     1   107.9700462 569.024000
    886    892   1890     1   107.9700462 569.024000
    892   1890   1860     1   112.4800480 524.673600
    895   1922   1892     1   112.4800480 524.673600
    900    903    906     1   111.5100476 526.347200
    903    900    930     1   107.9700462 569.024000
    903    906    909     1   114.2100488 537.225600
    906    909    910     1   109.6600471 523.836800
    906    909    920     1   109.6600471 523.836800
    909    910    913     1   114.2100488 537.225600
    909    920    923     1   114.2100488 537.225600
    910    909    920     1   109.6600471 523.836800
    910    913    916     1   111.0400475 529.694400
    913    916    917     1   123.2000528 564.003200
    913    916    918     1   112.7300484 572.371200
    917    916    918     1   122.1000523 635.131200
    920    923    926     1   111.0400475 529.694400
    923    926    927     1   123.2000528 564.003200
    923    926    928     1   112.7300484 572.371200
    927    926    928     1   122.1000523 635.131200
    932    935    938     1   111.5100476 526.347200
    935    938    941     1   114.2100488 537.225600
    935    932    962     1   107.9700462 569.024000
    938    941    942     1   109.6600471 523.836800
    938    941    952     1   109.6600471 523.836800
    941    942    945     1   114.2100488 537.225600
    941    952    955     1   114.2100488 537.225600
    942    945    948     1   111.0400475 529.694400
    942    941    952     1   109.6600471 523.836800
    945    948    949     1   123.2000528 564.003200
    945    948    950     1   112.7300484 572.371200
    949    948    950     1   122.1000523 635.131200
    952    955    958     1   111.0400475 529.694400
    955    958    959     1   123.2000528 564.003200
    955    958    960     1   112.7300484 572.371200
    959    958    960     1   122.1000523 635.131200
    964    967    970     1   111.5100476 526.347200
    967    964    994     1   107.9700462 569.024000
    967    970    973     1   114.2100488 537.225600
    970    973    974     1   109.6600471 523.836800
    970    973    984     1   109.6600471 523.836800
    973    974    977     1   114.2100488 537.225600
    973    984    987     1   114.2100488 537.225600
    974    973    984     1   109.6600471 523.836800
    974    977    980     1   111.0400475 529.694400
    977    980    981     1   123.2000528 564.003200
    977    980    982     1   112.7300484 572.371200
    981    980    982     1   122.1000523 635.131200
    984    987    990     1   111.0400475 529.694400
    987    990    991     1   123.2000528 564.003200
    987    990    992     1   112.7300484 572.371200
    991    990    992     1   122.1000523 635.131200
    996    999   1002     1   111.5100476 526.347200
    999   1002   1005     1   114.2100488 537.225600
    999    996   1026     1   107.9700462 569.024000
   1002   1005   1006     1   109.6600471 523.836800
   1002   1005   1016     1   109.6600471 523.836800
   1005   1006   1009     1   114.2100488 537.225600
   1005   1016   1019     1   114.2100488 537.225600
   1006   1009   1012     1   111.0400475 529.694400
   1006   1005   1016     1   109.6600471 523.836800
   1009   1012   1013     1   123.2000528 564.003200
   1009   1012   1014     1   112.7300484 572.371200
   1013   1012   1014     1   122.1000523 635.131200
   1016   1019   1022     1   111.0400475 529.694400
   1019   1022   1023     1   123.2000528 564.003200
   1019   1022   1024     1   112.7300484 572.371200
   1023   1022   1024     1   122.1000523 635.131200
   1028   1031   1034     1   111.5100476 526.347200
   1031   1028   1058     1   107.9700462 569.024000
   1031   1034   1037     1   114.2100488 537.225600
   1034   1037   1038     1   109.6600471 523.836800
   1034   1037   1048     1   109.6600471 523.836800
   1037   1038   1041     1   114.2100488 537.225600
   1037   1048   1051     1   114.2100488 537.225600
   1038   1037   1048     1   109.6600471 523.836800
   1038   1041   1044     1   111.0400475 529.694400
   1041   1044   1045     1   123.2000528 564.003200
   1041   1044   1046     1   112.7300484 572.371200
   1045   1044   1046     1   122.1000523 635.131200
   1048   1051   1054     1   111.0400475 529.694400
   1051   1054   1055     1   123.2000528 564.003200
   1051   1054   1056     1   112.7300484 572.371200
   1055   1054   1056     1   122.1000523 635.131200
   1060   1063   1066     1   111.5100476 526.347200
   1063   1066   1069     1   114.2100488 537.225600
   1063   1060   1090     1   107.9700462 569.024000
   1066   1069   1070     1   109.6600471 523.836800
   1066   1069   1080     1   109.6600471 523.836800
   1069   1070   1073     1   114.2100488 537.225600
   1069   1080   1083     1   114.2100488 537.225600
   1070   1073   1076     1   111.0400475 529.694400
   1070   1069   1080     1   109.6600471 523.836800
   1073   1076   1077     1   123.2000528 564.003200
   1073   1076   1078     1   112.7300484 572.371200
   1077   1076   1078     1   122.1000523 635.131200
   1080   1083   1086     1   111.0400475 529.694400
   1083   1086   1087     1   123.2000528 564.003200
   1083   1086   1088     1   112.7300484 572.371200
   1087   1086   1088     1   122.1000523 635.131200
   1092   1095   1098     1   111.5100476 526.347200
   1095   1092   1122     1   107.9700462 569.024000
   1095   1098   1101     1   114.2100488 537.225600
   1098   1101   1102     1   109.6600471 523.836800
   1098   1101   1112     1   109.6600471 523.836800
   1101   1102   1105     1   114.2100488 537.225600
   1101   1112   1115     1   114.2100488 537.225600
   1102   1101   1112     1   109.6600471 523.836800
   1102   1105   1108     1   111.0400475 529.694400
   1105   1108   1109     1   123.2000528 564.003200
   1105   1108   1110     1   112.7300484 572.371200
   1109   1108   1110     1   122.1000523 635.131200
   1112   1115   1118     1   111.0400475 529.694400
   1115   1118   1119     1   123.2000528 564.003200
   1115   1118   1120     1   112.7300484 572.371200
   1119   1118   1120     1   122.1000523 635.131200
   1124   1127   1130     1   111.5100476 526.347200
   1127   1130   1133     1   114.2100488 537.225600
   1127   1124   1154     1   107.9700462 569.024000
   1130   1133   1134     1   109.6600471 523.836800
   1130   1133   1144     1   109.6600471 523.836800
   1133   1134   1137     1   114.2100488 537.225600
   1133   1144   1147     1   114.2100488 537.225600
   1134   1137   1140     1   111.0400475 529.694400
   1134   1133   1144     1   109.6600471 523.836800
   1137   1140   1141     1   123.2000528 564.003200
   1137   1140   1142     1   112.7300484 572.371200
   1141   1140   1142     1   122.1000523 635.131200
   1144   1147   1150     1   111.0400475 529.694400
   1147   1150   1151     1   123.2000528 564.003200
   1147   1150   1152     1   112.7300484 572.371200
   1151   1150   1152     1   122.1000523 635.131200
   1156   1159   1162     1   111.5100476 526.347200
   1159   1156   1186     1   107.9700462 569.024000
   1159   1162   1165     1   114.2100488 537.225600
   1162   1165   1166     1   109.6600471 523.836800
   1162   1165   1176     1   109.6600471 523.836800
   1165   1166   1169     1   114.2100488 537.225600
   1165   1176   1179     1   114.2100488 537.225600
   1166   1165   1176     1   109.6600471 523.836800
   1166   1169   1172     1   111.0400475 529.694400
   1169   1172   1173     1   123.2000528 564.003200
   1169   1172   1174     1   112.7300484 572.371200
   1173   1172   1174     1   122.1000523 635.131200
   1176   1179   1182     1   111.0400475 529.694400
   1179   1182   1183     1   123.2000528 564.003200
   1179   1182   1184     1   112.7300484 572.371200
   1183   1182   1184     1   122.1000523 635.131200
   1188   1191   1194     1   111.5100476 526.347200
   1191   1194   1197     1   114.2100488 537.225600
   1191   1188   1218     1   107.9700462 569.024000
   1194   1197   1198     1   109.6600471 523.836800
   1194   1197   1208     1   109.6600471 523.836800
   1197   1198   1201     1   114.2100488 537.225600
   1197   1208   1211     1   114.2100488 537.225600
   1198   1201   1204     1   111.0400475 529.694400
   1198   1197   1208     1   109.6600471 523.836800
   1201   1204   1205     1   123.2000528 564.003200
   1201   1204   1206     1   112.7300484 572.371200
   1205   1204   1206     1   122.1000523 635.131200
   1208   1211   1214     1   111.0400475 529.694400
   1211   1214   1215     1   123.2000528 564.003200
   1211   1214   1216     1   112.7300484 572.371200
   1215   1214   1216     1   122.1000523 635.131200
   1220   1223   1226     1   111.5100476 526.347200
   1223   1220   1250     1   107.9700462 569.024000
   1223   1226   1229     1   114.2100488 537.225600
   1226   1229   1230     1   109.6600471 523.836800
   1226   1229   1240     1   109.6600471 523.836800
   1229   1230   1233     1   114.2100488 537.225600
   1229   1240   1243     1   114.2100488 537.225600
   1230   1229   1240     1   109.6600471 523.836800
   1230   1233   1236     1   111.0400475 529.694400
   1233   1236   1237     1   123.2000528 564.003200
   1233   1236   1238     1   112.7300484 572.371200
   1237   1236   1238     1   122.1000523 635.131200
   1240   1243   1246     1   111.0400475 529.694400
   1243   1246   1247     1   123.2000528 564.003200
   1243   1246   1248     1   112.7300484 572.371200
   1247   1246   1248     1   122.1000523 635.131200
   1252   1255   1258     1   111.5100476 526.347200
   1255   1258   1261     1   114.2100488 537.225600
   1255   1252   1282     1   107.9700462 569.024000
   1258   1261   1262     1   109.6600471 523.836800
   1258   1261   1272     1   109.6600471 523.836800
   1261   1262   1265     1   114.2100488 537.225600
   1261   1272   1275     1   114.2100488 537.225600
   1262   1265   1268     1   111.0400475 529.694400
   1262   1261   1272     1   109.6600471 523.836800
   1265   1268   1269     1   123.2000528 564.003200
   1265   1268   1270     1   112.7300484 572.371200
   1269   1268   1270     1   122.1000523 635.131200
   1272   1275   1278     1   111.0400475 529.694400
   1275   1278   1279     1   123.2000528 564.003200
   1275   1278   1280     1   112.7300484 572.371200
   1279   1278   1280     1   122.1000523 635.131200
   1284   1287   1290     1   111.5100476 526.347200
   1287   1284   1314     1   107.9700462 569.024000
   1287   1290   1293     1   114.2100488 537.225600
   1290   1293   1294     1   109.6600471 523.836800
   1290   1293   1304     1   109.6600471 523.836800
   1293   1294   1297     1   114.2100488 537.225600
   1293   1304   1307     1   114.2100488 537.225600
   1294   1293   1304     1   109.6600471 523.836800
   1294   1297   1300     1   111.0400475 529.694400
   1297   1300   1301     1   123.2000528 564.003200
   1297   1300   1302     1   112.7300484 572.371200
   1301   1300   1302     1   122.1000523 635.131200
   1304   1307   1310     1   111.0400475 529.694400
   1307   1310   1311     1   123.2000528 564.003200
   1307   1310   1312     1   112.7300484 572.371200
   1311   1310   1312     1   122.1000523 635.131200
   1316   1319   1322     1   111.5100476 526.347200
   1319   1322   1325     1   114.2100488 537.225600
   1319   1316   1346     1   107.9700462 569.024000
   1322   1325   1326     1   109.6600471 523.836800
   1322   1325   1336     1   109.6600471 523.836800
   1325   1326   1329     1   114.2100488 537.225600
   1325   1336   1339     1   114.2100488 537.225600
   1326   1329   1332     1   111.0400475 529.694400
   1326   1325   1336     1   109.6600471 523.836800
   1329   1332   1333     1   123.2000528 564.003200
   1329   1332   1334     1   112.7300484 572.371200
   1333   1332   1334     1   122.1000523 635.131200
   1336   1339   1342     1   111.0400475 529.694400
   1339   1342   1343     1   123.2000528 564.003200
   1339   1342   1344     1   112.7300484 572.371200
   1343   1342   1344     1   122.1000523 635.131200
   1348   1351   1354     1   111.5100476 526.347200
   1351   1348   1378     1   107.9700462 569.024000
   1351   1354   1357     1   114.2100488 537.225600
   1354   1357   1358     1   109.6600471 523.836800
   1354   1357   1368     1   109.6600471 523.836800
   1357   1358   1361     1   114.2100488 537.225600
   1357   1368   1371     1   114.2100488 537.225600
   1358   1357   1368     1   109.6600471 523.836800
   1358   1361   1364     1   111.0400475 529.694400
   1361   1364   1365     1   123.2000528 564.003200
   1361   1364   1366     1   112.7300484 572.371200
   1365   1364   1366     1   122.1000523 635.131200
   1368   1371   1374     1   111.0400475 529.694400
   1371   1374   1375     1   123.2000528 564.003200
   1371   1374   1376     1   112.7300484 572.371200
   1375   1374   1376     1   122.1000523 635.131200
   1380   1383   1386     1   111.5100476 526.347200
   1383   1386   1389     1   114.2100488 537.225600
   1383   1380   1410     1   107.9700462 569.024000
   1386   1389   1390     1   109.6600471 523.836800
   1386   1389   1400     1   109.6600471 523.836800
   1389   1390   1393     1   114.2100488 537.225600
   1389   1400   1403     1   114.2100488 537.225600
   1390   1393   1396     1   111.0400475 529.694400
   1390   1389   1400     1   109.6600471 523.836800
   1393   1396   1397     1   123.2000528 564.003200
   1393   1396   1398     1   112.7300484 572.371200
   1397   1396   1398     1   122.1000523 635.131200
   1400   1403   1406     1   111.0400475 529.694400
   1403   1406   1407     1   123.2000528 564.003200
   1403   1406   1408     1   112.7300484 572.371200
   1407   1406   1408     1   122.1000523 635.131200
   1412   1415   1418     1   111.5100476 526.347200
   1415   1412   1442     1   107.9700462 569.024000
   1415   1418   1421     1   114.2100488 537.225600
   1418   1421   1422     1   109.6600471 523.836800
   1418   1421   1432     1   109.6600471 523.836800
   1421   1422   1425     1   114.2100488 537.225600
   1421   1432   1435     1   114.2100488 537.225600
   1422   1421   1432     1   109.6600471 523.836800
   1422   1425   1428     1   111.0400475 529.694400
   1425   1428   1429     1   123.2000528 564.003200
   1425   1428   1430     1   112.7300484 572.371200
   1429   1428   1430     1   122.1000523 635.131200
   1432   1435   1438     1   111.0400475 529.694400
   1435   1438   1439     1   123.2000528 564.003200
   1435   1438   1440     1   112.7300484 572.371200
   1439   1438   1440     1   122.1000523 635.131200
   1444   1447   1450     1   111.5100476 526.347200
   1447   1450   1453     1   114.2100488 537.225600
   1447   1444   1474     1   107.9700462 569.024000
   1450   1453   1454     1   109.6600471 523.836800
   1450   1453   1464     1   109.6600471 523.836800
   1453   1454   1457     1   114.2100488 537.225600
   1453   1464   1467     1   114.2100488 537.225600
   1454   1457   1460     1   111.0400475 529.694400
   1454   1453   1464     1   109.6600471 523.836800
   1457   1460   1461     1   123.2000528 564.003200
   1457   1460   1462     1   112.7300484 572.371200
   1461   1460   1462     1   122.1000523 635.131200
   1464   1467   1470     1   111.0400475 529.694400
   1467   1470   1471     1   123.2000528 564.003200
   1467   1470   1472     1   112.7300484 572.371200
   1471   1470   1472     1   122.1000523 635.131200
   1476   1479   1482     1   111.5100476 526.347200
   1479   1476   1506     1   107.9700462 569.024000
   1479   1482   1485     1   114.2100488 537.225600
   1482   1485   1486     1   109.6600471 523.836800
   1482   1485   1496     1   109.6600471 523.836800
   1485   1486   1489     1   114.2100488 537.225600
   1485   1496   1499     1   114.2100488 537.225600
   1486   1485   1496     1   109.6600471 523.836800
   1486   1489   1492     1   111.0400475 529.694400
   1489   1492   1493     1   123.2000528 564.003200
   1489   1492   1494     1   112.7300484 572.371200
   1493   1492   1494     1   122.1000523 635.131200
   1496   1499   1502     1   111.0400475 529.694400
   1499   1502   1503     1   123.2000528 564.003200
   1499   1502   1504     1   112.7300484 572.371200
   1503   1502   1504     1   122.1000523 635.131200
   1508   1511   1514     1   111.5100476 526.347200
   1511   1514   1517     1   114.2100488 537.225600
   1511   1508   1538     1   107.9700462 569.024000
   1514   1517   1518     1   109.6600471 523.836800
   1514   1517   1528     1   109.6600471 523.836800
   1517   1518   1521     1   114.2100488 537.225600
   1517   1528   1531     1   114.2100488 537.225600
   1518   1521   1524     1   111.0400475 529.694400
   1518   1517   1528     1   109.6600471 523.836800
   1521   1524   1525     1   123.2000528 564.003200
   1521   1524   1526     1   112.7300484 572.371200
   1525   1524   1526     1   122.1000523 635.131200
   1528   1531   1534     1   111.0400475 529.694400
   1531   1534   1535     1   123.2000528 564.003200
   1531   1534   1536     1   112.7300484 572.371200
   1535   1534   1536     1   122.1000523 635.131200
   1540   1543   1546     1   111.5100476 526.347200
   1543   1540   1570     1   107.9700462 569.024000
   1543   1546   1549     1   114.2100488 537.225600
   1546   1549   1550     1   109.6600471 523.836800
   1546   1549   1560     1   109.6600471 523.836800
   1549   1550   1553     1   114.2100488 537.225600
   1549   1560   1563     1   114.2100488 537.225600
   1550   1549   1560     1   109.6600471 523.836800
   1550   1553   1556     1   111.0400475 529.694400
   1553   1556   1557     1   123.2000528 564.003200
   1553   1556   1558     1   112.7300484 572.371200
   1557   1556   1558     1   122.1000523 635.131200
   1560   1563   1566     1   111.0400475 529.694400
   1563   1566   1567     1   123.2000528 564.003200
   1563   1566   1568     1   112.7300484 572.371200
   1567   1566   1568     1   122.1000523 635.131200
   1572   1575   1578     1   111.5100476 526.347200
   1575   1578   1581     1   114.2100488 537.225600
   1575   1572   1602     1   107.9700462 569.024000
   1578   1581   1582     1   109.6600471 523.836800
   1578   1581   1592     1   109.6600471 523.836800
   1581   1582   1585     1   114.2100488 537.225600
   1581   1592   1595     1   114.2100488 537.225600
   1582   1585   1588     1   111.0400475 529.694400
   1582   1581   1592     1   109.6600471 523.836800
   1585   1588   1589     1   123.2000528 564.003200
   1585   1588   1590     1   112.7300484 572.371200
   1589   1588   1590     1   122.1000523 635.131200
   1592   1595   1598     1   111.0400475 529.694400
   1595   1598   1599     1   123.2000528 564.003200
   1595   1598   1600     1   112.7300484 572.371200
   1599   1598   1600     1   122.1000523 635.131200
   1604   1607   1610     1   111.5100476 526.347200
   1607   1604   1634     1   107.9700462 569.024000
   1607   1610   1613     1   114.2100488 537.225600
   1610   1613   1614     1   109.6600471 523.836800
   1610   1613   1624     1   109.6600471 523.836800
   1613   1614   1617     1   114.2100488 537.225600
   1613   1624   1627     1   114.2100488 537.225600
   1614   1613   1624     1   109.6600471 523.836800
   1614   1617   1620     1   111.0400475 529.694400
   1617   1620   1621     1   123.2000528 564.003200
   1617   1620   1622     1   112.7300484 572.371200
   1621   1620   1622     1   122.1000523 635.131200
   1624   1627   1630     1   111.0400475 529.694400
   1627   1630   1631     1   123.2000528 564.003200
   1627   1630   1632     1   112.7300484 572.371200
   1631   1630   1632     1   122.1000523 635.131200
   1636   1639   1642     1   111.5100476 526.347200
   1639   1642   1645     1   114.2100488 537.225600
   1639   1636   1666     1   107.9700462 569.024000
   1642   1645   1646     1   109.6600471 523.836800
   1642   1645   1656     1   109.6600471 523.836800
   1645   1646   1649     1   114.2100488 537.225600
   1645   1656   1659     1   114.2100488 537.225600
   1646   1649   1652     1   111.0400475 529.694400
   1646   1645   1656     1   109.6600471 523.836800
   1649   1652   1653     1   123.2000528 564.003200
   1649   1652   1654     1   112.7300484 572.371200
   1653   1652   1654     1   122.1000523 635.131200
   1656   1659   1662     1   111.0400475 529.694400
   1659   1662   1663     1   123.2000528 564.003200
   1659   1662   1664     1   112.7300484 572.371200
   1663   1662   1664     1   122.1000523 635.131200
   1668   1671   1674     1   111.5100476 526.347200
   1671   1668   1698     1   107.9700462 569.024000
   1671   1674   1677     1   114.2100488 537.225600
   1674   1677   1678     1   109.6600471 523.836800
   1674   1677   1688     1   109.6600471 523.836800
   1677   1678   1681     1   114.2100488 537.225600
   1677   1688   1691     1   114.2100488 537.225600
   1678   1677   1688     1   109.6600471 523.836800
   1678   1681   1684     1   111.0400475 529.694400
   1681   1684   1685     1   123.2000528 564.003200
   1681   1684   1686     1   112.7300484 572.371200
   1685   1684   1686     1   122.1000523 635.131200
   1688   1691   1694     1   111.0400475 529.694400
   1691   1694   1695     1   123.2000528 564.003200
   1691   1694   1696     1   112.7300484 572.371200
   1695   1694   1696     1   122.1000523 635.131200
   1700   1703   1706     1   111.5100476 526.347200
   1703   1706   1709     1   114.2100488 537.225600
   1703   1700   1730     1   107.9700462 569.024000
   1706   1709   1710     1   109.6600471 523.836800
   1706   1709   1720     1   109.6600471 523.836800
   1709   1710   1713     1   114.2100488 537.225600
   1709   1720   1723     1   114.2100488 537.225600
   1710   1713   1716     1   111.0400475 529.694400
   1710   1709   1720     1   109.6600471 523.836800
   1713   1716   1717     1   123.2000528 564.003200
   1713   1716   1718     1   112.7300484 572.371200
   1717   1716   1718     1   122.1000523 635.131200
   1720   1723   1726     1   111.0400475 529.694400
   1723   1726   1727     1   123.2000528 564.003200
   1723   1726   1728     1   112.7300484 572.371200
   1727   1726   1728     1   122.1000523 635.131200
   1732   1735   1738     1   111.5100476 526.347200
   1735   1732   1762     1   107.9700462 569.024000
   1735   1738   1741     1   114.2100488 537.225600
   1738   1741   1742     1   109.6600471 523.836800
   1738   1741   1752     1   109.6600471 523.836800
   1741   1742   1745     1   114.2100488 537.225600
   1741   1752   1755     1   114.2100488 537.225600
   1742   1741   1752     1   109.6600471 523.836800
   1742   1745   1748     1   111.0400475 529.694400
   1745   1748   1749     1   123.2000528 564.003200
   1745   1748   1750     1   112.7300484 572.371200
   1749   1748   1750     1   122.1000523 635.131200
   1752   1755   1758     1   111.0400475 529.694400
   1755   1758   1759     1   123.2000528 564.003200
   1755   1758   1760     1   112.7300484 572.371200
   1759   1758   1760     1   122.1000523 635.131200
   1764   1767   1770     1   111.5100476 526.347200
   1767   1770   1773     1   114.2100488 537.225600
   1767   1764   1794     1   107.9700462 569.024000
   1770   1773   1774     1   109.6600471 523.836800
   1770   1773   1784     1   109.6600471 523.836800
   1773   1774   1777     1   114.2100488 537.225600
   1773   1784   1787     1   114.2100488 537.225600
   1774   1777   1780     1   111.0400475 529.694400
   1774   1773   1784     1   109.6600471 523.836800
   1777   1780   1781     1   123.2000528 564.003200
   1777   1780   1782     1   112.7300484 572.371200
   1781   1780   1782     1   122.1000523 635.131200
   1784   1787   1790     1   111.0400475 529.694400
   1787   1790   1791     1   123.2000528 564.003200
   1787   1790   1792     1   112.7300484 572.371200
   1791   1790   1792     1   122.1000523 635.131200
   1796   1799   1802     1   111.5100476 526.347200
   1799   1796   1826     1   107.9700462 569.024000
   1799   1802   1805     1   114.2100488 537.225600
   1802   1805   1806     1   109.6600471 523.836800
   1802   1805   1816     1   109.6600471 523.836800
   1805   1806   1809     1   114.2100488 537.225600
   1805   1816   1819     1   114.2100488 537.225600
   1806   1805   1816     1   109.6600471 523.836800
   1806   1809   1812     1   111.0400475 529.694400
   1809   1812   1813     1   123.2000528 564.003200
   1809   1812   1814     1   112.7300484 572.371200
   1813   1812   1814     1   122.1000523 635.131200
   1816   1819   1822     1   111.0400475 529.694400
   1819   1822   1823     1   123.2000528 564.003200
   1819   1822   1824     1   112.7300484 572.371200
   1823   1822   1824     1   122.1000523 635.131200
   1828   1831   1834     1   111.5100476 526.347200
   1831   1834   1837     1   114.2100488 537.225600
   1831   1828   1858     1   107.9700462 569.024000
   1834   1837   1838     1   109.6600471 523.836800
   1834   1837   1848     1   109.6600471 523.836800
   1837   1838   1841     1   114.2100488 537.225600
   1837   1848   1851     1   114.2100488 537.225600
   1838   1841   1844     1   111.0400475 529.694400
   1838   1837   1848     1   109.6600471 523.836800
   1841   1844   1845     1   123.2000528 564.003200
   1841   1844   1846     1   112.7300484 572.371200
   1845   1844   1846     1   122.1000523 635.131200
   1848   1851   1854     1   111.0400475 529.694400
   1851   1854   1855     1   123.2000528 564.003200
   1851   1854   1856     1   112.7300484 572.371200
   1855   1854   1856     1   122.1000523 635.131200
   1860   1863   1866     1   111.5100476 526.347200
   1863   1860   1890     1   107.9700462 569.024000
   1863   1866   1869     1   114.2100488 537.225600
   1866   1869   1870     1   109.6600471 523.836800
   1866   1869   1880     1   109.6600471 523.836800
   1869   1870   1873     1   114.2100488 537.225600
   1869   1880   1883     1   114.2100488 537.225600
   1870   1869   1880     1   109.6600471 523.836800
   1870   1873   1876     1   111.0400475 529.694400
   1873   1876   1877     1   123.2000528 564.003200
   1873   1876   1878     1   112.7300484 572.371200
   1877   1876   1878     1   122.1000523 635.131200
   1880   1883   1886     1   111.0400475 529.694400
   1883   1886   1887     1   123.2000528 564.003200
   1883   1886   1888     1   112.7300484 572.371200
   1887   1886   1888     1   122.1000523 635.131200
   1892   1895   1898     1   111.5100476 526.347200
   1895   1898   1901     1   114.2100488 537.225600
   1895   1892   1922     1   107.9700462 569.024000
   1898   1901   1902     1   109.6600471 523.836800
   1898   1901   1912     1   109.6600471 523.836800
   1901   1902   1905     1   114.2100488 537.225600
   1901   1912   1915     1   114.2100488 537.225600
   1902   1905   1908     1   111.0400475 529.694400
   1902   1901   1912     1   109.6600471 523.836800
   1905   1908   1909     1   123.2000528 564.003200
   1905   1908   1910     1   112.7300484 572.371200
   1909   1908   1910     1   122.1000523 635.131200
   1912   1915   1918     1   111.0400475 529.694400
   1915   1918   1919     1   123.2000528 564.003200
   1915   1918   1920     1   112.7300484 572.371200
   1919   1918   1920     1   122.1000523 635.131200
      1      2      3     1   109.7800468 425.094400
      1      2      4     1   109.7800468 425.094400
      1      5      6     1   109.7800468 425.094400
      1      5      7     1   109.7800468 425.094400
      2      8      9     1   109.8000471 387.438400
      2      8     10     1   109.8000471 387.438400
      3      2      8     1   109.5600471 388.275200
      3      2      4     1   108.4600466 328.025600
      4      2      8     1   109.5600471 388.275200
      5     11     12     1   109.8000471 387.438400
      5     11     13     1   109.8000471 387.438400
      6      5     11     1   109.5600471 388.275200
      6      5      7     1   108.4600466 328.025600
      7      5     11     1   109.5600471 388.275200
      8     14     15     1   110.5600475 386.601600
      8     14     16     1   110.5600475 386.601600
      9      8     14     1   109.8000471 387.438400
      9      8     10     1   107.5800459 329.699200
     10      8     14     1   109.8000471 387.438400
     11     17     18     1   110.5600475 386.601600
     11     17     19     1   110.5600475 386.601600
     12     11     17     1   109.8000471 387.438400
     12     11     13     1   107.5800459 329.699200
     13     11     17     1   109.8000471 387.438400
     14     20     58     1   110.1100470 384.091200
     15     14     20     1   108.0100461 406.684800
     15     14     16     1   109.7500473 328.025600
     16     14     20     1   108.0100461 406.684800
     17     21     59     1   110.1100470 384.091200
     18     17     21     1   108.0100461 406.684800
     18     17     19     1   109.7500473 328.025600
     19     17     21     1   108.0100461 406.684800
     20     28     29     1   108.0100461 406.684800
     20     28     30     1   108.0100461 406.684800
     20     31     32     1   108.0100461 406.684800
     20     31     33     1   108.0100461 406.684800
     21     22     23     1   108.0100461 406.684800
     21     22     24     1   108.0100461 406.684800
     21     25     26     1   108.0100461 406.684800
     21     25     27     1   108.0100461 406.684800
     22     21     59     1   110.1100470 384.091200
     22     34     35     1   109.8000471 387.438400
     22     34     36     1   109.8000471 387.438400
     23     22     34     1   110.5600475 386.601600
     23     22     24     1   109.7500473 328.025600
     24     22     34     1   110.5600475 386.601600
     25     21     59     1   110.1100470 384.091200
     25     37     38     1   109.8000471 387.438400
     25     37     39     1   109.8000471 387.438400
     26     25     37     1   110.5600475 386.601600
     26     25     27     1   109.7500473 328.025600
     27     25     37     1   110.5600475 386.601600
     28     20     58     1   110.1100470 384.091200
     28     40     41     1   109.8000471 387.438400
     28     40     42     1   109.8000471 387.438400
     29     28     40     1   110.5600475 386.601600
     29     28     30     1   109.7500473 328.025600
     30     28     40     1   110.5600475 386.601600
     31     20     58     1   110.1100470 384.091200
     31     43     44     1   109.8000471 387.438400
     31     43     45     1   109.8000471 387.438400
     32     31     43     1   110.5600475 386.601600
     32     31     33     1   109.7500473 328.025600
     33     31     43     1   110.5600475 386.601600
     34     55     56     1   109.8000471 387.438400
     34     55     57     1   109.8000471 387.438400
     35     34     55     1   109.8000471 387.438400
     35     34     36     1   107.5800459 329.699200
     36     34     55     1   109.8000471 387.438400
     37     52     53     1   109.8000471 387.438400
     37     52     54     1   109.8000471 387.438400
     38     37     52     1   109.8000471 387.438400
     38     37     39     1   107.5800459 329.699200
     39     37     52     1   109.8000471 387.438400
     40     49     50     1   109.8000471 387.438400
     40     49     51     1   109.8000471 387.438400
     41     40     49     1   109.8000471 387.438400
     41     40     42     1   107.5800459 329.699200
     42     40     49     1   109.8000471 387.438400
     43     46     47     1   109.8000471 387.438400
     43     46     48     1   109.8000471 387.438400
     44     43     46     1   109.8000471 387.438400
     44     43     45     1   107.5800459 329.699200
     45     43     46     1   109.8000471 387.438400
     47     46     88     1   108.7000466 426.768000
     47     46     48     1   107.5800459 329.699200
     48     46     88     1   108.7000466 426.768000
     50     49    118     1   108.7000466 426.768000
     50     49     51     1   107.5800459 329.699200
     51     49    118     1   108.7000466 426.768000
     53     52    148     1   108.7000466 426.768000
     53     52     54     1   107.5800459 329.699200
     54     52    148     1   108.7000466 426.768000
     56     55    178     1   108.7000466 426.768000
     56     55     57     1   107.5800459 329.699200
     57     55    178     1   108.7000466 426.768000
     60     61     62     1   108.0100461 406.684800
     60     61     63     1   108.0100461 406.684800
     60     64     65     1   108.0100461 406.684800
     60     64     66     1   108.0100461 406.684800
     60     67     68     1   108.0100461 406.684800
     60     67     69     1   108.0100461 406.684800
     61     60     89     1   110.1100470 384.091200
     61     73     74     1   109.8000471 387.438400
     61     73     75     1   109.8000471 387.438400
     62     61     73     1   110.5600475 386.601600
     62     61     63     1   109.7500473 328.025600
     63     61     73     1   110.5600475 386.601600
     64     60     89     1   110.1100470 384.091200
     64     76     77     1   109.8000471 387.438400
     64     76     78     1   109.8000471 387.438400
     65     64     76     1   110.5600475 386.601600
     65     64     66     1   109.7500473 328.025600
     66     64     76     1   110.5600475 386.601600
     67     60     89     1   110.1100470 384.091200
     67     70     71     1   109.8000471 387.438400
     67     70     72     1   109.8000471 387.438400
     68     67     70     1   110.5600475 386.601600
     68     67     69     1   109.7500473 328.025600
     69     67     70     1   110.5600475 386.601600
     70     79     80     1   109.5600471 388.275200
     70     79     81     1   109.5600471 388.275200
     71     70     79     1   109.8000471 387.438400
     71     70     72     1   107.5800459 329.699200
     72     70     79     1   109.8000471 387.438400
     73     85     86     1   109.5600471 388.275200
     73     85     87     1   109.5600471 388.275200
     74     73     85     1   109.8000471 387.438400
     74     73     75     1   107.5800459 329.699200
     75     73     85     1   109.8000471 387.438400
     76     82     83     1   109.5600471 388.275200
     76     82     84     1   109.5600471 388.275200
     77     76     82     1   109.8000471 387.438400
     77     76     78     1   107.5800459 329.699200
     78     76     82     1   109.8000471 387.438400
     80     79     88     1   109.7800468 425.094400
     80     79     81     1   108.4600466 328.025600
     81     79     88     1   109.7800468 425.094400
     83     82    208     1   109.7800468 425.094400
     83     82     84     1   108.4600466 328.025600
     84     82    208     1   109.7800468 425.094400
     86     85    238     1   109.7800468 425.094400
     86     85     87     1   108.4600466 328.025600
     87     85    238     1   109.7800468 425.094400
     90     91     92     1   108.0100461 406.684800
     90     91     93     1   108.0100461 406.684800
     90     94     95     1   108.0100461 406.684800
     90     94     96     1   108.0100461 406.684800
     90     97     98     1   108.0100461 406.684800
     90     97     99     1   108.0100461 406.684800
     91     90    119     1   110.1100470 384.091200
     91    103    104     1   109.8000471 387.438400
     91    103    105     1   109.8000471 387.438400
     92     91    103     1   110.5600475 386.601600
     92     91     93     1   109.7500473 328.025600
     93     91    103     1   110.5600475 386.601600
     94     90    119     1   110.1100470 384.091200
     94    106    107     1   109.8000471 387.438400
     94    106    108     1   109.8000471 387.438400
     95     94    106     1   110.5600475 386.601600
     95     94     96     1   109.7500473 328.025600
     96     94    106     1   110.5600475 386.601600
     97     90    119     1   110.1100470 384.091200
     97    100    101     1   109.8000471 387.438400
     97    100    102     1   109.8000471 387.438400
     98     97    100     1   110.5600475 386.601600
     98     97     99     1   109.7500473 328.025600
     99     97    100     1   110.5600475 386.601600
    100    109    110     1   109.5600471 388.275200
    100    109    111     1   109.5600471 388.275200
    101    100    109     1   109.8000471 387.438400
    101    100    102     1   107.5800459 329.699200
    102    100    109     1   109.8000471 387.438400
    103    115    116     1   109.5600471 388.275200
    103    115    117     1   109.5600471 388.275200
    104    103    115     1   109.8000471 387.438400
    104    103    105     1   107.5800459 329.699200
    105    103    115     1   109.8000471 387.438400
    106    112    113     1   109.5600471 388.275200
    106    112    114     1   109.5600471 388.275200
    107    106    112     1   109.8000471 387.438400
    107    106    108     1   107.5800459 329.699200
    108    106    112     1   109.8000471 387.438400
    110    109    118     1   109.7800468 425.094400
    110    109    111     1   108.4600466 328.025600
    111    109    118     1   109.7800468 425.094400
    113    112    268     1   109.7800468 425.094400
    113    112    114     1   108.4600466 328.025600
    114    112    268     1   109.7800468 425.094400
    116    115    298     1   109.7800468 425.094400
    116    115    117     1   108.4600466 328.025600
    117    115    298     1   109.7800468 425.094400
    120    121    122     1   108.0100461 406.684800
    120    121    123     1   108.0100461 406.684800
    120    124    125     1   108.0100461 406.684800
    120    124    126     1   108.0100461 406.684800
    120    127    128     1   108.0100461 406.684800
    120    127    129     1   108.0100461 406.684800
    121    120    149     1   110.1100470 384.091200
    121    133    134     1   109.8000471 387.438400
    121    133    135     1   109.8000471 387.438400
    122    121    133     1   110.5600475 386.601600
    122    121    123     1   109.7500473 328.025600
    123    121    133     1   110.5600475 386.601600
    124    120    149     1   110.1100470 384.091200
    124    136    137     1   109.8000471 387.438400
    124    136    138     1   109.8000471 387.438400
    125    124    136     1   110.5600475 386.601600
    125    124    126     1   109.7500473 328.025600
    126    124    136     1   110.5600475 386.601600
    127    120    149     1   110.1100470 384.091200
    127    130    131     1   109.8000471 387.438400
    127    130    132     1   109.8000471 387.438400
    128    127    130     1   110.5600475 386.601600
    128    127    129     1   109.7500473 328.025600
    129    127    130     1   110.5600475 386.601600
    130    139    140     1   109.5600471 388.275200
    130    139    141     1   109.5600471 388.275200
    131    130    139     1   109.8000471 387.438400
    131    130    132     1   107.5800459 329.699200
    132    130    139     1   109.8000471 387.438400
    133    145    146     1   109.5600471 388.275200
    133    145    147     1   109.5600471 388.275200
    134    133    145     1   109.8000471 387.438400
    134    133    135     1   107.5800459 329.699200
    135    133    145     1   109.8000471 387.438400
    136    142    143     1   109.5600471 388.275200
    136    142    144     1   109.5600471 388.275200
    137    136    142     1   109.8000471 387.438400
    137    136    138     1   107.5800459 329.699200
    138    136    142     1   109.8000471 387.438400
    140    139    148     1   109.7800468 425.094400
    140    139    141     1   108.4600466 328.025600
    141    139    148     1   109.7800468 425.094400
    143    142    328     1   109.7800468 425.094400
    143    142    144     1   108.4600466 328.025600
    144    142    328     1   109.7800468 425.094400
    146    145    358     1   109.7800468 425.094400
    146    145    147     1   108.4600466 328.025600
    147    145    358     1   109.7800468 425.094400
    150    151    152     1   108.0100461 406.684800
    150    151    153     1   108.0100461 406.684800
    150    154    155     1   108.0100461 406.684800
    150    154    156     1   108.0100461 406.684800
    150    157    158     1   108.0100461 406.684800
    150    157    159     1   108.0100461 406.684800
    151    150    179     1   110.1100470 384.091200
    151    163    164     1   109.8000471 387.438400
    151    163    165     1   109.8000471 387.438400
    152    151    163     1   110.5600475 386.601600
    152    151    153     1   109.7500473 328.025600
    153    151    163     1   110.5600475 386.601600
    154    150    179     1   110.1100470 384.091200
    154    166    167     1   109.8000471 387.438400
    154    166    168     1   109.8000471 387.438400
    155    154    166     1   110.5600475 386.601600
    155    154    156     1   109.7500473 328.025600
    156    154    166     1   110.5600475 386.601600
    157    150    179     1   110.1100470 384.091200
    157    160    161     1   109.8000471 387.438400
    157    160    162     1   109.8000471 387.438400
    158    157    160     1   110.5600475 386.601600
    158    157    159     1   109.7500473 328.025600
    159    157    160     1   110.5600475 386.601600
    160    169    170     1   109.5600471 388.275200
    160    169    171     1   109.5600471 388.275200
    161    160    169     1   109.8000471 387.438400
    161    160    162     1   107.5800459 329.699200
    162    160    169     1   109.8000471 387.438400
    163    175    176     1   109.5600471 388.275200
    163    175    177     1   109.5600471 388.275200
    164    163    175     1   109.8000471 387.438400
    164    163    165     1   107.5800459 329.699200
    165    163    175     1   109.8000471 387.438400
    166    172    173     1   109.5600471 388.275200
    166    172    174     1   109.5600471 388.275200
    167    166    172     1   109.8000471 387.438400
    167    166    168     1   107.5800459 329.699200
    168    166    172     1   109.8000471 387.438400
    170    169    178     1   109.7800468 425.094400
    170    169    171     1   108.4600466 328.025600
    171    169    178     1   109.7800468 425.094400
    173    172    388     1   109.7800468 425.094400
    173    172    174     1   108.4600466 328.025600
    174    172    388     1   109.7800468 425.094400
    176    175    418     1   109.7800468 425.094400
    176    175    177     1   108.4600466 328.025600
    177    175    418     1   109.7800468 425.094400
    180    181    182     1   108.0100461 406.684800
    180    181    183     1   108.0100461 406.684800
    180    184    185     1   108.0100461 406.684800
    180    184    186     1   108.0100461 406.684800
    180    187    188     1   108.0100461 406.684800
    180    187    189     1   108.0100461 406.684800
    181    180    209     1   110.1100470 384.091200
    181    193    194     1   109.8000471 387.438400
    181    193    195     1   109.8000471 387.438400
    182    181    193     1   110.5600475 386.601600
    182    181    183     1   109.7500473 328.025600
    183    181    193     1   110.5600475 386.601600
    184    180    209     1   110.1100470 384.091200
    184    196    197     1   109.8000471 387.438400
    184    196    198     1   109.8000471 387.438400
    185    184    196     1   110.5600475 386.601600
    185    184    186     1   109.7500473 328.025600
    186    184    196     1   110.5600475 386.601600
    187    180    209     1   110.1100470 384.091200
    187    190    191     1   109.8000471 387.438400
    187    190    192     1   109.8000471 387.438400
    188    187    190     1   110.5600475 386.601600
    188    187    189     1   109.7500473 328.025600
    189    187    190     1   110.5600475 386.601600
    190    199    200     1   109.5600471 388.275200
    190    199    201     1   109.5600471 388.275200
    191    190    199     1   109.8000471 387.438400
    191    190    192     1   107.5800459 329.699200
    192    190    199     1   109.8000471 387.438400
    193    205    206     1   109.5600471 388.275200
    193    205    207     1   109.5600471 388.275200
    194    193    205     1   109.8000471 387.438400
    194    193    195     1   107.5800459 329.699200
    195    193    205     1   109.8000471 387.438400
    196    202    203     1   109.5600471 388.275200
    196    202    204     1   109.5600471 388.275200
    197    196    202     1   109.8000471 387.438400
    197    196    198     1   107.5800459 329.699200
    198    196    202     1   109.8000471 387.438400
    200    199    208     1   109.7800468 425.094400
    200    199    201     1   108.4600466 328.025600
    201    199    208     1   109.7800468 425.094400
    203    202    448     1   109.7800468 425.094400
    203    202    204     1   108.4600466 328.025600
    204    202    448     1   109.7800468 425.094400
    206    205    478     1   109.7800468 425.094400
    206    205    207     1   108.4600466 328.025600
    207    205    478     1   109.7800468 425.094400
    210    211    212     1   108.0100461 406.684800
    210    211    213     1   108.0100461 406.684800
    210    214    215     1   108.0100461 406.684800
    210    214    216     1   108.0100461 406.684800
    210    217    218     1   108.0100461 406.684800
    210    217    219     1   108.0100461 406.684800
    211    210    239     1   110.1100470 384.091200
    211    223    224     1   109.8000471 387.438400
    211    223    225     1   109.8000471 387.438400
    212    211    223     1   110.5600475 386.601600
    212    211    213     1   109.7500473 328.025600
    213    211    223     1   110.5600475 386.601600
    214    210    239     1   110.1100470 384.091200
    214    226    227     1   109.8000471 387.438400
    214    226    228     1   109.8000471 387.438400
    215    214    226     1   110.5600475 386.601600
    215    214    216     1   109.7500473 328.025600
    216    214    226     1   110.5600475 386.601600
    217    210    239     1   110.1100470 384.091200
    217    220    221     1   109.8000471 387.438400
    217    220    222     1   109.8000471 387.438400
    218    217    220     1   110.5600475 386.601600
    218    217    219     1   109.7500473 328.025600
    219    217    220     1   110.5600475 386.601600
    220    229    230     1   109.5600471 388.275200
    220    229    231     1   109.5600471 388.275200
    221    220    229     1   109.8000471 387.438400
    221    220    222     1   107.5800459 329.699200
    222    220    229     1   109.8000471 387.438400
    223    235    236     1   109.5600471 388.275200
    223    235    237     1   109.5600471 388.275200
    224    223    235     1   109.8000471 387.438400
    224    223    225     1   107.5800459 329.699200
    225    223    235     1   109.8000471 387.438400
    226    232    233     1   109.5600471 388.275200
    226    232    234     1   109.5600471 388.275200
    227    226    232     1   109.8000471 387.438400
    227    226    228     1   107.5800459 329.699200
    228    226    232     1   109.8000471 387.438400
    230    229    238     1   109.7800468 425.094400
    230    229    231     1   108.4600466 328.025600
    231    229    238     1   109.7800468 425.094400
    233    232    508     1   109.7800468 425.094400
    233    232    234     1   108.4600466 328.025600
    234    232    508     1   109.7800468 425.094400
    236    235    538     1   109.7800468 425.094400
    236    235    237     1   108.4600466 328.025600
    237    235    538     1   109.7800468 425.094400
    240    241    242     1   108.0100461 406.684800
    240    241    243     1   108.0100461 406.684800
    240    244    245     1   108.0100461 406.684800
    240    244    246     1   108.0100461 406.684800
    240    247    248     1   108.0100461 406.684800
    240    247    249     1   108.0100461 406.684800
    241    240    269     1   110.1100470 384.091200
    241    253    254     1   109.8000471 387.438400
    241    253    255     1   109.8000471 387.438400
    242    241    253     1   110.5600475 386.601600
    242    241    243     1   109.7500473 328.025600
    243    241    253     1   110.5600475 386.601600
    244    240    269     1   110.1100470 384.091200
    244    256    257     1   109.8000471 387.438400
    244    256    258     1   109.8000471 387.438400
    245    244    256     1   110.5600475 386.601600
    245    244    246     1   109.7500473 328.025600
    246    244    256     1   110.5600475 386.601600
    247    240    269     1   110.1100470 384.091200
    247    250    251     1   109.8000471 387.438400
    247    250    252     1   109.8000471 387.438400
    248    247    250     1   110.5600475 386.601600
    248    247    249     1   109.7500473 328.025600
    249    247    250     1   110.5600475 386.601600
    250    259    260     1   109.5600471 388.275200
    250    259    261     1   109.5600471 388.275200
    251    250    259     1   109.8000471 387.438400
    251    250    252     1   107.5800459 329.699200
    252    250    259     1   109.8000471 387.438400
    253    265    266     1   109.5600471 388.275200
    253    265    267     1   109.5600471 388.275200
    254    253    265     1   109.8000471 387.438400
    254    253    255     1   107.5800459 329.699200
    255    253    265     1   109.8000471 387.438400
    256    262    263     1   109.5600471 388.275200
    256    262    264     1   109.5600471 388.275200
    257    256    262     1   109.8000471 387.438400
    257    256    258     1   107.5800459 329.699200
    258    256    262     1   109.8000471 387.438400
    260    259    268     1   109.7800468 425.094400
    260    259    261     1   108.4600466 328.025600
    261    259    268     1   109.7800468 425.094400
    263    262    568     1   109.7800468 425.094400
    263    262    264     1   108.4600466 328.025600
    264    262    568     1   109.7800468 425.094400
    266    265    598     1   109.7800468 425.094400
    266    265    267     1   108.4600466 328.025600
    267    265    598     1   109.7800468 425.094400
    270    271    272     1   108.0100461 406.684800
    270    271    273     1   108.0100461 406.684800
    270    274    275     1   108.0100461 406.684800
    270    274    276     1   108.0100461 406.684800
    270    277    278     1   108.0100461 406.684800
    270    277    279     1   108.0100461 406.684800
    271    270    299     1   110.1100470 384.091200
    271    283    284     1   109.8000471 387.438400
    271    283    285     1   109.8000471 387.438400
    272    271    283     1   110.5600475 386.601600
    272    271    273     1   109.7500473 328.025600
    273    271    283     1   110.5600475 386.601600
    274    270    299     1   110.1100470 384.091200
    274    286    287     1   109.8000471 387.438400
    274    286    288     1   109.8000471 387.438400
    275    274    286     1   110.5600475 386.601600
    275    274    276     1   109.7500473 328.025600
    276    274    286     1   110.5600475 386.601600
    277    270    299     1   110.1100470 384.091200
    277    280    281     1   109.8000471 387.438400
    277    280    282     1   109.8000471 387.438400
    278    277    280     1   110.5600475 386.601600
    278    277    279     1   109.7500473 328.025600
    279    277    280     1   110.5600475 386.601600
    280    289    290     1   109.5600471 388.275200
    280    289    291     1   109.5600471 388.275200
    281    280    289     1   109.8000471 387.438400
    281    280    282     1   107.5800459 329.699200
    282    280    289     1   109.8000471 387.438400
    283    295    296     1   109.5600471 388.275200
    283    295    297     1   109.5600471 388.275200
    284    283    295     1   109.8000471 387.438400
    284    283    285     1   107.5800459 329.699200
    285    283    295     1   109.8000471 387.438400
    286    292    293     1   109.5600471 388.275200
    286    292    294     1   109.5600471 388.275200
    287    286    292     1   109.8000471 387.438400
    287    286    288     1   107.5800459 329.699200
    288    286    292     1   109.8000471 387.438400
    290    289    298     1   109.7800468 425.094400
    290    289    291     1   108.4600466 328.025600
    291    289    298     1   109.7800468 425.094400
    293    292    628     1   109.7800468 425.094400
    293    292    294     1   108.4600466 328.025600
    294    292    628     1   109.7800468 425.094400
    296    295    658     1   109.7800468 425.094400
    296    295    297     1   108.4600466 328.025600
    297    295    658     1   109.7800468 425.094400
    300    301    302     1   108.0100461 406.684800
    300    301    303     1   108.0100461 406.684800
    300    304    305     1   108.0100461 406.684800
    300    304    306     1   108.0100461 406.684800
    300    307    308     1   108.0100461 406.684800
    300    307    309     1   108.0100461 406.684800
    301    300    329     1   110.1100470 384.091200
    301    313    314     1   109.8000471 387.438400
    301    313    315     1   109.8000471 387.438400
    302    301    313     1   110.5600475 386.601600
    302    301    303     1   109.7500473 328.025600
    303    301    313     1   110.5600475 386.601600
    304    300    329     1   110.1100470 384.091200
    304    316    317     1   109.8000471 387.438400
    304    316    318     1   109.8000471 387.438400
    305    304    316     1   110.5600475 386.601600
    305    304    306     1   109.7500473 328.025600
    306    304    316     1   110.5600475 386.601600
    307    300    329     1   110.1100470 384.091200
    307    310    311     1   109.8000471 387.438400
    307    310    312     1   109.8000471 387.438400
    308    307    310     1   110.5600475 386.601600
    308    307    309     1   109.7500473 328.025600
    309    307    310     1   110.5600475 386.601600
    310    319    320     1   109.5600471 388.275200
    310    319    321     1   109.5600471 388.275200
    311    310    319     1   109.8000471 387.438400
    311    310    312     1   107.5800459 329.699200
    312    310    319     1   109.8000471 387.438400
    313    325    326     1   109.5600471 388.275200
    313    325    327     1   109.5600471 388.275200
    314    313    325     1   109.8000471 387.438400
    314    313    315     1   107.5800459 329.699200
    315    313    325     1   109.8000471 387.438400
    316    322    323     1   109.5600471 388.275200
    316    322    324     1   109.5600471 388.275200
    317    316    322     1   109.8000471 387.438400
    317    316    318     1   107.5800459 329.699200
    318    316    322     1   109.8000471 387.438400
    320    319    328     1   109.7800468 425.094400
    320    319    321     1   108.4600466 328.025600
    321    319    328     1   109.7800468 425.094400
    323    322    688     1   109.7800468 425.094400
    323    322    324     1   108.4600466 328.025600
    324    322    688     1   109.7800468 425.094400
    326    325    718     1   109.7800468 425.094400
    326    325    327     1   108.4600466 328.025600
    327    325    718     1   109.7800468 425.094400
    330    331    332     1   108.0100461 406.684800
    330    331    333     1   108.0100461 406.684800
    330    334    335     1   108.0100461 406.684800
    330    334    336     1   108.0100461 406.684800
    330    337    338     1   108.0100461 406.684800
    330    337    339     1   108.0100461 406.684800
    331    330    359     1   110.1100470 384.091200
    331    343    344     1   109.8000471 387.438400
    331    343    345     1   109.8000471 387.438400
    332    331    343     1   110.5600475 386.601600
    332    331    333     1   109.7500473 328.025600
    333    331    343     1   110.5600475 386.601600
    334    330    359     1   110.1100470 384.091200
    334    346    347     1   109.8000471 387.438400
    334    346    348     1   109.8000471 387.438400
    335    334    346     1   110.5600475 386.601600
    335    334    336     1   109.7500473 328.025600
    336    334    346     1   110.5600475 386.601600
    337    330    359     1   110.1100470 384.091200
    337    340    341     1   109.8000471 387.438400
    337    340    342     1   109.8000471 387.438400
    338    337    340     1   110.5600475 386.601600
    338    337    339     1   109.7500473 328.025600
    339    337    340     1   110.5600475 386.601600
    340    349    350     1   109.5600471 388.275200
    340    349    351     1   109.5600471 388.275200
    341    340    349     1   109.8000471 387.438400
    341    340    342     1   107.5800459 329.699200
    342    340    349     1   109.8000471 387.438400
    343    355    356     1   109.5600471 388.275200
    343    355    357     1   109.5600471 388.275200
    344    343    355     1   109.8000471 387.438400
    344    343    345     1   107.5800459 329.699200
    345    343    355     1   109.8000471 387.438400
    346    352    353     1   109.5600471 388.275200
    346    352    354     1   109.5600471 388.275200
    347    346    352     1   109.8000471 387.438400
    347    346    348     1   107.5800459 329.699200
    348    346    352     1   109.8000471 387.438400
    350    349    358     1   109.7800468 425.094400
    350    349    351     1   108.4600466 328.025600
    351    349    358     1   109.7800468 425.094400
    353    352    748     1   109.7800468 425.094400
    353    352    354     1   108.4600466 328.025600
    354    352    748     1   109.7800468 425.094400
    356    355    778     1   109.7800468 425.094400
    356    355    357     1   108.4600466 328.025600
    357    355    778     1   109.7800468 425.094400
    360    361    362     1   108.0100461 406.684800
    360    361    363     1   108.0100461 406.684800
    360    364    365     1   108.0100461 406.684800
    360    364    366     1   108.0100461 406.684800
    360    367    368     1   108.0100461 406.684800
    360    367    369     1   108.0100461 406.684800
    361    360    389     1   110.1100470 384.091200
    361    373    374     1   109.8000471 387.438400
    361    373    375     1   109.8000471 387.438400
    362    361    373     1   110.5600475 386.601600
    362    361    363     1   109.7500473 328.025600
    363    361    373     1   110.5600475 386.601600
    364    360    389     1   110.1100470 384.091200
    364    376    377     1   109.8000471 387.438400
    364    376    378     1   109.8000471 387.438400
    365    364    376     1   110.5600475 386.601600
    365    364    366     1   109.7500473 328.025600
    366    364    376     1   110.5600475 386.601600
    367    360    389     1   110.1100470 384.091200
    367    370    371     1   109.8000471 387.438400
    367    370    372     1   109.8000471 387.438400
    368    367    370     1   110.5600475 386.601600
    368    367    369     1   109.7500473 328.025600
    369    367    370     1   110.5600475 386.601600
    370    379    380     1   109.5600471 388.275200
    370    379    381     1   109.5600471 388.275200
    371    370    379     1   109.8000471 387.438400
    371    370    372     1   107.5800459 329.699200
    372    370    379     1   109.8000471 387.438400
    373    385    386     1   109.5600471 388.275200
    373    385    387     1   109.5600471 388.275200
    374    373    385     1   109.8000471 387.438400
    374    373    375     1   107.5800459 329.699200
    375    373    385     1   109.8000471 387.438400
    376    382    383     1   109.5600471 388.275200
    376    382    384     1   109.5600471 388.275200
    377    376    382     1   109.8000471 387.438400
    377    376    378     1   107.5800459 329.699200
    378    376    382     1   109.8000471 387.438400
    380    379    388     1   109.7800468 425.094400
    380    379    381     1   108.4600466 328.025600
    381    379    388     1   109.7800468 425.094400
    383    382    808     1   109.7800468 425.094400
    383    382    384     1   108.4600466 328.025600
    384    382    808     1   109.7800468 425.094400
    386    385    838     1   109.7800468 425.094400
    386    385    387     1   108.4600466 328.025600
    387    385    838     1   109.7800468 425.094400
    390    391    392     1   108.0100461 406.684800
    390    391    393     1   108.0100461 406.684800
    390    394    395     1   108.0100461 406.684800
    390    394    396     1   108.0100461 406.684800
    390    397    398     1   108.0100461 406.684800
    390    397    399     1   108.0100461 406.684800
    391    390    419     1   110.1100470 384.091200
    391    403    404     1   109.8000471 387.438400
    391    403    405     1   109.8000471 387.438400
    392    391    403     1   110.5600475 386.601600
    392    391    393     1   109.7500473 328.025600
    393    391    403     1   110.5600475 386.601600
    394    390    419     1   110.1100470 384.091200
    394    406    407     1   109.8000471 387.438400
    394    406    408     1   109.8000471 387.438400
    395    394    406     1   110.5600475 386.601600
    395    394    396     1   109.7500473 328.025600
    396    394    406     1   110.5600475 386.601600
    397    390    419     1   110.1100470 384.091200
    397    400    401     1   109.8000471 387.438400
    397    400    402     1   109.8000471 387.438400
    398    397    400     1   110.5600475 386.601600
    398    397    399     1   109.7500473 328.025600
    399    397    400     1   110.5600475 386.601600
    400    409    410     1   109.5600471 388.275200
    400    409    411     1   109.5600471 388.275200
    401    400    409     1   109.8000471 387.438400
    401    400    402     1   107.5800459 329.699200
    402    400    409     1   109.8000471 387.438400
    403    415    416     1   109.5600471 388.275200
    403    415    417     1   109.5600471 388.275200
    404    403    415     1   109.8000471 387.438400
    404    403    405     1   107.5800459 329.699200
    405    403    415     1   109.8000471 387.438400
    406    412    413     1   109.5600471 388.275200
    406    412    414     1   109.5600471 388.275200
    407    406    412     1   109.8000471 387.438400
    407    406    408     1   107.5800459 329.699200
    408    406    412     1   109.8000471 387.438400
    410    409    418     1   109.7800468 425.094400
    410    409    411     1   108.4600466 328.025600
    411    409    418     1   109.7800468 425.094400
    413    412    868     1   109.7800468 425.094400
    413    412    414     1   108.4600466 328.025600
    414    412    868     1   109.7800468 425.094400
    416    415    898     1   109.7800468 425.094400
    416    415    417     1   108.4600466 328.025600
    417    415    898     1   109.7800468 425.094400
    420    421    422     1   108.0100461 406.684800
    420    421    423     1   108.0100461 406.684800
    420    424    425     1   108.0100461 406.684800
    420    424    426     1   108.0100461 406.684800
    420    427    428     1   108.0100461 406.684800
    420    427    429     1   108.0100461 406.684800
    421    420    449     1   110.1100470 384.091200
    421    433    434     1   109.8000471 387.438400
    421    433    435     1   109.8000471 387.438400
    422    421    433     1   110.5600475 386.601600
    422    421    423     1   109.7500473 328.025600
    423    421    433     1   110.5600475 386.601600
    424    420    449     1   110.1100470 384.091200
    424    436    437     1   109.8000471 387.438400
    424    436    438     1   109.8000471 387.438400
    425    424    436     1   110.5600475 386.601600
    425    424    426     1   109.7500473 328.025600
    426    424    436     1   110.5600475 386.601600
    427    420    449     1   110.1100470 384.091200
    427    430    431     1   109.8000471 387.438400
    427    430    432     1   109.8000471 387.438400
    428    427    430     1   110.5600475 386.601600
    428    427    429     1   109.7500473 328.025600
    429    427    430     1   110.5600475 386.601600
    430    439    440     1   109.5600471 388.275200
    430    439    441     1   109.5600471 388.275200
    431    430    439     1   109.8000471 387.438400
    431    430    432     1   107.5800459 329.699200
    432    430    439     1   109.8000471 387.438400
    433    445    446     1   109.5600471 388.275200
    433    445    447     1   109.5600471 388.275200
    434    433    445     1   109.8000471 387.438400
    434    433    435     1   107.5800459 329.699200
    435    433    445     1   109.8000471 387.438400
    436    442    443     1   109.5600471 388.275200
    436    442    444     1   109.5600471 388.275200
    437    436    442     1   109.8000471 387.438400
    437    436    438     1   107.5800459 329.699200
    438    436    442     1   109.8000471 387.438400
    440    439    448     1   109.7800468 425.094400
    440    439    441     1   108.4600466 328.025600
    441    439    448     1   109.7800468 425.094400
    443    442    930     1   109.7800468 425.094400
    443    442    444     1   108.4600466 328.025600
    444    442    930     1   109.7800468 425.094400
    446    445    962     1   109.7800468 425.094400
    446    445    447     1   108.4600466 328.025600
    447    445    962     1   109.7800468 425.094400
    450    451    452     1   108.0100461 406.684800
    450    451    453     1   108.0100461 406.684800
    450    454    455     1   108.0100461 406.684800
    450    454    456     1   108.0100461 406.684800
    450    457    458     1   108.0100461 406.684800
    450    457    459     1   108.0100461 406.684800
    451    450    479     1   110.1100470 384.091200
    451    463    464     1   109.8000471 387.438400
    451    463    465     1   109.8000471 387.438400
    452    451    463     1   110.5600475 386.601600
    452    451    453     1   109.7500473 328.025600
    453    451    463     1   110.5600475 386.601600
    454    450    479     1   110.1100470 384.091200
    454    466    467     1   109.8000471 387.438400
    454    466    468     1   109.8000471 387.438400
    455    454    466     1   110.5600475 386.601600
    455    454    456     1   109.7500473 328.025600
    456    454    466     1   110.5600475 386.601600
    457    450    479     1   110.1100470 384.091200
    457    460    461     1   109.8000471 387.438400
    457    460    462     1   109.8000471 387.438400
    458    457    460     1   110.5600475 386.601600
    458    457    459     1   109.7500473 328.025600
    459    457    460     1   110.5600475 386.601600
    460    469    470     1   109.5600471 388.275200
    460    469    471     1   109.5600471 388.275200
    461    460    469     1   109.8000471 387.438400
    461    460    462     1   107.5800459 329.699200
    462    460    469     1   109.8000471 387.438400
    463    475    476     1   109.5600471 388.275200
    463    475    477     1   109.5600471 388.275200
    464    463    475     1   109.8000471 387.438400
    464    463    465     1   107.5800459 329.699200
    465    463    475     1   109.8000471 387.438400
    466    472    473     1   109.5600471 388.275200
    466    472    474     1   109.5600471 388.275200
    467    466    472     1   109.8000471 387.438400
    467    466    468     1   107.5800459 329.699200
    468    466    472     1   109.8000471 387.438400
    470    469    478     1   109.7800468 425.094400
    470    469    471     1   108.4600466 328.025600
    471    469    478     1   109.7800468 425.094400
    473    472    994     1   109.7800468 425.094400
    473    472    474     1   108.4600466 328.025600
    474    472    994     1   109.7800468 425.094400
    476    475   1026     1   109.7800468 425.094400
    476    475    477     1   108.4600466 328.025600
    477    475   1026     1   109.7800468 425.094400
    480    481    482     1   108.0100461 406.684800
    480    481    483     1   108.0100461 406.684800
    480    484    485     1   108.0100461 406.684800
    480    484    486     1   108.0100461 406.684800
    480    487    488     1   108.0100461 406.684800
    480    487    489     1   108.0100461 406.684800
    481    480    509     1   110.1100470 384.091200
    481    493    494     1   109.8000471 387.438400
    481    493    495     1   109.8000471 387.438400
    482    481    493     1   110.5600475 386.601600
    482    481    483     1   109.7500473 328.025600
    483    481    493     1   110.5600475 386.601600
    484    480    509     1   110.1100470 384.091200
    484    496    497     1   109.8000471 387.438400
    484    496    498     1   109.8000471 387.438400
    485    484    496     1   110.5600475 386.601600
    485    484    486     1   109.7500473 328.025600
    486    484    496     1   110.5600475 386.601600
    487    480    509     1   110.1100470 384.091200
    487    490    491     1   109.8000471 387.438400
    487    490    492     1   109.8000471 387.438400
    488    487    490     1   110.5600475 386.601600
    488    487    489     1   109.7500473 328.025600
    489    487    490     1   110.5600475 386.601600
    490    499    500     1   109.5600471 388.275200
    490    499    501     1   109.5600471 388.275200
    491    490    499     1   109.8000471 387.438400
    491    490    492     1   107.5800459 329.699200
    492    490    499     1   109.8000471 387.438400
    493    505    506     1   109.5600471 388.275200
    493    505    507     1   109.5600471 388.275200
    494    493    505     1   109.8000471 387.438400
    494    493    495     1   107.5800459 329.699200
    495    493    505     1   109.8000471 387.438400
    496    502    503     1   109.5600471 388.275200
    496    502    504     1   109.5600471 388.275200
    497    496    502     1   109.8000471 387.438400
    497    496    498     1   107.5800459 329.699200
    498    496    502     1   109.8000471 387.438400
    500    499    508     1   109.7800468 425.094400
    500    499    501     1   108.4600466 328.025600
    501    499    508     1   109.7800468 425.094400
    503    502   1058     1   109.7800468 425.094400
    503    502    504     1   108.4600466 328.025600
    504    502   1058     1   109.7800468 425.094400
    506    505   1090     1   109.7800468 425.094400
    506    505    507     1   108.4600466 328.025600
    507    505   1090     1   109.7800468 425.094400
    510    511    512     1   108.0100461 406.684800
    510    511    513     1   108.0100461 406.684800
    510    514    515     1   108.0100461 406.684800
    510    514    516     1   108.0100461 406.684800
    510    517    518     1   108.0100461 406.684800
    510    517    519     1   108.0100461 406.684800
    511    510    539     1   110.1100470 384.091200
    511    523    524     1   109.8000471 387.438400
    511    523    525     1   109.8000471 387.438400
    512    511    523     1   110.5600475 386.601600
    512    511    513     1   109.7500473 328.025600
    513    511    523     1   110.5600475 386.601600
    514    510    539     1   110.1100470 384.091200
    514    526    527     1   109.8000471 387.438400
    514    526    528     1   109.8000471 387.438400
    515    514    526     1   110.5600475 386.601600
    515    514    516     1   109.7500473 328.025600
    516    514    526     1   110.5600475 386.601600
    517    510    539     1   110.1100470 384.091200
    517    520    521     1   109.8000471 387.438400
    517    520    522     1   109.8000471 387.438400
    518    517    520     1   110.5600475 386.601600
    518    517    519     1   109.7500473 328.025600
    519    517    520     1   110.5600475 386.601600
    520    529    530     1   109.5600471 388.275200
    520    529    531     1   109.5600471 388.275200
    521    520    529     1   109.8000471 387.438400
    521    520    522     1   107.5800459 329.699200
    522    520    529     1   109.8000471 387.438400
    523    535    536     1   109.5600471 388.275200
    523    535    537     1   109.5600471 388.275200
    524    523    535     1   109.8000471 387.438400
    524    523    525     1   107.5800459 329.699200
    525    523    535     1   109.8000471 387.438400
    526    532    533     1   109.5600471 388.275200
    526    532    534     1   109.5600471 388.275200
    527    526    532     1   109.8000471 387.438400
    527    526    528     1   107.5800459 329.699200
    528    526    532     1   109.8000471 387.438400
    530    529    538     1   109.7800468 425.094400
    530    529    531     1   108.4600466 328.025600
    531    529    538     1   109.7800468 425.094400
    533    532   1122     1   109.7800468 425.094400
    533    532    534     1   108.4600466 328.025600
    534    532   1122     1   109.7800468 425.094400
    536    535   1154     1   109.7800468 425.094400
    536    535    537     1   108.4600466 328.025600
    537    535   1154     1   109.7800468 425.094400
    540    541    542     1   108.0100461 406.684800
    540    541    543     1   108.0100461 406.684800
    540    544    545     1   108.0100461 406.684800
    540    544    546     1   108.0100461 406.684800
    540    547    548     1   108.0100461 406.684800
    540    547    549     1   108.0100461 406.684800
    541    540    569     1   110.1100470 384.091200
    541    553    554     1   109.8000471 387.438400
    541    553    555     1   109.8000471 387.438400
    542    541    553     1   110.5600475 386.601600
    542    541    543     1   109.7500473 328.025600
    543    541    553     1   110.5600475 386.601600
    544    540    569     1   110.1100470 384.091200
    544    556    557     1   109.8000471 387.438400
    544    556    558     1   109.8000471 387.438400
    545    544    556     1   110.5600475 386.601600
    545    544    546     1   109.7500473 328.025600
    546    544    556     1   110.5600475 386.601600
    547    540    569     1   110.1100470 384.091200
    547    550    551     1   109.8000471 387.438400
    547    550    552     1   109.8000471 387.438400
    548    547    550     1   110.5600475 386.601600
    548    547    549     1   109.7500473 328.025600
    549    547    550     1   110.5600475 386.601600
    550    559    560     1   109.5600471 388.275200
    550    559    561     1   109.5600471 388.275200
    551    550    559     1   109.8000471 387.438400
    551    550    552     1   107.5800459 329.699200
    552    550    559     1   109.8000471 387.438400
    553    565    566     1   109.5600471 388.275200
    553    565    567     1   109.5600471 388.275200
    554    553    565     1   109.8000471 387.438400
    554    553    555     1   107.5800459 329.699200
    555    553    565     1   109.8000471 387.438400
    556    562    563     1   109.5600471 388.275200
    556    562    564     1   109.5600471 388.275200
    557    556    562     1   109.8000471 387.438400
    557    556    558     1   107.5800459 329.699200
    558    556    562     1   109.8000471 387.438400
    560    559    568     1   109.7800468 425.094400
    560    559    561     1   108.4600466 328.025600
    561    559    568     1   109.7800468 425.094400
    563    562   1186     1   109.7800468 425.094400
    563    562    564     1   108.4600466 328.025600
    564    562   1186     1   109.7800468 425.094400
    566    565   1218     1   109.7800468 425.094400
    566    565    567     1   108.4600466 328.025600
    567    565   1218     1   109.7800468 425.094400
    570    571    572     1   108.0100461 406.684800
    570    571    573     1   108.0100461 406.684800
    570    574    575     1   108.0100461 406.684800
    570    574    576     1   108.0100461 406.684800
    570    577    578     1   108.0100461 406.684800
    570    577    579     1   108.0100461 406.684800
    571    570    599     1   110.1100470 384.091200
    571    583    584     1   109.8000471 387.438400
    571    583    585     1   109.8000471 387.438400
    572    571    583     1   110.5600475 386.601600
    572    571    573     1   109.7500473 328.025600
    573    571    583     1   110.5600475 386.601600
    574    570    599     1   110.1100470 384.091200
    574    586    587     1   109.8000471 387.438400
    574    586    588     1   109.8000471 387.438400
    575    574    586     1   110.5600475 386.601600
    575    574    576     1   109.7500473 328.025600
    576    574    586     1   110.5600475 386.601600
    577    570    599     1   110.1100470 384.091200
    577    580    581     1   109.8000471 387.438400
    577    580    582     1   109.8000471 387.438400
    578    577    580     1   110.5600475 386.601600
    578    577    579     1   109.7500473 328.025600
    579    577    580     1   110.5600475 386.601600
    580    589    590     1   109.5600471 388.275200
    580    589    591     1   109.5600471 388.275200
    581    580    589     1   109.8000471 387.438400
    581    580    582     1   107.5800459 329.699200
    582    580    589     1   109.8000471 387.438400
    583    595    596     1   109.5600471 388.275200
    583    595    597     1   109.5600471 388.275200
    584    583    595     1   109.8000471 387.438400
    584    583    585     1   107.5800459 329.699200
    585    583    595     1   109.8000471 387.438400
    586    592    593     1   109.5600471 388.275200
    586    592    594     1   109.5600471 388.275200
    587    586    592     1   109.8000471 387.438400
    587    586    588     1   107.5800459 329.699200
    588    586    592     1   109.8000471 387.438400
    590    589    598     1   109.7800468 425.094400
    590    589    591     1   108.4600466 328.025600
    591    589    598     1   109.7800468 425.094400
    593    592   1250     1   109.7800468 425.094400
    593    592    594     1   108.4600466 328.025600
    594    592   1250     1   109.7800468 425.094400
    596    595   1282     1   109.7800468 425.094400
    596    595    597     1   108.4600466 328.025600
    597    595   1282     1   109.7800468 425.094400
    600    601    602     1   108.0100461 406.684800
    600    601    603     1   108.0100461 406.684800
    600    604    605     1   108.0100461 406.684800
    600    604    606     1   108.0100461 406.684800
    600    607    608     1   108.0100461 406.684800
    600    607    609     1   108.0100461 406.684800
    601    600    629     1   110.1100470 384.091200
    601    613    614     1   109.8000471 387.438400
    601    613    615     1   109.8000471 387.438400
    602    601    613     1   110.5600475 386.601600
    602    601    603     1   109.7500473 328.025600
    603    601    613     1   110.5600475 386.601600
    604    600    629     1   110.1100470 384.091200
    604    616    617     1   109.8000471 387.438400
    604    616    618     1   109.8000471 387.438400
    605    604    616     1   110.5600475 386.601600
    605    604    606     1   109.7500473 328.025600
    606    604    616     1   110.5600475 386.601600
    607    600    629     1   110.1100470 384.091200
    607    610    611     1   109.8000471 387.438400
    607    610    612     1   109.8000471 387.438400
    608    607    610     1   110.5600475 386.601600
    608    607    609     1   109.7500473 328.025600
    609    607    610     1   110.5600475 386.601600
    610    619    620     1   109.5600471 388.275200
    610    619    621     1   109.5600471 388.275200
    611    610    619     1   109.8000471 387.438400
    611    610    612     1   107.5800459 329.699200
    612    610    619     1   109.8000471 387.438400
    613    625    626     1   109.5600471 388.275200
    613    625    627     1   109.5600471 388.275200
    614    613    625     1   109.8000471 387.438400
    614    613    615     1   107.5800459 329.699200
    615    613    625     1   109.8000471 387.438400
    616    622    623     1   109.5600471 388.275200
    616    622    624     1   109.5600471 388.275200
    617    616    622     1   109.8000471 387.438400
    617    616    618     1   107.5800459 329.699200
    618    616    622     1   109.8000471 387.438400
    620    619    628     1   109.7800468 425.094400
    620    619    621     1   108.4600466 328.025600
    621    619    628     1   109.7800468 425.094400
    623    622   1314     1   109.7800468 425.094400
    623    622    624     1   108.4600466 328.025600
    624    622   1314     1   109.7800468 425.094400
    626    625   1346     1   109.7800468 425.094400
    626    625    627     1   108.4600466 328.025600
    627    625   1346     1   109.7800468 425.094400
    630    631    632     1   108.0100461 406.684800
    630    631    633     1   108.0100461 406.684800
    630    634    635     1   108.0100461 406.684800
    630    634    636     1   108.0100461 406.684800
    630    637    638     1   108.0100461 406.684800
    630    637    639     1   108.0100461 406.684800
    631    630    659     1   110.1100470 384.091200
    631    643    644     1   109.8000471 387.438400
    631    643    645     1   109.8000471 387.438400
    632    631    643     1   110.5600475 386.601600
    632    631    633     1   109.7500473 328.025600
    633    631    643     1   110.5600475 386.601600
    634    630    659     1   110.1100470 384.091200
    634    646    647     1   109.8000471 387.438400
    634    646    648     1   109.8000471 387.438400
    635    634    646     1   110.5600475 386.601600
    635    634    636     1   109.7500473 328.025600
    636    634    646     1   110.5600475 386.601600
    637    630    659     1   110.1100470 384.091200
    637    640    641     1   109.8000471 387.438400
    637    640    642     1   109.8000471 387.438400
    638    637    640     1   110.5600475 386.601600
    638    637    639     1   109.7500473 328.025600
    639    637    640     1   110.5600475 386.601600
    640    649    650     1   109.5600471 388.275200
    640    649    651     1   109.5600471 388.275200
    641    640    649     1   109.8000471 387.438400
    641    640    642     1   107.5800459 329.699200
    642    640    649     1   109.8000471 387.438400
    643    655    656     1   109.5600471 388.275200
    643    655    657     1   109.5600471 388.275200
    644    643    655     1   109.8000471 387.438400
    644    643    645     1   107.5800459 329.699200
    645    643    655     1   109.8000471 387.438400
    646    652    653     1   109.5600471 388.275200
    646    652    654     1   109.5600471 388.275200
    647    646    652     1   109.8000471 387.438400
    647    646    648     1   107.5800459 329.699200
    648    646    652     1   109.8000471 387.438400
    650    649    658     1   109.7800468 425.094400
    650    649    651     1   108.4600466 328.025600
    651    649    658     1   109.7800468 425.094400
    653    652   1378     1   109.7800468 425.094400
    653    652    654     1   108.4600466 328.025600
    654    652   1378     1   109.7800468 425.094400
    656    655   1410     1   109.7800468 425.094400
    656    655    657     1   108.4600466 328.025600
    657    655   1410     1   109.7800468 425.094400
    660    661    662     1   108.0100461 406.684800
    660    661    663     1   108.0100461 406.684800
    660    664    665     1   108.0100461 406.684800
    660    664    666     1   108.0100461 406.684800
    660    667    668     1   108.0100461 406.684800
    660    667    669     1   108.0100461 406.684800
    661    660    689     1   110.1100470 384.091200
    661    673    674     1   109.8000471 387.438400
    661    673    675     1   109.8000471 387.438400
    662    661    673     1   110.5600475 386.601600
    662    661    663     1   109.7500473 328.025600
    663    661    673     1   110.5600475 386.601600
    664    660    689     1   110.1100470 384.091200
    664    676    677     1   109.8000471 387.438400
    664    676    678     1   109.8000471 387.438400
    665    664    676     1   110.5600475 386.601600
    665    664    666     1   109.7500473 328.025600
    666    664    676     1   110.5600475 386.601600
    667    660    689     1   110.1100470 384.091200
    667    670    671     1   109.8000471 387.438400
    667    670    672     1   109.8000471 387.438400
    668    667    670     1   110.5600475 386.601600
    668    667    669     1   109.7500473 328.025600
    669    667    670     1   110.5600475 386.601600
    670    679    680     1   109.5600471 388.275200
    670    679    681     1   109.5600471 388.275200
    671    670    679     1   109.8000471 387.438400
    671    670    672     1   107.5800459 329.699200
    672    670    679     1   109.8000471 387.438400
    673    685    686     1   109.5600471 388.275200
    673    685    687     1   109.5600471 388.275200
    674    673    685     1   109.8000471 387.438400
    674    673    675     1   107.5800459 329.699200
    675    673    685     1   109.8000471 387.438400
    676    682    683     1   109.5600471 388.275200
    676    682    684     1   109.5600471 388.275200
    677    676    682     1   109.8000471 387.438400
    677    676    678     1   107.5800459 329.699200
    678    676    682     1   109.8000471 387.438400
    680    679    688     1   109.7800468 425.094400
    680    679    681     1   108.4600466 328.025600
    681    679    688     1   109.7800468 425.094400
    683    682   1442     1   109.7800468 425.094400
    683    682    684     1   108.4600466 328.025600
    684    682   1442     1   109.7800468 425.094400
    686    685   1474     1   109.7800468 425.094400
    686    685    687     1   108.4600466 328.025600
    687    685   1474     1   109.7800468 425.094400
    690    691    692     1   108.0100461 406.684800
    690    691    693     1   108.0100461 406.684800
    690    694    695     1   108.0100461 406.684800
    690    694    696     1   108.0100461 406.684800
    690    697    698     1   108.0100461 406.684800
    690    697    699     1   108.0100461 406.684800
    691    690    719     1   110.1100470 384.091200
    691    703    704     1   109.8000471 387.438400
    691    703    705     1   109.8000471 387.438400
    692    691    703     1   110.5600475 386.601600
    692    691    693     1   109.7500473 328.025600
    693    691    703     1   110.5600475 386.601600
    694    690    719     1   110.1100470 384.091200
    694    706    707     1   109.8000471 387.438400
    694    706    708     1   109.8000471 387.438400
    695    694    706     1   110.5600475 386.601600
    695    694    696     1   109.7500473 328.025600
    696    694    706     1   110.5600475 386.601600
    697    690    719     1   110.1100470 384.091200
    697    700    701     1   109.8000471 387.438400
    697    700    702     1   109.8000471 387.438400
    698    697    700     1   110.5600475 386.601600
    698    697    699     1   109.7500473 328.025600
    699    697    700     1   110.5600475 386.601600
    700    709    710     1   109.5600471 388.275200
    700    709    711     1   109.5600471 388.275200
    701    700    709     1   109.8000471 387.438400
    701    700    702     1   107.5800459 329.699200
    702    700    709     1   109.8000471 387.438400
    703    715    716     1   109.5600471 388.275200
    703    715    717     1   109.5600471 388.275200
    704    703    715     1   109.8000471 387.438400
    704    703    705     1   107.5800459 329.699200
    705    703    715     1   109.8000471 387.438400
    706    712    713     1   109.5600471 388.275200
    706    712    714     1   109.5600471 388.275200
    707    706    712     1   109.8000471 387.438400
    707    706    708     1   107.5800459 329.699200
    708    706    712     1   109.8000471 387.438400
    710    709    718     1   109.7800468 425.094400
    710    709    711     1   108.4600466 328.025600
    711    709    718     1   109.7800468 425.094400
    713    712   1506     1   109.7800468 425.094400
    713    712    714     1   108.4600466 328.025600
    714    712   1506     1   109.7800468 425.094400
    716    715   1538     1   109.7800468 425.094400
    716    715    717     1   108.4600466 328.025600
    717    715   1538     1   109.7800468 425.094400
    720    721    722     1   108.0100461 406.684800
    720    721    723     1   108.0100461 406.684800
    720    724    725     1   108.0100461 406.684800
    720    724    726     1   108.0100461 406.684800
    720    727    728     1   108.0100461 406.684800
    720    727    729     1   108.0100461 406.684800
    721    720    749     1   110.1100470 384.091200
    721    733    734     1   109.8000471 387.438400
    721    733    735     1   109.8000471 387.438400
    722    721    733     1   110.5600475 386.601600
    722    721    723     1   109.7500473 328.025600
    723    721    733     1   110.5600475 386.601600
    724    720    749     1   110.1100470 384.091200
    724    736    737     1   109.8000471 387.438400
    724    736    738     1   109.8000471 387.438400
    725    724    736     1   110.5600475 386.601600
    725    724    726     1   109.7500473 328.025600
    726    724    736     1   110.5600475 386.601600
    727    720    749     1   110.1100470 384.091200
    727    730    731     1   109.8000471 387.438400
    727    730    732     1   109.8000471 387.438400
    728    727    730     1   110.5600475 386.601600
    728    727    729     1   109.7500473 328.025600
    729    727    730     1   110.5600475 386.601600
    730    739    740     1   109.5600471 388.275200
    730    739    741     1   109.5600471 388.275200
    731    730    739     1   109.8000471 387.438400
    731    730    732     1   107.5800459 329.699200
    732    730    739     1   109.8000471 387.438400
    733    745    746     1   109.5600471 388.275200
    733    745    747     1   109.5600471 388.275200
    734    733    745     1   109.8000471 387.438400
    734    733    735     1   107.5800459 329.699200
    735    733    745     1   109.8000471 387.438400
    736    742    743     1   109.5600471 388.275200
    736    742    744     1   109.5600471 388.275200
    737    736    742     1   109.8000471 387.438400
    737    736    738     1   107.5800459 329.699200
    738    736    742     1   109.8000471 387.438400
    740    739    748     1   109.7800468 425.094400
    740    739    741     1   108.4600466 328.025600
    741    739    748     1   109.7800468 425.094400
    743    742   1570     1   109.7800468 425.094400
    743    742    744     1   108.4600466 328.025600
    744    742   1570     1   109.7800468 425.094400
    746    745   1602     1   109.7800468 425.094400
    746    745    747     1   108.4600466 328.025600
    747    745   1602     1   109.7800468 425.094400
    750    751    752     1   108.0100461 406.684800
    750    751    753     1   108.0100461 406.684800
    750    754    755     1   108.0100461 406.684800
    750    754    756     1   108.0100461 406.684800
    750    757    758     1   108.0100461 406.684800
    750    757    759     1   108.0100461 406.684800
    751    750    779     1   110.1100470 384.091200
    751    763    764     1   109.8000471 387.438400
    751    763    765     1   109.8000471 387.438400
    752    751    763     1   110.5600475 386.601600
    752    751    753     1   109.7500473 328.025600
    753    751    763     1   110.5600475 386.601600
    754    750    779     1   110.1100470 384.091200
    754    766    767     1   109.8000471 387.438400
    754    766    768     1   109.8000471 387.438400
    755    754    766     1   110.5600475 386.601600
    755    754    756     1   109.7500473 328.025600
    756    754    766     1   110.5600475 386.601600
    757    750    779     1   110.1100470 384.091200
    757    760    761     1   109.8000471 387.438400
    757    760    762     1   109.8000471 387.438400
    758    757    760     1   110.5600475 386.601600
    758    757    759     1   109.7500473 328.025600
    759    757    760     1   110.5600475 386.601600
    760    769    770     1   109.5600471 388.275200
    760    769    771     1   109.5600471 388.275200
    761    760    769     1   109.8000471 387.438400
    761    760    762     1   107.5800459 329.699200
    762    760    769     1   109.8000471 387.438400
    763    775    776     1   109.5600471 388.275200
    763    775    777     1   109.5600471 388.275200
    764    763    775     1   109.8000471 387.438400
    764    763    765     1   107.5800459 329.699200
    765    763    775     1   109.8000471 387.438400
    766    772    773     1   109.5600471 388.275200
    766    772    774     1   109.5600471 388.275200
    767    766    772     1   109.8000471 387.438400
    767    766    768     1   107.5800459 329.699200
    768    766    772     1   109.8000471 387.438400
    770    769    778     1   109.7800468 425.094400
    770    769    771     1   108.4600466 328.025600
    771    769    778     1   109.7800468 425.094400
    773    772   1634     1   109.7800468 425.094400
    773    772    774     1   108.4600466 328.025600
    774    772   1634     1   109.7800468 425.094400
    776    775   1666     1   109.7800468 425.094400
    776    775    777     1   108.4600466 328.025600
    777    775   1666     1   109.7800468 425.094400
    780    781    782     1   108.0100461 406.684800
    780    781    783     1   108.0100461 406.684800
    780    784    785     1   108.0100461 406.684800
    780    784    786     1   108.0100461 406.684800
    780    787    788     1   108.0100461 406.684800
    780    787    789     1   108.0100461 406.684800
    781    780    809     1   110.1100470 384.091200
    781    793    794     1   109.8000471 387.438400
    781    793    795     1   109.8000471 387.438400
    782    781    793     1   110.5600475 386.601600
    782    781    783     1   109.7500473 328.025600
    783    781    793     1   110.5600475 386.601600
    784    780    809     1   110.1100470 384.091200
    784    796    797     1   109.8000471 387.438400
    784    796    798     1   109.8000471 387.438400
    785    784    796     1   110.5600475 386.601600
    785    784    786     1   109.7500473 328.025600
    786    784    796     1   110.5600475 386.601600
    787    780    809     1   110.1100470 384.091200
    787    790    791     1   109.8000471 387.438400
    787    790    792     1   109.8000471 387.438400
    788    787    790     1   110.5600475 386.601600
    788    787    789     1   109.7500473 328.025600
    789    787    790     1   110.5600475 386.601600
    790    799    800     1   109.5600471 388.275200
    790    799    801     1   109.5600471 388.275200
    791    790    799     1   109.8000471 387.438400
    791    790    792     1   107.5800459 329.699200
    792    790    799     1   109.8000471 387.438400
    793    805    806     1   109.5600471 388.275200
    793    805    807     1   109.5600471 388.275200
    794    793    805     1   109.8000471 387.438400
    794    793    795     1   107.5800459 329.699200
    795    793    805     1   109.8000471 387.438400
    796    802    803     1   109.5600471 388.275200
    796    802    804     1   109.5600471 388.275200
    797    796    802     1   109.8000471 387.438400
    797    796    798     1   107.5800459 329.699200
    798    796    802     1   109.8000471 387.438400
    800    799    808     1   109.7800468 425.094400
    800    799    801     1   108.4600466 328.025600
    801    799    808     1   109.7800468 425.094400
    803    802   1698     1   109.7800468 425.094400
    803    802    804     1   108.4600466 328.025600
    804    802   1698     1   109.7800468 425.094400
    806    805   1730     1   109.7800468 425.094400
    806    805    807     1   108.4600466 328.025600
    807    805   1730     1   109.7800468 425.094400
    810    811    812     1   108.0100461 406.684800
    810    811    813     1   108.0100461 406.684800
    810    814    815     1   108.0100461 406.684800
    810    814    816     1   108.0100461 406.684800
    810    817    818     1   108.0100461 406.684800
    810    817    819     1   108.0100461 406.684800
    811    810    839     1   110.1100470 384.091200
    811    823    824     1   109.8000471 387.438400
    811    823    825     1   109.8000471 387.438400
    812    811    823     1   110.5600475 386.601600
    812    811    813     1   109.7500473 328.025600
    813    811    823     1   110.5600475 386.601600
    814    810    839     1   110.1100470 384.091200
    814    826    827     1   109.8000471 387.438400
    814    826    828     1   109.8000471 387.438400
    815    814    826     1   110.5600475 386.601600
    815    814    816     1   109.7500473 328.025600
    816    814    826     1   110.5600475 386.601600
    817    810    839     1   110.1100470 384.091200
    817    820    821     1   109.8000471 387.438400
    817    820    822     1   109.8000471 387.438400
    818    817    820     1   110.5600475 386.601600
    818    817    819     1   109.7500473 328.025600
    819    817    820     1   110.5600475 386.601600
    820    829    830     1   109.5600471 388.275200
    820    829    831     1   109.5600471 388.275200
    821    820    829     1   109.8000471 387.438400
    821    820    822     1   107.5800459 329.699200
    822    820    829     1   109.8000471 387.438400
    823    835    836     1   109.5600471 388.275200
    823    835    837     1   109.5600471 388.275200
    824    823    835     1   109.8000471 387.438400
    824    823    825     1   107.5800459 329.699200
    825    823    835     1   109.8000471 387.438400
    826    832    833     1   109.5600471 388.275200
    826    832    834     1   109.5600471 388.275200
    827    826    832     1   109.8000471 387.438400
    827    826    828     1   107.5800459 329.699200
    828    826    832     1   109.8000471 387.438400
    830    829    838     1   109.7800468 425.094400
    830    829    831     1   108.4600466 328.025600
    831    829    838     1   109.7800468 425.094400
    833    832   1762     1   109.7800468 425.094400
    833    832    834     1   108.4600466 328.025600
    834    832   1762     1   109.7800468 425.094400
    836    835   1794     1   109.7800468 425.094400
    836    835    837     1   108.4600466 328.025600
    837    835   1794     1   109.7800468 425.094400
    840    841    842     1   108.0100461 406.684800
    840    841    843     1   108.0100461 406.684800
    840    844    845     1   108.0100461 406.684800
    840    844    846     1   108.0100461 406.684800
    840    847    848     1   108.0100461 406.684800
    840    847    849     1   108.0100461 406.684800
    841    840    869     1   110.1100470 384.091200
    841    853    854     1   109.8000471 387.438400
    841    853    855     1   109.8000471 387.438400
    842    841    853     1   110.5600475 386.601600
    842    841    843     1   109.7500473 328.025600
    843    841    853     1   110.5600475 386.601600
    844    840    869     1   110.1100470 384.091200
    844    856    857     1   109.8000471 387.438400
    844    856    858     1   109.8000471 387.438400
    845    844    856     1   110.5600475 386.601600
    845    844    846     1   109.7500473 328.025600
    846    844    856     1   110.5600475 386.601600
    847    840    869     1   110.1100470 384.091200
    847    850    851     1   109.8000471 387.438400
    847    850    852     1   109.8000471 387.438400
    848    847    850     1   110.5600475 386.601600
    848    847    849     1   109.7500473 328.025600
    849    847    850     1   110.5600475 386.601600
    850    859    860     1   109.5600471 388.275200
    850    859    861     1   109.5600471 388.275200
    851    850    859     1   109.8000471 387.438400
    851    850    852     1   107.5800459 329.699200
    852    850    859     1   109.8000471 387.438400
    853    865    866     1   109.5600471 388.275200
    853    865    867     1   109.5600471 388.275200
    854    853    865     1   109.8000471 387.438400
    854    853    855     1   107.5800459 329.699200
    855    853    865     1   109.8000471 387.438400
    856    862    863     1   109.5600471 388.275200
    856    862    864     1   109.5600471 388.275200
    857    856    862     1   109.8000471 387.438400
    857    856    858     1   107.5800459 329.699200
    858    856    862     1   109.8000471 387.438400
    860    859    868     1   109.7800468 425.094400
    860    859    861     1   108.4600466 328.025600
    861    859    868     1   109.7800468 425.094400
    863    862   1826     1   109.7800468 425.094400
    863    862    864     1   108.4600466 328.025600
    864    862   1826     1   109.7800468 425.094400
    866    865   1858     1   109.7800468 425.094400
    866    865    867     1   108.4600466 328.025600
    867    865   1858     1   109.7800468 425.094400
    870    871    872     1   108.0100461 406.684800
    870    871    873     1   108.0100461 406.684800
    870    874    875     1   108.0100461 406.684800
    870    874    876     1   108.0100461 406.684800
    870    877    878     1   108.0100461 406.684800
    870    877    879     1   108.0100461 406.684800
    871    870    899     1   110.1100470 384.091200
    871    883    884     1   109.8000471 387.438400
    871    883    885     1   109.8000471 387.438400
    872    871    883     1   110.5600475 386.601600
    872    871    873     1   109.7500473 328.025600
    873    871    883     1   110.5600475 386.601600
    874    870    899     1   110.1100470 384.091200
    874    886    887     1   109.8000471 387.438400
    874    886    888     1   109.8000471 387.438400
    875    874    886     1   110.5600475 386.601600
    875    874    876     1   109.7500473 328.025600
    876    874    886     1   110.5600475 386.601600
    877    870    899     1   110.1100470 384.091200
    877    880    881     1   109.8000471 387.438400
    877    880    882     1   109.8000471 387.438400
    878    877    880     1   110.5600475 386.601600
    878    877    879     1   109.7500473 328.025600
    879    877    880     1   110.5600475 386.601600
    880    889    890     1   109.5600471 388.275200
    880    889    891     1   109.5600471 388.275200
    881    880    889     1   109.8000471 387.438400
    881    880    882     1   107.5800459 329.699200
    882    880    889     1   109.8000471 387.438400
    883    895    896     1   109.5600471 388.275200
    883    895    897     1   109.5600471 388.275200
    884    883    895     1   109.8000471 387.438400
    884    883    885     1   107.5800459 329.699200
    885    883    895     1   109.8000471 387.438400
    886    892    893     1   109.5600471 388.275200
    886    892    894     1   109.5600471 388.275200
    887    886    892     1   109.8000471 387.438400
    887    886    888     1   107.5800459 329.699200
    888    886    892     1   109.8000471 387.438400
    890    889    898     1   109.7800468 425.094400
    890    889    891     1   108.4600466 328.025600
    891    889    898     1   109.7800468 425.094400
    893    892   1890     1   109.7800468 425.094400
    893    892    894     1   108.4600466 328.025600
    894    892   1890     1   109.7800468 425.094400
    896    895   1922     1   109.7800468 425.094400
    896    895    897     1   108.4600466 328.025600
    897    895   1922     1   109.7800468 425.094400
    900    903    904     1   109.8000471 387.438400
    900    903    905     1   109.8000471 387.438400
    901    900    903     1   109.5600471 388.275200
    901    900    930     1   109.7800468 425.094400
    901    900    902     1   108.4600466 328.025600
    902    900    903     1   109.5600471 388.275200
    902    900    930     1   109.7800468 425.094400
    903    906    907     1   110.5600475 386.601600
    903    906    908     1   110.5600475 386.601600
    904    903    906     1   109.8000471 387.438400
    904    903    905     1   107.5800459 329.699200
    905    903    906     1   109.8000471 387.438400
    906    909    931     1   110.1100470 384.091200
    907    906    909     1   108.0100461 406.684800
    907    906    908     1   109.7500473 328.025600
    908    906    909     1   108.0100461 406.684800
    909    910    911     1   108.0100461 406.684800
    909    910    912     1   108.0100461 406.684800
    909    920    921     1   108.0100461 406.684800
    909    920    922     1   108.0100461 406.684800
    910    909    931     1   110.1100470 384.091200
    910    913    914     1   109.8000471 387.438400
    910    913    915     1   109.8000471 387.438400
    911    910    913     1   110.5600475 386.601600
    911    910    912     1   109.7500473 328.025600
    912    910    913     1   110.5600475 386.601600
    914    913    916     1   108.7700466 392.459200
    914    913    915     1   107.5800459 329.699200
    915    913    916     1   108.7700466 392.459200
    916    918    919     1   106.5500460 417.563200
    920    909    931     1   110.1100470 384.091200
    920    923    924     1   109.8000471 387.438400
    920    923    925     1   109.8000471 387.438400
    921    920    923     1   110.5600475 386.601600
    921    920    922     1   109.7500473 328.025600
    922    920    923     1   110.5600475 386.601600
    924    923    926     1   108.7700466 392.459200
    924    923    925     1   107.5800459 329.699200
    925    923    926     1   108.7700466 392.459200
    926    928    929     1   106.5500460 417.563200
    932    935    936     1   109.8000471 387.438400
    932    935    937     1   109.8000471 387.438400
    933    932    935     1   109.5600471 388.275200
    933    932    962     1   109.7800468 425.094400
    933    932    934     1   108.4600466 328.025600
    934    932    935     1   109.5600471 388.275200
    934    932    962     1   109.7800468 425.094400
    935    938    939     1   110.5600475 386.601600
    935    938    940     1   110.5600475 386.601600
    936    935    938     1   109.8000471 387.438400
    936    935    937     1   107.5800459 329.699200
    937    935    938     1   109.8000471 387.438400
    938    941    963     1   110.1100470 384.091200
    939    938    941     1   108.0100461 406.684800
    939    938    940     1   109.7500473 328.025600
    940    938    941     1   108.0100461 406.684800
    941    942    943     1   108.0100461 406.684800
    941    942    944     1   108.0100461 406.684800
    941    952    953     1   108.0100461 406.684800
    941    952    954     1   108.0100461 406.684800
    942    945    946     1   109.8000471 387.438400
    942    945    947     1   109.8000471 387.438400
    942    941    963     1   110.1100470 384.091200
    943    942    945     1   110.5600475 386.601600
    943    942    944     1   109.7500473 328.025600
    944    942    945     1   110.5600475 386.601600
    946    945    948     1   108.7700466 392.459200
    946    945    947     1   107.5800459 329.699200
    947    945    948     1   108.7700466 392.459200
    948    950    951     1   106.5500460 417.563200
    952    955    956     1   109.8000471 387.438400
    952    955    957     1   109.8000471 387.438400
    952    941    963     1   110.1100470 384.091200
    953    952    955     1   110.5600475 386.601600
    953    952    954     1   109.7500473 328.025600
    954    952    955     1   110.5600475 386.601600
    956    955    958     1   108.7700466 392.459200
    956    955    957     1   107.5800459 329.699200
    957    955    958     1   108.7700466 392.459200
    958    960    961     1   106.5500460 417.563200
    964    967    968     1   109.8000471 387.438400
    964    967    969     1   109.8000471 387.438400
    965    964    967     1   109.5600471 388.275200
    965    964    994     1   109.7800468 425.094400
    965    964    966     1   108.4600466 328.025600
    966    964    967     1   109.5600471 388.275200
    966    964    994     1   109.7800468 425.094400
    967    970    971     1   110.5600475 386.601600
    967    970    972     1   110.5600475 386.601600
    968    967    970     1   109.8000471 387.438400
    968    967    969     1   107.5800459 329.699200
    969    967    970     1   109.8000471 387.438400
    970    973    995     1   110.1100470 384.091200
    971    970    973     1   108.0100461 406.684800
    971    970    972     1   109.7500473 328.025600
    972    970    973     1   108.0100461 406.684800
    973    974    975     1   108.0100461 406.684800
    973    974    976     1   108.0100461 406.684800
    973    984    985     1   108.0100461 406.684800
    973    984    986     1   108.0100461 406.684800
    974    973    995     1   110.1100470 384.091200
    974    977    978     1   109.8000471 387.438400
    974    977    979     1   109.8000471 387.438400
    975    974    977     1   110.5600475 386.601600
    975    974    976     1   109.7500473 328.025600
    976    974    977     1   110.5600475 386.601600
    978    977    980     1   108.7700466 392.459200
    978    977    979     1   107.5800459 329.699200
    979    977    980     1   108.7700466 392.459200
    980    982    983     1   106.5500460 417.563200
    984    973    995     1   110.1100470 384.091200
    984    987    988     1   109.8000471 387.438400
    984    987    989     1   109.8000471 387.438400
    985    984    987     1   110.5600475 386.601600
    985    984    986     1   109.7500473 328.025600
    986    984    987     1   110.5600475 386.601600
    988    987    990     1   108.7700466 392.459200
    988    987    989     1   107.5800459 329.699200
    989    987    990     1   108.7700466 392.459200
    990    992    993     1   106.5500460 417.563200
    996    999   1000     1   109.8000471 387.438400
    996    999   1001     1   109.8000471 387.438400
    997    996    999     1   109.5600471 388.275200
    997    996   1026     1   109.7800468 425.094400
    997    996    998     1   108.4600466 328.025600
    998    996    999     1   109.5600471 388.275200
    998    996   1026     1   109.7800468 425.094400
    999   1002   1003     1   110.5600475 386.601600
    999   1002   1004     1   110.5600475 386.601600
   1000    999   1002     1   109.8000471 387.438400
   1000    999   1001     1   107.5800459 329.699200
   1001    999   1002     1   109.8000471 387.438400
   1002   1005   1027     1   110.1100470 384.091200
   1003   1002   1005     1   108.0100461 406.684800
   1003   1002   1004     1   109.7500473 328.025600
   1004   1002   1005     1   108.0100461 406.684800
   1005   1006   1007     1   108.0100461 406.684800
   1005   1006   1008     1   108.0100461 406.684800
   1005   1016   1017     1   108.0100461 406.684800
   1005   1016   1018     1   108.0100461 406.684800
   1006   1009   1010     1   109.8000471 387.438400
   1006   1009   1011     1   109.8000471 387.438400
   1006   1005   1027     1   110.1100470 384.091200
   1007   1006   1009     1   110.5600475 386.601600
   1007   1006   1008     1   109.7500473 328.025600
   1008   1006   1009     1   110.5600475 386.601600
   1010   1009   1012     1   108.7700466 392.459200
   1010   1009   1011     1   107.5800459 329.699200
   1011   1009   1012     1   108.7700466 392.459200
   1012   1014   1015     1   106.5500460 417.563200
   1016   1019   1020     1   109.8000471 387.438400
   1016   1019   1021     1   109.8000471 387.438400
   1016   1005   1027     1   110.1100470 384.091200
   1017   1016   1019     1   110.5600475 386.601600
   1017   1016   1018     1   109.7500473 328.025600
   1018   1016   1019     1   110.5600475 386.601600
   1020   1019   1022     1   108.7700466 392.459200
   1020   1019   1021     1   107.5800459 329.699200
   1021   1019   1022     1   108.7700466 392.459200
   1022   1024   1025     1   106.5500460 417.563200
   1028   1031   1032     1   109.8000471 387.438400
   1028   1031   1033     1   109.8000471 387.438400
   1029   1028   1031     1   109.5600471 388.275200
   1029   1028   1058     1   109.7800468 425.094400
   1029   1028   1030     1   108.4600466 328.025600
   1030   1028   1031     1   109.5600471 388.275200
   1030   1028   1058     1   109.7800468 425.094400
   1031   1034   1035     1   110.5600475 386.601600
   1031   1034   1036     1   110.5600475 386.601600
   1032   1031   1034     1   109.8000471 387.438400
   1032   1031   1033     1   107.5800459 329.699200
   1033   1031   1034     1   109.8000471 387.438400
   1034   1037   1059     1   110.1100470 384.091200
   1035   1034   1037     1   108.0100461 406.684800
   1035   1034   1036     1   109.7500473 328.025600
   1036   1034   1037     1   108.0100461 406.684800
   1037   1038   1039     1   108.0100461 406.684800
   1037   1038   1040     1   108.0100461 406.684800
   1037   1048   1049     1   108.0100461 406.684800
   1037   1048   1050     1   108.0100461 406.684800
   1038   1037   1059     1   110.1100470 384.091200
   1038   1041   1042     1   109.8000471 387.438400
   1038   1041   1043     1   109.8000471 387.438400
   1039   1038   1041     1   110.5600475 386.601600
   1039   1038   1040     1   109.7500473 328.025600
   1040   1038   1041     1   110.5600475 386.601600
   1042   1041   1044     1   108.7700466 392.459200
   1042   1041   1043     1   107.5800459 329.699200
   1043   1041   1044     1   108.7700466 392.459200
   1044   1046   1047     1   106.5500460 417.563200
   1048   1037   1059     1   110.1100470 384.091200
   1048   1051   1052     1   109.8000471 387.438400
   1048   1051   1053     1   109.8000471 387.438400
   1049   1048   1051     1   110.5600475 386.601600
   1049   1048   1050     1   109.7500473 328.025600
   1050   1048   1051     1   110.5600475 386.601600
   1052   1051   1054     1   108.7700466 392.459200
   1052   1051   1053     1   107.5800459 329.699200
   1053   1051   1054     1   108.7700466 392.459200
   1054   1056   1057     1   106.5500460 417.563200
   1060   1063   1064     1   109.8000471 387.438400
   1060   1063   1065     1   109.8000471 387.438400
   1061   1060   1063     1   109.5600471 388.275200
   1061   1060   1090     1   109.7800468 425.094400
   1061   1060   1062     1   108.4600466 328.025600
   1062   1060   1063     1   109.5600471 388.275200
   1062   1060   1090     1   109.7800468 425.094400
   1063   1066   1067     1   110.5600475 386.601600
   1063   1066   1068     1   110.5600475 386.601600
   1064   1063   1066     1   109.8000471 387.438400
   1064   1063   1065     1   107.5800459 329.699200
   1065   1063   1066     1   109.8000471 387.438400
   1066   1069   1091     1   110.1100470 384.091200
   1067   1066   1069     1   108.0100461 406.684800
   1067   1066   1068     1   109.7500473 328.025600
   1068   1066   1069     1   108.0100461 406.684800
   1069   1070   1071     1   108.0100461 406.684800
   1069   1070   1072     1   108.0100461 406.684800
   1069   1080   1081     1   108.0100461 406.684800
   1069   1080   1082     1   108.0100461 406.684800
   1070   1073   1074     1   109.8000471 387.438400
   1070   1073   1075     1   109.8000471 387.438400
   1070   1069   1091     1   110.1100470 384.091200
   1071   1070   1073     1   110.5600475 386.601600
   1071   1070   1072     1   109.7500473 328.025600
   1072   1070   1073     1   110.5600475 386.601600
   1074   1073   1076     1   108.7700466 392.459200
   1074   1073   1075     1   107.5800459 329.699200
   1075   1073   1076     1   108.7700466 392.459200
   1076   1078   1079     1   106.5500460 417.563200
   1080   1083   1084     1   109.8000471 387.438400
   1080   1083   1085     1   109.8000471 387.438400
   1080   1069   1091     1   110.1100470 384.091200
   1081   1080   1083     1   110.5600475 386.601600
   1081   1080   1082     1   109.7500473 328.025600
   1082   1080   1083     1   110.5600475 386.601600
   1084   1083   1086     1   108.7700466 392.459200
   1084   1083   1085     1   107.5800459 329.699200
   1085   1083   1086     1   108.7700466 392.459200
   1086   1088   1089     1   106.5500460 417.563200
   1092   1095   1096     1   109.8000471 387.438400
   1092   1095   1097     1   109.8000471 387.438400
   1093   1092   1095     1   109.5600471 388.275200
   1093   1092   1122     1   109.7800468 425.094400
   1093   1092   1094     1   108.4600466 328.025600
   1094   1092   1095     1   109.5600471 388.275200
   1094   1092   1122     1   109.7800468 425.094400
   1095   1098   1099     1   110.5600475 386.601600
   1095   1098   1100     1   110.5600475 386.601600
   1096   1095   1098     1   109.8000471 387.438400
   1096   1095   1097     1   107.5800459 329.699200
   1097   1095   1098     1   109.8000471 387.438400
   1098   1101   1123     1   110.1100470 384.091200
   1099   1098   1101     1   108.0100461 406.684800
   1099   1098   1100     1   109.7500473 328.025600
   1100   1098   1101     1   108.0100461 406.684800
   1101   1102   1103     1   108.0100461 406.684800
   1101   1102   1104     1   108.0100461 406.684800
   1101   1112   1113     1   108.0100461 406.684800
   1101   1112   1114     1   108.0100461 406.684800
   1102   1101   1123     1   110.1100470 384.091200
   1102   1105   1106     1   109.8000471 387.438400
   1102   1105   1107     1   109.8000471 387.438400
   1103   1102   1105     1   110.5600475 386.601600
   1103   1102   1104     1   109.7500473 328.025600
   1104   1102   1105     1   110.5600475 386.601600
   1106   1105   1108     1   108.7700466 392.459200
   1106   1105   1107     1   107.5800459 329.699200
   1107   1105   1108     1   108.7700466 392.459200
   1108   1110   1111     1   106.5500460 417.563200
   1112   1101   1123     1   110.1100470 384.091200
   1112   1115   1116     1   109.8000471 387.438400
   1112   1115   1117     1   109.8000471 387.438400
   1113   1112   1115     1   110.5600475 386.601600
   1113   1112   1114     1   109.7500473 328.025600
   1114   1112   1115     1   110.5600475 386.601600
   1116   1115   1118     1   108.7700466 392.459200
   1116   1115   1117     1   107.5800459 329.699200
   1117   1115   1118     1   108.7700466 392.459200
   1118   1120   1121     1   106.5500460 417.563200
   1124   1127   1128     1   109.8000471 387.438400
   1124   1127   1129     1   109.8000471 387.438400
   1125   1124   1127     1   109.5600471 388.275200
   1125   1124   1154     1   109.7800468 425.094400
   1125   1124   1126     1   108.4600466 328.025600
   1126   1124   1127     1   109.5600471 388.275200
   1126   1124   1154     1   109.7800468 425.094400
   1127   1130   1131     1   110.5600475 386.601600
   1127   1130   1132     1   110.5600475 386.601600
   1128   1127   1130     1   109.8000471 387.438400
   1128   1127   1129     1   107.5800459 329.699200
   1129   1127   1130     1   109.8000471 387.438400
   1130   1133   1155     1   110.1100470 384.091200
   1131   1130   1133     1   108.0100461 406.684800
   1131   1130   1132     1   109.7500473 328.025600
   1132   1130   1133     1   108.0100461 406.684800
   1133   1134   1135     1   108.0100461 406.684800
   1133   1134   1136     1   108.0100461 406.684800
   1133   1144   1145     1   108.0100461 406.684800
   1133   1144   1146     1   108.0100461 406.684800
   1134   1137   1138     1   109.8000471 387.438400
   1134   1137   1139     1   109.8000471 387.438400
   1134   1133   1155     1   110.1100470 384.091200
   1135   1134   1137     1   110.5600475 386.601600
   1135   1134   1136     1   109.7500473 328.025600
   1136   1134   1137     1   110.5600475 386.601600
   1138   1137   1140     1   108.7700466 392.459200
   1138   1137   1139     1   107.5800459 329.699200
   1139   1137   1140     1   108.7700466 392.459200
   1140   1142   1143     1   106.5500460 417.563200
   1144   1147   1148     1   109.8000471 387.438400
   1144   1147   1149     1   109.8000471 387.438400
   1144   1133   1155     1   110.1100470 384.091200
   1145   1144   1147     1   110.5600475 386.601600
   1145   1144   1146     1   109.7500473 328.025600
   1146   1144   1147     1   110.5600475 386.601600
   1148   1147   1150     1   108.7700466 392.459200
   1148   1147   1149     1   107.5800459 329.699200
   1149   1147   1150     1   108.7700466 392.459200
   1150   1152   1153     1   106.5500460 417.563200
   1156   1159   1160     1   109.8000471 387.438400
   1156   1159   1161     1   109.8000471 387.438400
   1157   1156   1159     1   109.5600471 388.275200
   1157   1156   1186     1   109.7800468 425.094400
   1157   1156   1158     1   108.4600466 328.025600
   1158   1156   1159     1   109.5600471 388.275200
   1158   1156   1186     1   109.7800468 425.094400
   1159   1162   1163     1   110.5600475 386.601600
   1159   1162   1164     1   110.5600475 386.601600
   1160   1159   1162     1   109.8000471 387.438400
   1160   1159   1161     1   107.5800459 329.699200
   1161   1159   1162     1   109.8000471 387.438400
   1162   1165   1187     1   110.1100470 384.091200
   1163   1162   1165     1   108.0100461 406.684800
   1163   1162   1164     1   109.7500473 328.025600
   1164   1162   1165     1   108.0100461 406.684800
   1165   1166   1167     1   108.0100461 406.684800
   1165   1166   1168     1   108.0100461 406.684800
   1165   1176   1177     1   108.0100461 406.684800
   1165   1176   1178     1   108.0100461 406.684800
   1166   1165   1187     1   110.1100470 384.091200
   1166   1169   1170     1   109.8000471 387.438400
   1166   1169   1171     1   109.8000471 387.438400
   1167   1166   1169     1   110.5600475 386.601600
   1167   1166   1168     1   109.7500473 328.025600
   1168   1166   1169     1   110.5600475 386.601600
   1170   1169   1172     1   108.7700466 392.459200
   1170   1169   1171     1   107.5800459 329.699200
   1171   1169   1172     1   108.7700466 392.459200
   1172   1174   1175     1   106.5500460 417.563200
   1176   1165   1187     1   110.1100470 384.091200
   1176   1179   1180     1   109.8000471 387.438400
   1176   1179   1181     1   109.8000471 387.438400
   1177   1176   1179     1   110.5600475 386.601600
   1177   1176   1178     1   109.7500473 328.025600
   1178   1176   1179     1   110.5600475 386.601600
   1180   1179   1182     1   108.7700466 392.459200
   1180   1179   1181     1   107.5800459 329.699200
   1181   1179   1182     1   108.7700466 392.459200
   1182   1184   1185     1   106.5500460 417.563200
   1188   1191   1192     1   109.8000471 387.438400
   1188   1191   1193     1   109.8000471 387.438400
   1189   1188   1191     1   109.5600471 388.275200
   1189   1188   1218     1   109.7800468 425.094400
   1189   1188   1190     1   108.4600466 328.025600
   1190   1188   1191     1   109.5600471 388.275200
   1190   1188   1218     1   109.7800468 425.094400
   1191   1194   1195     1   110.5600475 386.601600
   1191   1194   1196     1   110.5600475 386.601600
   1192   1191   1194     1   109.8000471 387.438400
   1192   1191   1193     1   107.5800459 329.699200
   1193   1191   1194     1   109.8000471 387.438400
   1194   1197   1219     1   110.1100470 384.091200
   1195   1194   1197     1   108.0100461 406.684800
   1195   1194   1196     1   109.7500473 328.025600
   1196   1194   1197     1   108.0100461 406.684800
   1197   1198   1199     1   108.0100461 406.684800
   1197   1198   1200     1   108.0100461 406.684800
   1197   1208   1209     1   108.0100461 406.684800
   1197   1208   1210     1   108.0100461 406.684800
   1198   1201   1202     1   109.8000471 387.438400
   1198   1201   1203     1   109.8000471 387.438400
   1198   1197   1219     1   110.1100470 384.091200
   1199   1198   1201     1   110.5600475 386.601600
   1199   1198   1200     1   109.7500473 328.025600
   1200   1198   1201     1   110.5600475 386.601600
   1202   1201   1204     1   108.7700466 392.459200
   1202   1201   1203     1   107.5800459 329.699200
   1203   1201   1204     1   108.7700466 392.459200
   1204   1206   1207     1   106.5500460 417.563200
   1208   1211   1212     1   109.8000471 387.438400
   1208   1211   1213     1   109.8000471 387.438400
   1208   1197   1219     1   110.1100470 384.091200
   1209   1208   1211     1   110.5600475 386.601600
   1209   1208   1210     1   109.7500473 328.025600
   1210   1208   1211     1   110.5600475 386.601600
   1212   1211   1214     1   108.7700466 392.459200
   1212   1211   1213     1   107.5800459 329.699200
   1213   1211   1214     1   108.7700466 392.459200
   1214   1216   1217     1   106.5500460 417.563200
   1220   1223   1224     1   109.8000471 387.438400
   1220   1223   1225     1   109.8000471 387.438400
   1221   1220   1223     1   109.5600471 388.275200
   1221   1220   1250     1   109.7800468 425.094400
   1221   1220   1222     1   108.4600466 328.025600
   1222   1220   1223     1   109.5600471 388.275200
   1222   1220   1250     1   109.7800468 425.094400
   1223   1226   1227     1   110.5600475 386.601600
   1223   1226   1228     1   110.5600475 386.601600
   1224   1223   1226     1   109.8000471 387.438400
   1224   1223   1225     1   107.5800459 329.699200
   1225   1223   1226     1   109.8000471 387.438400
   1226   1229   1251     1   110.1100470 384.091200
   1227   1226   1229     1   108.0100461 406.684800
   1227   1226   1228     1   109.7500473 328.025600
   1228   1226   1229     1   108.0100461 406.684800
   1229   1230   1231     1   108.0100461 406.684800
   1229   1230   1232     1   108.0100461 406.684800
   1229   1240   1241     1   108.0100461 406.684800
   1229   1240   1242     1   108.0100461 406.684800
   1230   1229   1251     1   110.1100470 384.091200
   1230   1233   1234     1   109.8000471 387.438400
   1230   1233   1235     1   109.8000471 387.438400
   1231   1230   1233     1   110.5600475 386.601600
   1231   1230   1232     1   109.7500473 328.025600
   1232   1230   1233     1   110.5600475 386.601600
   1234   1233   1236     1   108.7700466 392.459200
   1234   1233   1235     1   107.5800459 329.699200
   1235   1233   1236     1   108.7700466 392.459200
   1236   1238   1239     1   106.5500460 417.563200
   1240   1229   1251     1   110.1100470 384.091200
   1240   1243   1244     1   109.8000471 387.438400
   1240   1243   1245     1   109.8000471 387.438400
   1241   1240   1243     1   110.5600475 386.601600
   1241   1240   1242     1   109.7500473 328.025600
   1242   1240   1243     1   110.5600475 386.601600
   1244   1243   1246     1   108.7700466 392.459200
   1244   1243   1245     1   107.5800459 329.699200
   1245   1243   1246     1   108.7700466 392.459200
   1246   1248   1249     1   106.5500460 417.563200
   1252   1255   1256     1   109.8000471 387.438400
   1252   1255   1257     1   109.8000471 387.438400
   1253   1252   1255     1   109.5600471 388.275200
   1253   1252   1282     1   109.7800468 425.094400
   1253   1252   1254     1   108.4600466 328.025600
   1254   1252   1255     1   109.5600471 388.275200
   1254   1252   1282     1   109.7800468 425.094400
   1255   1258   1259     1   110.5600475 386.601600
   1255   1258   1260     1   110.5600475 386.601600
   1256   1255   1258     1   109.8000471 387.438400
   1256   1255   1257     1   107.5800459 329.699200
   1257   1255   1258     1   109.8000471 387.438400
   1258   1261   1283     1   110.1100470 384.091200
   1259   1258   1261     1   108.0100461 406.684800
   1259   1258   1260     1   109.7500473 328.025600
   1260   1258   1261     1   108.0100461 406.684800
   1261   1262   1263     1   108.0100461 406.684800
   1261   1262   1264     1   108.0100461 406.684800
   1261   1272   1273     1   108.0100461 406.684800
   1261   1272   1274     1   108.0100461 406.684800
   1262   1265   1266     1   109.8000471 387.438400
   1262   1265   1267     1   109.8000471 387.438400
   1262   1261   1283     1   110.1100470 384.091200
   1263   1262   1265     1   110.5600475 386.601600
   1263   1262   1264     1   109.7500473 328.025600
   1264   1262   1265     1   110.5600475 386.601600
   1266   1265   1268     1   108.7700466 392.459200
   1266   1265   1267     1   107.5800459 329.699200
   1267   1265   1268     1   108.7700466 392.459200
   1268   1270   1271     1   106.5500460 417.563200
   1272   1275   1276     1   109.8000471 387.438400
   1272   1275   1277     1   109.8000471 387.438400
   1272   1261   1283     1   110.1100470 384.091200
   1273   1272   1275     1   110.5600475 386.601600
   1273   1272   1274     1   109.7500473 328.025600
   1274   1272   1275     1   110.5600475 386.601600
   1276   1275   1278     1   108.7700466 392.459200
   1276   1275   1277     1   107.5800459 329.699200
   1277   1275   1278     1   108.7700466 392.459200
   1278   1280   1281     1   106.5500460 417.563200
   1284   1287   1288     1   109.8000471 387.438400
   1284   1287   1289     1   109.8000471 387.438400
   1285   1284   1287     1   109.5600471 388.275200
   1285   1284   1314     1   109.7800468 425.094400
   1285   1284   1286     1   108.4600466 328.025600
   1286   1284   1287     1   109.5600471 388.275200
   1286   1284   1314     1   109.7800468 425.094400
   1287   1290   1291     1   110.5600475 386.601600
   1287   1290   1292     1   110.5600475 386.601600
   1288   1287   1290     1   109.8000471 387.438400
   1288   1287   1289     1   107.5800459 329.699200
   1289   1287   1290     1   109.8000471 387.438400
   1290   1293   1315     1   110.1100470 384.091200
   1291   1290   1293     1   108.0100461 406.684800
   1291   1290   1292     1   109.7500473 328.025600
   1292   1290   1293     1   108.0100461 406.684800
   1293   1294   1295     1   108.0100461 406.684800
   1293   1294   1296     1   108.0100461 406.684800
   1293   1304   1305     1   108.0100461 406.684800
   1293   1304   1306     1   108.0100461 406.684800
   1294   1293   1315     1   110.1100470 384.091200
   1294   1297   1298     1   109.8000471 387.438400
   1294   1297   1299     1   109.8000471 387.438400
   1295   1294   1297     1   110.5600475 386.601600
   1295   1294   1296     1   109.7500473 328.025600
   1296   1294   1297     1   110.5600475 386.601600
   1298   1297   1300     1   108.7700466 392.459200
   1298   1297   1299     1   107.5800459 329.699200
   1299   1297   1300     1   108.7700466 392.459200
   1300   1302   1303     1   106.5500460 417.563200
   1304   1293   1315     1   110.1100470 384.091200
   1304   1307   1308     1   109.8000471 387.438400
   1304   1307   1309     1   109.8000471 387.438400
   1305   1304   1307     1   110.5600475 386.601600
   1305   1304   1306     1   109.7500473 328.025600
   1306   1304   1307     1   110.5600475 386.601600
   1308   1307   1310     1   108.7700466 392.459200
   1308   1307   1309     1   107.5800459 329.699200
   1309   1307   1310     1   108.7700466 392.459200
   1310   1312   1313     1   106.5500460 417.563200
   1316   1319   1320     1   109.8000471 387.438400
   1316   1319   1321     1   109.8000471 387.438400
   1317   1316   1319     1   109.5600471 388.275200
   1317   1316   1346     1   109.7800468 425.094400
   1317   1316   1318     1   108.4600466 328.025600
   1318   1316   1319     1   109.5600471 388.275200
   1318   1316   1346     1   109.7800468 425.094400
   1319   1322   1323     1   110.5600475 386.601600
   1319   1322   1324     1   110.5600475 386.601600
   1320   1319   1322     1   109.8000471 387.438400
   1320   1319   1321     1   107.5800459 329.699200
   1321   1319   1322     1   109.8000471 387.438400
   1322   1325   1347     1   110.1100470 384.091200
   1323   1322   1325     1   108.0100461 406.684800
   1323   1322   1324     1   109.7500473 328.025600
   1324   1322   1325     1   108.0100461 406.684800
   1325   1326   1327     1   108.0100461 406.684800
   1325   1326   1328     1   108.0100461 406.684800
   1325   1336   1337     1   108.0100461 406.684800
   1325   1336   1338     1   108.0100461 406.684800
   1326   1329   1330     1   109.8000471 387.438400
   1326   1329   1331     1   109.8000471 387.438400
   1326   1325   1347     1   110.1100470 384.091200
   1327   1326   1329     1   110.5600475 386.601600
   1327   1326   1328     1   109.7500473 328.025600
   1328   1326   1329     1   110.5600475 386.601600
   1330   1329   1332     1   108.7700466 392.459200
   1330   1329   1331     1   107.5800459 329.699200
   1331   1329   1332     1   108.7700466 392.459200
   1332   1334   1335     1   106.5500460 417.563200
   1336   1339   1340     1   109.8000471 387.438400
   1336   1339   1341     1   109.8000471 387.438400
   1336   1325   1347     1   110.1100470 384.091200
   1337   1336   1339     1   110.5600475 386.601600
   1337   1336   1338     1   109.7500473 328.025600
   1338   1336   1339     1   110.5600475 386.601600
   1340   1339   1342     1   108.7700466 392.459200
   1340   1339   1341     1   107.5800459 329.699200
   1341   1339   1342     1   108.7700466 392.459200
   1342   1344   1345     1   106.5500460 417.563200
   1348   1351   1352     1   109.8000471 387.438400
   1348   1351   1353     1   109.8000471 387.438400
   1349   1348   1351     1   109.5600471 388.275200
   1349   1348   1378     1   109.7800468 425.094400
   1349   1348   1350     1   108.4600466 328.025600
   1350   1348   1351     1   109.5600471 388.275200
   1350   1348   1378     1   109.7800468 425.094400
   1351   1354   1355     1   110.5600475 386.601600
   1351   1354   1356     1   110.5600475 386.601600
   1352   1351   1354     1   109.8000471 387.438400
   1352   1351   1353     1   107.5800459 329.699200
   1353   1351   1354     1   109.8000471 387.438400
   1354   1357   1379     1   110.1100470 384.091200
   1355   1354   1357     1   108.0100461 406.684800
   1355   1354   1356     1   109.7500473 328.025600
   1356   1354   1357     1   108.0100461 406.684800
   1357   1358   1359     1   108.0100461 406.684800
   1357   1358   1360     1   108.0100461 406.684800
   1357   1368   1369     1   108.0100461 406.684800
   1357   1368   1370     1   108.0100461 406.684800
   1358   1357   1379     1   110.1100470 384.091200
   1358   1361   1362     1   109.8000471 387.438400
   1358   1361   1363     1   109.8000471 387.438400
   1359   1358   1361     1   110.5600475 386.601600
   1359   1358   1360     1   109.7500473 328.025600
   1360   1358   1361     1   110.5600475 386.601600
   1362   1361   1364     1   108.7700466 392.459200
   1362   1361   1363     1   107.5800459 329.699200
   1363   1361   1364     1   108.7700466 392.459200
   1364   1366   1367     1   106.5500460 417.563200
   1368   1357   1379     1   110.1100470 384.091200
   1368   1371   1372     1   109.8000471 387.438400
   1368   1371   1373     1   109.8000471 387.438400
   1369   1368   1371     1   110.5600475 386.601600
   1369   1368   1370     1   109.7500473 328.025600
   1370   1368   1371     1   110.5600475 386.601600
   1372   1371   1374     1   108.7700466 392.459200
   1372   1371   1373     1   107.5800459 329.699200
   1373   1371   1374     1   108.7700466 392.459200
   1374   1376   1377     1   106.5500460 417.563200
   1380   1383   1384     1   109.8000471 387.438400
   1380   1383   1385     1   109.8000471 387.438400
   1381   1380   1383     1   109.5600471 388.275200
   1381   1380   1410     1   109.7800468 425.094400
   1381   1380   1382     1   108.4600466 328.025600
   1382   1380   1383     1   109.5600471 388.275200
   1382   1380   1410     1   109.7800468 425.094400
   1383   1386   1387     1   110.5600475 386.601600
   1383   1386   1388     1   110.5600475 386.601600
   1384   1383   1386     1   109.8000471 387.438400
   1384   1383   1385     1   107.5800459 329.699200
   1385   1383   1386     1   109.8000471 387.438400
   1386   1389   1411     1   110.1100470 384.091200
   1387   1386   1389     1   108.0100461 406.684800
   1387   1386   1388     1   109.7500473 328.025600
   1388   1386   1389     1   108.0100461 406.684800
   1389   1390   1391     1   108.0100461 406.684800
   1389   1390   1392     1   108.0100461 406.684800
   1389   1400   1401     1   108.0100461 406.684800
   1389   1400   1402     1   108.0100461 406.684800
   1390   1393   1394     1   109.8000471 387.438400
   1390   1393   1395     1   109.8000471 387.438400
   1390   1389   1411     1   110.1100470 384.091200
   1391   1390   1393     1   110.5600475 386.601600
   1391   1390   1392     1   109.7500473 328.025600
   1392   1390   1393     1   110.5600475 386.601600
   1394   1393   1396     1   108.7700466 392.459200
   1394   1393   1395     1   107.5800459 329.699200
   1395   1393   1396     1   108.7700466 392.459200
   1396   1398   1399     1   106.5500460 417.563200
   1400   1403   1404     1   109.8000471 387.438400
   1400   1403   1405     1   109.8000471 387.438400
   1400   1389   1411     1   110.1100470 384.091200
   1401   1400   1403     1   110.5600475 386.601600
   1401   1400   1402     1   109.7500473 328.025600
   1402   1400   1403     1   110.5600475 386.601600
   1404   1403   1406     1   108.7700466 392.459200
   1404   1403   1405     1   107.5800459 329.699200
   1405   1403   1406     1   108.7700466 392.459200
   1406   1408   1409     1   106.5500460 417.563200
   1412   1415   1416     1   109.8000471 387.438400
   1412   1415   1417     1   109.8000471 387.438400
   1413   1412   1415     1   109.5600471 388.275200
   1413   1412   1442     1   109.7800468 425.094400
   1413   1412   1414     1   108.4600466 328.025600
   1414   1412   1415     1   109.5600471 388.275200
   1414   1412   1442     1   109.7800468 425.094400
   1415   1418   1419     1   110.5600475 386.601600
   1415   1418   1420     1   110.5600475 386.601600
   1416   1415   1418     1   109.8000471 387.438400
   1416   1415   1417     1   107.5800459 329.699200
   1417   1415   1418     1   109.8000471 387.438400
   1418   1421   1443     1   110.1100470 384.091200
   1419   1418   1421     1   108.0100461 406.684800
   1419   1418   1420     1   109.7500473 328.025600
   1420   1418   1421     1   108.0100461 406.684800
   1421   1422   1423     1   108.0100461 406.684800
   1421   1422   1424     1   108.0100461 406.684800
   1421   1432   1433     1   108.0100461 406.684800
   1421   1432   1434     1   108.0100461 406.684800
   1422   1421   1443     1   110.1100470 384.091200
   1422   1425   1426     1   109.8000471 387.438400
   1422   1425   1427     1   109.8000471 387.438400
   1423   1422   1425     1   110.5600475 386.601600
   1423   1422   1424     1   109.7500473 328.025600
   1424   1422   1425     1   110.5600475 386.601600
   1426   1425   1428     1   108.7700466 392.459200
   1426   1425   1427     1   107.5800459 329.699200
   1427   1425   1428     1   108.7700466 392.459200
   1428   1430   1431     1   106.5500460 417.563200
   1432   1421   1443     1   110.1100470 384.091200
   1432   1435   1436     1   109.8000471 387.438400
   1432   1435   1437     1   109.8000471 387.438400
   1433   1432   1435     1   110.5600475 386.601600
   1433   1432   1434     1   109.7500473 328.025600
   1434   1432   1435     1   110.5600475 386.601600
   1436   1435   1438     1   108.7700466 392.459200
   1436   1435   1437     1   107.5800459 329.699200
   1437   1435   1438     1   108.7700466 392.459200
   1438   1440   1441     1   106.5500460 417.563200
   1444   1447   1448     1   109.8000471 387.438400
   1444   1447   1449     1   109.8000471 387.438400
   1445   1444   1447     1   109.5600471 388.275200
   1445   1444   1474     1   109.7800468 425.094400
   1445   1444   1446     1   108.4600466 328.025600
   1446   1444   1447     1   109.5600471 388.275200
   1446   1444   1474     1   109.7800468 425.094400
   1447   1450   1451     1   110.5600475 386.601600
   1447   1450   1452     1   110.5600475 386.601600
   1448   1447   1450     1   109.8000471 387.438400
   1448   1447   1449     1   107.5800459 329.699200
   1449   1447   1450     1   109.8000471 387.438400
   1450   1453   1475     1   110.1100470 384.091200
   1451   1450   1453     1   108.0100461 406.684800
   1451   1450   1452     1   109.7500473 328.025600
   1452   1450   1453     1   108.0100461 406.684800
   1453   1454   1455     1   108.0100461 406.684800
   1453   1454   1456     1   108.0100461 406.684800
   1453   1464   1465     1   108.0100461 406.684800
   1453   1464   1466     1   108.0100461 406.684800
   1454   1457   1458     1   109.8000471 387.438400
   1454   1457   1459     1   109.8000471 387.438400
   1454   1453   1475     1   110.1100470 384.091200
   1455   1454   1457     1   110.5600475 386.601600
   1455   1454   1456     1   109.7500473 328.025600
   1456   1454   1457     1   110.5600475 386.601600
   1458   1457   1460     1   108.7700466 392.459200
   1458   1457   1459     1   107.5800459 329.699200
   1459   1457   1460     1   108.7700466 392.459200
   1460   1462   1463     1   106.5500460 417.563200
   1464   1467   1468     1   109.8000471 387.438400
   1464   1467   1469     1   109.8000471 387.438400
   1464   1453   1475     1   110.1100470 384.091200
   1465   1464   1467     1   110.5600475 386.601600
   1465   1464   1466     1   109.7500473 328.025600
   1466   1464   1467     1   110.5600475 386.601600
   1468   1467   1470     1   108.7700466 392.459200
   1468   1467   1469     1   107.5800459 329.699200
   1469   1467   1470     1   108.7700466 392.459200
   1470   1472   1473     1   106.5500460 417.563200
   1476   1479   1480     1   109.8000471 387.438400
   1476   1479   1481     1   109.8000471 387.438400
   1477   1476   1479     1   109.5600471 388.275200
   1477   1476   1506     1   109.7800468 425.094400
   1477   1476   1478     1   108.4600466 328.025600
   1478   1476   1479     1   109.5600471 388.275200
   1478   1476   1506     1   109.7800468 425.094400
   1479   1482   1483     1   110.5600475 386.601600
   1479   1482   1484     1   110.5600475 386.601600
   1480   1479   1482     1   109.8000471 387.438400
   1480   1479   1481     1   107.5800459 329.699200
   1481   1479   1482     1   109.8000471 387.438400
   1482   1485   1507     1   110.1100470 384.091200
   1483   1482   1485     1   108.0100461 406.684800
   1483   1482   1484     1   109.7500473 328.025600
   1484   1482   1485     1   108.0100461 406.684800
   1485   1486   1487     1   108.0100461 406.684800
   1485   1486   1488     1   108.0100461 406.684800
   1485   1496   1497     1   108.0100461 406.684800
   1485   1496   1498     1   108.0100461 406.684800
   1486   1485   1507     1   110.1100470 384.091200
   1486   1489   1490     1   109.8000471 387.438400
   1486   1489   1491     1   109.8000471 387.438400
   1487   1486   1489     1   110.5600475 386.601600
   1487   1486   1488     1   109.7500473 328.025600
   1488   1486   1489     1   110.5600475 386.601600
   1490   1489   1492     1   108.7700466 392.459200
   1490   1489   1491     1   107.5800459 329.699200
   1491   1489   1492     1   108.7700466 392.459200
   1492   1494   1495     1   106.5500460 417.563200
   1496   1485   1507     1   110.1100470 384.091200
   1496   1499   1500     1   109.8000471 387.438400
   1496   1499   1501     1   109.8000471 387.438400
   1497   1496   1499     1   110.5600475 386.601600
   1497   1496   1498     1   109.7500473 328.025600
   1498   1496   1499     1   110.5600475 386.601600
   1500   1499   1502     1   108.7700466 392.459200
   1500   1499   1501     1   107.5800459 329.699200
   1501   1499   1502     1   108.7700466 392.459200
   1502   1504   1505     1   106.5500460 417.563200
   1508   1511   1512     1   109.8000471 387.438400
   1508   1511   1513     1   109.8000471 387.438400
   1509   1508   1511     1   109.5600471 388.275200
   1509   1508   1538     1   109.7800468 425.094400
   1509   1508   1510     1   108.4600466 328.025600
   1510   1508   1511     1   109.5600471 388.275200
   1510   1508   1538     1   109.7800468 425.094400
   1511   1514   1515     1   110.5600475 386.601600
   1511   1514   1516     1   110.5600475 386.601600
   1512   1511   1514     1   109.8000471 387.438400
   1512   1511   1513     1   107.5800459 329.699200
   1513   1511   1514     1   109.8000471 387.438400
   1514   1517   1539     1   110.1100470 384.091200
   1515   1514   1517     1   108.0100461 406.684800
   1515   1514   1516     1   109.7500473 328.025600
   1516   1514   1517     1   108.0100461 406.684800
   1517   1518   1519     1   108.0100461 406.684800
   1517   1518   1520     1   108.0100461 406.684800
   1517   1528   1529     1   108.0100461 406.684800
   1517   1528   1530     1   108.0100461 406.684800
   1518   1521   1522     1   109.8000471 387.438400
   1518   1521   1523     1   109.8000471 387.438400
   1518   1517   1539     1   110.1100470 384.091200
   1519   1518   1521     1   110.5600475 386.601600
   1519   1518   1520     1   109.7500473 328.025600
   1520   1518   1521     1   110.5600475 386.601600
   1522   1521   1524     1   108.7700466 392.459200
   1522   1521   1523     1   107.5800459 329.699200
   1523   1521   1524     1   108.7700466 392.459200
   1524   1526   1527     1   106.5500460 417.563200
   1528   1531   1532     1   109.8000471 387.438400
   1528   1531   1533     1   109.8000471 387.438400
   1528   1517   1539     1   110.1100470 384.091200
   1529   1528   1531     1   110.5600475 386.601600
   1529   1528   1530     1   109.7500473 328.025600
   1530   1528   1531     1   110.5600475 386.601600
   1532   1531   1534     1   108.7700466 392.459200
   1532   1531   1533     1   107.5800459 329.699200
   1533   1531   1534     1   108.7700466 392.459200
   1534   1536   1537     1   106.5500460 417.563200
   1540   1543   1544     1   109.8000471 387.438400
   1540   1543   1545     1   109.8000471 387.438400
   1541   1540   1543     1   109.5600471 388.275200
   1541   1540   1570     1   109.7800468 425.094400
   1541   1540   1542     1   108.4600466 328.025600
   1542   1540   1543     1   109.5600471 388.275200
   1542   1540   1570     1   109.7800468 425.094400
   1543   1546   1547     1   110.5600475 386.601600
   1543   1546   1548     1   110.5600475 386.601600
   1544   1543   1546     1   109.8000471 387.438400
   1544   1543   1545     1   107.5800459 329.699200
   1545   1543   1546     1   109.8000471 387.438400
   1546   1549   1571     1   110.1100470 384.091200
   1547   1546   1549     1   108.0100461 406.684800
   1547   1546   1548     1   109.7500473 328.025600
   1548   1546   1549     1   108.0100461 406.684800
   1549   1550   1551     1   108.0100461 406.684800
   1549   1550   1552     1   108.0100461 406.684800
   1549   1560   1561     1   108.0100461 406.684800
   1549   1560   1562     1   108.0100461 406.684800
   1550   1549   1571     1   110.1100470 384.091200
   1550   1553   1554     1   109.8000471 387.438400
   1550   1553   1555     1   109.8000471 387.438400
   1551   1550   1553     1   110.5600475 386.601600
   1551   1550   1552     1   109.7500473 328.025600
   1552   1550   1553     1   110.5600475 386.601600
   1554   1553   1556     1   108.7700466 392.459200
   1554   1553   1555     1   107.5800459 329.699200
   1555   1553   1556     1   108.7700466 392.459200
   1556   1558   1559     1   106.5500460 417.563200
   1560   1549   1571     1   110.1100470 384.091200
   1560   1563   1564     1   109.8000471 387.438400
   1560   1563   1565     1   109.8000471 387.438400
   1561   1560   1563     1   110.5600475 386.601600
   1561   1560   1562     1   109.7500473 328.025600
   1562   1560   1563     1   110.5600475 386.601600
   1564   1563   1566     1   108.7700466 392.459200
   1564   1563   1565     1   107.5800459 329.699200
   1565   1563   1566     1   108.7700466 392.459200
   1566   1568   1569     1   106.5500460 417.563200
   1572   1575   1576     1   109.8000471 387.438400
   1572   1575   1577     1   109.8000471 387.438400
   1573   1572   1575     1   109.5600471 388.275200
   1573   1572   1602     1   109.7800468 425.094400
   1573   1572   1574     1   108.4600466 328.025600
   1574   1572   1575     1   109.5600471 388.275200
   1574   1572   1602     1   109.7800468 425.094400
   1575   1578   1579     1   110.5600475 386.601600
   1575   1578   1580     1   110.5600475 386.601600
   1576   1575   1578     1   109.8000471 387.438400
   1576   1575   1577     1   107.5800459 329.699200
   1577   1575   1578     1   109.8000471 387.438400
   1578   1581   1603     1   110.1100470 384.091200
   1579   1578   1581     1   108.0100461 406.684800
   1579   1578   1580     1   109.7500473 328.025600
   1580   1578   1581     1   108.0100461 406.684800
   1581   1582   1583     1   108.0100461 406.684800
   1581   1582   1584     1   108.0100461 406.684800
   1581   1592   1593     1   108.0100461 406.684800
   1581   1592   1594     1   108.0100461 406.684800
   1582   1585   1586     1   109.8000471 387.438400
   1582   1585   1587     1   109.8000471 387.438400
   1582   1581   1603     1   110.1100470 384.091200
   1583   1582   1585     1   110.5600475 386.601600
   1583   1582   1584     1   109.7500473 328.025600
   1584   1582   1585     1   110.5600475 386.601600
   1586   1585   1588     1   108.7700466 392.459200
   1586   1585   1587     1   107.5800459 329.699200
   1587   1585   1588     1   108.7700466 392.459200
   1588   1590   1591     1   106.5500460 417.563200
   1592   1595   1596     1   109.8000471 387.438400
   1592   1595   1597     1   109.8000471 387.438400
   1592   1581   1603     1   110.1100470 384.091200
   1593   1592   1595     1   110.5600475 386.601600
   1593   1592   1594     1   109.7500473 328.025600
   1594   1592   1595     1   110.5600475 386.601600
   1596   1595   1598     1   108.7700466 392.459200
   1596   1595   1597     1   107.5800459 329.699200
   1597   1595   1598     1   108.7700466 392.459200
   1598   1600   1601     1   106.5500460 417.563200
   1604   1607   1608     1   109.8000471 387.438400
   1604   1607   1609     1   109.8000471 387.438400
   1605   1604   1607     1   109.5600471 388.275200
   1605   1604   1634     1   109.7800468 425.094400
   1605   1604   1606     1   108.4600466 328.025600
   1606   1604   1607     1   109.5600471 388.275200
   1606   1604   1634     1   109.7800468 425.094400
   1607   1610   1611     1   110.5600475 386.601600
   1607   1610   1612     1   110.5600475 386.601600
   1608   1607   1610     1   109.8000471 387.438400
   1608   1607   1609     1   107.5800459 329.699200
   1609   1607   1610     1   109.8000471 387.438400
   1610   1613   1635     1   110.1100470 384.091200
   1611   1610   1613     1   108.0100461 406.684800
   1611   1610   1612     1   109.7500473 328.025600
   1612   1610   1613     1   108.0100461 406.684800
   1613   1614   1615     1   108.0100461 406.684800
   1613   1614   1616     1   108.0100461 406.684800
   1613   1624   1625     1   108.0100461 406.684800
   1613   1624   1626     1   108.0100461 406.684800
   1614   1613   1635     1   110.1100470 384.091200
   1614   1617   1618     1   109.8000471 387.438400
   1614   1617   1619     1   109.8000471 387.438400
   1615   1614   1617     1   110.5600475 386.601600
   1615   1614   1616     1   109.7500473 328.025600
   1616   1614   1617     1   110.5600475 386.601600
   1618   1617   1620     1   108.7700466 392.459200
   1618   1617   1619     1   107.5800459 329.699200
   1619   1617   1620     1   108.7700466 392.459200
   1620   1622   1623     1   106.5500460 417.563200
   1624   1613   1635     1   110.1100470 384.091200
   1624   1627   1628     1   109.8000471 387.438400
   1624   1627   1629     1   109.8000471 387.438400
   1625   1624   1627     1   110.5600475 386.601600
   1625   1624   1626     1   109.7500473 328.025600
   1626   1624   1627     1   110.5600475 386.601600
   1628   1627   1630     1   108.7700466 392.459200
   1628   1627   1629     1   107.5800459 329.699200
   1629   1627   1630     1   108.7700466 392.459200
   1630   1632   1633     1   106.5500460 417.563200
   1636   1639   1640     1   109.8000471 387.438400
   1636   1639   1641     1   109.8000471 387.438400
   1637   1636   1639     1   109.5600471 388.275200
   1637   1636   1666     1   109.7800468 425.094400
   1637   1636   1638     1   108.4600466 328.025600
   1638   1636   1639     1   109.5600471 388.275200
   1638   1636   1666     1   109.7800468 425.094400
   1639   1642   1643     1   110.5600475 386.601600
   1639   1642   1644     1   110.5600475 386.601600
   1640   1639   1642     1   109.8000471 387.438400
   1640   1639   1641     1   107.5800459 329.699200
   1641   1639   1642     1   109.8000471 387.438400
   1642   1645   1667     1   110.1100470 384.091200
   1643   1642   1645     1   108.0100461 406.684800
   1643   1642   1644     1   109.7500473 328.025600
   1644   1642   1645     1   108.0100461 406.684800
   1645   1646   1647     1   108.0100461 406.684800
   1645   1646   1648     1   108.0100461 406.684800
   1645   1656   1657     1   108.0100461 406.684800
   1645   1656   1658     1   108.0100461 406.684800
   1646   1649   1650     1   109.8000471 387.438400
   1646   1649   1651     1   109.8000471 387.438400
   1646   1645   1667     1   110.1100470 384.091200
   1647   1646   1649     1   110.5600475 386.601600
   1647   1646   1648     1   109.7500473 328.025600
   1648   1646   1649     1   110.5600475 386.601600
   1650   1649   1652     1   108.7700466 392.459200
   1650   1649   1651     1   107.5800459 329.699200
   1651   1649   1652     1   108.7700466 392.459200
   1652   1654   1655     1   106.5500460 417.563200
   1656   1659   1660     1   109.8000471 387.438400
   1656   1659   1661     1   109.8000471 387.438400
   1656   1645   1667     1   110.1100470 384.091200
   1657   1656   1659     1   110.5600475 386.601600
   1657   1656   1658     1   109.7500473 328.025600
   1658   1656   1659     1   110.5600475 386.601600
   1660   1659   1662     1   108.7700466 392.459200
   1660   1659   1661     1   107.5800459 329.699200
   1661   1659   1662     1   108.7700466 392.459200
   1662   1664   1665     1   106.5500460 417.563200
   1668   1671   1672     1   109.8000471 387.438400
   1668   1671   1673     1   109.8000471 387.438400
   1669   1668   1671     1   109.5600471 388.275200
   1669   1668   1698     1   109.7800468 425.094400
   1669   1668   1670     1   108.4600466 328.025600
   1670   1668   1671     1   109.5600471 388.275200
   1670   1668   1698     1   109.7800468 425.094400
   1671   1674   1675     1   110.5600475 386.601600
   1671   1674   1676     1   110.5600475 386.601600
   1672   1671   1674     1   109.8000471 387.438400
   1672   1671   1673     1   107.5800459 329.699200
   1673   1671   1674     1   109.8000471 387.438400
   1674   1677   1699     1   110.1100470 384.091200
   1675   1674   1677     1   108.0100461 406.684800
   1675   1674   1676     1   109.7500473 328.025600
   1676   1674   1677     1   108.0100461 406.684800
   1677   1678   1679     1   108.0100461 406.684800
   1677   1678   1680     1   108.0100461 406.684800
   1677   1688   1689     1   108.0100461 406.684800
   1677   1688   1690     1   108.0100461 406.684800
   1678   1677   1699     1   110.1100470 384.091200
   1678   1681   1682     1   109.8000471 387.438400
   1678   1681   1683     1   109.8000471 387.438400
   1679   1678   1681     1   110.5600475 386.601600
   1679   1678   1680     1   109.7500473 328.025600
   1680   1678   1681     1   110.5600475 386.601600
   1682   1681   1684     1   108.7700466 392.459200
   1682   1681   1683     1   107.5800459 329.699200
   1683   1681   1684     1   108.7700466 392.459200
   1684   1686   1687     1   106.5500460 417.563200
   1688   1677   1699     1   110.1100470 384.091200
   1688   1691   1692     1   109.8000471 387.438400
   1688   1691   1693     1   109.8000471 387.438400
   1689   1688   1691     1   110.5600475 386.601600
   1689   1688   1690     1   109.7500473 328.025600
   1690   1688   1691     1   110.5600475 386.601600
   1692   1691   1694     1   108.7700466 392.459200
   1692   1691   1693     1   107.5800459 329.699200
   1693   1691   1694     1   108.7700466 392.459200
   1694   1696   1697     1   106.5500460 417.563200
   1700   1703   1704     1   109.8000471 387.438400
   1700   1703   1705     1   109.8000471 387.438400
   1701   1700   1703     1   109.5600471 388.275200
   1701   1700   1730     1   109.7800468 425.094400
   1701   1700   1702     1   108.4600466 328.025600
   1702   1700   1703     1   109.5600471 388.275200
   1702   1700   1730     1   109.7800468 425.094400
   1703   1706   1707     1   110.5600475 386.601600
   1703   1706   1708     1   110.5600475 386.601600
   1704   1703   1706     1   109.8000471 387.438400
   1704   1703   1705     1   107.5800459 329.699200
   1705   1703   1706     1   109.8000471 387.438400
   1706   1709   1731     1   110.1100470 384.091200
   1707   1706   1709     1   108.0100461 406.684800
   1707   1706   1708     1   109.7500473 328.025600
   1708   1706   1709     1   108.0100461 406.684800
   1709   1710   1711     1   108.0100461 406.684800
   1709   1710   1712     1   108.0100461 406.684800
   1709   1720   1721     1   108.0100461 406.684800
   1709   1720   1722     1   108.0100461 406.684800
   1710   1713   1714     1   109.8000471 387.438400
   1710   1713   1715     1   109.8000471 387.438400
   1710   1709   1731     1   110.1100470 384.091200
   1711   1710   1713     1   110.5600475 386.601600
   1711   1710   1712     1   109.7500473 328.025600
   1712   1710   1713     1   110.5600475 386.601600
   1714   1713   1716     1   108.7700466 392.459200
   1714   1713   1715     1   107.5800459 329.699200
   1715   1713   1716     1   108.7700466 392.459200
   1716   1718   1719     1   106.5500460 417.563200
   1720   1723   1724     1   109.8000471 387.438400
   1720   1723   1725     1   109.8000471 387.438400
   1720   1709   1731     1   110.1100470 384.091200
   1721   1720   1723     1   110.5600475 386.601600
   1721   1720   1722     1   109.7500473 328.025600
   1722   1720   1723     1   110.5600475 386.601600
   1724   1723   1726     1   108.7700466 392.459200
   1724   1723   1725     1   107.5800459 329.699200
   1725   1723   1726     1   108.7700466 392.459200
   1726   1728   1729     1   106.5500460 417.563200
   1732   1735   1736     1   109.8000471 387.438400
   1732   1735   1737     1   109.8000471 387.438400
   1733   1732   1735     1   109.5600471 388.275200
   1733   1732   1762     1   109.7800468 425.094400
   1733   1732   1734     1   108.4600466 328.025600
   1734   1732   1735     1   109.5600471 388.275200
   1734   1732   1762     1   109.7800468 425.094400
   1735   1738   1739     1   110.5600475 386.601600
   1735   1738   1740     1   110.5600475 386.601600
   1736   1735   1738     1   109.8000471 387.438400
   1736   1735   1737     1   107.5800459 329.699200
   1737   1735   1738     1   109.8000471 387.438400
   1738   1741   1763     1   110.1100470 384.091200
   1739   1738   1741     1   108.0100461 406.684800
   1739   1738   1740     1   109.7500473 328.025600
   1740   1738   1741     1   108.0100461 406.684800
   1741   1742   1743     1   108.0100461 406.684800
   1741   1742   1744     1   108.0100461 406.684800
   1741   1752   1753     1   108.0100461 406.684800
   1741   1752   1754     1   108.0100461 406.684800
   1742   1741   1763     1   110.1100470 384.091200
   1742   1745   1746     1   109.8000471 387.438400
   1742   1745   1747     1   109.8000471 387.438400
   1743   1742   1745     1   110.5600475 386.601600
   1743   1742   1744     1   109.7500473 328.025600
   1744   1742   1745     1   110.5600475 386.601600
   1746   1745   1748     1   108.7700466 392.459200
   1746   1745   1747     1   107.5800459 329.699200
   1747   1745   1748     1   108.7700466 392.459200
   1748   1750   1751     1   106.5500460 417.563200
   1752   1741   1763     1   110.1100470 384.091200
   1752   1755   1756     1   109.8000471 387.438400
   1752   1755   1757     1   109.8000471 387.438400
   1753   1752   1755     1   110.5600475 386.601600
   1753   1752   1754     1   109.7500473 328.025600
   1754   1752   1755     1   110.5600475 386.601600
   1756   1755   1758     1   108.7700466 392.459200
   1756   1755   1757     1   107.5800459 329.699200
   1757   1755   1758     1   108.7700466 392.459200
   1758   1760   1761     1   106.5500460 417.563200
   1764   1767   1768     1   109.8000471 387.438400
   1764   1767   1769     1   109.8000471 387.438400
   1765   1764   1767     1   109.5600471 388.275200
   1765   1764   1794     1   109.7800468 425.094400
   1765   1764   1766     1   108.4600466 328.025600
   1766   1764   1767     1   109.5600471 388.275200
   1766   1764   1794     1   109.7800468 425.094400
   1767   1770   1771     1   110.5600475 386.601600
   1767   1770   1772     1   110.5600475 386.601600
   1768   1767   1770     1   109.8000471 387.438400
   1768   1767   1769     1   107.5800459 329.699200
   1769   1767   1770     1   109.8000471 387.438400
   1770   1773   1795     1   110.1100470 384.091200
   1771   1770   1773     1   108.0100461 406.684800
   1771   1770   1772     1   109.7500473 328.025600
   1772   1770   1773     1   108.0100461 406.684800
   1773   1774   1775     1   108.0100461 406.684800
   1773   1774   1776     1   108.0100461 406.684800
   1773   1784   1785     1   108.0100461 406.684800
   1773   1784   1786     1   108.0100461 406.684800
   1774   1777   1778     1   109.8000471 387.438400
   1774   1777   1779     1   109.8000471 387.438400
   1774   1773   1795     1   110.1100470 384.091200
   1775   1774   1777     1   110.5600475 386.601600
   1775   1774   1776     1   109.7500473 328.025600
   1776   1774   1777     1   110.5600475 386.601600
   1778   1777   1780     1   108.7700466 392.459200
   1778   1777   1779     1   107.5800459 329.699200
   1779   1777   1780     1   108.7700466 392.459200
   1780   1782   1783     1   106.5500460 417.563200
   1784   1787   1788     1   109.8000471 387.438400
   1784   1787   1789     1   109.8000471 387.438400
   1784   1773   1795     1   110.1100470 384.091200
   1785   1784   1787     1   110.5600475 386.601600
   1785   1784   1786     1   109.7500473 328.025600
   1786   1784   1787     1   110.5600475 386.601600
   1788   1787   1790     1   108.7700466 392.459200
   1788   1787   1789     1   107.5800459 329.699200
   1789   1787   1790     1   108.7700466 392.459200
   1790   1792   1793     1   106.5500460 417.563200
   1796   1799   1800     1   109.8000471 387.438400
   1796   1799   1801     1   109.8000471 387.438400
   1797   1796   1799     1   109.5600471 388.275200
   1797   1796   1826     1   109.7800468 425.094400
   1797   1796   1798     1   108.4600466 328.025600
   1798   1796   1799     1   109.5600471 388.275200
   1798   1796   1826     1   109.7800468 425.094400
   1799   1802   1803     1   110.5600475 386.601600
   1799   1802   1804     1   110.5600475 386.601600
   1800   1799   1802     1   109.8000471 387.438400
   1800   1799   1801     1   107.5800459 329.699200
   1801   1799   1802     1   109.8000471 387.438400
   1802   1805   1827     1   110.1100470 384.091200
   1803   1802   1805     1   108.0100461 406.684800
   1803   1802   1804     1   109.7500473 328.025600
   1804   1802   1805     1   108.0100461 406.684800
   1805   1806   1807     1   108.0100461 406.684800
   1805   1806   1808     1   108.0100461 406.684800
   1805   1816   1817     1   108.0100461 406.684800
   1805   1816   1818     1   108.0100461 406.684800
   1806   1805   1827     1   110.1100470 384.091200
   1806   1809   1810     1   109.8000471 387.438400
   1806   1809   1811     1   109.8000471 387.438400
   1807   1806   1809     1   110.5600475 386.601600
   1807   1806   1808     1   109.7500473 328.025600
   1808   1806   1809     1   110.5600475 386.601600
   1810   1809   1812     1   108.7700466 392.459200
   1810   1809   1811     1   107.5800459 329.699200
   1811   1809   1812     1   108.7700466 392.459200
   1812   1814   1815     1   106.5500460 417.563200
   1816   1805   1827     1   110.1100470 384.091200
   1816   1819   1820     1   109.8000471 387.438400
   1816   1819   1821     1   109.8000471 387.438400
   1817   1816   1819     1   110.5600475 386.601600
   1817   1816   1818     1   109.7500473 328.025600
   1818   1816   1819     1   110.5600475 386.601600
   1820   1819   1822     1   108.7700466 392.459200
   1820   1819   1821     1   107.5800459 329.699200
   1821   1819   1822     1   108.7700466 392.459200
   1822   1824   1825     1   106.5500460 417.563200
   1828   1831   1832     1   109.8000471 387.438400
   1828   1831   1833     1   109.8000471 387.438400
   1829   1828   1831     1   109.5600471 388.275200
   1829   1828   1858     1   109.7800468 425.094400
   1829   1828   1830     1   108.4600466 328.025600
   1830   1828   1831     1   109.5600471 388.275200
   1830   1828   1858     1   109.7800468 425.094400
   1831   1834   1835     1   110.5600475 386.601600
   1831   1834   1836     1   110.5600475 386.601600
   1832   1831   1834     1   109.8000471 387.438400
   1832   1831   1833     1   107.5800459 329.699200
   1833   1831   1834     1   109.8000471 387.438400
   1834   1837   1859     1   110.1100470 384.091200
   1835   1834   1837     1   108.0100461 406.684800
   1835   1834   1836     1   109.7500473 328.025600
   1836   1834   1837     1   108.0100461 406.684800
   1837   1838   1839     1   108.0100461 406.684800
   1837   1838   1840     1   108.0100461 406.684800
   1837   1848   1849     1   108.0100461 406.684800
   1837   1848   1850     1   108.0100461 406.684800
   1838   1841   1842     1   109.8000471 387.438400
   1838   1841   1843     1   109.8000471 387.438400
   1838   1837   1859     1   110.1100470 384.091200
   1839   1838   1841     1   110.5600475 386.601600
   1839   1838   1840     1   109.7500473 328.025600
   1840   1838   1841     1   110.5600475 386.601600
   1842   1841   1844     1   108.7700466 392.459200
   1842   1841   1843     1   107.5800459 329.699200
   1843   1841   1844     1   108.7700466 392.459200
   1844   1846   1847     1   106.5500460 417.563200
   1848   1851   1852     1   109.8000471 387.438400
   1848   1851   1853     1   109.8000471 387.438400
   1848   1837   1859     1   110.1100470 384.091200
   1849   1848   1851     1   110.5600475 386.601600
   1849   1848   1850     1   109.7500473 328.025600
   1850   1848   1851     1   110.5600475 386.601600
   1852   1851   1854     1   108.7700466 392.459200
   1852   1851   1853     1   107.5800459 329.699200
   1853   1851   1854     1   108.7700466 392.459200
   1854   1856   1857     1   106.5500460 417.563200
   1860   1863   1864     1   109.8000471 387.438400
   1860   1863   1865     1   109.8000471 387.438400
   1861   1860   1863     1   109.5600471 388.275200
   1861   1860   1890     1   109.7800468 425.094400
   1861   1860   1862     1   108.4600466 328.025600
   1862   1860   1863     1   109.5600471 388.275200
   1862   1860   1890     1   109.7800468 425.094400
   1863   1866   1867     1   110.5600475 386.601600
   1863   1866   1868     1   110.5600475 386.601600
   1864   1863   1866     1   109.8000471 387.438400
   1864   1863   1865     1   107.5800459 329.699200
   1865   1863   1866     1   109.8000471 387.438400
   1866   1869   1891     1   110.1100470 384.091200
   1867   1866   1869     1   108.0100461 406.684800
   1867   1866   1868     1   109.7500473 328.025600
   1868   1866   1869     1   108.0100461 406.684800
   1869   1870   1871     1   108.0100461 406.684800
   1869   1870   1872     1   108.0100461 406.684800
   1869   1880   1881     1   108.0100461 406.684800
   1869   1880   1882     1   108.0100461 406.684800
   1870   1869   1891     1   110.1100470 384.091200
   1870   1873   1874     1   109.8000471 387.438400
   1870   1873   1875     1   109.8000471 387.438400
   1871   1870   1873     1   110.5600475 386.601600
   1871   1870   1872     1   109.7500473 328.025600
   1872   1870   1873     1   110.5600475 386.601600
   1874   1873   1876     1   108.7700466 392.459200
   1874   1873   1875     1   107.5800459 329.699200
   1875   1873   1876     1   108.7700466 392.459200
   1876   1878   1879     1   106.5500460 417.563200
   1880   1869   1891     1   110.1100470 384.091200
   1880   1883   1884     1   109.8000471 387.438400
   1880   1883   1885     1   109.8000471 387.438400
   1881   1880   1883     1   110.5600475 386.601600
   1881   1880   1882     1   109.7500473 328.025600
   1882   1880   1883     1   110.5600475 386.601600
   1884   1883   1886     1   108.7700466 392.459200
   1884   1883   1885     1   107.5800459 329.699200
   1885   1883   1886     1   108.7700466 392.459200
   1886   1888   1889     1   106.5500460 417.563200
   1892   1895   1896     1   109.8000471 387.438400
   1892   1895   1897     1   109.8000471 387.438400
   1893   1892   1895     1   109.5600471 388.275200
   1893   1892   1922     1   109.7800468 425.094400
   1893   1892   1894     1   108.4600466 328.025600
   1894   1892   1895     1   109.5600471 388.275200
   1894   1892   1922     1   109.7800468 425.094400
   1895   1898   1899     1   110.5600475 386.601600
   1895   1898   1900     1   110.5600475 386.601600
   1896   1895   1898     1   109.8000471 387.438400
   1896   1895   1897     1   107.5800459 329.699200
   1897   1895   1898     1   109.8000471 387.438400
   1898   1901   1923     1   110.1100470 384.091200
   1899   1898   1901     1   108.0100461 406.684800
   1899   1898   1900     1   109.7500473 328.025600
   1900   1898   1901     1   108.0100461 406.684800
   1901   1902   1903     1   108.0100461 406.684800
   1901   1902   1904     1   108.0100461 406.684800
   1901   1912   1913     1   108.0100461 406.684800
   1901   1912   1914     1   108.0100461 406.684800
   1902   1905   1906     1   109.8000471 387.438400
   1902   1905   1907     1   109.8000471 387.438400
   1902   1901   1923     1   110.1100470 384.091200
   1903   1902   1905     1   110.5600475 386.601600
   1903   1902   1904     1   109.7500473 328.025600
   1904   1902   1905     1   110.5600475 386.601600
   1906   1905   1908     1   108.7700466 392.459200
   1906   1905   1907     1   107.5800459 329.699200
   1907   1905   1908     1   108.7700466 392.459200
   1908   1910   1911     1   106.5500460 417.563200
   1912   1915   1916     1   109.8000471 387.438400
   1912   1915   1917     1   109.8000471 387.438400
   1912   1901   1923     1   110.1100470 384.091200
   1913   1912   1915     1   110.5600475 386.601600
   1913   1912   1914     1   109.7500473 328.025600
   1914   1912   1915     1   110.5600475 386.601600
   1916   1915   1918     1   108.7700466 392.459200
   1916   1915   1917     1   107.5800459 329.699200
   1917   1915   1918     1   108.7700466 392.459200
   1918   1920   1921     1   106.5500460 417.563200

[ dihedrals ]
;    ai     aj     ak     al funct         c0         c1         c2         c3         c4         c5
      1      2      8     14     1  0.0000000  0.6508444  3
      1      5     11     17     1  0.0000000  0.6508444  3
      2      1      5     11     1  180.0000771  0.4184000  2
      2      1      5     11     1  0.0000000  1.6024720  3
      2      8     14     20     1  0.0000000  0.6508444  3
      5      1      2      8     1  180.0000771  0.4184000  2
      5      1      2      8     1  0.0000000  1.6024720  3
      5     11     17     21     1  0.0000000  0.6508444  3
      8     14     20     28     1  0.0000000  0.6508444  3
      8     14     20     31     1  0.0000000  0.6508444  3
     11     17     21     22     1  0.0000000  0.6508444  3
     11     17     21     25     1  0.0000000  0.6508444  3
     14     20     28     40     1  0.0000000  0.6508444  3
     14     20     31     43     1  0.0000000  0.6508444  3
     17     21     22     34     1  0.0000000  0.6508444  3
     17     21     25     37     1  0.0000000  0.6508444  3
     20     28     40     49     1  0.0000000  0.6508444  3
     20     31     43     46     1  0.0000000  0.6508444  3
     21     22     34     55     1  0.0000000  0.6508444  3
     21     25     37     52     1  0.0000000  0.6508444  3
     22     21     25     37     1  0.0000000  0.6508444  3
     22     34     55    178     1  0.0000000  0.6508444  3
     25     21     22     34     1  0.0000000  0.6508444  3
     25     37     52    148     1  0.0000000  0.6508444  3
     28     20     31     43     1  0.0000000  0.6508444  3
     28     40     49    118     1  0.0000000  0.6508444  3
     31     20     28     40     1  0.0000000  0.6508444  3
     31     43     46     88     1  0.0000000  0.6508444  3
     34     55    178    169     1  180.0000771  0.4184000  2
     34     55    178    169     1  0.0000000  1.6024720  3
     37     52    148    139     1  180.0000771  0.4184000  2
     37     52    148    139     1  0.0000000  1.6024720  3
     40     49    118    109     1  180.0000771  0.4184000  2
     40     49    118    109     1  0.0000000  1.6024720  3
     43     46     88     79     1  180.0000771  0.4184000  2
     43     46     88     79     1  0.0000000  1.6024720  3
     46     88     79     70     1  180.0000771  0.4184000  2
     46     88     79     70     1  0.0000000  1.6024720  3
     49    118    109    100     1  180.0000771  0.4184000  2
     49    118    109    100     1  0.0000000  1.6024720  3
     52    148    139    130     1  180.0000771  0.4184000  2
     52    148    139    130     1  0.0000000  1.6024720  3
     55    178    169    160     1  180.0000771  0.4184000  2
     55    178    169    160     1  0.0000000  1.6024720  3
     60     61     73     85     1  0.0000000  0.6508444  3
     60     64     76     82     1  0.0000000  0.6508444  3
     60     67     70     79     1  0.0000000  0.6508444  3
     61     60     64     76     1  0.0000000  0.6508444  3
     61     60     67     70     1  0.0000000  0.6508444  3
     61     73     85    238     1  0.0000000  0.6508444  3
     64     60     61     73     1  0.0000000  0.6508444  3
     64     60     67     70     1  0.0000000  0.6508444  3
     64     76     82    208     1  0.0000000  0.6508444  3
     67     60     61     73     1  0.0000000  0.6508444  3
     67     60     64     76     1  0.0000000  0.6508444  3
     67     70     79     88     1  0.0000000  0.6508444  3
     73     85    238    229     1  180.0000771  0.4184000  2
     73     85    238    229     1  0.0000000  1.6024720  3
     76     82    208    199     1  180.0000771  0.4184000  2
     76     82    208    199     1  0.0000000  1.6024720  3
     82    208    199    190     1  180.0000771  0.4184000  2
     82    208    199    190     1  0.0000000  1.6024720  3
     85    238    229    220     1  180.0000771  0.4184000  2
     85    238    229    220     1  0.0000000  1.6024720  3
     90     91    103    115     1  0.0000000  0.6508444  3
     90     94    106    112     1  0.0000000  0.6508444  3
     90     97    100    109     1  0.0000000  0.6508444  3
     91     90     94    106     1  0.0000000  0.6508444  3
     91     90     97    100     1  0.0000000  0.6508444  3
     91    103    115    298     1  0.0000000  0.6508444  3
     94     90     91    103     1  0.0000000  0.6508444  3
     94     90     97    100     1  0.0000000  0.6508444  3
     94    106    112    268     1  0.0000000  0.6508444  3
     97     90     91    103     1  0.0000000  0.6508444  3
     97     90     94    106     1  0.0000000  0.6508444  3
     97    100    109    118     1  0.0000000  0.6508444  3
    103    115    298    289     1  180.0000771  0.4184000  2
    103    115    298    289     1  0.0000000  1.6024720  3
    106    112    268    259     1  180.0000771  0.4184000  2
    106    112    268    259     1  0.0000000  1.6024720  3
    112    268    259    250     1  180.0000771  0.4184000  2
    112    268    259    250     1  0.0000000  1.6024720  3
    115    298    289    280     1  180.0000771  0.4184000  2
    115    298    289    280     1  0.0000000  1.6024720  3
    120    121    133    145     1  0.0000000  0.6508444  3
    120    124    136    142     1  0.0000000  0.6508444  3
    120    127    130    139     1  0.0000000  0.6508444  3
    121    120    124    136     1  0.0000000  0.6508444  3
    121    120    127    130     1  0.0000000  0.6508444  3
    121    133    145    358     1  0.0000000  0.6508444  3
    124    120    121    133     1  0.0000000  0.6508444  3
    124    120    127    130     1  0.0000000  0.6508444  3
    124    136    142    328     1  0.0000000  0.6508444  3
    127    120    121    133     1  0.0000000  0.6508444  3
    127    120    124    136     1  0.0000000  0.6508444  3
    127    130    139    148     1  0.0000000  0.6508444  3
    133    145    358    349     1  180.0000771  0.4184000  2
    133    145    358    349     1  0.0000000  1.6024720  3
    136    142    328    319     1  180.0000771  0.4184000  2
    136    142    328    319     1  0.0000000  1.6024720  3
    142    328    319    310     1  180.0000771  0.4184000  2
    142    328    319    310     1  0.0000000  1.6024720  3
    145    358    349    340     1  180.0000771  0.4184000  2
    145    358    349    340     1  0.0000000  1.6024720  3
    150    151    163    175     1  0.0000000  0.6508444  3
    150    154    166    172     1  0.0000000  0.6508444  3
    150    157    160    169     1  0.0000000  0.6508444  3
    151    150    154    166     1  0.0000000  0.6508444  3
    151    150    157    160     1  0.0000000  0.6508444  3
    151    163    175    418     1  0.0000000  0.6508444  3
    154    150    151    163     1  0.0000000  0.6508444  3
    154    150    157    160     1  0.0000000  0.6508444  3
    154    166    172    388     1  0.0000000  0.6508444  3
    157    150    151    163     1  0.0000000  0.6508444  3
    157    150    154    166     1  0.0000000  0.6508444  3
    157    160    169    178     1  0.0000000  0.6508444  3
    163    175    418    409     1  180.0000771  0.4184000  2
    163    175    418    409     1  0.0000000  1.6024720  3
    166    172    388    379     1  180.0000771  0.4184000  2
    166    172    388    379     1  0.0000000  1.6024720  3
    172    388    379    370     1  180.0000771  0.4184000  2
    172    388    379    370     1  0.0000000  1.6024720  3
    175    418    409    400     1  180.0000771  0.4184000  2
    175    418    409    400     1  0.0000000  1.6024720  3
    180    181    193    205     1  0.0000000  0.6508444  3
    180    184    196    202     1  0.0000000  0.6508444  3
    180    187    190    199     1  0.0000000  0.6508444  3
    181    180    184    196     1  0.0000000  0.6508444  3
    181    180    187    190     1  0.0000000  0.6508444  3
    181    193    205    478     1  0.0000000  0.6508444  3
    184    180    181    193     1  0.0000000  0.6508444  3
    184    180    187    190     1  0.0000000  0.6508444  3
    184    196    202    448     1  0.0000000  0.6508444  3
    187    180    181    193     1  0.0000000  0.6508444  3
    187    180    184    196     1  0.0000000  0.6508444  3
    187    190    199    208     1  0.0000000  0.6508444  3
    193    205    478    469     1  180.0000771  0.4184000  2
    193    205    478    469     1  0.0000000  1.6024720  3
    196    202    448    439     1  180.0000771  0.4184000  2
    196    202    448    439     1  0.0000000  1.6024720  3
    202    448    439    430     1  180.0000771  0.4184000  2
    202    448    439    430     1  0.0000000  1.6024720  3
    205    478    469    460     1  180.0000771  0.4184000  2
    205    478    469    460     1  0.0000000  1.6024720  3
    210    211    223    235     1  0.0000000  0.6508444  3
    210    214    226    232     1  0.0000000  0.6508444  3
    210    217    220    229     1  0.0000000  0.6508444  3
    211    210    214    226     1  0.0000000  0.6508444  3
    211    210    217    220     1  0.0000000  0.6508444  3
    211    223    235    538     1  0.0000000  0.6508444  3
    214    210    211    223     1  0.0000000  0.6508444  3
    214    210    217    220     1  0.0000000  0.6508444  3
    214    226    232    508     1  0.0000000  0.6508444  3
    217    210    211    223     1  0.0000000  0.6508444  3
    217    210    214    226     1  0.0000000  0.6508444  3
    217    220    229    238     1  0.0000000  0.6508444  3
    223    235    538    529     1  180.0000771  0.4184000  2
    223    235    538    529     1  0.0000000  1.6024720  3
    226    232    508    499     1  180.0000771  0.4184000  2
    226    232    508    499     1  0.0000000  1.6024720  3
    232    508    499    490     1  180.0000771  0.4184000  2
    232    508    499    490     1  0.0000000  1.6024720  3
    235    538    529    520     1  180.0000771  0.4184000  2
    235    538    529    520     1  0.0000000  1.6024720  3
    240    241    253    265     1  0.0000000  0.6508444  3
    240    244    256    262     1  0.0000000  0.6508444  3
    240    247    250    259     1  0.0000000  0.6508444  3
    241    240    244    256     1  0.0000000  0.6508444  3
    241    240    247    250     1  0.0000000  0.6508444  3
    241    253    265    598     1  0.0000000  0.6508444  3
    244    240    241    253     1  0.0000000  0.6508444  3
    244    240    247    250     1  0.0000000  0.6508444  3
    244    256    262    568     1  0.0000000  0.6508444  3
    247    240    241    253     1  0.0000000  0.6508444  3
    247    240    244    256     1  0.0000000  0.6508444  3
    247    250    259    268     1  0.0000000  0.6508444  3
    253    265    598    589     1  180.0000771  0.4184000  2
    253    265    598    589     1  0.0000000  1.6024720  3
    256    262    568    559     1  180.0000771  0.4184000  2
    256    262    568    559     1  0.0000000  1.6024720  3
    262    568    559    550     1  180.0000771  0.4184000  2
    262    568    559    550     1  0.0000000  1.6024720  3
    265    598    589    580     1  180.0000771  0.4184000  2
    265    598    589    580     1  0.0000000  1.6024720  3
    270    271    283    295     1  0.0000000  0.6508444  3
    270    274    286    292     1  0.0000000  0.6508444  3
    270    277    280    289     1  0.0000000  0.6508444  3
    271    270    274    286     1  0.0000000  0.6508444  3
    271    270    277    280     1  0.0000000  0.6508444  3
    271    283    295    658     1  0.0000000  0.6508444  3
    274    270    271    283     1  0.0000000  0.6508444  3
    274    270    277    280     1  0.0000000  0.6508444  3
    274    286    292    628     1  0.0000000  0.6508444  3
    277    270    271    283     1  0.0000000  0.6508444  3
    277    270    274    286     1  0.0000000  0.6508444  3
    277    280    289    298     1  0.0000000  0.6508444  3
    283    295    658    649     1  180.0000771  0.4184000  2
    283    295    658    649     1  0.0000000  1.6024720  3
    286    292    628    619     1  180.0000771  0.4184000  2
    286    292    628    619     1  0.0000000  1.6024720  3
    292    628    619    610     1  180.0000771  0.4184000  2
    292    628    619    610     1  0.0000000  1.6024720  3
    295    658    649    640     1  180.0000771  0.4184000  2
    295    658    649    640     1  0.0000000  1.6024720  3
    300    301    313    325     1  0.0000000  0.6508444  3
    300    304    316    322     1  0.0000000  0.6508444  3
    300    307    310    319     1  0.0000000  0.6508444  3
    301    300    304    316     1  0.0000000  0.6508444  3
    301    300    307    310     1  0.0000000  0.6508444  3
    301    313    325    718     1  0.0000000  0.6508444  3
    304    300    301    313     1  0.0000000  0.6508444  3
    304    300    307    310     1  0.0000000  0.6508444  3
    304    316    322    688     1  0.0000000  0.6508444  3
    307    300    301    313     1  0.0000000  0.6508444  3
    307    300    304    316     1  0.0000000  0.6508444  3
    307    310    319    328     1  0.0000000  0.6508444  3
    313    325    718    709     1  180.0000771  0.4184000  2
    313    325    718    709     1  0.0000000  1.6024720  3
    316    322    688    679     1  180.0000771  0.4184000  2
    316    322    688    679     1  0.0000000  1.6024720  3
    322    688    679    670     1  180.0000771  0.4184000  2
    322    688    679    670     1  0.0000000  1.6024720  3
    325    718    709    700     1  180.0000771  0.4184000  2
    325    718    709    700     1  0.0000000  1.6024720  3
    330    331    343    355     1  0.0000000  0.6508444  3
    330    334    346    352     1  0.0000000  0.6508444  3
    330    337    340    349     1  0.0000000  0.6508444  3
    331    330    334    346     1  0.0000000  0.6508444  3
    331    330    337    340     1  0.0000000  0.6508444  3
    331    343    355    778     1  0.0000000  0.6508444  3
    334    330    331    343     1  0.0000000  0.6508444  3
    334    330    337    340     1  0.0000000  0.6508444  3
    334    346    352    748     1  0.0000000  0.6508444  3
    337    330    331    343     1  0.0000000  0.6508444  3
    337    330    334    346     1  0.0000000  0.6508444  3
    337    340    349    358     1  0.0000000  0.6508444  3
    343    355    778    769     1  180.0000771  0.4184000  2
    343    355    778    769     1  0.0000000  1.6024720  3
    346    352    748    739     1  180.0000771  0.4184000  2
    346    352    748    739     1  0.0000000  1.6024720  3
    352    748    739    730     1  180.0000771  0.4184000  2
    352    748    739    730     1  0.0000000  1.6024720  3
    355    778    769    760     1  180.0000771  0.4184000  2
    355    778    769    760     1  0.0000000  1.6024720  3
    360    361    373    385     1  0.0000000  0.6508444  3
    360    364    376    382     1  0.0000000  0.6508444  3
    360    367    370    379     1  0.0000000  0.6508444  3
    361    360    364    376     1  0.0000000  0.6508444  3
    361    360    367    370     1  0.0000000  0.6508444  3
    361    373    385    838     1  0.0000000  0.6508444  3
    364    360    361    373     1  0.0000000  0.6508444  3
    364    360    367    370     1  0.0000000  0.6508444  3
    364    376    382    808     1  0.0000000  0.6508444  3
    367    360    361    373     1  0.0000000  0.6508444  3
    367    360    364    376     1  0.0000000  0.6508444  3
    367    370    379    388     1  0.0000000  0.6508444  3
    373    385    838    829     1  180.0000771  0.4184000  2
    373    385    838    829     1  0.0000000  1.6024720  3
    376    382    808    799     1  180.0000771  0.4184000  2
    376    382    808    799     1  0.0000000  1.6024720  3
    382    808    799    790     1  180.0000771  0.4184000  2
    382    808    799    790     1  0.0000000  1.6024720  3
    385    838    829    820     1  180.0000771  0.4184000  2
    385    838    829    820     1  0.0000000  1.6024720  3
    390    391    403    415     1  0.0000000  0.6508444  3
    390    394    406    412     1  0.0000000  0.6508444  3
    390    397    400    409     1  0.0000000  0.6508444  3
    391    390    394    406     1  0.0000000  0.6508444  3
    391    390    397    400     1  0.0000000  0.6508444  3
    391    403    415    898     1  0.0000000  0.6508444  3
    394    390    391    403     1  0.0000000  0.6508444  3
    394    390    397    400     1  0.0000000  0.6508444  3
    394    406    412    868     1  0.0000000  0.6508444  3
    397    390    391    403     1  0.0000000  0.6508444  3
    397    390    394    406     1  0.0000000  0.6508444  3
    397    400    409    418     1  0.0000000  0.6508444  3
    403    415    898    889     1  180.0000771  0.4184000  2
    403    415    898    889     1  0.0000000  1.6024720  3
    406    412    868    859     1  180.0000771  0.4184000  2
    406    412    868    859     1  0.0000000  1.6024720  3
    412    868    859    850     1  180.0000771  0.4184000  2
    412    868    859    850     1  0.0000000  1.6024720  3
    415    898    889    880     1  180.0000771  0.4184000  2
    415    898    889    880     1  0.0000000  1.6024720  3
    420    421    433    445     1  0.0000000  0.6508444  3
    420    424    436    442     1  0.0000000  0.6508444  3
    420    427    430    439     1  0.0000000  0.6508444  3
    421    420    424    436     1  0.0000000  0.6508444  3
    421    420    427    430     1  0.0000000  0.6508444  3
    421    433    445    962     1  0.0000000  0.6508444  3
    424    420    421    433     1  0.0000000  0.6508444  3
    424    420    427    430     1  0.0000000  0.6508444  3
    424    436    442    930     1  0.0000000  0.6508444  3
    427    420    421    433     1  0.0000000  0.6508444  3
    427    420    424    436     1  0.0000000  0.6508444  3
    427    430    439    448     1  0.0000000  0.6508444  3
    433    445    962    932     1  180.0000771  0.4184000  2
    433    445    962    932     1  0.0000000  1.6024720  3
    436    442    930    900     1  180.0000771  0.4184000  2
    436    442    930    900     1  0.0000000  1.6024720  3
    442    930    900    903     1  180.0000771  0.4184000  2
    442    930    900    903     1  0.0000000  1.6024720  3
    445    962    932    935     1  180.0000771  0.4184000  2
    445    962    932    935     1  0.0000000  1.6024720  3
    450    451    463    475     1  0.0000000  0.6508444  3
    450    454    466    472     1  0.0000000  0.6508444  3
    450    457    460    469     1  0.0000000  0.6508444  3
    451    450    454    466     1  0.0000000  0.6508444  3
    451    450    457    460     1  0.0000000  0.6508444  3
    451    463    475   1026     1  0.0000000  0.6508444  3
    454    450    451    463     1  0.0000000  0.6508444  3
    454    450    457    460     1  0.0000000  0.6508444  3
    454    466    472    994     1  0.0000000  0.6508444  3
    457    450    451    463     1  0.0000000  0.6508444  3
    457    450    454    466     1  0.0000000  0.6508444  3
    457    460    469    478     1  0.0000000  0.6508444  3
    463    475   1026    996     1  180.0000771  0.4184000  2
    463    475   1026    996     1  0.0000000  1.6024720  3
    466    472    994    964     1  180.0000771  0.4184000  2
    466    472    994    964     1  0.0000000  1.6024720  3
    472    994    964    967     1  180.0000771  0.4184000  2
    472    994    964    967     1  0.0000000  1.6024720  3
    475   1026    996    999     1  180.0000771  0.4184000  2
    475   1026    996    999     1  0.0000000  1.6024720  3
    480    481    493    505     1  0.0000000  0.6508444  3
    480    484    496    502     1  0.0000000  0.6508444  3
    480    487    490    499     1  0.0000000  0.6508444  3
    481    480    484    496     1  0.0000000  0.6508444  3
    481    480    487    490     1  0.0000000  0.6508444  3
    481    493    505   1090     1  0.0000000  0.6508444  3
    484    480    481    493     1  0.0000000  0.6508444  3
    484    480    487    490     1  0.0000000  0.6508444  3
    484    496    502   1058     1  0.0000000  0.6508444  3
    487    480    481    493     1  0.0000000  0.6508444  3
    487    480    484    496     1  0.0000000  0.6508444  3
    487    490    499    508     1  0.0000000  0.6508444  3
    493    505   1090   1060     1  180.0000771  0.4184000  2
    493    505   1090   1060     1  0.0000000  1.6024720  3
    496    502   1058   1028     1  180.0000771  0.4184000  2
    496    502   1058   1028     1  0.0000000  1.6024720  3
    502   1058   1028   1031     1  180.0000771  0.4184000  2
    502   1058   1028   1031     1  0.0000000  1.6024720  3
    505   1090   1060   1063     1  180.0000771  0.4184000  2
    505   1090   1060   1063     1  0.0000000  1.6024720  3
    510    511    523    535     1  0.0000000  0.6508444  3
    510    514    526    532     1  0.0000000  0.6508444  3
    510    517    520    529     1  0.0000000  0.6508444  3
    511    510    514    526     1  0.0000000  0.6508444  3
    511    510    517    520     1  0.0000000  0.6508444  3
    511    523    535   1154     1  0.0000000  0.6508444  3
    514    510    511    523     1  0.0000000  0.6508444  3
    514    510    517    520     1  0.0000000  0.6508444  3
    514    526    532   1122     1  0.0000000  0.6508444  3
    517    510    511    523     1  0.0000000  0.6508444  3
    517    510    514    526     1  0.0000000  0.6508444  3
    517    520    529    538     1  0.0000000  0.6508444  3
    523    535   1154   1124     1  180.0000771  0.4184000  2
    523    535   1154   1124     1  0.0000000  1.6024720  3
    526    532   1122   1092     1  180.0000771  0.4184000  2
    526    532   1122   1092     1  0.0000000  1.6024720  3
    532   1122   1092   1095     1  180.0000771  0.4184000  2
    532   1122   1092   1095     1  0.0000000  1.6024720  3
    535   1154   1124   1127     1  180.0000771  0.4184000  2
    535   1154   1124   1127     1  0.0000000  1.6024720  3
    540    541    553    565     1  0.0000000  0.6508444  3
    540    544    556    562     1  0.0000000  0.6508444  3
    540    547    550    559     1  0.0000000  0.6508444  3
    541    540    544    556     1  0.0000000  0.6508444  3
    541    540    547    550     1  0.0000000  0.6508444  3
    541    553    565   1218     1  0.0000000  0.6508444  3
    544    540    541    553     1  0.0000000  0.6508444  3
    544    540    547    550     1  0.0000000  0.6508444  3
    544    556    562   1186     1  0.0000000  0.6508444  3
    547    540    541    553     1  0.0000000  0.6508444  3
    547    540    544    556     1  0.0000000  0.6508444  3
    547    550    559    568     1  0.0000000  0.6508444  3
    553    565   1218   1188     1  180.0000771  0.4184000  2
    553    565   1218   1188     1  0.0000000  1.6024720  3
    556    562   1186   1156     1  180.0000771  0.4184000  2
    556    562   1186   1156     1  0.0000000  1.6024720  3
    562   1186   1156   1159     1  180.0000771  0.4184000  2
    562   1186   1156   1159     1  0.0000000  1.6024720  3
    565   1218   1188   1191     1  180.0000771  0.4184000  2
    565   1218   1188   1191     1  0.0000000  1.6024720  3
    570    571    583    595     1  0.0000000  0.6508444  3
    570    574    586    592     1  0.0000000  0.6508444  3
    570    577    580    589     1  0.0000000  0.6508444  3
    571    570    574    586     1  0.0000000  0.6508444  3
    571    570    577    580     1  0.0000000  0.6508444  3
    571    583    595   1282     1  0.0000000  0.6508444  3
    574    570    571    583     1  0.0000000  0.6508444  3
    574    570    577    580     1  0.0000000  0.6508444  3
    574    586    592   1250     1  0.0000000  0.6508444  3
    577    570    571    583     1  0.0000000  0.6508444  3
    577    570    574    586     1  0.0000000  0.6508444  3
    577    580    589    598     1  0.0000000  0.6508444  3
    583    595   1282   1252     1  180.0000771  0.4184000  2
    583    595   1282   1252     1  0.0000000  1.6024720  3
    586    592   1250   1220     1  180.0000771  0.4184000  2
    586    592   1250   1220     1  0.0000000  1.6024720  3
    592   1250   1220   1223     1  180.0000771  0.4184000  2
    592   1250   1220   1223     1  0.0000000  1.6024720  3
    595   1282   1252   1255     1  180.0000771  0.4184000  2
    595   1282   1252   1255     1  0.0000000  1.6024720  3
    600    601    613    625     1  0.0000000  0.6508444  3
    600    604    616    622     1  0.0000000  0.6508444  3
    600    607    610    619     1  0.0000000  0.6508444  3
    601    600    604    616     1  0.0000000  0.6508444  3
    601    600    607    610     1  0.0000000  0.6508444  3
    601    613    625   1346     1  0.0000000  0.6508444  3
    604    600    601    613     1  0.0000000  0.6508444  3
    604    600    607    610     1  0.0000000  0.6508444  3
    604    616    622   1314     1  0.0000000  0.6508444  3
    607    600    601    613     1  0.0000000  0.6508444  3
    607    600    604    616     1  0.0000000  0.6508444  3
    607    610    619    628     1  0.0000000  0.6508444  3
    613    625   1346   1316     1  180.0000771  0.4184000  2
    613    625   1346   1316     1  0.0000000  1.6024720  3
    616    622   1314   1284     1  180.0000771  0.4184000  2
    616    622   1314   1284     1  0.0000000  1.6024720  3
    622   1314   1284   1287     1  180.0000771  0.4184000  2
    622   1314   1284   1287     1  0.0000000  1.6024720  3
    625   1346   1316   1319     1  180.0000771  0.4184000  2
    625   1346   1316   1319     1  0.0000000  1.6024720  3
    630    631    643    655     1  0.0000000  0.6508444  3
    630    634    646    652     1  0.0000000  0.6508444  3
    630    637    640    649     1  0.0000000  0.6508444  3
    631    630    634    646     1  0.0000000  0.6508444  3
    631    630    637    640     1  0.0000000  0.6508444  3
    631    643    655   1410     1  0.0000000  0.6508444  3
    634    630    631    643     1  0.0000000  0.6508444  3
    634    630    637    640     1  0.0000000  0.6508444  3
    634    646    652   1378     1  0.0000000  0.6508444  3
    637    630    631    643     1  0.0000000  0.6508444  3
    637    630    634    646     1  0.0000000  0.6508444  3
    637    640    649    658     1  0.0000000  0.6508444  3
    643    655   1410   1380     1  180.0000771  0.4184000  2
    643    655   1410   1380     1  0.0000000  1.6024720  3
    646    652   1378   1348     1  180.0000771  0.4184000  2
    646    652   1378   1348     1  0.0000000  1.6024720  3
    652   1378   1348   1351     1  180.0000771  0.4184000  2
    652   1378   1348   1351     1  0.0000000  1.6024720  3
    655   1410   1380   1383     1  180.0000771  0.4184000  2
    655   1410   1380   1383     1  0.0000000  1.6024720  3
    660    661    673    685     1  0.0000000  0.6508444  3
    660    664    676    682     1  0.0000000  0.6508444  3
    660    667    670    679     1  0.0000000  0.6508444  3
    661    660    664    676     1  0.0000000  0.6508444  3
    661    660    667    670     1  0.0000000  0.6508444  3
    661    673    685   1474     1  0.0000000  0.6508444  3
    664    660    661    673     1  0.0000000  0.6508444  3
    664    660    667    670     1  0.0000000  0.6508444  3
    664    676    682   1442     1  0.0000000  0.6508444  3
    667    660    661    673     1  0.0000000  0.6508444  3
    667    660    664    676     1  0.0000000  0.6508444  3
    667    670    679    688     1  0.0000000  0.6508444  3
    673    685   1474   1444     1  180.0000771  0.4184000  2
    673    685   1474   1444     1  0.0000000  1.6024720  3
    676    682   1442   1412     1  180.0000771  0.4184000  2
    676    682   1442   1412     1  0.0000000  1.6024720  3
    682   1442   1412   1415     1  180.0000771  0.4184000  2
    682   1442   1412   1415     1  0.0000000  1.6024720  3
    685   1474   1444   1447     1  180.0000771  0.4184000  2
    685   1474   1444   1447     1  0.0000000  1.6024720  3
    690    691    703    715     1  0.0000000  0.6508444  3
    690    694    706    712     1  0.0000000  0.6508444  3
    690    697    700    709     1  0.0000000  0.6508444  3
    691    690    694    706     1  0.0000000  0.6508444  3
    691    690    697    700     1  0.0000000  0.6508444  3
    691    703    715   1538     1  0.0000000  0.6508444  3
    694    690    691    703     1  0.0000000  0.6508444  3
    694    690    697    700     1  0.0000000  0.6508444  3
    694    706    712   1506     1  0.0000000  0.6508444  3
    697    690    691    703     1  0.0000000  0.6508444  3
    697    690    694    706     1  0.0000000  0.6508444  3
    697    700    709    718     1  0.0000000  0.6508444  3
    703    715   1538   1508     1  180.0000771  0.4184000  2
    703    715   1538   1508     1  0.0000000  1.6024720  3
    706    712   1506   1476     1  180.0000771  0.4184000  2
    706    712   1506   1476     1  0.0000000  1.6024720  3
    712   1506   1476   1479     1  180.0000771  0.4184000  2
    712   1506   1476   1479     1  0.0000000  1.6024720  3
    715   1538   1508   1511     1  180.0000771  0.4184000  2
    715   1538   1508   1511     1  0.0000000  1.6024720  3
    720    721    733    745     1  0.0000000  0.6508444  3
    720    724    736    742     1  0.0000000  0.6508444  3
    720    727    730    739     1  0.0000000  0.6508444  3
    721    720    724    736     1  0.0000000  0.6508444  3
    721    720    727    730     1  0.0000000  0.6508444  3
    721    733    745   1602     1  0.0000000  0.6508444  3
    724    720    721    733     1  0.0000000  0.6508444  3
    724    720    727    730     1  0.0000000  0.6508444  3
    724    736    742   1570     1  0.0000000  0.6508444  3
    727    720    721    733     1  0.0000000  0.6508444  3
    727    720    724    736     1  0.0000000  0.6508444  3
    727    730    739    748     1  0.0000000  0.6508444  3
    733    745   1602   1572     1  180.0000771  0.4184000  2
    733    745   1602   1572     1  0.0000000  1.6024720  3
    736    742   1570   1540     1  180.0000771  0.4184000  2
    736    742   1570   1540     1  0.0000000  1.6024720  3
    742   1570   1540   1543     1  180.0000771  0.4184000  2
    742   1570   1540   1543     1  0.0000000  1.6024720  3
    745   1602   1572   1575     1  180.0000771  0.4184000  2
    745   1602   1572   1575     1  0.0000000  1.6024720  3
    750    751    763    775     1  0.0000000  0.6508444  3
    750    754    766    772     1  0.0000000  0.6508444  3
    750    757    760    769     1  0.0000000  0.6508444  3
    751    750    754    766     1  0.0000000  0.6508444  3
    751    750    757    760     1  0.0000000  0.6508444  3
    751    763    775   1666     1  0.0000000  0.6508444  3
    754    750    751    763     1  0.0000000  0.6508444  3
    754    750    757    760     1  0.0000000  0.6508444  3
    754    766    772   1634     1  0.0000000  0.6508444  3
    757    750    751    763     1  0.0000000  0.6508444  3
    757    750    754    766     1  0.0000000  0.6508444  3
    757    760    769    778     1  0.0000000  0.6508444  3
    763    775   1666   1636     1  180.0000771  0.4184000  2
    763    775   1666   1636     1  0.0000000  1.6024720  3
    766    772   1634   1604     1  180.0000771  0.4184000  2
    766    772   1634   1604     1  0.0000000  1.6024720  3
    772   1634   1604   1607     1  180.0000771  0.4184000  2
    772   1634   1604   1607     1  0.0000000  1.6024720  3
    775   1666   1636   1639     1  180.0000771  0.4184000  2
    775   1666   1636   1639     1  0.0000000  1.6024720  3
    780    781    793    805     1  0.0000000  0.6508444  3
    780    784    796    802     1  0.0000000  0.6508444  3
    780    787    790    799     1  0.0000000  0.6508444  3
    781    780    784    796     1  0.0000000  0.6508444  3
    781    780    787    790     1  0.0000000  0.6508444  3
    781    793    805   1730     1  0.0000000  0.6508444  3
    784    780    781    793     1  0.0000000  0.6508444  3
    784    780    787    790     1  0.0000000  0.6508444  3
    784    796    802   1698     1  0.0000000  0.6508444  3
    787    780    781    793     1  0.0000000  0.6508444  3
    787    780    784    796     1  0.0000000  0.6508444  3
    787    790    799    808     1  0.0000000  0.6508444  3
    793    805   1730   1700     1  180.0000771  0.4184000  2
    793    805   1730   1700     1  0.0000000  1.6024720  3
    796    802   1698   1668     1  180.0000771  0.4184000  2
    796    802   1698   1668     1  0.0000000  1.6024720  3
    802   1698   1668   1671     1  180.0000771  0.4184000  2
    802   1698   1668   1671     1  0.0000000  1.6024720  3
    805   1730   1700   1703     1  180.0000771  0.4184000  2
    805   1730   1700   1703     1  0.0000000  1.6024720  3
    810    811    823    835     1  0.0000000  0.6508444  3
    810    814    826    832     1  0.0000000  0.6508444  3
    810    817    820    829     1  0.0000000  0.6508444  3
    811    810    814    826     1  0.0000000  0.6508444  3
    811    810    817    820     1  0.0000000  0.6508444  3
    811    823    835   1794     1  0.0000000  0.6508444  3
    814    810    811    823     1  0.0000000  0.6508444  3
    814    810    817    820     1  0.0000000  0.6508444  3
    814    826    832   1762     1  0.0000000  0.6508444  3
    817    810    811    823     1  0.0000000  0.6508444  3
    817    810    814    826     1  0.0000000  0.6508444  3
    817    820    829    838     1  0.0000000  0.6508444  3
    823    835   1794   1764     1  180.0000771  0.4184000  2
    823    835   1794   1764     1  0.0000000  1.6024720  3
    826    832   1762   1732     1  180.0000771  0.4184000  2
    826    832   1762   1732     1  0.0000000  1.6024720  3
    832   1762   1732   1735     1  180.0000771  0.4184000  2
    832   1762   1732   1735     1  0.0000000  1.6024720  3
    835   1794   1764   1767     1  180.0000771  0.4184000  2
    835   1794   1764   1767     1  0.0000000  1.6024720  3
    840    841    853    865     1  0.0000000  0.6508444  3
    840    844    856    862     1  0.0000000  0.6508444  3
    840    847    850    859     1  0.0000000  0.6508444  3
    841    840    844    856     1  0.0000000  0.6508444  3
    841    840    847    850     1  0.0000000  0.6508444  3
    841    853    865   1858     1  0.0000000  0.6508444  3
    844    840    841    853     1  0.0000000  0.6508444  3
    844    840    847    850     1  0.0000000  0.6508444  3
    844    856    862   1826     1  0.0000000  0.6508444  3
    847    840    841    853     1  0.0000000  0.6508444  3
    847    840    844    856     1  0.0000000  0.6508444  3
    847    850    859    868     1  0.0000000  0.6508444  3
    853    865   1858   1828     1  180.0000771  0.4184000  2
    853    865   1858   1828     1  0.0000000  1.6024720  3
    856    862   1826   1796     1  180.0000771  0.4184000  2
    856    862   1826   1796     1  0.0000000  1.6024720  3
    862   1826   1796   1799     1  180.0000771  0.4184000  2
    862   1826   1796   1799     1  0.0000000  1.6024720  3
    865   1858   1828   1831     1  180.0000771  0.4184000  2
    865   1858   1828   1831     1  0.0000000  1.6024720  3
    870    871    883    895     1  0.0000000  0.6508444  3
    870    874    886    892     1  0.0000000  0.6508444  3
    870    877    880    889     1  0.0000000  0.6508444  3
    871    870    874    886     1  0.0000000  0.6508444  3
    871    870    877    880     1  0.0000000  0.6508444  3
    871    883    895   1922     1  0.0000000  0.6508444  3
    874    870    871    883     1  0.0000000  0.6508444  3
    874    870    877    880     1  0.0000000  0.6508444  3
    874    886    892   1890     1  0.0000000  0.6508444  3
    877    870    871    883     1  0.0000000  0.6508444  3
    877    870    874    886     1  0.0000000  0.6508444  3
    877    880    889    898     1  0.0000000  0.6508444  3
    883    895   1922   1892     1  180.0000771  0.4184000  2
    883    895   1922   1892     1  0.0000000  1.6024720  3
    886    892   1890   1860     1  180.0000771  0.4184000  2
    886    892   1890   1860     1  0.0000000  1.6024720  3
    892   1890   1860   1863     1  180.0000771  0.4184000  2
    892   1890   1860   1863     1  0.0000000  1.6024720  3
    895   1922   1892   1895     1  180.0000771  0.4184000  2
    895   1922   1892   1895     1  0.0000000  1.6024720  3
    900    903    906    909     1  0.0000000  0.6508444  3
    903    906    909    910     1  0.0000000  0.6508444  3
    903    906    909    920     1  0.0000000  0.6508444  3
    906    903    900    930     1  0.0000000  0.6508444  3
    906    909    910    913     1  0.0000000  0.6508444  3
    906    909    920    923     1  0.0000000  0.6508444  3
    909    910    913    916     1  0.0000000  0.6508444  3
    909    920    923    926     1  0.0000000  0.6508444  3
    910    909    920    923     1  0.0000000  0.6508444  3
    910    913    916    917     1  180.0000771  0.0000000  2
    910    913    916    918     1  180.0000771  0.0000000  2
    913    910    909    920     1  0.0000000  0.6508444  3
    920    923    926    927     1  180.0000771  0.0000000  2
    920    923    926    928     1  180.0000771  0.0000000  2
    932    935    938    941     1  0.0000000  0.6508444  3
    935    938    941    942     1  0.0000000  0.6508444  3
    935    938    941    952     1  0.0000000  0.6508444  3
    938    941    942    945     1  0.0000000  0.6508444  3
    938    941    952    955     1  0.0000000  0.6508444  3
    938    935    932    962     1  0.0000000  0.6508444  3
    941    942    945    948     1  0.0000000  0.6508444  3
    941    952    955    958     1  0.0000000  0.6508444  3
    942    945    948    949     1  180.0000771  0.0000000  2
    942    945    948    950     1  180.0000771  0.0000000  2
    942    941    952    955     1  0.0000000  0.6508444  3
    945    942    941    952     1  0.0000000  0.6508444  3
    952    955    958    959     1  180.0000771  0.0000000  2
    952    955    958    960     1  180.0000771  0.0000000  2
    964    967    970    973     1  0.0000000  0.6508444  3
    967    970    973    974     1  0.0000000  0.6508444  3
    967    970    973    984     1  0.0000000  0.6508444  3
    970    967    964    994     1  0.0000000  0.6508444  3
    970    973    974    977     1  0.0000000  0.6508444  3
    970    973    984    987     1  0.0000000  0.6508444  3
    973    974    977    980     1  0.0000000  0.6508444  3
    973    984    987    990     1  0.0000000  0.6508444  3
    974    973    984    987     1  0.0000000  0.6508444  3
    974    977    980    981     1  180.0000771  0.0000000  2
    974    977    980    982     1  180.0000771  0.0000000  2
    977    974    973    984     1  0.0000000  0.6508444  3
    984    987    990    991     1  180.0000771  0.0000000  2
    984    987    990    992     1  180.0000771  0.0000000  2
    996    999   1002   1005     1  0.0000000  0.6508444  3
    999   1002   1005   1006     1  0.0000000  0.6508444  3
    999   1002   1005   1016     1  0.0000000  0.6508444  3
   1002   1005   1006   1009     1  0.0000000  0.6508444  3
   1002   1005   1016   1019     1  0.0000000  0.6508444  3
   1002    999    996   1026     1  0.0000000  0.6508444  3
   1005   1006   1009   1012     1  0.0000000  0.6508444  3
   1005   1016   1019   1022     1  0.0000000  0.6508444  3
   1006   1009   1012   1013     1  180.0000771  0.0000000  2
   1006   1009   1012   1014     1  180.0000771  0.0000000  2
   1006   1005   1016   1019     1  0.0000000  0.6508444  3
   1009   1006   1005   1016     1  0.0000000  0.6508444  3
   1016   1019   1022   1023     1  180.0000771  0.0000000  2
   1016   1019   1022   1024     1  180.0000771  0.0000000  2
   1028   1031   1034   1037     1  0.0000000  0.6508444  3
   1031   1034   1037   1038     1  0.0000000  0.6508444  3
   1031   1034   1037   1048     1  0.0000000  0.6508444  3
   1034   1031   1028   1058     1  0.0000000  0.6508444  3
   1034   1037   1038   1041     1  0.0000000  0.6508444  3
   1034   1037   1048   1051     1  0.0000000  0.6508444  3
   1037   1038   1041   1044     1  0.0000000  0.6508444  3
   1037   1048   1051   1054     1  0.0000000  0.6508444  3
   1038   1037   1048   1051     1  0.0000000  0.6508444  3
   1038   1041   1044   1045     1  180.0000771  0.0000000  2
   1038   1041   1044   1046     1  180.0000771  0.0000000  2
   1041   1038   1037   1048     1  0.0000000  0.6508444  3
   1048   1051   1054   1055     1  180.0000771  0.0000000  2
   1048   1051   1054   1056     1  180.0000771  0.0000000  2
   1060   1063   1066   1069     1  0.0000000  0.6508444  3
   1063   1066   1069   1070     1  0.0000000  0.6508444  3
   1063   1066   1069   1080     1  0.0000000  0.6508444  3
   1066   1069   1070   1073     1  0.0000000  0.6508444  3
   1066   1069   1080   1083     1  0.0000000  0.6508444  3
   1066   1063   1060   1090     1  0.0000000  0.6508444  3
   1069   1070   1073   1076     1  0.0000000  0.6508444  3
   1069   1080   1083   1086     1  0.0000000  0.6508444  3
   1070   1073   1076   1077     1  180.0000771  0.0000000  2
   1070   1073   1076   1078     1  180.0000771  0.0000000  2
   1070   1069   1080   1083     1  0.0000000  0.6508444  3
   1073   1070   1069   1080     1  0.0000000  0.6508444  3
   1080   1083   1086   1087     1  180.0000771  0.0000000  2
   1080   1083   1086   1088     1  180.0000771  0.0000000  2
   1092   1095   1098   1101     1  0.0000000  0.6508444  3
   1095   1098   1101   1102     1  0.0000000  0.6508444  3
   1095   1098   1101   1112     1  0.0000000  0.6508444  3
   1098   1095   1092   1122     1  0.0000000  0.6508444  3
   1098   1101   1102   1105     1  0.0000000  0.6508444  3
   1098   1101   1112   1115     1  0.0000000  0.6508444  3
   1101   1102   1105   1108     1  0.0000000  0.6508444  3
   1101   1112   1115   1118     1  0.0000000  0.6508444  3
   1102   1101   1112   1115     1  0.0000000  0.6508444  3
   1102   1105   1108   1109     1  180.0000771  0.0000000  2
   1102   1105   1108   1110     1  180.0000771  0.0000000  2
   1105   1102   1101   1112     1  0.0000000  0.6508444  3
   1112   1115   1118   1119     1  180.0000771  0.0000000  2
   1112   1115   1118   1120     1  180.0000771  0.0000000  2
   1124   1127   1130   1133     1  0.0000000  0.6508444  3
   1127   1130   1133   1134     1  0.0000000  0.6508444  3
   1127   1130   1133   1144     1  0.0000000  0.6508444  3
   1130   1133   1134   1137     1  0.0000000  0.6508444  3
   1130   1133   1144   1147     1  0.0000000  0.6508444  3
   1130   1127   1124   1154     1  0.0000000  0.6508444  3
   1133   1134   1137   1140     1  0.0000000  0.6508444  3
   1133   1144   1147   1150     1  0.0000000  0.6508444  3
   1134   1137   1140   1141     1  180.0000771  0.0000000  2
   1134   1137   1140   1142     1  180.0000771  0.0000000  2
   1134   1133   1144   1147     1  0.0000000  0.6508444  3
   1137   1134   1133   1144     1  0.0000000  0.6508444  3
   1144   1147   1150   1151     1  180.0000771  0.0000000  2
   1144   1147   1150   1152     1  180.0000771  0.0000000  2
   1156   1159   1162   1165     1  0.0000000  0.6508444  3
   1159   1162   1165   1166     1  0.0000000  0.6508444  3
   1159   1162   1165   1176     1  0.0000000  0.6508444  3
   1162   1159   1156   1186     1  0.0000000  0.6508444  3
   1162   1165   1166   1169     1  0.0000000  0.6508444  3
   1162   1165   1176   1179     1  0.0000000  0.6508444  3
   1165   1166   1169   1172     1  0.0000000  0.6508444  3
   1165   1176   1179   1182     1  0.0000000  0.6508444  3
   1166   1165   1176   1179     1  0.0000000  0.6508444  3
   1166   1169   1172   1173     1  180.0000771  0.0000000  2
   1166   1169   1172   1174     1  180.0000771  0.0000000  2
   1169   1166   1165   1176     1  0.0000000  0.6508444  3
   1176   1179   1182   1183     1  180.0000771  0.0000000  2
   1176   1179   1182   1184     1  180.0000771  0.0000000  2
   1188   1191   1194   1197     1  0.0000000  0.6508444  3
   1191   1194   1197   1198     1  0.0000000  0.6508444  3
   1191   1194   1197   1208     1  0.0000000  0.6508444  3
   1194   1197   1198   1201     1  0.0000000  0.6508444  3
   1194   1197   1208   1211     1  0.0000000  0.6508444  3
   1194   1191   1188   1218     1  0.0000000  0.6508444  3
   1197   1198   1201   1204     1  0.0000000  0.6508444  3
   1197   1208   1211   1214     1  0.0000000  0.6508444  3
   1198   1201   1204   1205     1  180.0000771  0.0000000  2
   1198   1201   1204   1206     1  180.0000771  0.0000000  2
   1198   1197   1208   1211     1  0.0000000  0.6508444  3
   1201   1198   1197   1208     1  0.0000000  0.6508444  3
   1208   1211   1214   1215     1  180.0000771  0.0000000  2
   1208   1211   1214   1216     1  180.0000771  0.0000000  2
   1220   1223   1226   1229     1  0.0000000  0.6508444  3
   1223   1226   1229   1230     1  0.0000000  0.6508444  3
   1223   1226   1229   1240     1  0.0000000  0.6508444  3
   1226   1223   1220   1250     1  0.0000000  0.6508444  3
   1226   1229   1230   1233     1  0.0000000  0.6508444  3
   1226   1229   1240   1243     1  0.0000000  0.6508444  3
   1229   1230   1233   1236     1  0.0000000  0.6508444  3
   1229   1240   1243   1246     1  0.0000000  0.6508444  3
   1230   1229   1240   1243     1  0.0000000  0.6508444  3
   1230   1233   1236   1237     1  180.0000771  0.0000000  2
   1230   1233   1236   1238     1  180.0000771  0.0000000  2
   1233   1230   1229   1240     1  0.0000000  0.6508444  3
   1240   1243   1246   1247     1  180.0000771  0.0000000  2
   1240   1243   1246   1248     1  180.0000771  0.0000000  2
   1252   1255   1258   1261     1  0.0000000  0.6508444  3
   1255   1258   1261   1262     1  0.0000000  0.6508444  3
   1255   1258   1261   1272     1  0.0000000  0.6508444  3
   1258   1261   1262   1265     1  0.0000000  0.6508444  3
   1258   1261   1272   1275     1  0.0000000  0.6508444  3
   1258   1255   1252   1282     1  0.0000000  0.6508444  3
   1261   1262   1265   1268     1  0.0000000  0.6508444  3
   1261   1272   1275   1278     1  0.0000000  0.6508444  3
   1262   1265   1268   1269     1  180.0000771  0.0000000  2
   1262   1265   1268   1270     1  180.0000771  0.0000000  2
   1262   1261   1272   1275     1  0.0000000  0.6508444  3
   1265   1262   1261   1272     1  0.0000000  0.6508444  3
   1272   1275   1278   1279     1  180.0000771  0.0000000  2
   1272   1275   1278   1280     1  180.0000771  0.0000000  2
   1284   1287   1290   1293     1  0.0000000  0.6508444  3
   1287   1290   1293   1294     1  0.0000000  0.6508444  3
   1287   1290   1293   1304     1  0.0000000  0.6508444  3
   1290   1287   1284   1314     1  0.0000000  0.6508444  3
   1290   1293   1294   1297     1  0.0000000  0.6508444  3
   1290   1293   1304   1307     1  0.0000000  0.6508444  3
   1293   1294   1297   1300     1  0.0000000  0.6508444  3
   1293   1304   1307   1310     1  0.0000000  0.6508444  3
   1294   1293   1304   1307     1  0.0000000  0.6508444  3
   1294   1297   1300   1301     1  180.0000771  0.0000000  2
   1294   1297   1300   1302     1  180.0000771  0.0000000  2
   1297   1294   1293   1304     1  0.0000000  0.6508444  3
   1304   1307   1310   1311     1  180.0000771  0.0000000  2
   1304   1307   1310   1312     1  180.0000771  0.0000000  2
   1316   1319   1322   1325     1  0.0000000  0.6508444  3
   1319   1322   1325   1326     1  0.0000000  0.6508444  3
   1319   1322   1325   1336     1  0.0000000  0.6508444  3
   1322   1325   1326   1329     1  0.0000000  0.6508444  3
   1322   1325   1336   1339     1  0.0000000  0.6508444  3
   1322   1319   1316   1346     1  0.0000000  0.6508444  3
   1325   1326   1329   1332     1  0.0000000  0.6508444  3
   1325   1336   1339   1342     1  0.0000000  0.6508444  3
   1326   1329   1332   1333     1  180.0000771  0.0000000  2
   1326   1329   1332   1334     1  180.0000771  0.0000000  2
   1326   1325   1336   1339     1  0.0000000  0.6508444  3
   1329   1326   1325   1336     1  0.0000000  0.6508444  3
   1336   1339   1342   1343     1  180.0000771  0.0000000  2
   1336   1339   1342   1344     1  180.0000771  0.0000000  2
   1348   1351   1354   1357     1  0.0000000  0.6508444  3
   1351   1354   1357   1358     1  0.0000000  0.6508444  3
   1351   1354   1357   1368     1  0.0000000  0.6508444  3
   1354   1351   1348   1378     1  0.0000000  0.6508444  3
   1354   1357   1358   1361     1  0.0000000  0.6508444  3
   1354   1357   1368   1371     1  0.0000000  0.6508444  3
   1357   1358   1361   1364     1  0.0000000  0.6508444  3
   1357   1368   1371   1374     1  0.0000000  0.6508444  3
   1358   1357   1368   1371     1  0.0000000  0.6508444  3
   1358   1361   1364   1365     1  180.0000771  0.0000000  2
   1358   1361   1364   1366     1  180.0000771  0.0000000  2
   1361   1358   1357   1368     1  0.0000000  0.6508444  3
   1368   1371   1374   1375     1  180.0000771  0.0000000  2
   1368   1371   1374   1376     1  180.0000771  0.0000000  2
   1380   1383   1386   1389     1  0.0000000  0.6508444  3
   1383   1386   1389   1390     1  0.0000000  0.6508444  3
   1383   1386   1389   1400     1  0.0000000  0.6508444  3
   1386   1389   1390   1393     1  0.0000000  0.6508444  3
   1386   1389   1400   1403     1  0.0000000  0.6508444  3
   1386   1383   1380   1410     1  0.0000000  0.6508444  3
   1389   1390   1393   1396     1  0.0000000  0.6508444  3
   1389   1400   1403   1406     1  0.0000000  0.6508444  3
   1390   1393   1396   1397     1  180.0000771  0.0000000  2
   1390   1393   1396   1398     1  180.0000771  0.0000000  2
   1390   1389   1400   1403     1  0.0000000  0.6508444  3
   1393   1390   1389   1400     1  0.0000000  0.6508444  3
   1400   1403   1406   1407     1  180.0000771  0.0000000  2
   1400   1403   1406   1408     1  180.0000771  0.0000000  2
   1412   1415   1418   1421     1  0.0000000  0.6508444  3
   1415   1418   1421   1422     1  0.0000000  0.6508444  3
   1415   1418   1421   1432     1  0.0000000  0.6508444  3
   1418   1415   1412   1442     1  0.0000000  0.6508444  3
   1418   1421   1422   1425     1  0.0000000  0.6508444  3
   1418   1421   1432   1435     1  0.0000000  0.6508444  3
   1421   1422   1425   1428     1  0.0000000  0.6508444  3
   1421   1432   1435   1438     1  0.0000000  0.6508444  3
   1422   1421   1432   1435     1  0.0000000  0.6508444  3
   1422   1425   1428   1429     1  180.0000771  0.0000000  2
   1422   1425   1428   1430     1  180.0000771  0.0000000  2
   1425   1422   1421   1432     1  0.0000000  0.6508444  3
   1432   1435   1438   1439     1  180.0000771  0.0000000  2
   1432   1435   1438   1440     1  180.0000771  0.0000000  2
   1444   1447   1450   1453     1  0.0000000  0.6508444  3
   1447   1450   1453   1454     1  0.0000000  0.6508444  3
   1447   1450   1453   1464     1  0.0000000  0.6508444  3
   1450   1453   1454   1457     1  0.0000000  0.6508444  3
   1450   1453   1464   1467     1  0.0000000  0.6508444  3
   1450   1447   1444   1474     1  0.0000000  0.6508444  3
   1453   1454   1457   1460     1  0.0000000  0.6508444  3
   1453   1464   1467   1470     1  0.0000000  0.6508444  3
   1454   1457   1460   1461     1  180.0000771  0.0000000  2
   1454   1457   1460   1462     1  180.0000771  0.0000000  2
   1454   1453   1464   1467     1  0.0000000  0.6508444  3
   1457   1454   1453   1464     1  0.0000000  0.6508444  3
   1464   1467   1470   1471     1  180.0000771  0.0000000  2
   1464   1467   1470   1472     1  180.0000771  0.0000000  2
   1476   1479   1482   1485     1  0.0000000  0.6508444  3
   1479   1482   1485   1486     1  0.0000000  0.6508444  3
   1479   1482   1485   1496     1  0.0000000  0.6508444  3
   1482   1479   1476   1506     1  0.0000000  0.6508444  3
   1482   1485   1486   1489     1  0.0000000  0.6508444  3
   1482   1485   1496   1499     1  0.0000000  0.6508444  3
   1485   1486   1489   1492     1  0.0000000  0.6508444  3
   1485   1496   1499   1502     1  0.0000000  0.6508444  3
   1486   1485   1496   1499     1  0.0000000  0.6508444  3
   1486   1489   1492   1493     1  180.0000771  0.0000000  2
   1486   1489   1492   1494     1  180.0000771  0.0000000  2
   1489   1486   1485   1496     1  0.0000000  0.6508444  3
   1496   1499   1502   1503     1  180.0000771  0.0000000  2
   1496   1499   1502   1504     1  180.0000771  0.0000000  2
   1508   1511   1514   1517     1  0.0000000  0.6508444  3
   1511   1514   1517   1518     1  0.0000000  0.6508444  3
   1511   1514   1517   1528     1  0.0000000  0.6508444  3
   1514   1517   1518   1521     1  0.0000000  0.6508444  3
   1514   1517   1528   1531     1  0.0000000  0.6508444  3
   1514   1511   1508   1538     1  0.0000000  0.6508444  3
   1517   1518   1521   1524     1  0.0000000  0.6508444  3
   1517   1528   1531   1534     1  0.0000000  0.6508444  3
   1518   1521   1524   1525     1  180.0000771  0.0000000  2
   1518   1521   1524   1526     1  180.0000771  0.0000000  2
   1518   1517   1528   1531     1  0.0000000  0.6508444  3
   1521   1518   1517   1528     1  0.0000000  0.6508444  3
   1528   1531   1534   1535     1  180.0000771  0.0000000  2
   1528   1531   1534   1536     1  180.0000771  0.0000000  2
   1540   1543   1546   1549     1  0.0000000  0.6508444  3
   1543   1546   1549   1550     1  0.0000000  0.6508444  3
   1543   1546   1549   1560     1  0.0000000  0.6508444  3
   1546   1543   1540   1570     1  0.0000000  0.6508444  3
   1546   1549   1550   1553     1  0.0000000  0.6508444  3
   1546   1549   1560   1563     1  0.0000000  0.6508444  3
   1549   1550   1553   1556     1  0.0000000  0.6508444  3
   1549   1560   1563   1566     1  0.0000000  0.6508444  3
   1550   1549   1560   1563     1  0.0000000  0.6508444  3
   1550   1553   1556   1557     1  180.0000771  0.0000000  2
   1550   1553   1556   1558     1  180.0000771  0.0000000  2
   1553   1550   1549   1560     1  0.0000000  0.6508444  3
   1560   1563   1566   1567     1  180.0000771  0.0000000  2
   1560   1563   1566   1568     1  180.0000771  0.0000000  2
   1572   1575   1578   1581     1  0.0000000  0.6508444  3
   1575   1578   1581   1582     1  0.0000000  0.6508444  3
   1575   1578   1581   1592     1  0.0000000  0.6508444  3
   1578   1581   1582   1585     1  0.0000000  0.6508444  3
   1578   1581   1592   1595     1  0.0000000  0.6508444  3
   1578   1575   1572   1602     1  0.0000000  0.6508444  3
   1581   1582   1585   1588     1  0.0000000  0.6508444  3
   1581   1592   1595   1598     1  0.0000000  0.6508444  3
   1582   1585   1588   1589     1  180.0000771  0.0000000  2
   1582   1585   1588   1590     1  180.0000771  0.0000000  2
   1582   1581   1592   1595     1  0.0000000  0.6508444  3
   1585   1582   1581   1592     1  0.0000000  0.6508444  3
   1592   1595   1598   1599     1  180.0000771  0.0000000  2
   1592   1595   1598   1600     1  180.0000771  0.0000000  2
   1604   1607   1610   1613     1  0.0000000  0.6508444  3
   1607   1610   1613   1614     1  0.0000000  0.6508444  3
   1607   1610   1613   1624     1  0.0000000  0.6508444  3
   1610   1607   1604   1634     1  0.0000000  0.6508444  3
   1610   1613   1614   1617     1  0.0000000  0.6508444  3
   1610   1613   1624   1627     1  0.0000000  0.6508444  3
   1613   1614   1617   1620     1  0.0000000  0.6508444  3
   1613   1624   1627   1630     1  0.0000000  0.6508444  3
   1614   1613   1624   1627     1  0.0000000  0.6508444  3
   1614   1617   1620   1621     1  180.0000771  0.0000000  2
   1614   1617   1620   1622     1  180.0000771  0.0000000  2
   1617   1614   1613   1624     1  0.0000000  0.6508444  3
   1624   1627   1630   1631     1  180.0000771  0.0000000  2
   1624   1627   1630   1632     1  180.0000771  0.0000000  2
   1636   1639   1642   1645     1  0.0000000  0.6508444  3
   1639   1642   1645   1646     1  0.0000000  0.6508444  3
   1639   1642   1645   1656     1  0.0000000  0.6508444  3
   1642   1645   1646   1649     1  0.0000000  0.6508444  3
   1642   1645   1656   1659     1  0.0000000  0.6508444  3
   1642   1639   1636   1666     1  0.0000000  0.6508444  3
   1645   1646   1649   1652     1  0.0000000  0.6508444  3
   1645   1656   1659   1662     1  0.0000000  0.6508444  3
   1646   1649   1652   1653     1  180.0000771  0.0000000  2
   1646   1649   1652   1654     1  180.0000771  0.0000000  2
   1646   1645   1656   1659     1  0.0000000  0.6508444  3
   1649   1646   1645   1656     1  0.0000000  0.6508444  3
   1656   1659   1662   1663     1  180.0000771  0.0000000  2
   1656   1659   1662   1664     1  180.0000771  0.0000000  2
   1668   1671   1674   1677     1  0.0000000  0.6508444  3
   1671   1674   1677   1678     1  0.0000000  0.6508444  3
   1671   1674   1677   1688     1  0.0000000  0.6508444  3
   1674   1671   1668   1698     1  0.0000000  0.6508444  3
   1674   1677   1678   1681     1  0.0000000  0.6508444  3
   1674   1677   1688   1691     1  0.0000000  0.6508444  3
   1677   1678   1681   1684     1  0.0000000  0.6508444  3
   1677   1688   1691   1694     1  0.0000000  0.6508444  3
   1678   1677   1688   1691     1  0.0000000  0.6508444  3
   1678   1681   1684   1685     1  180.0000771  0.0000000  2
   1678   1681   1684   1686     1  180.0000771  0.0000000  2
   1681   1678   1677   1688     1  0.0000000  0.6508444  3
   1688   1691   1694   1695     1  180.0000771  0.0000000  2
   1688   1691   1694   1696     1  180.0000771  0.0000000  2
   1700   1703   1706   1709     1  0.0000000  0.6508444  3
   1703   1706   1709   1710     1  0.0000000  0.6508444  3
   1703   1706   1709   1720     1  0.0000000  0.6508444  3
   1706   1709   1710   1713     1  0.0000000  0.6508444  3
   1706   1709   1720   1723     1  0.0000000  0.6508444  3
   1706   1703   1700   1730     1  0.0000000  0.6508444  3
   1709   1710   1713   1716     1  0.0000000  0.6508444  3
   1709   1720   1723   1726     1  0.0000000  0.6508444  3
   1710   1713   1716   1717     1  180.0000771  0.0000000  2
   1710   1713   1716   1718     1  180.0000771  0.0000000  2
   1710   1709   1720   1723     1  0.0000000  0.6508444  3
   1713   1710   1709   1720     1  0.0000000  0.6508444  3
   1720   1723   1726   1727     1  180.0000771  0.0000000  2
   1720   1723   1726   1728     1  180.0000771  0.0000000  2
   1732   1735   1738   1741     1  0.0000000  0.6508444  3
   1735   1738   1741   1742     1  0.0000000  0.6508444  3
   1735   1738   1741   1752     1  0.0000000  0.6508444  3
   1738   1735   1732   1762     1  0.0000000  0.6508444  3
   1738   1741   1742   1745     1  0.0000000  0.6508444  3
   1738   1741   1752   1755     1  0.0000000  0.6508444  3
   1741   1742   1745   1748     1  0.0000000  0.6508444  3
   1741   1752   1755   1758     1  0.0000000  0.6508444  3
   1742   1741   1752   1755     1  0.0000000  0.6508444  3
   1742   1745   1748   1749     1  180.0000771  0.0000000  2
   1742   1745   1748   1750     1  180.0000771  0.0000000  2
   1745   1742   1741   1752     1  0.0000000  0.6508444  3
   1752   1755   1758   1759     1  180.0000771  0.0000000  2
   1752   1755   1758   1760     1  180.0000771  0.0000000  2
   1764   1767   1770   1773     1  0.0000000  0.6508444  3
   1767   1770   1773   1774     1  0.0000000  0.6508444  3
   1767   1770   1773   1784     1  0.0000000  0.6508444  3
   1770   1773   1774   1777     1  0.0000000  0.6508444  3
   1770   1773   1784   1787     1  0.0000000  0.6508444  3
   1770   1767   1764   1794     1  0.0000000  0.6508444  3
   1773   1774   1777   1780     1  0.0000000  0.6508444  3
   1773   1784   1787   1790     1  0.0000000  0.6508444  3
   1774   1777   1780   1781     1  180.0000771  0.0000000  2
   1774   1777   1780   1782     1  180.0000771  0.0000000  2
   1774   1773   1784   1787     1  0.0000000  0.6508444  3
   1777   1774   1773   1784     1  0.0000000  0.6508444  3
   1784   1787   1790   1791     1  180.0000771  0.0000000  2
   1784   1787   1790   1792     1  180.0000771  0.0000000  2
   1796   1799   1802   1805     1  0.0000000  0.6508444  3
   1799   1802   1805   1806     1  0.0000000  0.6508444  3
   1799   1802   1805   1816     1  0.0000000  0.6508444  3
   1802   1799   1796   1826     1  0.0000000  0.6508444  3
   1802   1805   1806   1809     1  0.0000000  0.6508444  3
   1802   1805   1816   1819     1  0.0000000  0.6508444  3
   1805   1806   1809   1812     1  0.0000000  0.6508444  3
   1805   1816   1819   1822     1  0.0000000  0.6508444  3
   1806   1805   1816   1819     1  0.0000000  0.6508444  3
   1806   1809   1812   1813     1  180.0000771  0.0000000  2
   1806   1809   1812   1814     1  180.0000771  0.0000000  2
   1809   1806   1805   1816     1  0.0000000  0.6508444  3
   1816   1819   1822   1823     1  180.0000771  0.0000000  2
   1816   1819   1822   1824     1  180.0000771  0.0000000  2
   1828   1831   1834   1837     1  0.0000000  0.6508444  3
   1831   1834   1837   1838     1  0.0000000  0.6508444  3
   1831   1834   1837   1848     1  0.0000000  0.6508444  3
   1834   1837   1838   1841     1  0.0000000  0.6508444  3
   1834   1837   1848   1851     1  0.0000000  0.6508444  3
   1834   1831   1828   1858     1  0.0000000  0.6508444  3
   1837   1838   1841   1844     1  0.0000000  0.6508444  3
   1837   1848   1851   1854     1  0.0000000  0.6508444  3
   1838   1841   1844   1845     1  180.0000771  0.0000000  2
   1838   1841   1844   1846     1  180.0000771  0.0000000  2
   1838   1837   1848   1851     1  0.0000000  0.6508444  3
   1841   1838   1837   1848     1  0.0000000  0.6508444  3
   1848   1851   1854   1855     1  180.0000771  0.0000000  2
   1848   1851   1854   1856     1  180.0000771  0.0000000  2
   1860   1863   1866   1869     1  0.0000000  0.6508444  3
   1863   1866   1869   1870     1  0.0000000  0.6508444  3
   1863   1866   1869   1880     1  0.0000000  0.6508444  3
   1866   1863   1860   1890     1  0.0000000  0.6508444  3
   1866   1869   1870   1873     1  0.0000000  0.6508444  3
   1866   1869   1880   1883     1  0.0000000  0.6508444  3
   1869   1870   1873   1876     1  0.0000000  0.6508444  3
   1869   1880   1883   1886     1  0.0000000  0.6508444  3
   1870   1869   1880   1883     1  0.0000000  0.6508444  3
   1870   1873   1876   1877     1  180.0000771  0.0000000  2
   1870   1873   1876   1878     1  180.0000771  0.0000000  2
   1873   1870   1869   1880     1  0.0000000  0.6508444  3
   1880   1883   1886   1887     1  180.0000771  0.0000000  2
   1880   1883   1886   1888     1  180.0000771  0.0000000  2
   1892   1895   1898   1901     1  0.0000000  0.6508444  3
   1895   1898   1901   1902     1  0.0000000  0.6508444  3
   1895   1898   1901   1912     1  0.0000000  0.6508444  3
   1898   1901   1902   1905     1  0.0000000  0.6508444  3
   1898   1901   1912   1915     1  0.0000000  0.6508444  3
   1898   1895   1892   1922     1  0.0000000  0.6508444  3
   1901   1902   1905   1908     1  0.0000000  0.6508444  3
   1901   1912   1915   1918     1  0.0000000  0.6508444  3
   1902   1905   1908   1909     1  180.0000771  0.0000000  2
   1902   1905   1908   1910     1  180.0000771  0.0000000  2
   1902   1901   1912   1915     1  0.0000000  0.6508444  3
   1905   1902   1901   1912     1  0.0000000  0.6508444  3
   1912   1915   1918   1919     1  180.0000771  0.0000000  2
   1912   1915   1918   1920     1  180.0000771  0.0000000  2
    913    917    916    918     4  180.0000771  4.6024000  2
    923    927    926    928     4  180.0000771  4.6024000  2
    945    949    948    950     4  180.0000771  4.6024000  2
    955    959    958    960     4  180.0000771  4.6024000  2
    977    981    980    982     4  180.0000771  4.6024000  2
    987    991    990    992     4  180.0000771  4.6024000  2
   1009   1013   1012   1014     4  180.0000771  4.6024000  2
   1019   1023   1022   1024     4  180.0000771  4.6024000  2
   1041   1045   1044   1046     4  180.0000771  4.6024000  2
   1051   1055   1054   1056     4  180.0000771  4.6024000  2
   1073   1077   1076   1078     4  180.0000771  4.6024000  2
   1083   1087   1086   1088     4  180.0000771  4.6024000  2
   1105   1109   1108   1110     4  180.0000771  4.6024000  2
   1115   1119   1118   1120     4  180.0000771  4.6024000  2
   1137   1141   1140   1142     4  180.0000771  4.6024000  2
   1147   1151   1150   1152     4  180.0000771  4.6024000  2
   1169   1173   1172   1174     4  180.0000771  4.6024000  2
   1179   1183   1182   1184     4  180.0000771  4.6024000  2
   1201   1205   1204   1206     4  180.0000771  4.6024000  2
   1211   1215   1214   1216     4  180.0000771  4.6024000  2
   1233   1237   1236   1238     4  180.0000771  4.6024000  2
   1243   1247   1246   1248     4  180.0000771  4.6024000  2
   1265   1269   1268   1270     4  180.0000771  4.6024000  2
   1275   1279   1278   1280     4  180.0000771  4.6024000  2
   1297   1301   1300   1302     4  180.0000771  4.6024000  2
   1307   1311   1310   1312     4  180.0000771  4.6024000  2
   1329   1333   1332   1334     4  180.0000771  4.6024000  2
   1339   1343   1342   1344     4  180.0000771  4.6024000  2
   1361   1365   1364   1366     4  180.0000771  4.6024000  2
   1371   1375   1374   1376     4  180.0000771  4.6024000  2
   1393   1397   1396   1398     4  180.0000771  4.6024000  2
   1403   1407   1406   1408     4  180.0000771  4.6024000  2
   1425   1429   1428   1430     4  180.0000771  4.6024000  2
   1435   1439   1438   1440     4  180.0000771  4.6024000  2
   1457   1461   1460   1462     4  180.0000771  4.6024000  2
   1467   1471   1470   1472     4  180.0000771  4.6024000  2
   1489   1493   1492   1494     4  180.0000771  4.6024000  2
   1499   1503   1502   1504     4  180.0000771  4.6024000  2
   1521   1525   1524   1526     4  180.0000771  4.6024000  2
   1531   1535   1534   1536     4  180.0000771  4.6024000  2
   1553   1557   1556   1558     4  180.0000771  4.6024000  2
   1563   1567   1566   1568     4  180.0000771  4.6024000  2
   1585   1589   1588   1590     4  180.0000771  4.6024000  2
   1595   1599   1598   1600     4  180.0000771  4.6024000  2
   1617   1621   1620   1622     4  180.0000771  4.6024000  2
   1627   1631   1630   1632     4  180.0000771  4.6024000  2
   1649   1653   1652   1654     4  180.0000771  4.6024000  2
   1659   1663   1662   1664     4  180.0000771  4.6024000  2
   1681   1685   1684   1686     4  180.0000771  4.6024000  2
   1691   1695   1694   1696     4  180.0000771  4.6024000  2
   1713   1717   1716   1718     4  180.0000771  4.6024000  2
   1723   1727   1726   1728     4  180.0000771  4.6024000  2
   1745   1749   1748   1750     4  180.0000771  4.6024000  2
   1755   1759   1758   1760     4  180.0000771  4.6024000  2
   1777   1781   1780   1782     4  180.0000771  4.6024000  2
   1787   1791   1790   1792     4  180.0000771  4.6024000  2
   1809   1813   1812   1814     4  180.0000771  4.6024000  2
   1819   1823   1822   1824     4  180.0000771  4.6024000  2
   1841   1845   1844   1846     4  180.0000771  4.6024000  2
   1851   1855   1854   1856     4  180.0000771  4.6024000  2
   1873   1877   1876   1878     4  180.0000771  4.6024000  2
   1883   1887   1886   1888     4  180.0000771  4.6024000  2
   1905   1909   1908   1910     4  180.0000771  4.6024000  2
   1915   1919   1918   1920     4  180.0000771  4.6024000  2
      1      2      8      9     1  0.0000000  1.0460000  1
      1      2      8      9     1  0.0000000  0.0000000  3
      1      2      8     10     1  0.0000000  1.0460000  1
      1      2      8     10     1  0.0000000  0.0000000  3
      1      5     11     12     1  0.0000000  1.0460000  1
      1      5     11     12     1  0.0000000  0.0000000  3
      1      5     11     13     1  0.0000000  1.0460000  1
      1      5     11     13     1  0.0000000  0.0000000  3
      2      1      5      6     1  0.0000000  1.6038667  3
      2      1      5      7     1  0.0000000  1.6038667  3
      2      8     14     15     1  0.0000000  0.6508444  3
      2      8     14     16     1  0.0000000  0.6508444  3
      5      1      2      3     1  0.0000000  1.6038667  3
      3      2      8     14     1  0.0000000  0.6508444  3
      3      2      8      9     1  0.0000000  0.6508444  3
      3      2      8     10     1  0.0000000  0.6508444  3
      5      1      2      4     1  0.0000000  1.6038667  3
      4      2      8     14     1  0.0000000  0.6508444  3
      4      2      8      9     1  0.0000000  0.6508444  3
      4      2      8     10     1  0.0000000  0.6508444  3
      5     11     17     18     1  0.0000000  0.6508444  3
      5     11     17     19     1  0.0000000  0.6508444  3
      6      5     11     17     1  0.0000000  0.6508444  3
      6      5     11     12     1  0.0000000  0.6508444  3
      6      5     11     13     1  0.0000000  0.6508444  3
      7      5     11     17     1  0.0000000  0.6508444  3
      7      5     11     12     1  0.0000000  0.6508444  3
      7      5     11     13     1  0.0000000  0.6508444  3
      8     14     20     58     1  0.0000000  0.6508444  3
      9      8     14     20     1  0.0000000  0.6508444  3
      9      8     14     15     1  0.0000000  0.6508444  3
      9      8     14     16     1  0.0000000  0.6508444  3
     10      8     14     20     1  0.0000000  0.6508444  3
     10      8     14     15     1  0.0000000  0.6508444  3
     10      8     14     16     1  0.0000000  0.6508444  3
     11     17     21     59     1  0.0000000  0.6508444  3
     12     11     17     21     1  0.0000000  0.6508444  3
     12     11     17     18     1  0.0000000  0.6508444  3
     12     11     17     19     1  0.0000000  0.6508444  3
     13     11     17     21     1  0.0000000  0.6508444  3
     13     11     17     18     1  0.0000000  0.6508444  3
     13     11     17     19     1  0.0000000  0.6508444  3
     14     20     28     29     1  0.0000000  0.6508444  3
     14     20     28     30     1  0.0000000  0.6508444  3
     14     20     31     32     1  0.0000000  0.6508444  3
     14     20     31     33     1  0.0000000  0.6508444  3
     15     14     20     28     1  0.0000000  0.6508444  3
     15     14     20     31     1  0.0000000  0.6508444  3
     15     14     20     58     1  0.0000000  0.6508444  3
     16     14     20     28     1  0.0000000  0.6508444  3
     16     14     20     31     1  0.0000000  0.6508444  3
     16     14     20     58     1  0.0000000  0.6508444  3
     17     21     22     23     1  0.0000000  0.6508444  3
     17     21     22     24     1  0.0000000  0.6508444  3
     17     21     25     26     1  0.0000000  0.6508444  3
     17     21     25     27     1  0.0000000  0.6508444  3
     18     17     21     22     1  0.0000000  0.6508444  3
     18     17     21     25     1  0.0000000  0.6508444  3
     18     17     21     59     1  0.0000000  0.6508444  3
     19     17     21     22     1  0.0000000  0.6508444  3
     19     17     21     25     1  0.0000000  0.6508444  3
     19     17     21     59     1  0.0000000  0.6508444  3
     20     28     40     41     1  0.0000000  0.6508444  3
     20     28     40     42     1  0.0000000  0.6508444  3
     20     31     43     44     1  0.0000000  0.6508444  3
     20     31     43     45     1  0.0000000  0.6508444  3
     21     22     34     35     1  0.0000000  0.6508444  3
     21     22     34     36     1  0.0000000  0.6508444  3
     21     25     37     38     1  0.0000000  0.6508444  3
     21     25     37     39     1  0.0000000  0.6508444  3
     22     21     25     26     1  0.0000000  0.6508444  3
     22     21     25     27     1  0.0000000  0.6508444  3
     22     34     55     56     1  0.0000000  0.6694400  3
     22     34     55     57     1  0.0000000  0.6694400  3
     23     22     21     25     1  0.0000000  0.6508444  3
     23     22     21     59     1  0.0000000  0.6508444  3
     23     22     34     55     1  0.0000000  0.6508444  3
     23     22     34     35     1  0.0000000  0.6508444  3
     23     22     34     36     1  0.0000000  0.6508444  3
     24     22     21     25     1  0.0000000  0.6508444  3
     24     22     21     59     1  0.0000000  0.6508444  3
     24     22     34     55     1  0.0000000  0.6508444  3
     24     22     34     35     1  0.0000000  0.6508444  3
     24     22     34     36     1  0.0000000  0.6508444  3
     25     37     52     53     1  0.0000000  0.6694400  3
     25     37     52     54     1  0.0000000  0.6694400  3
     26     25     21     59     1  0.0000000  0.6508444  3
     26     25     37     52     1  0.0000000  0.6508444  3
     26     25     37     38     1  0.0000000  0.6508444  3
     26     25     37     39     1  0.0000000  0.6508444  3
     27     25     21     59     1  0.0000000  0.6508444  3
     27     25     37     52     1  0.0000000  0.6508444  3
     27     25     37     38     1  0.0000000  0.6508444  3
     27     25     37     39     1  0.0000000  0.6508444  3
     28     20     31     32     1  0.0000000  0.6508444  3
     28     20     31     33     1  0.0000000  0.6508444  3
     28     40     49     50     1  0.0000000  0.6694400  3
     28     40     49     51     1  0.0000000  0.6694400  3
     29     28     20     31     1  0.0000000  0.6508444  3
     29     28     20     58     1  0.0000000  0.6508444  3
     29     28     40     49     1  0.0000000  0.6508444  3
     29     28     40     41     1  0.0000000  0.6508444  3
     29     28     40     42     1  0.0000000  0.6508444  3
     30     28     20     31     1  0.0000000  0.6508444  3
     30     28     20     58     1  0.0000000  0.6508444  3
     30     28     40     49     1  0.0000000  0.6508444  3
     30     28     40     41     1  0.0000000  0.6508444  3
     30     28     40     42     1  0.0000000  0.6508444  3
     31     43     46     47     1  0.0000000  0.6694400  3
     31     43     46     48     1  0.0000000  0.6694400  3
     32     31     20     58     1  0.0000000  0.6508444  3
     32     31     43     46     1  0.0000000  0.6508444  3
     32     31     43     44     1  0.0000000  0.6508444  3
     32     31     43     45     1  0.0000000  0.6508444  3
     33     31     20     58     1  0.0000000  0.6508444  3
     33     31     43     46     1  0.0000000  0.6508444  3
     33     31     43     44     1  0.0000000  0.6508444  3
     33     31     43     45     1  0.0000000  0.6508444  3
     34     22     21     59     1  0.0000000  0.6508444  3
     35     34     55    178     1  0.0000000  1.0460000  1
     35     34     55    178     1  0.0000000  0.0000000  3
     35     34     55     56     1  0.0000000  0.6276000  3
     35     34     55     57     1  0.0000000  0.6276000  3
     36     34     55    178     1  0.0000000  1.0460000  1
     36     34     55    178     1  0.0000000  0.0000000  3
     36     34     55     56     1  0.0000000  0.6276000  3
     36     34     55     57     1  0.0000000  0.6276000  3
     37     25     21     59     1  0.0000000  0.6508444  3
     38     37     52    148     1  0.0000000  1.0460000  1
     38     37     52    148     1  0.0000000  0.0000000  3
     38     37     52     53     1  0.0000000  0.6276000  3
     38     37     52     54     1  0.0000000  0.6276000  3
     39     37     52    148     1  0.0000000  1.0460000  1
     39     37     52    148     1  0.0000000  0.0000000  3
     39     37     52     53     1  0.0000000  0.6276000  3
     39     37     52     54     1  0.0000000  0.6276000  3
     40     28     20     58     1  0.0000000  0.6508444  3
     41     40     49    118     1  0.0000000  1.0460000  1
     41     40     49    118     1  0.0000000  0.0000000  3
     41     40     49     50     1  0.0000000  0.6276000  3
     41     40     49     51     1  0.0000000  0.6276000  3
     42     40     49    118     1  0.0000000  1.0460000  1
     42     40     49    118     1  0.0000000  0.0000000  3
     42     40     49     50     1  0.0000000  0.6276000  3
     42     40     49     51     1  0.0000000  0.6276000  3
     43     31     20     58     1  0.0000000  0.6508444  3
     44     43     46     88     1  0.0000000  1.0460000  1
     44     43     46     88     1  0.0000000  0.0000000  3
     44     43     46     47     1  0.0000000  0.6276000  3
     44     43     46     48     1  0.0000000  0.6276000  3
     45     43     46     88     1  0.0000000  1.0460000  1
     45     43     46     88     1  0.0000000  0.0000000  3
     45     43     46     47     1  0.0000000  0.6276000  3
     45     43     46     48     1  0.0000000  0.6276000  3
     46     88     79     80     1  0.0000000  1.6038667  3
     46     88     79     81     1  0.0000000  1.6038667  3
     47     46     88     79     1  0.0000000  1.6038667  3
     48     46     88     79     1  0.0000000  1.6038667  3
     49    118    109    110     1  0.0000000  1.6038667  3
     49    118    109    111     1  0.0000000  1.6038667  3
     50     49    118    109     1  0.0000000  1.6038667  3
     51     49    118    109     1  0.0000000  1.6038667  3
     52    148    139    140     1  0.0000000  1.6038667  3
     52    148    139    141     1  0.0000000  1.6038667  3
     53     52    148    139     1  0.0000000  1.6038667  3
     54     52    148    139     1  0.0000000  1.6038667  3
     55    178    169    170     1  0.0000000  1.6038667  3
     55    178    169    171     1  0.0000000  1.6038667  3
     56     55    178    169     1  0.0000000  1.6038667  3
     57     55    178    169     1  0.0000000  1.6038667  3
     60     61     73     74     1  0.0000000  0.6508444  3
     60     61     73     75     1  0.0000000  0.6508444  3
     60     64     76     77     1  0.0000000  0.6508444  3
     60     64     76     78     1  0.0000000  0.6508444  3
     60     67     70     71     1  0.0000000  0.6508444  3
     60     67     70     72     1  0.0000000  0.6508444  3
     61     60     64     65     1  0.0000000  0.6508444  3
     61     60     64     66     1  0.0000000  0.6508444  3
     61     60     67     68     1  0.0000000  0.6508444  3
     61     60     67     69     1  0.0000000  0.6508444  3
     61     73     85     86     1  0.0000000  0.6508444  3
     61     73     85     87     1  0.0000000  0.6508444  3
     62     61     60     64     1  0.0000000  0.6508444  3
     62     61     60     67     1  0.0000000  0.6508444  3
     62     61     60     89     1  0.0000000  0.6508444  3
     62     61     73     85     1  0.0000000  0.6508444  3
     62     61     73     74     1  0.0000000  0.6508444  3
     62     61     73     75     1  0.0000000  0.6508444  3
     63     61     60     64     1  0.0000000  0.6508444  3
     63     61     60     67     1  0.0000000  0.6508444  3
     63     61     60     89     1  0.0000000  0.6508444  3
     63     61     73     85     1  0.0000000  0.6508444  3
     63     61     73     74     1  0.0000000  0.6508444  3
     63     61     73     75     1  0.0000000  0.6508444  3
     64     60     67     68     1  0.0000000  0.6508444  3
     64     60     67     69     1  0.0000000  0.6508444  3
     64     76     82     83     1  0.0000000  0.6508444  3
     64     76     82     84     1  0.0000000  0.6508444  3
     65     64     60     67     1  0.0000000  0.6508444  3
     65     64     60     89     1  0.0000000  0.6508444  3
     65     64     76     82     1  0.0000000  0.6508444  3
     65     64     76     77     1  0.0000000  0.6508444  3
     65     64     76     78     1  0.0000000  0.6508444  3
     66     64     60     67     1  0.0000000  0.6508444  3
     66     64     60     89     1  0.0000000  0.6508444  3
     66     64     76     82     1  0.0000000  0.6508444  3
     66     64     76     77     1  0.0000000  0.6508444  3
     66     64     76     78     1  0.0000000  0.6508444  3
     67     70     79     80     1  0.0000000  0.6508444  3
     67     70     79     81     1  0.0000000  0.6508444  3
     68     67     60     89     1  0.0000000  0.6508444  3
     68     67     70     79     1  0.0000000  0.6508444  3
     68     67     70     71     1  0.0000000  0.6508444  3
     68     67     70     72     1  0.0000000  0.6508444  3
     69     67     60     89     1  0.0000000  0.6508444  3
     69     67     70     79     1  0.0000000  0.6508444  3
     69     67     70     71     1  0.0000000  0.6508444  3
     69     67     70     72     1  0.0000000  0.6508444  3
     70     67     60     89     1  0.0000000  0.6508444  3
     71     70     79     88     1  0.0000000  1.0460000  1
     71     70     79     88     1  0.0000000  0.0000000  3
     71     70     79     80     1  0.0000000  0.6508444  3
     71     70     79     81     1  0.0000000  0.6508444  3
     72     70     79     88     1  0.0000000  1.0460000  1
     72     70     79     88     1  0.0000000  0.0000000  3
     72     70     79     80     1  0.0000000  0.6508444  3
     72     70     79     81     1  0.0000000  0.6508444  3
     73     61     60     89     1  0.0000000  0.6508444  3
     74     73     85    238     1  0.0000000  1.0460000  1
     74     73     85    238     1  0.0000000  0.0000000  3
     74     73     85     86     1  0.0000000  0.6508444  3
     74     73     85     87     1  0.0000000  0.6508444  3
     75     73     85    238     1  0.0000000  1.0460000  1
     75     73     85    238     1  0.0000000  0.0000000  3
     75     73     85     86     1  0.0000000  0.6508444  3
     75     73     85     87     1  0.0000000  0.6508444  3
     76     64     60     89     1  0.0000000  0.6508444  3
     77     76     82    208     1  0.0000000  1.0460000  1
     77     76     82    208     1  0.0000000  0.0000000  3
     77     76     82     83     1  0.0000000  0.6508444  3
     77     76     82     84     1  0.0000000  0.6508444  3
     78     76     82    208     1  0.0000000  1.0460000  1
     78     76     82    208     1  0.0000000  0.0000000  3
     78     76     82     83     1  0.0000000  0.6508444  3
     78     76     82     84     1  0.0000000  0.6508444  3
     82    208    199    200     1  0.0000000  1.6038667  3
     82    208    199    201     1  0.0000000  1.6038667  3
     83     82    208    199     1  0.0000000  1.6038667  3
     84     82    208    199     1  0.0000000  1.6038667  3
     85    238    229    230     1  0.0000000  1.6038667  3
     85    238    229    231     1  0.0000000  1.6038667  3
     86     85    238    229     1  0.0000000  1.6038667  3
     87     85    238    229     1  0.0000000  1.6038667  3
     90     91    103    104     1  0.0000000  0.6508444  3
     90     91    103    105     1  0.0000000  0.6508444  3
     90     94    106    107     1  0.0000000  0.6508444  3
     90     94    106    108     1  0.0000000  0.6508444  3
     90     97    100    101     1  0.0000000  0.6508444  3
     90     97    100    102     1  0.0000000  0.6508444  3
     91     90     94     95     1  0.0000000  0.6508444  3
     91     90     94     96     1  0.0000000  0.6508444  3
     91     90     97     98     1  0.0000000  0.6508444  3
     91     90     97     99     1  0.0000000  0.6508444  3
     91    103    115    116     1  0.0000000  0.6508444  3
     91    103    115    117     1  0.0000000  0.6508444  3
     92     91     90     94     1  0.0000000  0.6508444  3
     92     91     90     97     1  0.0000000  0.6508444  3
     92     91     90    119     1  0.0000000  0.6508444  3
     92     91    103    115     1  0.0000000  0.6508444  3
     92     91    103    104     1  0.0000000  0.6508444  3
     92     91    103    105     1  0.0000000  0.6508444  3
     93     91     90     94     1  0.0000000  0.6508444  3
     93     91     90     97     1  0.0000000  0.6508444  3
     93     91     90    119     1  0.0000000  0.6508444  3
     93     91    103    115     1  0.0000000  0.6508444  3
     93     91    103    104     1  0.0000000  0.6508444  3
     93     91    103    105     1  0.0000000  0.6508444  3
     94     90     97     98     1  0.0000000  0.6508444  3
     94     90     97     99     1  0.0000000  0.6508444  3
     94    106    112    113     1  0.0000000  0.6508444  3
     94    106    112    114     1  0.0000000  0.6508444  3
     95     94     90     97     1  0.0000000  0.6508444  3
     95     94     90    119     1  0.0000000  0.6508444  3
     95     94    106    112     1  0.0000000  0.6508444  3
     95     94    106    107     1  0.0000000  0.6508444  3
     95     94    106    108     1  0.0000000  0.6508444  3
     96     94     90     97     1  0.0000000  0.6508444  3
     96     94     90    119     1  0.0000000  0.6508444  3
     96     94    106    112     1  0.0000000  0.6508444  3
     96     94    106    107     1  0.0000000  0.6508444  3
     96     94    106    108     1  0.0000000  0.6508444  3
     97    100    109    110     1  0.0000000  0.6508444  3
     97    100    109    111     1  0.0000000  0.6508444  3
     98     97     90    119     1  0.0000000  0.6508444  3
     98     97    100    109     1  0.0000000  0.6508444  3
     98     97    100    101     1  0.0000000  0.6508444  3
     98     97    100    102     1  0.0000000  0.6508444  3
     99     97     90    119     1  0.0000000  0.6508444  3
     99     97    100    109     1  0.0000000  0.6508444  3
     99     97    100    101     1  0.0000000  0.6508444  3
     99     97    100    102     1  0.0000000  0.6508444  3
    100     97     90    119     1  0.0000000  0.6508444  3
    101    100    109    118     1  0.0000000  1.0460000  1
    101    100    109    118     1  0.0000000  0.0000000  3
    101    100    109    110     1  0.0000000  0.6508444  3
    101    100    109    111     1  0.0000000  0.6508444  3
    102    100    109    118     1  0.0000000  1.0460000  1
    102    100    109    118     1  0.0000000  0.0000000  3
    102    100    109    110     1  0.0000000  0.6508444  3
    102    100    109    111     1  0.0000000  0.6508444  3
    103     91     90    119     1  0.0000000  0.6508444  3
    104    103    115    298     1  0.0000000  1.0460000  1
    104    103    115    298     1  0.0000000  0.0000000  3
    104    103    115    116     1  0.0000000  0.6508444  3
    104    103    115    117     1  0.0000000  0.6508444  3
    105    103    115    298     1  0.0000000  1.0460000  1
    105    103    115    298     1  0.0000000  0.0000000  3
    105    103    115    116     1  0.0000000  0.6508444  3
    105    103    115    117     1  0.0000000  0.6508444  3
    106     94     90    119     1  0.0000000  0.6508444  3
    107    106    112    268     1  0.0000000  1.0460000  1
    107    106    112    268     1  0.0000000  0.0000000  3
    107    106    112    113     1  0.0000000  0.6508444  3
    107    106    112    114     1  0.0000000  0.6508444  3
    108    106    112    268     1  0.0000000  1.0460000  1
    108    106    112    268     1  0.0000000  0.0000000  3
    108    106    112    113     1  0.0000000  0.6508444  3
    108    106    112    114     1  0.0000000  0.6508444  3
    112    268    259    260     1  0.0000000  1.6038667  3
    112    268    259    261     1  0.0000000  1.6038667  3
    113    112    268    259     1  0.0000000  1.6038667  3
    114    112    268    259     1  0.0000000  1.6038667  3
    115    298    289    290     1  0.0000000  1.6038667  3
    115    298    289    291     1  0.0000000  1.6038667  3
    116    115    298    289     1  0.0000000  1.6038667  3
    117    115    298    289     1  0.0000000  1.6038667  3
    120    121    133    134     1  0.0000000  0.6508444  3
    120    121    133    135     1  0.0000000  0.6508444  3
    120    124    136    137     1  0.0000000  0.6508444  3
    120    124    136    138     1  0.0000000  0.6508444  3
    120    127    130    131     1  0.0000000  0.6508444  3
    120    127    130    132     1  0.0000000  0.6508444  3
    121    120    124    125     1  0.0000000  0.6508444  3
    121    120    124    126     1  0.0000000  0.6508444  3
    121    120    127    128     1  0.0000000  0.6508444  3
    121    120    127    129     1  0.0000000  0.6508444  3
    121    133    145    146     1  0.0000000  0.6508444  3
    121    133    145    147     1  0.0000000  0.6508444  3
    122    121    120    124     1  0.0000000  0.6508444  3
    122    121    120    127     1  0.0000000  0.6508444  3
    122    121    120    149     1  0.0000000  0.6508444  3
    122    121    133    145     1  0.0000000  0.6508444  3
    122    121    133    134     1  0.0000000  0.6508444  3
    122    121    133    135     1  0.0000000  0.6508444  3
    123    121    120    124     1  0.0000000  0.6508444  3
    123    121    120    127     1  0.0000000  0.6508444  3
    123    121    120    149     1  0.0000000  0.6508444  3
    123    121    133    145     1  0.0000000  0.6508444  3
    123    121    133    134     1  0.0000000  0.6508444  3
    123    121    133    135     1  0.0000000  0.6508444  3
    124    120    127    128     1  0.0000000  0.6508444  3
    124    120    127    129     1  0.0000000  0.6508444  3
    124    136    142    143     1  0.0000000  0.6508444  3
    124    136    142    144     1  0.0000000  0.6508444  3
    125    124    120    127     1  0.0000000  0.6508444  3
    125    124    120    149     1  0.0000000  0.6508444  3
    125    124    136    142     1  0.0000000  0.6508444  3
    125    124    136    137     1  0.0000000  0.6508444  3
    125    124    136    138     1  0.0000000  0.6508444  3
    126    124    120    127     1  0.0000000  0.6508444  3
    126    124    120    149     1  0.0000000  0.6508444  3
    126    124    136    142     1  0.0000000  0.6508444  3
    126    124    136    137     1  0.0000000  0.6508444  3
    126    124    136    138     1  0.0000000  0.6508444  3
    127    130    139    140     1  0.0000000  0.6508444  3
    127    130    139    141     1  0.0000000  0.6508444  3
    128    127    120    149     1  0.0000000  0.6508444  3
    128    127    130    139     1  0.0000000  0.6508444  3
    128    127    130    131     1  0.0000000  0.6508444  3
    128    127    130    132     1  0.0000000  0.6508444  3
    129    127    120    149     1  0.0000000  0.6508444  3
    129    127    130    139     1  0.0000000  0.6508444  3
    129    127    130    131     1  0.0000000  0.6508444  3
    129    127    130    132     1  0.0000000  0.6508444  3
    130    127    120    149     1  0.0000000  0.6508444  3
    131    130    139    148     1  0.0000000  1.0460000  1
    131    130    139    148     1  0.0000000  0.0000000  3
    131    130    139    140     1  0.0000000  0.6508444  3
    131    130    139    141     1  0.0000000  0.6508444  3
    132    130    139    148     1  0.0000000  1.0460000  1
    132    130    139    148     1  0.0000000  0.0000000  3
    132    130    139    140     1  0.0000000  0.6508444  3
    132    130    139    141     1  0.0000000  0.6508444  3
    133    121    120    149     1  0.0000000  0.6508444  3
    134    133    145    358     1  0.0000000  1.0460000  1
    134    133    145    358     1  0.0000000  0.0000000  3
    134    133    145    146     1  0.0000000  0.6508444  3
    134    133    145    147     1  0.0000000  0.6508444  3
    135    133    145    358     1  0.0000000  1.0460000  1
    135    133    145    358     1  0.0000000  0.0000000  3
    135    133    145    146     1  0.0000000  0.6508444  3
    135    133    145    147     1  0.0000000  0.6508444  3
    136    124    120    149     1  0.0000000  0.6508444  3
    137    136    142    328     1  0.0000000  1.0460000  1
    137    136    142    328     1  0.0000000  0.0000000  3
    137    136    142    143     1  0.0000000  0.6508444  3
    137    136    142    144     1  0.0000000  0.6508444  3
    138    136    142    328     1  0.0000000  1.0460000  1
    138    136    142    328     1  0.0000000  0.0000000  3
    138    136    142    143     1  0.0000000  0.6508444  3
    138    136    142    144     1  0.0000000  0.6508444  3
    142    328    319    320     1  0.0000000  1.6038667  3
    142    328    319    321     1  0.0000000  1.6038667  3
    143    142    328    319     1  0.0000000  1.6038667  3
    144    142    328    319     1  0.0000000  1.6038667  3
    145    358    349    350     1  0.0000000  1.6038667  3
    145    358    349    351     1  0.0000000  1.6038667  3
    146    145    358    349     1  0.0000000  1.6038667  3
    147    145    358    349     1  0.0000000  1.6038667  3
    150    151    163    164     1  0.0000000  0.6508444  3
    150    151    163    165     1  0.0000000  0.6508444  3
    150    154    166    167     1  0.0000000  0.6508444  3
    150    154    166    168     1  0.0000000  0.6508444  3
    150    157    160    161     1  0.0000000  0.6508444  3
    150    157    160    162     1  0.0000000  0.6508444  3
    151    150    154    155     1  0.0000000  0.6508444  3
    151    150    154    156     1  0.0000000  0.6508444  3
    151    150    157    158     1  0.0000000  0.6508444  3
    151    150    157    159     1  0.0000000  0.6508444  3
    151    163    175    176     1  0.0000000  0.6508444  3
    151    163    175    177     1  0.0000000  0.6508444  3
    152    151    150    154     1  0.0000000  0.6508444  3
    152    151    150    157     1  0.0000000  0.6508444  3
    152    151    150    179     1  0.0000000  0.6508444  3
    152    151    163    175     1  0.0000000  0.6508444  3
    152    151    163    164     1  0.0000000  0.6508444  3
    152    151    163    165     1  0.0000000  0.6508444  3
    153    151    150    154     1  0.0000000  0.6508444  3
    153    151    150    157     1  0.0000000  0.6508444  3
    153    151    150    179     1  0.0000000  0.6508444  3
    153    151    163    175     1  0.0000000  0.6508444  3
    153    151    163    164     1  0.0000000  0.6508444  3
    153    151    163    165     1  0.0000000  0.6508444  3
    154    150    157    158     1  0.0000000  0.6508444  3
    154    150    157    159     1  0.0000000  0.6508444  3
    154    166    172    173     1  0.0000000  0.6508444  3
    154    166    172    174     1  0.0000000  0.6508444  3
    155    154    150    157     1  0.0000000  0.6508444  3
    155    154    150    179     1  0.0000000  0.6508444  3
    155    154    166    172     1  0.0000000  0.6508444  3
    155    154    166    167     1  0.0000000  0.6508444  3
    155    154    166    168     1  0.0000000  0.6508444  3
    156    154    150    157     1  0.0000000  0.6508444  3
    156    154    150    179     1  0.0000000  0.6508444  3
    156    154    166    172     1  0.0000000  0.6508444  3
    156    154    166    167     1  0.0000000  0.6508444  3
    156    154    166    168     1  0.0000000  0.6508444  3
    157    160    169    170     1  0.0000000  0.6508444  3
    157    160    169    171     1  0.0000000  0.6508444  3
    158    157    150    179     1  0.0000000  0.6508444  3
    158    157    160    169     1  0.0000000  0.6508444  3
    158    157    160    161     1  0.0000000  0.6508444  3
    158    157    160    162     1  0.0000000  0.6508444  3
    159    157    150    179     1  0.0000000  0.6508444  3
    159    157    160    169     1  0.0000000  0.6508444  3
    159    157    160    161     1  0.0000000  0.6508444  3
    159    157    160    162     1  0.0000000  0.6508444  3
    160    157    150    179     1  0.0000000  0.6508444  3
    161    160    169    178     1  0.0000000  1.0460000  1
    161    160    169    178     1  0.0000000  0.0000000  3
    161    160    169    170     1  0.0000000  0.6508444  3
    161    160    169    171     1  0.0000000  0.6508444  3
    162    160    169    178     1  0.0000000  1.0460000  1
    162    160    169    178     1  0.0000000  0.0000000  3
    162    160    169    170     1  0.0000000  0.6508444  3
    162    160    169    171     1  0.0000000  0.6508444  3
    163    151    150    179     1  0.0000000  0.6508444  3
    164    163    175    418     1  0.0000000  1.0460000  1
    164    163    175    418     1  0.0000000  0.0000000  3
    164    163    175    176     1  0.0000000  0.6508444  3
    164    163    175    177     1  0.0000000  0.6508444  3
    165    163    175    418     1  0.0000000  1.0460000  1
    165    163    175    418     1  0.0000000  0.0000000  3
    165    163    175    176     1  0.0000000  0.6508444  3
    165    163    175    177     1  0.0000000  0.6508444  3
    166    154    150    179     1  0.0000000  0.6508444  3
    167    166    172    388     1  0.0000000  1.0460000  1
    167    166    172    388     1  0.0000000  0.0000000  3
    167    166    172    173     1  0.0000000  0.6508444  3
    167    166    172    174     1  0.0000000  0.6508444  3
    168    166    172    388     1  0.0000000  1.0460000  1
    168    166    172    388     1  0.0000000  0.0000000  3
    168    166    172    173     1  0.0000000  0.6508444  3
    168    166    172    174     1  0.0000000  0.6508444  3
    172    388    379    380     1  0.0000000  1.6038667  3
    172    388    379    381     1  0.0000000  1.6038667  3
    173    172    388    379     1  0.0000000  1.6038667  3
    174    172    388    379     1  0.0000000  1.6038667  3
    175    418    409    410     1  0.0000000  1.6038667  3
    175    418    409    411     1  0.0000000  1.6038667  3
    176    175    418    409     1  0.0000000  1.6038667  3
    177    175    418    409     1  0.0000000  1.6038667  3
    180    181    193    194     1  0.0000000  0.6508444  3
    180    181    193    195     1  0.0000000  0.6508444  3
    180    184    196    197     1  0.0000000  0.6508444  3
    180    184    196    198     1  0.0000000  0.6508444  3
    180    187    190    191     1  0.0000000  0.6508444  3
    180    187    190    192     1  0.0000000  0.6508444  3
    181    180    184    185     1  0.0000000  0.6508444  3
    181    180    184    186     1  0.0000000  0.6508444  3
    181    180    187    188     1  0.0000000  0.6508444  3
    181    180    187    189     1  0.0000000  0.6508444  3
    181    193    205    206     1  0.0000000  0.6508444  3
    181    193    205    207     1  0.0000000  0.6508444  3
    182    181    180    184     1  0.0000000  0.6508444  3
    182    181    180    187     1  0.0000000  0.6508444  3
    182    181    180    209     1  0.0000000  0.6508444  3
    182    181    193    205     1  0.0000000  0.6508444  3
    182    181    193    194     1  0.0000000  0.6508444  3
    182    181    193    195     1  0.0000000  0.6508444  3
    183    181    180    184     1  0.0000000  0.6508444  3
    183    181    180    187     1  0.0000000  0.6508444  3
    183    181    180    209     1  0.0000000  0.6508444  3
    183    181    193    205     1  0.0000000  0.6508444  3
    183    181    193    194     1  0.0000000  0.6508444  3
    183    181    193    195     1  0.0000000  0.6508444  3
    184    180    187    188     1  0.0000000  0.6508444  3
    184    180    187    189     1  0.0000000  0.6508444  3
    184    196    202    203     1  0.0000000  0.6508444  3
    184    196    202    204     1  0.0000000  0.6508444  3
    185    184    180    187     1  0.0000000  0.6508444  3
    185    184    180    209     1  0.0000000  0.6508444  3
    185    184    196    202     1  0.0000000  0.6508444  3
    185    184    196    197     1  0.0000000  0.6508444  3
    185    184    196    198     1  0.0000000  0.6508444  3
    186    184    180    187     1  0.0000000  0.6508444  3
    186    184    180    209     1  0.0000000  0.6508444  3
    186    184    196    202     1  0.0000000  0.6508444  3
    186    184    196    197     1  0.0000000  0.6508444  3
    186    184    196    198     1  0.0000000  0.6508444  3
    187    190    199    200     1  0.0000000  0.6508444  3
    187    190    199    201     1  0.0000000  0.6508444  3
    188    187    180    209     1  0.0000000  0.6508444  3
    188    187    190    199     1  0.0000000  0.6508444  3
    188    187    190    191     1  0.0000000  0.6508444  3
    188    187    190    192     1  0.0000000  0.6508444  3
    189    187    180    209     1  0.0000000  0.6508444  3
    189    187    190    199     1  0.0000000  0.6508444  3
    189    187    190    191     1  0.0000000  0.6508444  3
    189    187    190    192     1  0.0000000  0.6508444  3
    190    187    180    209     1  0.0000000  0.6508444  3
    191    190    199    208     1  0.0000000  1.0460000  1
    191    190    199    208     1  0.0000000  0.0000000  3
    191    190    199    200     1  0.0000000  0.6508444  3
    191    190    199    201     1  0.0000000  0.6508444  3
    192    190    199    208     1  0.0000000  1.0460000  1
    192    190    199    208     1  0.0000000  0.0000000  3
    192    190    199    200     1  0.0000000  0.6508444  3
    192    190    199    201     1  0.0000000  0.6508444  3
    193    181    180    209     1  0.0000000  0.6508444  3
    194    193    205    478     1  0.0000000  1.0460000  1
    194    193    205    478     1  0.0000000  0.0000000  3
    194    193    205    206     1  0.0000000  0.6508444  3
    194    193    205    207     1  0.0000000  0.6508444  3
    195    193    205    478     1  0.0000000  1.0460000  1
    195    193    205    478     1  0.0000000  0.0000000  3
    195    193    205    206     1  0.0000000  0.6508444  3
    195    193    205    207     1  0.0000000  0.6508444  3
    196    184    180    209     1  0.0000000  0.6508444  3
    197    196    202    448     1  0.0000000  1.0460000  1
    197    196    202    448     1  0.0000000  0.0000000  3
    197    196    202    203     1  0.0000000  0.6508444  3
    197    196    202    204     1  0.0000000  0.6508444  3
    198    196    202    448     1  0.0000000  1.0460000  1
    198    196    202    448     1  0.0000000  0.0000000  3
    198    196    202    203     1  0.0000000  0.6508444  3
    198    196    202    204     1  0.0000000  0.6508444  3
    202    448    439    440     1  0.0000000  1.6038667  3
    202    448    439    441     1  0.0000000  1.6038667  3
    203    202    448    439     1  0.0000000  1.6038667  3
    204    202    448    439     1  0.0000000  1.6038667  3
    205    478    469    470     1  0.0000000  1.6038667  3
    205    478    469    471     1  0.0000000  1.6038667  3
    206    205    478    469     1  0.0000000  1.6038667  3
    207    205    478    469     1  0.0000000  1.6038667  3
    210    211    223    224     1  0.0000000  0.6508444  3
    210    211    223    225     1  0.0000000  0.6508444  3
    210    214    226    227     1  0.0000000  0.6508444  3
    210    214    226    228     1  0.0000000  0.6508444  3
    210    217    220    221     1  0.0000000  0.6508444  3
    210    217    220    222     1  0.0000000  0.6508444  3
    211    210    214    215     1  0.0000000  0.6508444  3
    211    210    214    216     1  0.0000000  0.6508444  3
    211    210    217    218     1  0.0000000  0.6508444  3
    211    210    217    219     1  0.0000000  0.6508444  3
    211    223    235    236     1  0.0000000  0.6508444  3
    211    223    235    237     1  0.0000000  0.6508444  3
    212    211    210    214     1  0.0000000  0.6508444  3
    212    211    210    217     1  0.0000000  0.6508444  3
    212    211    210    239     1  0.0000000  0.6508444  3
    212    211    223    235     1  0.0000000  0.6508444  3
    212    211    223    224     1  0.0000000  0.6508444  3
    212    211    223    225     1  0.0000000  0.6508444  3
    213    211    210    214     1  0.0000000  0.6508444  3
    213    211    210    217     1  0.0000000  0.6508444  3
    213    211    210    239     1  0.0000000  0.6508444  3
    213    211    223    235     1  0.0000000  0.6508444  3
    213    211    223    224     1  0.0000000  0.6508444  3
    213    211    223    225     1  0.0000000  0.6508444  3
    214    210    217    218     1  0.0000000  0.6508444  3
    214    210    217    219     1  0.0000000  0.6508444  3
    214    226    232    233     1  0.0000000  0.6508444  3
    214    226    232    234     1  0.0000000  0.6508444  3
    215    214    210    217     1  0.0000000  0.6508444  3
    215    214    210    239     1  0.0000000  0.6508444  3
    215    214    226    232     1  0.0000000  0.6508444  3
    215    214    226    227     1  0.0000000  0.6508444  3
    215    214    226    228     1  0.0000000  0.6508444  3
    216    214    210    217     1  0.0000000  0.6508444  3
    216    214    210    239     1  0.0000000  0.6508444  3
    216    214    226    232     1  0.0000000  0.6508444  3
    216    214    226    227     1  0.0000000  0.6508444  3
    216    214    226    228     1  0.0000000  0.6508444  3
    217    220    229    230     1  0.0000000  0.6508444  3
    217    220    229    231     1  0.0000000  0.6508444  3
    218    217    210    239     1  0.0000000  0.6508444  3
    218    217    220    229     1  0.0000000  0.6508444  3
    218    217    220    221     1  0.0000000  0.6508444  3
    218    217    220    222     1  0.0000000  0.6508444  3
    219    217    210    239     1  0.0000000  0.6508444  3
    219    217    220    229     1  0.0000000  0.6508444  3
    219    217    220    221     1  0.0000000  0.6508444  3
    219    217    220    222     1  0.0000000  0.6508444  3
    220    217    210    239     1  0.0000000  0.6508444  3
    221    220    229    238     1  0.0000000  1.0460000  1
    221    220    229    238     1  0.0000000  0.0000000  3
    221    220    229    230     1  0.0000000  0.6508444  3
    221    220    229    231     1  0.0000000  0.6508444  3
    222    220    229    238     1  0.0000000  1.0460000  1
    222    220    229    238     1  0.0000000  0.0000000  3
    222    220    229    230     1  0.0000000  0.6508444  3
    222    220    229    231     1  0.0000000  0.6508444  3
    223    211    210    239     1  0.0000000  0.6508444  3
    224    223    235    538     1  0.0000000  1.0460000  1
    224    223    235    538     1  0.0000000  0.0000000  3
    224    223    235    236     1  0.0000000  0.6508444  3
    224    223    235    237     1  0.0000000  0.6508444  3
    225    223    235    538     1  0.0000000  1.0460000  1
    225    223    235    538     1  0.0000000  0.0000000  3
    225    223    235    236     1  0.0000000  0.6508444  3
    225    223    235    237     1  0.0000000  0.6508444  3
    226    214    210    239     1  0.0000000  0.6508444  3
    227    226    232    508     1  0.0000000  1.0460000  1
    227    226    232    508     1  0.0000000  0.0000000  3
    227    226    232    233     1  0.0000000  0.6508444  3
    227    226    232    234     1  0.0000000  0.6508444  3
    228    226    232    508     1  0.0000000  1.0460000  1
    228    226    232    508     1  0.0000000  0.0000000  3
    228    226    232    233     1  0.0000000  0.6508444  3
    228    226    232    234     1  0.0000000  0.6508444  3
    232    508    499    500     1  0.0000000  1.6038667  3
    232    508    499    501     1  0.0000000  1.6038667  3
    233    232    508    499     1  0.0000000  1.6038667  3
    234    232    508    499     1  0.0000000  1.6038667  3
    235    538    529    530     1  0.0000000  1.6038667  3
    235    538    529    531     1  0.0000000  1.6038667  3
    236    235    538    529     1  0.0000000  1.6038667  3
    237    235    538    529     1  0.0000000  1.6038667  3
    240    241    253    254     1  0.0000000  0.6508444  3
    240    241    253    255     1  0.0000000  0.6508444  3
    240    244    256    257     1  0.0000000  0.6508444  3
    240    244    256    258     1  0.0000000  0.6508444  3
    240    247    250    251     1  0.0000000  0.6508444  3
    240    247    250    252     1  0.0000000  0.6508444  3
    241    240    244    245     1  0.0000000  0.6508444  3
    241    240    244    246     1  0.0000000  0.6508444  3
    241    240    247    248     1  0.0000000  0.6508444  3
    241    240    247    249     1  0.0000000  0.6508444  3
    241    253    265    266     1  0.0000000  0.6508444  3
    241    253    265    267     1  0.0000000  0.6508444  3
    242    241    240    244     1  0.0000000  0.6508444  3
    242    241    240    247     1  0.0000000  0.6508444  3
    242    241    240    269     1  0.0000000  0.6508444  3
    242    241    253    265     1  0.0000000  0.6508444  3
    242    241    253    254     1  0.0000000  0.6508444  3
    242    241    253    255     1  0.0000000  0.6508444  3
    243    241    240    244     1  0.0000000  0.6508444  3
    243    241    240    247     1  0.0000000  0.6508444  3
    243    241    240    269     1  0.0000000  0.6508444  3
    243    241    253    265     1  0.0000000  0.6508444  3
    243    241    253    254     1  0.0000000  0.6508444  3
    243    241    253    255     1  0.0000000  0.6508444  3
    244    240    247    248     1  0.0000000  0.6508444  3
    244    240    247    249     1  0.0000000  0.6508444  3
    244    256    262    263     1  0.0000000  0.6508444  3
    244    256    262    264     1  0.0000000  0.6508444  3
    245    244    240    247     1  0.0000000  0.6508444  3
    245    244    240    269     1  0.0000000  0.6508444  3
    245    244    256    262     1  0.0000000  0.6508444  3
    245    244    256    257     1  0.0000000  0.6508444  3
    245    244    256    258     1  0.0000000  0.6508444  3
    246    244    240    247     1  0.0000000  0.6508444  3
    246    244    240    269     1  0.0000000  0.6508444  3
    246    244    256    262     1  0.0000000  0.6508444  3
    246    244    256    257     1  0.0000000  0.6508444  3
    246    244    256    258     1  0.0000000  0.6508444  3
    247    250    259    260     1  0.0000000  0.6508444  3
    247    250    259    261     1  0.0000000  0.6508444  3
    248    247    240    269     1  0.0000000  0.6508444  3
    248    247    250    259     1  0.0000000  0.6508444  3
    248    247    250    251     1  0.0000000  0.6508444  3
    248    247    250    252     1  0.0000000  0.6508444  3
    249    247    240    269     1  0.0000000  0.6508444  3
    249    247    250    259     1  0.0000000  0.6508444  3
    249    247    250    251     1  0.0000000  0.6508444  3
    249    247    250    252     1  0.0000000  0.6508444  3
    250    247    240    269     1  0.0000000  0.6508444  3
    251    250    259    268     1  0.0000000  1.0460000  1
    251    250    259    268     1  0.0000000  0.0000000  3
    251    250    259    260     1  0.0000000  0.6508444  3
    251    250    259    261     1  0.0000000  0.6508444  3
    252    250    259    268     1  0.0000000  1.0460000  1
    252    250    259    268     1  0.0000000  0.0000000  3
    252    250    259    260     1  0.0000000  0.6508444  3
    252    250    259    261     1  0.0000000  0.6508444  3
    253    241    240    269     1  0.0000000  0.6508444  3
    254    253    265    598     1  0.0000000  1.0460000  1
    254    253    265    598     1  0.0000000  0.0000000  3
    254    253    265    266     1  0.0000000  0.6508444  3
    254    253    265    267     1  0.0000000  0.6508444  3
    255    253    265    598     1  0.0000000  1.0460000  1
    255    253    265    598     1  0.0000000  0.0000000  3
    255    253    265    266     1  0.0000000  0.6508444  3
    255    253    265    267     1  0.0000000  0.6508444  3
    256    244    240    269     1  0.0000000  0.6508444  3
    257    256    262    568     1  0.0000000  1.0460000  1
    257    256    262    568     1  0.0000000  0.0000000  3
    257    256    262    263     1  0.0000000  0.6508444  3
    257    256    262    264     1  0.0000000  0.6508444  3
    258    256    262    568     1  0.0000000  1.0460000  1
    258    256    262    568     1  0.0000000  0.0000000  3
    258    256    262    263     1  0.0000000  0.6508444  3
    258    256    262    264     1  0.0000000  0.6508444  3
    262    568    559    560     1  0.0000000  1.6038667  3
    262    568    559    561     1  0.0000000  1.6038667  3
    263    262    568    559     1  0.0000000  1.6038667  3
    264    262    568    559     1  0.0000000  1.6038667  3
    265    598    589    590     1  0.0000000  1.6038667  3
    265    598    589    591     1  0.0000000  1.6038667  3
    266    265    598    589     1  0.0000000  1.6038667  3
    267    265    598    589     1  0.0000000  1.6038667  3
    270    271    283    284     1  0.0000000  0.6508444  3
    270    271    283    285     1  0.0000000  0.6508444  3
    270    274    286    287     1  0.0000000  0.6508444  3
    270    274    286    288     1  0.0000000  0.6508444  3
    270    277    280    281     1  0.0000000  0.6508444  3
    270    277    280    282     1  0.0000000  0.6508444  3
    271    270    274    275     1  0.0000000  0.6508444  3
    271    270    274    276     1  0.0000000  0.6508444  3
    271    270    277    278     1  0.0000000  0.6508444  3
    271    270    277    279     1  0.0000000  0.6508444  3
    271    283    295    296     1  0.0000000  0.6508444  3
    271    283    295    297     1  0.0000000  0.6508444  3
    272    271    270    274     1  0.0000000  0.6508444  3
    272    271    270    277     1  0.0000000  0.6508444  3
    272    271    270    299     1  0.0000000  0.6508444  3
    272    271    283    295     1  0.0000000  0.6508444  3
    272    271    283    284     1  0.0000000  0.6508444  3
    272    271    283    285     1  0.0000000  0.6508444  3
    273    271    270    274     1  0.0000000  0.6508444  3
    273    271    270    277     1  0.0000000  0.6508444  3
    273    271    270    299     1  0.0000000  0.6508444  3
    273    271    283    295     1  0.0000000  0.6508444  3
    273    271    283    284     1  0.0000000  0.6508444  3
    273    271    283    285     1  0.0000000  0.6508444  3
    274    270    277    278     1  0.0000000  0.6508444  3
    274    270    277    279     1  0.0000000  0.6508444  3
    274    286    292    293     1  0.0000000  0.6508444  3
    274    286    292    294     1  0.0000000  0.6508444  3
    275    274    270    277     1  0.0000000  0.6508444  3
    275    274    270    299     1  0.0000000  0.6508444  3
    275    274    286    292     1  0.0000000  0.6508444  3
    275    274    286    287     1  0.0000000  0.6508444  3
    275    274    286    288     1  0.0000000  0.6508444  3
    276    274    270    277     1  0.0000000  0.6508444  3
    276    274    270    299     1  0.0000000  0.6508444  3
    276    274    286    292     1  0.0000000  0.6508444  3
    276    274    286    287     1  0.0000000  0.6508444  3
    276    274    286    288     1  0.0000000  0.6508444  3
    277    280    289    290     1  0.0000000  0.6508444  3
    277    280    289    291     1  0.0000000  0.6508444  3
    278    277    270    299     1  0.0000000  0.6508444  3
    278    277    280    289     1  0.0000000  0.6508444  3
    278    277    280    281     1  0.0000000  0.6508444  3
    278    277    280    282     1  0.0000000  0.6508444  3
    279    277    270    299     1  0.0000000  0.6508444  3
    279    277    280    289     1  0.0000000  0.6508444  3
    279    277    280    281     1  0.0000000  0.6508444  3
    279    277    280    282     1  0.0000000  0.6508444  3
    280    277    270    299     1  0.0000000  0.6508444  3
    281    280    289    298     1  0.0000000  1.0460000  1
    281    280    289    298     1  0.0000000  0.0000000  3
    281    280    289    290     1  0.0000000  0.6508444  3
    281    280    289    291     1  0.0000000  0.6508444  3
    282    280    289    298     1  0.0000000  1.0460000  1
    282    280    289    298     1  0.0000000  0.0000000  3
    282    280    289    290     1  0.0000000  0.6508444  3
    282    280    289    291     1  0.0000000  0.6508444  3
    283    271    270    299     1  0.0000000  0.6508444  3
    284    283    295    658     1  0.0000000  1.0460000  1
    284    283    295    658     1  0.0000000  0.0000000  3
    284    283    295    296     1  0.0000000  0.6508444  3
    284    283    295    297     1  0.0000000  0.6508444  3
    285    283    295    658     1  0.0000000  1.0460000  1
    285    283    295    658     1  0.0000000  0.0000000  3
    285    283    295    296     1  0.0000000  0.6508444  3
    285    283    295    297     1  0.0000000  0.6508444  3
    286    274    270    299     1  0.0000000  0.6508444  3
    287    286    292    628     1  0.0000000  1.0460000  1
    287    286    292    628     1  0.0000000  0.0000000  3
    287    286    292    293     1  0.0000000  0.6508444  3
    287    286    292    294     1  0.0000000  0.6508444  3
    288    286    292    628     1  0.0000000  1.0460000  1
    288    286    292    628     1  0.0000000  0.0000000  3
    288    286    292    293     1  0.0000000  0.6508444  3
    288    286    292    294     1  0.0000000  0.6508444  3
    292    628    619    620     1  0.0000000  1.6038667  3
    292    628    619    621     1  0.0000000  1.6038667  3
    293    292    628    619     1  0.0000000  1.6038667  3
    294    292    628    619     1  0.0000000  1.6038667  3
    295    658    649    650     1  0.0000000  1.6038667  3
    295    658    649    651     1  0.0000000  1.6038667  3
    296    295    658    649     1  0.0000000  1.6038667  3
    297    295    658    649     1  0.0000000  1.6038667  3
    300    301    313    314     1  0.0000000  0.6508444  3
    300    301    313    315     1  0.0000000  0.6508444  3
    300    304    316    317     1  0.0000000  0.6508444  3
    300    304    316    318     1  0.0000000  0.6508444  3
    300    307    310    311     1  0.0000000  0.6508444  3
    300    307    310    312     1  0.0000000  0.6508444  3
    301    300    304    305     1  0.0000000  0.6508444  3
    301    300    304    306     1  0.0000000  0.6508444  3
    301    300    307    308     1  0.0000000  0.6508444  3
    301    300    307    309     1  0.0000000  0.6508444  3
    301    313    325    326     1  0.0000000  0.6508444  3
    301    313    325    327     1  0.0000000  0.6508444  3
    302    301    300    304     1  0.0000000  0.6508444  3
    302    301    300    307     1  0.0000000  0.6508444  3
    302    301    300    329     1  0.0000000  0.6508444  3
    302    301    313    325     1  0.0000000  0.6508444  3
    302    301    313    314     1  0.0000000  0.6508444  3
    302    301    313    315     1  0.0000000  0.6508444  3
    303    301    300    304     1  0.0000000  0.6508444  3
    303    301    300    307     1  0.0000000  0.6508444  3
    303    301    300    329     1  0.0000000  0.6508444  3
    303    301    313    325     1  0.0000000  0.6508444  3
    303    301    313    314     1  0.0000000  0.6508444  3
    303    301    313    315     1  0.0000000  0.6508444  3
    304    300    307    308     1  0.0000000  0.6508444  3
    304    300    307    309     1  0.0000000  0.6508444  3
    304    316    322    323     1  0.0000000  0.6508444  3
    304    316    322    324     1  0.0000000  0.6508444  3
    305    304    300    307     1  0.0000000  0.6508444  3
    305    304    300    329     1  0.0000000  0.6508444  3
    305    304    316    322     1  0.0000000  0.6508444  3
    305    304    316    317     1  0.0000000  0.6508444  3
    305    304    316    318     1  0.0000000  0.6508444  3
    306    304    300    307     1  0.0000000  0.6508444  3
    306    304    300    329     1  0.0000000  0.6508444  3
    306    304    316    322     1  0.0000000  0.6508444  3
    306    304    316    317     1  0.0000000  0.6508444  3
    306    304    316    318     1  0.0000000  0.6508444  3
    307    310    319    320     1  0.0000000  0.6508444  3
    307    310    319    321     1  0.0000000  0.6508444  3
    308    307    300    329     1  0.0000000  0.6508444  3
    308    307    310    319     1  0.0000000  0.6508444  3
    308    307    310    311     1  0.0000000  0.6508444  3
    308    307    310    312     1  0.0000000  0.6508444  3
    309    307    300    329     1  0.0000000  0.6508444  3
    309    307    310    319     1  0.0000000  0.6508444  3
    309    307    310    311     1  0.0000000  0.6508444  3
    309    307    310    312     1  0.0000000  0.6508444  3
    310    307    300    329     1  0.0000000  0.6508444  3
    311    310    319    328     1  0.0000000  1.0460000  1
    311    310    319    328     1  0.0000000  0.0000000  3
    311    310    319    320     1  0.0000000  0.6508444  3
    311    310    319    321     1  0.0000000  0.6508444  3
    312    310    319    328     1  0.0000000  1.0460000  1
    312    310    319    328     1  0.0000000  0.0000000  3
    312    310    319    320     1  0.0000000  0.6508444  3
    312    310    319    321     1  0.0000000  0.6508444  3
    313    301    300    329     1  0.0000000  0.6508444  3
    314    313    325    718     1  0.0000000  1.0460000  1
    314    313    325    718     1  0.0000000  0.0000000  3
    314    313    325    326     1  0.0000000  0.6508444  3
    314    313    325    327     1  0.0000000  0.6508444  3
    315    313    325    718     1  0.0000000  1.0460000  1
    315    313    325    718     1  0.0000000  0.0000000  3
    315    313    325    326     1  0.0000000  0.6508444  3
    315    313    325    327     1  0.0000000  0.6508444  3
    316    304    300    329     1  0.0000000  0.6508444  3
    317    316    322    688     1  0.0000000  1.0460000  1
    317    316    322    688     1  0.0000000  0.0000000  3
    317    316    322    323     1  0.0000000  0.6508444  3
    317    316    322    324     1  0.0000000  0.6508444  3
    318    316    322    688     1  0.0000000  1.0460000  1
    318    316    322    688     1  0.0000000  0.0000000  3
    318    316    322    323     1  0.0000000  0.6508444  3
    318    316    322    324     1  0.0000000  0.6508444  3
    322    688    679    680     1  0.0000000  1.6038667  3
    322    688    679    681     1  0.0000000  1.6038667  3
    323    322    688    679     1  0.0000000  1.6038667  3
    324    322    688    679     1  0.0000000  1.6038667  3
    325    718    709    710     1  0.0000000  1.6038667  3
    325    718    709    711     1  0.0000000  1.6038667  3
    326    325    718    709     1  0.0000000  1.6038667  3
    327    325    718    709     1  0.0000000  1.6038667  3
    330    331    343    344     1  0.0000000  0.6508444  3
    330    331    343    345     1  0.0000000  0.6508444  3
    330    334    346    347     1  0.0000000  0.6508444  3
    330    334    346    348     1  0.0000000  0.6508444  3
    330    337    340    341     1  0.0000000  0.6508444  3
    330    337    340    342     1  0.0000000  0.6508444  3
    331    330    334    335     1  0.0000000  0.6508444  3
    331    330    334    336     1  0.0000000  0.6508444  3
    331    330    337    338     1  0.0000000  0.6508444  3
    331    330    337    339     1  0.0000000  0.6508444  3
    331    343    355    356     1  0.0000000  0.6508444  3
    331    343    355    357     1  0.0000000  0.6508444  3
    332    331    330    334     1  0.0000000  0.6508444  3
    332    331    330    337     1  0.0000000  0.6508444  3
    332    331    330    359     1  0.0000000  0.6508444  3
    332    331    343    355     1  0.0000000  0.6508444  3
    332    331    343    344     1  0.0000000  0.6508444  3
    332    331    343    345     1  0.0000000  0.6508444  3
    333    331    330    334     1  0.0000000  0.6508444  3
    333    331    330    337     1  0.0000000  0.6508444  3
    333    331    330    359     1  0.0000000  0.6508444  3
    333    331    343    355     1  0.0000000  0.6508444  3
    333    331    343    344     1  0.0000000  0.6508444  3
    333    331    343    345     1  0.0000000  0.6508444  3
    334    330    337    338     1  0.0000000  0.6508444  3
    334    330    337    339     1  0.0000000  0.6508444  3
    334    346    352    353     1  0.0000000  0.6508444  3
    334    346    352    354     1  0.0000000  0.6508444  3
    335    334    330    337     1  0.0000000  0.6508444  3
    335    334    330    359     1  0.0000000  0.6508444  3
    335    334    346    352     1  0.0000000  0.6508444  3
    335    334    346    347     1  0.0000000  0.6508444  3
    335    334    346    348     1  0.0000000  0.6508444  3
    336    334    330    337     1  0.0000000  0.6508444  3
    336    334    330    359     1  0.0000000  0.6508444  3
    336    334    346    352     1  0.0000000  0.6508444  3
    336    334    346    347     1  0.0000000  0.6508444  3
    336    334    346    348     1  0.0000000  0.6508444  3
    337    340    349    350     1  0.0000000  0.6508444  3
    337    340    349    351     1  0.0000000  0.6508444  3
    338    337    330    359     1  0.0000000  0.6508444  3
    338    337    340    349     1  0.0000000  0.6508444  3
    338    337    340    341     1  0.0000000  0.6508444  3
    338    337    340    342     1  0.0000000  0.6508444  3
    339    337    330    359     1  0.0000000  0.6508444  3
    339    337    340    349     1  0.0000000  0.6508444  3
    339    337    340    341     1  0.0000000  0.6508444  3
    339    337    340    342     1  0.0000000  0.6508444  3
    340    337    330    359     1  0.0000000  0.6508444  3
    341    340    349    358     1  0.0000000  1.0460000  1
    341    340    349    358     1  0.0000000  0.0000000  3
    341    340    349    350     1  0.0000000  0.6508444  3
    341    340    349    351     1  0.0000000  0.6508444  3
    342    340    349    358     1  0.0000000  1.0460000  1
    342    340    349    358     1  0.0000000  0.0000000  3
    342    340    349    350     1  0.0000000  0.6508444  3
    342    340    349    351     1  0.0000000  0.6508444  3
    343    331    330    359     1  0.0000000  0.6508444  3
    344    343    355    778     1  0.0000000  1.0460000  1
    344    343    355    778     1  0.0000000  0.0000000  3
    344    343    355    356     1  0.0000000  0.6508444  3
    344    343    355    357     1  0.0000000  0.6508444  3
    345    343    355    778     1  0.0000000  1.0460000  1
    345    343    355    778     1  0.0000000  0.0000000  3
    345    343    355    356     1  0.0000000  0.6508444  3
    345    343    355    357     1  0.0000000  0.6508444  3
    346    334    330    359     1  0.0000000  0.6508444  3
    347    346    352    748     1  0.0000000  1.0460000  1
    347    346    352    748     1  0.0000000  0.0000000  3
    347    346    352    353     1  0.0000000  0.6508444  3
    347    346    352    354     1  0.0000000  0.6508444  3
    348    346    352    748     1  0.0000000  1.0460000  1
    348    346    352    748     1  0.0000000  0.0000000  3
    348    346    352    353     1  0.0000000  0.6508444  3
    348    346    352    354     1  0.0000000  0.6508444  3
    352    748    739    740     1  0.0000000  1.6038667  3
    352    748    739    741     1  0.0000000  1.6038667  3
    353    352    748    739     1  0.0000000  1.6038667  3
    354    352    748    739     1  0.0000000  1.6038667  3
    355    778    769    770     1  0.0000000  1.6038667  3
    355    778    769    771     1  0.0000000  1.6038667  3
    356    355    778    769     1  0.0000000  1.6038667  3
    357    355    778    769     1  0.0000000  1.6038667  3
    360    361    373    374     1  0.0000000  0.6508444  3
    360    361    373    375     1  0.0000000  0.6508444  3
    360    364    376    377     1  0.0000000  0.6508444  3
    360    364    376    378     1  0.0000000  0.6508444  3
    360    367    370    371     1  0.0000000  0.6508444  3
    360    367    370    372     1  0.0000000  0.6508444  3
    361    360    364    365     1  0.0000000  0.6508444  3
    361    360    364    366     1  0.0000000  0.6508444  3
    361    360    367    368     1  0.0000000  0.6508444  3
    361    360    367    369     1  0.0000000  0.6508444  3
    361    373    385    386     1  0.0000000  0.6508444  3
    361    373    385    387     1  0.0000000  0.6508444  3
    362    361    360    364     1  0.0000000  0.6508444  3
    362    361    360    367     1  0.0000000  0.6508444  3
    362    361    360    389     1  0.0000000  0.6508444  3
    362    361    373    385     1  0.0000000  0.6508444  3
    362    361    373    374     1  0.0000000  0.6508444  3
    362    361    373    375     1  0.0000000  0.6508444  3
    363    361    360    364     1  0.0000000  0.6508444  3
    363    361    360    367     1  0.0000000  0.6508444  3
    363    361    360    389     1  0.0000000  0.6508444  3
    363    361    373    385     1  0.0000000  0.6508444  3
    363    361    373    374     1  0.0000000  0.6508444  3
    363    361    373    375     1  0.0000000  0.6508444  3
    364    360    367    368     1  0.0000000  0.6508444  3
    364    360    367    369     1  0.0000000  0.6508444  3
    364    376    382    383     1  0.0000000  0.6508444  3
    364    376    382    384     1  0.0000000  0.6508444  3
    365    364    360    367     1  0.0000000  0.6508444  3
    365    364    360    389     1  0.0000000  0.6508444  3
    365    364    376    382     1  0.0000000  0.6508444  3
    365    364    376    377     1  0.0000000  0.6508444  3
    365    364    376    378     1  0.0000000  0.6508444  3
    366    364    360    367     1  0.0000000  0.6508444  3
    366    364    360    389     1  0.0000000  0.6508444  3
    366    364    376    382     1  0.0000000  0.6508444  3
    366    364    376    377     1  0.0000000  0.6508444  3
    366    364    376    378     1  0.0000000  0.6508444  3
    367    370    379    380     1  0.0000000  0.6508444  3
    367    370    379    381     1  0.0000000  0.6508444  3
    368    367    360    389     1  0.0000000  0.6508444  3
    368    367    370    379     1  0.0000000  0.6508444  3
    368    367    370    371     1  0.0000000  0.6508444  3
    368    367    370    372     1  0.0000000  0.6508444  3
    369    367    360    389     1  0.0000000  0.6508444  3
    369    367    370    379     1  0.0000000  0.6508444  3
    369    367    370    371     1  0.0000000  0.6508444  3
    369    367    370    372     1  0.0000000  0.6508444  3
    370    367    360    389     1  0.0000000  0.6508444  3
    371    370    379    388     1  0.0000000  1.0460000  1
    371    370    379    388     1  0.0000000  0.0000000  3
    371    370    379    380     1  0.0000000  0.6508444  3
    371    370    379    381     1  0.0000000  0.6508444  3
    372    370    379    388     1  0.0000000  1.0460000  1
    372    370    379    388     1  0.0000000  0.0000000  3
    372    370    379    380     1  0.0000000  0.6508444  3
    372    370    379    381     1  0.0000000  0.6508444  3
    373    361    360    389     1  0.0000000  0.6508444  3
    374    373    385    838     1  0.0000000  1.0460000  1
    374    373    385    838     1  0.0000000  0.0000000  3
    374    373    385    386     1  0.0000000  0.6508444  3
    374    373    385    387     1  0.0000000  0.6508444  3
    375    373    385    838     1  0.0000000  1.0460000  1
    375    373    385    838     1  0.0000000  0.0000000  3
    375    373    385    386     1  0.0000000  0.6508444  3
    375    373    385    387     1  0.0000000  0.6508444  3
    376    364    360    389     1  0.0000000  0.6508444  3
    377    376    382    808     1  0.0000000  1.0460000  1
    377    376    382    808     1  0.0000000  0.0000000  3
    377    376    382    383     1  0.0000000  0.6508444  3
    377    376    382    384     1  0.0000000  0.6508444  3
    378    376    382    808     1  0.0000000  1.0460000  1
    378    376    382    808     1  0.0000000  0.0000000  3
    378    376    382    383     1  0.0000000  0.6508444  3
    378    376    382    384     1  0.0000000  0.6508444  3
    382    808    799    800     1  0.0000000  1.6038667  3
    382    808    799    801     1  0.0000000  1.6038667  3
    383    382    808    799     1  0.0000000  1.6038667  3
    384    382    808    799     1  0.0000000  1.6038667  3
    385    838    829    830     1  0.0000000  1.6038667  3
    385    838    829    831     1  0.0000000  1.6038667  3
    386    385    838    829     1  0.0000000  1.6038667  3
    387    385    838    829     1  0.0000000  1.6038667  3
    390    391    403    404     1  0.0000000  0.6508444  3
    390    391    403    405     1  0.0000000  0.6508444  3
    390    394    406    407     1  0.0000000  0.6508444  3
    390    394    406    408     1  0.0000000  0.6508444  3
    390    397    400    401     1  0.0000000  0.6508444  3
    390    397    400    402     1  0.0000000  0.6508444  3
    391    390    394    395     1  0.0000000  0.6508444  3
    391    390    394    396     1  0.0000000  0.6508444  3
    391    390    397    398     1  0.0000000  0.6508444  3
    391    390    397    399     1  0.0000000  0.6508444  3
    391    403    415    416     1  0.0000000  0.6508444  3
    391    403    415    417     1  0.0000000  0.6508444  3
    392    391    390    394     1  0.0000000  0.6508444  3
    392    391    390    397     1  0.0000000  0.6508444  3
    392    391    390    419     1  0.0000000  0.6508444  3
    392    391    403    415     1  0.0000000  0.6508444  3
    392    391    403    404     1  0.0000000  0.6508444  3
    392    391    403    405     1  0.0000000  0.6508444  3
    393    391    390    394     1  0.0000000  0.6508444  3
    393    391    390    397     1  0.0000000  0.6508444  3
    393    391    390    419     1  0.0000000  0.6508444  3
    393    391    403    415     1  0.0000000  0.6508444  3
    393    391    403    404     1  0.0000000  0.6508444  3
    393    391    403    405     1  0.0000000  0.6508444  3
    394    390    397    398     1  0.0000000  0.6508444  3
    394    390    397    399     1  0.0000000  0.6508444  3
    394    406    412    413     1  0.0000000  0.6508444  3
    394    406    412    414     1  0.0000000  0.6508444  3
    395    394    390    397     1  0.0000000  0.6508444  3
    395    394    390    419     1  0.0000000  0.6508444  3
    395    394    406    412     1  0.0000000  0.6508444  3
    395    394    406    407     1  0.0000000  0.6508444  3
    395    394    406    408     1  0.0000000  0.6508444  3
    396    394    390    397     1  0.0000000  0.6508444  3
    396    394    390    419     1  0.0000000  0.6508444  3
    396    394    406    412     1  0.0000000  0.6508444  3
    396    394    406    407     1  0.0000000  0.6508444  3
    396    394    406    408     1  0.0000000  0.6508444  3
    397    400    409    410     1  0.0000000  0.6508444  3
    397    400    409    411     1  0.0000000  0.6508444  3
    398    397    390    419     1  0.0000000  0.6508444  3
    398    397    400    409     1  0.0000000  0.6508444  3
    398    397    400    401     1  0.0000000  0.6508444  3
    398    397    400    402     1  0.0000000  0.6508444  3
    399    397    390    419     1  0.0000000  0.6508444  3
    399    397    400    409     1  0.0000000  0.6508444  3
    399    397    400    401     1  0.0000000  0.6508444  3
    399    397    400    402     1  0.0000000  0.6508444  3
    400    397    390    419     1  0.0000000  0.6508444  3
    401    400    409    418     1  0.0000000  1.0460000  1
    401    400    409    418     1  0.0000000  0.0000000  3
    401    400    409    410     1  0.0000000  0.6508444  3
    401    400    409    411     1  0.0000000  0.6508444  3
    402    400    409    418     1  0.0000000  1.0460000  1
    402    400    409    418     1  0.0000000  0.0000000  3
    402    400    409    410     1  0.0000000  0.6508444  3
    402    400    409    411     1  0.0000000  0.6508444  3
    403    391    390    419     1  0.0000000  0.6508444  3
    404    403    415    898     1  0.0000000  1.0460000  1
    404    403    415    898     1  0.0000000  0.0000000  3
    404    403    415    416     1  0.0000000  0.6508444  3
    404    403    415    417     1  0.0000000  0.6508444  3
    405    403    415    898     1  0.0000000  1.0460000  1
    405    403    415    898     1  0.0000000  0.0000000  3
    405    403    415    416     1  0.0000000  0.6508444  3
    405    403    415    417     1  0.0000000  0.6508444  3
    406    394    390    419     1  0.0000000  0.6508444  3
    407    406    412    868     1  0.0000000  1.0460000  1
    407    406    412    868     1  0.0000000  0.0000000  3
    407    406    412    413     1  0.0000000  0.6508444  3
    407    406    412    414     1  0.0000000  0.6508444  3
    408    406    412    868     1  0.0000000  1.0460000  1
    408    406    412    868     1  0.0000000  0.0000000  3
    408    406    412    413     1  0.0000000  0.6508444  3
    408    406    412    414     1  0.0000000  0.6508444  3
    412    868    859    860     1  0.0000000  1.6038667  3
    412    868    859    861     1  0.0000000  1.6038667  3
    413    412    868    859     1  0.0000000  1.6038667  3
    414    412    868    859     1  0.0000000  1.6038667  3
    415    898    889    890     1  0.0000000  1.6038667  3
    415    898    889    891     1  0.0000000  1.6038667  3
    416    415    898    889     1  0.0000000  1.6038667  3
    417    415    898    889     1  0.0000000  1.6038667  3
    420    421    433    434     1  0.0000000  0.6508444  3
    420    421    433    435     1  0.0000000  0.6508444  3
    420    424    436    437     1  0.0000000  0.6508444  3
    420    424    436    438     1  0.0000000  0.6508444  3
    420    427    430    431     1  0.0000000  0.6508444  3
    420    427    430    432     1  0.0000000  0.6508444  3
    421    420    424    425     1  0.0000000  0.6508444  3
    421    420    424    426     1  0.0000000  0.6508444  3
    421    420    427    428     1  0.0000000  0.6508444  3
    421    420    427    429     1  0.0000000  0.6508444  3
    421    433    445    446     1  0.0000000  0.6508444  3
    421    433    445    447     1  0.0000000  0.6508444  3
    422    421    420    424     1  0.0000000  0.6508444  3
    422    421    420    427     1  0.0000000  0.6508444  3
    422    421    420    449     1  0.0000000  0.6508444  3
    422    421    433    445     1  0.0000000  0.6508444  3
    422    421    433    434     1  0.0000000  0.6508444  3
    422    421    433    435     1  0.0000000  0.6508444  3
    423    421    420    424     1  0.0000000  0.6508444  3
    423    421    420    427     1  0.0000000  0.6508444  3
    423    421    420    449     1  0.0000000  0.6508444  3
    423    421    433    445     1  0.0000000  0.6508444  3
    423    421    433    434     1  0.0000000  0.6508444  3
    423    421    433    435     1  0.0000000  0.6508444  3
    424    420    427    428     1  0.0000000  0.6508444  3
    424    420    427    429     1  0.0000000  0.6508444  3
    424    436    442    443     1  0.0000000  0.6508444  3
    424    436    442    444     1  0.0000000  0.6508444  3
    425    424    420    427     1  0.0000000  0.6508444  3
    425    424    420    449     1  0.0000000  0.6508444  3
    425    424    436    442     1  0.0000000  0.6508444  3
    425    424    436    437     1  0.0000000  0.6508444  3
    425    424    436    438     1  0.0000000  0.6508444  3
    426    424    420    427     1  0.0000000  0.6508444  3
    426    424    420    449     1  0.0000000  0.6508444  3
    426    424    436    442     1  0.0000000  0.6508444  3
    426    424    436    437     1  0.0000000  0.6508444  3
    426    424    436    438     1  0.0000000  0.6508444  3
    427    430    439    440     1  0.0000000  0.6508444  3
    427    430    439    441     1  0.0000000  0.6508444  3
    428    427    420    449     1  0.0000000  0.6508444  3
    428    427    430    439     1  0.0000000  0.6508444  3
    428    427    430    431     1  0.0000000  0.6508444  3
    428    427    430    432     1  0.0000000  0.6508444  3
    429    427    420    449     1  0.0000000  0.6508444  3
    429    427    430    439     1  0.0000000  0.6508444  3
    429    427    430    431     1  0.0000000  0.6508444  3
    429    427    430    432     1  0.0000000  0.6508444  3
    430    427    420    449     1  0.0000000  0.6508444  3
    431    430    439    448     1  0.0000000  1.0460000  1
    431    430    439    448     1  0.0000000  0.0000000  3
    431    430    439    440     1  0.0000000  0.6508444  3
    431    430    439    441     1  0.0000000  0.6508444  3
    432    430    439    448     1  0.0000000  1.0460000  1
    432    430    439    448     1  0.0000000  0.0000000  3
    432    430    439    440     1  0.0000000  0.6508444  3
    432    430    439    441     1  0.0000000  0.6508444  3
    433    421    420    449     1  0.0000000  0.6508444  3
    434    433    445    962     1  0.0000000  1.0460000  1
    434    433    445    962     1  0.0000000  0.0000000  3
    434    433    445    446     1  0.0000000  0.6508444  3
    434    433    445    447     1  0.0000000  0.6508444  3
    435    433    445    962     1  0.0000000  1.0460000  1
    435    433    445    962     1  0.0000000  0.0000000  3
    435    433    445    446     1  0.0000000  0.6508444  3
    435    433    445    447     1  0.0000000  0.6508444  3
    436    424    420    449     1  0.0000000  0.6508444  3
    437    436    442    930     1  0.0000000  1.0460000  1
    437    436    442    930     1  0.0000000  0.0000000  3
    437    436    442    443     1  0.0000000  0.6508444  3
    437    436    442    444     1  0.0000000  0.6508444  3
    438    436    442    930     1  0.0000000  1.0460000  1
    438    436    442    930     1  0.0000000  0.0000000  3
    438    436    442    443     1  0.0000000  0.6508444  3
    438    436    442    444     1  0.0000000  0.6508444  3
    442    930    900    901     1  0.0000000  1.6038667  3
    442    930    900    902     1  0.0000000  1.6038667  3
    443    442    930    900     1  0.0000000  1.6038667  3
    444    442    930    900     1  0.0000000  1.6038667  3
    445    962    932    933     1  0.0000000  1.6038667  3
    445    962    932    934     1  0.0000000  1.6038667  3
    446    445    962    932     1  0.0000000  1.6038667  3
    447    445    962    932     1  0.0000000  1.6038667  3
    450    451    463    464     1  0.0000000  0.6508444  3
    450    451    463    465     1  0.0000000  0.6508444  3
    450    454    466    467     1  0.0000000  0.6508444  3
    450    454    466    468     1  0.0000000  0.6508444  3
    450    457    460    461     1  0.0000000  0.6508444  3
    450    457    460    462     1  0.0000000  0.6508444  3
    451    450    454    455     1  0.0000000  0.6508444  3
    451    450    454    456     1  0.0000000  0.6508444  3
    451    450    457    458     1  0.0000000  0.6508444  3
    451    450    457    459     1  0.0000000  0.6508444  3
    451    463    475    476     1  0.0000000  0.6508444  3
    451    463    475    477     1  0.0000000  0.6508444  3
    452    451    450    454     1  0.0000000  0.6508444  3
    452    451    450    457     1  0.0000000  0.6508444  3
    452    451    450    479     1  0.0000000  0.6508444  3
    452    451    463    475     1  0.0000000  0.6508444  3
    452    451    463    464     1  0.0000000  0.6508444  3
    452    451    463    465     1  0.0000000  0.6508444  3
    453    451    450    454     1  0.0000000  0.6508444  3
    453    451    450    457     1  0.0000000  0.6508444  3
    453    451    450    479     1  0.0000000  0.6508444  3
    453    451    463    475     1  0.0000000  0.6508444  3
    453    451    463    464     1  0.0000000  0.6508444  3
    453    451    463    465     1  0.0000000  0.6508444  3
    454    450    457    458     1  0.0000000  0.6508444  3
    454    450    457    459     1  0.0000000  0.6508444  3
    454    466    472    473     1  0.0000000  0.6508444  3
    454    466    472    474     1  0.0000000  0.6508444  3
    455    454    450    457     1  0.0000000  0.6508444  3
    455    454    450    479     1  0.0000000  0.6508444  3
    455    454    466    472     1  0.0000000  0.6508444  3
    455    454    466    467     1  0.0000000  0.6508444  3
    455    454    466    468     1  0.0000000  0.6508444  3
    456    454    450    457     1  0.0000000  0.6508444  3
    456    454    450    479     1  0.0000000  0.6508444  3
    456    454    466    472     1  0.0000000  0.6508444  3
    456    454    466    467     1  0.0000000  0.6508444  3
    456    454    466    468     1  0.0000000  0.6508444  3
    457    460    469    470     1  0.0000000  0.6508444  3
    457    460    469    471     1  0.0000000  0.6508444  3
    458    457    450    479     1  0.0000000  0.6508444  3
    458    457    460    469     1  0.0000000  0.6508444  3
    458    457    460    461     1  0.0000000  0.6508444  3
    458    457    460    462     1  0.0000000  0.6508444  3
    459    457    450    479     1  0.0000000  0.6508444  3
    459    457    460    469     1  0.0000000  0.6508444  3
    459    457    460    461     1  0.0000000  0.6508444  3
    459    457    460    462     1  0.0000000  0.6508444  3
    460    457    450    479     1  0.0000000  0.6508444  3
    461    460    469    478     1  0.0000000  1.0460000  1
    461    460    469    478     1  0.0000000  0.0000000  3
    461    460    469    470     1  0.0000000  0.6508444  3
    461    460    469    471     1  0.0000000  0.6508444  3
    462    460    469    478     1  0.0000000  1.0460000  1
    462    460    469    478     1  0.0000000  0.0000000  3
    462    460    469    470     1  0.0000000  0.6508444  3
    462    460    469    471     1  0.0000000  0.6508444  3
    463    451    450    479     1  0.0000000  0.6508444  3
    464    463    475   1026     1  0.0000000  1.0460000  1
    464    463    475   1026     1  0.0000000  0.0000000  3
    464    463    475    476     1  0.0000000  0.6508444  3
    464    463    475    477     1  0.0000000  0.6508444  3
    465    463    475   1026     1  0.0000000  1.0460000  1
    465    463    475   1026     1  0.0000000  0.0000000  3
    465    463    475    476     1  0.0000000  0.6508444  3
    465    463    475    477     1  0.0000000  0.6508444  3
    466    454    450    479     1  0.0000000  0.6508444  3
    467    466    472    994     1  0.0000000  1.0460000  1
    467    466    472    994     1  0.0000000  0.0000000  3
    467    466    472    473     1  0.0000000  0.6508444  3
    467    466    472    474     1  0.0000000  0.6508444  3
    468    466    472    994     1  0.0000000  1.0460000  1
    468    466    472    994     1  0.0000000  0.0000000  3
    468    466    472    473     1  0.0000000  0.6508444  3
    468    466    472    474     1  0.0000000  0.6508444  3
    472    994    964    965     1  0.0000000  1.6038667  3
    472    994    964    966     1  0.0000000  1.6038667  3
    473    472    994    964     1  0.0000000  1.6038667  3
    474    472    994    964     1  0.0000000  1.6038667  3
    475   1026    996    997     1  0.0000000  1.6038667  3
    475   1026    996    998     1  0.0000000  1.6038667  3
    476    475   1026    996     1  0.0000000  1.6038667  3
    477    475   1026    996     1  0.0000000  1.6038667  3
    480    481    493    494     1  0.0000000  0.6508444  3
    480    481    493    495     1  0.0000000  0.6508444  3
    480    484    496    497     1  0.0000000  0.6508444  3
    480    484    496    498     1  0.0000000  0.6508444  3
    480    487    490    491     1  0.0000000  0.6508444  3
    480    487    490    492     1  0.0000000  0.6508444  3
    481    480    484    485     1  0.0000000  0.6508444  3
    481    480    484    486     1  0.0000000  0.6508444  3
    481    480    487    488     1  0.0000000  0.6508444  3
    481    480    487    489     1  0.0000000  0.6508444  3
    481    493    505    506     1  0.0000000  0.6508444  3
    481    493    505    507     1  0.0000000  0.6508444  3
    482    481    480    484     1  0.0000000  0.6508444  3
    482    481    480    487     1  0.0000000  0.6508444  3
    482    481    480    509     1  0.0000000  0.6508444  3
    482    481    493    505     1  0.0000000  0.6508444  3
    482    481    493    494     1  0.0000000  0.6508444  3
    482    481    493    495     1  0.0000000  0.6508444  3
    483    481    480    484     1  0.0000000  0.6508444  3
    483    481    480    487     1  0.0000000  0.6508444  3
    483    481    480    509     1  0.0000000  0.6508444  3
    483    481    493    505     1  0.0000000  0.6508444  3
    483    481    493    494     1  0.0000000  0.6508444  3
    483    481    493    495     1  0.0000000  0.6508444  3
    484    480    487    488     1  0.0000000  0.6508444  3
    484    480    487    489     1  0.0000000  0.6508444  3
    484    496    502    503     1  0.0000000  0.6508444  3
    484    496    502    504     1  0.0000000  0.6508444  3
    485    484    480    487     1  0.0000000  0.6508444  3
    485    484    480    509     1  0.0000000  0.6508444  3
    485    484    496    502     1  0.0000000  0.6508444  3
    485    484    496    497     1  0.0000000  0.6508444  3
    485    484    496    498     1  0.0000000  0.6508444  3
    486    484    480    487     1  0.0000000  0.6508444  3
    486    484    480    509     1  0.0000000  0.6508444  3
    486    484    496    502     1  0.0000000  0.6508444  3
    486    484    496    497     1  0.0000000  0.6508444  3
    486    484    496    498     1  0.0000000  0.6508444  3
    487    490    499    500     1  0.0000000  0.6508444  3
    487    490    499    501     1  0.0000000  0.6508444  3
    488    487    480    509     1  0.0000000  0.6508444  3
    488    487    490    499     1  0.0000000  0.6508444  3
    488    487    490    491     1  0.0000000  0.6508444  3
    488    487    490    492     1  0.0000000  0.6508444  3
    489    487    480    509     1  0.0000000  0.6508444  3
    489    487    490    499     1  0.0000000  0.6508444  3
    489    487    490    491     1  0.0000000  0.6508444  3
    489    487    490    492     1  0.0000000  0.6508444  3
    490    487    480    509     1  0.0000000  0.6508444  3
    491    490    499    508     1  0.0000000  1.0460000  1
    491    490    499    508     1  0.0000000  0.0000000  3
    491    490    499    500     1  0.0000000  0.6508444  3
    491    490    499    501     1  0.0000000  0.6508444  3
    492    490    499    508     1  0.0000000  1.0460000  1
    492    490    499    508     1  0.0000000  0.0000000  3
    492    490    499    500     1  0.0000000  0.6508444  3
    492    490    499    501     1  0.0000000  0.6508444  3
    493    481    480    509     1  0.0000000  0.6508444  3
    494    493    505   1090     1  0.0000000  1.0460000  1
    494    493    505   1090     1  0.0000000  0.0000000  3
    494    493    505    506     1  0.0000000  0.6508444  3
    494    493    505    507     1  0.0000000  0.6508444  3
    495    493    505   1090     1  0.0000000  1.0460000  1
    495    493    505   1090     1  0.0000000  0.0000000  3
    495    493    505    506     1  0.0000000  0.6508444  3
    495    493    505    507     1  0.0000000  0.6508444  3
    496    484    480    509     1  0.0000000  0.6508444  3
    497    496    502   1058     1  0.0000000  1.0460000  1
    497    496    502   1058     1  0.0000000  0.0000000  3
    497    496    502    503     1  0.0000000  0.6508444  3
    497    496    502    504     1  0.0000000  0.6508444  3
    498    496    502   1058     1  0.0000000  1.0460000  1
    498    496    502   1058     1  0.0000000  0.0000000  3
    498    496    502    503     1  0.0000000  0.6508444  3
    498    496    502    504     1  0.0000000  0.6508444  3
    502   1058   1028   1029     1  0.0000000  1.6038667  3
    502   1058   1028   1030     1  0.0000000  1.6038667  3
    503    502   1058   1028     1  0.0000000  1.6038667  3
    504    502   1058   1028     1  0.0000000  1.6038667  3
    505   1090   1060   1061     1  0.0000000  1.6038667  3
    505   1090   1060   1062     1  0.0000000  1.6038667  3
    506    505   1090   1060     1  0.0000000  1.6038667  3
    507    505   1090   1060     1  0.0000000  1.6038667  3
    510    511    523    524     1  0.0000000  0.6508444  3
    510    511    523    525     1  0.0000000  0.6508444  3
    510    514    526    527     1  0.0000000  0.6508444  3
    510    514    526    528     1  0.0000000  0.6508444  3
    510    517    520    521     1  0.0000000  0.6508444  3
    510    517    520    522     1  0.0000000  0.6508444  3
    511    510    514    515     1  0.0000000  0.6508444  3
    511    510    514    516     1  0.0000000  0.6508444  3
    511    510    517    518     1  0.0000000  0.6508444  3
    511    510    517    519     1  0.0000000  0.6508444  3
    511    523    535    536     1  0.0000000  0.6508444  3
    511    523    535    537     1  0.0000000  0.6508444  3
    512    511    510    514     1  0.0000000  0.6508444  3
    512    511    510    517     1  0.0000000  0.6508444  3
    512    511    510    539     1  0.0000000  0.6508444  3
    512    511    523    535     1  0.0000000  0.6508444  3
    512    511    523    524     1  0.0000000  0.6508444  3
    512    511    523    525     1  0.0000000  0.6508444  3
    513    511    510    514     1  0.0000000  0.6508444  3
    513    511    510    517     1  0.0000000  0.6508444  3
    513    511    510    539     1  0.0000000  0.6508444  3
    513    511    523    535     1  0.0000000  0.6508444  3
    513    511    523    524     1  0.0000000  0.6508444  3
    513    511    523    525     1  0.0000000  0.6508444  3
    514    510    517    518     1  0.0000000  0.6508444  3
    514    510    517    519     1  0.0000000  0.6508444  3
    514    526    532    533     1  0.0000000  0.6508444  3
    514    526    532    534     1  0.0000000  0.6508444  3
    515    514    510    517     1  0.0000000  0.6508444  3
    515    514    510    539     1  0.0000000  0.6508444  3
    515    514    526    532     1  0.0000000  0.6508444  3
    515    514    526    527     1  0.0000000  0.6508444  3
    515    514    526    528     1  0.0000000  0.6508444  3
    516    514    510    517     1  0.0000000  0.6508444  3
    516    514    510    539     1  0.0000000  0.6508444  3
    516    514    526    532     1  0.0000000  0.6508444  3
    516    514    526    527     1  0.0000000  0.6508444  3
    516    514    526    528     1  0.0000000  0.6508444  3
    517    520    529    530     1  0.0000000  0.6508444  3
    517    520    529    531     1  0.0000000  0.6508444  3
    518    517    510    539     1  0.0000000  0.6508444  3
    518    517    520    529     1  0.0000000  0.6508444  3
    518    517    520    521     1  0.0000000  0.6508444  3
    518    517    520    522     1  0.0000000  0.6508444  3
    519    517    510    539     1  0.0000000  0.6508444  3
    519    517    520    529     1  0.0000000  0.6508444  3
    519    517    520    521     1  0.0000000  0.6508444  3
    519    517    520    522     1  0.0000000  0.6508444  3
    520    517    510    539     1  0.0000000  0.6508444  3
    521    520    529    538     1  0.0000000  1.0460000  1
    521    520    529    538     1  0.0000000  0.0000000  3
    521    520    529    530     1  0.0000000  0.6508444  3
    521    520    529    531     1  0.0000000  0.6508444  3
    522    520    529    538     1  0.0000000  1.0460000  1
    522    520    529    538     1  0.0000000  0.0000000  3
    522    520    529    530     1  0.0000000  0.6508444  3
    522    520    529    531     1  0.0000000  0.6508444  3
    523    511    510    539     1  0.0000000  0.6508444  3
    524    523    535   1154     1  0.0000000  1.0460000  1
    524    523    535   1154     1  0.0000000  0.0000000  3
    524    523    535    536     1  0.0000000  0.6508444  3
    524    523    535    537     1  0.0000000  0.6508444  3
    525    523    535   1154     1  0.0000000  1.0460000  1
    525    523    535   1154     1  0.0000000  0.0000000  3
    525    523    535    536     1  0.0000000  0.6508444  3
    525    523    535    537     1  0.0000000  0.6508444  3
    526    514    510    539     1  0.0000000  0.6508444  3
    527    526    532   1122     1  0.0000000  1.0460000  1
    527    526    532   1122     1  0.0000000  0.0000000  3
    527    526    532    533     1  0.0000000  0.6508444  3
    527    526    532    534     1  0.0000000  0.6508444  3
    528    526    532   1122     1  0.0000000  1.0460000  1
    528    526    532   1122     1  0.0000000  0.0000000  3
    528    526    532    533     1  0.0000000  0.6508444  3
    528    526    532    534     1  0.0000000  0.6508444  3
    532   1122   1092   1093     1  0.0000000  1.6038667  3
    532   1122   1092   1094     1  0.0000000  1.6038667  3
    533    532   1122   1092     1  0.0000000  1.6038667  3
    534    532   1122   1092     1  0.0000000  1.6038667  3
    535   1154   1124   1125     1  0.0000000  1.6038667  3
    535   1154   1124   1126     1  0.0000000  1.6038667  3
    536    535   1154   1124     1  0.0000000  1.6038667  3
    537    535   1154   1124     1  0.0000000  1.6038667  3
    540    541    553    554     1  0.0000000  0.6508444  3
    540    541    553    555     1  0.0000000  0.6508444  3
    540    544    556    557     1  0.0000000  0.6508444  3
    540    544    556    558     1  0.0000000  0.6508444  3
    540    547    550    551     1  0.0000000  0.6508444  3
    540    547    550    552     1  0.0000000  0.6508444  3
    541    540    544    545     1  0.0000000  0.6508444  3
    541    540    544    546     1  0.0000000  0.6508444  3
    541    540    547    548     1  0.0000000  0.6508444  3
    541    540    547    549     1  0.0000000  0.6508444  3
    541    553    565    566     1  0.0000000  0.6508444  3
    541    553    565    567     1  0.0000000  0.6508444  3
    542    541    540    544     1  0.0000000  0.6508444  3
    542    541    540    547     1  0.0000000  0.6508444  3
    542    541    540    569     1  0.0000000  0.6508444  3
    542    541    553    565     1  0.0000000  0.6508444  3
    542    541    553    554     1  0.0000000  0.6508444  3
    542    541    553    555     1  0.0000000  0.6508444  3
    543    541    540    544     1  0.0000000  0.6508444  3
    543    541    540    547     1  0.0000000  0.6508444  3
    543    541    540    569     1  0.0000000  0.6508444  3
    543    541    553    565     1  0.0000000  0.6508444  3
    543    541    553    554     1  0.0000000  0.6508444  3
    543    541    553    555     1  0.0000000  0.6508444  3
    544    540    547    548     1  0.0000000  0.6508444  3
    544    540    547    549     1  0.0000000  0.6508444  3
    544    556    562    563     1  0.0000000  0.6508444  3
    544    556    562    564     1  0.0000000  0.6508444  3
    545    544    540    547     1  0.0000000  0.6508444  3
    545    544    540    569     1  0.0000000  0.6508444  3
    545    544    556    562     1  0.0000000  0.6508444  3
    545    544    556    557     1  0.0000000  0.6508444  3
    545    544    556    558     1  0.0000000  0.6508444  3
    546    544    540    547     1  0.0000000  0.6508444  3
    546    544    540    569     1  0.0000000  0.6508444  3
    546    544    556    562     1  0.0000000  0.6508444  3
    546    544    556    557     1  0.0000000  0.6508444  3
    546    544    556    558     1  0.0000000  0.6508444  3
    547    550    559    560     1  0.0000000  0.6508444  3
    547    550    559    561     1  0.0000000  0.6508444  3
    548    547    540    569     1  0.0000000  0.6508444  3
    548    547    550    559     1  0.0000000  0.6508444  3
    548    547    550    551     1  0.0000000  0.6508444  3
    548    547    550    552     1  0.0000000  0.6508444  3
    549    547    540    569     1  0.0000000  0.6508444  3
    549    547    550    559     1  0.0000000  0.6508444  3
    549    547    550    551     1  0.0000000  0.6508444  3
    549    547    550    552     1  0.0000000  0.6508444  3
    550    547    540    569     1  0.0000000  0.6508444  3
    551    550    559    568     1  0.0000000  1.0460000  1
    551    550    559    568     1  0.0000000  0.0000000  3
    551    550    559    560     1  0.0000000  0.6508444  3
    551    550    559    561     1  0.0000000  0.6508444  3
    552    550    559    568     1  0.0000000  1.0460000  1
    552    550    559    568     1  0.0000000  0.0000000  3
    552    550    559    560     1  0.0000000  0.6508444  3
    552    550    559    561     1  0.0000000  0.6508444  3
    553    541    540    569     1  0.0000000  0.6508444  3
    554    553    565   1218     1  0.0000000  1.0460000  1
    554    553    565   1218     1  0.0000000  0.0000000  3
    554    553    565    566     1  0.0000000  0.6508444  3
    554    553    565    567     1  0.0000000  0.6508444  3
    555    553    565   1218     1  0.0000000  1.0460000  1
    555    553    565   1218     1  0.0000000  0.0000000  3
    555    553    565    566     1  0.0000000  0.6508444  3
    555    553    565    567     1  0.0000000  0.6508444  3
    556    544    540    569     1  0.0000000  0.6508444  3
    557    556    562   1186     1  0.0000000  1.0460000  1
    557    556    562   1186     1  0.0000000  0.0000000  3
    557    556    562    563     1  0.0000000  0.6508444  3
    557    556    562    564     1  0.0000000  0.6508444  3
    558    556    562   1186     1  0.0000000  1.0460000  1
    558    556    562   1186     1  0.0000000  0.0000000  3
    558    556    562    563     1  0.0000000  0.6508444  3
    558    556    562    564     1  0.0000000  0.6508444  3
    562   1186   1156   1157     1  0.0000000  1.6038667  3
    562   1186   1156   1158     1  0.0000000  1.6038667  3
    563    562   1186   1156     1  0.0000000  1.6038667  3
    564    562   1186   1156     1  0.0000000  1.6038667  3
    565   1218   1188   1189     1  0.0000000  1.6038667  3
    565   1218   1188   1190     1  0.0000000  1.6038667  3
    566    565   1218   1188     1  0.0000000  1.6038667  3
    567    565   1218   1188     1  0.0000000  1.6038667  3
    570    571    583    584     1  0.0000000  0.6508444  3
    570    571    583    585     1  0.0000000  0.6508444  3
    570    574    586    587     1  0.0000000  0.6508444  3
    570    574    586    588     1  0.0000000  0.6508444  3
    570    577    580    581     1  0.0000000  0.6508444  3
    570    577    580    582     1  0.0000000  0.6508444  3
    571    570    574    575     1  0.0000000  0.6508444  3
    571    570    574    576     1  0.0000000  0.6508444  3
    571    570    577    578     1  0.0000000  0.6508444  3
    571    570    577    579     1  0.0000000  0.6508444  3
    571    583    595    596     1  0.0000000  0.6508444  3
    571    583    595    597     1  0.0000000  0.6508444  3
    572    571    570    574     1  0.0000000  0.6508444  3
    572    571    570    577     1  0.0000000  0.6508444  3
    572    571    570    599     1  0.0000000  0.6508444  3
    572    571    583    595     1  0.0000000  0.6508444  3
    572    571    583    584     1  0.0000000  0.6508444  3
    572    571    583    585     1  0.0000000  0.6508444  3
    573    571    570    574     1  0.0000000  0.6508444  3
    573    571    570    577     1  0.0000000  0.6508444  3
    573    571    570    599     1  0.0000000  0.6508444  3
    573    571    583    595     1  0.0000000  0.6508444  3
    573    571    583    584     1  0.0000000  0.6508444  3
    573    571    583    585     1  0.0000000  0.6508444  3
    574    570    577    578     1  0.0000000  0.6508444  3
    574    570    577    579     1  0.0000000  0.6508444  3
    574    586    592    593     1  0.0000000  0.6508444  3
    574    586    592    594     1  0.0000000  0.6508444  3
    575    574    570    577     1  0.0000000  0.6508444  3
    575    574    570    599     1  0.0000000  0.6508444  3
    575    574    586    592     1  0.0000000  0.6508444  3
    575    574    586    587     1  0.0000000  0.6508444  3
    575    574    586    588     1  0.0000000  0.6508444  3
    576    574    570    577     1  0.0000000  0.6508444  3
    576    574    570    599     1  0.0000000  0.6508444  3
    576    574    586    592     1  0.0000000  0.6508444  3
    576    574    586    587     1  0.0000000  0.6508444  3
    576    574    586    588     1  0.0000000  0.6508444  3
    577    580    589    590     1  0.0000000  0.6508444  3
    577    580    589    591     1  0.0000000  0.6508444  3
    578    577    570    599     1  0.0000000  0.6508444  3
    578    577    580    589     1  0.0000000  0.6508444  3
    578    577    580    581     1  0.0000000  0.6508444  3
    578    577    580    582     1  0.0000000  0.6508444  3
    579    577    570    599     1  0.0000000  0.6508444  3
    579    577    580    589     1  0.0000000  0.6508444  3
    579    577    580    581     1  0.0000000  0.6508444  3
    579    577    580    582     1  0.0000000  0.6508444  3
    580    577    570    599     1  0.0000000  0.6508444  3
    581    580    589    598     1  0.0000000  1.0460000  1
    581    580    589    598     1  0.0000000  0.0000000  3
    581    580    589    590     1  0.0000000  0.6508444  3
    581    580    589    591     1  0.0000000  0.6508444  3
    582    580    589    598     1  0.0000000  1.0460000  1
    582    580    589    598     1  0.0000000  0.0000000  3
    582    580    589    590     1  0.0000000  0.6508444  3
    582    580    589    591     1  0.0000000  0.6508444  3
    583    571    570    599     1  0.0000000  0.6508444  3
    584    583    595   1282     1  0.0000000  1.0460000  1
    584    583    595   1282     1  0.0000000  0.0000000  3
    584    583    595    596     1  0.0000000  0.6508444  3
    584    583    595    597     1  0.0000000  0.6508444  3
    585    583    595   1282     1  0.0000000  1.0460000  1
    585    583    595   1282     1  0.0000000  0.0000000  3
    585    583    595    596     1  0.0000000  0.6508444  3
    585    583    595    597     1  0.0000000  0.6508444  3
    586    574    570    599     1  0.0000000  0.6508444  3
    587    586    592   1250     1  0.0000000  1.0460000  1
    587    586    592   1250     1  0.0000000  0.0000000  3
    587    586    592    593     1  0.0000000  0.6508444  3
    587    586    592    594     1  0.0000000  0.6508444  3
    588    586    592   1250     1  0.0000000  1.0460000  1
    588    586    592   1250     1  0.0000000  0.0000000  3
    588    586    592    593     1  0.0000000  0.6508444  3
    588    586    592    594     1  0.0000000  0.6508444  3
    592   1250   1220   1221     1  0.0000000  1.6038667  3
    592   1250   1220   1222     1  0.0000000  1.6038667  3
    593    592   1250   1220     1  0.0000000  1.6038667  3
    594    592   1250   1220     1  0.0000000  1.6038667  3
    595   1282   1252   1253     1  0.0000000  1.6038667  3
    595   1282   1252   1254     1  0.0000000  1.6038667  3
    596    595   1282   1252     1  0.0000000  1.6038667  3
    597    595   1282   1252     1  0.0000000  1.6038667  3
    600    601    613    614     1  0.0000000  0.6508444  3
    600    601    613    615     1  0.0000000  0.6508444  3
    600    604    616    617     1  0.0000000  0.6508444  3
    600    604    616    618     1  0.0000000  0.6508444  3
    600    607    610    611     1  0.0000000  0.6508444  3
    600    607    610    612     1  0.0000000  0.6508444  3
    601    600    604    605     1  0.0000000  0.6508444  3
    601    600    604    606     1  0.0000000  0.6508444  3
    601    600    607    608     1  0.0000000  0.6508444  3
    601    600    607    609     1  0.0000000  0.6508444  3
    601    613    625    626     1  0.0000000  0.6508444  3
    601    613    625    627     1  0.0000000  0.6508444  3
    602    601    600    604     1  0.0000000  0.6508444  3
    602    601    600    607     1  0.0000000  0.6508444  3
    602    601    600    629     1  0.0000000  0.6508444  3
    602    601    613    625     1  0.0000000  0.6508444  3
    602    601    613    614     1  0.0000000  0.6508444  3
    602    601    613    615     1  0.0000000  0.6508444  3
    603    601    600    604     1  0.0000000  0.6508444  3
    603    601    600    607     1  0.0000000  0.6508444  3
    603    601    600    629     1  0.0000000  0.6508444  3
    603    601    613    625     1  0.0000000  0.6508444  3
    603    601    613    614     1  0.0000000  0.6508444  3
    603    601    613    615     1  0.0000000  0.6508444  3
    604    600    607    608     1  0.0000000  0.6508444  3
    604    600    607    609     1  0.0000000  0.6508444  3
    604    616    622    623     1  0.0000000  0.6508444  3
    604    616    622    624     1  0.0000000  0.6508444  3
    605    604    600    607     1  0.0000000  0.6508444  3
    605    604    600    629     1  0.0000000  0.6508444  3
    605    604    616    622     1  0.0000000  0.6508444  3
    605    604    616    617     1  0.0000000  0.6508444  3
    605    604    616    618     1  0.0000000  0.6508444  3
    606    604    600    607     1  0.0000000  0.6508444  3
    606    604    600    629     1  0.0000000  0.6508444  3
    606    604    616    622     1  0.0000000  0.6508444  3
    606    604    616    617     1  0.0000000  0.6508444  3
    606    604    616    618     1  0.0000000  0.6508444  3
    607    610    619    620     1  0.0000000  0.6508444  3
    607    610    619    621     1  0.0000000  0.6508444  3
    608    607    600    629     1  0.0000000  0.6508444  3
    608    607    610    619     1  0.0000000  0.6508444  3
    608    607    610    611     1  0.0000000  0.6508444  3
    608    607    610    612     1  0.0000000  0.6508444  3
    609    607    600    629     1  0.0000000  0.6508444  3
    609    607    610    619     1  0.0000000  0.6508444  3
    609    607    610    611     1  0.0000000  0.6508444  3
    609    607    610    612     1  0.0000000  0.6508444  3
    610    607    600    629     1  0.0000000  0.6508444  3
    611    610    619    628     1  0.0000000  1.0460000  1
    611    610    619    628     1  0.0000000  0.0000000  3
    611    610    619    620     1  0.0000000  0.6508444  3
    611    610    619    621     1  0.0000000  0.6508444  3
    612    610    619    628     1  0.0000000  1.0460000  1
    612    610    619    628     1  0.0000000  0.0000000  3
    612    610    619    620     1  0.0000000  0.6508444  3
    612    610    619    621     1  0.0000000  0.6508444  3
    613    601    600    629     1  0.0000000  0.6508444  3
    614    613    625   1346     1  0.0000000  1.0460000  1
    614    613    625   1346     1  0.0000000  0.0000000  3
    614    613    625    626     1  0.0000000  0.6508444  3
    614    613    625    627     1  0.0000000  0.6508444  3
    615    613    625   1346     1  0.0000000  1.0460000  1
    615    613    625   1346     1  0.0000000  0.0000000  3
    615    613    625    626     1  0.0000000  0.6508444  3
    615    613    625    627     1  0.0000000  0.6508444  3
    616    604    600    629     1  0.0000000  0.6508444  3
    617    616    622   1314     1  0.0000000  1.0460000  1
    617    616    622   1314     1  0.0000000  0.0000000  3
    617    616    622    623     1  0.0000000  0.6508444  3
    617    616    622    624     1  0.0000000  0.6508444  3
    618    616    622   1314     1  0.0000000  1.0460000  1
    618    616    622   1314     1  0.0000000  0.0000000  3
    618    616    622    623     1  0.0000000  0.6508444  3
    618    616    622    624     1  0.0000000  0.6508444  3
    622   1314   1284   1285     1  0.0000000  1.6038667  3
    622   1314   1284   1286     1  0.0000000  1.6038667  3
    623    622   1314   1284     1  0.0000000  1.6038667  3
    624    622   1314   1284     1  0.0000000  1.6038667  3
    625   1346   1316   1317     1  0.0000000  1.6038667  3
    625   1346   1316   1318     1  0.0000000  1.6038667  3
    626    625   1346   1316     1  0.0000000  1.6038667  3
    627    625   1346   1316     1  0.0000000  1.6038667  3
    630    631    643    644     1  0.0000000  0.6508444  3
    630    631    643    645     1  0.0000000  0.6508444  3
    630    634    646    647     1  0.0000000  0.6508444  3
    630    634    646    648     1  0.0000000  0.6508444  3
    630    637    640    641     1  0.0000000  0.6508444  3
    630    637    640    642     1  0.0000000  0.6508444  3
    631    630    634    635     1  0.0000000  0.6508444  3
    631    630    634    636     1  0.0000000  0.6508444  3
    631    630    637    638     1  0.0000000  0.6508444  3
    631    630    637    639     1  0.0000000  0.6508444  3
    631    643    655    656     1  0.0000000  0.6508444  3
    631    643    655    657     1  0.0000000  0.6508444  3
    632    631    630    634     1  0.0000000  0.6508444  3
    632    631    630    637     1  0.0000000  0.6508444  3
    632    631    630    659     1  0.0000000  0.6508444  3
    632    631    643    655     1  0.0000000  0.6508444  3
    632    631    643    644     1  0.0000000  0.6508444  3
    632    631    643    645     1  0.0000000  0.6508444  3
    633    631    630    634     1  0.0000000  0.6508444  3
    633    631    630    637     1  0.0000000  0.6508444  3
    633    631    630    659     1  0.0000000  0.6508444  3
    633    631    643    655     1  0.0000000  0.6508444  3
    633    631    643    644     1  0.0000000  0.6508444  3
    633    631    643    645     1  0.0000000  0.6508444  3
    634    630    637    638     1  0.0000000  0.6508444  3
    634    630    637    639     1  0.0000000  0.6508444  3
    634    646    652    653     1  0.0000000  0.6508444  3
    634    646    652    654     1  0.0000000  0.6508444  3
    635    634    630    637     1  0.0000000  0.6508444  3
    635    634    630    659     1  0.0000000  0.6508444  3
    635    634    646    652     1  0.0000000  0.6508444  3
    635    634    646    647     1  0.0000000  0.6508444  3
    635    634    646    648     1  0.0000000  0.6508444  3
    636    634    630    637     1  0.0000000  0.6508444  3
    636    634    630    659     1  0.0000000  0.6508444  3
    636    634    646    652     1  0.0000000  0.6508444  3
    636    634    646    647     1  0.0000000  0.6508444  3
    636    634    646    648     1  0.0000000  0.6508444  3
    637    640    649    650     1  0.0000000  0.6508444  3
    637    640    649    651     1  0.0000000  0.6508444  3
    638    637    630    659     1  0.0000000  0.6508444  3
    638    637    640    649     1  0.0000000  0.6508444  3
    638    637    640    641     1  0.0000000  0.6508444  3
    638    637    640    642     1  0.0000000  0.6508444  3
    639    637    630    659     1  0.0000000  0.6508444  3
    639    637    640    649     1  0.0000000  0.6508444  3
    639    637    640    641     1  0.0000000  0.6508444  3
    639    637    640    642     1  0.0000000  0.6508444  3
    640    637    630    659     1  0.0000000  0.6508444  3
    641    640    649    658     1  0.0000000  1.0460000  1
    641    640    649    658     1  0.0000000  0.0000000  3
    641    640    649    650     1  0.0000000  0.6508444  3
    641    640    649    651     1  0.0000000  0.6508444  3
    642    640    649    658     1  0.0000000  1.0460000  1
    642    640    649    658     1  0.0000000  0.0000000  3
    642    640    649    650     1  0.0000000  0.6508444  3
    642    640    649    651     1  0.0000000  0.6508444  3
    643    631    630    659     1  0.0000000  0.6508444  3
    644    643    655   1410     1  0.0000000  1.0460000  1
    644    643    655   1410     1  0.0000000  0.0000000  3
    644    643    655    656     1  0.0000000  0.6508444  3
    644    643    655    657     1  0.0000000  0.6508444  3
    645    643    655   1410     1  0.0000000  1.0460000  1
    645    643    655   1410     1  0.0000000  0.0000000  3
    645    643    655    656     1  0.0000000  0.6508444  3
    645    643    655    657     1  0.0000000  0.6508444  3
    646    634    630    659     1  0.0000000  0.6508444  3
    647    646    652   1378     1  0.0000000  1.0460000  1
    647    646    652   1378     1  0.0000000  0.0000000  3
    647    646    652    653     1  0.0000000  0.6508444  3
    647    646    652    654     1  0.0000000  0.6508444  3
    648    646    652   1378     1  0.0000000  1.0460000  1
    648    646    652   1378     1  0.0000000  0.0000000  3
    648    646    652    653     1  0.0000000  0.6508444  3
    648    646    652    654     1  0.0000000  0.6508444  3
    652   1378   1348   1349     1  0.0000000  1.6038667  3
    652   1378   1348   1350     1  0.0000000  1.6038667  3
    653    652   1378   1348     1  0.0000000  1.6038667  3
    654    652   1378   1348     1  0.0000000  1.6038667  3
    655   1410   1380   1381     1  0.0000000  1.6038667  3
    655   1410   1380   1382     1  0.0000000  1.6038667  3
    656    655   1410   1380     1  0.0000000  1.6038667  3
    657    655   1410   1380     1  0.0000000  1.6038667  3
    660    661    673    674     1  0.0000000  0.6508444  3
    660    661    673    675     1  0.0000000  0.6508444  3
    660    664    676    677     1  0.0000000  0.6508444  3
    660    664    676    678     1  0.0000000  0.6508444  3
    660    667    670    671     1  0.0000000  0.6508444  3
    660    667    670    672     1  0.0000000  0.6508444  3
    661    660    664    665     1  0.0000000  0.6508444  3
    661    660    664    666     1  0.0000000  0.6508444  3
    661    660    667    668     1  0.0000000  0.6508444  3
    661    660    667    669     1  0.0000000  0.6508444  3
    661    673    685    686     1  0.0000000  0.6508444  3
    661    673    685    687     1  0.0000000  0.6508444  3
    662    661    660    664     1  0.0000000  0.6508444  3
    662    661    660    667     1  0.0000000  0.6508444  3
    662    661    660    689     1  0.0000000  0.6508444  3
    662    661    673    685     1  0.0000000  0.6508444  3
    662    661    673    674     1  0.0000000  0.6508444  3
    662    661    673    675     1  0.0000000  0.6508444  3
    663    661    660    664     1  0.0000000  0.6508444  3
    663    661    660    667     1  0.0000000  0.6508444  3
    663    661    660    689     1  0.0000000  0.6508444  3
    663    661    673    685     1  0.0000000  0.6508444  3
    663    661    673    674     1  0.0000000  0.6508444  3
    663    661    673    675     1  0.0000000  0.6508444  3
    664    660    667    668     1  0.0000000  0.6508444  3
    664    660    667    669     1  0.0000000  0.6508444  3
    664    676    682    683     1  0.0000000  0.6508444  3
    664    676    682    684     1  0.0000000  0.6508444  3
    665    664    660    667     1  0.0000000  0.6508444  3
    665    664    660    689     1  0.0000000  0.6508444  3
    665    664    676    682     1  0.0000000  0.6508444  3
    665    664    676    677     1  0.0000000  0.6508444  3
    665    664    676    678     1  0.0000000  0.6508444  3
    666    664    660    667     1  0.0000000  0.6508444  3
    666    664    660    689     1  0.0000000  0.6508444  3
    666    664    676    682     1  0.0000000  0.6508444  3
    666    664    676    677     1  0.0000000  0.6508444  3
    666    664    676    678     1  0.0000000  0.6508444  3
    667    670    679    680     1  0.0000000  0.6508444  3
    667    670    679    681     1  0.0000000  0.6508444  3
    668    667    660    689     1  0.0000000  0.6508444  3
    668    667    670    679     1  0.0000000  0.6508444  3
    668    667    670    671     1  0.0000000  0.6508444  3
    668    667    670    672     1  0.0000000  0.6508444  3
    669    667    660    689     1  0.0000000  0.6508444  3
    669    667    670    679     1  0.0000000  0.6508444  3
    669    667    670    671     1  0.0000000  0.6508444  3
    669    667    670    672     1  0.0000000  0.6508444  3
    670    667    660    689     1  0.0000000  0.6508444  3
    671    670    679    688     1  0.0000000  1.0460000  1
    671    670    679    688     1  0.0000000  0.0000000  3
    671    670    679    680     1  0.0000000  0.6508444  3
    671    670    679    681     1  0.0000000  0.6508444  3
    672    670    679    688     1  0.0000000  1.0460000  1
    672    670    679    688     1  0.0000000  0.0000000  3
    672    670    679    680     1  0.0000000  0.6508444  3
    672    670    679    681     1  0.0000000  0.6508444  3
    673    661    660    689     1  0.0000000  0.6508444  3
    674    673    685   1474     1  0.0000000  1.0460000  1
    674    673    685   1474     1  0.0000000  0.0000000  3
    674    673    685    686     1  0.0000000  0.6508444  3
    674    673    685    687     1  0.0000000  0.6508444  3
    675    673    685   1474     1  0.0000000  1.0460000  1
    675    673    685   1474     1  0.0000000  0.0000000  3
    675    673    685    686     1  0.0000000  0.6508444  3
    675    673    685    687     1  0.0000000  0.6508444  3
    676    664    660    689     1  0.0000000  0.6508444  3
    677    676    682   1442     1  0.0000000  1.0460000  1
    677    676    682   1442     1  0.0000000  0.0000000  3
    677    676    682    683     1  0.0000000  0.6508444  3
    677    676    682    684     1  0.0000000  0.6508444  3
    678    676    682   1442     1  0.0000000  1.0460000  1
    678    676    682   1442     1  0.0000000  0.0000000  3
    678    676    682    683     1  0.0000000  0.6508444  3
    678    676    682    684     1  0.0000000  0.6508444  3
    682   1442   1412   1413     1  0.0000000  1.6038667  3
    682   1442   1412   1414     1  0.0000000  1.6038667  3
    683    682   1442   1412     1  0.0000000  1.6038667  3
    684    682   1442   1412     1  0.0000000  1.6038667  3
    685   1474   1444   1445     1  0.0000000  1.6038667  3
    685   1474   1444   1446     1  0.0000000  1.6038667  3
    686    685   1474   1444     1  0.0000000  1.6038667  3
    687    685   1474   1444     1  0.0000000  1.6038667  3
    690    691    703    704     1  0.0000000  0.6508444  3
    690    691    703    705     1  0.0000000  0.6508444  3
    690    694    706    707     1  0.0000000  0.6508444  3
    690    694    706    708     1  0.0000000  0.6508444  3
    690    697    700    701     1  0.0000000  0.6508444  3
    690    697    700    702     1  0.0000000  0.6508444  3
    691    690    694    695     1  0.0000000  0.6508444  3
    691    690    694    696     1  0.0000000  0.6508444  3
    691    690    697    698     1  0.0000000  0.6508444  3
    691    690    697    699     1  0.0000000  0.6508444  3
    691    703    715    716     1  0.0000000  0.6508444  3
    691    703    715    717     1  0.0000000  0.6508444  3
    692    691    690    694     1  0.0000000  0.6508444  3
    692    691    690    697     1  0.0000000  0.6508444  3
    692    691    690    719     1  0.0000000  0.6508444  3
    692    691    703    715     1  0.0000000  0.6508444  3
    692    691    703    704     1  0.0000000  0.6508444  3
    692    691    703    705     1  0.0000000  0.6508444  3
    693    691    690    694     1  0.0000000  0.6508444  3
    693    691    690    697     1  0.0000000  0.6508444  3
    693    691    690    719     1  0.0000000  0.6508444  3
    693    691    703    715     1  0.0000000  0.6508444  3
    693    691    703    704     1  0.0000000  0.6508444  3
    693    691    703    705     1  0.0000000  0.6508444  3
    694    690    697    698     1  0.0000000  0.6508444  3
    694    690    697    699     1  0.0000000  0.6508444  3
    694    706    712    713     1  0.0000000  0.6508444  3
    694    706    712    714     1  0.0000000  0.6508444  3
    695    694    690    697     1  0.0000000  0.6508444  3
    695    694    690    719     1  0.0000000  0.6508444  3
    695    694    706    712     1  0.0000000  0.6508444  3
    695    694    706    707     1  0.0000000  0.6508444  3
    695    694    706    708     1  0.0000000  0.6508444  3
    696    694    690    697     1  0.0000000  0.6508444  3
    696    694    690    719     1  0.0000000  0.6508444  3
    696    694    706    712     1  0.0000000  0.6508444  3
    696    694    706    707     1  0.0000000  0.6508444  3
    696    694    706    708     1  0.0000000  0.6508444  3
    697    700    709    710     1  0.0000000  0.6508444  3
    697    700    709    711     1  0.0000000  0.6508444  3
    698    697    690    719     1  0.0000000  0.6508444  3
    698    697    700    709     1  0.0000000  0.6508444  3
    698    697    700    701     1  0.0000000  0.6508444  3
    698    697    700    702     1  0.0000000  0.6508444  3
    699    697    690    719     1  0.0000000  0.6508444  3
    699    697    700    709     1  0.0000000  0.6508444  3
    699    697    700    701     1  0.0000000  0.6508444  3
    699    697    700    702     1  0.0000000  0.6508444  3
    700    697    690    719     1  0.0000000  0.6508444  3
    701    700    709    718     1  0.0000000  1.0460000  1
    701    700    709    718     1  0.0000000  0.0000000  3
    701    700    709    710     1  0.0000000  0.6508444  3
    701    700    709    711     1  0.0000000  0.6508444  3
    702    700    709    718     1  0.0000000  1.0460000  1
    702    700    709    718     1  0.0000000  0.0000000  3
    702    700    709    710     1  0.0000000  0.6508444  3
    702    700    709    711     1  0.0000000  0.6508444  3
    703    691    690    719     1  0.0000000  0.6508444  3
    704    703    715   1538     1  0.0000000  1.0460000  1
    704    703    715   1538     1  0.0000000  0.0000000  3
    704    703    715    716     1  0.0000000  0.6508444  3
    704    703    715    717     1  0.0000000  0.6508444  3
    705    703    715   1538     1  0.0000000  1.0460000  1
    705    703    715   1538     1  0.0000000  0.0000000  3
    705    703    715    716     1  0.0000000  0.6508444  3
    705    703    715    717     1  0.0000000  0.6508444  3
    706    694    690    719     1  0.0000000  0.6508444  3
    707    706    712   1506     1  0.0000000  1.0460000  1
    707    706    712   1506     1  0.0000000  0.0000000  3
    707    706    712    713     1  0.0000000  0.6508444  3
    707    706    712    714     1  0.0000000  0.6508444  3
    708    706    712   1506     1  0.0000000  1.0460000  1
    708    706    712   1506     1  0.0000000  0.0000000  3
    708    706    712    713     1  0.0000000  0.6508444  3
    708    706    712    714     1  0.0000000  0.6508444  3
    712   1506   1476   1477     1  0.0000000  1.6038667  3
    712   1506   1476   1478     1  0.0000000  1.6038667  3
    713    712   1506   1476     1  0.0000000  1.6038667  3
    714    712   1506   1476     1  0.0000000  1.6038667  3
    715   1538   1508   1509     1  0.0000000  1.6038667  3
    715   1538   1508   1510     1  0.0000000  1.6038667  3
    716    715   1538   1508     1  0.0000000  1.6038667  3
    717    715   1538   1508     1  0.0000000  1.6038667  3
    720    721    733    734     1  0.0000000  0.6508444  3
    720    721    733    735     1  0.0000000  0.6508444  3
    720    724    736    737     1  0.0000000  0.6508444  3
    720    724    736    738     1  0.0000000  0.6508444  3
    720    727    730    731     1  0.0000000  0.6508444  3
    720    727    730    732     1  0.0000000  0.6508444  3
    721    720    724    725     1  0.0000000  0.6508444  3
    721    720    724    726     1  0.0000000  0.6508444  3
    721    720    727    728     1  0.0000000  0.6508444  3
    721    720    727    729     1  0.0000000  0.6508444  3
    721    733    745    746     1  0.0000000  0.6508444  3
    721    733    745    747     1  0.0000000  0.6508444  3
    722    721    720    724     1  0.0000000  0.6508444  3
    722    721    720    727     1  0.0000000  0.6508444  3
    722    721    720    749     1  0.0000000  0.6508444  3
    722    721    733    745     1  0.0000000  0.6508444  3
    722    721    733    734     1  0.0000000  0.6508444  3
    722    721    733    735     1  0.0000000  0.6508444  3
    723    721    720    724     1  0.0000000  0.6508444  3
    723    721    720    727     1  0.0000000  0.6508444  3
    723    721    720    749     1  0.0000000  0.6508444  3
    723    721    733    745     1  0.0000000  0.6508444  3
    723    721    733    734     1  0.0000000  0.6508444  3
    723    721    733    735     1  0.0000000  0.6508444  3
    724    720    727    728     1  0.0000000  0.6508444  3
    724    720    727    729     1  0.0000000  0.6508444  3
    724    736    742    743     1  0.0000000  0.6508444  3
    724    736    742    744     1  0.0000000  0.6508444  3
    725    724    720    727     1  0.0000000  0.6508444  3
    725    724    720    749     1  0.0000000  0.6508444  3
    725    724    736    742     1  0.0000000  0.6508444  3
    725    724    736    737     1  0.0000000  0.6508444  3
    725    724    736    738     1  0.0000000  0.6508444  3
    726    724    720    727     1  0.0000000  0.6508444  3
    726    724    720    749     1  0.0000000  0.6508444  3
    726    724    736    742     1  0.0000000  0.6508444  3
    726    724    736    737     1  0.0000000  0.6508444  3
    726    724    736    738     1  0.0000000  0.6508444  3
    727    730    739    740     1  0.0000000  0.6508444  3
    727    730    739    741     1  0.0000000  0.6508444  3
    728    727    720    749     1  0.0000000  0.6508444  3
    728    727    730    739     1  0.0000000  0.6508444  3
    728    727    730    731     1  0.0000000  0.6508444  3
    728    727    730    732     1  0.0000000  0.6508444  3
    729    727    720    749     1  0.0000000  0.6508444  3
    729    727    730    739     1  0.0000000  0.6508444  3
    729    727    730    731     1  0.0000000  0.6508444  3
    729    727    730    732     1  0.0000000  0.6508444  3
    730    727    720    749     1  0.0000000  0.6508444  3
    731    730    739    748     1  0.0000000  1.0460000  1
    731    730    739    748     1  0.0000000  0.0000000  3
    731    730    739    740     1  0.0000000  0.6508444  3
    731    730    739    741     1  0.0000000  0.6508444  3
    732    730    739    748     1  0.0000000  1.0460000  1
    732    730    739    748     1  0.0000000  0.0000000  3
    732    730    739    740     1  0.0000000  0.6508444  3
    732    730    739    741     1  0.0000000  0.6508444  3
    733    721    720    749     1  0.0000000  0.6508444  3
    734    733    745   1602     1  0.0000000  1.0460000  1
    734    733    745   1602     1  0.0000000  0.0000000  3
    734    733    745    746     1  0.0000000  0.6508444  3
    734    733    745    747     1  0.0000000  0.6508444  3
    735    733    745   1602     1  0.0000000  1.0460000  1
    735    733    745   1602     1  0.0000000  0.0000000  3
    735    733    745    746     1  0.0000000  0.6508444  3
    735    733    745    747     1  0.0000000  0.6508444  3
    736    724    720    749     1  0.0000000  0.6508444  3
    737    736    742   1570     1  0.0000000  1.0460000  1
    737    736    742   1570     1  0.0000000  0.0000000  3
    737    736    742    743     1  0.0000000  0.6508444  3
    737    736    742    744     1  0.0000000  0.6508444  3
    738    736    742   1570     1  0.0000000  1.0460000  1
    738    736    742   1570     1  0.0000000  0.0000000  3
    738    736    742    743     1  0.0000000  0.6508444  3
    738    736    742    744     1  0.0000000  0.6508444  3
    742   1570   1540   1541     1  0.0000000  1.6038667  3
    742   1570   1540   1542     1  0.0000000  1.6038667  3
    743    742   1570   1540     1  0.0000000  1.6038667  3
    744    742   1570   1540     1  0.0000000  1.6038667  3
    745   1602   1572   1573     1  0.0000000  1.6038667  3
    745   1602   1572   1574     1  0.0000000  1.6038667  3
    746    745   1602   1572     1  0.0000000  1.6038667  3
    747    745   1602   1572     1  0.0000000  1.6038667  3
    750    751    763    764     1  0.0000000  0.6508444  3
    750    751    763    765     1  0.0000000  0.6508444  3
    750    754    766    767     1  0.0000000  0.6508444  3
    750    754    766    768     1  0.0000000  0.6508444  3
    750    757    760    761     1  0.0000000  0.6508444  3
    750    757    760    762     1  0.0000000  0.6508444  3
    751    750    754    755     1  0.0000000  0.6508444  3
    751    750    754    756     1  0.0000000  0.6508444  3
    751    750    757    758     1  0.0000000  0.6508444  3
    751    750    757    759     1  0.0000000  0.6508444  3
    751    763    775    776     1  0.0000000  0.6508444  3
    751    763    775    777     1  0.0000000  0.6508444  3
    752    751    750    754     1  0.0000000  0.6508444  3
    752    751    750    757     1  0.0000000  0.6508444  3
    752    751    750    779     1  0.0000000  0.6508444  3
    752    751    763    775     1  0.0000000  0.6508444  3
    752    751    763    764     1  0.0000000  0.6508444  3
    752    751    763    765     1  0.0000000  0.6508444  3
    753    751    750    754     1  0.0000000  0.6508444  3
    753    751    750    757     1  0.0000000  0.6508444  3
    753    751    750    779     1  0.0000000  0.6508444  3
    753    751    763    775     1  0.0000000  0.6508444  3
    753    751    763    764     1  0.0000000  0.6508444  3
    753    751    763    765     1  0.0000000  0.6508444  3
    754    750    757    758     1  0.0000000  0.6508444  3
    754    750    757    759     1  0.0000000  0.6508444  3
    754    766    772    773     1  0.0000000  0.6508444  3
    754    766    772    774     1  0.0000000  0.6508444  3
    755    754    750    757     1  0.0000000  0.6508444  3
    755    754    750    779     1  0.0000000  0.6508444  3
    755    754    766    772     1  0.0000000  0.6508444  3
    755    754    766    767     1  0.0000000  0.6508444  3
    755    754    766    768     1  0.0000000  0.6508444  3
    756    754    750    757     1  0.0000000  0.6508444  3
    756    754    750    779     1  0.0000000  0.6508444  3
    756    754    766    772     1  0.0000000  0.6508444  3
    756    754    766    767     1  0.0000000  0.6508444  3
    756    754    766    768     1  0.0000000  0.6508444  3
    757    760    769    770     1  0.0000000  0.6508444  3
    757    760    769    771     1  0.0000000  0.6508444  3
    758    757    750    779     1  0.0000000  0.6508444  3
    758    757    760    769     1  0.0000000  0.6508444  3
    758    757    760    761     1  0.0000000  0.6508444  3
    758    757    760    762     1  0.0000000  0.6508444  3
    759    757    750    779     1  0.0000000  0.6508444  3
    759    757    760    769     1  0.0000000  0.6508444  3
    759    757    760    761     1  0.0000000  0.6508444  3
    759    757    760    762     1  0.0000000  0.6508444  3
    760    757    750    779     1  0.0000000  0.6508444  3
    761    760    769    778     1  0.0000000  1.0460000  1
    761    760    769    778     1  0.0000000  0.0000000  3
    761    760    769    770     1  0.0000000  0.6508444  3
    761    760    769    771     1  0.0000000  0.6508444  3
    762    760    769    778     1  0.0000000  1.0460000  1
    762    760    769    778     1  0.0000000  0.0000000  3
    762    760    769    770     1  0.0000000  0.6508444  3
    762    760    769    771     1  0.0000000  0.6508444  3
    763    751    750    779     1  0.0000000  0.6508444  3
    764    763    775   1666     1  0.0000000  1.0460000  1
    764    763    775   1666     1  0.0000000  0.0000000  3
    764    763    775    776     1  0.0000000  0.6508444  3
    764    763    775    777     1  0.0000000  0.6508444  3
    765    763    775   1666     1  0.0000000  1.0460000  1
    765    763    775   1666     1  0.0000000  0.0000000  3
    765    763    775    776     1  0.0000000  0.6508444  3
    765    763    775    777     1  0.0000000  0.6508444  3
    766    754    750    779     1  0.0000000  0.6508444  3
    767    766    772   1634     1  0.0000000  1.0460000  1
    767    766    772   1634     1  0.0000000  0.0000000  3
    767    766    772    773     1  0.0000000  0.6508444  3
    767    766    772    774     1  0.0000000  0.6508444  3
    768    766    772   1634     1  0.0000000  1.0460000  1
    768    766    772   1634     1  0.0000000  0.0000000  3
    768    766    772    773     1  0.0000000  0.6508444  3
    768    766    772    774     1  0.0000000  0.6508444  3
    772   1634   1604   1605     1  0.0000000  1.6038667  3
    772   1634   1604   1606     1  0.0000000  1.6038667  3
    773    772   1634   1604     1  0.0000000  1.6038667  3
    774    772   1634   1604     1  0.0000000  1.6038667  3
    775   1666   1636   1637     1  0.0000000  1.6038667  3
    775   1666   1636   1638     1  0.0000000  1.6038667  3
    776    775   1666   1636     1  0.0000000  1.6038667  3
    777    775   1666   1636     1  0.0000000  1.6038667  3
    780    781    793    794     1  0.0000000  0.6508444  3
    780    781    793    795     1  0.0000000  0.6508444  3
    780    784    796    797     1  0.0000000  0.6508444  3
    780    784    796    798     1  0.0000000  0.6508444  3
    780    787    790    791     1  0.0000000  0.6508444  3
    780    787    790    792     1  0.0000000  0.6508444  3
    781    780    784    785     1  0.0000000  0.6508444  3
    781    780    784    786     1  0.0000000  0.6508444  3
    781    780    787    788     1  0.0000000  0.6508444  3
    781    780    787    789     1  0.0000000  0.6508444  3
    781    793    805    806     1  0.0000000  0.6508444  3
    781    793    805    807     1  0.0000000  0.6508444  3
    782    781    780    784     1  0.0000000  0.6508444  3
    782    781    780    787     1  0.0000000  0.6508444  3
    782    781    780    809     1  0.0000000  0.6508444  3
    782    781    793    805     1  0.0000000  0.6508444  3
    782    781    793    794     1  0.0000000  0.6508444  3
    782    781    793    795     1  0.0000000  0.6508444  3
    783    781    780    784     1  0.0000000  0.6508444  3
    783    781    780    787     1  0.0000000  0.6508444  3
    783    781    780    809     1  0.0000000  0.6508444  3
    783    781    793    805     1  0.0000000  0.6508444  3
    783    781    793    794     1  0.0000000  0.6508444  3
    783    781    793    795     1  0.0000000  0.6508444  3
    784    780    787    788     1  0.0000000  0.6508444  3
    784    780    787    789     1  0.0000000  0.6508444  3
    784    796    802    803     1  0.0000000  0.6508444  3
    784    796    802    804     1  0.0000000  0.6508444  3
    785    784    780    787     1  0.0000000  0.6508444  3
    785    784    780    809     1  0.0000000  0.6508444  3
    785    784    796    802     1  0.0000000  0.6508444  3
    785    784    796    797     1  0.0000000  0.6508444  3
    785    784    796    798     1  0.0000000  0.6508444  3
    786    784    780    787     1  0.0000000  0.6508444  3
    786    784    780    809     1  0.0000000  0.6508444  3
    786    784    796    802     1  0.0000000  0.6508444  3
    786    784    796    797     1  0.0000000  0.6508444  3
    786    784    796    798     1  0.0000000  0.6508444  3
    787    790    799    800     1  0.0000000  0.6508444  3
    787    790    799    801     1  0.0000000  0.6508444  3
    788    787    780    809     1  0.0000000  0.6508444  3
    788    787    790    799     1  0.0000000  0.6508444  3
    788    787    790    791     1  0.0000000  0.6508444  3
    788    787    790    792     1  0.0000000  0.6508444  3
    789    787    780    809     1  0.0000000  0.6508444  3
    789    787    790    799     1  0.0000000  0.6508444  3
    789    787    790    791     1  0.0000000  0.6508444  3
    789    787    790    792     1  0.0000000  0.6508444  3
    790    787    780    809     1  0.0000000  0.6508444  3
    791    790    799    808     1  0.0000000  1.0460000  1
    791    790    799    808     1  0.0000000  0.0000000  3
    791    790    799    800     1  0.0000000  0.6508444  3
    791    790    799    801     1  0.0000000  0.6508444  3
    792    790    799    808     1  0.0000000  1.0460000  1
    792    790    799    808     1  0.0000000  0.0000000  3
    792    790    799    800     1  0.0000000  0.6508444  3
    792    790    799    801     1  0.0000000  0.6508444  3
    793    781    780    809     1  0.0000000  0.6508444  3
    794    793    805   1730     1  0.0000000  1.0460000  1
    794    793    805   1730     1  0.0000000  0.0000000  3
    794    793    805    806     1  0.0000000  0.6508444  3
    794    793    805    807     1  0.0000000  0.6508444  3
    795    793    805   1730     1  0.0000000  1.0460000  1
    795    793    805   1730     1  0.0000000  0.0000000  3
    795    793    805    806     1  0.0000000  0.6508444  3
    795    793    805    807     1  0.0000000  0.6508444  3
    796    784    780    809     1  0.0000000  0.6508444  3
    797    796    802   1698     1  0.0000000  1.0460000  1
    797    796    802   1698     1  0.0000000  0.0000000  3
    797    796    802    803     1  0.0000000  0.6508444  3
    797    796    802    804     1  0.0000000  0.6508444  3
    798    796    802   1698     1  0.0000000  1.0460000  1
    798    796    802   1698     1  0.0000000  0.0000000  3
    798    796    802    803     1  0.0000000  0.6508444  3
    798    796    802    804     1  0.0000000  0.6508444  3
    802   1698   1668   1669     1  0.0000000  1.6038667  3
    802   1698   1668   1670     1  0.0000000  1.6038667  3
    803    802   1698   1668     1  0.0000000  1.6038667  3
    804    802   1698   1668     1  0.0000000  1.6038667  3
    805   1730   1700   1701     1  0.0000000  1.6038667  3
    805   1730   1700   1702     1  0.0000000  1.6038667  3
    806    805   1730   1700     1  0.0000000  1.6038667  3
    807    805   1730   1700     1  0.0000000  1.6038667  3
    810    811    823    824     1  0.0000000  0.6508444  3
    810    811    823    825     1  0.0000000  0.6508444  3
    810    814    826    827     1  0.0000000  0.6508444  3
    810    814    826    828     1  0.0000000  0.6508444  3
    810    817    820    821     1  0.0000000  0.6508444  3
    810    817    820    822     1  0.0000000  0.6508444  3
    811    810    814    815     1  0.0000000  0.6508444  3
    811    810    814    816     1  0.0000000  0.6508444  3
    811    810    817    818     1  0.0000000  0.6508444  3
    811    810    817    819     1  0.0000000  0.6508444  3
    811    823    835    836     1  0.0000000  0.6508444  3
    811    823    835    837     1  0.0000000  0.6508444  3
    812    811    810    814     1  0.0000000  0.6508444  3
    812    811    810    817     1  0.0000000  0.6508444  3
    812    811    810    839     1  0.0000000  0.6508444  3
    812    811    823    835     1  0.0000000  0.6508444  3
    812    811    823    824     1  0.0000000  0.6508444  3
    812    811    823    825     1  0.0000000  0.6508444  3
    813    811    810    814     1  0.0000000  0.6508444  3
    813    811    810    817     1  0.0000000  0.6508444  3
    813    811    810    839     1  0.0000000  0.6508444  3
    813    811    823    835     1  0.0000000  0.6508444  3
    813    811    823    824     1  0.0000000  0.6508444  3
    813    811    823    825     1  0.0000000  0.6508444  3
    814    810    817    818     1  0.0000000  0.6508444  3
    814    810    817    819     1  0.0000000  0.6508444  3
    814    826    832    833     1  0.0000000  0.6508444  3
    814    826    832    834     1  0.0000000  0.6508444  3
    815    814    810    817     1  0.0000000  0.6508444  3
    815    814    810    839     1  0.0000000  0.6508444  3
    815    814    826    832     1  0.0000000  0.6508444  3
    815    814    826    827     1  0.0000000  0.6508444  3
    815    814    826    828     1  0.0000000  0.6508444  3
    816    814    810    817     1  0.0000000  0.6508444  3
    816    814    810    839     1  0.0000000  0.6508444  3
    816    814    826    832     1  0.0000000  0.6508444  3
    816    814    826    827     1  0.0000000  0.6508444  3
    816    814    826    828     1  0.0000000  0.6508444  3
    817    820    829    830     1  0.0000000  0.6508444  3
    817    820    829    831     1  0.0000000  0.6508444  3
    818    817    810    839     1  0.0000000  0.6508444  3
    818    817    820    829     1  0.0000000  0.6508444  3
    818    817    820    821     1  0.0000000  0.6508444  3
    818    817    820    822     1  0.0000000  0.6508444  3
    819    817    810    839     1  0.0000000  0.6508444  3
    819    817    820    829     1  0.0000000  0.6508444  3
    819    817    820    821     1  0.0000000  0.6508444  3
    819    817    820    822     1  0.0000000  0.6508444  3
    820    817    810    839     1  0.0000000  0.6508444  3
    821    820    829    838     1  0.0000000  1.0460000  1
    821    820    829    838     1  0.0000000  0.0000000  3
    821    820    829    830     1  0.0000000  0.6508444  3
    821    820    829    831     1  0.0000000  0.6508444  3
    822    820    829    838     1  0.0000000  1.0460000  1
    822    820    829    838     1  0.0000000  0.0000000  3
    822    820    829    830     1  0.0000000  0.6508444  3
    822    820    829    831     1  0.0000000  0.6508444  3
    823    811    810    839     1  0.0000000  0.6508444  3
    824    823    835   1794     1  0.0000000  1.0460000  1
    824    823    835   1794     1  0.0000000  0.0000000  3
    824    823    835    836     1  0.0000000  0.6508444  3
    824    823    835    837     1  0.0000000  0.6508444  3
    825    823    835   1794     1  0.0000000  1.0460000  1
    825    823    835   1794     1  0.0000000  0.0000000  3
    825    823    835    836     1  0.0000000  0.6508444  3
    825    823    835    837     1  0.0000000  0.6508444  3
    826    814    810    839     1  0.0000000  0.6508444  3
    827    826    832   1762     1  0.0000000  1.0460000  1
    827    826    832   1762     1  0.0000000  0.0000000  3
    827    826    832    833     1  0.0000000  0.6508444  3
    827    826    832    834     1  0.0000000  0.6508444  3
    828    826    832   1762     1  0.0000000  1.0460000  1
    828    826    832   1762     1  0.0000000  0.0000000  3
    828    826    832    833     1  0.0000000  0.6508444  3
    828    826    832    834     1  0.0000000  0.6508444  3
    832   1762   1732   1733     1  0.0000000  1.6038667  3
    832   1762   1732   1734     1  0.0000000  1.6038667  3
    833    832   1762   1732     1  0.0000000  1.6038667  3
    834    832   1762   1732     1  0.0000000  1.6038667  3
    835   1794   1764   1765     1  0.0000000  1.6038667  3
    835   1794   1764   1766     1  0.0000000  1.6038667  3
    836    835   1794   1764     1  0.0000000  1.6038667  3
    837    835   1794   1764     1  0.0000000  1.6038667  3
    840    841    853    854     1  0.0000000  0.6508444  3
    840    841    853    855     1  0.0000000  0.6508444  3
    840    844    856    857     1  0.0000000  0.6508444  3
    840    844    856    858     1  0.0000000  0.6508444  3
    840    847    850    851     1  0.0000000  0.6508444  3
    840    847    850    852     1  0.0000000  0.6508444  3
    841    840    844    845     1  0.0000000  0.6508444  3
    841    840    844    846     1  0.0000000  0.6508444  3
    841    840    847    848     1  0.0000000  0.6508444  3
    841    840    847    849     1  0.0000000  0.6508444  3
    841    853    865    866     1  0.0000000  0.6508444  3
    841    853    865    867     1  0.0000000  0.6508444  3
    842    841    840    844     1  0.0000000  0.6508444  3
    842    841    840    847     1  0.0000000  0.6508444  3
    842    841    840    869     1  0.0000000  0.6508444  3
    842    841    853    865     1  0.0000000  0.6508444  3
    842    841    853    854     1  0.0000000  0.6508444  3
    842    841    853    855     1  0.0000000  0.6508444  3
    843    841    840    844     1  0.0000000  0.6508444  3
    843    841    840    847     1  0.0000000  0.6508444  3
    843    841    840    869     1  0.0000000  0.6508444  3
    843    841    853    865     1  0.0000000  0.6508444  3
    843    841    853    854     1  0.0000000  0.6508444  3
    843    841    853    855     1  0.0000000  0.6508444  3
    844    840    847    848     1  0.0000000  0.6508444  3
    844    840    847    849     1  0.0000000  0.6508444  3
    844    856    862    863     1  0.0000000  0.6508444  3
    844    856    862    864     1  0.0000000  0.6508444  3
    845    844    840    847     1  0.0000000  0.6508444  3
    845    844    840    869     1  0.0000000  0.6508444  3
    845    844    856    862     1  0.0000000  0.6508444  3
    845    844    856    857     1  0.0000000  0.6508444  3
    845    844    856    858     1  0.0000000  0.6508444  3
    846    844    840    847     1  0.0000000  0.6508444  3
    846    844    840    869     1  0.0000000  0.6508444  3
    846    844    856    862     1  0.0000000  0.6508444  3
    846    844    856    857     1  0.0000000  0.6508444  3
    846    844    856    858     1  0.0000000  0.6508444  3
    847    850    859    860     1  0.0000000  0.6508444  3
    847    850    859    861     1  0.0000000  0.6508444  3
    848    847    840    869     1  0.0000000  0.6508444  3
    848    847    850    859     1  0.0000000  0.6508444  3
    848    847    850    851     1  0.0000000  0.6508444  3
    848    847    850    852     1  0.0000000  0.6508444  3
    849    847    840    869     1  0.0000000  0.6508444  3
    849    847    850    859     1  0.0000000  0.6508444  3
    849    847    850    851     1  0.0000000  0.6508444  3
    849    847    850    852     1  0.0000000  0.6508444  3
    850    847    840    869     1  0.0000000  0.6508444  3
    851    850    859    868     1  0.0000000  1.0460000  1
    851    850    859    868     1  0.0000000  0.0000000  3
    851    850    859    860     1  0.0000000  0.6508444  3
    851    850    859    861     1  0.0000000  0.6508444  3
    852    850    859    868     1  0.0000000  1.0460000  1
    852    850    859    868     1  0.0000000  0.0000000  3
    852    850    859    860     1  0.0000000  0.6508444  3
    852    850    859    861     1  0.0000000  0.6508444  3
    853    841    840    869     1  0.0000000  0.6508444  3
    854    853    865   1858     1  0.0000000  1.0460000  1
    854    853    865   1858     1  0.0000000  0.0000000  3
    854    853    865    866     1  0.0000000  0.6508444  3
    854    853    865    867     1  0.0000000  0.6508444  3
    855    853    865   1858     1  0.0000000  1.0460000  1
    855    853    865   1858     1  0.0000000  0.0000000  3
    855    853    865    866     1  0.0000000  0.6508444  3
    855    853    865    867     1  0.0000000  0.6508444  3
    856    844    840    869     1  0.0000000  0.6508444  3
    857    856    862   1826     1  0.0000000  1.0460000  1
    857    856    862   1826     1  0.0000000  0.0000000  3
    857    856    862    863     1  0.0000000  0.6508444  3
    857    856    862    864     1  0.0000000  0.6508444  3
    858    856    862   1826     1  0.0000000  1.0460000  1
    858    856    862   1826     1  0.0000000  0.0000000  3
    858    856    862    863     1  0.0000000  0.6508444  3
    858    856    862    864     1  0.0000000  0.6508444  3
    862   1826   1796   1797     1  0.0000000  1.6038667  3
    862   1826   1796   1798     1  0.0000000  1.6038667  3
    863    862   1826   1796     1  0.0000000  1.6038667  3
    864    862   1826   1796     1  0.0000000  1.6038667  3
    865   1858   1828   1829     1  0.0000000  1.6038667  3
    865   1858   1828   1830     1  0.0000000  1.6038667  3
    866    865   1858   1828     1  0.0000000  1.6038667  3
    867    865   1858   1828     1  0.0000000  1.6038667  3
    870    871    883    884     1  0.0000000  0.6508444  3
    870    871    883    885     1  0.0000000  0.6508444  3
    870    874    886    887     1  0.0000000  0.6508444  3
    870    874    886    888     1  0.0000000  0.6508444  3
    870    877    880    881     1  0.0000000  0.6508444  3
    870    877    880    882     1  0.0000000  0.6508444  3
    871    870    874    875     1  0.0000000  0.6508444  3
    871    870    874    876     1  0.0000000  0.6508444  3
    871    870    877    878     1  0.0000000  0.6508444  3
    871    870    877    879     1  0.0000000  0.6508444  3
    871    883    895    896     1  0.0000000  0.6508444  3
    871    883    895    897     1  0.0000000  0.6508444  3
    872    871    870    874     1  0.0000000  0.6508444  3
    872    871    870    877     1  0.0000000  0.6508444  3
    872    871    870    899     1  0.0000000  0.6508444  3
    872    871    883    895     1  0.0000000  0.6508444  3
    872    871    883    884     1  0.0000000  0.6508444  3
    872    871    883    885     1  0.0000000  0.6508444  3
    873    871    870    874     1  0.0000000  0.6508444  3
    873    871    870    877     1  0.0000000  0.6508444  3
    873    871    870    899     1  0.0000000  0.6508444  3
    873    871    883    895     1  0.0000000  0.6508444  3
    873    871    883    884     1  0.0000000  0.6508444  3
    873    871    883    885     1  0.0000000  0.6508444  3
    874    870    877    878     1  0.0000000  0.6508444  3
    874    870    877    879     1  0.0000000  0.6508444  3
    874    886    892    893     1  0.0000000  0.6508444  3
    874    886    892    894     1  0.0000000  0.6508444  3
    875    874    870    877     1  0.0000000  0.6508444  3
    875    874    870    899     1  0.0000000  0.6508444  3
    875    874    886    892     1  0.0000000  0.6508444  3
    875    874    886    887     1  0.0000000  0.6508444  3
    875    874    886    888     1  0.0000000  0.6508444  3
    876    874    870    877     1  0.0000000  0.6508444  3
    876    874    870    899     1  0.0000000  0.6508444  3
    876    874    886    892     1  0.0000000  0.6508444  3
    876    874    886    887     1  0.0000000  0.6508444  3
    876    874    886    888     1  0.0000000  0.6508444  3
    877    880    889    890     1  0.0000000  0.6508444  3
    877    880    889    891     1  0.0000000  0.6508444  3
    878    877    870    899     1  0.0000000  0.6508444  3
    878    877    880    889     1  0.0000000  0.6508444  3
    878    877    880    881     1  0.0000000  0.6508444  3
    878    877    880    882     1  0.0000000  0.6508444  3
    879    877    870    899     1  0.0000000  0.6508444  3
    879    877    880    889     1  0.0000000  0.6508444  3
    879    877    880    881     1  0.0000000  0.6508444  3
    879    877    880    882     1  0.0000000  0.6508444  3
    880    877    870    899     1  0.0000000  0.6508444  3
    881    880    889    898     1  0.0000000  1.0460000  1
    881    880    889    898     1  0.0000000  0.0000000  3
    881    880    889    890     1  0.0000000  0.6508444  3
    881    880    889    891     1  0.0000000  0.6508444  3
    882    880    889    898     1  0.0000000  1.0460000  1
    882    880    889    898     1  0.0000000  0.0000000  3
    882    880    889    890     1  0.0000000  0.6508444  3
    882    880    889    891     1  0.0000000  0.6508444  3
    883    871    870    899     1  0.0000000  0.6508444  3
    884    883    895   1922     1  0.0000000  1.0460000  1
    884    883    895   1922     1  0.0000000  0.0000000  3
    884    883    895    896     1  0.0000000  0.6508444  3
    884    883    895    897     1  0.0000000  0.6508444  3
    885    883    895   1922     1  0.0000000  1.0460000  1
    885    883    895   1922     1  0.0000000  0.0000000  3
    885    883    895    896     1  0.0000000  0.6508444  3
    885    883    895    897     1  0.0000000  0.6508444  3
    886    874    870    899     1  0.0000000  0.6508444  3
    887    886    892   1890     1  0.0000000  1.0460000  1
    887    886    892   1890     1  0.0000000  0.0000000  3
    887    886    892    893     1  0.0000000  0.6508444  3
    887    886    892    894     1  0.0000000  0.6508444  3
    888    886    892   1890     1  0.0000000  1.0460000  1
    888    886    892   1890     1  0.0000000  0.0000000  3
    888    886    892    893     1  0.0000000  0.6508444  3
    888    886    892    894     1  0.0000000  0.6508444  3
    892   1890   1860   1861     1  0.0000000  1.6038667  3
    892   1890   1860   1862     1  0.0000000  1.6038667  3
    893    892   1890   1860     1  0.0000000  1.6038667  3
    894    892   1890   1860     1  0.0000000  1.6038667  3
    895   1922   1892   1893     1  0.0000000  1.6038667  3
    895   1922   1892   1894     1  0.0000000  1.6038667  3
    896    895   1922   1892     1  0.0000000  1.6038667  3
    897    895   1922   1892     1  0.0000000  1.6038667  3
    900    903    906    907     1  0.0000000  0.6508444  3
    900    903    906    908     1  0.0000000  0.6508444  3
    901    900    903    906     1  0.0000000  0.6508444  3
    901    900    903    904     1  0.0000000  0.6508444  3
    901    900    903    905     1  0.0000000  0.6508444  3
    902    900    903    906     1  0.0000000  0.6508444  3
    902    900    903    904     1  0.0000000  0.6508444  3
    902    900    903    905     1  0.0000000  0.6508444  3
    903    906    909    931     1  0.0000000  0.6508444  3
    904    903    900    930     1  0.0000000  1.0460000  1
    904    903    900    930     1  0.0000000  0.0000000  3
    904    903    906    909     1  0.0000000  0.6508444  3
    904    903    906    907     1  0.0000000  0.6508444  3
    904    903    906    908     1  0.0000000  0.6508444  3
    905    903    900    930     1  0.0000000  1.0460000  1
    905    903    900    930     1  0.0000000  0.0000000  3
    905    903    906    909     1  0.0000000  0.6508444  3
    905    903    906    907     1  0.0000000  0.6508444  3
    905    903    906    908     1  0.0000000  0.6508444  3
    906    909    910    911     1  0.0000000  0.6508444  3
    906    909    910    912     1  0.0000000  0.6508444  3
    906    909    920    921     1  0.0000000  0.6508444  3
    906    909    920    922     1  0.0000000  0.6508444  3
    907    906    909    910     1  0.0000000  0.6508444  3
    907    906    909    920     1  0.0000000  0.6508444  3
    907    906    909    931     1  0.0000000  0.6508444  3
    908    906    909    910     1  0.0000000  0.6508444  3
    908    906    909    920     1  0.0000000  0.6508444  3
    908    906    909    931     1  0.0000000  0.6508444  3
    909    910    913    914     1  0.0000000  0.6508444  3
    909    910    913    915     1  0.0000000  0.6508444  3
    909    920    923    924     1  0.0000000  0.6508444  3
    909    920    923    925     1  0.0000000  0.6508444  3
    910    909    920    921     1  0.0000000  0.6508444  3
    910    909    920    922     1  0.0000000  0.6508444  3
    911    910    909    920     1  0.0000000  0.6508444  3
    911    910    909    931     1  0.0000000  0.6508444  3
    911    910    913    916     1  0.0000000  0.6508444  3
    911    910    913    914     1  0.0000000  0.6508444  3
    911    910    913    915     1  0.0000000  0.6508444  3
    912    910    909    920     1  0.0000000  0.6508444  3
    912    910    909    931     1  0.0000000  0.6508444  3
    912    910    913    916     1  0.0000000  0.6508444  3
    912    910    913    914     1  0.0000000  0.6508444  3
    912    910    913    915     1  0.0000000  0.6508444  3
    913    910    909    931     1  0.0000000  0.6508444  3
    913    916    918    919     1  180.0000771  9.6232000  2
    914    913    916    917     1  0.0000000  3.3472000  1
    914    913    916    917     1  0.0000000  0.0000000  2
    914    913    916    917     1  180.0000771  0.3347200  3
    914    913    916    918     1  180.0000771  0.0000000  2
    915    913    916    917     1  0.0000000  3.3472000  1
    915    913    916    917     1  0.0000000  0.0000000  2
    915    913    916    917     1  180.0000771  0.3347200  3
    915    913    916    918     1  180.0000771  0.0000000  2
    917    916    918    919     1  0.0000000  7.9496000  1
    917    916    918    919     1  180.0000771  9.6232000  2
    921    920    909    931     1  0.0000000  0.6508444  3
    921    920    923    926     1  0.0000000  0.6508444  3
    921    920    923    924     1  0.0000000  0.6508444  3
    921    920    923    925     1  0.0000000  0.6508444  3
    922    920    909    931     1  0.0000000  0.6508444  3
    922    920    923    926     1  0.0000000  0.6508444  3
    922    920    923    924     1  0.0000000  0.6508444  3
    922    920    923    925     1  0.0000000  0.6508444  3
    923    920    909    931     1  0.0000000  0.6508444  3
    923    926    928    929     1  180.0000771  9.6232000  2
    924    923    926    927     1  0.0000000  3.3472000  1
    924    923    926    927     1  0.0000000  0.0000000  2
    924    923    926    927     1  180.0000771  0.3347200  3
    924    923    926    928     1  180.0000771  0.0000000  2
    925    923    926    927     1  0.0000000  3.3472000  1
    925    923    926    927     1  0.0000000  0.0000000  2
    925    923    926    927     1  180.0000771  0.3347200  3
    925    923    926    928     1  180.0000771  0.0000000  2
    927    926    928    929     1  0.0000000  7.9496000  1
    927    926    928    929     1  180.0000771  9.6232000  2
    932    935    938    939     1  0.0000000  0.6508444  3
    932    935    938    940     1  0.0000000  0.6508444  3
    933    932    935    938     1  0.0000000  0.6508444  3
    933    932    935    936     1  0.0000000  0.6508444  3
    933    932    935    937     1  0.0000000  0.6508444  3
    934    932    935    938     1  0.0000000  0.6508444  3
    934    932    935    936     1  0.0000000  0.6508444  3
    934    932    935    937     1  0.0000000  0.6508444  3
    935    938    941    963     1  0.0000000  0.6508444  3
    936    935    938    941     1  0.0000000  0.6508444  3
    936    935    938    939     1  0.0000000  0.6508444  3
    936    935    938    940     1  0.0000000  0.6508444  3
    936    935    932    962     1  0.0000000  1.0460000  1
    936    935    932    962     1  0.0000000  0.0000000  3
    937    935    938    941     1  0.0000000  0.6508444  3
    937    935    938    939     1  0.0000000  0.6508444  3
    937    935    938    940     1  0.0000000  0.6508444  3
    937    935    932    962     1  0.0000000  1.0460000  1
    937    935    932    962     1  0.0000000  0.0000000  3
    938    941    942    943     1  0.0000000  0.6508444  3
    938    941    942    944     1  0.0000000  0.6508444  3
    938    941    952    953     1  0.0000000  0.6508444  3
    938    941    952    954     1  0.0000000  0.6508444  3
    939    938    941    942     1  0.0000000  0.6508444  3
    939    938    941    952     1  0.0000000  0.6508444  3
    939    938    941    963     1  0.0000000  0.6508444  3
    940    938    941    942     1  0.0000000  0.6508444  3
    940    938    941    952     1  0.0000000  0.6508444  3
    940    938    941    963     1  0.0000000  0.6508444  3
    941    942    945    946     1  0.0000000  0.6508444  3
    941    942    945    947     1  0.0000000  0.6508444  3
    941    952    955    956     1  0.0000000  0.6508444  3
    941    952    955    957     1  0.0000000  0.6508444  3
    942    941    952    953     1  0.0000000  0.6508444  3
    942    941    952    954     1  0.0000000  0.6508444  3
    943    942    945    948     1  0.0000000  0.6508444  3
    943    942    945    946     1  0.0000000  0.6508444  3
    943    942    945    947     1  0.0000000  0.6508444  3
    943    942    941    952     1  0.0000000  0.6508444  3
    943    942    941    963     1  0.0000000  0.6508444  3
    944    942    945    948     1  0.0000000  0.6508444  3
    944    942    945    946     1  0.0000000  0.6508444  3
    944    942    945    947     1  0.0000000  0.6508444  3
    944    942    941    952     1  0.0000000  0.6508444  3
    944    942    941    963     1  0.0000000  0.6508444  3
    945    948    950    951     1  180.0000771  9.6232000  2
    945    942    941    963     1  0.0000000  0.6508444  3
    946    945    948    949     1  0.0000000  3.3472000  1
    946    945    948    949     1  0.0000000  0.0000000  2
    946    945    948    949     1  180.0000771  0.3347200  3
    946    945    948    950     1  180.0000771  0.0000000  2
    947    945    948    949     1  0.0000000  3.3472000  1
    947    945    948    949     1  0.0000000  0.0000000  2
    947    945    948    949     1  180.0000771  0.3347200  3
    947    945    948    950     1  180.0000771  0.0000000  2
    949    948    950    951     1  0.0000000  7.9496000  1
    949    948    950    951     1  180.0000771  9.6232000  2
    953    952    955    958     1  0.0000000  0.6508444  3
    953    952    955    956     1  0.0000000  0.6508444  3
    953    952    955    957     1  0.0000000  0.6508444  3
    953    952    941    963     1  0.0000000  0.6508444  3
    954    952    955    958     1  0.0000000  0.6508444  3
    954    952    955    956     1  0.0000000  0.6508444  3
    954    952    955    957     1  0.0000000  0.6508444  3
    954    952    941    963     1  0.0000000  0.6508444  3
    955    958    960    961     1  180.0000771  9.6232000  2
    955    952    941    963     1  0.0000000  0.6508444  3
    956    955    958    959     1  0.0000000  3.3472000  1
    956    955    958    959     1  0.0000000  0.0000000  2
    956    955    958    959     1  180.0000771  0.3347200  3
    956    955    958    960     1  180.0000771  0.0000000  2
    957    955    958    959     1  0.0000000  3.3472000  1
    957    955    958    959     1  0.0000000  0.0000000  2
    957    955    958    959     1  180.0000771  0.3347200  3
    957    955    958    960     1  180.0000771  0.0000000  2
    959    958    960    961     1  0.0000000  7.9496000  1
    959    958    960    961     1  180.0000771  9.6232000  2
    964    967    970    971     1  0.0000000  0.6508444  3
    964    967    970    972     1  0.0000000  0.6508444  3
    965    964    967    970     1  0.0000000  0.6508444  3
    965    964    967    968     1  0.0000000  0.6508444  3
    965    964    967    969     1  0.0000000  0.6508444  3
    966    964    967    970     1  0.0000000  0.6508444  3
    966    964    967    968     1  0.0000000  0.6508444  3
    966    964    967    969     1  0.0000000  0.6508444  3
    967    970    973    995     1  0.0000000  0.6508444  3
    968    967    964    994     1  0.0000000  1.0460000  1
    968    967    964    994     1  0.0000000  0.0000000  3
    968    967    970    973     1  0.0000000  0.6508444  3
    968    967    970    971     1  0.0000000  0.6508444  3
    968    967    970    972     1  0.0000000  0.6508444  3
    969    967    964    994     1  0.0000000  1.0460000  1
    969    967    964    994     1  0.0000000  0.0000000  3
    969    967    970    973     1  0.0000000  0.6508444  3
    969    967    970    971     1  0.0000000  0.6508444  3
    969    967    970    972     1  0.0000000  0.6508444  3
    970    973    974    975     1  0.0000000  0.6508444  3
    970    973    974    976     1  0.0000000  0.6508444  3
    970    973    984    985     1  0.0000000  0.6508444  3
    970    973    984    986     1  0.0000000  0.6508444  3
    971    970    973    974     1  0.0000000  0.6508444  3
    971    970    973    984     1  0.0000000  0.6508444  3
    971    970    973    995     1  0.0000000  0.6508444  3
    972    970    973    974     1  0.0000000  0.6508444  3
    972    970    973    984     1  0.0000000  0.6508444  3
    972    970    973    995     1  0.0000000  0.6508444  3
    973    974    977    978     1  0.0000000  0.6508444  3
    973    974    977    979     1  0.0000000  0.6508444  3
    973    984    987    988     1  0.0000000  0.6508444  3
    973    984    987    989     1  0.0000000  0.6508444  3
    974    973    984    985     1  0.0000000  0.6508444  3
    974    973    984    986     1  0.0000000  0.6508444  3
    975    974    973    984     1  0.0000000  0.6508444  3
    975    974    973    995     1  0.0000000  0.6508444  3
    975    974    977    980     1  0.0000000  0.6508444  3
    975    974    977    978     1  0.0000000  0.6508444  3
    975    974    977    979     1  0.0000000  0.6508444  3
    976    974    973    984     1  0.0000000  0.6508444  3
    976    974    973    995     1  0.0000000  0.6508444  3
    976    974    977    980     1  0.0000000  0.6508444  3
    976    974    977    978     1  0.0000000  0.6508444  3
    976    974    977    979     1  0.0000000  0.6508444  3
    977    974    973    995     1  0.0000000  0.6508444  3
    977    980    982    983     1  180.0000771  9.6232000  2
    978    977    980    981     1  0.0000000  3.3472000  1
    978    977    980    981     1  0.0000000  0.0000000  2
    978    977    980    981     1  180.0000771  0.3347200  3
    978    977    980    982     1  180.0000771  0.0000000  2
    979    977    980    981     1  0.0000000  3.3472000  1
    979    977    980    981     1  0.0000000  0.0000000  2
    979    977    980    981     1  180.0000771  0.3347200  3
    979    977    980    982     1  180.0000771  0.0000000  2
    981    980    982    983     1  0.0000000  7.9496000  1
    981    980    982    983     1  180.0000771  9.6232000  2
    985    984    973    995     1  0.0000000  0.6508444  3
    985    984    987    990     1  0.0000000  0.6508444  3
    985    984    987    988     1  0.0000000  0.6508444  3
    985    984    987    989     1  0.0000000  0.6508444  3
    986    984    973    995     1  0.0000000  0.6508444  3
    986    984    987    990     1  0.0000000  0.6508444  3
    986    984    987    988     1  0.0000000  0.6508444  3
    986    984    987    989     1  0.0000000  0.6508444  3
    987    984    973    995     1  0.0000000  0.6508444  3
    987    990    992    993     1  180.0000771  9.6232000  2
    988    987    990    991     1  0.0000000  3.3472000  1
    988    987    990    991     1  0.0000000  0.0000000  2
    988    987    990    991     1  180.0000771  0.3347200  3
    988    987    990    992     1  180.0000771  0.0000000  2
    989    987    990    991     1  0.0000000  3.3472000  1
    989    987    990    991     1  0.0000000  0.0000000  2
    989    987    990    991     1  180.0000771  0.3347200  3
    989    987    990    992     1  180.0000771  0.0000000  2
    991    990    992    993     1  0.0000000  7.9496000  1
    991    990    992    993     1  180.0000771  9.6232000  2
    996    999   1002   1003     1  0.0000000  0.6508444  3
    996    999   1002   1004     1  0.0000000  0.6508444  3
    997    996    999   1002     1  0.0000000  0.6508444  3
    997    996    999   1000     1  0.0000000  0.6508444  3
    997    996    999   1001     1  0.0000000  0.6508444  3
    998    996    999   1002     1  0.0000000  0.6508444  3
    998    996    999   1000     1  0.0000000  0.6508444  3
    998    996    999   1001     1  0.0000000  0.6508444  3
    999   1002   1005   1027     1  0.0000000  0.6508444  3
   1000    999   1002   1005     1  0.0000000  0.6508444  3
   1000    999   1002   1003     1  0.0000000  0.6508444  3
   1000    999   1002   1004     1  0.0000000  0.6508444  3
   1000    999    996   1026     1  0.0000000  1.0460000  1
   1000    999    996   1026     1  0.0000000  0.0000000  3
   1001    999   1002   1005     1  0.0000000  0.6508444  3
   1001    999   1002   1003     1  0.0000000  0.6508444  3
   1001    999   1002   1004     1  0.0000000  0.6508444  3
   1001    999    996   1026     1  0.0000000  1.0460000  1
   1001    999    996   1026     1  0.0000000  0.0000000  3
   1002   1005   1006   1007     1  0.0000000  0.6508444  3
   1002   1005   1006   1008     1  0.0000000  0.6508444  3
   1002   1005   1016   1017     1  0.0000000  0.6508444  3
   1002   1005   1016   1018     1  0.0000000  0.6508444  3
   1003   1002   1005   1006     1  0.0000000  0.6508444  3
   1003   1002   1005   1016     1  0.0000000  0.6508444  3
   1003   1002   1005   1027     1  0.0000000  0.6508444  3
   1004   1002   1005   1006     1  0.0000000  0.6508444  3
   1004   1002   1005   1016     1  0.0000000  0.6508444  3
   1004   1002   1005   1027     1  0.0000000  0.6508444  3
   1005   1006   1009   1010     1  0.0000000  0.6508444  3
   1005   1006   1009   1011     1  0.0000000  0.6508444  3
   1005   1016   1019   1020     1  0.0000000  0.6508444  3
   1005   1016   1019   1021     1  0.0000000  0.6508444  3
   1006   1005   1016   1017     1  0.0000000  0.6508444  3
   1006   1005   1016   1018     1  0.0000000  0.6508444  3
   1007   1006   1009   1012     1  0.0000000  0.6508444  3
   1007   1006   1009   1010     1  0.0000000  0.6508444  3
   1007   1006   1009   1011     1  0.0000000  0.6508444  3
   1007   1006   1005   1016     1  0.0000000  0.6508444  3
   1007   1006   1005   1027     1  0.0000000  0.6508444  3
   1008   1006   1009   1012     1  0.0000000  0.6508444  3
   1008   1006   1009   1010     1  0.0000000  0.6508444  3
   1008   1006   1009   1011     1  0.0000000  0.6508444  3
   1008   1006   1005   1016     1  0.0000000  0.6508444  3
   1008   1006   1005   1027     1  0.0000000  0.6508444  3
   1009   1012   1014   1015     1  180.0000771  9.6232000  2
   1009   1006   1005   1027     1  0.0000000  0.6508444  3
   1010   1009   1012   1013     1  0.0000000  3.3472000  1
   1010   1009   1012   1013     1  0.0000000  0.0000000  2
   1010   1009   1012   1013     1  180.0000771  0.3347200  3
   1010   1009   1012   1014     1  180.0000771  0.0000000  2
   1011   1009   1012   1013     1  0.0000000  3.3472000  1
   1011   1009   1012   1013     1  0.0000000  0.0000000  2
   1011   1009   1012   1013     1  180.0000771  0.3347200  3
   1011   1009   1012   1014     1  180.0000771  0.0000000  2
   1013   1012   1014   1015     1  0.0000000  7.9496000  1
   1013   1012   1014   1015     1  180.0000771  9.6232000  2
   1017   1016   1019   1022     1  0.0000000  0.6508444  3
   1017   1016   1019   1020     1  0.0000000  0.6508444  3
   1017   1016   1019   1021     1  0.0000000  0.6508444  3
   1017   1016   1005   1027     1  0.0000000  0.6508444  3
   1018   1016   1019   1022     1  0.0000000  0.6508444  3
   1018   1016   1019   1020     1  0.0000000  0.6508444  3
   1018   1016   1019   1021     1  0.0000000  0.6508444  3
   1018   1016   1005   1027     1  0.0000000  0.6508444  3
   1019   1022   1024   1025     1  180.0000771  9.6232000  2
   1019   1016   1005   1027     1  0.0000000  0.6508444  3
   1020   1019   1022   1023     1  0.0000000  3.3472000  1
   1020   1019   1022   1023     1  0.0000000  0.0000000  2
   1020   1019   1022   1023     1  180.0000771  0.3347200  3
   1020   1019   1022   1024     1  180.0000771  0.0000000  2
   1021   1019   1022   1023     1  0.0000000  3.3472000  1
   1021   1019   1022   1023     1  0.0000000  0.0000000  2
   1021   1019   1022   1023     1  180.0000771  0.3347200  3
   1021   1019   1022   1024     1  180.0000771  0.0000000  2
   1023   1022   1024   1025     1  0.0000000  7.9496000  1
   1023   1022   1024   1025     1  180.0000771  9.6232000  2
   1028   1031   1034   1035     1  0.0000000  0.6508444  3
   1028   1031   1034   1036     1  0.0000000  0.6508444  3
   1029   1028   1031   1034     1  0.0000000  0.6508444  3
   1029   1028   1031   1032     1  0.0000000  0.6508444  3
   1029   1028   1031   1033     1  0.0000000  0.6508444  3
   1030   1028   1031   1034     1  0.0000000  0.6508444  3
   1030   1028   1031   1032     1  0.0000000  0.6508444  3
   1030   1028   1031   1033     1  0.0000000  0.6508444  3
   1031   1034   1037   1059     1  0.0000000  0.6508444  3
   1032   1031   1028   1058     1  0.0000000  1.0460000  1
   1032   1031   1028   1058     1  0.0000000  0.0000000  3
   1032   1031   1034   1037     1  0.0000000  0.6508444  3
   1032   1031   1034   1035     1  0.0000000  0.6508444  3
   1032   1031   1034   1036     1  0.0000000  0.6508444  3
   1033   1031   1028   1058     1  0.0000000  1.0460000  1
   1033   1031   1028   1058     1  0.0000000  0.0000000  3
   1033   1031   1034   1037     1  0.0000000  0.6508444  3
   1033   1031   1034   1035     1  0.0000000  0.6508444  3
   1033   1031   1034   1036     1  0.0000000  0.6508444  3
   1034   1037   1038   1039     1  0.0000000  0.6508444  3
   1034   1037   1038   1040     1  0.0000000  0.6508444  3
   1034   1037   1048   1049     1  0.0000000  0.6508444  3
   1034   1037   1048   1050     1  0.0000000  0.6508444  3
   1035   1034   1037   1038     1  0.0000000  0.6508444  3
   1035   1034   1037   1048     1  0.0000000  0.6508444  3
   1035   1034   1037   1059     1  0.0000000  0.6508444  3
   1036   1034   1037   1038     1  0.0000000  0.6508444  3
   1036   1034   1037   1048     1  0.0000000  0.6508444  3
   1036   1034   1037   1059     1  0.0000000  0.6508444  3
   1037   1038   1041   1042     1  0.0000000  0.6508444  3
   1037   1038   1041   1043     1  0.0000000  0.6508444  3
   1037   1048   1051   1052     1  0.0000000  0.6508444  3
   1037   1048   1051   1053     1  0.0000000  0.6508444  3
   1038   1037   1048   1049     1  0.0000000  0.6508444  3
   1038   1037   1048   1050     1  0.0000000  0.6508444  3
   1039   1038   1037   1048     1  0.0000000  0.6508444  3
   1039   1038   1037   1059     1  0.0000000  0.6508444  3
   1039   1038   1041   1044     1  0.0000000  0.6508444  3
   1039   1038   1041   1042     1  0.0000000  0.6508444  3
   1039   1038   1041   1043     1  0.0000000  0.6508444  3
   1040   1038   1037   1048     1  0.0000000  0.6508444  3
   1040   1038   1037   1059     1  0.0000000  0.6508444  3
   1040   1038   1041   1044     1  0.0000000  0.6508444  3
   1040   1038   1041   1042     1  0.0000000  0.6508444  3
   1040   1038   1041   1043     1  0.0000000  0.6508444  3
   1041   1038   1037   1059     1  0.0000000  0.6508444  3
   1041   1044   1046   1047     1  180.0000771  9.6232000  2
   1042   1041   1044   1045     1  0.0000000  3.3472000  1
   1042   1041   1044   1045     1  0.0000000  0.0000000  2
   1042   1041   1044   1045     1  180.0000771  0.3347200  3
   1042   1041   1044   1046     1  180.0000771  0.0000000  2
   1043   1041   1044   1045     1  0.0000000  3.3472000  1
   1043   1041   1044   1045     1  0.0000000  0.0000000  2
   1043   1041   1044   1045     1  180.0000771  0.3347200  3
   1043   1041   1044   1046     1  180.0000771  0.0000000  2
   1045   1044   1046   1047     1  0.0000000  7.9496000  1
   1045   1044   1046   1047     1  180.0000771  9.6232000  2
   1049   1048   1037   1059     1  0.0000000  0.6508444  3
   1049   1048   1051   1054     1  0.0000000  0.6508444  3
   1049   1048   1051   1052     1  0.0000000  0.6508444  3
   1049   1048   1051   1053     1  0.0000000  0.6508444  3
   1050   1048   1037   1059     1  0.0000000  0.6508444  3
   1050   1048   1051   1054     1  0.0000000  0.6508444  3
   1050   1048   1051   1052     1  0.0000000  0.6508444  3
   1050   1048   1051   1053     1  0.0000000  0.6508444  3
   1051   1048   1037   1059     1  0.0000000  0.6508444  3
   1051   1054   1056   1057     1  180.0000771  9.6232000  2
   1052   1051   1054   1055     1  0.0000000  3.3472000  1
   1052   1051   1054   1055     1  0.0000000  0.0000000  2
   1052   1051   1054   1055     1  180.0000771  0.3347200  3
   1052   1051   1054   1056     1  180.0000771  0.0000000  2
   1053   1051   1054   1055     1  0.0000000  3.3472000  1
   1053   1051   1054   1055     1  0.0000000  0.0000000  2
   1053   1051   1054   1055     1  180.0000771  0.3347200  3
   1053   1051   1054   1056     1  180.0000771  0.0000000  2
   1055   1054   1056   1057     1  0.0000000  7.9496000  1
   1055   1054   1056   1057     1  180.0000771  9.6232000  2
   1060   1063   1066   1067     1  0.0000000  0.6508444  3
   1060   1063   1066   1068     1  0.0000000  0.6508444  3
   1061   1060   1063   1066     1  0.0000000  0.6508444  3
   1061   1060   1063   1064     1  0.0000000  0.6508444  3
   1061   1060   1063   1065     1  0.0000000  0.6508444  3
   1062   1060   1063   1066     1  0.0000000  0.6508444  3
   1062   1060   1063   1064     1  0.0000000  0.6508444  3
   1062   1060   1063   1065     1  0.0000000  0.6508444  3
   1063   1066   1069   1091     1  0.0000000  0.6508444  3
   1064   1063   1066   1069     1  0.0000000  0.6508444  3
   1064   1063   1066   1067     1  0.0000000  0.6508444  3
   1064   1063   1066   1068     1  0.0000000  0.6508444  3
   1064   1063   1060   1090     1  0.0000000  1.0460000  1
   1064   1063   1060   1090     1  0.0000000  0.0000000  3
   1065   1063   1066   1069     1  0.0000000  0.6508444  3
   1065   1063   1066   1067     1  0.0000000  0.6508444  3
   1065   1063   1066   1068     1  0.0000000  0.6508444  3
   1065   1063   1060   1090     1  0.0000000  1.0460000  1
   1065   1063   1060   1090     1  0.0000000  0.0000000  3
   1066   1069   1070   1071     1  0.0000000  0.6508444  3
   1066   1069   1070   1072     1  0.0000000  0.6508444  3
   1066   1069   1080   1081     1  0.0000000  0.6508444  3
   1066   1069   1080   1082     1  0.0000000  0.6508444  3
   1067   1066   1069   1070     1  0.0000000  0.6508444  3
   1067   1066   1069   1080     1  0.0000000  0.6508444  3
   1067   1066   1069   1091     1  0.0000000  0.6508444  3
   1068   1066   1069   1070     1  0.0000000  0.6508444  3
   1068   1066   1069   1080     1  0.0000000  0.6508444  3
   1068   1066   1069   1091     1  0.0000000  0.6508444  3
   1069   1070   1073   1074     1  0.0000000  0.6508444  3
   1069   1070   1073   1075     1  0.0000000  0.6508444  3
   1069   1080   1083   1084     1  0.0000000  0.6508444  3
   1069   1080   1083   1085     1  0.0000000  0.6508444  3
   1070   1069   1080   1081     1  0.0000000  0.6508444  3
   1070   1069   1080   1082     1  0.0000000  0.6508444  3
   1071   1070   1073   1076     1  0.0000000  0.6508444  3
   1071   1070   1073   1074     1  0.0000000  0.6508444  3
   1071   1070   1073   1075     1  0.0000000  0.6508444  3
   1071   1070   1069   1080     1  0.0000000  0.6508444  3
   1071   1070   1069   1091     1  0.0000000  0.6508444  3
   1072   1070   1073   1076     1  0.0000000  0.6508444  3
   1072   1070   1073   1074     1  0.0000000  0.6508444  3
   1072   1070   1073   1075     1  0.0000000  0.6508444  3
   1072   1070   1069   1080     1  0.0000000  0.6508444  3
   1072   1070   1069   1091     1  0.0000000  0.6508444  3
   1073   1076   1078   1079     1  180.0000771  9.6232000  2
   1073   1070   1069   1091     1  0.0000000  0.6508444  3
   1074   1073   1076   1077     1  0.0000000  3.3472000  1
   1074   1073   1076   1077     1  0.0000000  0.0000000  2
   1074   1073   1076   1077     1  180.0000771  0.3347200  3
   1074   1073   1076   1078     1  180.0000771  0.0000000  2
   1075   1073   1076   1077     1  0.0000000  3.3472000  1
   1075   1073   1076   1077     1  0.0000000  0.0000000  2
   1075   1073   1076   1077     1  180.0000771  0.3347200  3
   1075   1073   1076   1078     1  180.0000771  0.0000000  2
   1077   1076   1078   1079     1  0.0000000  7.9496000  1
   1077   1076   1078   1079     1  180.0000771  9.6232000  2
   1081   1080   1083   1086     1  0.0000000  0.6508444  3
   1081   1080   1083   1084     1  0.0000000  0.6508444  3
   1081   1080   1083   1085     1  0.0000000  0.6508444  3
   1081   1080   1069   1091     1  0.0000000  0.6508444  3
   1082   1080   1083   1086     1  0.0000000  0.6508444  3
   1082   1080   1083   1084     1  0.0000000  0.6508444  3
   1082   1080   1083   1085     1  0.0000000  0.6508444  3
   1082   1080   1069   1091     1  0.0000000  0.6508444  3
   1083   1086   1088   1089     1  180.0000771  9.6232000  2
   1083   1080   1069   1091     1  0.0000000  0.6508444  3
   1084   1083   1086   1087     1  0.0000000  3.3472000  1
   1084   1083   1086   1087     1  0.0000000  0.0000000  2
   1084   1083   1086   1087     1  180.0000771  0.3347200  3
   1084   1083   1086   1088     1  180.0000771  0.0000000  2
   1085   1083   1086   1087     1  0.0000000  3.3472000  1
   1085   1083   1086   1087     1  0.0000000  0.0000000  2
   1085   1083   1086   1087     1  180.0000771  0.3347200  3
   1085   1083   1086   1088     1  180.0000771  0.0000000  2
   1087   1086   1088   1089     1  0.0000000  7.9496000  1
   1087   1086   1088   1089     1  180.0000771  9.6232000  2
   1092   1095   1098   1099     1  0.0000000  0.6508444  3
   1092   1095   1098   1100     1  0.0000000  0.6508444  3
   1093   1092   1095   1098     1  0.0000000  0.6508444  3
   1093   1092   1095   1096     1  0.0000000  0.6508444  3
   1093   1092   1095   1097     1  0.0000000  0.6508444  3
   1094   1092   1095   1098     1  0.0000000  0.6508444  3
   1094   1092   1095   1096     1  0.0000000  0.6508444  3
   1094   1092   1095   1097     1  0.0000000  0.6508444  3
   1095   1098   1101   1123     1  0.0000000  0.6508444  3
   1096   1095   1092   1122     1  0.0000000  1.0460000  1
   1096   1095   1092   1122     1  0.0000000  0.0000000  3
   1096   1095   1098   1101     1  0.0000000  0.6508444  3
   1096   1095   1098   1099     1  0.0000000  0.6508444  3
   1096   1095   1098   1100     1  0.0000000  0.6508444  3
   1097   1095   1092   1122     1  0.0000000  1.0460000  1
   1097   1095   1092   1122     1  0.0000000  0.0000000  3
   1097   1095   1098   1101     1  0.0000000  0.6508444  3
   1097   1095   1098   1099     1  0.0000000  0.6508444  3
   1097   1095   1098   1100     1  0.0000000  0.6508444  3
   1098   1101   1102   1103     1  0.0000000  0.6508444  3
   1098   1101   1102   1104     1  0.0000000  0.6508444  3
   1098   1101   1112   1113     1  0.0000000  0.6508444  3
   1098   1101   1112   1114     1  0.0000000  0.6508444  3
   1099   1098   1101   1102     1  0.0000000  0.6508444  3
   1099   1098   1101   1112     1  0.0000000  0.6508444  3
   1099   1098   1101   1123     1  0.0000000  0.6508444  3
   1100   1098   1101   1102     1  0.0000000  0.6508444  3
   1100   1098   1101   1112     1  0.0000000  0.6508444  3
   1100   1098   1101   1123     1  0.0000000  0.6508444  3
   1101   1102   1105   1106     1  0.0000000  0.6508444  3
   1101   1102   1105   1107     1  0.0000000  0.6508444  3
   1101   1112   1115   1116     1  0.0000000  0.6508444  3
   1101   1112   1115   1117     1  0.0000000  0.6508444  3
   1102   1101   1112   1113     1  0.0000000  0.6508444  3
   1102   1101   1112   1114     1  0.0000000  0.6508444  3
   1103   1102   1101   1112     1  0.0000000  0.6508444  3
   1103   1102   1101   1123     1  0.0000000  0.6508444  3
   1103   1102   1105   1108     1  0.0000000  0.6508444  3
   1103   1102   1105   1106     1  0.0000000  0.6508444  3
   1103   1102   1105   1107     1  0.0000000  0.6508444  3
   1104   1102   1101   1112     1  0.0000000  0.6508444  3
   1104   1102   1101   1123     1  0.0000000  0.6508444  3
   1104   1102   1105   1108     1  0.0000000  0.6508444  3
   1104   1102   1105   1106     1  0.0000000  0.6508444  3
   1104   1102   1105   1107     1  0.0000000  0.6508444  3
   1105   1102   1101   1123     1  0.0000000  0.6508444  3
   1105   1108   1110   1111     1  180.0000771  9.6232000  2
   1106   1105   1108   1109     1  0.0000000  3.3472000  1
   1106   1105   1108   1109     1  0.0000000  0.0000000  2
   1106   1105   1108   1109     1  180.0000771  0.3347200  3
   1106   1105   1108   1110     1  180.0000771  0.0000000  2
   1107   1105   1108   1109     1  0.0000000  3.3472000  1
   1107   1105   1108   1109     1  0.0000000  0.0000000  2
   1107   1105   1108   1109     1  180.0000771  0.3347200  3
   1107   1105   1108   1110     1  180.0000771  0.0000000  2
   1109   1108   1110   1111     1  0.0000000  7.9496000  1
   1109   1108   1110   1111     1  180.0000771  9.6232000  2
   1113   1112   1101   1123     1  0.0000000  0.6508444  3
   1113   1112   1115   1118     1  0.0000000  0.6508444  3
   1113   1112   1115   1116     1  0.0000000  0.6508444  3
   1113   1112   1115   1117     1  0.0000000  0.6508444  3
   1114   1112   1101   1123     1  0.0000000  0.6508444  3
   1114   1112   1115   1118     1  0.0000000  0.6508444  3
   1114   1112   1115   1116     1  0.0000000  0.6508444  3
   1114   1112   1115   1117     1  0.0000000  0.6508444  3
   1115   1112   1101   1123     1  0.0000000  0.6508444  3
   1115   1118   1120   1121     1  180.0000771  9.6232000  2
   1116   1115   1118   1119     1  0.0000000  3.3472000  1
   1116   1115   1118   1119     1  0.0000000  0.0000000  2
   1116   1115   1118   1119     1  180.0000771  0.3347200  3
   1116   1115   1118   1120     1  180.0000771  0.0000000  2
   1117   1115   1118   1119     1  0.0000000  3.3472000  1
   1117   1115   1118   1119     1  0.0000000  0.0000000  2
   1117   1115   1118   1119     1  180.0000771  0.3347200  3
   1117   1115   1118   1120     1  180.0000771  0.0000000  2
   1119   1118   1120   1121     1  0.0000000  7.9496000  1
   1119   1118   1120   1121     1  180.0000771  9.6232000  2
   1124   1127   1130   1131     1  0.0000000  0.6508444  3
   1124   1127   1130   1132     1  0.0000000  0.6508444  3
   1125   1124   1127   1130     1  0.0000000  0.6508444  3
   1125   1124   1127   1128     1  0.0000000  0.6508444  3
   1125   1124   1127   1129     1  0.0000000  0.6508444  3
   1126   1124   1127   1130     1  0.0000000  0.6508444  3
   1126   1124   1127   1128     1  0.0000000  0.6508444  3
   1126   1124   1127   1129     1  0.0000000  0.6508444  3
   1127   1130   1133   1155     1  0.0000000  0.6508444  3
   1128   1127   1130   1133     1  0.0000000  0.6508444  3
   1128   1127   1130   1131     1  0.0000000  0.6508444  3
   1128   1127   1130   1132     1  0.0000000  0.6508444  3
   1128   1127   1124   1154     1  0.0000000  1.0460000  1
   1128   1127   1124   1154     1  0.0000000  0.0000000  3
   1129   1127   1130   1133     1  0.0000000  0.6508444  3
   1129   1127   1130   1131     1  0.0000000  0.6508444  3
   1129   1127   1130   1132     1  0.0000000  0.6508444  3
   1129   1127   1124   1154     1  0.0000000  1.0460000  1
   1129   1127   1124   1154     1  0.0000000  0.0000000  3
   1130   1133   1134   1135     1  0.0000000  0.6508444  3
   1130   1133   1134   1136     1  0.0000000  0.6508444  3
   1130   1133   1144   1145     1  0.0000000  0.6508444  3
   1130   1133   1144   1146     1  0.0000000  0.6508444  3
   1131   1130   1133   1134     1  0.0000000  0.6508444  3
   1131   1130   1133   1144     1  0.0000000  0.6508444  3
   1131   1130   1133   1155     1  0.0000000  0.6508444  3
   1132   1130   1133   1134     1  0.0000000  0.6508444  3
   1132   1130   1133   1144     1  0.0000000  0.6508444  3
   1132   1130   1133   1155     1  0.0000000  0.6508444  3
   1133   1134   1137   1138     1  0.0000000  0.6508444  3
   1133   1134   1137   1139     1  0.0000000  0.6508444  3
   1133   1144   1147   1148     1  0.0000000  0.6508444  3
   1133   1144   1147   1149     1  0.0000000  0.6508444  3
   1134   1133   1144   1145     1  0.0000000  0.6508444  3
   1134   1133   1144   1146     1  0.0000000  0.6508444  3
   1135   1134   1137   1140     1  0.0000000  0.6508444  3
   1135   1134   1137   1138     1  0.0000000  0.6508444  3
   1135   1134   1137   1139     1  0.0000000  0.6508444  3
   1135   1134   1133   1144     1  0.0000000  0.6508444  3
   1135   1134   1133   1155     1  0.0000000  0.6508444  3
   1136   1134   1137   1140     1  0.0000000  0.6508444  3
   1136   1134   1137   1138     1  0.0000000  0.6508444  3
   1136   1134   1137   1139     1  0.0000000  0.6508444  3
   1136   1134   1133   1144     1  0.0000000  0.6508444  3
   1136   1134   1133   1155     1  0.0000000  0.6508444  3
   1137   1140   1142   1143     1  180.0000771  9.6232000  2
   1137   1134   1133   1155     1  0.0000000  0.6508444  3
   1138   1137   1140   1141     1  0.0000000  3.3472000  1
   1138   1137   1140   1141     1  0.0000000  0.0000000  2
   1138   1137   1140   1141     1  180.0000771  0.3347200  3
   1138   1137   1140   1142     1  180.0000771  0.0000000  2
   1139   1137   1140   1141     1  0.0000000  3.3472000  1
   1139   1137   1140   1141     1  0.0000000  0.0000000  2
   1139   1137   1140   1141     1  180.0000771  0.3347200  3
   1139   1137   1140   1142     1  180.0000771  0.0000000  2
   1141   1140   1142   1143     1  0.0000000  7.9496000  1
   1141   1140   1142   1143     1  180.0000771  9.6232000  2
   1145   1144   1147   1150     1  0.0000000  0.6508444  3
   1145   1144   1147   1148     1  0.0000000  0.6508444  3
   1145   1144   1147   1149     1  0.0000000  0.6508444  3
   1145   1144   1133   1155     1  0.0000000  0.6508444  3
   1146   1144   1147   1150     1  0.0000000  0.6508444  3
   1146   1144   1147   1148     1  0.0000000  0.6508444  3
   1146   1144   1147   1149     1  0.0000000  0.6508444  3
   1146   1144   1133   1155     1  0.0000000  0.6508444  3
   1147   1150   1152   1153     1  180.0000771  9.6232000  2
   1147   1144   1133   1155     1  0.0000000  0.6508444  3
   1148   1147   1150   1151     1  0.0000000  3.3472000  1
   1148   1147   1150   1151     1  0.0000000  0.0000000  2
   1148   1147   1150   1151     1  180.0000771  0.3347200  3
   1148   1147   1150   1152     1  180.0000771  0.0000000  2
   1149   1147   1150   1151     1  0.0000000  3.3472000  1
   1149   1147   1150   1151     1  0.0000000  0.0000000  2
   1149   1147   1150   1151     1  180.0000771  0.3347200  3
   1149   1147   1150   1152     1  180.0000771  0.0000000  2
   1151   1150   1152   1153     1  0.0000000  7.9496000  1
   1151   1150   1152   1153     1  180.0000771  9.6232000  2
   1156   1159   1162   1163     1  0.0000000  0.6508444  3
   1156   1159   1162   1164     1  0.0000000  0.6508444  3
   1157   1156   1159   1162     1  0.0000000  0.6508444  3
   1157   1156   1159   1160     1  0.0000000  0.6508444  3
   1157   1156   1159   1161     1  0.0000000  0.6508444  3
   1158   1156   1159   1162     1  0.0000000  0.6508444  3
   1158   1156   1159   1160     1  0.0000000  0.6508444  3
   1158   1156   1159   1161     1  0.0000000  0.6508444  3
   1159   1162   1165   1187     1  0.0000000  0.6508444  3
   1160   1159   1156   1186     1  0.0000000  1.0460000  1
   1160   1159   1156   1186     1  0.0000000  0.0000000  3
   1160   1159   1162   1165     1  0.0000000  0.6508444  3
   1160   1159   1162   1163     1  0.0000000  0.6508444  3
   1160   1159   1162   1164     1  0.0000000  0.6508444  3
   1161   1159   1156   1186     1  0.0000000  1.0460000  1
   1161   1159   1156   1186     1  0.0000000  0.0000000  3
   1161   1159   1162   1165     1  0.0000000  0.6508444  3
   1161   1159   1162   1163     1  0.0000000  0.6508444  3
   1161   1159   1162   1164     1  0.0000000  0.6508444  3
   1162   1165   1166   1167     1  0.0000000  0.6508444  3
   1162   1165   1166   1168     1  0.0000000  0.6508444  3
   1162   1165   1176   1177     1  0.0000000  0.6508444  3
   1162   1165   1176   1178     1  0.0000000  0.6508444  3
   1163   1162   1165   1166     1  0.0000000  0.6508444  3
   1163   1162   1165   1176     1  0.0000000  0.6508444  3
   1163   1162   1165   1187     1  0.0000000  0.6508444  3
   1164   1162   1165   1166     1  0.0000000  0.6508444  3
   1164   1162   1165   1176     1  0.0000000  0.6508444  3
   1164   1162   1165   1187     1  0.0000000  0.6508444  3
   1165   1166   1169   1170     1  0.0000000  0.6508444  3
   1165   1166   1169   1171     1  0.0000000  0.6508444  3
   1165   1176   1179   1180     1  0.0000000  0.6508444  3
   1165   1176   1179   1181     1  0.0000000  0.6508444  3
   1166   1165   1176   1177     1  0.0000000  0.6508444  3
   1166   1165   1176   1178     1  0.0000000  0.6508444  3
   1167   1166   1165   1176     1  0.0000000  0.6508444  3
   1167   1166   1165   1187     1  0.0000000  0.6508444  3
   1167   1166   1169   1172     1  0.0000000  0.6508444  3
   1167   1166   1169   1170     1  0.0000000  0.6508444  3
   1167   1166   1169   1171     1  0.0000000  0.6508444  3
   1168   1166   1165   1176     1  0.0000000  0.6508444  3
   1168   1166   1165   1187     1  0.0000000  0.6508444  3
   1168   1166   1169   1172     1  0.0000000  0.6508444  3
   1168   1166   1169   1170     1  0.0000000  0.6508444  3
   1168   1166   1169   1171     1  0.0000000  0.6508444  3
   1169   1166   1165   1187     1  0.0000000  0.6508444  3
   1169   1172   1174   1175     1  180.0000771  9.6232000  2
   1170   1169   1172   1173     1  0.0000000  3.3472000  1
   1170   1169   1172   1173     1  0.0000000  0.0000000  2
   1170   1169   1172   1173     1  180.0000771  0.3347200  3
   1170   1169   1172   1174     1  180.0000771  0.0000000  2
   1171   1169   1172   1173     1  0.0000000  3.3472000  1
   1171   1169   1172   1173     1  0.0000000  0.0000000  2
   1171   1169   1172   1173     1  180.0000771  0.3347200  3
   1171   1169   1172   1174     1  180.0000771  0.0000000  2
   1173   1172   1174   1175     1  0.0000000  7.9496000  1
   1173   1172   1174   1175     1  180.0000771  9.6232000  2
   1177   1176   1165   1187     1  0.0000000  0.6508444  3
   1177   1176   1179   1182     1  0.0000000  0.6508444  3
   1177   1176   1179   1180     1  0.0000000  0.6508444  3
   1177   1176   1179   1181     1  0.0000000  0.6508444  3
   1178   1176   1165   1187     1  0.0000000  0.6508444  3
   1178   1176   1179   1182     1  0.0000000  0.6508444  3
   1178   1176   1179   1180     1  0.0000000  0.6508444  3
   1178   1176   1179   1181     1  0.0000000  0.6508444  3
   1179   1176   1165   1187     1  0.0000000  0.6508444  3
   1179   1182   1184   1185     1  180.0000771  9.6232000  2
   1180   1179   1182   1183     1  0.0000000  3.3472000  1
   1180   1179   1182   1183     1  0.0000000  0.0000000  2
   1180   1179   1182   1183     1  180.0000771  0.3347200  3
   1180   1179   1182   1184     1  180.0000771  0.0000000  2
   1181   1179   1182   1183     1  0.0000000  3.3472000  1
   1181   1179   1182   1183     1  0.0000000  0.0000000  2
   1181   1179   1182   1183     1  180.0000771  0.3347200  3
   1181   1179   1182   1184     1  180.0000771  0.0000000  2
   1183   1182   1184   1185     1  0.0000000  7.9496000  1
   1183   1182   1184   1185     1  180.0000771  9.6232000  2
   1188   1191   1194   1195     1  0.0000000  0.6508444  3
   1188   1191   1194   1196     1  0.0000000  0.6508444  3
   1189   1188   1191   1194     1  0.0000000  0.6508444  3
   1189   1188   1191   1192     1  0.0000000  0.6508444  3
   1189   1188   1191   1193     1  0.0000000  0.6508444  3
   1190   1188   1191   1194     1  0.0000000  0.6508444  3
   1190   1188   1191   1192     1  0.0000000  0.6508444  3
   1190   1188   1191   1193     1  0.0000000  0.6508444  3
   1191   1194   1197   1219     1  0.0000000  0.6508444  3
   1192   1191   1194   1197     1  0.0000000  0.6508444  3
   1192   1191   1194   1195     1  0.0000000  0.6508444  3
   1192   1191   1194   1196     1  0.0000000  0.6508444  3
   1192   1191   1188   1218     1  0.0000000  1.0460000  1
   1192   1191   1188   1218     1  0.0000000  0.0000000  3
   1193   1191   1194   1197     1  0.0000000  0.6508444  3
   1193   1191   1194   1195     1  0.0000000  0.6508444  3
   1193   1191   1194   1196     1  0.0000000  0.6508444  3
   1193   1191   1188   1218     1  0.0000000  1.0460000  1
   1193   1191   1188   1218     1  0.0000000  0.0000000  3
   1194   1197   1198   1199     1  0.0000000  0.6508444  3
   1194   1197   1198   1200     1  0.0000000  0.6508444  3
   1194   1197   1208   1209     1  0.0000000  0.6508444  3
   1194   1197   1208   1210     1  0.0000000  0.6508444  3
   1195   1194   1197   1198     1  0.0000000  0.6508444  3
   1195   1194   1197   1208     1  0.0000000  0.6508444  3
   1195   1194   1197   1219     1  0.0000000  0.6508444  3
   1196   1194   1197   1198     1  0.0000000  0.6508444  3
   1196   1194   1197   1208     1  0.0000000  0.6508444  3
   1196   1194   1197   1219     1  0.0000000  0.6508444  3
   1197   1198   1201   1202     1  0.0000000  0.6508444  3
   1197   1198   1201   1203     1  0.0000000  0.6508444  3
   1197   1208   1211   1212     1  0.0000000  0.6508444  3
   1197   1208   1211   1213     1  0.0000000  0.6508444  3
   1198   1197   1208   1209     1  0.0000000  0.6508444  3
   1198   1197   1208   1210     1  0.0000000  0.6508444  3
   1199   1198   1201   1204     1  0.0000000  0.6508444  3
   1199   1198   1201   1202     1  0.0000000  0.6508444  3
   1199   1198   1201   1203     1  0.0000000  0.6508444  3
   1199   1198   1197   1208     1  0.0000000  0.6508444  3
   1199   1198   1197   1219     1  0.0000000  0.6508444  3
   1200   1198   1201   1204     1  0.0000000  0.6508444  3
   1200   1198   1201   1202     1  0.0000000  0.6508444  3
   1200   1198   1201   1203     1  0.0000000  0.6508444  3
   1200   1198   1197   1208     1  0.0000000  0.6508444  3
   1200   1198   1197   1219     1  0.0000000  0.6508444  3
   1201   1204   1206   1207     1  180.0000771  9.6232000  2
   1201   1198   1197   1219     1  0.0000000  0.6508444  3
   1202   1201   1204   1205     1  0.0000000  3.3472000  1
   1202   1201   1204   1205     1  0.0000000  0.0000000  2
   1202   1201   1204   1205     1  180.0000771  0.3347200  3
   1202   1201   1204   1206     1  180.0000771  0.0000000  2
   1203   1201   1204   1205     1  0.0000000  3.3472000  1
   1203   1201   1204   1205     1  0.0000000  0.0000000  2
   1203   1201   1204   1205     1  180.0000771  0.3347200  3
   1203   1201   1204   1206     1  180.0000771  0.0000000  2
   1205   1204   1206   1207     1  0.0000000  7.9496000  1
   1205   1204   1206   1207     1  180.0000771  9.6232000  2
   1209   1208   1211   1214     1  0.0000000  0.6508444  3
   1209   1208   1211   1212     1  0.0000000  0.6508444  3
   1209   1208   1211   1213     1  0.0000000  0.6508444  3
   1209   1208   1197   1219     1  0.0000000  0.6508444  3
   1210   1208   1211   1214     1  0.0000000  0.6508444  3
   1210   1208   1211   1212     1  0.0000000  0.6508444  3
   1210   1208   1211   1213     1  0.0000000  0.6508444  3
   1210   1208   1197   1219     1  0.0000000  0.6508444  3
   1211   1214   1216   1217     1  180.0000771  9.6232000  2
   1211   1208   1197   1219     1  0.0000000  0.6508444  3
   1212   1211   1214   1215     1  0.0000000  3.3472000  1
   1212   1211   1214   1215     1  0.0000000  0.0000000  2
   1212   1211   1214   1215     1  180.0000771  0.3347200  3
   1212   1211   1214   1216     1  180.0000771  0.0000000  2
   1213   1211   1214   1215     1  0.0000000  3.3472000  1
   1213   1211   1214   1215     1  0.0000000  0.0000000  2
   1213   1211   1214   1215     1  180.0000771  0.3347200  3
   1213   1211   1214   1216     1  180.0000771  0.0000000  2
   1215   1214   1216   1217     1  0.0000000  7.9496000  1
   1215   1214   1216   1217     1  180.0000771  9.6232000  2
   1220   1223   1226   1227     1  0.0000000  0.6508444  3
   1220   1223   1226   1228     1  0.0000000  0.6508444  3
   1221   1220   1223   1226     1  0.0000000  0.6508444  3
   1221   1220   1223   1224     1  0.0000000  0.6508444  3
   1221   1220   1223   1225     1  0.0000000  0.6508444  3
   1222   1220   1223   1226     1  0.0000000  0.6508444  3
   1222   1220   1223   1224     1  0.0000000  0.6508444  3
   1222   1220   1223   1225     1  0.0000000  0.6508444  3
   1223   1226   1229   1251     1  0.0000000  0.6508444  3
   1224   1223   1220   1250     1  0.0000000  1.0460000  1
   1224   1223   1220   1250     1  0.0000000  0.0000000  3
   1224   1223   1226   1229     1  0.0000000  0.6508444  3
   1224   1223   1226   1227     1  0.0000000  0.6508444  3
   1224   1223   1226   1228     1  0.0000000  0.6508444  3
   1225   1223   1220   1250     1  0.0000000  1.0460000  1
   1225   1223   1220   1250     1  0.0000000  0.0000000  3
   1225   1223   1226   1229     1  0.0000000  0.6508444  3
   1225   1223   1226   1227     1  0.0000000  0.6508444  3
   1225   1223   1226   1228     1  0.0000000  0.6508444  3
   1226   1229   1230   1231     1  0.0000000  0.6508444  3
   1226   1229   1230   1232     1  0.0000000  0.6508444  3
   1226   1229   1240   1241     1  0.0000000  0.6508444  3
   1226   1229   1240   1242     1  0.0000000  0.6508444  3
   1227   1226   1229   1230     1  0.0000000  0.6508444  3
   1227   1226   1229   1240     1  0.0000000  0.6508444  3
   1227   1226   1229   1251     1  0.0000000  0.6508444  3
   1228   1226   1229   1230     1  0.0000000  0.6508444  3
   1228   1226   1229   1240     1  0.0000000  0.6508444  3
   1228   1226   1229   1251     1  0.0000000  0.6508444  3
   1229   1230   1233   1234     1  0.0000000  0.6508444  3
   1229   1230   1233   1235     1  0.0000000  0.6508444  3
   1229   1240   1243   1244     1  0.0000000  0.6508444  3
   1229   1240   1243   1245     1  0.0000000  0.6508444  3
   1230   1229   1240   1241     1  0.0000000  0.6508444  3
   1230   1229   1240   1242     1  0.0000000  0.6508444  3
   1231   1230   1229   1240     1  0.0000000  0.6508444  3
   1231   1230   1229   1251     1  0.0000000  0.6508444  3
   1231   1230   1233   1236     1  0.0000000  0.6508444  3
   1231   1230   1233   1234     1  0.0000000  0.6508444  3
   1231   1230   1233   1235     1  0.0000000  0.6508444  3
   1232   1230   1229   1240     1  0.0000000  0.6508444  3
   1232   1230   1229   1251     1  0.0000000  0.6508444  3
   1232   1230   1233   1236     1  0.0000000  0.6508444  3
   1232   1230   1233   1234     1  0.0000000  0.6508444  3
   1232   1230   1233   1235     1  0.0000000  0.6508444  3
   1233   1230   1229   1251     1  0.0000000  0.6508444  3
   1233   1236   1238   1239     1  180.0000771  9.6232000  2
   1234   1233   1236   1237     1  0.0000000  3.3472000  1
   1234   1233   1236   1237     1  0.0000000  0.0000000  2
   1234   1233   1236   1237     1  180.0000771  0.3347200  3
   1234   1233   1236   1238     1  180.0000771  0.0000000  2
   1235   1233   1236   1237     1  0.0000000  3.3472000  1
   1235   1233   1236   1237     1  0.0000000  0.0000000  2
   1235   1233   1236   1237     1  180.0000771  0.3347200  3
   1235   1233   1236   1238     1  180.0000771  0.0000000  2
   1237   1236   1238   1239     1  0.0000000  7.9496000  1
   1237   1236   1238   1239     1  180.0000771  9.6232000  2
   1241   1240   1229   1251     1  0.0000000  0.6508444  3
   1241   1240   1243   1246     1  0.0000000  0.6508444  3
   1241   1240   1243   1244     1  0.0000000  0.6508444  3
   1241   1240   1243   1245     1  0.0000000  0.6508444  3
   1242   1240   1229   1251     1  0.0000000  0.6508444  3
   1242   1240   1243   1246     1  0.0000000  0.6508444  3
   1242   1240   1243   1244     1  0.0000000  0.6508444  3
   1242   1240   1243   1245     1  0.0000000  0.6508444  3
   1243   1240   1229   1251     1  0.0000000  0.6508444  3
   1243   1246   1248   1249     1  180.0000771  9.6232000  2
   1244   1243   1246   1247     1  0.0000000  3.3472000  1
   1244   1243   1246   1247     1  0.0000000  0.0000000  2
   1244   1243   1246   1247     1  180.0000771  0.3347200  3
   1244   1243   1246   1248     1  180.0000771  0.0000000  2
   1245   1243   1246   1247     1  0.0000000  3.3472000  1
   1245   1243   1246   1247     1  0.0000000  0.0000000  2
   1245   1243   1246   1247     1  180.0000771  0.3347200  3
   1245   1243   1246   1248     1  180.0000771  0.0000000  2
   1247   1246   1248   1249     1  0.0000000  7.9496000  1
   1247   1246   1248   1249     1  180.0000771  9.6232000  2
   1252   1255   1258   1259     1  0.0000000  0.6508444  3
   1252   1255   1258   1260     1  0.0000000  0.6508444  3
   1253   1252   1255   1258     1  0.0000000  0.6508444  3
   1253   1252   1255   1256     1  0.0000000  0.6508444  3
   1253   1252   1255   1257     1  0.0000000  0.6508444  3
   1254   1252   1255   1258     1  0.0000000  0.6508444  3
   1254   1252   1255   1256     1  0.0000000  0.6508444  3
   1254   1252   1255   1257     1  0.0000000  0.6508444  3
   1255   1258   1261   1283     1  0.0000000  0.6508444  3
   1256   1255   1258   1261     1  0.0000000  0.6508444  3
   1256   1255   1258   1259     1  0.0000000  0.6508444  3
   1256   1255   1258   1260     1  0.0000000  0.6508444  3
   1256   1255   1252   1282     1  0.0000000  1.0460000  1
   1256   1255   1252   1282     1  0.0000000  0.0000000  3
   1257   1255   1258   1261     1  0.0000000  0.6508444  3
   1257   1255   1258   1259     1  0.0000000  0.6508444  3
   1257   1255   1258   1260     1  0.0000000  0.6508444  3
   1257   1255   1252   1282     1  0.0000000  1.0460000  1
   1257   1255   1252   1282     1  0.0000000  0.0000000  3
   1258   1261   1262   1263     1  0.0000000  0.6508444  3
   1258   1261   1262   1264     1  0.0000000  0.6508444  3
   1258   1261   1272   1273     1  0.0000000  0.6508444  3
   1258   1261   1272   1274     1  0.0000000  0.6508444  3
   1259   1258   1261   1262     1  0.0000000  0.6508444  3
   1259   1258   1261   1272     1  0.0000000  0.6508444  3
   1259   1258   1261   1283     1  0.0000000  0.6508444  3
   1260   1258   1261   1262     1  0.0000000  0.6508444  3
   1260   1258   1261   1272     1  0.0000000  0.6508444  3
   1260   1258   1261   1283     1  0.0000000  0.6508444  3
   1261   1262   1265   1266     1  0.0000000  0.6508444  3
   1261   1262   1265   1267     1  0.0000000  0.6508444  3
   1261   1272   1275   1276     1  0.0000000  0.6508444  3
   1261   1272   1275   1277     1  0.0000000  0.6508444  3
   1262   1261   1272   1273     1  0.0000000  0.6508444  3
   1262   1261   1272   1274     1  0.0000000  0.6508444  3
   1263   1262   1265   1268     1  0.0000000  0.6508444  3
   1263   1262   1265   1266     1  0.0000000  0.6508444  3
   1263   1262   1265   1267     1  0.0000000  0.6508444  3
   1263   1262   1261   1272     1  0.0000000  0.6508444  3
   1263   1262   1261   1283     1  0.0000000  0.6508444  3
   1264   1262   1265   1268     1  0.0000000  0.6508444  3
   1264   1262   1265   1266     1  0.0000000  0.6508444  3
   1264   1262   1265   1267     1  0.0000000  0.6508444  3
   1264   1262   1261   1272     1  0.0000000  0.6508444  3
   1264   1262   1261   1283     1  0.0000000  0.6508444  3
   1265   1268   1270   1271     1  180.0000771  9.6232000  2
   1265   1262   1261   1283     1  0.0000000  0.6508444  3
   1266   1265   1268   1269     1  0.0000000  3.3472000  1
   1266   1265   1268   1269     1  0.0000000  0.0000000  2
   1266   1265   1268   1269     1  180.0000771  0.3347200  3
   1266   1265   1268   1270     1  180.0000771  0.0000000  2
   1267   1265   1268   1269     1  0.0000000  3.3472000  1
   1267   1265   1268   1269     1  0.0000000  0.0000000  2
   1267   1265   1268   1269     1  180.0000771  0.3347200  3
   1267   1265   1268   1270     1  180.0000771  0.0000000  2
   1269   1268   1270   1271     1  0.0000000  7.9496000  1
   1269   1268   1270   1271     1  180.0000771  9.6232000  2
   1273   1272   1275   1278     1  0.0000000  0.6508444  3
   1273   1272   1275   1276     1  0.0000000  0.6508444  3
   1273   1272   1275   1277     1  0.0000000  0.6508444  3
   1273   1272   1261   1283     1  0.0000000  0.6508444  3
   1274   1272   1275   1278     1  0.0000000  0.6508444  3
   1274   1272   1275   1276     1  0.0000000  0.6508444  3
   1274   1272   1275   1277     1  0.0000000  0.6508444  3
   1274   1272   1261   1283     1  0.0000000  0.6508444  3
   1275   1278   1280   1281     1  180.0000771  9.6232000  2
   1275   1272   1261   1283     1  0.0000000  0.6508444  3
   1276   1275   1278   1279     1  0.0000000  3.3472000  1
   1276   1275   1278   1279     1  0.0000000  0.0000000  2
   1276   1275   1278   1279     1  180.0000771  0.3347200  3
   1276   1275   1278   1280     1  180.0000771  0.0000000  2
   1277   1275   1278   1279     1  0.0000000  3.3472000  1
   1277   1275   1278   1279     1  0.0000000  0.0000000  2
   1277   1275   1278   1279     1  180.0000771  0.3347200  3
   1277   1275   1278   1280     1  180.0000771  0.0000000  2
   1279   1278   1280   1281     1  0.0000000  7.9496000  1
   1279   1278   1280   1281     1  180.0000771  9.6232000  2
   1284   1287   1290   1291     1  0.0000000  0.6508444  3
   1284   1287   1290   1292     1  0.0000000  0.6508444  3
   1285   1284   1287   1290     1  0.0000000  0.6508444  3
   1285   1284   1287   1288     1  0.0000000  0.6508444  3
   1285   1284   1287   1289     1  0.0000000  0.6508444  3
   1286   1284   1287   1290     1  0.0000000  0.6508444  3
   1286   1284   1287   1288     1  0.0000000  0.6508444  3
   1286   1284   1287   1289     1  0.0000000  0.6508444  3
   1287   1290   1293   1315     1  0.0000000  0.6508444  3
   1288   1287   1284   1314     1  0.0000000  1.0460000  1
   1288   1287   1284   1314     1  0.0000000  0.0000000  3
   1288   1287   1290   1293     1  0.0000000  0.6508444  3
   1288   1287   1290   1291     1  0.0000000  0.6508444  3
   1288   1287   1290   1292     1  0.0000000  0.6508444  3
   1289   1287   1284   1314     1  0.0000000  1.0460000  1
   1289   1287   1284   1314     1  0.0000000  0.0000000  3
   1289   1287   1290   1293     1  0.0000000  0.6508444  3
   1289   1287   1290   1291     1  0.0000000  0.6508444  3
   1289   1287   1290   1292     1  0.0000000  0.6508444  3
   1290   1293   1294   1295     1  0.0000000  0.6508444  3
   1290   1293   1294   1296     1  0.0000000  0.6508444  3
   1290   1293   1304   1305     1  0.0000000  0.6508444  3
   1290   1293   1304   1306     1  0.0000000  0.6508444  3
   1291   1290   1293   1294     1  0.0000000  0.6508444  3
   1291   1290   1293   1304     1  0.0000000  0.6508444  3
   1291   1290   1293   1315     1  0.0000000  0.6508444  3
   1292   1290   1293   1294     1  0.0000000  0.6508444  3
   1292   1290   1293   1304     1  0.0000000  0.6508444  3
   1292   1290   1293   1315     1  0.0000000  0.6508444  3
   1293   1294   1297   1298     1  0.0000000  0.6508444  3
   1293   1294   1297   1299     1  0.0000000  0.6508444  3
   1293   1304   1307   1308     1  0.0000000  0.6508444  3
   1293   1304   1307   1309     1  0.0000000  0.6508444  3
   1294   1293   1304   1305     1  0.0000000  0.6508444  3
   1294   1293   1304   1306     1  0.0000000  0.6508444  3
   1295   1294   1293   1304     1  0.0000000  0.6508444  3
   1295   1294   1293   1315     1  0.0000000  0.6508444  3
   1295   1294   1297   1300     1  0.0000000  0.6508444  3
   1295   1294   1297   1298     1  0.0000000  0.6508444  3
   1295   1294   1297   1299     1  0.0000000  0.6508444  3
   1296   1294   1293   1304     1  0.0000000  0.6508444  3
   1296   1294   1293   1315     1  0.0000000  0.6508444  3
   1296   1294   1297   1300     1  0.0000000  0.6508444  3
   1296   1294   1297   1298     1  0.0000000  0.6508444  3
   1296   1294   1297   1299     1  0.0000000  0.6508444  3
   1297   1294   1293   1315     1  0.0000000  0.6508444  3
   1297   1300   1302   1303     1  180.0000771  9.6232000  2
   1298   1297   1300   1301     1  0.0000000  3.3472000  1
   1298   1297   1300   1301     1  0.0000000  0.0000000  2
   1298   1297   1300   1301     1  180.0000771  0.3347200  3
   1298   1297   1300   1302     1  180.0000771  0.0000000  2
   1299   1297   1300   1301     1  0.0000000  3.3472000  1
   1299   1297   1300   1301     1  0.0000000  0.0000000  2
   1299   1297   1300   1301     1  180.0000771  0.3347200  3
   1299   1297   1300   1302     1  180.0000771  0.0000000  2
   1301   1300   1302   1303     1  0.0000000  7.9496000  1
   1301   1300   1302   1303     1  180.0000771  9.6232000  2
   1305   1304   1293   1315     1  0.0000000  0.6508444  3
   1305   1304   1307   1310     1  0.0000000  0.6508444  3
   1305   1304   1307   1308     1  0.0000000  0.6508444  3
   1305   1304   1307   1309     1  0.0000000  0.6508444  3
   1306   1304   1293   1315     1  0.0000000  0.6508444  3
   1306   1304   1307   1310     1  0.0000000  0.6508444  3
   1306   1304   1307   1308     1  0.0000000  0.6508444  3
   1306   1304   1307   1309     1  0.0000000  0.6508444  3
   1307   1304   1293   1315     1  0.0000000  0.6508444  3
   1307   1310   1312   1313     1  180.0000771  9.6232000  2
   1308   1307   1310   1311     1  0.0000000  3.3472000  1
   1308   1307   1310   1311     1  0.0000000  0.0000000  2
   1308   1307   1310   1311     1  180.0000771  0.3347200  3
   1308   1307   1310   1312     1  180.0000771  0.0000000  2
   1309   1307   1310   1311     1  0.0000000  3.3472000  1
   1309   1307   1310   1311     1  0.0000000  0.0000000  2
   1309   1307   1310   1311     1  180.0000771  0.3347200  3
   1309   1307   1310   1312     1  180.0000771  0.0000000  2
   1311   1310   1312   1313     1  0.0000000  7.9496000  1
   1311   1310   1312   1313     1  180.0000771  9.6232000  2
   1316   1319   1322   1323     1  0.0000000  0.6508444  3
   1316   1319   1322   1324     1  0.0000000  0.6508444  3
   1317   1316   1319   1322     1  0.0000000  0.6508444  3
   1317   1316   1319   1320     1  0.0000000  0.6508444  3
   1317   1316   1319   1321     1  0.0000000  0.6508444  3
   1318   1316   1319   1322     1  0.0000000  0.6508444  3
   1318   1316   1319   1320     1  0.0000000  0.6508444  3
   1318   1316   1319   1321     1  0.0000000  0.6508444  3
   1319   1322   1325   1347     1  0.0000000  0.6508444  3
   1320   1319   1322   1325     1  0.0000000  0.6508444  3
   1320   1319   1322   1323     1  0.0000000  0.6508444  3
   1320   1319   1322   1324     1  0.0000000  0.6508444  3
   1320   1319   1316   1346     1  0.0000000  1.0460000  1
   1320   1319   1316   1346     1  0.0000000  0.0000000  3
   1321   1319   1322   1325     1  0.0000000  0.6508444  3
   1321   1319   1322   1323     1  0.0000000  0.6508444  3
   1321   1319   1322   1324     1  0.0000000  0.6508444  3
   1321   1319   1316   1346     1  0.0000000  1.0460000  1
   1321   1319   1316   1346     1  0.0000000  0.0000000  3
   1322   1325   1326   1327     1  0.0000000  0.6508444  3
   1322   1325   1326   1328     1  0.0000000  0.6508444  3
   1322   1325   1336   1337     1  0.0000000  0.6508444  3
   1322   1325   1336   1338     1  0.0000000  0.6508444  3
   1323   1322   1325   1326     1  0.0000000  0.6508444  3
   1323   1322   1325   1336     1  0.0000000  0.6508444  3
   1323   1322   1325   1347     1  0.0000000  0.6508444  3
   1324   1322   1325   1326     1  0.0000000  0.6508444  3
   1324   1322   1325   1336     1  0.0000000  0.6508444  3
   1324   1322   1325   1347     1  0.0000000  0.6508444  3
   1325   1326   1329   1330     1  0.0000000  0.6508444  3
   1325   1326   1329   1331     1  0.0000000  0.6508444  3
   1325   1336   1339   1340     1  0.0000000  0.6508444  3
   1325   1336   1339   1341     1  0.0000000  0.6508444  3
   1326   1325   1336   1337     1  0.0000000  0.6508444  3
   1326   1325   1336   1338     1  0.0000000  0.6508444  3
   1327   1326   1329   1332     1  0.0000000  0.6508444  3
   1327   1326   1329   1330     1  0.0000000  0.6508444  3
   1327   1326   1329   1331     1  0.0000000  0.6508444  3
   1327   1326   1325   1336     1  0.0000000  0.6508444  3
   1327   1326   1325   1347     1  0.0000000  0.6508444  3
   1328   1326   1329   1332     1  0.0000000  0.6508444  3
   1328   1326   1329   1330     1  0.0000000  0.6508444  3
   1328   1326   1329   1331     1  0.0000000  0.6508444  3
   1328   1326   1325   1336     1  0.0000000  0.6508444  3
   1328   1326   1325   1347     1  0.0000000  0.6508444  3
   1329   1332   1334   1335     1  180.0000771  9.6232000  2
   1329   1326   1325   1347     1  0.0000000  0.6508444  3
   1330   1329   1332   1333     1  0.0000000  3.3472000  1
   1330   1329   1332   1333     1  0.0000000  0.0000000  2
   1330   1329   1332   1333     1  180.0000771  0.3347200  3
   1330   1329   1332   1334     1  180.0000771  0.0000000  2
   1331   1329   1332   1333     1  0.0000000  3.3472000  1
   1331   1329   1332   1333     1  0.0000000  0.0000000  2
   1331   1329   1332   1333     1  180.0000771  0.3347200  3
   1331   1329   1332   1334     1  180.0000771  0.0000000  2
   1333   1332   1334   1335     1  0.0000000  7.9496000  1
   1333   1332   1334   1335     1  180.0000771  9.6232000  2
   1337   1336   1339   1342     1  0.0000000  0.6508444  3
   1337   1336   1339   1340     1  0.0000000  0.6508444  3
   1337   1336   1339   1341     1  0.0000000  0.6508444  3
   1337   1336   1325   1347     1  0.0000000  0.6508444  3
   1338   1336   1339   1342     1  0.0000000  0.6508444  3
   1338   1336   1339   1340     1  0.0000000  0.6508444  3
   1338   1336   1339   1341     1  0.0000000  0.6508444  3
   1338   1336   1325   1347     1  0.0000000  0.6508444  3
   1339   1342   1344   1345     1  180.0000771  9.6232000  2
   1339   1336   1325   1347     1  0.0000000  0.6508444  3
   1340   1339   1342   1343     1  0.0000000  3.3472000  1
   1340   1339   1342   1343     1  0.0000000  0.0000000  2
   1340   1339   1342   1343     1  180.0000771  0.3347200  3
   1340   1339   1342   1344     1  180.0000771  0.0000000  2
   1341   1339   1342   1343     1  0.0000000  3.3472000  1
   1341   1339   1342   1343     1  0.0000000  0.0000000  2
   1341   1339   1342   1343     1  180.0000771  0.3347200  3
   1341   1339   1342   1344     1  180.0000771  0.0000000  2
   1343   1342   1344   1345     1  0.0000000  7.9496000  1
   1343   1342   1344   1345     1  180.0000771  9.6232000  2
   1348   1351   1354   1355     1  0.0000000  0.6508444  3
   1348   1351   1354   1356     1  0.0000000  0.6508444  3
   1349   1348   1351   1354     1  0.0000000  0.6508444  3
   1349   1348   1351   1352     1  0.0000000  0.6508444  3
   1349   1348   1351   1353     1  0.0000000  0.6508444  3
   1350   1348   1351   1354     1  0.0000000  0.6508444  3
   1350   1348   1351   1352     1  0.0000000  0.6508444  3
   1350   1348   1351   1353     1  0.0000000  0.6508444  3
   1351   1354   1357   1379     1  0.0000000  0.6508444  3
   1352   1351   1348   1378     1  0.0000000  1.0460000  1
   1352   1351   1348   1378     1  0.0000000  0.0000000  3
   1352   1351   1354   1357     1  0.0000000  0.6508444  3
   1352   1351   1354   1355     1  0.0000000  0.6508444  3
   1352   1351   1354   1356     1  0.0000000  0.6508444  3
   1353   1351   1348   1378     1  0.0000000  1.0460000  1
   1353   1351   1348   1378     1  0.0000000  0.0000000  3
   1353   1351   1354   1357     1  0.0000000  0.6508444  3
   1353   1351   1354   1355     1  0.0000000  0.6508444  3
   1353   1351   1354   1356     1  0.0000000  0.6508444  3
   1354   1357   1358   1359     1  0.0000000  0.6508444  3
   1354   1357   1358   1360     1  0.0000000  0.6508444  3
   1354   1357   1368   1369     1  0.0000000  0.6508444  3
   1354   1357   1368   1370     1  0.0000000  0.6508444  3
   1355   1354   1357   1358     1  0.0000000  0.6508444  3
   1355   1354   1357   1368     1  0.0000000  0.6508444  3
   1355   1354   1357   1379     1  0.0000000  0.6508444  3
   1356   1354   1357   1358     1  0.0000000  0.6508444  3
   1356   1354   1357   1368     1  0.0000000  0.6508444  3
   1356   1354   1357   1379     1  0.0000000  0.6508444  3
   1357   1358   1361   1362     1  0.0000000  0.6508444  3
   1357   1358   1361   1363     1  0.0000000  0.6508444  3
   1357   1368   1371   1372     1  0.0000000  0.6508444  3
   1357   1368   1371   1373     1  0.0000000  0.6508444  3
   1358   1357   1368   1369     1  0.0000000  0.6508444  3
   1358   1357   1368   1370     1  0.0000000  0.6508444  3
   1359   1358   1357   1368     1  0.0000000  0.6508444  3
   1359   1358   1357   1379     1  0.0000000  0.6508444  3
   1359   1358   1361   1364     1  0.0000000  0.6508444  3
   1359   1358   1361   1362     1  0.0000000  0.6508444  3
   1359   1358   1361   1363     1  0.0000000  0.6508444  3
   1360   1358   1357   1368     1  0.0000000  0.6508444  3
   1360   1358   1357   1379     1  0.0000000  0.6508444  3
   1360   1358   1361   1364     1  0.0000000  0.6508444  3
   1360   1358   1361   1362     1  0.0000000  0.6508444  3
   1360   1358   1361   1363     1  0.0000000  0.6508444  3
   1361   1358   1357   1379     1  0.0000000  0.6508444  3
   1361   1364   1366   1367     1  180.0000771  9.6232000  2
   1362   1361   1364   1365     1  0.0000000  3.3472000  1
   1362   1361   1364   1365     1  0.0000000  0.0000000  2
   1362   1361   1364   1365     1  180.0000771  0.3347200  3
   1362   1361   1364   1366     1  180.0000771  0.0000000  2
   1363   1361   1364   1365     1  0.0000000  3.3472000  1
   1363   1361   1364   1365     1  0.0000000  0.0000000  2
   1363   1361   1364   1365     1  180.0000771  0.3347200  3
   1363   1361   1364   1366     1  180.0000771  0.0000000  2
   1365   1364   1366   1367     1  0.0000000  7.9496000  1
   1365   1364   1366   1367     1  180.0000771  9.6232000  2
   1369   1368   1357   1379     1  0.0000000  0.6508444  3
   1369   1368   1371   1374     1  0.0000000  0.6508444  3
   1369   1368   1371   1372     1  0.0000000  0.6508444  3
   1369   1368   1371   1373     1  0.0000000  0.6508444  3
   1370   1368   1357   1379     1  0.0000000  0.6508444  3
   1370   1368   1371   1374     1  0.0000000  0.6508444  3
   1370   1368   1371   1372     1  0.0000000  0.6508444  3
   1370   1368   1371   1373     1  0.0000000  0.6508444  3
   1371   1368   1357   1379     1  0.0000000  0.6508444  3
   1371   1374   1376   1377     1  180.0000771  9.6232000  2
   1372   1371   1374   1375     1  0.0000000  3.3472000  1
   1372   1371   1374   1375     1  0.0000000  0.0000000  2
   1372   1371   1374   1375     1  180.0000771  0.3347200  3
   1372   1371   1374   1376     1  180.0000771  0.0000000  2
   1373   1371   1374   1375     1  0.0000000  3.3472000  1
   1373   1371   1374   1375     1  0.0000000  0.0000000  2
   1373   1371   1374   1375     1  180.0000771  0.3347200  3
   1373   1371   1374   1376     1  180.0000771  0.0000000  2
   1375   1374   1376   1377     1  0.0000000  7.9496000  1
   1375   1374   1376   1377     1  180.0000771  9.6232000  2
   1380   1383   1386   1387     1  0.0000000  0.6508444  3
   1380   1383   1386   1388     1  0.0000000  0.6508444  3
   1381   1380   1383   1386     1  0.0000000  0.6508444  3
   1381   1380   1383   1384     1  0.0000000  0.6508444  3
   1381   1380   1383   1385     1  0.0000000  0.6508444  3
   1382   1380   1383   1386     1  0.0000000  0.6508444  3
   1382   1380   1383   1384     1  0.0000000  0.6508444  3
   1382   1380   1383   1385     1  0.0000000  0.6508444  3
   1383   1386   1389   1411     1  0.0000000  0.6508444  3
   1384   1383   1386   1389     1  0.0000000  0.6508444  3
   1384   1383   1386   1387     1  0.0000000  0.6508444  3
   1384   1383   1386   1388     1  0.0000000  0.6508444  3
   1384   1383   1380   1410     1  0.0000000  1.0460000  1
   1384   1383   1380   1410     1  0.0000000  0.0000000  3
   1385   1383   1386   1389     1  0.0000000  0.6508444  3
   1385   1383   1386   1387     1  0.0000000  0.6508444  3
   1385   1383   1386   1388     1  0.0000000  0.6508444  3
   1385   1383   1380   1410     1  0.0000000  1.0460000  1
   1385   1383   1380   1410     1  0.0000000  0.0000000  3
   1386   1389   1390   1391     1  0.0000000  0.6508444  3
   1386   1389   1390   1392     1  0.0000000  0.6508444  3
   1386   1389   1400   1401     1  0.0000000  0.6508444  3
   1386   1389   1400   1402     1  0.0000000  0.6508444  3
   1387   1386   1389   1390     1  0.0000000  0.6508444  3
   1387   1386   1389   1400     1  0.0000000  0.6508444  3
   1387   1386   1389   1411     1  0.0000000  0.6508444  3
   1388   1386   1389   1390     1  0.0000000  0.6508444  3
   1388   1386   1389   1400     1  0.0000000  0.6508444  3
   1388   1386   1389   1411     1  0.0000000  0.6508444  3
   1389   1390   1393   1394     1  0.0000000  0.6508444  3
   1389   1390   1393   1395     1  0.0000000  0.6508444  3
   1389   1400   1403   1404     1  0.0000000  0.6508444  3
   1389   1400   1403   1405     1  0.0000000  0.6508444  3
   1390   1389   1400   1401     1  0.0000000  0.6508444  3
   1390   1389   1400   1402     1  0.0000000  0.6508444  3
   1391   1390   1393   1396     1  0.0000000  0.6508444  3
   1391   1390   1393   1394     1  0.0000000  0.6508444  3
   1391   1390   1393   1395     1  0.0000000  0.6508444  3
   1391   1390   1389   1400     1  0.0000000  0.6508444  3
   1391   1390   1389   1411     1  0.0000000  0.6508444  3
   1392   1390   1393   1396     1  0.0000000  0.6508444  3
   1392   1390   1393   1394     1  0.0000000  0.6508444  3
   1392   1390   1393   1395     1  0.0000000  0.6508444  3
   1392   1390   1389   1400     1  0.0000000  0.6508444  3
   1392   1390   1389   1411     1  0.0000000  0.6508444  3
   1393   1396   1398   1399     1  180.0000771  9.6232000  2
   1393   1390   1389   1411     1  0.0000000  0.6508444  3
   1394   1393   1396   1397     1  0.0000000  3.3472000  1
   1394   1393   1396   1397     1  0.0000000  0.0000000  2
   1394   1393   1396   1397     1  180.0000771  0.3347200  3
   1394   1393   1396   1398     1  180.0000771  0.0000000  2
   1395   1393   1396   1397     1  0.0000000  3.3472000  1
   1395   1393   1396   1397     1  0.0000000  0.0000000  2
   1395   1393   1396   1397     1  180.0000771  0.3347200  3
   1395   1393   1396   1398     1  180.0000771  0.0000000  2
   1397   1396   1398   1399     1  0.0000000  7.9496000  1
   1397   1396   1398   1399     1  180.0000771  9.6232000  2
   1401   1400   1403   1406     1  0.0000000  0.6508444  3
   1401   1400   1403   1404     1  0.0000000  0.6508444  3
   1401   1400   1403   1405     1  0.0000000  0.6508444  3
   1401   1400   1389   1411     1  0.0000000  0.6508444  3
   1402   1400   1403   1406     1  0.0000000  0.6508444  3
   1402   1400   1403   1404     1  0.0000000  0.6508444  3
   1402   1400   1403   1405     1  0.0000000  0.6508444  3
   1402   1400   1389   1411     1  0.0000000  0.6508444  3
   1403   1406   1408   1409     1  180.0000771  9.6232000  2
   1403   1400   1389   1411     1  0.0000000  0.6508444  3
   1404   1403   1406   1407     1  0.0000000  3.3472000  1
   1404   1403   1406   1407     1  0.0000000  0.0000000  2
   1404   1403   1406   1407     1  180.0000771  0.3347200  3
   1404   1403   1406   1408     1  180.0000771  0.0000000  2
   1405   1403   1406   1407     1  0.0000000  3.3472000  1
   1405   1403   1406   1407     1  0.0000000  0.0000000  2
   1405   1403   1406   1407     1  180.0000771  0.3347200  3
   1405   1403   1406   1408     1  180.0000771  0.0000000  2
   1407   1406   1408   1409     1  0.0000000  7.9496000  1
   1407   1406   1408   1409     1  180.0000771  9.6232000  2
   1412   1415   1418   1419     1  0.0000000  0.6508444  3
   1412   1415   1418   1420     1  0.0000000  0.6508444  3
   1413   1412   1415   1418     1  0.0000000  0.6508444  3
   1413   1412   1415   1416     1  0.0000000  0.6508444  3
   1413   1412   1415   1417     1  0.0000000  0.6508444  3
   1414   1412   1415   1418     1  0.0000000  0.6508444  3
   1414   1412   1415   1416     1  0.0000000  0.6508444  3
   1414   1412   1415   1417     1  0.0000000  0.6508444  3
   1415   1418   1421   1443     1  0.0000000  0.6508444  3
   1416   1415   1412   1442     1  0.0000000  1.0460000  1
   1416   1415   1412   1442     1  0.0000000  0.0000000  3
   1416   1415   1418   1421     1  0.0000000  0.6508444  3
   1416   1415   1418   1419     1  0.0000000  0.6508444  3
   1416   1415   1418   1420     1  0.0000000  0.6508444  3
   1417   1415   1412   1442     1  0.0000000  1.0460000  1
   1417   1415   1412   1442     1  0.0000000  0.0000000  3
   1417   1415   1418   1421     1  0.0000000  0.6508444  3
   1417   1415   1418   1419     1  0.0000000  0.6508444  3
   1417   1415   1418   1420     1  0.0000000  0.6508444  3
   1418   1421   1422   1423     1  0.0000000  0.6508444  3
   1418   1421   1422   1424     1  0.0000000  0.6508444  3
   1418   1421   1432   1433     1  0.0000000  0.6508444  3
   1418   1421   1432   1434     1  0.0000000  0.6508444  3
   1419   1418   1421   1422     1  0.0000000  0.6508444  3
   1419   1418   1421   1432     1  0.0000000  0.6508444  3
   1419   1418   1421   1443     1  0.0000000  0.6508444  3
   1420   1418   1421   1422     1  0.0000000  0.6508444  3
   1420   1418   1421   1432     1  0.0000000  0.6508444  3
   1420   1418   1421   1443     1  0.0000000  0.6508444  3
   1421   1422   1425   1426     1  0.0000000  0.6508444  3
   1421   1422   1425   1427     1  0.0000000  0.6508444  3
   1421   1432   1435   1436     1  0.0000000  0.6508444  3
   1421   1432   1435   1437     1  0.0000000  0.6508444  3
   1422   1421   1432   1433     1  0.0000000  0.6508444  3
   1422   1421   1432   1434     1  0.0000000  0.6508444  3
   1423   1422   1421   1432     1  0.0000000  0.6508444  3
   1423   1422   1421   1443     1  0.0000000  0.6508444  3
   1423   1422   1425   1428     1  0.0000000  0.6508444  3
   1423   1422   1425   1426     1  0.0000000  0.6508444  3
   1423   1422   1425   1427     1  0.0000000  0.6508444  3
   1424   1422   1421   1432     1  0.0000000  0.6508444  3
   1424   1422   1421   1443     1  0.0000000  0.6508444  3
   1424   1422   1425   1428     1  0.0000000  0.6508444  3
   1424   1422   1425   1426     1  0.0000000  0.6508444  3
   1424   1422   1425   1427     1  0.0000000  0.6508444  3
   1425   1422   1421   1443     1  0.0000000  0.6508444  3
   1425   1428   1430   1431     1  180.0000771  9.6232000  2
   1426   1425   1428   1429     1  0.0000000  3.3472000  1
   1426   1425   1428   1429     1  0.0000000  0.0000000  2
   1426   1425   1428   1429     1  180.0000771  0.3347200  3
   1426   1425   1428   1430     1  180.0000771  0.0000000  2
   1427   1425   1428   1429     1  0.0000000  3.3472000  1
   1427   1425   1428   1429     1  0.0000000  0.0000000  2
   1427   1425   1428   1429     1  180.0000771  0.3347200  3
   1427   1425   1428   1430     1  180.0000771  0.0000000  2
   1429   1428   1430   1431     1  0.0000000  7.9496000  1
   1429   1428   1430   1431     1  180.0000771  9.6232000  2
   1433   1432   1421   1443     1  0.0000000  0.6508444  3
   1433   1432   1435   1438     1  0.0000000  0.6508444  3
   1433   1432   1435   1436     1  0.0000000  0.6508444  3
   1433   1432   1435   1437     1  0.0000000  0.6508444  3
   1434   1432   1421   1443     1  0.0000000  0.6508444  3
   1434   1432   1435   1438     1  0.0000000  0.6508444  3
   1434   1432   1435   1436     1  0.0000000  0.6508444  3
   1434   1432   1435   1437     1  0.0000000  0.6508444  3
   1435   1432   1421   1443     1  0.0000000  0.6508444  3
   1435   1438   1440   1441     1  180.0000771  9.6232000  2
   1436   1435   1438   1439     1  0.0000000  3.3472000  1
   1436   1435   1438   1439     1  0.0000000  0.0000000  2
   1436   1435   1438   1439     1  180.0000771  0.3347200  3
   1436   1435   1438   1440     1  180.0000771  0.0000000  2
   1437   1435   1438   1439     1  0.0000000  3.3472000  1
   1437   1435   1438   1439     1  0.0000000  0.0000000  2
   1437   1435   1438   1439     1  180.0000771  0.3347200  3
   1437   1435   1438   1440     1  180.0000771  0.0000000  2
   1439   1438   1440   1441     1  0.0000000  7.9496000  1
   1439   1438   1440   1441     1  180.0000771  9.6232000  2
   1444   1447   1450   1451     1  0.0000000  0.6508444  3
   1444   1447   1450   1452     1  0.0000000  0.6508444  3
   1445   1444   1447   1450     1  0.0000000  0.6508444  3
   1445   1444   1447   1448     1  0.0000000  0.6508444  3
   1445   1444   1447   1449     1  0.0000000  0.6508444  3
   1446   1444   1447   1450     1  0.0000000  0.6508444  3
   1446   1444   1447   1448     1  0.0000000  0.6508444  3
   1446   1444   1447   1449     1  0.0000000  0.6508444  3
   1447   1450   1453   1475     1  0.0000000  0.6508444  3
   1448   1447   1450   1453     1  0.0000000  0.6508444  3
   1448   1447   1450   1451     1  0.0000000  0.6508444  3
   1448   1447   1450   1452     1  0.0000000  0.6508444  3
   1448   1447   1444   1474     1  0.0000000  1.0460000  1
   1448   1447   1444   1474     1  0.0000000  0.0000000  3
   1449   1447   1450   1453     1  0.0000000  0.6508444  3
   1449   1447   1450   1451     1  0.0000000  0.6508444  3
   1449   1447   1450   1452     1  0.0000000  0.6508444  3
   1449   1447   1444   1474     1  0.0000000  1.0460000  1
   1449   1447   1444   1474     1  0.0000000  0.0000000  3
   1450   1453   1454   1455     1  0.0000000  0.6508444  3
   1450   1453   1454   1456     1  0.0000000  0.6508444  3
   1450   1453   1464   1465     1  0.0000000  0.6508444  3
   1450   1453   1464   1466     1  0.0000000  0.6508444  3
   1451   1450   1453   1454     1  0.0000000  0.6508444  3
   1451   1450   1453   1464     1  0.0000000  0.6508444  3
   1451   1450   1453   1475     1  0.0000000  0.6508444  3
   1452   1450   1453   1454     1  0.0000000  0.6508444  3
   1452   1450   1453   1464     1  0.0000000  0.6508444  3
   1452   1450   1453   1475     1  0.0000000  0.6508444  3
   1453   1454   1457   1458     1  0.0000000  0.6508444  3
   1453   1454   1457   1459     1  0.0000000  0.6508444  3
   1453   1464   1467   1468     1  0.0000000  0.6508444  3
   1453   1464   1467   1469     1  0.0000000  0.6508444  3
   1454   1453   1464   1465     1  0.0000000  0.6508444  3
   1454   1453   1464   1466     1  0.0000000  0.6508444  3
   1455   1454   1457   1460     1  0.0000000  0.6508444  3
   1455   1454   1457   1458     1  0.0000000  0.6508444  3
   1455   1454   1457   1459     1  0.0000000  0.6508444  3
   1455   1454   1453   1464     1  0.0000000  0.6508444  3
   1455   1454   1453   1475     1  0.0000000  0.6508444  3
   1456   1454   1457   1460     1  0.0000000  0.6508444  3
   1456   1454   1457   1458     1  0.0000000  0.6508444  3
   1456   1454   1457   1459     1  0.0000000  0.6508444  3
   1456   1454   1453   1464     1  0.0000000  0.6508444  3
   1456   1454   1453   1475     1  0.0000000  0.6508444  3
   1457   1460   1462   1463     1  180.0000771  9.6232000  2
   1457   1454   1453   1475     1  0.0000000  0.6508444  3
   1458   1457   1460   1461     1  0.0000000  3.3472000  1
   1458   1457   1460   1461     1  0.0000000  0.0000000  2
   1458   1457   1460   1461     1  180.0000771  0.3347200  3
   1458   1457   1460   1462     1  180.0000771  0.0000000  2
   1459   1457   1460   1461     1  0.0000000  3.3472000  1
   1459   1457   1460   1461     1  0.0000000  0.0000000  2
   1459   1457   1460   1461     1  180.0000771  0.3347200  3
   1459   1457   1460   1462     1  180.0000771  0.0000000  2
   1461   1460   1462   1463     1  0.0000000  7.9496000  1
   1461   1460   1462   1463     1  180.0000771  9.6232000  2
   1465   1464   1467   1470     1  0.0000000  0.6508444  3
   1465   1464   1467   1468     1  0.0000000  0.6508444  3
   1465   1464   1467   1469     1  0.0000000  0.6508444  3
   1465   1464   1453   1475     1  0.0000000  0.6508444  3
   1466   1464   1467   1470     1  0.0000000  0.6508444  3
   1466   1464   1467   1468     1  0.0000000  0.6508444  3
   1466   1464   1467   1469     1  0.0000000  0.6508444  3
   1466   1464   1453   1475     1  0.0000000  0.6508444  3
   1467   1470   1472   1473     1  180.0000771  9.6232000  2
   1467   1464   1453   1475     1  0.0000000  0.6508444  3
   1468   1467   1470   1471     1  0.0000000  3.3472000  1
   1468   1467   1470   1471     1  0.0000000  0.0000000  2
   1468   1467   1470   1471     1  180.0000771  0.3347200  3
   1468   1467   1470   1472     1  180.0000771  0.0000000  2
   1469   1467   1470   1471     1  0.0000000  3.3472000  1
   1469   1467   1470   1471     1  0.0000000  0.0000000  2
   1469   1467   1470   1471     1  180.0000771  0.3347200  3
   1469   1467   1470   1472     1  180.0000771  0.0000000  2
   1471   1470   1472   1473     1  0.0000000  7.9496000  1
   1471   1470   1472   1473     1  180.0000771  9.6232000  2
   1476   1479   1482   1483     1  0.0000000  0.6508444  3
   1476   1479   1482   1484     1  0.0000000  0.6508444  3
   1477   1476   1479   1482     1  0.0000000  0.6508444  3
   1477   1476   1479   1480     1  0.0000000  0.6508444  3
   1477   1476   1479   1481     1  0.0000000  0.6508444  3
   1478   1476   1479   1482     1  0.0000000  0.6508444  3
   1478   1476   1479   1480     1  0.0000000  0.6508444  3
   1478   1476   1479   1481     1  0.0000000  0.6508444  3
   1479   1482   1485   1507     1  0.0000000  0.6508444  3
   1480   1479   1476   1506     1  0.0000000  1.0460000  1
   1480   1479   1476   1506     1  0.0000000  0.0000000  3
   1480   1479   1482   1485     1  0.0000000  0.6508444  3
   1480   1479   1482   1483     1  0.0000000  0.6508444  3
   1480   1479   1482   1484     1  0.0000000  0.6508444  3
   1481   1479   1476   1506     1  0.0000000  1.0460000  1
   1481   1479   1476   1506     1  0.0000000  0.0000000  3
   1481   1479   1482   1485     1  0.0000000  0.6508444  3
   1481   1479   1482   1483     1  0.0000000  0.6508444  3
   1481   1479   1482   1484     1  0.0000000  0.6508444  3
   1482   1485   1486   1487     1  0.0000000  0.6508444  3
   1482   1485   1486   1488     1  0.0000000  0.6508444  3
   1482   1485   1496   1497     1  0.0000000  0.6508444  3
   1482   1485   1496   1498     1  0.0000000  0.6508444  3
   1483   1482   1485   1486     1  0.0000000  0.6508444  3
   1483   1482   1485   1496     1  0.0000000  0.6508444  3
   1483   1482   1485   1507     1  0.0000000  0.6508444  3
   1484   1482   1485   1486     1  0.0000000  0.6508444  3
   1484   1482   1485   1496     1  0.0000000  0.6508444  3
   1484   1482   1485   1507     1  0.0000000  0.6508444  3
   1485   1486   1489   1490     1  0.0000000  0.6508444  3
   1485   1486   1489   1491     1  0.0000000  0.6508444  3
   1485   1496   1499   1500     1  0.0000000  0.6508444  3
   1485   1496   1499   1501     1  0.0000000  0.6508444  3
   1486   1485   1496   1497     1  0.0000000  0.6508444  3
   1486   1485   1496   1498     1  0.0000000  0.6508444  3
   1487   1486   1485   1496     1  0.0000000  0.6508444  3
   1487   1486   1485   1507     1  0.0000000  0.6508444  3
   1487   1486   1489   1492     1  0.0000000  0.6508444  3
   1487   1486   1489   1490     1  0.0000000  0.6508444  3
   1487   1486   1489   1491     1  0.0000000  0.6508444  3
   1488   1486   1485   1496     1  0.0000000  0.6508444  3
   1488   1486   1485   1507     1  0.0000000  0.6508444  3
   1488   1486   1489   1492     1  0.0000000  0.6508444  3
   1488   1486   1489   1490     1  0.0000000  0.6508444  3
   1488   1486   1489   1491     1  0.0000000  0.6508444  3
   1489   1486   1485   1507     1  0.0000000  0.6508444  3
   1489   1492   1494   1495     1  180.0000771  9.6232000  2
   1490   1489   1492   1493     1  0.0000000  3.3472000  1
   1490   1489   1492   1493     1  0.0000000  0.0000000  2
   1490   1489   1492   1493     1  180.0000771  0.3347200  3
   1490   1489   1492   1494     1  180.0000771  0.0000000  2
   1491   1489   1492   1493     1  0.0000000  3.3472000  1
   1491   1489   1492   1493     1  0.0000000  0.0000000  2
   1491   1489   1492   1493     1  180.0000771  0.3347200  3
   1491   1489   1492   1494     1  180.0000771  0.0000000  2
   1493   1492   1494   1495     1  0.0000000  7.9496000  1
   1493   1492   1494   1495     1  180.0000771  9.6232000  2
   1497   1496   1485   1507     1  0.0000000  0.6508444  3
   1497   1496   1499   1502     1  0.0000000  0.6508444  3
   1497   1496   1499   1500     1  0.0000000  0.6508444  3
   1497   1496   1499   1501     1  0.0000000  0.6508444  3
   1498   1496   1485   1507     1  0.0000000  0.6508444  3
   1498   1496   1499   1502     1  0.0000000  0.6508444  3
   1498   1496   1499   1500     1  0.0000000  0.6508444  3
   1498   1496   1499   1501     1  0.0000000  0.6508444  3
   1499   1496   1485   1507     1  0.0000000  0.6508444  3
   1499   1502   1504   1505     1  180.0000771  9.6232000  2
   1500   1499   1502   1503     1  0.0000000  3.3472000  1
   1500   1499   1502   1503     1  0.0000000  0.0000000  2
   1500   1499   1502   1503     1  180.0000771  0.3347200  3
   1500   1499   1502   1504     1  180.0000771  0.0000000  2
   1501   1499   1502   1503     1  0.0000000  3.3472000  1
   1501   1499   1502   1503     1  0.0000000  0.0000000  2
   1501   1499   1502   1503     1  180.0000771  0.3347200  3
   1501   1499   1502   1504     1  180.0000771  0.0000000  2
   1503   1502   1504   1505     1  0.0000000  7.9496000  1
   1503   1502   1504   1505     1  180.0000771  9.6232000  2
   1508   1511   1514   1515     1  0.0000000  0.6508444  3
   1508   1511   1514   1516     1  0.0000000  0.6508444  3
   1509   1508   1511   1514     1  0.0000000  0.6508444  3
   1509   1508   1511   1512     1  0.0000000  0.6508444  3
   1509   1508   1511   1513     1  0.0000000  0.6508444  3
   1510   1508   1511   1514     1  0.0000000  0.6508444  3
   1510   1508   1511   1512     1  0.0000000  0.6508444  3
   1510   1508   1511   1513     1  0.0000000  0.6508444  3
   1511   1514   1517   1539     1  0.0000000  0.6508444  3
   1512   1511   1514   1517     1  0.0000000  0.6508444  3
   1512   1511   1514   1515     1  0.0000000  0.6508444  3
   1512   1511   1514   1516     1  0.0000000  0.6508444  3
   1512   1511   1508   1538     1  0.0000000  1.0460000  1
   1512   1511   1508   1538     1  0.0000000  0.0000000  3
   1513   1511   1514   1517     1  0.0000000  0.6508444  3
   1513   1511   1514   1515     1  0.0000000  0.6508444  3
   1513   1511   1514   1516     1  0.0000000  0.6508444  3
   1513   1511   1508   1538     1  0.0000000  1.0460000  1
   1513   1511   1508   1538     1  0.0000000  0.0000000  3
   1514   1517   1518   1519     1  0.0000000  0.6508444  3
   1514   1517   1518   1520     1  0.0000000  0.6508444  3
   1514   1517   1528   1529     1  0.0000000  0.6508444  3
   1514   1517   1528   1530     1  0.0000000  0.6508444  3
   1515   1514   1517   1518     1  0.0000000  0.6508444  3
   1515   1514   1517   1528     1  0.0000000  0.6508444  3
   1515   1514   1517   1539     1  0.0000000  0.6508444  3
   1516   1514   1517   1518     1  0.0000000  0.6508444  3
   1516   1514   1517   1528     1  0.0000000  0.6508444  3
   1516   1514   1517   1539     1  0.0000000  0.6508444  3
   1517   1518   1521   1522     1  0.0000000  0.6508444  3
   1517   1518   1521   1523     1  0.0000000  0.6508444  3
   1517   1528   1531   1532     1  0.0000000  0.6508444  3
   1517   1528   1531   1533     1  0.0000000  0.6508444  3
   1518   1517   1528   1529     1  0.0000000  0.6508444  3
   1518   1517   1528   1530     1  0.0000000  0.6508444  3
   1519   1518   1521   1524     1  0.0000000  0.6508444  3
   1519   1518   1521   1522     1  0.0000000  0.6508444  3
   1519   1518   1521   1523     1  0.0000000  0.6508444  3
   1519   1518   1517   1528     1  0.0000000  0.6508444  3
   1519   1518   1517   1539     1  0.0000000  0.6508444  3
   1520   1518   1521   1524     1  0.0000000  0.6508444  3
   1520   1518   1521   1522     1  0.0000000  0.6508444  3
   1520   1518   1521   1523     1  0.0000000  0.6508444  3
   1520   1518   1517   1528     1  0.0000000  0.6508444  3
   1520   1518   1517   1539     1  0.0000000  0.6508444  3
   1521   1524   1526   1527     1  180.0000771  9.6232000  2
   1521   1518   1517   1539     1  0.0000000  0.6508444  3
   1522   1521   1524   1525     1  0.0000000  3.3472000  1
   1522   1521   1524   1525     1  0.0000000  0.0000000  2
   1522   1521   1524   1525     1  180.0000771  0.3347200  3
   1522   1521   1524   1526     1  180.0000771  0.0000000  2
   1523   1521   1524   1525     1  0.0000000  3.3472000  1
   1523   1521   1524   1525     1  0.0000000  0.0000000  2
   1523   1521   1524   1525     1  180.0000771  0.3347200  3
   1523   1521   1524   1526     1  180.0000771  0.0000000  2
   1525   1524   1526   1527     1  0.0000000  7.9496000  1
   1525   1524   1526   1527     1  180.0000771  9.6232000  2
   1529   1528   1531   1534     1  0.0000000  0.6508444  3
   1529   1528   1531   1532     1  0.0000000  0.6508444  3
   1529   1528   1531   1533     1  0.0000000  0.6508444  3
   1529   1528   1517   1539     1  0.0000000  0.6508444  3
   1530   1528   1531   1534     1  0.0000000  0.6508444  3
   1530   1528   1531   1532     1  0.0000000  0.6508444  3
   1530   1528   1531   1533     1  0.0000000  0.6508444  3
   1530   1528   1517   1539     1  0.0000000  0.6508444  3
   1531   1534   1536   1537     1  180.0000771  9.6232000  2
   1531   1528   1517   1539     1  0.0000000  0.6508444  3
   1532   1531   1534   1535     1  0.0000000  3.3472000  1
   1532   1531   1534   1535     1  0.0000000  0.0000000  2
   1532   1531   1534   1535     1  180.0000771  0.3347200  3
   1532   1531   1534   1536     1  180.0000771  0.0000000  2
   1533   1531   1534   1535     1  0.0000000  3.3472000  1
   1533   1531   1534   1535     1  0.0000000  0.0000000  2
   1533   1531   1534   1535     1  180.0000771  0.3347200  3
   1533   1531   1534   1536     1  180.0000771  0.0000000  2
   1535   1534   1536   1537     1  0.0000000  7.9496000  1
   1535   1534   1536   1537     1  180.0000771  9.6232000  2
   1540   1543   1546   1547     1  0.0000000  0.6508444  3
   1540   1543   1546   1548     1  0.0000000  0.6508444  3
   1541   1540   1543   1546     1  0.0000000  0.6508444  3
   1541   1540   1543   1544     1  0.0000000  0.6508444  3
   1541   1540   1543   1545     1  0.0000000  0.6508444  3
   1542   1540   1543   1546     1  0.0000000  0.6508444  3
   1542   1540   1543   1544     1  0.0000000  0.6508444  3
   1542   1540   1543   1545     1  0.0000000  0.6508444  3
   1543   1546   1549   1571     1  0.0000000  0.6508444  3
   1544   1543   1540   1570     1  0.0000000  1.0460000  1
   1544   1543   1540   1570     1  0.0000000  0.0000000  3
   1544   1543   1546   1549     1  0.0000000  0.6508444  3
   1544   1543   1546   1547     1  0.0000000  0.6508444  3
   1544   1543   1546   1548     1  0.0000000  0.6508444  3
   1545   1543   1540   1570     1  0.0000000  1.0460000  1
   1545   1543   1540   1570     1  0.0000000  0.0000000  3
   1545   1543   1546   1549     1  0.0000000  0.6508444  3
   1545   1543   1546   1547     1  0.0000000  0.6508444  3
   1545   1543   1546   1548     1  0.0000000  0.6508444  3
   1546   1549   1550   1551     1  0.0000000  0.6508444  3
   1546   1549   1550   1552     1  0.0000000  0.6508444  3
   1546   1549   1560   1561     1  0.0000000  0.6508444  3
   1546   1549   1560   1562     1  0.0000000  0.6508444  3
   1547   1546   1549   1550     1  0.0000000  0.6508444  3
   1547   1546   1549   1560     1  0.0000000  0.6508444  3
   1547   1546   1549   1571     1  0.0000000  0.6508444  3
   1548   1546   1549   1550     1  0.0000000  0.6508444  3
   1548   1546   1549   1560     1  0.0000000  0.6508444  3
   1548   1546   1549   1571     1  0.0000000  0.6508444  3
   1549   1550   1553   1554     1  0.0000000  0.6508444  3
   1549   1550   1553   1555     1  0.0000000  0.6508444  3
   1549   1560   1563   1564     1  0.0000000  0.6508444  3
   1549   1560   1563   1565     1  0.0000000  0.6508444  3
   1550   1549   1560   1561     1  0.0000000  0.6508444  3
   1550   1549   1560   1562     1  0.0000000  0.6508444  3
   1551   1550   1549   1560     1  0.0000000  0.6508444  3
   1551   1550   1549   1571     1  0.0000000  0.6508444  3
   1551   1550   1553   1556     1  0.0000000  0.6508444  3
   1551   1550   1553   1554     1  0.0000000  0.6508444  3
   1551   1550   1553   1555     1  0.0000000  0.6508444  3
   1552   1550   1549   1560     1  0.0000000  0.6508444  3
   1552   1550   1549   1571     1  0.0000000  0.6508444  3
   1552   1550   1553   1556     1  0.0000000  0.6508444  3
   1552   1550   1553   1554     1  0.0000000  0.6508444  3
   1552   1550   1553   1555     1  0.0000000  0.6508444  3
   1553   1550   1549   1571     1  0.0000000  0.6508444  3
   1553   1556   1558   1559     1  180.0000771  9.6232000  2
   1554   1553   1556   1557     1  0.0000000  3.3472000  1
   1554   1553   1556   1557     1  0.0000000  0.0000000  2
   1554   1553   1556   1557     1  180.0000771  0.3347200  3
   1554   1553   1556   1558     1  180.0000771  0.0000000  2
   1555   1553   1556   1557     1  0.0000000  3.3472000  1
   1555   1553   1556   1557     1  0.0000000  0.0000000  2
   1555   1553   1556   1557     1  180.0000771  0.3347200  3
   1555   1553   1556   1558     1  180.0000771  0.0000000  2
   1557   1556   1558   1559     1  0.0000000  7.9496000  1
   1557   1556   1558   1559     1  180.0000771  9.6232000  2
   1561   1560   1549   1571     1  0.0000000  0.6508444  3
   1561   1560   1563   1566     1  0.0000000  0.6508444  3
   1561   1560   1563   1564     1  0.0000000  0.6508444  3
   1561   1560   1563   1565     1  0.0000000  0.6508444  3
   1562   1560   1549   1571     1  0.0000000  0.6508444  3
   1562   1560   1563   1566     1  0.0000000  0.6508444  3
   1562   1560   1563   1564     1  0.0000000  0.6508444  3
   1562   1560   1563   1565     1  0.0000000  0.6508444  3
   1563   1560   1549   1571     1  0.0000000  0.6508444  3
   1563   1566   1568   1569     1  180.0000771  9.6232000  2
   1564   1563   1566   1567     1  0.0000000  3.3472000  1
   1564   1563   1566   1567     1  0.0000000  0.0000000  2
   1564   1563   1566   1567     1  180.0000771  0.3347200  3
   1564   1563   1566   1568     1  180.0000771  0.0000000  2
   1565   1563   1566   1567     1  0.0000000  3.3472000  1
   1565   1563   1566   1567     1  0.0000000  0.0000000  2
   1565   1563   1566   1567     1  180.0000771  0.3347200  3
   1565   1563   1566   1568     1  180.0000771  0.0000000  2
   1567   1566   1568   1569     1  0.0000000  7.9496000  1
   1567   1566   1568   1569     1  180.0000771  9.6232000  2
   1572   1575   1578   1579     1  0.0000000  0.6508444  3
   1572   1575   1578   1580     1  0.0000000  0.6508444  3
   1573   1572   1575   1578     1  0.0000000  0.6508444  3
   1573   1572   1575   1576     1  0.0000000  0.6508444  3
   1573   1572   1575   1577     1  0.0000000  0.6508444  3
   1574   1572   1575   1578     1  0.0000000  0.6508444  3
   1574   1572   1575   1576     1  0.0000000  0.6508444  3
   1574   1572   1575   1577     1  0.0000000  0.6508444  3
   1575   1578   1581   1603     1  0.0000000  0.6508444  3
   1576   1575   1578   1581     1  0.0000000  0.6508444  3
   1576   1575   1578   1579     1  0.0000000  0.6508444  3
   1576   1575   1578   1580     1  0.0000000  0.6508444  3
   1576   1575   1572   1602     1  0.0000000  1.0460000  1
   1576   1575   1572   1602     1  0.0000000  0.0000000  3
   1577   1575   1578   1581     1  0.0000000  0.6508444  3
   1577   1575   1578   1579     1  0.0000000  0.6508444  3
   1577   1575   1578   1580     1  0.0000000  0.6508444  3
   1577   1575   1572   1602     1  0.0000000  1.0460000  1
   1577   1575   1572   1602     1  0.0000000  0.0000000  3
   1578   1581   1582   1583     1  0.0000000  0.6508444  3
   1578   1581   1582   1584     1  0.0000000  0.6508444  3
   1578   1581   1592   1593     1  0.0000000  0.6508444  3
   1578   1581   1592   1594     1  0.0000000  0.6508444  3
   1579   1578   1581   1582     1  0.0000000  0.6508444  3
   1579   1578   1581   1592     1  0.0000000  0.6508444  3
   1579   1578   1581   1603     1  0.0000000  0.6508444  3
   1580   1578   1581   1582     1  0.0000000  0.6508444  3
   1580   1578   1581   1592     1  0.0000000  0.6508444  3
   1580   1578   1581   1603     1  0.0000000  0.6508444  3
   1581   1582   1585   1586     1  0.0000000  0.6508444  3
   1581   1582   1585   1587     1  0.0000000  0.6508444  3
   1581   1592   1595   1596     1  0.0000000  0.6508444  3
   1581   1592   1595   1597     1  0.0000000  0.6508444  3
   1582   1581   1592   1593     1  0.0000000  0.6508444  3
   1582   1581   1592   1594     1  0.0000000  0.6508444  3
   1583   1582   1585   1588     1  0.0000000  0.6508444  3
   1583   1582   1585   1586     1  0.0000000  0.6508444  3
   1583   1582   1585   1587     1  0.0000000  0.6508444  3
   1583   1582   1581   1592     1  0.0000000  0.6508444  3
   1583   1582   1581   1603     1  0.0000000  0.6508444  3
   1584   1582   1585   1588     1  0.0000000  0.6508444  3
   1584   1582   1585   1586     1  0.0000000  0.6508444  3
   1584   1582   1585   1587     1  0.0000000  0.6508444  3
   1584   1582   1581   1592     1  0.0000000  0.6508444  3
   1584   1582   1581   1603     1  0.0000000  0.6508444  3
   1585   1588   1590   1591     1  180.0000771  9.6232000  2
   1585   1582   1581   1603     1  0.0000000  0.6508444  3
   1586   1585   1588   1589     1  0.0000000  3.3472000  1
   1586   1585   1588   1589     1  0.0000000  0.0000000  2
   1586   1585   1588   1589     1  180.0000771  0.3347200  3
   1586   1585   1588   1590     1  180.0000771  0.0000000  2
   1587   1585   1588   1589     1  0.0000000  3.3472000  1
   1587   1585   1588   1589     1  0.0000000  0.0000000  2
   1587   1585   1588   1589     1  180.0000771  0.3347200  3
   1587   1585   1588   1590     1  180.0000771  0.0000000  2
   1589   1588   1590   1591     1  0.0000000  7.9496000  1
   1589   1588   1590   1591     1  180.0000771  9.6232000  2
   1593   1592   1595   1598     1  0.0000000  0.6508444  3
   1593   1592   1595   1596     1  0.0000000  0.6508444  3
   1593   1592   1595   1597     1  0.0000000  0.6508444  3
   1593   1592   1581   1603     1  0.0000000  0.6508444  3
   1594   1592   1595   1598     1  0.0000000  0.6508444  3
   1594   1592   1595   1596     1  0.0000000  0.6508444  3
   1594   1592   1595   1597     1  0.0000000  0.6508444  3
   1594   1592   1581   1603     1  0.0000000  0.6508444  3
   1595   1598   1600   1601     1  180.0000771  9.6232000  2
   1595   1592   1581   1603     1  0.0000000  0.6508444  3
   1596   1595   1598   1599     1  0.0000000  3.3472000  1
   1596   1595   1598   1599     1  0.0000000  0.0000000  2
   1596   1595   1598   1599     1  180.0000771  0.3347200  3
   1596   1595   1598   1600     1  180.0000771  0.0000000  2
   1597   1595   1598   1599     1  0.0000000  3.3472000  1
   1597   1595   1598   1599     1  0.0000000  0.0000000  2
   1597   1595   1598   1599     1  180.0000771  0.3347200  3
   1597   1595   1598   1600     1  180.0000771  0.0000000  2
   1599   1598   1600   1601     1  0.0000000  7.9496000  1
   1599   1598   1600   1601     1  180.0000771  9.6232000  2
   1604   1607   1610   1611     1  0.0000000  0.6508444  3
   1604   1607   1610   1612     1  0.0000000  0.6508444  3
   1605   1604   1607   1610     1  0.0000000  0.6508444  3
   1605   1604   1607   1608     1  0.0000000  0.6508444  3
   1605   1604   1607   1609     1  0.0000000  0.6508444  3
   1606   1604   1607   1610     1  0.0000000  0.6508444  3
   1606   1604   1607   1608     1  0.0000000  0.6508444  3
   1606   1604   1607   1609     1  0.0000000  0.6508444  3
   1607   1610   1613   1635     1  0.0000000  0.6508444  3
   1608   1607   1604   1634     1  0.0000000  1.0460000  1
   1608   1607   1604   1634     1  0.0000000  0.0000000  3
   1608   1607   1610   1613     1  0.0000000  0.6508444  3
   1608   1607   1610   1611     1  0.0000000  0.6508444  3
   1608   1607   1610   1612     1  0.0000000  0.6508444  3
   1609   1607   1604   1634     1  0.0000000  1.0460000  1
   1609   1607   1604   1634     1  0.0000000  0.0000000  3
   1609   1607   1610   1613     1  0.0000000  0.6508444  3
   1609   1607   1610   1611     1  0.0000000  0.6508444  3
   1609   1607   1610   1612     1  0.0000000  0.6508444  3
   1610   1613   1614   1615     1  0.0000000  0.6508444  3
   1610   1613   1614   1616     1  0.0000000  0.6508444  3
   1610   1613   1624   1625     1  0.0000000  0.6508444  3
   1610   1613   1624   1626     1  0.0000000  0.6508444  3
   1611   1610   1613   1614     1  0.0000000  0.6508444  3
   1611   1610   1613   1624     1  0.0000000  0.6508444  3
   1611   1610   1613   1635     1  0.0000000  0.6508444  3
   1612   1610   1613   1614     1  0.0000000  0.6508444  3
   1612   1610   1613   1624     1  0.0000000  0.6508444  3
   1612   1610   1613   1635     1  0.0000000  0.6508444  3
   1613   1614   1617   1618     1  0.0000000  0.6508444  3
   1613   1614   1617   1619     1  0.0000000  0.6508444  3
   1613   1624   1627   1628     1  0.0000000  0.6508444  3
   1613   1624   1627   1629     1  0.0000000  0.6508444  3
   1614   1613   1624   1625     1  0.0000000  0.6508444  3
   1614   1613   1624   1626     1  0.0000000  0.6508444  3
   1615   1614   1613   1624     1  0.0000000  0.6508444  3
   1615   1614   1613   1635     1  0.0000000  0.6508444  3
   1615   1614   1617   1620     1  0.0000000  0.6508444  3
   1615   1614   1617   1618     1  0.0000000  0.6508444  3
   1615   1614   1617   1619     1  0.0000000  0.6508444  3
   1616   1614   1613   1624     1  0.0000000  0.6508444  3
   1616   1614   1613   1635     1  0.0000000  0.6508444  3
   1616   1614   1617   1620     1  0.0000000  0.6508444  3
   1616   1614   1617   1618     1  0.0000000  0.6508444  3
   1616   1614   1617   1619     1  0.0000000  0.6508444  3
   1617   1614   1613   1635     1  0.0000000  0.6508444  3
   1617   1620   1622   1623     1  180.0000771  9.6232000  2
   1618   1617   1620   1621     1  0.0000000  3.3472000  1
   1618   1617   1620   1621     1  0.0000000  0.0000000  2
   1618   1617   1620   1621     1  180.0000771  0.3347200  3
   1618   1617   1620   1622     1  180.0000771  0.0000000  2
   1619   1617   1620   1621     1  0.0000000  3.3472000  1
   1619   1617   1620   1621     1  0.0000000  0.0000000  2
   1619   1617   1620   1621     1  180.0000771  0.3347200  3
   1619   1617   1620   1622     1  180.0000771  0.0000000  2
   1621   1620   1622   1623     1  0.0000000  7.9496000  1
   1621   1620   1622   1623     1  180.0000771  9.6232000  2
   1625   1624   1613   1635     1  0.0000000  0.6508444  3
   1625   1624   1627   1630     1  0.0000000  0.6508444  3
   1625   1624   1627   1628     1  0.0000000  0.6508444  3
   1625   1624   1627   1629     1  0.0000000  0.6508444  3
   1626   1624   1613   1635     1  0.0000000  0.6508444  3
   1626   1624   1627   1630     1  0.0000000  0.6508444  3
   1626   1624   1627   1628     1  0.0000000  0.6508444  3
   1626   1624   1627   1629     1  0.0000000  0.6508444  3
   1627   1624   1613   1635     1  0.0000000  0.6508444  3
   1627   1630   1632   1633     1  180.0000771  9.6232000  2
   1628   1627   1630   1631     1  0.0000000  3.3472000  1
   1628   1627   1630   1631     1  0.0000000  0.0000000  2
   1628   1627   1630   1631     1  180.0000771  0.3347200  3
   1628   1627   1630   1632     1  180.0000771  0.0000000  2
   1629   1627   1630   1631     1  0.0000000  3.3472000  1
   1629   1627   1630   1631     1  0.0000000  0.0000000  2
   1629   1627   1630   1631     1  180.0000771  0.3347200  3
   1629   1627   1630   1632     1  180.0000771  0.0000000  2
   1631   1630   1632   1633     1  0.0000000  7.9496000  1
   1631   1630   1632   1633     1  180.0000771  9.6232000  2
   1636   1639   1642   1643     1  0.0000000  0.6508444  3
   1636   1639   1642   1644     1  0.0000000  0.6508444  3
   1637   1636   1639   1642     1  0.0000000  0.6508444  3
   1637   1636   1639   1640     1  0.0000000  0.6508444  3
   1637   1636   1639   1641     1  0.0000000  0.6508444  3
   1638   1636   1639   1642     1  0.0000000  0.6508444  3
   1638   1636   1639   1640     1  0.0000000  0.6508444  3
   1638   1636   1639   1641     1  0.0000000  0.6508444  3
   1639   1642   1645   1667     1  0.0000000  0.6508444  3
   1640   1639   1642   1645     1  0.0000000  0.6508444  3
   1640   1639   1642   1643     1  0.0000000  0.6508444  3
   1640   1639   1642   1644     1  0.0000000  0.6508444  3
   1640   1639   1636   1666     1  0.0000000  1.0460000  1
   1640   1639   1636   1666     1  0.0000000  0.0000000  3
   1641   1639   1642   1645     1  0.0000000  0.6508444  3
   1641   1639   1642   1643     1  0.0000000  0.6508444  3
   1641   1639   1642   1644     1  0.0000000  0.6508444  3
   1641   1639   1636   1666     1  0.0000000  1.0460000  1
   1641   1639   1636   1666     1  0.0000000  0.0000000  3
   1642   1645   1646   1647     1  0.0000000  0.6508444  3
   1642   1645   1646   1648     1  0.0000000  0.6508444  3
   1642   1645   1656   1657     1  0.0000000  0.6508444  3
   1642   1645   1656   1658     1  0.0000000  0.6508444  3
   1643   1642   1645   1646     1  0.0000000  0.6508444  3
   1643   1642   1645   1656     1  0.0000000  0.6508444  3
   1643   1642   1645   1667     1  0.0000000  0.6508444  3
   1644   1642   1645   1646     1  0.0000000  0.6508444  3
   1644   1642   1645   1656     1  0.0000000  0.6508444  3
   1644   1642   1645   1667     1  0.0000000  0.6508444  3
   1645   1646   1649   1650     1  0.0000000  0.6508444  3
   1645   1646   1649   1651     1  0.0000000  0.6508444  3
   1645   1656   1659   1660     1  0.0000000  0.6508444  3
   1645   1656   1659   1661     1  0.0000000  0.6508444  3
   1646   1645   1656   1657     1  0.0000000  0.6508444  3
   1646   1645   1656   1658     1  0.0000000  0.6508444  3
   1647   1646   1649   1652     1  0.0000000  0.6508444  3
   1647   1646   1649   1650     1  0.0000000  0.6508444  3
   1647   1646   1649   1651     1  0.0000000  0.6508444  3
   1647   1646   1645   1656     1  0.0000000  0.6508444  3
   1647   1646   1645   1667     1  0.0000000  0.6508444  3
   1648   1646   1649   1652     1  0.0000000  0.6508444  3
   1648   1646   1649   1650     1  0.0000000  0.6508444  3
   1648   1646   1649   1651     1  0.0000000  0.6508444  3
   1648   1646   1645   1656     1  0.0000000  0.6508444  3
   1648   1646   1645   1667     1  0.0000000  0.6508444  3
   1649   1652   1654   1655     1  180.0000771  9.6232000  2
   1649   1646   1645   1667     1  0.0000000  0.6508444  3
   1650   1649   1652   1653     1  0.0000000  3.3472000  1
   1650   1649   1652   1653     1  0.0000000  0.0000000  2
   1650   1649   1652   1653     1  180.0000771  0.3347200  3
   1650   1649   1652   1654     1  180.0000771  0.0000000  2
   1651   1649   1652   1653     1  0.0000000  3.3472000  1
   1651   1649   1652   1653     1  0.0000000  0.0000000  2
   1651   1649   1652   1653     1  180.0000771  0.3347200  3
   1651   1649   1652   1654     1  180.0000771  0.0000000  2
   1653   1652   1654   1655     1  0.0000000  7.9496000  1
   1653   1652   1654   1655     1  180.0000771  9.6232000  2
   1657   1656   1659   1662     1  0.0000000  0.6508444  3
   1657   1656   1659   1660     1  0.0000000  0.6508444  3
   1657   1656   1659   1661     1  0.0000000  0.6508444  3
   1657   1656   1645   1667     1  0.0000000  0.6508444  3
   1658   1656   1659   1662     1  0.0000000  0.6508444  3
   1658   1656   1659   1660     1  0.0000000  0.6508444  3
   1658   1656   1659   1661     1  0.0000000  0.6508444  3
   1658   1656   1645   1667     1  0.0000000  0.6508444  3
   1659   1662   1664   1665     1  180.0000771  9.6232000  2
   1659   1656   1645   1667     1  0.0000000  0.6508444  3
   1660   1659   1662   1663     1  0.0000000  3.3472000  1
   1660   1659   1662   1663     1  0.0000000  0.0000000  2
   1660   1659   1662   1663     1  180.0000771  0.3347200  3
   1660   1659   1662   1664     1  180.0000771  0.0000000  2
   1661   1659   1662   1663     1  0.0000000  3.3472000  1
   1661   1659   1662   1663     1  0.0000000  0.0000000  2
   1661   1659   1662   1663     1  180.0000771  0.3347200  3
   1661   1659   1662   1664     1  180.0000771  0.0000000  2
   1663   1662   1664   1665     1  0.0000000  7.9496000  1
   1663   1662   1664   1665     1  180.0000771  9.6232000  2
   1668   1671   1674   1675     1  0.0000000  0.6508444  3
   1668   1671   1674   1676     1  0.0000000  0.6508444  3
   1669   1668   1671   1674     1  0.0000000  0.6508444  3
   1669   1668   1671   1672     1  0.0000000  0.6508444  3
   1669   1668   1671   1673     1  0.0000000  0.6508444  3
   1670   1668   1671   1674     1  0.0000000  0.6508444  3
   1670   1668   1671   1672     1  0.0000000  0.6508444  3
   1670   1668   1671   1673     1  0.0000000  0.6508444  3
   1671   1674   1677   1699     1  0.0000000  0.6508444  3
   1672   1671   1668   1698     1  0.0000000  1.0460000  1
   1672   1671   1668   1698     1  0.0000000  0.0000000  3
   1672   1671   1674   1677     1  0.0000000  0.6508444  3
   1672   1671   1674   1675     1  0.0000000  0.6508444  3
   1672   1671   1674   1676     1  0.0000000  0.6508444  3
   1673   1671   1668   1698     1  0.0000000  1.0460000  1
   1673   1671   1668   1698     1  0.0000000  0.0000000  3
   1673   1671   1674   1677     1  0.0000000  0.6508444  3
   1673   1671   1674   1675     1  0.0000000  0.6508444  3
   1673   1671   1674   1676     1  0.0000000  0.6508444  3
   1674   1677   1678   1679     1  0.0000000  0.6508444  3
   1674   1677   1678   1680     1  0.0000000  0.6508444  3
   1674   1677   1688   1689     1  0.0000000  0.6508444  3
   1674   1677   1688   1690     1  0.0000000  0.6508444  3
   1675   1674   1677   1678     1  0.0000000  0.6508444  3
   1675   1674   1677   1688     1  0.0000000  0.6508444  3
   1675   1674   1677   1699     1  0.0000000  0.6508444  3
   1676   1674   1677   1678     1  0.0000000  0.6508444  3
   1676   1674   1677   1688     1  0.0000000  0.6508444  3
   1676   1674   1677   1699     1  0.0000000  0.6508444  3
   1677   1678   1681   1682     1  0.0000000  0.6508444  3
   1677   1678   1681   1683     1  0.0000000  0.6508444  3
   1677   1688   1691   1692     1  0.0000000  0.6508444  3
   1677   1688   1691   1693     1  0.0000000  0.6508444  3
   1678   1677   1688   1689     1  0.0000000  0.6508444  3
   1678   1677   1688   1690     1  0.0000000  0.6508444  3
   1679   1678   1677   1688     1  0.0000000  0.6508444  3
   1679   1678   1677   1699     1  0.0000000  0.6508444  3
   1679   1678   1681   1684     1  0.0000000  0.6508444  3
   1679   1678   1681   1682     1  0.0000000  0.6508444  3
   1679   1678   1681   1683     1  0.0000000  0.6508444  3
   1680   1678   1677   1688     1  0.0000000  0.6508444  3
   1680   1678   1677   1699     1  0.0000000  0.6508444  3
   1680   1678   1681   1684     1  0.0000000  0.6508444  3
   1680   1678   1681   1682     1  0.0000000  0.6508444  3
   1680   1678   1681   1683     1  0.0000000  0.6508444  3
   1681   1678   1677   1699     1  0.0000000  0.6508444  3
   1681   1684   1686   1687     1  180.0000771  9.6232000  2
   1682   1681   1684   1685     1  0.0000000  3.3472000  1
   1682   1681   1684   1685     1  0.0000000  0.0000000  2
   1682   1681   1684   1685     1  180.0000771  0.3347200  3
   1682   1681   1684   1686     1  180.0000771  0.0000000  2
   1683   1681   1684   1685     1  0.0000000  3.3472000  1
   1683   1681   1684   1685     1  0.0000000  0.0000000  2
   1683   1681   1684   1685     1  180.0000771  0.3347200  3
   1683   1681   1684   1686     1  180.0000771  0.0000000  2
   1685   1684   1686   1687     1  0.0000000  7.9496000  1
   1685   1684   1686   1687     1  180.0000771  9.6232000  2
   1689   1688   1677   1699     1  0.0000000  0.6508444  3
   1689   1688   1691   1694     1  0.0000000  0.6508444  3
   1689   1688   1691   1692     1  0.0000000  0.6508444  3
   1689   1688   1691   1693     1  0.0000000  0.6508444  3
   1690   1688   1677   1699     1  0.0000000  0.6508444  3
   1690   1688   1691   1694     1  0.0000000  0.6508444  3
   1690   1688   1691   1692     1  0.0000000  0.6508444  3
   1690   1688   1691   1693     1  0.0000000  0.6508444  3
   1691   1688   1677   1699     1  0.0000000  0.6508444  3
   1691   1694   1696   1697     1  180.0000771  9.6232000  2
   1692   1691   1694   1695     1  0.0000000  3.3472000  1
   1692   1691   1694   1695     1  0.0000000  0.0000000  2
   1692   1691   1694   1695     1  180.0000771  0.3347200  3
   1692   1691   1694   1696     1  180.0000771  0.0000000  2
   1693   1691   1694   1695     1  0.0000000  3.3472000  1
   1693   1691   1694   1695     1  0.0000000  0.0000000  2
   1693   1691   1694   1695     1  180.0000771  0.3347200  3
   1693   1691   1694   1696     1  180.0000771  0.0000000  2
   1695   1694   1696   1697     1  0.0000000  7.9496000  1
   1695   1694   1696   1697     1  180.0000771  9.6232000  2
   1700   1703   1706   1707     1  0.0000000  0.6508444  3
   1700   1703   1706   1708     1  0.0000000  0.6508444  3
   1701   1700   1703   1706     1  0.0000000  0.6508444  3
   1701   1700   1703   1704     1  0.0000000  0.6508444  3
   1701   1700   1703   1705     1  0.0000000  0.6508444  3
   1702   1700   1703   1706     1  0.0000000  0.6508444  3
   1702   1700   1703   1704     1  0.0000000  0.6508444  3
   1702   1700   1703   1705     1  0.0000000  0.6508444  3
   1703   1706   1709   1731     1  0.0000000  0.6508444  3
   1704   1703   1706   1709     1  0.0000000  0.6508444  3
   1704   1703   1706   1707     1  0.0000000  0.6508444  3
   1704   1703   1706   1708     1  0.0000000  0.6508444  3
   1704   1703   1700   1730     1  0.0000000  1.0460000  1
   1704   1703   1700   1730     1  0.0000000  0.0000000  3
   1705   1703   1706   1709     1  0.0000000  0.6508444  3
   1705   1703   1706   1707     1  0.0000000  0.6508444  3
   1705   1703   1706   1708     1  0.0000000  0.6508444  3
   1705   1703   1700   1730     1  0.0000000  1.0460000  1
   1705   1703   1700   1730     1  0.0000000  0.0000000  3
   1706   1709   1710   1711     1  0.0000000  0.6508444  3
   1706   1709   1710   1712     1  0.0000000  0.6508444  3
   1706   1709   1720   1721     1  0.0000000  0.6508444  3
   1706   1709   1720   1722     1  0.0000000  0.6508444  3
   1707   1706   1709   1710     1  0.0000000  0.6508444  3
   1707   1706   1709   1720     1  0.0000000  0.6508444  3
   1707   1706   1709   1731     1  0.0000000  0.6508444  3
   1708   1706   1709   1710     1  0.0000000  0.6508444  3
   1708   1706   1709   1720     1  0.0000000  0.6508444  3
   1708   1706   1709   1731     1  0.0000000  0.6508444  3
   1709   1710   1713   1714     1  0.0000000  0.6508444  3
   1709   1710   1713   1715     1  0.0000000  0.6508444  3
   1709   1720   1723   1724     1  0.0000000  0.6508444  3
   1709   1720   1723   1725     1  0.0000000  0.6508444  3
   1710   1709   1720   1721     1  0.0000000  0.6508444  3
   1710   1709   1720   1722     1  0.0000000  0.6508444  3
   1711   1710   1713   1716     1  0.0000000  0.6508444  3
   1711   1710   1713   1714     1  0.0000000  0.6508444  3
   1711   1710   1713   1715     1  0.0000000  0.6508444  3
   1711   1710   1709   1720     1  0.0000000  0.6508444  3
   1711   1710   1709   1731     1  0.0000000  0.6508444  3
   1712   1710   1713   1716     1  0.0000000  0.6508444  3
   1712   1710   1713   1714     1  0.0000000  0.6508444  3
   1712   1710   1713   1715     1  0.0000000  0.6508444  3
   1712   1710   1709   1720     1  0.0000000  0.6508444  3
   1712   1710   1709   1731     1  0.0000000  0.6508444  3
   1713   1716   1718   1719     1  180.0000771  9.6232000  2
   1713   1710   1709   1731     1  0.0000000  0.6508444  3
   1714   1713   1716   1717     1  0.0000000  3.3472000  1
   1714   1713   1716   1717     1  0.0000000  0.0000000  2
   1714   1713   1716   1717     1  180.0000771  0.3347200  3
   1714   1713   1716   1718     1  180.0000771  0.0000000  2
   1715   1713   1716   1717     1  0.0000000  3.3472000  1
   1715   1713   1716   1717     1  0.0000000  0.0000000  2
   1715   1713   1716   1717     1  180.0000771  0.3347200  3
   1715   1713   1716   1718     1  180.0000771  0.0000000  2
   1717   1716   1718   1719     1  0.0000000  7.9496000  1
   1717   1716   1718   1719     1  180.0000771  9.6232000  2
   1721   1720   1723   1726     1  0.0000000  0.6508444  3
   1721   1720   1723   1724     1  0.0000000  0.6508444  3
   1721   1720   1723   1725     1  0.0000000  0.6508444  3
   1721   1720   1709   1731     1  0.0000000  0.6508444  3
   1722   1720   1723   1726     1  0.0000000  0.6508444  3
   1722   1720   1723   1724     1  0.0000000  0.6508444  3
   1722   1720   1723   1725     1  0.0000000  0.6508444  3
   1722   1720   1709   1731     1  0.0000000  0.6508444  3
   1723   1726   1728   1729     1  180.0000771  9.6232000  2
   1723   1720   1709   1731     1  0.0000000  0.6508444  3
   1724   1723   1726   1727     1  0.0000000  3.3472000  1
   1724   1723   1726   1727     1  0.0000000  0.0000000  2
   1724   1723   1726   1727     1  180.0000771  0.3347200  3
   1724   1723   1726   1728     1  180.0000771  0.0000000  2
   1725   1723   1726   1727     1  0.0000000  3.3472000  1
   1725   1723   1726   1727     1  0.0000000  0.0000000  2
   1725   1723   1726   1727     1  180.0000771  0.3347200  3
   1725   1723   1726   1728     1  180.0000771  0.0000000  2
   1727   1726   1728   1729     1  0.0000000  7.9496000  1
   1727   1726   1728   1729     1  180.0000771  9.6232000  2
   1732   1735   1738   1739     1  0.0000000  0.6508444  3
   1732   1735   1738   1740     1  0.0000000  0.6508444  3
   1733   1732   1735   1738     1  0.0000000  0.6508444  3
   1733   1732   1735   1736     1  0.0000000  0.6508444  3
   1733   1732   1735   1737     1  0.0000000  0.6508444  3
   1734   1732   1735   1738     1  0.0000000  0.6508444  3
   1734   1732   1735   1736     1  0.0000000  0.6508444  3
   1734   1732   1735   1737     1  0.0000000  0.6508444  3
   1735   1738   1741   1763     1  0.0000000  0.6508444  3
   1736   1735   1732   1762     1  0.0000000  1.0460000  1
   1736   1735   1732   1762     1  0.0000000  0.0000000  3
   1736   1735   1738   1741     1  0.0000000  0.6508444  3
   1736   1735   1738   1739     1  0.0000000  0.6508444  3
   1736   1735   1738   1740     1  0.0000000  0.6508444  3
   1737   1735   1732   1762     1  0.0000000  1.0460000  1
   1737   1735   1732   1762     1  0.0000000  0.0000000  3
   1737   1735   1738   1741     1  0.0000000  0.6508444  3
   1737   1735   1738   1739     1  0.0000000  0.6508444  3
   1737   1735   1738   1740     1  0.0000000  0.6508444  3
   1738   1741   1742   1743     1  0.0000000  0.6508444  3
   1738   1741   1742   1744     1  0.0000000  0.6508444  3
   1738   1741   1752   1753     1  0.0000000  0.6508444  3
   1738   1741   1752   1754     1  0.0000000  0.6508444  3
   1739   1738   1741   1742     1  0.0000000  0.6508444  3
   1739   1738   1741   1752     1  0.0000000  0.6508444  3
   1739   1738   1741   1763     1  0.0000000  0.6508444  3
   1740   1738   1741   1742     1  0.0000000  0.6508444  3
   1740   1738   1741   1752     1  0.0000000  0.6508444  3
   1740   1738   1741   1763     1  0.0000000  0.6508444  3
   1741   1742   1745   1746     1  0.0000000  0.6508444  3
   1741   1742   1745   1747     1  0.0000000  0.6508444  3
   1741   1752   1755   1756     1  0.0000000  0.6508444  3
   1741   1752   1755   1757     1  0.0000000  0.6508444  3
   1742   1741   1752   1753     1  0.0000000  0.6508444  3
   1742   1741   1752   1754     1  0.0000000  0.6508444  3
   1743   1742   1741   1752     1  0.0000000  0.6508444  3
   1743   1742   1741   1763     1  0.0000000  0.6508444  3
   1743   1742   1745   1748     1  0.0000000  0.6508444  3
   1743   1742   1745   1746     1  0.0000000  0.6508444  3
   1743   1742   1745   1747     1  0.0000000  0.6508444  3
   1744   1742   1741   1752     1  0.0000000  0.6508444  3
   1744   1742   1741   1763     1  0.0000000  0.6508444  3
   1744   1742   1745   1748     1  0.0000000  0.6508444  3
   1744   1742   1745   1746     1  0.0000000  0.6508444  3
   1744   1742   1745   1747     1  0.0000000  0.6508444  3
   1745   1742   1741   1763     1  0.0000000  0.6508444  3
   1745   1748   1750   1751     1  180.0000771  9.6232000  2
   1746   1745   1748   1749     1  0.0000000  3.3472000  1
   1746   1745   1748   1749     1  0.0000000  0.0000000  2
   1746   1745   1748   1749     1  180.0000771  0.3347200  3
   1746   1745   1748   1750     1  180.0000771  0.0000000  2
   1747   1745   1748   1749     1  0.0000000  3.3472000  1
   1747   1745   1748   1749     1  0.0000000  0.0000000  2
   1747   1745   1748   1749     1  180.0000771  0.3347200  3
   1747   1745   1748   1750     1  180.0000771  0.0000000  2
   1749   1748   1750   1751     1  0.0000000  7.9496000  1
   1749   1748   1750   1751     1  180.0000771  9.6232000  2
   1753   1752   1741   1763     1  0.0000000  0.6508444  3
   1753   1752   1755   1758     1  0.0000000  0.6508444  3
   1753   1752   1755   1756     1  0.0000000  0.6508444  3
   1753   1752   1755   1757     1  0.0000000  0.6508444  3
   1754   1752   1741   1763     1  0.0000000  0.6508444  3
   1754   1752   1755   1758     1  0.0000000  0.6508444  3
   1754   1752   1755   1756     1  0.0000000  0.6508444  3
   1754   1752   1755   1757     1  0.0000000  0.6508444  3
   1755   1752   1741   1763     1  0.0000000  0.6508444  3
   1755   1758   1760   1761     1  180.0000771  9.6232000  2
   1756   1755   1758   1759     1  0.0000000  3.3472000  1
   1756   1755   1758   1759     1  0.0000000  0.0000000  2
   1756   1755   1758   1759     1  180.0000771  0.3347200  3
   1756   1755   1758   1760     1  180.0000771  0.0000000  2
   1757   1755   1758   1759     1  0.0000000  3.3472000  1
   1757   1755   1758   1759     1  0.0000000  0.0000000  2
   1757   1755   1758   1759     1  180.0000771  0.3347200  3
   1757   1755   1758   1760     1  180.0000771  0.0000000  2
   1759   1758   1760   1761     1  0.0000000  7.9496000  1
   1759   1758   1760   1761     1  180.0000771  9.6232000  2
   1764   1767   1770   1771     1  0.0000000  0.6508444  3
   1764   1767   1770   1772     1  0.0000000  0.6508444  3
   1765   1764   1767   1770     1  0.0000000  0.6508444  3
   1765   1764   1767   1768     1  0.0000000  0.6508444  3
   1765   1764   1767   1769     1  0.0000000  0.6508444  3
   1766   1764   1767   1770     1  0.0000000  0.6508444  3
   1766   1764   1767   1768     1  0.0000000  0.6508444  3
   1766   1764   1767   1769     1  0.0000000  0.6508444  3
   1767   1770   1773   1795     1  0.0000000  0.6508444  3
   1768   1767   1770   1773     1  0.0000000  0.6508444  3
   1768   1767   1770   1771     1  0.0000000  0.6508444  3
   1768   1767   1770   1772     1  0.0000000  0.6508444  3
   1768   1767   1764   1794     1  0.0000000  1.0460000  1
   1768   1767   1764   1794     1  0.0000000  0.0000000  3
   1769   1767   1770   1773     1  0.0000000  0.6508444  3
   1769   1767   1770   1771     1  0.0000000  0.6508444  3
   1769   1767   1770   1772     1  0.0000000  0.6508444  3
   1769   1767   1764   1794     1  0.0000000  1.0460000  1
   1769   1767   1764   1794     1  0.0000000  0.0000000  3
   1770   1773   1774   1775     1  0.0000000  0.6508444  3
   1770   1773   1774   1776     1  0.0000000  0.6508444  3
   1770   1773   1784   1785     1  0.0000000  0.6508444  3
   1770   1773   1784   1786     1  0.0000000  0.6508444  3
   1771   1770   1773   1774     1  0.0000000  0.6508444  3
   1771   1770   1773   1784     1  0.0000000  0.6508444  3
   1771   1770   1773   1795     1  0.0000000  0.6508444  3
   1772   1770   1773   1774     1  0.0000000  0.6508444  3
   1772   1770   1773   1784     1  0.0000000  0.6508444  3
   1772   1770   1773   1795     1  0.0000000  0.6508444  3
   1773   1774   1777   1778     1  0.0000000  0.6508444  3
   1773   1774   1777   1779     1  0.0000000  0.6508444  3
   1773   1784   1787   1788     1  0.0000000  0.6508444  3
   1773   1784   1787   1789     1  0.0000000  0.6508444  3
   1774   1773   1784   1785     1  0.0000000  0.6508444  3
   1774   1773   1784   1786     1  0.0000000  0.6508444  3
   1775   1774   1777   1780     1  0.0000000  0.6508444  3
   1775   1774   1777   1778     1  0.0000000  0.6508444  3
   1775   1774   1777   1779     1  0.0000000  0.6508444  3
   1775   1774   1773   1784     1  0.0000000  0.6508444  3
   1775   1774   1773   1795     1  0.0000000  0.6508444  3
   1776   1774   1777   1780     1  0.0000000  0.6508444  3
   1776   1774   1777   1778     1  0.0000000  0.6508444  3
   1776   1774   1777   1779     1  0.0000000  0.6508444  3
   1776   1774   1773   1784     1  0.0000000  0.6508444  3
   1776   1774   1773   1795     1  0.0000000  0.6508444  3
   1777   1780   1782   1783     1  180.0000771  9.6232000  2
   1777   1774   1773   1795     1  0.0000000  0.6508444  3
   1778   1777   1780   1781     1  0.0000000  3.3472000  1
   1778   1777   1780   1781     1  0.0000000  0.0000000  2
   1778   1777   1780   1781     1  180.0000771  0.3347200  3
   1778   1777   1780   1782     1  180.0000771  0.0000000  2
   1779   1777   1780   1781     1  0.0000000  3.3472000  1
   1779   1777   1780   1781     1  0.0000000  0.0000000  2
   1779   1777   1780   1781     1  180.0000771  0.3347200  3
   1779   1777   1780   1782     1  180.0000771  0.0000000  2
   1781   1780   1782   1783     1  0.0000000  7.9496000  1
   1781   1780   1782   1783     1  180.0000771  9.6232000  2
   1785   1784   1787   1790     1  0.0000000  0.6508444  3
   1785   1784   1787   1788     1  0.0000000  0.6508444  3
   1785   1784   1787   1789     1  0.0000000  0.6508444  3
   1785   1784   1773   1795     1  0.0000000  0.6508444  3
   1786   1784   1787   1790     1  0.0000000  0.6508444  3
   1786   1784   1787   1788     1  0.0000000  0.6508444  3
   1786   1784   1787   1789     1  0.0000000  0.6508444  3
   1786   1784   1773   1795     1  0.0000000  0.6508444  3
   1787   1790   1792   1793     1  180.0000771  9.6232000  2
   1787   1784   1773   1795     1  0.0000000  0.6508444  3
   1788   1787   1790   1791     1  0.0000000  3.3472000  1
   1788   1787   1790   1791     1  0.0000000  0.0000000  2
   1788   1787   1790   1791     1  180.0000771  0.3347200  3
   1788   1787   1790   1792     1  180.0000771  0.0000000  2
   1789   1787   1790   1791     1  0.0000000  3.3472000  1
   1789   1787   1790   1791     1  0.0000000  0.0000000  2
   1789   1787   1790   1791     1  180.0000771  0.3347200  3
   1789   1787   1790   1792     1  180.0000771  0.0000000  2
   1791   1790   1792   1793     1  0.0000000  7.9496000  1
   1791   1790   1792   1793     1  180.0000771  9.6232000  2
   1796   1799   1802   1803     1  0.0000000  0.6508444  3
   1796   1799   1802   1804     1  0.0000000  0.6508444  3
   1797   1796   1799   1802     1  0.0000000  0.6508444  3
   1797   1796   1799   1800     1  0.0000000  0.6508444  3
   1797   1796   1799   1801     1  0.0000000  0.6508444  3
   1798   1796   1799   1802     1  0.0000000  0.6508444  3
   1798   1796   1799   1800     1  0.0000000  0.6508444  3
   1798   1796   1799   1801     1  0.0000000  0.6508444  3
   1799   1802   1805   1827     1  0.0000000  0.6508444  3
   1800   1799   1796   1826     1  0.0000000  1.0460000  1
   1800   1799   1796   1826     1  0.0000000  0.0000000  3
   1800   1799   1802   1805     1  0.0000000  0.6508444  3
   1800   1799   1802   1803     1  0.0000000  0.6508444  3
   1800   1799   1802   1804     1  0.0000000  0.6508444  3
   1801   1799   1796   1826     1  0.0000000  1.0460000  1
   1801   1799   1796   1826     1  0.0000000  0.0000000  3
   1801   1799   1802   1805     1  0.0000000  0.6508444  3
   1801   1799   1802   1803     1  0.0000000  0.6508444  3
   1801   1799   1802   1804     1  0.0000000  0.6508444  3
   1802   1805   1806   1807     1  0.0000000  0.6508444  3
   1802   1805   1806   1808     1  0.0000000  0.6508444  3
   1802   1805   1816   1817     1  0.0000000  0.6508444  3
   1802   1805   1816   1818     1  0.0000000  0.6508444  3
   1803   1802   1805   1806     1  0.0000000  0.6508444  3
   1803   1802   1805   1816     1  0.0000000  0.6508444  3
   1803   1802   1805   1827     1  0.0000000  0.6508444  3
   1804   1802   1805   1806     1  0.0000000  0.6508444  3
   1804   1802   1805   1816     1  0.0000000  0.6508444  3
   1804   1802   1805   1827     1  0.0000000  0.6508444  3
   1805   1806   1809   1810     1  0.0000000  0.6508444  3
   1805   1806   1809   1811     1  0.0000000  0.6508444  3
   1805   1816   1819   1820     1  0.0000000  0.6508444  3
   1805   1816   1819   1821     1  0.0000000  0.6508444  3
   1806   1805   1816   1817     1  0.0000000  0.6508444  3
   1806   1805   1816   1818     1  0.0000000  0.6508444  3
   1807   1806   1805   1816     1  0.0000000  0.6508444  3
   1807   1806   1805   1827     1  0.0000000  0.6508444  3
   1807   1806   1809   1812     1  0.0000000  0.6508444  3
   1807   1806   1809   1810     1  0.0000000  0.6508444  3
   1807   1806   1809   1811     1  0.0000000  0.6508444  3
   1808   1806   1805   1816     1  0.0000000  0.6508444  3
   1808   1806   1805   1827     1  0.0000000  0.6508444  3
   1808   1806   1809   1812     1  0.0000000  0.6508444  3
   1808   1806   1809   1810     1  0.0000000  0.6508444  3
   1808   1806   1809   1811     1  0.0000000  0.6508444  3
   1809   1806   1805   1827     1  0.0000000  0.6508444  3
   1809   1812   1814   1815     1  180.0000771  9.6232000  2
   1810   1809   1812   1813     1  0.0000000  3.3472000  1
   1810   1809   1812   1813     1  0.0000000  0.0000000  2
   1810   1809   1812   1813     1  180.0000771  0.3347200  3
   1810   1809   1812   1814     1  180.0000771  0.0000000  2
   1811   1809   1812   1813     1  0.0000000  3.3472000  1
   1811   1809   1812   1813     1  0.0000000  0.0000000  2
   1811   1809   1812   1813     1  180.0000771  0.3347200  3
   1811   1809   1812   1814     1  180.0000771  0.0000000  2
   1813   1812   1814   1815     1  0.0000000  7.9496000  1
   1813   1812   1814   1815     1  180.0000771  9.6232000  2
   1817   1816   1805   1827     1  0.0000000  0.6508444  3
   1817   1816   1819   1822     1  0.0000000  0.6508444  3
   1817   1816   1819   1820     1  0.0000000  0.6508444  3
   1817   1816   1819   1821     1  0.0000000  0.6508444  3
   1818   1816   1805   1827     1  0.0000000  0.6508444  3
   1818   1816   1819   1822     1  0.0000000  0.6508444  3
   1818   1816   1819   1820     1  0.0000000  0.6508444  3
   1818   1816   1819   1821     1  0.0000000  0.6508444  3
   1819   1816   1805   1827     1  0.0000000  0.6508444  3
   1819   1822   1824   1825     1  180.0000771  9.6232000  2
   1820   1819   1822   1823     1  0.0000000  3.3472000  1
   1820   1819   1822   1823     1  0.0000000  0.0000000  2
   1820   1819   1822   1823     1  180.0000771  0.3347200  3
   1820   1819   1822   1824     1  180.0000771  0.0000000  2
   1821   1819   1822   1823     1  0.0000000  3.3472000  1
   1821   1819   1822   1823     1  0.0000000  0.0000000  2
   1821   1819   1822   1823     1  180.0000771  0.3347200  3
   1821   1819   1822   1824     1  180.0000771  0.0000000  2
   1823   1822   1824   1825     1  0.0000000  7.9496000  1
   1823   1822   1824   1825     1  180.0000771  9.6232000  2
   1828   1831   1834   1835     1  0.0000000  0.6508444  3
   1828   1831   1834   1836     1  0.0000000  0.6508444  3
   1829   1828   1831   1834     1  0.0000000  0.6508444  3
   1829   1828   1831   1832     1  0.0000000  0.6508444  3
   1829   1828   1831   1833     1  0.0000000  0.6508444  3
   1830   1828   1831   1834     1  0.0000000  0.6508444  3
   1830   1828   1831   1832     1  0.0000000  0.6508444  3
   1830   1828   1831   1833     1  0.0000000  0.6508444  3
   1831   1834   1837   1859     1  0.0000000  0.6508444  3
   1832   1831   1834   1837     1  0.0000000  0.6508444  3
   1832   1831   1834   1835     1  0.0000000  0.6508444  3
   1832   1831   1834   1836     1  0.0000000  0.6508444  3
   1832   1831   1828   1858     1  0.0000000  1.0460000  1
   1832   1831   1828   1858     1  0.0000000  0.0000000  3
   1833   1831   1834   1837     1  0.0000000  0.6508444  3
   1833   1831   1834   1835     1  0.0000000  0.6508444  3
   1833   1831   1834   1836     1  0.0000000  0.6508444  3
   1833   1831   1828   1858     1  0.0000000  1.0460000  1
   1833   1831   1828   1858     1  0.0000000  0.0000000  3
   1834   1837   1838   1839     1  0.0000000  0.6508444  3
   1834   1837   1838   1840     1  0.0000000  0.6508444  3
   1834   1837   1848   1849     1  0.0000000  0.6508444  3
   1834   1837   1848   1850     1  0.0000000  0.6508444  3
   1835   1834   1837   1838     1  0.0000000  0.6508444  3
   1835   1834   1837   1848     1  0.0000000  0.6508444  3
   1835   1834   1837   1859     1  0.0000000  0.6508444  3
   1836   1834   1837   1838     1  0.0000000  0.6508444  3
   1836   1834   1837   1848     1  0.0000000  0.6508444  3
   1836   1834   1837   1859     1  0.0000000  0.6508444  3
   1837   1838   1841   1842     1  0.0000000  0.6508444  3
   1837   1838   1841   1843     1  0.0000000  0.6508444  3
   1837   1848   1851   1852     1  0.0000000  0.6508444  3
   1837   1848   1851   1853     1  0.0000000  0.6508444  3
   1838   1837   1848   1849     1  0.0000000  0.6508444  3
   1838   1837   1848   1850     1  0.0000000  0.6508444  3
   1839   1838   1841   1844     1  0.0000000  0.6508444  3
   1839   1838   1841   1842     1  0.0000000  0.6508444  3
   1839   1838   1841   1843     1  0.0000000  0.6508444  3
   1839   1838   1837   1848     1  0.0000000  0.6508444  3
   1839   1838   1837   1859     1  0.0000000  0.6508444  3
   1840   1838   1841   1844     1  0.0000000  0.6508444  3
   1840   1838   1841   1842     1  0.0000000  0.6508444  3
   1840   1838   1841   1843     1  0.0000000  0.6508444  3
   1840   1838   1837   1848     1  0.0000000  0.6508444  3
   1840   1838   1837   1859     1  0.0000000  0.6508444  3
   1841   1844   1846   1847     1  180.0000771  9.6232000  2
   1841   1838   1837   1859     1  0.0000000  0.6508444  3
   1842   1841   1844   1845     1  0.0000000  3.3472000  1
   1842   1841   1844   1845     1  0.0000000  0.0000000  2
   1842   1841   1844   1845     1  180.0000771  0.3347200  3
   1842   1841   1844   1846     1  180.0000771  0.0000000  2
   1843   1841   1844   1845     1  0.0000000  3.3472000  1
   1843   1841   1844   1845     1  0.0000000  0.0000000  2
   1843   1841   1844   1845     1  180.0000771  0.3347200  3
   1843   1841   1844   1846     1  180.0000771  0.0000000  2
   1845   1844   1846   1847     1  0.0000000  7.9496000  1
   1845   1844   1846   1847     1  180.0000771  9.6232000  2
   1849   1848   1851   1854     1  0.0000000  0.6508444  3
   1849   1848   1851   1852     1  0.0000000  0.6508444  3
   1849   1848   1851   1853     1  0.0000000  0.6508444  3
   1849   1848   1837   1859     1  0.0000000  0.6508444  3
   1850   1848   1851   1854     1  0.0000000  0.6508444  3
   1850   1848   1851   1852     1  0.0000000  0.6508444  3
   1850   1848   1851   1853     1  0.0000000  0.6508444  3
   1850   1848   1837   1859     1  0.0000000  0.6508444  3
   1851   1854   1856   1857     1  180.0000771  9.6232000  2
   1851   1848   1837   1859     1  0.0000000  0.6508444  3
   1852   1851   1854   1855     1  0.0000000  3.3472000  1
   1852   1851   1854   1855     1  0.0000000  0.0000000  2
   1852   1851   1854   1855     1  180.0000771  0.3347200  3
   1852   1851   1854   1856     1  180.0000771  0.0000000  2
   1853   1851   1854   1855     1  0.0000000  3.3472000  1
   1853   1851   1854   1855     1  0.0000000  0.0000000  2
   1853   1851   1854   1855     1  180.0000771  0.3347200  3
   1853   1851   1854   1856     1  180.0000771  0.0000000  2
   1855   1854   1856   1857     1  0.0000000  7.9496000  1
   1855   1854   1856   1857     1  180.0000771  9.6232000  2
   1860   1863   1866   1867     1  0.0000000  0.6508444  3
   1860   1863   1866   1868     1  0.0000000  0.6508444  3
   1861   1860   1863   1866     1  0.0000000  0.6508444  3
   1861   1860   1863   1864     1  0.0000000  0.6508444  3
   1861   1860   1863   1865     1  0.0000000  0.6508444  3
   1862   1860   1863   1866     1  0.0000000  0.6508444  3
   1862   1860   1863   1864     1  0.0000000  0.6508444  3
   1862   1860   1863   1865     1  0.0000000  0.6508444  3
   1863   1866   1869   1891     1  0.0000000  0.6508444  3
   1864   1863   1860   1890     1  0.0000000  1.0460000  1
   1864   1863   1860   1890     1  0.0000000  0.0000000  3
   1864   1863   1866   1869     1  0.0000000  0.6508444  3
   1864   1863   1866   1867     1  0.0000000  0.6508444  3
   1864   1863   1866   1868     1  0.0000000  0.6508444  3
   1865   1863   1860   1890     1  0.0000000  1.0460000  1
   1865   1863   1860   1890     1  0.0000000  0.0000000  3
   1865   1863   1866   1869     1  0.0000000  0.6508444  3
   1865   1863   1866   1867     1  0.0000000  0.6508444  3
   1865   1863   1866   1868     1  0.0000000  0.6508444  3
   1866   1869   1870   1871     1  0.0000000  0.6508444  3
   1866   1869   1870   1872     1  0.0000000  0.6508444  3
   1866   1869   1880   1881     1  0.0000000  0.6508444  3
   1866   1869   1880   1882     1  0.0000000  0.6508444  3
   1867   1866   1869   1870     1  0.0000000  0.6508444  3
   1867   1866   1869   1880     1  0.0000000  0.6508444  3
   1867   1866   1869   1891     1  0.0000000  0.6508444  3
   1868   1866   1869   1870     1  0.0000000  0.6508444  3
   1868   1866   1869   1880     1  0.0000000  0.6508444  3
   1868   1866   1869   1891     1  0.0000000  0.6508444  3
   1869   1870   1873   1874     1  0.0000000  0.6508444  3
   1869   1870   1873   1875     1  0.0000000  0.6508444  3
   1869   1880   1883   1884     1  0.0000000  0.6508444  3
   1869   1880   1883   1885     1  0.0000000  0.6508444  3
   1870   1869   1880   1881     1  0.0000000  0.6508444  3
   1870   1869   1880   1882     1  0.0000000  0.6508444  3
   1871   1870   1869   1880     1  0.0000000  0.6508444  3
   1871   1870   1869   1891     1  0.0000000  0.6508444  3
   1871   1870   1873   1876     1  0.0000000  0.6508444  3
   1871   1870   1873   1874     1  0.0000000  0.6508444  3
   1871   1870   1873   1875     1  0.0000000  0.6508444  3
   1872   1870   1869   1880     1  0.0000000  0.6508444  3
   1872   1870   1869   1891     1  0.0000000  0.6508444  3
   1872   1870   1873   1876     1  0.0000000  0.6508444  3
   1872   1870   1873   1874     1  0.0000000  0.6508444  3
   1872   1870   1873   1875     1  0.0000000  0.6508444  3
   1873   1870   1869   1891     1  0.0000000  0.6508444  3
   1873   1876   1878   1879     1  180.0000771  9.6232000  2
   1874   1873   1876   1877     1  0.0000000  3.3472000  1
   1874   1873   1876   1877     1  0.0000000  0.0000000  2
   1874   1873   1876   1877     1  180.0000771  0.3347200  3
   1874   1873   1876   1878     1  180.0000771  0.0000000  2
   1875   1873   1876   1877     1  0.0000000  3.3472000  1
   1875   1873   1876   1877     1  0.0000000  0.0000000  2
   1875   1873   1876   1877     1  180.0000771  0.3347200  3
   1875   1873   1876   1878     1  180.0000771  0.0000000  2
   1877   1876   1878   1879     1  0.0000000  7.9496000  1
   1877   1876   1878   1879     1  180.0000771  9.6232000  2
   1881   1880   1869   1891     1  0.0000000  0.6508444  3
   1881   1880   1883   1886     1  0.0000000  0.6508444  3
   1881   1880   1883   1884     1  0.0000000  0.6508444  3
   1881   1880   1883   1885     1  0.0000000  0.6508444  3
   1882   1880   1869   1891     1  0.0000000  0.6508444  3
   1882   1880   1883   1886     1  0.0000000  0.6508444  3
   1882   1880   1883   1884     1  0.0000000  0.6508444  3
   1882   1880   1883   1885     1  0.0000000  0.6508444  3
   1883   1880   1869   1891     1  0.0000000  0.6508444  3
   1883   1886   1888   1889     1  180.0000771  9.6232000  2
   1884   1883   1886   1887     1  0.0000000  3.3472000  1
   1884   1883   1886   1887     1  0.0000000  0.0000000  2
   1884   1883   1886   1887     1  180.0000771  0.3347200  3
   1884   1883   1886   1888     1  180.0000771  0.0000000  2
   1885   1883   1886   1887     1  0.0000000  3.3472000  1
   1885   1883   1886   1887     1  0.0000000  0.0000000  2
   1885   1883   1886   1887     1  180.0000771  0.3347200  3
   1885   1883   1886   1888     1  180.0000771  0.0000000  2
   1887   1886   1888   1889     1  0.0000000  7.9496000  1
   1887   1886   1888   1889     1  180.0000771  9.6232000  2
   1892   1895   1898   1899     1  0.0000000  0.6508444  3
   1892   1895   1898   1900     1  0.0000000  0.6508444  3
   1893   1892   1895   1898     1  0.0000000  0.6508444  3
   1893   1892   1895   1896     1  0.0000000  0.6508444  3
   1893   1892   1895   1897     1  0.0000000  0.6508444  3
   1894   1892   1895   1898     1  0.0000000  0.6508444  3
   1894   1892   1895   1896     1  0.0000000  0.6508444  3
   1894   1892   1895   1897     1  0.0000000  0.6508444  3
   1895   1898   1901   1923     1  0.0000000  0.6508444  3
   1896   1895   1898   1901     1  0.0000000  0.6508444  3
   1896   1895   1898   1899     1  0.0000000  0.6508444  3
   1896   1895   1898   1900     1  0.0000000  0.6508444  3
   1896   1895   1892   1922     1  0.0000000  1.0460000  1
   1896   1895   1892   1922     1  0.0000000  0.0000000  3
   1897   1895   1898   1901     1  0.0000000  0.6508444  3
   1897   1895   1898   1899     1  0.0000000  0.6508444  3
   1897   1895   1898   1900     1  0.0000000  0.6508444  3
   1897   1895   1892   1922     1  0.0000000  1.0460000  1
   1897   1895   1892   1922     1  0.0000000  0.0000000  3
   1898   1901   1902   1903     1  0.0000000  0.6508444  3
   1898   1901   1902   1904     1  0.0000000  0.6508444  3
   1898   1901   1912   1913     1  0.0000000  0.6508444  3
   1898   1901   1912   1914     1  0.0000000  0.6508444  3
   1899   1898   1901   1902     1  0.0000000  0.6508444  3
   1899   1898   1901   1912     1  0.0000000  0.6508444  3
   1899   1898   1901   1923     1  0.0000000  0.6508444  3
   1900   1898   1901   1902     1  0.0000000  0.6508444  3
   1900   1898   1901   1912     1  0.0000000  0.6508444  3
   1900   1898   1901   1923     1  0.0000000  0.6508444  3
   1901   1902   1905   1906     1  0.0000000  0.6508444  3
   1901   1902   1905   1907     1  0.0000000  0.6508444  3
   1901   1912   1915   1916     1  0.0000000  0.6508444  3
   1901   1912   1915   1917     1  0.0000000  0.6508444  3
   1902   1901   1912   1913     1  0.0000000  0.6508444  3
   1902   1901   1912   1914     1  0.0000000  0.6508444  3
   1903   1902   1905   1908     1  0.0000000  0.6508444  3
   1903   1902   1905   1906     1  0.0000000  0.6508444  3
   1903   1902   1905   1907     1  0.0000000  0.6508444  3
   1903   1902   1901   1912     1  0.0000000  0.6508444  3
   1903   1902   1901   1923     1  0.0000000  0.6508444  3
   1904   1902   1905   1908     1  0.0000000  0.6508444  3
   1904   1902   1905   1906     1  0.0000000  0.6508444  3
   1904   1902   1905   1907     1  0.0000000  0.6508444  3
   1904   1902   1901   1912     1  0.0000000  0.6508444  3
   1904   1902   1901   1923     1  0.0000000  0.6508444  3
   1905   1908   1910   1911     1  180.0000771  9.6232000  2
   1905   1902   1901   1923     1  0.0000000  0.6508444  3
   1906   1905   1908   1909     1  0.0000000  3.3472000  1
   1906   1905   1908   1909     1  0.0000000  0.0000000  2
   1906   1905   1908   1909     1  180.0000771  0.3347200  3
   1906   1905   1908   1910     1  180.0000771  0.0000000  2
   1907   1905   1908   1909     1  0.0000000  3.3472000  1
   1907   1905   1908   1909     1  0.0000000  0.0000000  2
   1907   1905   1908   1909     1  180.0000771  0.3347200  3
   1907   1905   1908   1910     1  180.0000771  0.0000000  2
   1909   1908   1910   1911     1  0.0000000  7.9496000  1
   1909   1908   1910   1911     1  180.0000771  9.6232000  2
   1913   1912   1915   1918     1  0.0000000  0.6508444  3
   1913   1912   1915   1916     1  0.0000000  0.6508444  3
   1913   1912   1915   1917     1  0.0000000  0.6508444  3
   1913   1912   1901   1923     1  0.0000000  0.6508444  3
   1914   1912   1915   1918     1  0.0000000  0.6508444  3
   1914   1912   1915   1916     1  0.0000000  0.6508444  3
   1914   1912   1915   1917     1  0.0000000  0.6508444  3
   1914   1912   1901   1923     1  0.0000000  0.6508444  3
   1915   1918   1920   1921     1  180.0000771  9.6232000  2
   1915   1912   1901   1923     1  0.0000000  0.6508444  3
   1916   1915   1918   1919     1  0.0000000  3.3472000  1
   1916   1915   1918   1919     1  0.0000000  0.0000000  2
   1916   1915   1918   1919     1  180.0000771  0.3347200  3
   1916   1915   1918   1920     1  180.0000771  0.0000000  2
   1917   1915   1918   1919     1  0.0000000  3.3472000  1
   1917   1915   1918   1919     1  0.0000000  0.0000000  2
   1917   1915   1918   1919     1  180.0000771  0.3347200  3
   1917   1915   1918   1920     1  180.0000771  0.0000000  2
   1919   1918   1920   1921     1  0.0000000  7.9496000  1
   1919   1918   1920   1921     1  180.0000771  9.6232000  2

;[ system ]
;; Name
;Generic title
;
;[ molecules ]
;; Compound       #mols
;system1              1
